Protein in INSANE! Membrane UpperLeaflet>POPC=1.0 LowerLeaflet>POPC=1.0
241462
   81AUC    AUC    1  46.832  28.608   7.502
   82AUC    AUC    2  47.078  28.608   7.350
   83AUC    AUC    3  47.078  28.608   7.653
   84AUC    AUC    4  46.587  28.608   7.350
   85AUC    AUC    5  46.587  28.608   7.653
   86AUC    AUC    6  46.680  28.853   7.502
   87AUC    AUC    7  46.984  28.853   7.502
   88AUC    AUC    8  46.680  28.362   7.502
   89AUC    AUC    9  46.984  28.362   7.502
   90AUC    AUC   10  46.832  28.456   7.747
   91AUC    AUC   11  46.832  28.759   7.747
   92AUC    AUC   12  46.832  28.456   7.256
   93AUC    AUC   13  46.832  28.759   7.256
   94AUC    AUC   14  47.323  28.608   7.198
   95AUC    AUC   15  47.323  28.608   7.502
   96AUC    AUC   16  47.323  28.608   7.805
   97AUC    AUC   17  46.341  28.608   7.198
   98AUC    AUC   18  46.341  28.608   7.502
   99AUC    AUC   19  46.341  28.608   7.805
  100AUC    AUC   20  46.529  29.098   7.502
  101AUC    AUC   21  46.832  29.098   7.502
  102AUC    AUC   22  47.135  29.098   7.502
  103AUC    AUC   23  46.529  28.117   7.502
  104AUC    AUC   24  46.832  28.117   7.502
  105AUC    AUC   25  47.135  28.117   7.502
  106AUC    AUC   26  46.832  28.304   7.992
  107AUC    AUC   27  46.832  28.608   7.992
  108AUC    AUC   28  46.832  28.911   7.992
  109AUC    AUC   29  46.832  28.304   7.011
  110AUC    AUC   30  46.832  28.608   7.011
  111AUC    AUC   31  46.832  28.911   7.011
  112AUC    AUC   32  47.078  28.456   7.899
  113AUC    AUC   33  47.078  28.759   7.899
  114AUC    AUC   34  47.078  28.456   7.105
  115AUC    AUC   35  47.078  28.759   7.105
  116AUC    AUC   36  46.587  28.456   7.899
  117AUC    AUC   37  46.587  28.759   7.899
  118AUC    AUC   38  46.587  28.456   7.105
  119AUC    AUC   39  46.587  28.759   7.105
  120AUC    AUC   40  47.229  28.853   7.350
  121AUC    AUC   41  47.229  28.853   7.653
  122AUC    AUC   42  46.435  28.853   7.350
  123AUC    AUC   43  46.435  28.853   7.653
  124AUC    AUC   44  47.229  28.362   7.350
  125AUC    AUC   45  47.229  28.362   7.653
  126AUC    AUC   46  46.435  28.362   7.350
  127AUC    AUC   47  46.435  28.362   7.653
  128AUC    AUC   48  46.680  29.005   7.747
  129AUC    AUC   49  46.984  29.005   7.747
  130AUC    AUC   50  46.680  28.210   7.747
  131AUC    AUC   51  46.984  28.210   7.747
  132AUC    AUC   52  46.680  29.005   7.256
  133AUC    AUC   53  46.984  29.005   7.256
  134AUC    AUC   54  46.680  28.210   7.256
  135AUC    AUC   55  46.984  28.210   7.256
  136AUSL   AUS   56  47.241  28.608   8.082
  137AUSL   AUS   57  47.097  28.191   8.012
  138AUL    AUL   58  47.323  28.304   8.296
  139THSLK    S   59  47.211  28.003   8.156
  140ETHY    C1   60  47.277  27.618   8.391
  141ETHY    C1   61  47.420  27.210   8.710
  142ETHY    C1   62  47.629  26.874   9.066
  143ETHY    C1   63  47.895  26.616   9.450
  144ETHY    C1   64  48.211  26.440   9.855
  145THSLK    S   65  47.337  28.558   8.326
  146ETHY    C1   66  47.553  28.372   8.681
  147ETHY    C1   67  47.828  28.237   9.124
  148ETHY    C1   68  48.109  28.207   9.575
  149ETHY    C1   69  48.387  28.276  10.025
  150ETHY    C1   70  48.656  28.444  10.466
  151AUSL   AUS   71  46.996  28.456   8.175
  152AUSL   AUS   72  46.669  28.759   8.175
  153AUL    AUL   73  46.832  28.608   8.483
  154THSLK    S   74  47.074  28.403   8.417
  155ETHY    C1   75  47.151  28.153   8.790
  156ETHY    C1   76  47.267  27.936   9.269
  157ETHY    C1   77  47.404  27.820   9.769
  158ETHY    C1   78  47.554  27.802  10.281
  159ETHY    C1   79  47.713  27.883  10.794
  160THSLK    S   80  46.582  28.716   8.431
  161ETHY    C1   81  46.500  28.604   8.864
  162ETHY    C1   82  46.386  28.558   9.388
  163ETHY    C1   83  46.254  28.616   9.901
  164ETHY    C1   84  46.103  28.769  10.389
  165ETHY    C1   85  45.937  29.013  10.844
  166AUSL   AUS   86  46.996  28.759   8.175
  167AUSL   AUS   87  47.342  28.872   7.918
  168AUL    AUL   88  47.323  28.911   8.296
  169THSLK    S   89  47.083  28.813   8.414
  170ETHY    C1   90  47.164  29.064   8.786
  171ETHY    C1   91  47.278  29.280   9.265
  172ETHY    C1   92  47.411  29.396   9.767
  173ETHY    C1   93  47.561  29.414  10.279
  174ETHY    C1   94  47.727  29.334  10.789
  175THSLK    S   95  47.516  28.974   8.080
  176ETHY    C1   96  47.880  28.984   8.354
  177ETHY    C1   97  48.296  29.086   8.680
  178ETHY    C1   98  48.676  29.285   8.995
  179ETHY    C1   99  49.011  29.572   9.296
  180ETHY    C1  100  49.292  29.940   9.577
  181AUSL   AUS  101  47.241  28.608   6.922
  182AUSL   AUS  102  47.097  29.024   6.992
  183AUL    AUL  103  47.323  28.911   6.707
  184THSLK    S  104  47.344  28.558   6.681
  185ETHY    C1  105  47.565  28.372   6.329
  186ETHY    C1  106  47.838  28.237   5.885
  187ETHY    C1  107  48.116  28.207   5.432
  188ETHY    C1  108  48.394  28.276   4.982
  189ETHY    C1  109  48.668  28.444   4.545
  190THSLK    S  110  47.275  29.139   6.825
  191ETHY    C1  111  47.563  29.244   6.488
  192ETHY    C1  112  47.863  29.448   6.090
  193ETHY    C1  113  48.106  29.736   5.714
  194ETHY    C1  114  48.290  30.100   5.371
  195ETHY    C1  115  48.414  30.531   5.065
  196AUSL   AUS  116  46.996  28.456   6.828
  197AUSL   AUS  117  47.342  28.343   7.085
  198AUL    AUL  118  47.323  28.304   6.707
  199THSLK    S  119  47.479  28.151   6.944
  200ETHY    C1  120  47.687  27.808   6.729
  201ETHY    C1  121  47.988  27.466   6.442
  202ETHY    C1  122  48.339  27.213   6.133
  203ETHY    C1  123  48.733  27.051   5.812
  204ETHY    C1  124  49.162  26.980   5.486
  205THSLK    S  125  47.083  28.402   6.590
  206ETHY    C1  126  47.164  28.151   6.217
  207ETHY    C1  127  47.278  27.935   5.738
  208ETHY    C1  128  47.411  27.819   5.236
  209ETHY    C1  129  47.561  27.801   4.725
  210ETHY    C1  130  47.727  27.881   4.214
  211AUSL   AUS  131  46.996  28.759   6.828
  212AUSL   AUS  132  46.669  28.456   6.828
  213AUL    AUL  133  46.832  28.608   6.520
  214THSLK    S  134  46.574  28.402   6.592
  215ETHY    C1  135  46.437  28.154   6.235
  216ETHY    C1  136  46.277  27.940   5.767
  217ETHY    C1  137  46.130  27.825   5.269
  218ETHY    C1  138  46.003  27.806   4.751
  219ETHY    C1  139  45.898  27.882   4.224
  220THSLK    S  140  47.099  28.717   6.578
  221ETHY    C1  141  47.240  28.602   6.160
  222ETHY    C1  142  47.398  28.555   5.647
  223ETHY    C1  143  47.541  28.611   5.138
  224ETHY    C1  144  47.669  28.765   4.643
  225ETHY    C1  145  47.780  29.013   4.174
  226AUSL   AUS  146  46.423  28.608   8.082
  227AUSL   AUS  147  46.567  29.024   8.012
  228AUL    AUL  148  46.341  28.911   8.296
  229THSLK    S  149  46.320  28.558   8.322
  230ETHY    C1  150  46.099  28.372   8.674
  231ETHY    C1  151  45.826  28.237   9.118
  232ETHY    C1  152  45.549  28.207   9.571
  233ETHY    C1  153  45.271  28.276  10.021
  234ETHY    C1  154  44.996  28.444  10.458
  235THSLK    S  155  46.447  29.153   8.202
  236ETHY    C1  156  46.378  29.322   8.620
  237ETHY    C1  157  46.236  29.575   9.073
  238ETHY    C1  158  46.030  29.876   9.460
  239ETHY    C1  159  45.763  30.215   9.775
  240ETHY    C1  160  45.443  30.582  10.013
  241AUSL   AUS  161  46.669  28.456   8.175
  242AUSL   AUS  162  46.322  28.343   7.918
  243AUL    AUL  163  46.341  28.304   8.296
  244THSLK    S  164  46.144  28.179   8.029
  245ETHY    C1  165  45.776  27.926   8.125
  246ETHY    C1  166  45.361  27.647   8.323
  247ETHY    C1  167  44.983  27.407   8.611
  248ETHY    C1  168  44.649  27.211   8.978
  249ETHY    C1  169  44.363  27.065   9.415
  250THSLK    S  170  46.566  28.404   8.410
  251ETHY    C1  171  46.424  28.157   8.766
  252ETHY    C1  172  46.266  27.942   9.233
  253ETHY    C1  173  46.123  27.826   9.733
  254ETHY    C1  174  45.996  27.808  10.250
  255ETHY    C1  175  45.884  27.886  10.775
  256AUSL   AUS  176  46.423  28.608   6.922
  257AUSL   AUS  177  46.567  28.191   6.992
  258AUL    AUL  178  46.341  28.304   6.707
  259THSLK    S  179  46.328  28.558   6.677
  260ETHY    C1  180  46.111  28.372   6.322
  261ETHY    C1  181  45.836  28.237   5.879
  262ETHY    C1  182  45.555  28.207   5.429
  263ETHY    C1  183  45.277  28.276   4.978
  264ETHY    C1  184  45.009  28.444   4.537
  265THSLK    S  185  46.395  28.017   6.872
  266ETHY    C1  186  46.110  27.696   6.717
  267ETHY    C1  187  45.809  27.337   6.453
  268ETHY    C1  188  45.564  27.014   6.109
  269ETHY    C1  189  45.380  26.731   5.696
  270ETHY    C1  190  45.261  26.491   5.223
  271AUSL   AUS  191  46.669  28.759   6.828
  272AUSL   AUS  192  46.322  28.872   7.085
  273AUL    AUL  193  46.341  28.911   6.707
  274THSLK    S  194  46.191  29.002   6.893
  275ETHY    C1  195  45.985  29.102   6.499
  276ETHY    C1  196  45.683  29.266   6.085
  277ETHY    C1  197  45.329  29.478   5.748
  278ETHY    C1  198  44.936  29.732   5.494
  279ETHY    C1  199  44.511  30.025   5.324
  280THSLK    S  200  46.590  28.718   6.571
  281ETHY    C1  201  46.513  28.606   6.136
  282ETHY    C1  202  46.397  28.561   5.612
  283ETHY    C1  203  46.261  28.617   5.101
  284ETHY    C1  204  46.111  28.771   4.613
  285ETHY    C1  205  45.951  29.016   4.156
  286AUSL   AUS  206  47.412  29.017   7.502
  287AUSL   AUS  207  47.342  28.872   7.085
  288AUL    AUL  208  47.626  29.098   7.198
  289THSLK    S  209  47.521  28.975   6.930
  290ETHY    C1  210  47.888  28.986   6.659
  291ETHY    C1  211  48.303  29.088   6.332
  292ETHY    C1  212  48.681  29.286   6.014
  293ETHY    C1  213  49.015  29.573   5.713
  294ETHY    C1  214  49.301  29.943   5.438
  295THSLK    S  215  47.680  29.073   7.506
  296ETHY    C1  216  48.132  29.134   7.508
  297ETHY    C1  217  48.646  29.293   7.507
  298ETHY    C1  218  49.114  29.547   7.505
  299ETHY    C1  219  49.527  29.884   7.506
  300ETHY    C1  220  49.879  30.298   7.509
  301AUSL   AUS  221  47.506  28.771   7.350
  302AUSL   AUS  222  47.506  28.444   7.653
  303AUL    AUL  223  47.814  28.608   7.502
  304THSLK    S  224  47.765  28.814   7.348
  305ETHY    C1  225  48.210  28.744   7.278
  306ETHY    C1  226  48.741  28.751   7.190
  307ETHY    C1  227  49.254  28.861   7.101
  308ETHY    C1  228  49.739  29.067   7.017
  309ETHY    C1  229  50.186  29.364   6.940
  310THSLK    S  230  47.738  28.306   7.662
  311ETHY    C1  231  48.084  28.017   7.728
  312ETHY    C1  232  48.545  27.750   7.809
  313ETHY    C1  233  49.042  27.581   7.892
  314ETHY    C1  234  49.563  27.509   7.980
  315ETHY    C1  235  50.098  27.535   8.071
  316AUSL   AUS  236  47.506  28.771   7.653
  317AUSL   AUS  237  47.249  29.118   7.766
  318AUL    AUL  238  47.626  29.098   7.805
  319THSLK    S  239  47.432  29.237   7.926
  320ETHY    C1  240  47.804  29.392   8.139
  321ETHY    C1  241  48.204  29.657   8.385
  322ETHY    C1  242  48.538  30.001   8.615
  323ETHY    C1  243  48.800  30.414   8.827
  324ETHY    C1  244  48.987  30.886   9.019
  325THSLK    S  245  47.764  28.814   7.664
  326ETHY    C1  246  48.208  28.744   7.738
  327ETHY    C1  247  48.739  28.751   7.825
  328ETHY    C1  248  49.253  28.861   7.910
  329ETHY    C1  249  49.737  29.067   7.994
  330ETHY    C1  250  50.184  29.364   8.078
  331AUSL   AUS  251  46.252  29.017   7.502
  332AUSL   AUS  252  46.322  28.872   7.918
  333AUL    AUL  253  46.038  29.098   7.805
  334THSLK    S  254  46.186  28.995   8.109
  335ETHY    C1  255  45.977  29.091   8.503
  336ETHY    C1  256  45.676  29.257   8.917
  337ETHY    C1  257  45.325  29.472   9.254
  338ETHY    C1  258  44.931  29.726   9.509
  339ETHY    C1  259  44.502  30.013   9.678
  340THSLK    S  260  46.036  29.157   7.506
  341ETHY    C1  261  45.780  29.535   7.508
  342ETHY    C1  262  45.407  29.923   7.507
  343ETHY    C1  263  44.971  30.229   7.505
  344ETHY    C1  264  44.485  30.447   7.506
  345ETHY    C1  265  43.958  30.577   7.509
  346AUSL   AUS  266  46.158  28.771   7.350
  347AUSL   AUS  267  46.416  29.118   7.237
  348AUL    AUL  268  46.038  29.098   7.198
  349THSLK    S  269  45.927  28.886   7.303
  350ETHY    C1  270  45.580  29.074   7.075
  351ETHY    C1  271  45.120  29.266   6.872
  352ETHY    C1  272  44.622  29.416   6.758
  353ETHY    C1  273  44.101  29.526   6.733
  354ETHY    C1  274  43.567  29.596   6.796
  355THSLK    S  275  46.300  29.283   7.058
  356ETHY    C1  276  46.184  29.599   6.750
  357ETHY    C1  277  45.970  29.977   6.432
  358ETHY    C1  278  45.678  30.346   6.183
  359ETHY    C1  279  45.320  30.699   6.008
  360ETHY    C1  280  44.902  31.032   5.909
  361AUSL   AUS  281  46.158  28.771   7.653
  362AUSL   AUS  282  46.158  28.444   7.350
  363AUL    AUL  283  45.850  28.608   7.502
  364THSLK    S  284  45.900  28.370   7.390
  365ETHY    C1  285  45.456  28.335   7.486
  366ETHY    C1  286  44.925  28.254   7.518
  367ETHY    C1  287  44.411  28.129   7.458
  368ETHY    C1  288  43.927  27.961   7.311
  369ETHY    C1  289  43.480  27.754   7.083
  370THSLK    S  290  45.925  28.878   7.704
  371ETHY    C1  291  45.578  29.062   7.935
  372ETHY    C1  292  45.118  29.255   8.137
  373ETHY    C1  293  44.621  29.410   8.249
  374ETHY    C1  294  44.100  29.520   8.274
  375ETHY    C1  295  43.564  29.583   8.213
  376AUSL   AUS  296  47.412  28.198   7.502
  377AUSL   AUS  297  47.342  28.343   7.918
  378AUL    AUL  298  47.626  28.117   7.805
  379THSLK    S  299  47.628  28.058   7.506
  380ETHY    C1  300  47.884  27.680   7.508
  381ETHY    C1  301  48.257  27.292   7.507
  382ETHY    C1  302  48.693  26.986   7.505
  383ETHY    C1  303  49.179  26.768   7.506
  384ETHY    C1  304  49.706  26.638   7.509
  385THSLK    S  305  47.474  28.153   8.066
  386ETHY    C1  306  47.679  27.810   8.285
  387ETHY    C1  307  47.981  27.468   8.570
  388ETHY    C1  308  48.335  27.215   8.877
  389ETHY    C1  309  48.729  27.052   9.198
  390ETHY    C1  310  49.153  26.982   9.529
  391AUSL   AUS  311  47.506  28.444   7.350
  392AUSL   AUS  312  47.249  28.097   7.237
  393AUL    AUL  313  47.626  28.117   7.198
  394THSLK    S  314  47.739  28.306   7.350
  395ETHY    C1  315  48.087  28.017   7.289
  396ETHY    C1  316  48.546  27.750   7.206
  397ETHY    C1  317  49.043  27.581   7.118
  398ETHY    C1  318  49.565  27.509   7.031
  399ETHY    C1  319  50.100  27.535   6.947
  400THSLK    S  320  47.368  27.907   7.104
  401ETHY    C1  321  47.485  27.490   6.963
  402ETHY    C1  322  47.699  27.036   6.765
  403ETHY    C1  323  47.989  26.650   6.543
  404ETHY    C1  324  48.348  26.335   6.306
  405ETHY    C1  325  48.768  26.096   6.058
  406AUSL   AUS  326  46.252  28.198   7.502
  407AUSL   AUS  327  46.322  28.343   7.085
  408AUL    AUL  328  46.038  28.117   7.198
  409THSLK    S  329  46.149  28.172   6.973
  410ETHY    C1  330  45.784  27.915   6.877
  411ETHY    C1  331  45.368  27.638   6.679
  412ETHY    C1  332  44.988  27.401   6.392
  413ETHY    C1  333  44.654  27.205   6.025
  414ETHY    C1  334  44.372  27.053   5.587
  415THSLK    S  335  45.984  28.142   7.506
  416ETHY    C1  336  45.532  28.081   7.508
  417ETHY    C1  337  45.018  27.922   7.507
  418ETHY    C1  338  44.550  27.668   7.505
  419ETHY    C1  339  44.137  27.331   7.506
  420ETHY    C1  340  43.785  26.917   7.509
  421AUSL   AUS  341  46.158  28.444   7.653
  422AUSL   AUS  342  46.416  28.097   7.766
  423AUL    AUL  343  46.038  28.117   7.805
  424THSLK    S  344  46.228  27.953   7.880
  425ETHY    C1  345  45.854  27.696   7.926
  426ETHY    C1  346  45.456  27.356   8.052
  427ETHY    C1  347  45.123  26.994   8.255
  428ETHY    C1  348  44.861  26.620   8.529
  429ETHY    C1  349  44.670  26.242   8.870
  430THSLK    S  350  45.899  28.377   7.617
  431ETHY    C1  351  45.454  28.347   7.524
  432ETHY    C1  352  44.923  28.265   7.490
  433ETHY    C1  353  44.410  28.136   7.549
  434ETHY    C1  354  43.926  27.968   7.696
  435ETHY    C1  355  43.478  27.766   7.928
  436AUSL   AUS  356  46.832  29.188   7.911
  437AUSL   AUS  357  46.416  29.118   7.766
  438AUL    AUL  358  46.529  29.402   7.992
  439THSLK    S  359  46.296  29.277   7.950
  440ETHY    C1  360  46.179  29.589   8.261
  441ETHY    C1  361  45.965  29.969   8.578
  442ETHY    C1  362  45.675  30.340   8.824
  443ETHY    C1  363  45.317  30.694   9.000
  444ETHY    C1  364  44.896  31.022   9.102
  445THSLK    S  365  46.872  29.414   8.035
  446ETHY    C1  366  47.029  29.716   8.339
  447ETHY    C1  367  47.144  30.122   8.672
  448ETHY    C1  368  47.171  30.566   8.964
  449ETHY    C1  369  47.111  31.035   9.211
  450ETHY    C1  370  46.967  31.519   9.410
  451AUSL   AUS  371  46.680  29.281   7.665
  452AUSL   AUS  372  46.984  29.281   7.338
  453AUL    AUL  373  46.832  29.589   7.502
  454THSLK    S  374  46.721  29.529   7.774
  455ETHY    C1  375  46.830  29.939   7.942
  456ETHY    C1  376  46.874  30.446   8.118
  457ETHY    C1  377  46.817  30.954   8.265
  458ETHY    C1  378  46.664  31.451   8.383
  459ETHY    C1  379  46.421  31.928   8.472
  460THSLK    S  380  47.037  29.516   7.241
  461ETHY    C1  381  47.282  29.872   7.094
  462ETHY    C1  382  47.495  30.337   6.927
  463ETHY    C1  383  47.610  30.835   6.779
  464ETHY    C1  384  47.630  31.354   6.655
  465ETHY    C1  385  47.555  31.883   6.558
  466AUSL   AUS  386  46.984  29.281   7.665
  467AUSL   AUS  387  47.097  29.024   8.012
  468AUL    AUL  388  47.135  29.402   7.992
  469THSLK    S  389  47.269  29.137   8.184
  470ETHY    C1  390  47.554  29.240   8.524
  471ETHY    C1  391  47.856  29.444   8.921
  472ETHY    C1  392  48.101  29.734   9.294
  473ETHY    C1  393  48.285  30.097   9.638
  474ETHY    C1  394  48.404  30.527   9.948
  475THSLK    S  395  47.035  29.515   7.771
  476ETHY    C1  396  47.279  29.869   7.922
  477ETHY    C1  397  47.492  30.335   8.087
  478ETHY    C1  398  47.608  30.834   8.231
  479ETHY    C1  399  47.627  31.352   8.356
  480ETHY    C1  400  47.552  31.880   8.458
  481AUSL   AUS  401  46.832  28.028   7.911
  482AUSL   AUS  402  47.249  28.097   7.766
  483AUL    AUL  403  47.135  27.813   7.992
  484THSLK    S  404  46.788  27.773   7.990
  485ETHY    C1  405  46.628  27.369   8.128
  486ETHY    C1  406  46.514  26.888   8.341
  487ETHY    C1  407  46.489  26.427   8.605
  488ETHY    C1  408  46.548  25.997   8.915
  489ETHY    C1  409  46.689  25.605   9.263
  490THSLK    S  410  47.364  27.908   7.908
  491ETHY    C1  411  47.480  27.492   8.052
  492ETHY    C1  412  47.694  27.039   8.248
  493ETHY    C1  413  47.986  26.651   8.467
  494ETHY    C1  414  48.345  26.336   8.705
  495ETHY    C1  415  48.762  26.099   8.958
  496AUSL   AUS  416  46.680  27.934   7.665
  497AUSL   AUS  417  46.567  28.191   8.012
  498AUL    AUL  418  46.529  27.813   7.992
  499THSLK    S  419  46.627  27.694   7.745
  500ETHY    C1  420  46.382  27.313   7.801
  501ETHY    C1  421  46.169  26.828   7.897
  502ETHY    C1  422  46.054  26.325   8.025
  503ETHY    C1  423  46.035  25.816   8.186
  504ETHY    C1  424  46.109  25.313   8.374
  505THSLK    S  425  46.389  28.023   8.133
  506ETHY    C1  426  46.101  27.705   8.289
  507ETHY    C1  427  45.801  27.345   8.552
  508ETHY    C1  428  45.558  27.019   8.896
  509ETHY    C1  429  45.374  26.736   9.309
  510ETHY    C1  430  45.250  26.502   9.783
  511AUSL   AUS  431  46.984  27.934   7.665
  512AUSL   AUS  432  46.680  27.934   7.338
  513AUL    AUL  433  46.832  27.626   7.502
  514THSLK    S  434  46.629  27.691   7.266
  515ETHY    C1  435  46.385  27.309   7.215
  516ETHY    C1  436  46.172  26.825   7.117
  517ETHY    C1  437  46.056  26.323   6.984
  518ETHY    C1  438  46.037  25.814   6.825
  519ETHY    C1  439  46.113  25.309   6.642
  520THSLK    S  440  46.941  27.678   7.749
  521ETHY    C1  441  46.831  27.242   7.821
  522ETHY    C1  442  46.788  26.716   7.928
  523ETHY    C1  443  46.845  26.204   8.059
  524ETHY    C1  444  46.998  25.716   8.213
  525ETHY    C1  445  47.240  25.263   8.388
  526AUSL   AUS  446  46.832  29.188   7.093
  527AUSL   AUS  447  47.249  29.118   7.237
  528AUL    AUL  448  47.135  29.402   7.011
  529THSLK    S  449  46.876  29.418   6.975
  530ETHY    C1  450  47.036  29.722   6.674
  531ETHY    C1  451  47.150  30.127   6.339
  532ETHY    C1  452  47.175  30.570   6.045
  533ETHY    C1  453  47.116  31.039   5.798
  534ETHY    C1  454  46.975  31.526   5.604
  535THSLK    S  455  47.436  29.239   7.085
  536ETHY    C1  456  47.810  29.395   6.876
  537ETHY    C1  457  48.208  29.659   6.629
  538ETHY    C1  458  48.541  30.003   6.395
  539ETHY    C1  459  48.803  30.415   6.184
  540ETHY    C1  460  48.994  30.889   5.998
  541AUSL   AUS  461  46.680  29.281   7.338
  542AUSL   AUS  462  46.567  29.024   6.992
  543AUL    AUL  463  46.529  29.402   7.011
  544THSLK    S  464  46.723  29.532   7.237
  545ETHY    C1  465  46.833  29.943   7.074
  546ETHY    C1  466  46.876  30.449   6.896
  547ETHY    C1  467  46.819  30.957   6.745
  548ETHY    C1  468  46.666  31.454   6.627
  549ETHY    C1  469  46.424  31.933   6.545
  550THSLK    S  470  46.453  29.159   6.802
  551ETHY    C1  471  46.387  29.331   6.385
  552ETHY    C1  472  46.244  29.583   5.932
  553ETHY    C1  473  46.035  29.882   5.544
  554ETHY    C1  474  45.769  30.220   5.230
  555ETHY    C1  475  45.453  30.593   4.993
  556AUSL   AUS  476  46.832  28.028   7.093
  557AUSL   AUS  477  46.416  28.097   7.237
  558AUL    AUL  478  46.529  27.813   7.011
  559THSLK    S  479  46.232  27.947   7.128
  560ETHY    C1  480  45.860  27.686   7.085
  561ETHY    C1  481  45.461  27.348   6.958
  562ETHY    C1  482  45.126  26.989   6.753
  563ETHY    C1  483  44.864  26.615   6.478
  564ETHY    C1  484  44.677  26.232   6.142
  565THSLK    S  485  46.792  27.769   7.019
  566ETHY    C1  486  46.635  27.363   6.885
  567ETHY    C1  487  46.520  26.883   6.671
  568ETHY    C1  488  46.493  26.424   6.404
  569ETHY    C1  489  46.553  25.993   6.094
  570ETHY    C1  490  46.697  25.598   5.751
  571AUSL   AUS  491  46.984  27.934   7.338
  572AUSL   AUS  492  47.097  28.191   6.992
  573AUL    AUL  493  47.135  27.813   7.011
  574THSLK    S  494  46.943  27.677   7.262
  575ETHY    C1  495  46.834  27.239   7.195
  576ETHY    C1  496  46.791  26.713   7.086
  577ETHY    C1  497  46.847  26.202   6.951
  578ETHY    C1  498  47.000  25.714   6.798
  579ETHY    C1  499  47.244  25.260   6.629
  580THSLK    S  500  47.217  28.001   6.853
  581ETHY    C1  501  47.286  27.615   6.621
  582ETHY    C1  502  47.428  27.207   6.300
  583ETHY    C1  503  47.635  26.871   5.942
  584ETHY    C1  504  47.901  26.614   5.559
  585ETHY    C1  505  48.221  26.436   5.158
  586AUC    AUC  506   5.802  16.042   7.502
  587AUC    AUC  507   6.048  16.042   7.350
  588AUC    AUC  508   6.048  16.042   7.653
  589AUC    AUC  509   5.557  16.042   7.350
  590AUC    AUC  510   5.557  16.042   7.653
  591AUC    AUC  511   5.650  16.287   7.502
  592AUC    AUC  512   5.954  16.287   7.502
  593AUC    AUC  513   5.650  15.796   7.502
  594AUC    AUC  514   5.954  15.796   7.502
  595AUC    AUC  515   5.802  15.890   7.747
  596AUC    AUC  516   5.802  16.193   7.747
  597AUC    AUC  517   5.802  15.890   7.256
  598AUC    AUC  518   5.802  16.193   7.256
  599AUC    AUC  519   6.293  16.042   7.198
  600AUC    AUC  520   6.293  16.042   7.502
  601AUC    AUC  521   6.293  16.042   7.805
  602AUC    AUC  522   5.311  16.042   7.198
  603AUC    AUC  523   5.311  16.042   7.502
  604AUC    AUC  524   5.311  16.042   7.805
  605AUC    AUC  525   5.499  16.532   7.502
  606AUC    AUC  526   5.802  16.532   7.502
  607AUC    AUC  527   6.105  16.532   7.502
  608AUC    AUC  528   5.499  15.551   7.502
  609AUC    AUC  529   5.802  15.551   7.502
  610AUC    AUC  530   6.105  15.551   7.502
  611AUC    AUC  531   5.802  15.738   7.992
  612AUC    AUC  532   5.802  16.042   7.992
  613AUC    AUC  533   5.802  16.345   7.992
  614AUC    AUC  534   5.802  15.738   7.011
  615AUC    AUC  535   5.802  16.042   7.011
  616AUC    AUC  536   5.802  16.345   7.011
  617AUC    AUC  537   6.048  15.890   7.899
  618AUC    AUC  538   6.048  16.193   7.899
  619AUC    AUC  539   6.048  15.890   7.105
  620AUC    AUC  540   6.048  16.193   7.105
  621AUC    AUC  541   5.557  15.890   7.899
  622AUC    AUC  542   5.557  16.193   7.899
  623AUC    AUC  543   5.557  15.890   7.105
  624AUC    AUC  544   5.557  16.193   7.105
  625AUC    AUC  545   6.199  16.287   7.350
  626AUC    AUC  546   6.199  16.287   7.653
  627AUC    AUC  547   5.405  16.287   7.350
  628AUC    AUC  548   5.405  16.287   7.653
  629AUC    AUC  549   6.199  15.796   7.350
  630AUC    AUC  550   6.199  15.796   7.653
  631AUC    AUC  551   5.405  15.796   7.350
  632AUC    AUC  552   5.405  15.796   7.653
  633AUC    AUC  553   5.650  16.439   7.747
  634AUC    AUC  554   5.954  16.439   7.747
  635AUC    AUC  555   5.650  15.644   7.747
  636AUC    AUC  556   5.954  15.644   7.747
  637AUC    AUC  557   5.650  16.439   7.256
  638AUC    AUC  558   5.954  16.439   7.256
  639AUC    AUC  559   5.650  15.644   7.256
  640AUC    AUC  560   5.954  15.644   7.256
  641AUSL   AUS  561   6.211  16.042   8.082
  642AUSL   AUS  562   6.067  15.625   8.012
  643AUL    AUL  563   6.293  15.738   8.296
  644THSLK    S  564   6.181  15.437   8.156
  645ETHY    C1  565   6.247  15.052   8.391
  646ETHY    C1  566   6.390  14.644   8.710
  647ETHY    C1  567   6.599  14.308   9.066
  648ETHY    C1  568   6.865  14.050   9.450
  649ETHY    C1  569   7.181  13.874   9.855
  650THSLK    S  570   6.307  15.992   8.326
  651ETHY    C1  571   6.523  15.806   8.681
  652ETHY    C1  572   6.798  15.671   9.124
  653ETHY    C1  573   7.079  15.641   9.575
  654ETHY    C1  574   7.357  15.710  10.025
  655ETHY    C1  575   7.626  15.878  10.466
  656AUSL   AUS  576   5.966  15.890   8.175
  657AUSL   AUS  577   5.639  16.193   8.175
  658AUL    AUL  578   5.802  16.042   8.483
  659THSLK    S  579   6.044  15.837   8.417
  660ETHY    C1  580   6.121  15.587   8.790
  661ETHY    C1  581   6.237  15.370   9.269
  662ETHY    C1  582   6.374  15.254   9.769
  663ETHY    C1  583   6.524  15.236  10.281
  664ETHY    C1  584   6.683  15.317  10.794
  665THSLK    S  585   5.552  16.150   8.431
  666ETHY    C1  586   5.470  16.038   8.864
  667ETHY    C1  587   5.356  15.992   9.388
  668ETHY    C1  588   5.224  16.050   9.901
  669ETHY    C1  589   5.073  16.203  10.389
  670ETHY    C1  590   4.907  16.447  10.844
  671AUSL   AUS  591   5.966  16.193   8.175
  672AUSL   AUS  592   6.312  16.306   7.918
  673AUL    AUL  593   6.293  16.345   8.296
  674THSLK    S  594   6.053  16.247   8.414
  675ETHY    C1  595   6.134  16.498   8.786
  676ETHY    C1  596   6.248  16.714   9.265
  677ETHY    C1  597   6.381  16.830   9.767
  678ETHY    C1  598   6.531  16.848  10.279
  679ETHY    C1  599   6.697  16.768  10.789
  680THSLK    S  600   6.486  16.408   8.080
  681ETHY    C1  601   6.850  16.418   8.354
  682ETHY    C1  602   7.266  16.520   8.680
  683ETHY    C1  603   7.646  16.719   8.995
  684ETHY    C1  604   7.981  17.006   9.296
  685ETHY    C1  605   8.262  17.374   9.577
  686AUSL   AUS  606   6.211  16.042   6.922
  687AUSL   AUS  607   6.067  16.458   6.992
  688AUL    AUL  608   6.293  16.345   6.707
  689THSLK    S  609   6.314  15.992   6.681
  690ETHY    C1  610   6.535  15.806   6.329
  691ETHY    C1  611   6.808  15.671   5.885
  692ETHY    C1  612   7.086  15.641   5.432
  693ETHY    C1  613   7.364  15.710   4.982
  694ETHY    C1  614   7.638  15.878   4.545
  695THSLK    S  615   6.245  16.573   6.825
  696ETHY    C1  616   6.533  16.678   6.488
  697ETHY    C1  617   6.833  16.882   6.090
  698ETHY    C1  618   7.076  17.170   5.714
  699ETHY    C1  619   7.260  17.534   5.371
  700ETHY    C1  620   7.384  17.965   5.065
  701AUSL   AUS  621   5.966  15.890   6.828
  702AUSL   AUS  622   6.312  15.777   7.085
  703AUL    AUL  623   6.293  15.738   6.707
  704THSLK    S  624   6.449  15.585   6.944
  705ETHY    C1  625   6.657  15.242   6.729
  706ETHY    C1  626   6.958  14.900   6.442
  707ETHY    C1  627   7.309  14.647   6.133
  708ETHY    C1  628   7.703  14.485   5.812
  709ETHY    C1  629   8.132  14.414   5.486
  710THSLK    S  630   6.053  15.836   6.590
  711ETHY    C1  631   6.134  15.585   6.217
  712ETHY    C1  632   6.248  15.369   5.738
  713ETHY    C1  633   6.381  15.253   5.236
  714ETHY    C1  634   6.531  15.235   4.725
  715ETHY    C1  635   6.697  15.315   4.214
  716AUSL   AUS  636   5.966  16.193   6.828
  717AUSL   AUS  637   5.639  15.890   6.828
  718AUL    AUL  638   5.802  16.042   6.520
  719THSLK    S  639   5.544  15.836   6.592
  720ETHY    C1  640   5.407  15.588   6.235
  721ETHY    C1  641   5.247  15.374   5.767
  722ETHY    C1  642   5.100  15.259   5.269
  723ETHY    C1  643   4.973  15.240   4.751
  724ETHY    C1  644   4.868  15.316   4.224
  725THSLK    S  645   6.069  16.151   6.578
  726ETHY    C1  646   6.210  16.036   6.160
  727ETHY    C1  647   6.368  15.989   5.647
  728ETHY    C1  648   6.511  16.045   5.138
  729ETHY    C1  649   6.639  16.199   4.643
  730ETHY    C1  650   6.750  16.447   4.174
  731AUSL   AUS  651   5.393  16.042   8.082
  732AUSL   AUS  652   5.537  16.458   8.012
  733AUL    AUL  653   5.311  16.345   8.296
  734THSLK    S  654   5.290  15.992   8.322
  735ETHY    C1  655   5.069  15.806   8.674
  736ETHY    C1  656   4.796  15.671   9.118
  737ETHY    C1  657   4.519  15.641   9.571
  738ETHY    C1  658   4.241  15.710  10.021
  739ETHY    C1  659   3.966  15.878  10.458
  740THSLK    S  660   5.417  16.587   8.202
  741ETHY    C1  661   5.348  16.756   8.620
  742ETHY    C1  662   5.206  17.009   9.073
  743ETHY    C1  663   5.000  17.310   9.460
  744ETHY    C1  664   4.733  17.649   9.775
  745ETHY    C1  665   4.413  18.016  10.013
  746AUSL   AUS  666   5.639  15.890   8.175
  747AUSL   AUS  667   5.292  15.777   7.918
  748AUL    AUL  668   5.311  15.738   8.296
  749THSLK    S  669   5.114  15.613   8.029
  750ETHY    C1  670   4.746  15.360   8.125
  751ETHY    C1  671   4.331  15.081   8.323
  752ETHY    C1  672   3.953  14.841   8.611
  753ETHY    C1  673   3.619  14.645   8.978
  754ETHY    C1  674   3.333  14.499   9.415
  755THSLK    S  675   5.536  15.838   8.410
  756ETHY    C1  676   5.394  15.591   8.766
  757ETHY    C1  677   5.236  15.376   9.233
  758ETHY    C1  678   5.093  15.260   9.733
  759ETHY    C1  679   4.966  15.242  10.250
  760ETHY    C1  680   4.854  15.320  10.775
  761AUSL   AUS  681   5.393  16.042   6.922
  762AUSL   AUS  682   5.537  15.625   6.992
  763AUL    AUL  683   5.311  15.738   6.707
  764THSLK    S  684   5.298  15.992   6.677
  765ETHY    C1  685   5.081  15.806   6.322
  766ETHY    C1  686   4.806  15.671   5.879
  767ETHY    C1  687   4.525  15.641   5.429
  768ETHY    C1  688   4.247  15.710   4.978
  769ETHY    C1  689   3.979  15.878   4.537
  770THSLK    S  690   5.365  15.451   6.872
  771ETHY    C1  691   5.080  15.130   6.717
  772ETHY    C1  692   4.779  14.771   6.453
  773ETHY    C1  693   4.534  14.448   6.109
  774ETHY    C1  694   4.350  14.165   5.696
  775ETHY    C1  695   4.231  13.925   5.223
  776AUSL   AUS  696   5.639  16.193   6.828
  777AUSL   AUS  697   5.292  16.306   7.085
  778AUL    AUL  698   5.311  16.345   6.707
  779THSLK    S  699   5.161  16.436   6.893
  780ETHY    C1  700   4.955  16.536   6.499
  781ETHY    C1  701   4.653  16.700   6.085
  782ETHY    C1  702   4.299  16.912   5.748
  783ETHY    C1  703   3.906  17.166   5.494
  784ETHY    C1  704   3.481  17.459   5.324
  785THSLK    S  705   5.560  16.152   6.571
  786ETHY    C1  706   5.483  16.040   6.136
  787ETHY    C1  707   5.367  15.995   5.612
  788ETHY    C1  708   5.231  16.051   5.101
  789ETHY    C1  709   5.081  16.205   4.613
  790ETHY    C1  710   4.921  16.450   4.156
  791AUSL   AUS  711   6.382  16.451   7.502
  792AUSL   AUS  712   6.312  16.306   7.085
  793AUL    AUL  713   6.596  16.532   7.198
  794THSLK    S  714   6.491  16.409   6.930
  795ETHY    C1  715   6.858  16.420   6.659
  796ETHY    C1  716   7.273  16.522   6.332
  797ETHY    C1  717   7.651  16.720   6.014
  798ETHY    C1  718   7.985  17.007   5.713
  799ETHY    C1  719   8.271  17.377   5.438
  800THSLK    S  720   6.650  16.507   7.506
  801ETHY    C1  721   7.102  16.568   7.508
  802ETHY    C1  722   7.616  16.727   7.507
  803ETHY    C1  723   8.084  16.981   7.505
  804ETHY    C1  724   8.497  17.318   7.506
  805ETHY    C1  725   8.849  17.732   7.509
  806AUSL   AUS  726   6.476  16.205   7.350
  807AUSL   AUS  727   6.476  15.878   7.653
  808AUL    AUL  728   6.784  16.042   7.502
  809THSLK    S  729   6.735  16.248   7.348
  810ETHY    C1  730   7.180  16.178   7.278
  811ETHY    C1  731   7.711  16.185   7.190
  812ETHY    C1  732   8.224  16.295   7.101
  813ETHY    C1  733   8.709  16.501   7.017
  814ETHY    C1  734   9.156  16.798   6.940
  815THSLK    S  735   6.708  15.740   7.662
  816ETHY    C1  736   7.054  15.451   7.728
  817ETHY    C1  737   7.515  15.184   7.809
  818ETHY    C1  738   8.012  15.015   7.892
  819ETHY    C1  739   8.533  14.943   7.980
  820ETHY    C1  740   9.068  14.969   8.071
  821AUSL   AUS  741   6.476  16.205   7.653
  822AUSL   AUS  742   6.219  16.552   7.766
  823AUL    AUL  743   6.596  16.532   7.805
  824THSLK    S  744   6.402  16.671   7.926
  825ETHY    C1  745   6.774  16.826   8.139
  826ETHY    C1  746   7.174  17.091   8.385
  827ETHY    C1  747   7.508  17.435   8.615
  828ETHY    C1  748   7.770  17.848   8.827
  829ETHY    C1  749   7.957  18.320   9.019
  830THSLK    S  750   6.734  16.248   7.664
  831ETHY    C1  751   7.178  16.178   7.738
  832ETHY    C1  752   7.709  16.185   7.825
  833ETHY    C1  753   8.223  16.295   7.910
  834ETHY    C1  754   8.707  16.501   7.994
  835ETHY    C1  755   9.154  16.798   8.078
  836AUSL   AUS  756   5.222  16.451   7.502
  837AUSL   AUS  757   5.292  16.306   7.918
  838AUL    AUL  758   5.008  16.532   7.805
  839THSLK    S  759   5.156  16.429   8.109
  840ETHY    C1  760   4.947  16.525   8.503
  841ETHY    C1  761   4.646  16.691   8.917
  842ETHY    C1  762   4.295  16.906   9.254
  843ETHY    C1  763   3.901  17.160   9.509
  844ETHY    C1  764   3.472  17.447   9.678
  845THSLK    S  765   5.006  16.591   7.506
  846ETHY    C1  766   4.750  16.969   7.508
  847ETHY    C1  767   4.377  17.357   7.507
  848ETHY    C1  768   3.941  17.663   7.505
  849ETHY    C1  769   3.455  17.881   7.506
  850ETHY    C1  770   2.928  18.011   7.509
  851AUSL   AUS  771   5.128  16.205   7.350
  852AUSL   AUS  772   5.386  16.552   7.237
  853AUL    AUL  773   5.008  16.532   7.198
  854THSLK    S  774   4.897  16.320   7.303
  855ETHY    C1  775   4.550  16.508   7.075
  856ETHY    C1  776   4.090  16.700   6.872
  857ETHY    C1  777   3.592  16.850   6.758
  858ETHY    C1  778   3.071  16.960   6.733
  859ETHY    C1  779   2.537  17.030   6.796
  860THSLK    S  780   5.270  16.717   7.058
  861ETHY    C1  781   5.154  17.033   6.750
  862ETHY    C1  782   4.940  17.411   6.432
  863ETHY    C1  783   4.648  17.780   6.183
  864ETHY    C1  784   4.290  18.133   6.008
  865ETHY    C1  785   3.872  18.466   5.909
  866AUSL   AUS  786   5.128  16.205   7.653
  867AUSL   AUS  787   5.128  15.878   7.350
  868AUL    AUL  788   4.820  16.042   7.502
  869THSLK    S  789   4.870  15.804   7.390
  870ETHY    C1  790   4.426  15.769   7.486
  871ETHY    C1  791   3.895  15.688   7.518
  872ETHY    C1  792   3.381  15.563   7.458
  873ETHY    C1  793   2.897  15.395   7.311
  874ETHY    C1  794   2.450  15.188   7.083
  875THSLK    S  795   4.895  16.312   7.704
  876ETHY    C1  796   4.548  16.496   7.935
  877ETHY    C1  797   4.088  16.689   8.137
  878ETHY    C1  798   3.591  16.844   8.249
  879ETHY    C1  799   3.070  16.954   8.274
  880ETHY    C1  800   2.534  17.017   8.213
  881AUSL   AUS  801   6.382  15.632   7.502
  882AUSL   AUS  802   6.312  15.777   7.918
  883AUL    AUL  803   6.596  15.551   7.805
  884THSLK    S  804   6.598  15.492   7.506
  885ETHY    C1  805   6.854  15.114   7.508
  886ETHY    C1  806   7.227  14.726   7.507
  887ETHY    C1  807   7.663  14.420   7.505
  888ETHY    C1  808   8.149  14.202   7.506
  889ETHY    C1  809   8.676  14.072   7.509
  890THSLK    S  810   6.444  15.587   8.066
  891ETHY    C1  811   6.649  15.244   8.285
  892ETHY    C1  812   6.951  14.902   8.570
  893ETHY    C1  813   7.305  14.649   8.877
  894ETHY    C1  814   7.699  14.486   9.198
  895ETHY    C1  815   8.123  14.416   9.529
  896AUSL   AUS  816   6.476  15.878   7.350
  897AUSL   AUS  817   6.219  15.531   7.237
  898AUL    AUL  818   6.596  15.551   7.198
  899THSLK    S  819   6.709  15.740   7.350
  900ETHY    C1  820   7.057  15.451   7.289
  901ETHY    C1  821   7.516  15.184   7.206
  902ETHY    C1  822   8.013  15.015   7.118
  903ETHY    C1  823   8.535  14.943   7.031
  904ETHY    C1  824   9.070  14.969   6.947
  905THSLK    S  825   6.338  15.341   7.104
  906ETHY    C1  826   6.455  14.924   6.963
  907ETHY    C1  827   6.669  14.470   6.765
  908ETHY    C1  828   6.959  14.084   6.543
  909ETHY    C1  829   7.318  13.769   6.306
  910ETHY    C1  830   7.738  13.530   6.058
  911AUSL   AUS  831   5.222  15.632   7.502
  912AUSL   AUS  832   5.292  15.777   7.085
  913AUL    AUL  833   5.008  15.551   7.198
  914THSLK    S  834   5.119  15.606   6.973
  915ETHY    C1  835   4.754  15.349   6.877
  916ETHY    C1  836   4.338  15.072   6.679
  917ETHY    C1  837   3.958  14.835   6.392
  918ETHY    C1  838   3.624  14.639   6.025
  919ETHY    C1  839   3.342  14.487   5.587
  920THSLK    S  840   4.954  15.576   7.506
  921ETHY    C1  841   4.502  15.515   7.508
  922ETHY    C1  842   3.988  15.356   7.507
  923ETHY    C1  843   3.520  15.102   7.505
  924ETHY    C1  844   3.107  14.765   7.506
  925ETHY    C1  845   2.755  14.351   7.509
  926AUSL   AUS  846   5.128  15.878   7.653
  927AUSL   AUS  847   5.386  15.531   7.766
  928AUL    AUL  848   5.008  15.551   7.805
  929THSLK    S  849   5.198  15.387   7.880
  930ETHY    C1  850   4.824  15.130   7.926
  931ETHY    C1  851   4.426  14.790   8.052
  932ETHY    C1  852   4.093  14.428   8.255
  933ETHY    C1  853   3.831  14.054   8.529
  934ETHY    C1  854   3.640  13.676   8.870
  935THSLK    S  855   4.869  15.811   7.617
  936ETHY    C1  856   4.424  15.781   7.524
  937ETHY    C1  857   3.893  15.699   7.490
  938ETHY    C1  858   3.380  15.570   7.549
  939ETHY    C1  859   2.896  15.402   7.696
  940ETHY    C1  860   2.448  15.200   7.928
  941AUSL   AUS  861   5.802  16.622   7.911
  942AUSL   AUS  862   5.386  16.552   7.766
  943AUL    AUL  863   5.499  16.836   7.992
  944THSLK    S  864   5.266  16.711   7.950
  945ETHY    C1  865   5.149  17.023   8.261
  946ETHY    C1  866   4.935  17.403   8.578
  947ETHY    C1  867   4.645  17.774   8.824
  948ETHY    C1  868   4.287  18.128   9.000
  949ETHY    C1  869   3.866  18.456   9.102
  950THSLK    S  870   5.842  16.848   8.035
  951ETHY    C1  871   5.999  17.150   8.339
  952ETHY    C1  872   6.114  17.556   8.672
  953ETHY    C1  873   6.141  18.000   8.964
  954ETHY    C1  874   6.081  18.469   9.211
  955ETHY    C1  875   5.937  18.953   9.410
  956AUSL   AUS  876   5.650  16.715   7.665
  957AUSL   AUS  877   5.954  16.715   7.338
  958AUL    AUL  878   5.802  17.023   7.502
  959THSLK    S  879   5.691  16.963   7.774
  960ETHY    C1  880   5.800  17.373   7.942
  961ETHY    C1  881   5.844  17.880   8.118
  962ETHY    C1  882   5.787  18.388   8.265
  963ETHY    C1  883   5.634  18.885   8.383
  964ETHY    C1  884   5.391  19.362   8.472
  965THSLK    S  885   6.007  16.950   7.241
  966ETHY    C1  886   6.252  17.306   7.094
  967ETHY    C1  887   6.465  17.771   6.927
  968ETHY    C1  888   6.580  18.269   6.779
  969ETHY    C1  889   6.600  18.788   6.655
  970ETHY    C1  890   6.525  19.317   6.558
  971AUSL   AUS  891   5.954  16.715   7.665
  972AUSL   AUS  892   6.067  16.458   8.012
  973AUL    AUL  893   6.105  16.836   7.992
  974THSLK    S  894   6.239  16.571   8.184
  975ETHY    C1  895   6.524  16.674   8.524
  976ETHY    C1  896   6.826  16.878   8.921
  977ETHY    C1  897   7.071  17.168   9.294
  978ETHY    C1  898   7.255  17.531   9.638
  979ETHY    C1  899   7.374  17.961   9.948
  980THSLK    S  900   6.005  16.949   7.771
  981ETHY    C1  901   6.249  17.303   7.922
  982ETHY    C1  902   6.462  17.769   8.087
  983ETHY    C1  903   6.578  18.268   8.231
  984ETHY    C1  904   6.597  18.786   8.356
  985ETHY    C1  905   6.522  19.314   8.458
  986AUSL   AUS  906   5.802  15.462   7.911
  987AUSL   AUS  907   6.219  15.531   7.766
  988AUL    AUL  908   6.105  15.247   7.992
  989THSLK    S  909   5.758  15.207   7.990
  990ETHY    C1  910   5.598  14.803   8.128
  991ETHY    C1  911   5.484  14.322   8.341
  992ETHY    C1  912   5.459  13.861   8.605
  993ETHY    C1  913   5.518  13.431   8.915
  994ETHY    C1  914   5.659  13.039   9.263
  995THSLK    S  915   6.334  15.342   7.908
  996ETHY    C1  916   6.450  14.926   8.052
  997ETHY    C1  917   6.664  14.473   8.248
  998ETHY    C1  918   6.956  14.085   8.467
  999ETHY    C1  919   7.315  13.770   8.705
 1000ETHY    C1  920   7.732  13.533   8.958
 1001AUSL   AUS  921   5.650  15.368   7.665
 1002AUSL   AUS  922   5.537  15.625   8.012
 1003AUL    AUL  923   5.499  15.247   7.992
 1004THSLK    S  924   5.597  15.128   7.745
 1005ETHY    C1  925   5.352  14.747   7.801
 1006ETHY    C1  926   5.139  14.262   7.897
 1007ETHY    C1  927   5.024  13.759   8.025
 1008ETHY    C1  928   5.005  13.250   8.186
 1009ETHY    C1  929   5.079  12.747   8.374
 1010THSLK    S  930   5.359  15.457   8.133
 1011ETHY    C1  931   5.071  15.139   8.289
 1012ETHY    C1  932   4.771  14.779   8.552
 1013ETHY    C1  933   4.528  14.453   8.896
 1014ETHY    C1  934   4.344  14.170   9.309
 1015ETHY    C1  935   4.220  13.936   9.783
 1016AUSL   AUS  936   5.954  15.368   7.665
 1017AUSL   AUS  937   5.650  15.368   7.338
 1018AUL    AUL  938   5.802  15.060   7.502
 1019THSLK    S  939   5.599  15.125   7.266
 1020ETHY    C1  940   5.355  14.743   7.215
 1021ETHY    C1  941   5.142  14.259   7.117
 1022ETHY    C1  942   5.026  13.757   6.984
 1023ETHY    C1  943   5.007  13.248   6.825
 1024ETHY    C1  944   5.083  12.743   6.642
 1025THSLK    S  945   5.911  15.112   7.749
 1026ETHY    C1  946   5.801  14.676   7.821
 1027ETHY    C1  947   5.758  14.150   7.928
 1028ETHY    C1  948   5.815  13.638   8.059
 1029ETHY    C1  949   5.968  13.150   8.213
 1030ETHY    C1  950   6.210  12.697   8.388
 1031AUSL   AUS  951   5.802  16.622   7.093
 1032AUSL   AUS  952   6.219  16.552   7.237
 1033AUL    AUL  953   6.105  16.836   7.011
 1034THSLK    S  954   5.846  16.852   6.975
 1035ETHY    C1  955   6.006  17.156   6.674
 1036ETHY    C1  956   6.120  17.561   6.339
 1037ETHY    C1  957   6.145  18.004   6.045
 1038ETHY    C1  958   6.086  18.473   5.798
 1039ETHY    C1  959   5.945  18.960   5.604
 1040THSLK    S  960   6.406  16.673   7.085
 1041ETHY    C1  961   6.780  16.829   6.876
 1042ETHY    C1  962   7.178  17.093   6.629
 1043ETHY    C1  963   7.511  17.437   6.395
 1044ETHY    C1  964   7.773  17.849   6.184
 1045ETHY    C1  965   7.964  18.323   5.998
 1046AUSL   AUS  966   5.650  16.715   7.338
 1047AUSL   AUS  967   5.537  16.458   6.992
 1048AUL    AUL  968   5.499  16.836   7.011
 1049THSLK    S  969   5.693  16.966   7.237
 1050ETHY    C1  970   5.803  17.377   7.074
 1051ETHY    C1  971   5.846  17.883   6.896
 1052ETHY    C1  972   5.789  18.391   6.745
 1053ETHY    C1  973   5.636  18.888   6.627
 1054ETHY    C1  974   5.394  19.367   6.545
 1055THSLK    S  975   5.423  16.593   6.802
 1056ETHY    C1  976   5.357  16.765   6.385
 1057ETHY    C1  977   5.214  17.017   5.932
 1058ETHY    C1  978   5.005  17.316   5.544
 1059ETHY    C1  979   4.739  17.654   5.230
 1060ETHY    C1  980   4.423  18.027   4.993
 1061AUSL   AUS  981   5.802  15.462   7.093
 1062AUSL   AUS  982   5.386  15.531   7.237
 1063AUL    AUL  983   5.499  15.247   7.011
 1064THSLK    S  984   5.202  15.381   7.128
 1065ETHY    C1  985   4.830  15.120   7.085
 1066ETHY    C1  986   4.431  14.782   6.958
 1067ETHY    C1  987   4.096  14.423   6.753
 1068ETHY    C1  988   3.834  14.049   6.478
 1069ETHY    C1  989   3.647  13.666   6.142
 1070THSLK    S  990   5.762  15.203   7.019
 1071ETHY    C1  991   5.605  14.797   6.885
 1072ETHY    C1  992   5.490  14.317   6.671
 1073ETHY    C1  993   5.463  13.858   6.404
 1074ETHY    C1  994   5.523  13.427   6.094
 1075ETHY    C1  995   5.667  13.032   5.751
 1076AUSL   AUS  996   5.954  15.368   7.338
 1077AUSL   AUS  997   6.067  15.625   6.992
 1078AUL    AUL  998   6.105  15.247   7.011
 1079THSLK    S  999   5.913  15.111   7.262
 1080ETHY    C1 1000   5.804  14.673   7.195
 1081ETHY    C1 1001   5.761  14.147   7.086
 1082ETHY    C1 1002   5.817  13.636   6.951
 1083ETHY    C1 1003   5.970  13.148   6.798
 1084ETHY    C1 1004   6.214  12.694   6.629
 1085THSLK    S 1005   6.187  15.435   6.853
 1086ETHY    C1 1006   6.256  15.049   6.621
 1087ETHY    C1 1007   6.398  14.641   6.300
 1088ETHY    C1 1008   6.605  14.305   5.942
 1089ETHY    C1 1009   6.871  14.048   5.559
 1090ETHY    C1 1010   7.191  13.870   5.158
 1091AUC    AUC 1011  21.670  34.716   7.502
 1092AUC    AUC 1012  21.916  34.716   7.350
 1093AUC    AUC 1013  21.916  34.716   7.653
 1094AUC    AUC 1014  21.425  34.716   7.350
 1095AUC    AUC 1015  21.425  34.716   7.653
 1096AUC    AUC 1016  21.518  34.961   7.502
 1097AUC    AUC 1017  21.822  34.961   7.502
 1098AUC    AUC 1018  21.518  34.470   7.502
 1099AUC    AUC 1019  21.822  34.470   7.502
 1100AUC    AUC 1020  21.670  34.564   7.747
 1101AUC    AUC 1021  21.670  34.867   7.747
 1102AUC    AUC 1022  21.670  34.564   7.256
 1103AUC    AUC 1023  21.670  34.867   7.256
 1104AUC    AUC 1024  22.161  34.716   7.198
 1105AUC    AUC 1025  22.161  34.716   7.502
 1106AUC    AUC 1026  22.161  34.716   7.805
 1107AUC    AUC 1027  21.179  34.716   7.198
 1108AUC    AUC 1028  21.179  34.716   7.502
 1109AUC    AUC 1029  21.179  34.716   7.805
 1110AUC    AUC 1030  21.367  35.206   7.502
 1111AUC    AUC 1031  21.670  35.206   7.502
 1112AUC    AUC 1032  21.973  35.206   7.502
 1113AUC    AUC 1033  21.367  34.225   7.502
 1114AUC    AUC 1034  21.670  34.225   7.502
 1115AUC    AUC 1035  21.973  34.225   7.502
 1116AUC    AUC 1036  21.670  34.412   7.992
 1117AUC    AUC 1037  21.670  34.716   7.992
 1118AUC    AUC 1038  21.670  35.019   7.992
 1119AUC    AUC 1039  21.670  34.412   7.011
 1120AUC    AUC 1040  21.670  34.716   7.011
 1121AUC    AUC 1041  21.670  35.019   7.011
 1122AUC    AUC 1042  21.916  34.564   7.899
 1123AUC    AUC 1043  21.916  34.867   7.899
 1124AUC    AUC 1044  21.916  34.564   7.105
 1125AUC    AUC 1045  21.916  34.867   7.105
 1126AUC    AUC 1046  21.425  34.564   7.899
 1127AUC    AUC 1047  21.425  34.867   7.899
 1128AUC    AUC 1048  21.425  34.564   7.105
 1129AUC    AUC 1049  21.425  34.867   7.105
 1130AUC    AUC 1050  22.067  34.961   7.350
 1131AUC    AUC 1051  22.067  34.961   7.653
 1132AUC    AUC 1052  21.273  34.961   7.350
 1133AUC    AUC 1053  21.273  34.961   7.653
 1134AUC    AUC 1054  22.067  34.470   7.350
 1135AUC    AUC 1055  22.067  34.470   7.653
 1136AUC    AUC 1056  21.273  34.470   7.350
 1137AUC    AUC 1057  21.273  34.470   7.653
 1138AUC    AUC 1058  21.518  35.113   7.747
 1139AUC    AUC 1059  21.822  35.113   7.747
 1140AUC    AUC 1060  21.518  34.318   7.747
 1141AUC    AUC 1061  21.822  34.318   7.747
 1142AUC    AUC 1062  21.518  35.113   7.256
 1143AUC    AUC 1063  21.822  35.113   7.256
 1144AUC    AUC 1064  21.518  34.318   7.256
 1145AUC    AUC 1065  21.822  34.318   7.256
 1146AUSL   AUS 1066  22.079  34.716   8.082
 1147AUSL   AUS 1067  21.935  34.299   8.012
 1148AUL    AUL 1068  22.161  34.412   8.296
 1149THSLK    S 1069  22.049  34.111   8.156
 1150ETHY    C1 1070  22.115  33.726   8.391
 1151ETHY    C1 1071  22.258  33.318   8.710
 1152ETHY    C1 1072  22.467  32.982   9.066
 1153ETHY    C1 1073  22.733  32.724   9.450
 1154ETHY    C1 1074  23.049  32.548   9.855
 1155THSLK    S 1075  22.175  34.666   8.326
 1156ETHY    C1 1076  22.391  34.480   8.681
 1157ETHY    C1 1077  22.666  34.345   9.124
 1158ETHY    C1 1078  22.947  34.315   9.575
 1159ETHY    C1 1079  23.225  34.384  10.025
 1160ETHY    C1 1080  23.494  34.552  10.466
 1161AUSL   AUS 1081  21.834  34.564   8.175
 1162AUSL   AUS 1082  21.507  34.867   8.175
 1163AUL    AUL 1083  21.670  34.716   8.483
 1164THSLK    S 1084  21.912  34.511   8.417
 1165ETHY    C1 1085  21.989  34.261   8.790
 1166ETHY    C1 1086  22.105  34.044   9.269
 1167ETHY    C1 1087  22.242  33.928   9.769
 1168ETHY    C1 1088  22.392  33.910  10.281
 1169ETHY    C1 1089  22.551  33.991  10.794
 1170THSLK    S 1090  21.420  34.824   8.431
 1171ETHY    C1 1091  21.338  34.712   8.864
 1172ETHY    C1 1092  21.224  34.666   9.388
 1173ETHY    C1 1093  21.092  34.724   9.901
 1174ETHY    C1 1094  20.941  34.877  10.389
 1175ETHY    C1 1095  20.775  35.121  10.844
 1176AUSL   AUS 1096  21.834  34.867   8.175
 1177AUSL   AUS 1097  22.180  34.980   7.918
 1178AUL    AUL 1098  22.161  35.019   8.296
 1179THSLK    S 1099  21.921  34.921   8.414
 1180ETHY    C1 1100  22.002  35.172   8.786
 1181ETHY    C1 1101  22.116  35.388   9.265
 1182ETHY    C1 1102  22.249  35.504   9.767
 1183ETHY    C1 1103  22.399  35.522  10.279
 1184ETHY    C1 1104  22.565  35.442  10.789
 1185THSLK    S 1105  22.354  35.082   8.080
 1186ETHY    C1 1106  22.718  35.092   8.354
 1187ETHY    C1 1107  23.134  35.194   8.680
 1188ETHY    C1 1108  23.514  35.393   8.995
 1189ETHY    C1 1109  23.849  35.680   9.296
 1190ETHY    C1 1110  24.130  36.048   9.577
 1191AUSL   AUS 1111  22.079  34.716   6.922
 1192AUSL   AUS 1112  21.935  35.132   6.992
 1193AUL    AUL 1113  22.161  35.019   6.707
 1194THSLK    S 1114  22.182  34.666   6.681
 1195ETHY    C1 1115  22.403  34.480   6.329
 1196ETHY    C1 1116  22.676  34.345   5.885
 1197ETHY    C1 1117  22.954  34.315   5.432
 1198ETHY    C1 1118  23.232  34.384   4.982
 1199ETHY    C1 1119  23.506  34.552   4.545
 1200THSLK    S 1120  22.113  35.247   6.825
 1201ETHY    C1 1121  22.401  35.352   6.488
 1202ETHY    C1 1122  22.701  35.556   6.090
 1203ETHY    C1 1123  22.944  35.844   5.714
 1204ETHY    C1 1124  23.128  36.208   5.371
 1205ETHY    C1 1125  23.252  36.639   5.065
 1206AUSL   AUS 1126  21.834  34.564   6.828
 1207AUSL   AUS 1127  22.180  34.451   7.085
 1208AUL    AUL 1128  22.161  34.412   6.707
 1209THSLK    S 1129  22.317  34.259   6.944
 1210ETHY    C1 1130  22.525  33.916   6.729
 1211ETHY    C1 1131  22.826  33.574   6.442
 1212ETHY    C1 1132  23.177  33.321   6.133
 1213ETHY    C1 1133  23.571  33.159   5.812
 1214ETHY    C1 1134  24.000  33.088   5.486
 1215THSLK    S 1135  21.921  34.510   6.590
 1216ETHY    C1 1136  22.002  34.259   6.217
 1217ETHY    C1 1137  22.116  34.043   5.738
 1218ETHY    C1 1138  22.249  33.927   5.236
 1219ETHY    C1 1139  22.399  33.909   4.725
 1220ETHY    C1 1140  22.565  33.989   4.214
 1221AUSL   AUS 1141  21.834  34.867   6.828
 1222AUSL   AUS 1142  21.507  34.564   6.828
 1223AUL    AUL 1143  21.670  34.716   6.520
 1224THSLK    S 1144  21.412  34.510   6.592
 1225ETHY    C1 1145  21.275  34.262   6.235
 1226ETHY    C1 1146  21.115  34.048   5.767
 1227ETHY    C1 1147  20.968  33.933   5.269
 1228ETHY    C1 1148  20.841  33.914   4.751
 1229ETHY    C1 1149  20.736  33.990   4.224
 1230THSLK    S 1150  21.937  34.825   6.578
 1231ETHY    C1 1151  22.078  34.710   6.160
 1232ETHY    C1 1152  22.236  34.663   5.647
 1233ETHY    C1 1153  22.379  34.719   5.138
 1234ETHY    C1 1154  22.507  34.873   4.643
 1235ETHY    C1 1155  22.618  35.121   4.174
 1236AUSL   AUS 1156  21.261  34.716   8.082
 1237AUSL   AUS 1157  21.405  35.132   8.012
 1238AUL    AUL 1158  21.179  35.019   8.296
 1239THSLK    S 1159  21.158  34.666   8.322
 1240ETHY    C1 1160  20.937  34.480   8.674
 1241ETHY    C1 1161  20.664  34.345   9.118
 1242ETHY    C1 1162  20.387  34.315   9.571
 1243ETHY    C1 1163  20.109  34.384  10.021
 1244ETHY    C1 1164  19.834  34.552  10.458
 1245THSLK    S 1165  21.285  35.261   8.202
 1246ETHY    C1 1166  21.216  35.430   8.620
 1247ETHY    C1 1167  21.074  35.683   9.073
 1248ETHY    C1 1168  20.868  35.984   9.460
 1249ETHY    C1 1169  20.601  36.323   9.775
 1250ETHY    C1 1170  20.281  36.690  10.013
 1251AUSL   AUS 1171  21.507  34.564   8.175
 1252AUSL   AUS 1172  21.160  34.451   7.918
 1253AUL    AUL 1173  21.179  34.412   8.296
 1254THSLK    S 1174  20.982  34.287   8.029
 1255ETHY    C1 1175  20.614  34.034   8.125
 1256ETHY    C1 1176  20.199  33.755   8.323
 1257ETHY    C1 1177  19.821  33.515   8.611
 1258ETHY    C1 1178  19.487  33.319   8.978
 1259ETHY    C1 1179  19.201  33.173   9.415
 1260THSLK    S 1180  21.404  34.512   8.410
 1261ETHY    C1 1181  21.262  34.265   8.766
 1262ETHY    C1 1182  21.104  34.050   9.233
 1263ETHY    C1 1183  20.961  33.934   9.733
 1264ETHY    C1 1184  20.834  33.916  10.250
 1265ETHY    C1 1185  20.722  33.994  10.775
 1266AUSL   AUS 1186  21.261  34.716   6.922
 1267AUSL   AUS 1187  21.405  34.299   6.992
 1268AUL    AUL 1188  21.179  34.412   6.707
 1269THSLK    S 1189  21.166  34.666   6.677
 1270ETHY    C1 1190  20.949  34.480   6.322
 1271ETHY    C1 1191  20.674  34.345   5.879
 1272ETHY    C1 1192  20.393  34.315   5.429
 1273ETHY    C1 1193  20.115  34.384   4.978
 1274ETHY    C1 1194  19.847  34.552   4.537
 1275THSLK    S 1195  21.233  34.125   6.872
 1276ETHY    C1 1196  20.948  33.804   6.717
 1277ETHY    C1 1197  20.647  33.445   6.453
 1278ETHY    C1 1198  20.402  33.122   6.109
 1279ETHY    C1 1199  20.218  32.839   5.696
 1280ETHY    C1 1200  20.099  32.599   5.223
 1281AUSL   AUS 1201  21.507  34.867   6.828
 1282AUSL   AUS 1202  21.160  34.980   7.085
 1283AUL    AUL 1203  21.179  35.019   6.707
 1284THSLK    S 1204  21.029  35.110   6.893
 1285ETHY    C1 1205  20.823  35.210   6.499
 1286ETHY    C1 1206  20.521  35.374   6.085
 1287ETHY    C1 1207  20.167  35.586   5.748
 1288ETHY    C1 1208  19.774  35.840   5.494
 1289ETHY    C1 1209  19.349  36.133   5.324
 1290THSLK    S 1210  21.428  34.826   6.571
 1291ETHY    C1 1211  21.351  34.714   6.136
 1292ETHY    C1 1212  21.235  34.669   5.612
 1293ETHY    C1 1213  21.099  34.725   5.101
 1294ETHY    C1 1214  20.949  34.879   4.613
 1295ETHY    C1 1215  20.789  35.124   4.156
 1296AUSL   AUS 1216  22.250  35.125   7.502
 1297AUSL   AUS 1217  22.180  34.980   7.085
 1298AUL    AUL 1218  22.464  35.206   7.198
 1299THSLK    S 1219  22.359  35.083   6.930
 1300ETHY    C1 1220  22.726  35.094   6.659
 1301ETHY    C1 1221  23.141  35.196   6.332
 1302ETHY    C1 1222  23.519  35.394   6.014
 1303ETHY    C1 1223  23.853  35.681   5.713
 1304ETHY    C1 1224  24.139  36.051   5.438
 1305THSLK    S 1225  22.518  35.181   7.506
 1306ETHY    C1 1226  22.970  35.242   7.508
 1307ETHY    C1 1227  23.484  35.401   7.507
 1308ETHY    C1 1228  23.952  35.655   7.505
 1309ETHY    C1 1229  24.365  35.992   7.506
 1310ETHY    C1 1230  24.717  36.406   7.509
 1311AUSL   AUS 1231  22.344  34.879   7.350
 1312AUSL   AUS 1232  22.344  34.552   7.653
 1313AUL    AUL 1233  22.652  34.716   7.502
 1314THSLK    S 1234  22.603  34.922   7.348
 1315ETHY    C1 1235  23.048  34.852   7.278
 1316ETHY    C1 1236  23.579  34.859   7.190
 1317ETHY    C1 1237  24.092  34.969   7.101
 1318ETHY    C1 1238  24.577  35.175   7.017
 1319ETHY    C1 1239  25.024  35.472   6.940
 1320THSLK    S 1240  22.576  34.414   7.662
 1321ETHY    C1 1241  22.922  34.125   7.728
 1322ETHY    C1 1242  23.383  33.858   7.809
 1323ETHY    C1 1243  23.880  33.689   7.892
 1324ETHY    C1 1244  24.401  33.617   7.980
 1325ETHY    C1 1245  24.936  33.643   8.071
 1326AUSL   AUS 1246  22.344  34.879   7.653
 1327AUSL   AUS 1247  22.087  35.226   7.766
 1328AUL    AUL 1248  22.464  35.206   7.805
 1329THSLK    S 1249  22.270  35.345   7.926
 1330ETHY    C1 1250  22.642  35.500   8.139
 1331ETHY    C1 1251  23.042  35.765   8.385
 1332ETHY    C1 1252  23.376  36.109   8.615
 1333ETHY    C1 1253  23.638  36.522   8.827
 1334ETHY    C1 1254  23.825  36.994   9.019
 1335THSLK    S 1255  22.602  34.922   7.664
 1336ETHY    C1 1256  23.046  34.852   7.738
 1337ETHY    C1 1257  23.577  34.859   7.825
 1338ETHY    C1 1258  24.091  34.969   7.910
 1339ETHY    C1 1259  24.575  35.175   7.994
 1340ETHY    C1 1260  25.022  35.472   8.078
 1341AUSL   AUS 1261  21.090  35.125   7.502
 1342AUSL   AUS 1262  21.160  34.980   7.918
 1343AUL    AUL 1263  20.876  35.206   7.805
 1344THSLK    S 1264  21.024  35.103   8.109
 1345ETHY    C1 1265  20.815  35.199   8.503
 1346ETHY    C1 1266  20.514  35.365   8.917
 1347ETHY    C1 1267  20.163  35.580   9.254
 1348ETHY    C1 1268  19.769  35.834   9.509
 1349ETHY    C1 1269  19.340  36.121   9.678
 1350THSLK    S 1270  20.874  35.265   7.506
 1351ETHY    C1 1271  20.618  35.643   7.508
 1352ETHY    C1 1272  20.245  36.031   7.507
 1353ETHY    C1 1273  19.809  36.337   7.505
 1354ETHY    C1 1274  19.323  36.555   7.506
 1355ETHY    C1 1275  18.796  36.685   7.509
 1356AUSL   AUS 1276  20.996  34.879   7.350
 1357AUSL   AUS 1277  21.254  35.226   7.237
 1358AUL    AUL 1278  20.876  35.206   7.198
 1359THSLK    S 1279  20.765  34.994   7.303
 1360ETHY    C1 1280  20.418  35.182   7.075
 1361ETHY    C1 1281  19.958  35.374   6.872
 1362ETHY    C1 1282  19.460  35.524   6.758
 1363ETHY    C1 1283  18.939  35.634   6.733
 1364ETHY    C1 1284  18.405  35.704   6.796
 1365THSLK    S 1285  21.138  35.391   7.058
 1366ETHY    C1 1286  21.022  35.707   6.750
 1367ETHY    C1 1287  20.808  36.085   6.432
 1368ETHY    C1 1288  20.516  36.454   6.183
 1369ETHY    C1 1289  20.158  36.807   6.008
 1370ETHY    C1 1290  19.740  37.140   5.909
 1371AUSL   AUS 1291  20.996  34.879   7.653
 1372AUSL   AUS 1292  20.996  34.552   7.350
 1373AUL    AUL 1293  20.688  34.716   7.502
 1374THSLK    S 1294  20.738  34.478   7.390
 1375ETHY    C1 1295  20.294  34.443   7.486
 1376ETHY    C1 1296  19.763  34.362   7.518
 1377ETHY    C1 1297  19.249  34.237   7.458
 1378ETHY    C1 1298  18.765  34.069   7.311
 1379ETHY    C1 1299  18.318  33.862   7.083
 1380THSLK    S 1300  20.763  34.986   7.704
 1381ETHY    C1 1301  20.416  35.170   7.935
 1382ETHY    C1 1302  19.956  35.363   8.137
 1383ETHY    C1 1303  19.459  35.518   8.249
 1384ETHY    C1 1304  18.938  35.628   8.274
 1385ETHY    C1 1305  18.402  35.691   8.213
 1386AUSL   AUS 1306  22.250  34.306   7.502
 1387AUSL   AUS 1307  22.180  34.451   7.918
 1388AUL    AUL 1308  22.464  34.225   7.805
 1389THSLK    S 1309  22.466  34.166   7.506
 1390ETHY    C1 1310  22.722  33.788   7.508
 1391ETHY    C1 1311  23.095  33.400   7.507
 1392ETHY    C1 1312  23.531  33.094   7.505
 1393ETHY    C1 1313  24.017  32.876   7.506
 1394ETHY    C1 1314  24.544  32.746   7.509
 1395THSLK    S 1315  22.312  34.261   8.066
 1396ETHY    C1 1316  22.517  33.918   8.285
 1397ETHY    C1 1317  22.819  33.576   8.570
 1398ETHY    C1 1318  23.173  33.323   8.877
 1399ETHY    C1 1319  23.567  33.160   9.198
 1400ETHY    C1 1320  23.991  33.090   9.529
 1401AUSL   AUS 1321  22.344  34.552   7.350
 1402AUSL   AUS 1322  22.087  34.205   7.237
 1403AUL    AUL 1323  22.464  34.225   7.198
 1404THSLK    S 1324  22.577  34.414   7.350
 1405ETHY    C1 1325  22.925  34.125   7.289
 1406ETHY    C1 1326  23.384  33.858   7.206
 1407ETHY    C1 1327  23.881  33.689   7.118
 1408ETHY    C1 1328  24.403  33.617   7.031
 1409ETHY    C1 1329  24.938  33.643   6.947
 1410THSLK    S 1330  22.206  34.015   7.104
 1411ETHY    C1 1331  22.323  33.598   6.963
 1412ETHY    C1 1332  22.537  33.144   6.765
 1413ETHY    C1 1333  22.827  32.758   6.543
 1414ETHY    C1 1334  23.186  32.443   6.306
 1415ETHY    C1 1335  23.606  32.204   6.058
 1416AUSL   AUS 1336  21.090  34.306   7.502
 1417AUSL   AUS 1337  21.160  34.451   7.085
 1418AUL    AUL 1338  20.876  34.225   7.198
 1419THSLK    S 1339  20.987  34.280   6.973
 1420ETHY    C1 1340  20.622  34.023   6.877
 1421ETHY    C1 1341  20.206  33.746   6.679
 1422ETHY    C1 1342  19.826  33.509   6.392
 1423ETHY    C1 1343  19.492  33.313   6.025
 1424ETHY    C1 1344  19.210  33.161   5.587
 1425THSLK    S 1345  20.822  34.250   7.506
 1426ETHY    C1 1346  20.370  34.189   7.508
 1427ETHY    C1 1347  19.856  34.030   7.507
 1428ETHY    C1 1348  19.388  33.776   7.505
 1429ETHY    C1 1349  18.975  33.439   7.506
 1430ETHY    C1 1350  18.623  33.025   7.509
 1431AUSL   AUS 1351  20.996  34.552   7.653
 1432AUSL   AUS 1352  21.254  34.205   7.766
 1433AUL    AUL 1353  20.876  34.225   7.805
 1434THSLK    S 1354  21.066  34.061   7.880
 1435ETHY    C1 1355  20.692  33.804   7.926
 1436ETHY    C1 1356  20.294  33.464   8.052
 1437ETHY    C1 1357  19.961  33.102   8.255
 1438ETHY    C1 1358  19.699  32.728   8.529
 1439ETHY    C1 1359  19.508  32.350   8.870
 1440THSLK    S 1360  20.737  34.485   7.617
 1441ETHY    C1 1361  20.292  34.455   7.524
 1442ETHY    C1 1362  19.761  34.373   7.490
 1443ETHY    C1 1363  19.248  34.244   7.549
 1444ETHY    C1 1364  18.764  34.076   7.696
 1445ETHY    C1 1365  18.316  33.874   7.928
 1446AUSL   AUS 1366  21.670  35.296   7.911
 1447AUSL   AUS 1367  21.254  35.226   7.766
 1448AUL    AUL 1368  21.367  35.510   7.992
 1449THSLK    S 1369  21.134  35.385   7.950
 1450ETHY    C1 1370  21.017  35.697   8.261
 1451ETHY    C1 1371  20.803  36.077   8.578
 1452ETHY    C1 1372  20.513  36.448   8.824
 1453ETHY    C1 1373  20.155  36.802   9.000
 1454ETHY    C1 1374  19.734  37.130   9.102
 1455THSLK    S 1375  21.710  35.522   8.035
 1456ETHY    C1 1376  21.867  35.824   8.339
 1457ETHY    C1 1377  21.982  36.230   8.672
 1458ETHY    C1 1378  22.009  36.674   8.964
 1459ETHY    C1 1379  21.949  37.143   9.211
 1460ETHY    C1 1380  21.805  37.627   9.410
 1461AUSL   AUS 1381  21.518  35.389   7.665
 1462AUSL   AUS 1382  21.822  35.389   7.338
 1463AUL    AUL 1383  21.670  35.697   7.502
 1464THSLK    S 1384  21.559  35.637   7.774
 1465ETHY    C1 1385  21.668  36.047   7.942
 1466ETHY    C1 1386  21.712  36.554   8.118
 1467ETHY    C1 1387  21.655  37.062   8.265
 1468ETHY    C1 1388  21.502  37.559   8.383
 1469ETHY    C1 1389  21.259  38.036   8.472
 1470THSLK    S 1390  21.875  35.624   7.241
 1471ETHY    C1 1391  22.120  35.980   7.094
 1472ETHY    C1 1392  22.333  36.445   6.927
 1473ETHY    C1 1393  22.448  36.943   6.779
 1474ETHY    C1 1394  22.468  37.462   6.655
 1475ETHY    C1 1395  22.393  37.991   6.558
 1476AUSL   AUS 1396  21.822  35.389   7.665
 1477AUSL   AUS 1397  21.935  35.132   8.012
 1478AUL    AUL 1398  21.973  35.510   7.992
 1479THSLK    S 1399  22.107  35.245   8.184
 1480ETHY    C1 1400  22.392  35.348   8.524
 1481ETHY    C1 1401  22.694  35.552   8.921
 1482ETHY    C1 1402  22.939  35.842   9.294
 1483ETHY    C1 1403  23.123  36.205   9.638
 1484ETHY    C1 1404  23.242  36.635   9.948
 1485THSLK    S 1405  21.873  35.623   7.771
 1486ETHY    C1 1406  22.117  35.977   7.922
 1487ETHY    C1 1407  22.330  36.443   8.087
 1488ETHY    C1 1408  22.446  36.942   8.231
 1489ETHY    C1 1409  22.465  37.460   8.356
 1490ETHY    C1 1410  22.390  37.988   8.458
 1491AUSL   AUS 1411  21.670  34.136   7.911
 1492AUSL   AUS 1412  22.087  34.205   7.766
 1493AUL    AUL 1413  21.973  33.921   7.992
 1494THSLK    S 1414  21.626  33.881   7.990
 1495ETHY    C1 1415  21.466  33.477   8.128
 1496ETHY    C1 1416  21.352  32.996   8.341
 1497ETHY    C1 1417  21.327  32.535   8.605
 1498ETHY    C1 1418  21.386  32.105   8.915
 1499ETHY    C1 1419  21.527  31.713   9.263
 1500THSLK    S 1420  22.202  34.016   7.908
 1501ETHY    C1 1421  22.318  33.600   8.052
 1502ETHY    C1 1422  22.532  33.147   8.248
 1503ETHY    C1 1423  22.824  32.759   8.467
 1504ETHY    C1 1424  23.183  32.444   8.705
 1505ETHY    C1 1425  23.600  32.207   8.958
 1506AUSL   AUS 1426  21.518  34.042   7.665
 1507AUSL   AUS 1427  21.405  34.299   8.012
 1508AUL    AUL 1428  21.367  33.921   7.992
 1509THSLK    S 1429  21.465  33.802   7.745
 1510ETHY    C1 1430  21.220  33.421   7.801
 1511ETHY    C1 1431  21.007  32.936   7.897
 1512ETHY    C1 1432  20.892  32.433   8.025
 1513ETHY    C1 1433  20.873  31.924   8.186
 1514ETHY    C1 1434  20.947  31.421   8.374
 1515THSLK    S 1435  21.227  34.131   8.133
 1516ETHY    C1 1436  20.939  33.813   8.289
 1517ETHY    C1 1437  20.639  33.453   8.552
 1518ETHY    C1 1438  20.396  33.127   8.896
 1519ETHY    C1 1439  20.212  32.844   9.309
 1520ETHY    C1 1440  20.088  32.610   9.783
 1521AUSL   AUS 1441  21.822  34.042   7.665
 1522AUSL   AUS 1442  21.518  34.042   7.338
 1523AUL    AUL 1443  21.670  33.734   7.502
 1524THSLK    S 1444  21.467  33.799   7.266
 1525ETHY    C1 1445  21.223  33.417   7.215
 1526ETHY    C1 1446  21.010  32.933   7.117
 1527ETHY    C1 1447  20.894  32.431   6.984
 1528ETHY    C1 1448  20.875  31.922   6.825
 1529ETHY    C1 1449  20.951  31.417   6.642
 1530THSLK    S 1450  21.779  33.786   7.749
 1531ETHY    C1 1451  21.669  33.350   7.821
 1532ETHY    C1 1452  21.626  32.824   7.928
 1533ETHY    C1 1453  21.683  32.312   8.059
 1534ETHY    C1 1454  21.836  31.824   8.213
 1535ETHY    C1 1455  22.078  31.371   8.388
 1536AUSL   AUS 1456  21.670  35.296   7.093
 1537AUSL   AUS 1457  22.087  35.226   7.237
 1538AUL    AUL 1458  21.973  35.510   7.011
 1539THSLK    S 1459  21.714  35.526   6.975
 1540ETHY    C1 1460  21.874  35.830   6.674
 1541ETHY    C1 1461  21.988  36.235   6.339
 1542ETHY    C1 1462  22.013  36.678   6.045
 1543ETHY    C1 1463  21.954  37.147   5.798
 1544ETHY    C1 1464  21.813  37.634   5.604
 1545THSLK    S 1465  22.274  35.347   7.085
 1546ETHY    C1 1466  22.648  35.503   6.876
 1547ETHY    C1 1467  23.046  35.767   6.629
 1548ETHY    C1 1468  23.379  36.111   6.395
 1549ETHY    C1 1469  23.641  36.523   6.184
 1550ETHY    C1 1470  23.832  36.997   5.998
 1551AUSL   AUS 1471  21.518  35.389   7.338
 1552AUSL   AUS 1472  21.405  35.132   6.992
 1553AUL    AUL 1473  21.367  35.510   7.011
 1554THSLK    S 1474  21.561  35.640   7.237
 1555ETHY    C1 1475  21.671  36.051   7.074
 1556ETHY    C1 1476  21.714  36.557   6.896
 1557ETHY    C1 1477  21.657  37.065   6.745
 1558ETHY    C1 1478  21.504  37.562   6.627
 1559ETHY    C1 1479  21.262  38.041   6.545
 1560THSLK    S 1480  21.291  35.267   6.802
 1561ETHY    C1 1481  21.225  35.439   6.385
 1562ETHY    C1 1482  21.082  35.691   5.932
 1563ETHY    C1 1483  20.873  35.990   5.544
 1564ETHY    C1 1484  20.607  36.328   5.230
 1565ETHY    C1 1485  20.291  36.701   4.993
 1566AUSL   AUS 1486  21.670  34.136   7.093
 1567AUSL   AUS 1487  21.254  34.205   7.237
 1568AUL    AUL 1488  21.367  33.921   7.011
 1569THSLK    S 1489  21.070  34.055   7.128
 1570ETHY    C1 1490  20.698  33.794   7.085
 1571ETHY    C1 1491  20.299  33.456   6.958
 1572ETHY    C1 1492  19.964  33.097   6.753
 1573ETHY    C1 1493  19.702  32.723   6.478
 1574ETHY    C1 1494  19.515  32.340   6.142
 1575THSLK    S 1495  21.630  33.877   7.019
 1576ETHY    C1 1496  21.473  33.471   6.885
 1577ETHY    C1 1497  21.358  32.991   6.671
 1578ETHY    C1 1498  21.331  32.532   6.404
 1579ETHY    C1 1499  21.391  32.101   6.094
 1580ETHY    C1 1500  21.535  31.706   5.751
 1581AUSL   AUS 1501  21.822  34.042   7.338
 1582AUSL   AUS 1502  21.935  34.299   6.992
 1583AUL    AUL 1503  21.973  33.921   7.011
 1584THSLK    S 1504  21.781  33.785   7.262
 1585ETHY    C1 1505  21.672  33.347   7.195
 1586ETHY    C1 1506  21.629  32.821   7.086
 1587ETHY    C1 1507  21.685  32.310   6.951
 1588ETHY    C1 1508  21.838  31.822   6.798
 1589ETHY    C1 1509  22.082  31.368   6.629
 1590THSLK    S 1510  22.055  34.109   6.853
 1591ETHY    C1 1511  22.124  33.723   6.621
 1592ETHY    C1 1512  22.266  33.315   6.300
 1593ETHY    C1 1513  22.473  32.979   5.942
 1594ETHY    C1 1514  22.739  32.722   5.559
 1595ETHY    C1 1515  23.059  32.544   5.158
 1596AUC    AUC 1516   5.521   4.136   7.502
 1597AUC    AUC 1517   5.767   4.136   7.350
 1598AUC    AUC 1518   5.767   4.136   7.653
 1599AUC    AUC 1519   5.276   4.136   7.350
 1600AUC    AUC 1520   5.276   4.136   7.653
 1601AUC    AUC 1521   5.369   4.381   7.502
 1602AUC    AUC 1522   5.673   4.381   7.502
 1603AUC    AUC 1523   5.369   3.890   7.502
 1604AUC    AUC 1524   5.673   3.890   7.502
 1605AUC    AUC 1525   5.521   3.984   7.747
 1606AUC    AUC 1526   5.521   4.287   7.747
 1607AUC    AUC 1527   5.521   3.984   7.256
 1608AUC    AUC 1528   5.521   4.287   7.256
 1609AUC    AUC 1529   6.012   4.136   7.198
 1610AUC    AUC 1530   6.012   4.136   7.502
 1611AUC    AUC 1531   6.012   4.136   7.805
 1612AUC    AUC 1532   5.030   4.136   7.198
 1613AUC    AUC 1533   5.030   4.136   7.502
 1614AUC    AUC 1534   5.030   4.136   7.805
 1615AUC    AUC 1535   5.218   4.626   7.502
 1616AUC    AUC 1536   5.521   4.626   7.502
 1617AUC    AUC 1537   5.824   4.626   7.502
 1618AUC    AUC 1538   5.218   3.645   7.502
 1619AUC    AUC 1539   5.521   3.645   7.502
 1620AUC    AUC 1540   5.824   3.645   7.502
 1621AUC    AUC 1541   5.521   3.832   7.992
 1622AUC    AUC 1542   5.521   4.136   7.992
 1623AUC    AUC 1543   5.521   4.439   7.992
 1624AUC    AUC 1544   5.521   3.832   7.011
 1625AUC    AUC 1545   5.521   4.136   7.011
 1626AUC    AUC 1546   5.521   4.439   7.011
 1627AUC    AUC 1547   5.767   3.984   7.899
 1628AUC    AUC 1548   5.767   4.287   7.899
 1629AUC    AUC 1549   5.767   3.984   7.105
 1630AUC    AUC 1550   5.767   4.287   7.105
 1631AUC    AUC 1551   5.276   3.984   7.899
 1632AUC    AUC 1552   5.276   4.287   7.899
 1633AUC    AUC 1553   5.276   3.984   7.105
 1634AUC    AUC 1554   5.276   4.287   7.105
 1635AUC    AUC 1555   5.918   4.381   7.350
 1636AUC    AUC 1556   5.918   4.381   7.653
 1637AUC    AUC 1557   5.124   4.381   7.350
 1638AUC    AUC 1558   5.124   4.381   7.653
 1639AUC    AUC 1559   5.918   3.890   7.350
 1640AUC    AUC 1560   5.918   3.890   7.653
 1641AUC    AUC 1561   5.124   3.890   7.350
 1642AUC    AUC 1562   5.124   3.890   7.653
 1643AUC    AUC 1563   5.369   4.533   7.747
 1644AUC    AUC 1564   5.673   4.533   7.747
 1645AUC    AUC 1565   5.369   3.738   7.747
 1646AUC    AUC 1566   5.673   3.738   7.747
 1647AUC    AUC 1567   5.369   4.533   7.256
 1648AUC    AUC 1568   5.673   4.533   7.256
 1649AUC    AUC 1569   5.369   3.738   7.256
 1650AUC    AUC 1570   5.673   3.738   7.256
 1651AUSL   AUS 1571   5.930   4.136   8.082
 1652AUSL   AUS 1572   5.786   3.719   8.012
 1653AUL    AUL 1573   6.012   3.832   8.296
 1654THSLK    S 1574   5.900   3.531   8.156
 1655ETHY    C1 1575   5.966   3.146   8.391
 1656ETHY    C1 1576   6.109   2.738   8.710
 1657ETHY    C1 1577   6.318   2.402   9.066
 1658ETHY    C1 1578   6.584   2.144   9.450
 1659ETHY    C1 1579   6.900   1.968   9.855
 1660THSLK    S 1580   6.026   4.086   8.326
 1661ETHY    C1 1581   6.242   3.900   8.681
 1662ETHY    C1 1582   6.517   3.765   9.124
 1663ETHY    C1 1583   6.798   3.735   9.575
 1664ETHY    C1 1584   7.076   3.804  10.025
 1665ETHY    C1 1585   7.345   3.972  10.466
 1666AUSL   AUS 1586   5.685   3.984   8.175
 1667AUSL   AUS 1587   5.358   4.287   8.175
 1668AUL    AUL 1588   5.521   4.136   8.483
 1669THSLK    S 1589   5.763   3.931   8.417
 1670ETHY    C1 1590   5.840   3.681   8.790
 1671ETHY    C1 1591   5.956   3.464   9.269
 1672ETHY    C1 1592   6.093   3.348   9.769
 1673ETHY    C1 1593   6.243   3.330  10.281
 1674ETHY    C1 1594   6.402   3.411  10.794
 1675THSLK    S 1595   5.271   4.244   8.431
 1676ETHY    C1 1596   5.189   4.132   8.864
 1677ETHY    C1 1597   5.075   4.086   9.388
 1678ETHY    C1 1598   4.943   4.144   9.901
 1679ETHY    C1 1599   4.792   4.297  10.389
 1680ETHY    C1 1600   4.626   4.541  10.844
 1681AUSL   AUS 1601   5.685   4.287   8.175
 1682AUSL   AUS 1602   6.031   4.400   7.918
 1683AUL    AUL 1603   6.012   4.439   8.296
 1684THSLK    S 1604   5.772   4.341   8.414
 1685ETHY    C1 1605   5.853   4.592   8.786
 1686ETHY    C1 1606   5.967   4.808   9.265
 1687ETHY    C1 1607   6.100   4.924   9.767
 1688ETHY    C1 1608   6.250   4.942  10.279
 1689ETHY    C1 1609   6.416   4.862  10.789
 1690THSLK    S 1610   6.205   4.502   8.080
 1691ETHY    C1 1611   6.569   4.512   8.354
 1692ETHY    C1 1612   6.985   4.614   8.680
 1693ETHY    C1 1613   7.365   4.813   8.995
 1694ETHY    C1 1614   7.700   5.100   9.296
 1695ETHY    C1 1615   7.981   5.468   9.577
 1696AUSL   AUS 1616   5.930   4.136   6.922
 1697AUSL   AUS 1617   5.786   4.552   6.992
 1698AUL    AUL 1618   6.012   4.439   6.707
 1699THSLK    S 1619   6.033   4.086   6.681
 1700ETHY    C1 1620   6.254   3.900   6.329
 1701ETHY    C1 1621   6.527   3.765   5.885
 1702ETHY    C1 1622   6.805   3.735   5.432
 1703ETHY    C1 1623   7.083   3.804   4.982
 1704ETHY    C1 1624   7.357   3.972   4.545
 1705THSLK    S 1625   5.964   4.667   6.825
 1706ETHY    C1 1626   6.252   4.772   6.488
 1707ETHY    C1 1627   6.552   4.976   6.090
 1708ETHY    C1 1628   6.795   5.264   5.714
 1709ETHY    C1 1629   6.979   5.628   5.371
 1710ETHY    C1 1630   7.103   6.059   5.065
 1711AUSL   AUS 1631   5.685   3.984   6.828
 1712AUSL   AUS 1632   6.031   3.871   7.085
 1713AUL    AUL 1633   6.012   3.832   6.707
 1714THSLK    S 1634   6.168   3.679   6.944
 1715ETHY    C1 1635   6.376   3.336   6.729
 1716ETHY    C1 1636   6.677   2.994   6.442
 1717ETHY    C1 1637   7.028   2.741   6.133
 1718ETHY    C1 1638   7.422   2.579   5.812
 1719ETHY    C1 1639   7.851   2.508   5.486
 1720THSLK    S 1640   5.772   3.930   6.590
 1721ETHY    C1 1641   5.853   3.679   6.217
 1722ETHY    C1 1642   5.967   3.463   5.738
 1723ETHY    C1 1643   6.100   3.347   5.236
 1724ETHY    C1 1644   6.250   3.329   4.725
 1725ETHY    C1 1645   6.416   3.409   4.214
 1726AUSL   AUS 1646   5.685   4.287   6.828
 1727AUSL   AUS 1647   5.358   3.984   6.828
 1728AUL    AUL 1648   5.521   4.136   6.520
 1729THSLK    S 1649   5.263   3.930   6.592
 1730ETHY    C1 1650   5.126   3.682   6.235
 1731ETHY    C1 1651   4.966   3.468   5.767
 1732ETHY    C1 1652   4.819   3.353   5.269
 1733ETHY    C1 1653   4.692   3.334   4.751
 1734ETHY    C1 1654   4.587   3.410   4.224
 1735THSLK    S 1655   5.788   4.245   6.578
 1736ETHY    C1 1656   5.929   4.130   6.160
 1737ETHY    C1 1657   6.087   4.083   5.647
 1738ETHY    C1 1658   6.230   4.139   5.138
 1739ETHY    C1 1659   6.358   4.293   4.643
 1740ETHY    C1 1660   6.469   4.541   4.174
 1741AUSL   AUS 1661   5.112   4.136   8.082
 1742AUSL   AUS 1662   5.256   4.552   8.012
 1743AUL    AUL 1663   5.030   4.439   8.296
 1744THSLK    S 1664   5.009   4.086   8.322
 1745ETHY    C1 1665   4.788   3.900   8.674
 1746ETHY    C1 1666   4.515   3.765   9.118
 1747ETHY    C1 1667   4.238   3.735   9.571
 1748ETHY    C1 1668   3.960   3.804  10.021
 1749ETHY    C1 1669   3.685   3.972  10.458
 1750THSLK    S 1670   5.136   4.681   8.202
 1751ETHY    C1 1671   5.067   4.850   8.620
 1752ETHY    C1 1672   4.925   5.103   9.073
 1753ETHY    C1 1673   4.719   5.404   9.460
 1754ETHY    C1 1674   4.452   5.743   9.775
 1755ETHY    C1 1675   4.132   6.110  10.013
 1756AUSL   AUS 1676   5.358   3.984   8.175
 1757AUSL   AUS 1677   5.011   3.871   7.918
 1758AUL    AUL 1678   5.030   3.832   8.296
 1759THSLK    S 1679   4.833   3.707   8.029
 1760ETHY    C1 1680   4.465   3.454   8.125
 1761ETHY    C1 1681   4.050   3.175   8.323
 1762ETHY    C1 1682   3.672   2.935   8.611
 1763ETHY    C1 1683   3.338   2.739   8.978
 1764ETHY    C1 1684   3.052   2.593   9.415
 1765THSLK    S 1685   5.255   3.932   8.410
 1766ETHY    C1 1686   5.113   3.685   8.766
 1767ETHY    C1 1687   4.955   3.470   9.233
 1768ETHY    C1 1688   4.812   3.354   9.733
 1769ETHY    C1 1689   4.685   3.336  10.250
 1770ETHY    C1 1690   4.573   3.414  10.775
 1771AUSL   AUS 1691   5.112   4.136   6.922
 1772AUSL   AUS 1692   5.256   3.719   6.992
 1773AUL    AUL 1693   5.030   3.832   6.707
 1774THSLK    S 1694   5.017   4.086   6.677
 1775ETHY    C1 1695   4.800   3.900   6.322
 1776ETHY    C1 1696   4.525   3.765   5.879
 1777ETHY    C1 1697   4.244   3.735   5.429
 1778ETHY    C1 1698   3.966   3.804   4.978
 1779ETHY    C1 1699   3.698   3.972   4.537
 1780THSLK    S 1700   5.084   3.545   6.872
 1781ETHY    C1 1701   4.799   3.224   6.717
 1782ETHY    C1 1702   4.498   2.865   6.453
 1783ETHY    C1 1703   4.253   2.542   6.109
 1784ETHY    C1 1704   4.069   2.259   5.696
 1785ETHY    C1 1705   3.950   2.019   5.223
 1786AUSL   AUS 1706   5.358   4.287   6.828
 1787AUSL   AUS 1707   5.011   4.400   7.085
 1788AUL    AUL 1708   5.030   4.439   6.707
 1789THSLK    S 1709   4.880   4.530   6.893
 1790ETHY    C1 1710   4.674   4.630   6.499
 1791ETHY    C1 1711   4.372   4.794   6.085
 1792ETHY    C1 1712   4.018   5.006   5.748
 1793ETHY    C1 1713   3.625   5.260   5.494
 1794ETHY    C1 1714   3.200   5.553   5.324
 1795THSLK    S 1715   5.279   4.246   6.571
 1796ETHY    C1 1716   5.202   4.134   6.136
 1797ETHY    C1 1717   5.086   4.089   5.612
 1798ETHY    C1 1718   4.950   4.145   5.101
 1799ETHY    C1 1719   4.800   4.299   4.613
 1800ETHY    C1 1720   4.640   4.544   4.156
 1801AUSL   AUS 1721   6.101   4.545   7.502
 1802AUSL   AUS 1722   6.031   4.400   7.085
 1803AUL    AUL 1723   6.315   4.626   7.198
 1804THSLK    S 1724   6.210   4.503   6.930
 1805ETHY    C1 1725   6.577   4.514   6.659
 1806ETHY    C1 1726   6.992   4.616   6.332
 1807ETHY    C1 1727   7.370   4.814   6.014
 1808ETHY    C1 1728   7.704   5.101   5.713
 1809ETHY    C1 1729   7.990   5.471   5.438
 1810THSLK    S 1730   6.369   4.601   7.506
 1811ETHY    C1 1731   6.821   4.662   7.508
 1812ETHY    C1 1732   7.335   4.821   7.507
 1813ETHY    C1 1733   7.803   5.075   7.505
 1814ETHY    C1 1734   8.216   5.412   7.506
 1815ETHY    C1 1735   8.568   5.826   7.509
 1816AUSL   AUS 1736   6.195   4.299   7.350
 1817AUSL   AUS 1737   6.195   3.972   7.653
 1818AUL    AUL 1738   6.503   4.136   7.502
 1819THSLK    S 1739   6.454   4.342   7.348
 1820ETHY    C1 1740   6.899   4.272   7.278
 1821ETHY    C1 1741   7.430   4.279   7.190
 1822ETHY    C1 1742   7.943   4.389   7.101
 1823ETHY    C1 1743   8.428   4.595   7.017
 1824ETHY    C1 1744   8.875   4.892   6.940
 1825THSLK    S 1745   6.427   3.834   7.662
 1826ETHY    C1 1746   6.773   3.545   7.728
 1827ETHY    C1 1747   7.234   3.278   7.809
 1828ETHY    C1 1748   7.731   3.109   7.892
 1829ETHY    C1 1749   8.252   3.037   7.980
 1830ETHY    C1 1750   8.787   3.063   8.071
 1831AUSL   AUS 1751   6.195   4.299   7.653
 1832AUSL   AUS 1752   5.938   4.646   7.766
 1833AUL    AUL 1753   6.315   4.626   7.805
 1834THSLK    S 1754   6.121   4.765   7.926
 1835ETHY    C1 1755   6.493   4.920   8.139
 1836ETHY    C1 1756   6.893   5.185   8.385
 1837ETHY    C1 1757   7.227   5.529   8.615
 1838ETHY    C1 1758   7.489   5.942   8.827
 1839ETHY    C1 1759   7.676   6.414   9.019
 1840THSLK    S 1760   6.453   4.342   7.664
 1841ETHY    C1 1761   6.897   4.272   7.738
 1842ETHY    C1 1762   7.428   4.279   7.825
 1843ETHY    C1 1763   7.942   4.389   7.910
 1844ETHY    C1 1764   8.426   4.595   7.994
 1845ETHY    C1 1765   8.873   4.892   8.078
 1846AUSL   AUS 1766   4.941   4.545   7.502
 1847AUSL   AUS 1767   5.011   4.400   7.918
 1848AUL    AUL 1768   4.727   4.626   7.805
 1849THSLK    S 1769   4.875   4.523   8.109
 1850ETHY    C1 1770   4.666   4.619   8.503
 1851ETHY    C1 1771   4.365   4.785   8.917
 1852ETHY    C1 1772   4.014   5.000   9.254
 1853ETHY    C1 1773   3.620   5.254   9.509
 1854ETHY    C1 1774   3.191   5.541   9.678
 1855THSLK    S 1775   4.725   4.685   7.506
 1856ETHY    C1 1776   4.469   5.063   7.508
 1857ETHY    C1 1777   4.096   5.451   7.507
 1858ETHY    C1 1778   3.660   5.757   7.505
 1859ETHY    C1 1779   3.174   5.975   7.506
 1860ETHY    C1 1780   2.647   6.105   7.509
 1861AUSL   AUS 1781   4.847   4.299   7.350
 1862AUSL   AUS 1782   5.105   4.646   7.237
 1863AUL    AUL 1783   4.727   4.626   7.198
 1864THSLK    S 1784   4.616   4.414   7.303
 1865ETHY    C1 1785   4.269   4.602   7.075
 1866ETHY    C1 1786   3.809   4.794   6.872
 1867ETHY    C1 1787   3.311   4.944   6.758
 1868ETHY    C1 1788   2.790   5.054   6.733
 1869ETHY    C1 1789   2.256   5.124   6.796
 1870THSLK    S 1790   4.989   4.811   7.058
 1871ETHY    C1 1791   4.873   5.127   6.750
 1872ETHY    C1 1792   4.659   5.505   6.432
 1873ETHY    C1 1793   4.367   5.874   6.183
 1874ETHY    C1 1794   4.009   6.227   6.008
 1875ETHY    C1 1795   3.591   6.560   5.909
 1876AUSL   AUS 1796   4.847   4.299   7.653
 1877AUSL   AUS 1797   4.847   3.972   7.350
 1878AUL    AUL 1798   4.539   4.136   7.502
 1879THSLK    S 1799   4.589   3.898   7.390
 1880ETHY    C1 1800   4.145   3.863   7.486
 1881ETHY    C1 1801   3.614   3.782   7.518
 1882ETHY    C1 1802   3.100   3.657   7.458
 1883ETHY    C1 1803   2.616   3.489   7.311
 1884ETHY    C1 1804   2.169   3.282   7.083
 1885THSLK    S 1805   4.614   4.406   7.704
 1886ETHY    C1 1806   4.267   4.590   7.935
 1887ETHY    C1 1807   3.807   4.783   8.137
 1888ETHY    C1 1808   3.310   4.938   8.249
 1889ETHY    C1 1809   2.789   5.048   8.274
 1890ETHY    C1 1810   2.253   5.111   8.213
 1891AUSL   AUS 1811   6.101   3.726   7.502
 1892AUSL   AUS 1812   6.031   3.871   7.918
 1893AUL    AUL 1813   6.315   3.645   7.805
 1894THSLK    S 1814   6.317   3.586   7.506
 1895ETHY    C1 1815   6.573   3.208   7.508
 1896ETHY    C1 1816   6.946   2.820   7.507
 1897ETHY    C1 1817   7.382   2.514   7.505
 1898ETHY    C1 1818   7.868   2.296   7.506
 1899ETHY    C1 1819   8.395   2.166   7.509
 1900THSLK    S 1820   6.163   3.681   8.066
 1901ETHY    C1 1821   6.368   3.338   8.285
 1902ETHY    C1 1822   6.670   2.996   8.570
 1903ETHY    C1 1823   7.024   2.743   8.877
 1904ETHY    C1 1824   7.418   2.580   9.198
 1905ETHY    C1 1825   7.842   2.510   9.529
 1906AUSL   AUS 1826   6.195   3.972   7.350
 1907AUSL   AUS 1827   5.938   3.625   7.237
 1908AUL    AUL 1828   6.315   3.645   7.198
 1909THSLK    S 1829   6.428   3.834   7.350
 1910ETHY    C1 1830   6.776   3.545   7.289
 1911ETHY    C1 1831   7.235   3.278   7.206
 1912ETHY    C1 1832   7.732   3.109   7.118
 1913ETHY    C1 1833   8.254   3.037   7.031
 1914ETHY    C1 1834   8.789   3.063   6.947
 1915THSLK    S 1835   6.057   3.435   7.104
 1916ETHY    C1 1836   6.174   3.018   6.963
 1917ETHY    C1 1837   6.388   2.564   6.765
 1918ETHY    C1 1838   6.678   2.178   6.543
 1919ETHY    C1 1839   7.037   1.863   6.306
 1920ETHY    C1 1840   7.457   1.624   6.058
 1921AUSL   AUS 1841   4.941   3.726   7.502
 1922AUSL   AUS 1842   5.011   3.871   7.085
 1923AUL    AUL 1843   4.727   3.645   7.198
 1924THSLK    S 1844   4.838   3.700   6.973
 1925ETHY    C1 1845   4.473   3.443   6.877
 1926ETHY    C1 1846   4.057   3.166   6.679
 1927ETHY    C1 1847   3.677   2.929   6.392
 1928ETHY    C1 1848   3.343   2.733   6.025
 1929ETHY    C1 1849   3.061   2.581   5.587
 1930THSLK    S 1850   4.673   3.670   7.506
 1931ETHY    C1 1851   4.221   3.609   7.508
 1932ETHY    C1 1852   3.707   3.450   7.507
 1933ETHY    C1 1853   3.239   3.196   7.505
 1934ETHY    C1 1854   2.826   2.859   7.506
 1935ETHY    C1 1855   2.474   2.445   7.509
 1936AUSL   AUS 1856   4.847   3.972   7.653
 1937AUSL   AUS 1857   5.105   3.625   7.766
 1938AUL    AUL 1858   4.727   3.645   7.805
 1939THSLK    S 1859   4.917   3.481   7.880
 1940ETHY    C1 1860   4.543   3.224   7.926
 1941ETHY    C1 1861   4.145   2.884   8.052
 1942ETHY    C1 1862   3.812   2.522   8.255
 1943ETHY    C1 1863   3.550   2.148   8.529
 1944ETHY    C1 1864   3.359   1.770   8.870
 1945THSLK    S 1865   4.588   3.905   7.617
 1946ETHY    C1 1866   4.143   3.875   7.524
 1947ETHY    C1 1867   3.612   3.793   7.490
 1948ETHY    C1 1868   3.099   3.664   7.549
 1949ETHY    C1 1869   2.615   3.496   7.696
 1950ETHY    C1 1870   2.167   3.294   7.928
 1951AUSL   AUS 1871   5.521   4.716   7.911
 1952AUSL   AUS 1872   5.105   4.646   7.766
 1953AUL    AUL 1873   5.218   4.930   7.992
 1954THSLK    S 1874   4.985   4.805   7.950
 1955ETHY    C1 1875   4.868   5.117   8.261
 1956ETHY    C1 1876   4.654   5.497   8.578
 1957ETHY    C1 1877   4.364   5.868   8.824
 1958ETHY    C1 1878   4.006   6.222   9.000
 1959ETHY    C1 1879   3.585   6.550   9.102
 1960THSLK    S 1880   5.561   4.942   8.035
 1961ETHY    C1 1881   5.718   5.244   8.339
 1962ETHY    C1 1882   5.833   5.650   8.672
 1963ETHY    C1 1883   5.860   6.094   8.964
 1964ETHY    C1 1884   5.800   6.563   9.211
 1965ETHY    C1 1885   5.656   7.047   9.410
 1966AUSL   AUS 1886   5.369   4.809   7.665
 1967AUSL   AUS 1887   5.673   4.809   7.338
 1968AUL    AUL 1888   5.521   5.117   7.502
 1969THSLK    S 1889   5.410   5.057   7.774
 1970ETHY    C1 1890   5.519   5.467   7.942
 1971ETHY    C1 1891   5.563   5.974   8.118
 1972ETHY    C1 1892   5.506   6.482   8.265
 1973ETHY    C1 1893   5.353   6.979   8.383
 1974ETHY    C1 1894   5.110   7.456   8.472
 1975THSLK    S 1895   5.726   5.044   7.241
 1976ETHY    C1 1896   5.971   5.400   7.094
 1977ETHY    C1 1897   6.184   5.865   6.927
 1978ETHY    C1 1898   6.299   6.363   6.779
 1979ETHY    C1 1899   6.319   6.882   6.655
 1980ETHY    C1 1900   6.244   7.411   6.558
 1981AUSL   AUS 1901   5.673   4.809   7.665
 1982AUSL   AUS 1902   5.786   4.552   8.012
 1983AUL    AUL 1903   5.824   4.930   7.992
 1984THSLK    S 1904   5.958   4.665   8.184
 1985ETHY    C1 1905   6.243   4.768   8.524
 1986ETHY    C1 1906   6.545   4.972   8.921
 1987ETHY    C1 1907   6.790   5.262   9.294
 1988ETHY    C1 1908   6.974   5.625   9.638
 1989ETHY    C1 1909   7.093   6.055   9.948
 1990THSLK    S 1910   5.724   5.043   7.771
 1991ETHY    C1 1911   5.968   5.397   7.922
 1992ETHY    C1 1912   6.181   5.863   8.087
 1993ETHY    C1 1913   6.297   6.362   8.231
 1994ETHY    C1 1914   6.316   6.880   8.356
 1995ETHY    C1 1915   6.241   7.408   8.458
 1996AUSL   AUS 1916   5.521   3.556   7.911
 1997AUSL   AUS 1917   5.938   3.625   7.766
 1998AUL    AUL 1918   5.824   3.341   7.992
 1999THSLK    S 1919   5.477   3.301   7.990
 2000ETHY    C1 1920   5.317   2.897   8.128
 2001ETHY    C1 1921   5.203   2.416   8.341
 2002ETHY    C1 1922   5.178   1.955   8.605
 2003ETHY    C1 1923   5.237   1.525   8.915
 2004ETHY    C1 1924   5.378   1.133   9.263
 2005THSLK    S 1925   6.053   3.436   7.908
 2006ETHY    C1 1926   6.169   3.020   8.052
 2007ETHY    C1 1927   6.383   2.567   8.248
 2008ETHY    C1 1928   6.675   2.179   8.467
 2009ETHY    C1 1929   7.034   1.864   8.705
 2010ETHY    C1 1930   7.451   1.627   8.958
 2011AUSL   AUS 1931   5.369   3.462   7.665
 2012AUSL   AUS 1932   5.256   3.719   8.012
 2013AUL    AUL 1933   5.218   3.341   7.992
 2014THSLK    S 1934   5.316   3.222   7.745
 2015ETHY    C1 1935   5.071   2.841   7.801
 2016ETHY    C1 1936   4.858   2.356   7.897
 2017ETHY    C1 1937   4.743   1.853   8.025
 2018ETHY    C1 1938   4.724   1.344   8.186
 2019ETHY    C1 1939   4.798   0.841   8.374
 2020THSLK    S 1940   5.078   3.551   8.133
 2021ETHY    C1 1941   4.790   3.233   8.289
 2022ETHY    C1 1942   4.490   2.873   8.552
 2023ETHY    C1 1943   4.247   2.547   8.896
 2024ETHY    C1 1944   4.063   2.264   9.309
 2025ETHY    C1 1945   3.939   2.030   9.783
 2026AUSL   AUS 1946   5.673   3.462   7.665
 2027AUSL   AUS 1947   5.369   3.462   7.338
 2028AUL    AUL 1948   5.521   3.154   7.502
 2029THSLK    S 1949   5.318   3.219   7.266
 2030ETHY    C1 1950   5.074   2.837   7.215
 2031ETHY    C1 1951   4.861   2.353   7.117
 2032ETHY    C1 1952   4.745   1.851   6.984
 2033ETHY    C1 1953   4.726   1.342   6.825
 2034ETHY    C1 1954   4.802   0.837   6.642
 2035THSLK    S 1955   5.630   3.206   7.749
 2036ETHY    C1 1956   5.520   2.770   7.821
 2037ETHY    C1 1957   5.477   2.244   7.928
 2038ETHY    C1 1958   5.534   1.732   8.059
 2039ETHY    C1 1959   5.687   1.244   8.213
 2040ETHY    C1 1960   5.929   0.791   8.388
 2041AUSL   AUS 1961   5.521   4.716   7.093
 2042AUSL   AUS 1962   5.938   4.646   7.237
 2043AUL    AUL 1963   5.824   4.930   7.011
 2044THSLK    S 1964   5.565   4.946   6.975
 2045ETHY    C1 1965   5.725   5.250   6.674
 2046ETHY    C1 1966   5.839   5.655   6.339
 2047ETHY    C1 1967   5.864   6.098   6.045
 2048ETHY    C1 1968   5.805   6.567   5.798
 2049ETHY    C1 1969   5.664   7.054   5.604
 2050THSLK    S 1970   6.125   4.767   7.085
 2051ETHY    C1 1971   6.499   4.923   6.876
 2052ETHY    C1 1972   6.897   5.187   6.629
 2053ETHY    C1 1973   7.230   5.531   6.395
 2054ETHY    C1 1974   7.492   5.943   6.184
 2055ETHY    C1 1975   7.683   6.417   5.998
 2056AUSL   AUS 1976   5.369   4.809   7.338
 2057AUSL   AUS 1977   5.256   4.552   6.992
 2058AUL    AUL 1978   5.218   4.930   7.011
 2059THSLK    S 1979   5.412   5.060   7.237
 2060ETHY    C1 1980   5.522   5.471   7.074
 2061ETHY    C1 1981   5.565   5.977   6.896
 2062ETHY    C1 1982   5.508   6.485   6.745
 2063ETHY    C1 1983   5.355   6.982   6.627
 2064ETHY    C1 1984   5.113   7.461   6.545
 2065THSLK    S 1985   5.142   4.687   6.802
 2066ETHY    C1 1986   5.076   4.859   6.385
 2067ETHY    C1 1987   4.933   5.111   5.932
 2068ETHY    C1 1988   4.724   5.410   5.544
 2069ETHY    C1 1989   4.458   5.748   5.230
 2070ETHY    C1 1990   4.142   6.121   4.993
 2071AUSL   AUS 1991   5.521   3.556   7.093
 2072AUSL   AUS 1992   5.105   3.625   7.237
 2073AUL    AUL 1993   5.218   3.341   7.011
 2074THSLK    S 1994   4.921   3.475   7.128
 2075ETHY    C1 1995   4.549   3.214   7.085
 2076ETHY    C1 1996   4.150   2.876   6.958
 2077ETHY    C1 1997   3.815   2.517   6.753
 2078ETHY    C1 1998   3.553   2.143   6.478
 2079ETHY    C1 1999   3.366   1.760   6.142
 2080THSLK    S 2000   5.481   3.297   7.019
 2081ETHY    C1 2001   5.324   2.891   6.885
 2082ETHY    C1 2002   5.209   2.411   6.671
 2083ETHY    C1 2003   5.182   1.952   6.404
 2084ETHY    C1 2004   5.242   1.521   6.094
 2085ETHY    C1 2005   5.386   1.126   5.751
 2086AUSL   AUS 2006   5.673   3.462   7.338
 2087AUSL   AUS 2007   5.786   3.719   6.992
 2088AUL    AUL 2008   5.824   3.341   7.011
 2089THSLK    S 2009   5.632   3.205   7.262
 2090ETHY    C1 2010   5.523   2.767   7.195
 2091ETHY    C1 2011   5.480   2.241   7.086
 2092ETHY    C1 2012   5.536   1.730   6.951
 2093ETHY    C1 2013   5.689   1.242   6.798
 2094ETHY    C1 2014   5.933   0.788   6.629
 2095THSLK    S 2015   5.906   3.529   6.853
 2096ETHY    C1 2016   5.975   3.143   6.621
 2097ETHY    C1 2017   6.117   2.735   6.300
 2098ETHY    C1 2018   6.324   2.399   5.942
 2099ETHY    C1 2019   6.590   2.142   5.559
 2100ETHY    C1 2020   6.910   1.964   5.158
 2101AUC    AUC 2021  34.200  40.727   7.502
 2102AUC    AUC 2022  34.446  40.727   7.350
 2103AUC    AUC 2023  34.446  40.727   7.653
 2104AUC    AUC 2024  33.955  40.727   7.350
 2105AUC    AUC 2025  33.955  40.727   7.653
 2106AUC    AUC 2026  34.048  40.972   7.502
 2107AUC    AUC 2027  34.352  40.972   7.502
 2108AUC    AUC 2028  34.048  40.481   7.502
 2109AUC    AUC 2029  34.352  40.481   7.502
 2110AUC    AUC 2030  34.200  40.575   7.747
 2111AUC    AUC 2031  34.200  40.878   7.747
 2112AUC    AUC 2032  34.200  40.575   7.256
 2113AUC    AUC 2033  34.200  40.878   7.256
 2114AUC    AUC 2034  34.691  40.727   7.198
 2115AUC    AUC 2035  34.691  40.727   7.502
 2116AUC    AUC 2036  34.691  40.727   7.805
 2117AUC    AUC 2037  33.709  40.727   7.198
 2118AUC    AUC 2038  33.709  40.727   7.502
 2119AUC    AUC 2039  33.709  40.727   7.805
 2120AUC    AUC 2040  33.897  41.217   7.502
 2121AUC    AUC 2041  34.200  41.217   7.502
 2122AUC    AUC 2042  34.503  41.217   7.502
 2123AUC    AUC 2043  33.897  40.236   7.502
 2124AUC    AUC 2044  34.200  40.236   7.502
 2125AUC    AUC 2045  34.503  40.236   7.502
 2126AUC    AUC 2046  34.200  40.423   7.992
 2127AUC    AUC 2047  34.200  40.727   7.992
 2128AUC    AUC 2048  34.200  41.030   7.992
 2129AUC    AUC 2049  34.200  40.423   7.011
 2130AUC    AUC 2050  34.200  40.727   7.011
 2131AUC    AUC 2051  34.200  41.030   7.011
 2132AUC    AUC 2052  34.446  40.575   7.899
 2133AUC    AUC 2053  34.446  40.878   7.899
 2134AUC    AUC 2054  34.446  40.575   7.105
 2135AUC    AUC 2055  34.446  40.878   7.105
 2136AUC    AUC 2056  33.955  40.575   7.899
 2137AUC    AUC 2057  33.955  40.878   7.899
 2138AUC    AUC 2058  33.955  40.575   7.105
 2139AUC    AUC 2059  33.955  40.878   7.105
 2140AUC    AUC 2060  34.597  40.972   7.350
 2141AUC    AUC 2061  34.597  40.972   7.653
 2142AUC    AUC 2062  33.803  40.972   7.350
 2143AUC    AUC 2063  33.803  40.972   7.653
 2144AUC    AUC 2064  34.597  40.481   7.350
 2145AUC    AUC 2065  34.597  40.481   7.653
 2146AUC    AUC 2066  33.803  40.481   7.350
 2147AUC    AUC 2067  33.803  40.481   7.653
 2148AUC    AUC 2068  34.048  41.124   7.747
 2149AUC    AUC 2069  34.352  41.124   7.747
 2150AUC    AUC 2070  34.048  40.329   7.747
 2151AUC    AUC 2071  34.352  40.329   7.747
 2152AUC    AUC 2072  34.048  41.124   7.256
 2153AUC    AUC 2073  34.352  41.124   7.256
 2154AUC    AUC 2074  34.048  40.329   7.256
 2155AUC    AUC 2075  34.352  40.329   7.256
 2156AUSL   AUS 2076  34.609  40.727   8.082
 2157AUSL   AUS 2077  34.465  40.310   8.012
 2158AUL    AUL 2078  34.691  40.423   8.296
 2159THSLK    S 2079  34.579  40.122   8.156
 2160ETHY    C1 2080  34.645  39.737   8.391
 2161ETHY    C1 2081  34.788  39.329   8.710
 2162ETHY    C1 2082  34.997  38.993   9.066
 2163ETHY    C1 2083  35.263  38.735   9.450
 2164ETHY    C1 2084  35.579  38.559   9.855
 2165THSLK    S 2085  34.705  40.677   8.326
 2166ETHY    C1 2086  34.921  40.491   8.681
 2167ETHY    C1 2087  35.196  40.356   9.124
 2168ETHY    C1 2088  35.477  40.326   9.575
 2169ETHY    C1 2089  35.755  40.395  10.025
 2170ETHY    C1 2090  36.024  40.563  10.466
 2171AUSL   AUS 2091  34.364  40.575   8.175
 2172AUSL   AUS 2092  34.037  40.878   8.175
 2173AUL    AUL 2093  34.200  40.727   8.483
 2174THSLK    S 2094  34.442  40.522   8.417
 2175ETHY    C1 2095  34.519  40.272   8.790
 2176ETHY    C1 2096  34.635  40.055   9.269
 2177ETHY    C1 2097  34.772  39.939   9.769
 2178ETHY    C1 2098  34.922  39.921  10.281
 2179ETHY    C1 2099  35.081  40.002  10.794
 2180THSLK    S 2100  33.950  40.835   8.431
 2181ETHY    C1 2101  33.868  40.723   8.864
 2182ETHY    C1 2102  33.754  40.677   9.388
 2183ETHY    C1 2103  33.622  40.735   9.901
 2184ETHY    C1 2104  33.471  40.888  10.389
 2185ETHY    C1 2105  33.305  41.132  10.844
 2186AUSL   AUS 2106  34.364  40.878   8.175
 2187AUSL   AUS 2107  34.710  40.991   7.918
 2188AUL    AUL 2108  34.691  41.030   8.296
 2189THSLK    S 2109  34.451  40.932   8.414
 2190ETHY    C1 2110  34.532  41.183   8.786
 2191ETHY    C1 2111  34.646  41.399   9.265
 2192ETHY    C1 2112  34.779  41.515   9.767
 2193ETHY    C1 2113  34.929  41.533  10.279
 2194ETHY    C1 2114  35.095  41.453  10.789
 2195THSLK    S 2115  34.884  41.093   8.080
 2196ETHY    C1 2116  35.248  41.103   8.354
 2197ETHY    C1 2117  35.664  41.205   8.680
 2198ETHY    C1 2118  36.044  41.404   8.995
 2199ETHY    C1 2119  36.379  41.691   9.296
 2200ETHY    C1 2120  36.660  42.059   9.577
 2201AUSL   AUS 2121  34.609  40.727   6.922
 2202AUSL   AUS 2122  34.465  41.143   6.992
 2203AUL    AUL 2123  34.691  41.030   6.707
 2204THSLK    S 2124  34.712  40.677   6.681
 2205ETHY    C1 2125  34.933  40.491   6.329
 2206ETHY    C1 2126  35.206  40.356   5.885
 2207ETHY    C1 2127  35.484  40.326   5.432
 2208ETHY    C1 2128  35.762  40.395   4.982
 2209ETHY    C1 2129  36.036  40.563   4.545
 2210THSLK    S 2130  34.643  41.258   6.825
 2211ETHY    C1 2131  34.931  41.363   6.488
 2212ETHY    C1 2132  35.231  41.567   6.090
 2213ETHY    C1 2133  35.474  41.855   5.714
 2214ETHY    C1 2134  35.658  42.219   5.371
 2215ETHY    C1 2135  35.782  42.650   5.065
 2216AUSL   AUS 2136  34.364  40.575   6.828
 2217AUSL   AUS 2137  34.710  40.462   7.085
 2218AUL    AUL 2138  34.691  40.423   6.707
 2219THSLK    S 2139  34.847  40.270   6.944
 2220ETHY    C1 2140  35.055  39.927   6.729
 2221ETHY    C1 2141  35.356  39.585   6.442
 2222ETHY    C1 2142  35.707  39.332   6.133
 2223ETHY    C1 2143  36.101  39.170   5.812
 2224ETHY    C1 2144  36.530  39.099   5.486
 2225THSLK    S 2145  34.451  40.521   6.590
 2226ETHY    C1 2146  34.532  40.270   6.217
 2227ETHY    C1 2147  34.646  40.054   5.738
 2228ETHY    C1 2148  34.779  39.938   5.236
 2229ETHY    C1 2149  34.929  39.920   4.725
 2230ETHY    C1 2150  35.095  40.000   4.214
 2231AUSL   AUS 2151  34.364  40.878   6.828
 2232AUSL   AUS 2152  34.037  40.575   6.828
 2233AUL    AUL 2153  34.200  40.727   6.520
 2234THSLK    S 2154  33.942  40.521   6.592
 2235ETHY    C1 2155  33.805  40.273   6.235
 2236ETHY    C1 2156  33.645  40.059   5.767
 2237ETHY    C1 2157  33.498  39.944   5.269
 2238ETHY    C1 2158  33.371  39.925   4.751
 2239ETHY    C1 2159  33.266  40.001   4.224
 2240THSLK    S 2160  34.467  40.836   6.578
 2241ETHY    C1 2161  34.608  40.721   6.160
 2242ETHY    C1 2162  34.766  40.674   5.647
 2243ETHY    C1 2163  34.909  40.730   5.138
 2244ETHY    C1 2164  35.037  40.884   4.643
 2245ETHY    C1 2165  35.148  41.132   4.174
 2246AUSL   AUS 2166  33.791  40.727   8.082
 2247AUSL   AUS 2167  33.935  41.143   8.012
 2248AUL    AUL 2168  33.709  41.030   8.296
 2249THSLK    S 2169  33.688  40.677   8.322
 2250ETHY    C1 2170  33.467  40.491   8.674
 2251ETHY    C1 2171  33.194  40.356   9.118
 2252ETHY    C1 2172  32.917  40.326   9.571
 2253ETHY    C1 2173  32.639  40.395  10.021
 2254ETHY    C1 2174  32.364  40.563  10.458
 2255THSLK    S 2175  33.815  41.272   8.202
 2256ETHY    C1 2176  33.746  41.441   8.620
 2257ETHY    C1 2177  33.604  41.694   9.073
 2258ETHY    C1 2178  33.398  41.995   9.460
 2259ETHY    C1 2179  33.131  42.334   9.775
 2260ETHY    C1 2180  32.811  42.701  10.013
 2261AUSL   AUS 2181  34.037  40.575   8.175
 2262AUSL   AUS 2182  33.690  40.462   7.918
 2263AUL    AUL 2183  33.709  40.423   8.296
 2264THSLK    S 2184  33.512  40.298   8.029
 2265ETHY    C1 2185  33.144  40.045   8.125
 2266ETHY    C1 2186  32.729  39.766   8.323
 2267ETHY    C1 2187  32.351  39.526   8.611
 2268ETHY    C1 2188  32.017  39.330   8.978
 2269ETHY    C1 2189  31.731  39.184   9.415
 2270THSLK    S 2190  33.934  40.523   8.410
 2271ETHY    C1 2191  33.792  40.276   8.766
 2272ETHY    C1 2192  33.634  40.061   9.233
 2273ETHY    C1 2193  33.491  39.945   9.733
 2274ETHY    C1 2194  33.364  39.927  10.250
 2275ETHY    C1 2195  33.252  40.005  10.775
 2276AUSL   AUS 2196  33.791  40.727   6.922
 2277AUSL   AUS 2197  33.935  40.310   6.992
 2278AUL    AUL 2198  33.709  40.423   6.707
 2279THSLK    S 2199  33.696  40.677   6.677
 2280ETHY    C1 2200  33.479  40.491   6.322
 2281ETHY    C1 2201  33.204  40.356   5.879
 2282ETHY    C1 2202  32.923  40.326   5.429
 2283ETHY    C1 2203  32.645  40.395   4.978
 2284ETHY    C1 2204  32.377  40.563   4.537
 2285THSLK    S 2205  33.763  40.136   6.872
 2286ETHY    C1 2206  33.478  39.815   6.717
 2287ETHY    C1 2207  33.177  39.456   6.453
 2288ETHY    C1 2208  32.932  39.133   6.109
 2289ETHY    C1 2209  32.748  38.850   5.696
 2290ETHY    C1 2210  32.629  38.610   5.223
 2291AUSL   AUS 2211  34.037  40.878   6.828
 2292AUSL   AUS 2212  33.690  40.991   7.085
 2293AUL    AUL 2213  33.709  41.030   6.707
 2294THSLK    S 2214  33.559  41.121   6.893
 2295ETHY    C1 2215  33.353  41.221   6.499
 2296ETHY    C1 2216  33.051  41.385   6.085
 2297ETHY    C1 2217  32.697  41.597   5.748
 2298ETHY    C1 2218  32.304  41.851   5.494
 2299ETHY    C1 2219  31.879  42.144   5.324
 2300THSLK    S 2220  33.958  40.837   6.571
 2301ETHY    C1 2221  33.881  40.725   6.136
 2302ETHY    C1 2222  33.765  40.680   5.612
 2303ETHY    C1 2223  33.629  40.736   5.101
 2304ETHY    C1 2224  33.479  40.890   4.613
 2305ETHY    C1 2225  33.319  41.135   4.156
 2306AUSL   AUS 2226  34.780  41.136   7.502
 2307AUSL   AUS 2227  34.710  40.991   7.085
 2308AUL    AUL 2228  34.994  41.217   7.198
 2309THSLK    S 2229  34.889  41.094   6.930
 2310ETHY    C1 2230  35.256  41.105   6.659
 2311ETHY    C1 2231  35.671  41.207   6.332
 2312ETHY    C1 2232  36.049  41.405   6.014
 2313ETHY    C1 2233  36.383  41.692   5.713
 2314ETHY    C1 2234  36.669  42.062   5.438
 2315THSLK    S 2235  35.048  41.192   7.506
 2316ETHY    C1 2236  35.500  41.253   7.508
 2317ETHY    C1 2237  36.014  41.412   7.507
 2318ETHY    C1 2238  36.482  41.666   7.505
 2319ETHY    C1 2239  36.895  42.003   7.506
 2320ETHY    C1 2240  37.247  42.417   7.509
 2321AUSL   AUS 2241  34.874  40.890   7.350
 2322AUSL   AUS 2242  34.874  40.563   7.653
 2323AUL    AUL 2243  35.182  40.727   7.502
 2324THSLK    S 2244  35.133  40.933   7.348
 2325ETHY    C1 2245  35.578  40.863   7.278
 2326ETHY    C1 2246  36.109  40.870   7.190
 2327ETHY    C1 2247  36.622  40.980   7.101
 2328ETHY    C1 2248  37.107  41.186   7.017
 2329ETHY    C1 2249  37.554  41.483   6.940
 2330THSLK    S 2250  35.106  40.425   7.662
 2331ETHY    C1 2251  35.452  40.136   7.728
 2332ETHY    C1 2252  35.913  39.869   7.809
 2333ETHY    C1 2253  36.410  39.700   7.892
 2334ETHY    C1 2254  36.931  39.628   7.980
 2335ETHY    C1 2255  37.466  39.654   8.071
 2336AUSL   AUS 2256  34.874  40.890   7.653
 2337AUSL   AUS 2257  34.617  41.237   7.766
 2338AUL    AUL 2258  34.994  41.217   7.805
 2339THSLK    S 2259  34.800  41.356   7.926
 2340ETHY    C1 2260  35.172  41.511   8.139
 2341ETHY    C1 2261  35.572  41.776   8.385
 2342ETHY    C1 2262  35.906  42.120   8.615
 2343ETHY    C1 2263  36.168  42.533   8.827
 2344ETHY    C1 2264  36.355  43.005   9.019
 2345THSLK    S 2265  35.132  40.933   7.664
 2346ETHY    C1 2266  35.576  40.863   7.738
 2347ETHY    C1 2267  36.107  40.870   7.825
 2348ETHY    C1 2268  36.621  40.980   7.910
 2349ETHY    C1 2269  37.105  41.186   7.994
 2350ETHY    C1 2270  37.552  41.483   8.078
 2351AUSL   AUS 2271  33.620  41.136   7.502
 2352AUSL   AUS 2272  33.690  40.991   7.918
 2353AUL    AUL 2273  33.406  41.217   7.805
 2354THSLK    S 2274  33.554  41.114   8.109
 2355ETHY    C1 2275  33.345  41.210   8.503
 2356ETHY    C1 2276  33.044  41.376   8.917
 2357ETHY    C1 2277  32.693  41.591   9.254
 2358ETHY    C1 2278  32.299  41.845   9.509
 2359ETHY    C1 2279  31.870  42.132   9.678
 2360THSLK    S 2280  33.404  41.276   7.506
 2361ETHY    C1 2281  33.148  41.654   7.508
 2362ETHY    C1 2282  32.775  42.042   7.507
 2363ETHY    C1 2283  32.339  42.348   7.505
 2364ETHY    C1 2284  31.853  42.566   7.506
 2365ETHY    C1 2285  31.326  42.696   7.509
 2366AUSL   AUS 2286  33.526  40.890   7.350
 2367AUSL   AUS 2287  33.784  41.237   7.237
 2368AUL    AUL 2288  33.406  41.217   7.198
 2369THSLK    S 2289  33.295  41.005   7.303
 2370ETHY    C1 2290  32.948  41.193   7.075
 2371ETHY    C1 2291  32.488  41.385   6.872
 2372ETHY    C1 2292  31.990  41.535   6.758
 2373ETHY    C1 2293  31.469  41.645   6.733
 2374ETHY    C1 2294  30.935  41.715   6.796
 2375THSLK    S 2295  33.668  41.402   7.058
 2376ETHY    C1 2296  33.552  41.718   6.750
 2377ETHY    C1 2297  33.338  42.096   6.432
 2378ETHY    C1 2298  33.046  42.465   6.183
 2379ETHY    C1 2299  32.688  42.818   6.008
 2380ETHY    C1 2300  32.270  43.151   5.909
 2381AUSL   AUS 2301  33.526  40.890   7.653
 2382AUSL   AUS 2302  33.526  40.563   7.350
 2383AUL    AUL 2303  33.218  40.727   7.502
 2384THSLK    S 2304  33.268  40.489   7.390
 2385ETHY    C1 2305  32.824  40.454   7.486
 2386ETHY    C1 2306  32.293  40.373   7.518
 2387ETHY    C1 2307  31.779  40.248   7.458
 2388ETHY    C1 2308  31.295  40.080   7.311
 2389ETHY    C1 2309  30.848  39.873   7.083
 2390THSLK    S 2310  33.293  40.997   7.704
 2391ETHY    C1 2311  32.946  41.181   7.935
 2392ETHY    C1 2312  32.486  41.374   8.137
 2393ETHY    C1 2313  31.989  41.529   8.249
 2394ETHY    C1 2314  31.468  41.639   8.274
 2395ETHY    C1 2315  30.932  41.702   8.213
 2396AUSL   AUS 2316  34.780  40.317   7.502
 2397AUSL   AUS 2317  34.710  40.462   7.918
 2398AUL    AUL 2318  34.994  40.236   7.805
 2399THSLK    S 2319  34.996  40.177   7.506
 2400ETHY    C1 2320  35.252  39.799   7.508
 2401ETHY    C1 2321  35.625  39.411   7.507
 2402ETHY    C1 2322  36.061  39.105   7.505
 2403ETHY    C1 2323  36.547  38.887   7.506
 2404ETHY    C1 2324  37.074  38.757   7.509
 2405THSLK    S 2325  34.842  40.272   8.066
 2406ETHY    C1 2326  35.047  39.929   8.285
 2407ETHY    C1 2327  35.349  39.587   8.570
 2408ETHY    C1 2328  35.703  39.334   8.877
 2409ETHY    C1 2329  36.097  39.171   9.198
 2410ETHY    C1 2330  36.521  39.101   9.529
 2411AUSL   AUS 2331  34.874  40.563   7.350
 2412AUSL   AUS 2332  34.617  40.216   7.237
 2413AUL    AUL 2333  34.994  40.236   7.198
 2414THSLK    S 2334  35.107  40.425   7.350
 2415ETHY    C1 2335  35.455  40.136   7.289
 2416ETHY    C1 2336  35.914  39.869   7.206
 2417ETHY    C1 2337  36.411  39.700   7.118
 2418ETHY    C1 2338  36.933  39.628   7.031
 2419ETHY    C1 2339  37.468  39.654   6.947
 2420THSLK    S 2340  34.736  40.026   7.104
 2421ETHY    C1 2341  34.853  39.609   6.963
 2422ETHY    C1 2342  35.067  39.155   6.765
 2423ETHY    C1 2343  35.357  38.769   6.543
 2424ETHY    C1 2344  35.716  38.454   6.306
 2425ETHY    C1 2345  36.136  38.215   6.058
 2426AUSL   AUS 2346  33.620  40.317   7.502
 2427AUSL   AUS 2347  33.690  40.462   7.085
 2428AUL    AUL 2348  33.406  40.236   7.198
 2429THSLK    S 2349  33.517  40.291   6.973
 2430ETHY    C1 2350  33.152  40.034   6.877
 2431ETHY    C1 2351  32.736  39.757   6.679
 2432ETHY    C1 2352  32.356  39.520   6.392
 2433ETHY    C1 2353  32.022  39.324   6.025
 2434ETHY    C1 2354  31.740  39.172   5.587
 2435THSLK    S 2355  33.352  40.261   7.506
 2436ETHY    C1 2356  32.900  40.200   7.508
 2437ETHY    C1 2357  32.386  40.041   7.507
 2438ETHY    C1 2358  31.918  39.787   7.505
 2439ETHY    C1 2359  31.505  39.450   7.506
 2440ETHY    C1 2360  31.153  39.036   7.509
 2441AUSL   AUS 2361  33.526  40.563   7.653
 2442AUSL   AUS 2362  33.784  40.216   7.766
 2443AUL    AUL 2363  33.406  40.236   7.805
 2444THSLK    S 2364  33.596  40.072   7.880
 2445ETHY    C1 2365  33.222  39.815   7.926
 2446ETHY    C1 2366  32.824  39.475   8.052
 2447ETHY    C1 2367  32.491  39.113   8.255
 2448ETHY    C1 2368  32.229  38.739   8.529
 2449ETHY    C1 2369  32.038  38.361   8.870
 2450THSLK    S 2370  33.267  40.496   7.617
 2451ETHY    C1 2371  32.822  40.466   7.524
 2452ETHY    C1 2372  32.291  40.384   7.490
 2453ETHY    C1 2373  31.778  40.255   7.549
 2454ETHY    C1 2374  31.294  40.087   7.696
 2455ETHY    C1 2375  30.846  39.885   7.928
 2456AUSL   AUS 2376  34.200  41.307   7.911
 2457AUSL   AUS 2377  33.784  41.237   7.766
 2458AUL    AUL 2378  33.897  41.521   7.992
 2459THSLK    S 2379  33.664  41.396   7.950
 2460ETHY    C1 2380  33.547  41.708   8.261
 2461ETHY    C1 2381  33.333  42.088   8.578
 2462ETHY    C1 2382  33.043  42.459   8.824
 2463ETHY    C1 2383  32.685  42.813   9.000
 2464ETHY    C1 2384  32.264  43.141   9.102
 2465THSLK    S 2385  34.240  41.533   8.035
 2466ETHY    C1 2386  34.397  41.835   8.339
 2467ETHY    C1 2387  34.512  42.241   8.672
 2468ETHY    C1 2388  34.539  42.685   8.964
 2469ETHY    C1 2389  34.479  43.154   9.211
 2470ETHY    C1 2390  34.335  43.638   9.410
 2471AUSL   AUS 2391  34.048  41.400   7.665
 2472AUSL   AUS 2392  34.352  41.400   7.338
 2473AUL    AUL 2393  34.200  41.708   7.502
 2474THSLK    S 2394  34.089  41.648   7.774
 2475ETHY    C1 2395  34.198  42.058   7.942
 2476ETHY    C1 2396  34.242  42.565   8.118
 2477ETHY    C1 2397  34.185  43.073   8.265
 2478ETHY    C1 2398  34.032  43.570   8.383
 2479ETHY    C1 2399  33.789  44.047   8.472
 2480THSLK    S 2400  34.405  41.635   7.241
 2481ETHY    C1 2401  34.650  41.991   7.094
 2482ETHY    C1 2402  34.863  42.456   6.927
 2483ETHY    C1 2403  34.978  42.954   6.779
 2484ETHY    C1 2404  34.998  43.473   6.655
 2485ETHY    C1 2405  34.923  44.002   6.558
 2486AUSL   AUS 2406  34.352  41.400   7.665
 2487AUSL   AUS 2407  34.465  41.143   8.012
 2488AUL    AUL 2408  34.503  41.521   7.992
 2489THSLK    S 2409  34.637  41.256   8.184
 2490ETHY    C1 2410  34.922  41.359   8.524
 2491ETHY    C1 2411  35.224  41.563   8.921
 2492ETHY    C1 2412  35.469  41.853   9.294
 2493ETHY    C1 2413  35.653  42.216   9.638
 2494ETHY    C1 2414  35.772  42.646   9.948
 2495THSLK    S 2415  34.403  41.634   7.771
 2496ETHY    C1 2416  34.647  41.988   7.922
 2497ETHY    C1 2417  34.860  42.454   8.087
 2498ETHY    C1 2418  34.976  42.953   8.231
 2499ETHY    C1 2419  34.995  43.471   8.356
 2500ETHY    C1 2420  34.920  43.999   8.458
 2501AUSL   AUS 2421  34.200  40.147   7.911
 2502AUSL   AUS 2422  34.617  40.216   7.766
 2503AUL    AUL 2423  34.503  39.932   7.992
 2504THSLK    S 2424  34.156  39.892   7.990
 2505ETHY    C1 2425  33.996  39.488   8.128
 2506ETHY    C1 2426  33.882  39.007   8.341
 2507ETHY    C1 2427  33.857  38.546   8.605
 2508ETHY    C1 2428  33.916  38.116   8.915
 2509ETHY    C1 2429  34.057  37.724   9.263
 2510THSLK    S 2430  34.732  40.027   7.908
 2511ETHY    C1 2431  34.848  39.611   8.052
 2512ETHY    C1 2432  35.062  39.158   8.248
 2513ETHY    C1 2433  35.354  38.770   8.467
 2514ETHY    C1 2434  35.713  38.455   8.705
 2515ETHY    C1 2435  36.130  38.218   8.958
 2516AUSL   AUS 2436  34.048  40.053   7.665
 2517AUSL   AUS 2437  33.935  40.310   8.012
 2518AUL    AUL 2438  33.897  39.932   7.992
 2519THSLK    S 2439  33.995  39.813   7.745
 2520ETHY    C1 2440  33.750  39.432   7.801
 2521ETHY    C1 2441  33.537  38.947   7.897
 2522ETHY    C1 2442  33.422  38.444   8.025
 2523ETHY    C1 2443  33.403  37.935   8.186
 2524ETHY    C1 2444  33.477  37.432   8.374
 2525THSLK    S 2445  33.757  40.142   8.133
 2526ETHY    C1 2446  33.469  39.824   8.289
 2527ETHY    C1 2447  33.169  39.464   8.552
 2528ETHY    C1 2448  32.926  39.138   8.896
 2529ETHY    C1 2449  32.742  38.855   9.309
 2530ETHY    C1 2450  32.618  38.621   9.783
 2531AUSL   AUS 2451  34.352  40.053   7.665
 2532AUSL   AUS 2452  34.048  40.053   7.338
 2533AUL    AUL 2453  34.200  39.745   7.502
 2534THSLK    S 2454  33.997  39.810   7.266
 2535ETHY    C1 2455  33.753  39.428   7.215
 2536ETHY    C1 2456  33.540  38.944   7.117
 2537ETHY    C1 2457  33.424  38.442   6.984
 2538ETHY    C1 2458  33.405  37.933   6.825
 2539ETHY    C1 2459  33.481  37.428   6.642
 2540THSLK    S 2460  34.309  39.797   7.749
 2541ETHY    C1 2461  34.199  39.361   7.821
 2542ETHY    C1 2462  34.156  38.835   7.928
 2543ETHY    C1 2463  34.213  38.323   8.059
 2544ETHY    C1 2464  34.366  37.835   8.213
 2545ETHY    C1 2465  34.608  37.382   8.388
 2546AUSL   AUS 2466  34.200  41.307   7.093
 2547AUSL   AUS 2467  34.617  41.237   7.237
 2548AUL    AUL 2468  34.503  41.521   7.011
 2549THSLK    S 2469  34.244  41.537   6.975
 2550ETHY    C1 2470  34.404  41.841   6.674
 2551ETHY    C1 2471  34.518  42.246   6.339
 2552ETHY    C1 2472  34.543  42.689   6.045
 2553ETHY    C1 2473  34.484  43.158   5.798
 2554ETHY    C1 2474  34.343  43.645   5.604
 2555THSLK    S 2475  34.804  41.358   7.085
 2556ETHY    C1 2476  35.178  41.514   6.876
 2557ETHY    C1 2477  35.576  41.778   6.629
 2558ETHY    C1 2478  35.909  42.122   6.395
 2559ETHY    C1 2479  36.171  42.534   6.184
 2560ETHY    C1 2480  36.362  43.008   5.998
 2561AUSL   AUS 2481  34.048  41.400   7.338
 2562AUSL   AUS 2482  33.935  41.143   6.992
 2563AUL    AUL 2483  33.897  41.521   7.011
 2564THSLK    S 2484  34.091  41.651   7.237
 2565ETHY    C1 2485  34.201  42.062   7.074
 2566ETHY    C1 2486  34.244  42.568   6.896
 2567ETHY    C1 2487  34.187  43.076   6.745
 2568ETHY    C1 2488  34.034  43.573   6.627
 2569ETHY    C1 2489  33.792  44.052   6.545
 2570THSLK    S 2490  33.821  41.278   6.802
 2571ETHY    C1 2491  33.755  41.450   6.385
 2572ETHY    C1 2492  33.612  41.702   5.932
 2573ETHY    C1 2493  33.403  42.001   5.544
 2574ETHY    C1 2494  33.137  42.339   5.230
 2575ETHY    C1 2495  32.821  42.712   4.993
 2576AUSL   AUS 2496  34.200  40.147   7.093
 2577AUSL   AUS 2497  33.784  40.216   7.237
 2578AUL    AUL 2498  33.897  39.932   7.011
 2579THSLK    S 2499  33.600  40.066   7.128
 2580ETHY    C1 2500  33.228  39.805   7.085
 2581ETHY    C1 2501  32.829  39.467   6.958
 2582ETHY    C1 2502  32.494  39.108   6.753
 2583ETHY    C1 2503  32.232  38.734   6.478
 2584ETHY    C1 2504  32.045  38.351   6.142
 2585THSLK    S 2505  34.160  39.888   7.019
 2586ETHY    C1 2506  34.003  39.482   6.885
 2587ETHY    C1 2507  33.888  39.002   6.671
 2588ETHY    C1 2508  33.861  38.543   6.404
 2589ETHY    C1 2509  33.921  38.112   6.094
 2590ETHY    C1 2510  34.065  37.717   5.751
 2591AUSL   AUS 2511  34.352  40.053   7.338
 2592AUSL   AUS 2512  34.465  40.310   6.992
 2593AUL    AUL 2513  34.503  39.932   7.011
 2594THSLK    S 2514  34.311  39.796   7.262
 2595ETHY    C1 2515  34.202  39.358   7.195
 2596ETHY    C1 2516  34.159  38.832   7.086
 2597ETHY    C1 2517  34.215  38.321   6.951
 2598ETHY    C1 2518  34.368  37.833   6.798
 2599ETHY    C1 2519  34.612  37.379   6.629
 2600THSLK    S 2520  34.585  40.120   6.853
 2601ETHY    C1 2521  34.654  39.734   6.621
 2602ETHY    C1 2522  34.796  39.326   6.300
 2603ETHY    C1 2523  35.003  38.990   5.942
 2604ETHY    C1 2524  35.269  38.733   5.559
 2605ETHY    C1 2525  35.589  38.555   5.158
 2606AUC    AUC 2526  23.889   4.376   7.502
 2607AUC    AUC 2527  24.135   4.376   7.350
 2608AUC    AUC 2528  24.135   4.376   7.653
 2609AUC    AUC 2529  23.644   4.376   7.350
 2610AUC    AUC 2530  23.644   4.376   7.653
 2611AUC    AUC 2531  23.737   4.621   7.502
 2612AUC    AUC 2532  24.041   4.621   7.502
 2613AUC    AUC 2533  23.737   4.130   7.502
 2614AUC    AUC 2534  24.041   4.130   7.502
 2615AUC    AUC 2535  23.889   4.224   7.747
 2616AUC    AUC 2536  23.889   4.527   7.747
 2617AUC    AUC 2537  23.889   4.224   7.256
 2618AUC    AUC 2538  23.889   4.527   7.256
 2619AUC    AUC 2539  24.380   4.376   7.198
 2620AUC    AUC 2540  24.380   4.376   7.502
 2621AUC    AUC 2541  24.380   4.376   7.805
 2622AUC    AUC 2542  23.398   4.376   7.198
 2623AUC    AUC 2543  23.398   4.376   7.502
 2624AUC    AUC 2544  23.398   4.376   7.805
 2625AUC    AUC 2545  23.586   4.866   7.502
 2626AUC    AUC 2546  23.889   4.866   7.502
 2627AUC    AUC 2547  24.192   4.866   7.502
 2628AUC    AUC 2548  23.586   3.885   7.502
 2629AUC    AUC 2549  23.889   3.885   7.502
 2630AUC    AUC 2550  24.192   3.885   7.502
 2631AUC    AUC 2551  23.889   4.072   7.992
 2632AUC    AUC 2552  23.889   4.376   7.992
 2633AUC    AUC 2553  23.889   4.679   7.992
 2634AUC    AUC 2554  23.889   4.072   7.011
 2635AUC    AUC 2555  23.889   4.376   7.011
 2636AUC    AUC 2556  23.889   4.679   7.011
 2637AUC    AUC 2557  24.135   4.224   7.899
 2638AUC    AUC 2558  24.135   4.527   7.899
 2639AUC    AUC 2559  24.135   4.224   7.105
 2640AUC    AUC 2560  24.135   4.527   7.105
 2641AUC    AUC 2561  23.644   4.224   7.899
 2642AUC    AUC 2562  23.644   4.527   7.899
 2643AUC    AUC 2563  23.644   4.224   7.105
 2644AUC    AUC 2564  23.644   4.527   7.105
 2645AUC    AUC 2565  24.286   4.621   7.350
 2646AUC    AUC 2566  24.286   4.621   7.653
 2647AUC    AUC 2567  23.492   4.621   7.350
 2648AUC    AUC 2568  23.492   4.621   7.653
 2649AUC    AUC 2569  24.286   4.130   7.350
 2650AUC    AUC 2570  24.286   4.130   7.653
 2651AUC    AUC 2571  23.492   4.130   7.350
 2652AUC    AUC 2572  23.492   4.130   7.653
 2653AUC    AUC 2573  23.737   4.773   7.747
 2654AUC    AUC 2574  24.041   4.773   7.747
 2655AUC    AUC 2575  23.737   3.978   7.747
 2656AUC    AUC 2576  24.041   3.978   7.747
 2657AUC    AUC 2577  23.737   4.773   7.256
 2658AUC    AUC 2578  24.041   4.773   7.256
 2659AUC    AUC 2579  23.737   3.978   7.256
 2660AUC    AUC 2580  24.041   3.978   7.256
 2661AUSL   AUS 2581  24.298   4.376   8.082
 2662AUSL   AUS 2582  24.154   3.959   8.012
 2663AUL    AUL 2583  24.380   4.072   8.296
 2664THSLK    S 2584  24.268   3.771   8.156
 2665ETHY    C1 2585  24.334   3.386   8.391
 2666ETHY    C1 2586  24.477   2.978   8.710
 2667ETHY    C1 2587  24.686   2.642   9.066
 2668ETHY    C1 2588  24.952   2.384   9.450
 2669ETHY    C1 2589  25.268   2.208   9.855
 2670THSLK    S 2590  24.394   4.326   8.326
 2671ETHY    C1 2591  24.610   4.140   8.681
 2672ETHY    C1 2592  24.885   4.005   9.124
 2673ETHY    C1 2593  25.166   3.975   9.575
 2674ETHY    C1 2594  25.444   4.044  10.025
 2675ETHY    C1 2595  25.713   4.212  10.466
 2676AUSL   AUS 2596  24.053   4.224   8.175
 2677AUSL   AUS 2597  23.726   4.527   8.175
 2678AUL    AUL 2598  23.889   4.376   8.483
 2679THSLK    S 2599  24.131   4.171   8.417
 2680ETHY    C1 2600  24.208   3.921   8.790
 2681ETHY    C1 2601  24.324   3.704   9.269
 2682ETHY    C1 2602  24.461   3.588   9.769
 2683ETHY    C1 2603  24.611   3.570  10.281
 2684ETHY    C1 2604  24.770   3.651  10.794
 2685THSLK    S 2605  23.639   4.484   8.431
 2686ETHY    C1 2606  23.557   4.372   8.864
 2687ETHY    C1 2607  23.443   4.326   9.388
 2688ETHY    C1 2608  23.311   4.384   9.901
 2689ETHY    C1 2609  23.160   4.537  10.389
 2690ETHY    C1 2610  22.994   4.781  10.844
 2691AUSL   AUS 2611  24.053   4.527   8.175
 2692AUSL   AUS 2612  24.399   4.640   7.918
 2693AUL    AUL 2613  24.380   4.679   8.296
 2694THSLK    S 2614  24.140   4.581   8.414
 2695ETHY    C1 2615  24.221   4.832   8.786
 2696ETHY    C1 2616  24.335   5.048   9.265
 2697ETHY    C1 2617  24.468   5.164   9.767
 2698ETHY    C1 2618  24.618   5.182  10.279
 2699ETHY    C1 2619  24.784   5.102  10.789
 2700THSLK    S 2620  24.573   4.742   8.080
 2701ETHY    C1 2621  24.937   4.752   8.354
 2702ETHY    C1 2622  25.353   4.854   8.680
 2703ETHY    C1 2623  25.733   5.053   8.995
 2704ETHY    C1 2624  26.068   5.340   9.296
 2705ETHY    C1 2625  26.349   5.708   9.577
 2706AUSL   AUS 2626  24.298   4.376   6.922
 2707AUSL   AUS 2627  24.154   4.792   6.992
 2708AUL    AUL 2628  24.380   4.679   6.707
 2709THSLK    S 2629  24.401   4.326   6.681
 2710ETHY    C1 2630  24.622   4.140   6.329
 2711ETHY    C1 2631  24.895   4.005   5.885
 2712ETHY    C1 2632  25.173   3.975   5.432
 2713ETHY    C1 2633  25.451   4.044   4.982
 2714ETHY    C1 2634  25.725   4.212   4.545
 2715THSLK    S 2635  24.332   4.907   6.825
 2716ETHY    C1 2636  24.620   5.012   6.488
 2717ETHY    C1 2637  24.920   5.216   6.090
 2718ETHY    C1 2638  25.163   5.504   5.714
 2719ETHY    C1 2639  25.347   5.868   5.371
 2720ETHY    C1 2640  25.471   6.299   5.065
 2721AUSL   AUS 2641  24.053   4.224   6.828
 2722AUSL   AUS 2642  24.399   4.111   7.085
 2723AUL    AUL 2643  24.380   4.072   6.707
 2724THSLK    S 2644  24.536   3.919   6.944
 2725ETHY    C1 2645  24.744   3.576   6.729
 2726ETHY    C1 2646  25.045   3.234   6.442
 2727ETHY    C1 2647  25.396   2.981   6.133
 2728ETHY    C1 2648  25.790   2.819   5.812
 2729ETHY    C1 2649  26.219   2.748   5.486
 2730THSLK    S 2650  24.140   4.170   6.590
 2731ETHY    C1 2651  24.221   3.919   6.217
 2732ETHY    C1 2652  24.335   3.703   5.738
 2733ETHY    C1 2653  24.468   3.587   5.236
 2734ETHY    C1 2654  24.618   3.569   4.725
 2735ETHY    C1 2655  24.784   3.649   4.214
 2736AUSL   AUS 2656  24.053   4.527   6.828
 2737AUSL   AUS 2657  23.726   4.224   6.828
 2738AUL    AUL 2658  23.889   4.376   6.520
 2739THSLK    S 2659  23.631   4.170   6.592
 2740ETHY    C1 2660  23.494   3.922   6.235
 2741ETHY    C1 2661  23.334   3.708   5.767
 2742ETHY    C1 2662  23.187   3.593   5.269
 2743ETHY    C1 2663  23.060   3.574   4.751
 2744ETHY    C1 2664  22.955   3.650   4.224
 2745THSLK    S 2665  24.156   4.485   6.578
 2746ETHY    C1 2666  24.297   4.370   6.160
 2747ETHY    C1 2667  24.455   4.323   5.647
 2748ETHY    C1 2668  24.598   4.379   5.138
 2749ETHY    C1 2669  24.726   4.533   4.643
 2750ETHY    C1 2670  24.837   4.781   4.174
 2751AUSL   AUS 2671  23.480   4.376   8.082
 2752AUSL   AUS 2672  23.624   4.792   8.012
 2753AUL    AUL 2673  23.398   4.679   8.296
 2754THSLK    S 2674  23.377   4.326   8.322
 2755ETHY    C1 2675  23.156   4.140   8.674
 2756ETHY    C1 2676  22.883   4.005   9.118
 2757ETHY    C1 2677  22.606   3.975   9.571
 2758ETHY    C1 2678  22.328   4.044  10.021
 2759ETHY    C1 2679  22.053   4.212  10.458
 2760THSLK    S 2680  23.504   4.921   8.202
 2761ETHY    C1 2681  23.435   5.090   8.620
 2762ETHY    C1 2682  23.293   5.343   9.073
 2763ETHY    C1 2683  23.087   5.644   9.460
 2764ETHY    C1 2684  22.820   5.983   9.775
 2765ETHY    C1 2685  22.500   6.350  10.013
 2766AUSL   AUS 2686  23.726   4.224   8.175
 2767AUSL   AUS 2687  23.379   4.111   7.918
 2768AUL    AUL 2688  23.398   4.072   8.296
 2769THSLK    S 2689  23.201   3.947   8.029
 2770ETHY    C1 2690  22.833   3.694   8.125
 2771ETHY    C1 2691  22.418   3.415   8.323
 2772ETHY    C1 2692  22.040   3.175   8.611
 2773ETHY    C1 2693  21.706   2.979   8.978
 2774ETHY    C1 2694  21.420   2.833   9.415
 2775THSLK    S 2695  23.623   4.172   8.410
 2776ETHY    C1 2696  23.481   3.925   8.766
 2777ETHY    C1 2697  23.323   3.710   9.233
 2778ETHY    C1 2698  23.180   3.594   9.733
 2779ETHY    C1 2699  23.053   3.576  10.250
 2780ETHY    C1 2700  22.941   3.654  10.775
 2781AUSL   AUS 2701  23.480   4.376   6.922
 2782AUSL   AUS 2702  23.624   3.959   6.992
 2783AUL    AUL 2703  23.398   4.072   6.707
 2784THSLK    S 2704  23.385   4.326   6.677
 2785ETHY    C1 2705  23.168   4.140   6.322
 2786ETHY    C1 2706  22.893   4.005   5.879
 2787ETHY    C1 2707  22.612   3.975   5.429
 2788ETHY    C1 2708  22.334   4.044   4.978
 2789ETHY    C1 2709  22.066   4.212   4.537
 2790THSLK    S 2710  23.452   3.785   6.872
 2791ETHY    C1 2711  23.167   3.464   6.717
 2792ETHY    C1 2712  22.866   3.105   6.453
 2793ETHY    C1 2713  22.621   2.782   6.109
 2794ETHY    C1 2714  22.437   2.499   5.696
 2795ETHY    C1 2715  22.318   2.259   5.223
 2796AUSL   AUS 2716  23.726   4.527   6.828
 2797AUSL   AUS 2717  23.379   4.640   7.085
 2798AUL    AUL 2718  23.398   4.679   6.707
 2799THSLK    S 2719  23.248   4.770   6.893
 2800ETHY    C1 2720  23.042   4.870   6.499
 2801ETHY    C1 2721  22.740   5.034   6.085
 2802ETHY    C1 2722  22.386   5.246   5.748
 2803ETHY    C1 2723  21.993   5.500   5.494
 2804ETHY    C1 2724  21.568   5.793   5.324
 2805THSLK    S 2725  23.647   4.486   6.571
 2806ETHY    C1 2726  23.570   4.374   6.136
 2807ETHY    C1 2727  23.454   4.329   5.612
 2808ETHY    C1 2728  23.318   4.385   5.101
 2809ETHY    C1 2729  23.168   4.539   4.613
 2810ETHY    C1 2730  23.008   4.784   4.156
 2811AUSL   AUS 2731  24.469   4.785   7.502
 2812AUSL   AUS 2732  24.399   4.640   7.085
 2813AUL    AUL 2733  24.683   4.866   7.198
 2814THSLK    S 2734  24.578   4.743   6.930
 2815ETHY    C1 2735  24.945   4.754   6.659
 2816ETHY    C1 2736  25.360   4.856   6.332
 2817ETHY    C1 2737  25.738   5.054   6.014
 2818ETHY    C1 2738  26.072   5.341   5.713
 2819ETHY    C1 2739  26.358   5.711   5.438
 2820THSLK    S 2740  24.737   4.841   7.506
 2821ETHY    C1 2741  25.189   4.902   7.508
 2822ETHY    C1 2742  25.703   5.061   7.507
 2823ETHY    C1 2743  26.171   5.315   7.505
 2824ETHY    C1 2744  26.584   5.652   7.506
 2825ETHY    C1 2745  26.936   6.066   7.509
 2826AUSL   AUS 2746  24.563   4.539   7.350
 2827AUSL   AUS 2747  24.563   4.212   7.653
 2828AUL    AUL 2748  24.871   4.376   7.502
 2829THSLK    S 2749  24.822   4.582   7.348
 2830ETHY    C1 2750  25.267   4.512   7.278
 2831ETHY    C1 2751  25.798   4.519   7.190
 2832ETHY    C1 2752  26.311   4.629   7.101
 2833ETHY    C1 2753  26.796   4.835   7.017
 2834ETHY    C1 2754  27.243   5.132   6.940
 2835THSLK    S 2755  24.795   4.074   7.662
 2836ETHY    C1 2756  25.141   3.785   7.728
 2837ETHY    C1 2757  25.602   3.518   7.809
 2838ETHY    C1 2758  26.099   3.349   7.892
 2839ETHY    C1 2759  26.620   3.277   7.980
 2840ETHY    C1 2760  27.155   3.303   8.071
 2841AUSL   AUS 2761  24.563   4.539   7.653
 2842AUSL   AUS 2762  24.306   4.886   7.766
 2843AUL    AUL 2763  24.683   4.866   7.805
 2844THSLK    S 2764  24.489   5.005   7.926
 2845ETHY    C1 2765  24.861   5.160   8.139
 2846ETHY    C1 2766  25.261   5.425   8.385
 2847ETHY    C1 2767  25.595   5.769   8.615
 2848ETHY    C1 2768  25.857   6.182   8.827
 2849ETHY    C1 2769  26.044   6.654   9.019
 2850THSLK    S 2770  24.821   4.582   7.664
 2851ETHY    C1 2771  25.265   4.512   7.738
 2852ETHY    C1 2772  25.796   4.519   7.825
 2853ETHY    C1 2773  26.310   4.629   7.910
 2854ETHY    C1 2774  26.794   4.835   7.994
 2855ETHY    C1 2775  27.241   5.132   8.078
 2856AUSL   AUS 2776  23.309   4.785   7.502
 2857AUSL   AUS 2777  23.379   4.640   7.918
 2858AUL    AUL 2778  23.095   4.866   7.805
 2859THSLK    S 2779  23.243   4.763   8.109
 2860ETHY    C1 2780  23.034   4.859   8.503
 2861ETHY    C1 2781  22.733   5.025   8.917
 2862ETHY    C1 2782  22.382   5.240   9.254
 2863ETHY    C1 2783  21.988   5.494   9.509
 2864ETHY    C1 2784  21.559   5.781   9.678
 2865THSLK    S 2785  23.093   4.925   7.506
 2866ETHY    C1 2786  22.837   5.303   7.508
 2867ETHY    C1 2787  22.464   5.691   7.507
 2868ETHY    C1 2788  22.028   5.997   7.505
 2869ETHY    C1 2789  21.542   6.215   7.506
 2870ETHY    C1 2790  21.015   6.345   7.509
 2871AUSL   AUS 2791  23.215   4.539   7.350
 2872AUSL   AUS 2792  23.473   4.886   7.237
 2873AUL    AUL 2793  23.095   4.866   7.198
 2874THSLK    S 2794  22.984   4.654   7.303
 2875ETHY    C1 2795  22.637   4.842   7.075
 2876ETHY    C1 2796  22.177   5.034   6.872
 2877ETHY    C1 2797  21.679   5.184   6.758
 2878ETHY    C1 2798  21.158   5.294   6.733
 2879ETHY    C1 2799  20.624   5.364   6.796
 2880THSLK    S 2800  23.357   5.051   7.058
 2881ETHY    C1 2801  23.241   5.367   6.750
 2882ETHY    C1 2802  23.027   5.745   6.432
 2883ETHY    C1 2803  22.735   6.114   6.183
 2884ETHY    C1 2804  22.377   6.467   6.008
 2885ETHY    C1 2805  21.959   6.800   5.909
 2886AUSL   AUS 2806  23.215   4.539   7.653
 2887AUSL   AUS 2807  23.215   4.212   7.350
 2888AUL    AUL 2808  22.907   4.376   7.502
 2889THSLK    S 2809  22.957   4.138   7.390
 2890ETHY    C1 2810  22.513   4.103   7.486
 2891ETHY    C1 2811  21.982   4.022   7.518
 2892ETHY    C1 2812  21.468   3.897   7.458
 2893ETHY    C1 2813  20.984   3.729   7.311
 2894ETHY    C1 2814  20.537   3.522   7.083
 2895THSLK    S 2815  22.982   4.646   7.704
 2896ETHY    C1 2816  22.635   4.830   7.935
 2897ETHY    C1 2817  22.175   5.023   8.137
 2898ETHY    C1 2818  21.678   5.178   8.249
 2899ETHY    C1 2819  21.157   5.288   8.274
 2900ETHY    C1 2820  20.621   5.351   8.213
 2901AUSL   AUS 2821  24.469   3.966   7.502
 2902AUSL   AUS 2822  24.399   4.111   7.918
 2903AUL    AUL 2823  24.683   3.885   7.805
 2904THSLK    S 2824  24.685   3.826   7.506
 2905ETHY    C1 2825  24.941   3.448   7.508
 2906ETHY    C1 2826  25.314   3.060   7.507
 2907ETHY    C1 2827  25.750   2.754   7.505
 2908ETHY    C1 2828  26.236   2.536   7.506
 2909ETHY    C1 2829  26.763   2.406   7.509
 2910THSLK    S 2830  24.531   3.921   8.066
 2911ETHY    C1 2831  24.736   3.578   8.285
 2912ETHY    C1 2832  25.038   3.236   8.570
 2913ETHY    C1 2833  25.392   2.983   8.877
 2914ETHY    C1 2834  25.786   2.820   9.198
 2915ETHY    C1 2835  26.210   2.750   9.529
 2916AUSL   AUS 2836  24.563   4.212   7.350
 2917AUSL   AUS 2837  24.306   3.865   7.237
 2918AUL    AUL 2838  24.683   3.885   7.198
 2919THSLK    S 2839  24.796   4.074   7.350
 2920ETHY    C1 2840  25.144   3.785   7.289
 2921ETHY    C1 2841  25.603   3.518   7.206
 2922ETHY    C1 2842  26.100   3.349   7.118
 2923ETHY    C1 2843  26.622   3.277   7.031
 2924ETHY    C1 2844  27.157   3.303   6.947
 2925THSLK    S 2845  24.425   3.675   7.104
 2926ETHY    C1 2846  24.542   3.258   6.963
 2927ETHY    C1 2847  24.756   2.804   6.765
 2928ETHY    C1 2848  25.046   2.418   6.543
 2929ETHY    C1 2849  25.405   2.103   6.306
 2930ETHY    C1 2850  25.825   1.864   6.058
 2931AUSL   AUS 2851  23.309   3.966   7.502
 2932AUSL   AUS 2852  23.379   4.111   7.085
 2933AUL    AUL 2853  23.095   3.885   7.198
 2934THSLK    S 2854  23.206   3.940   6.973
 2935ETHY    C1 2855  22.841   3.683   6.877
 2936ETHY    C1 2856  22.425   3.406   6.679
 2937ETHY    C1 2857  22.045   3.169   6.392
 2938ETHY    C1 2858  21.711   2.973   6.025
 2939ETHY    C1 2859  21.429   2.821   5.587
 2940THSLK    S 2860  23.041   3.910   7.506
 2941ETHY    C1 2861  22.589   3.849   7.508
 2942ETHY    C1 2862  22.075   3.690   7.507
 2943ETHY    C1 2863  21.607   3.436   7.505
 2944ETHY    C1 2864  21.194   3.099   7.506
 2945ETHY    C1 2865  20.842   2.685   7.509
 2946AUSL   AUS 2866  23.215   4.212   7.653
 2947AUSL   AUS 2867  23.473   3.865   7.766
 2948AUL    AUL 2868  23.095   3.885   7.805
 2949THSLK    S 2869  23.285   3.721   7.880
 2950ETHY    C1 2870  22.911   3.464   7.926
 2951ETHY    C1 2871  22.513   3.124   8.052
 2952ETHY    C1 2872  22.180   2.762   8.255
 2953ETHY    C1 2873  21.918   2.388   8.529
 2954ETHY    C1 2874  21.727   2.010   8.870
 2955THSLK    S 2875  22.956   4.145   7.617
 2956ETHY    C1 2876  22.511   4.115   7.524
 2957ETHY    C1 2877  21.980   4.033   7.490
 2958ETHY    C1 2878  21.467   3.904   7.549
 2959ETHY    C1 2879  20.983   3.736   7.696
 2960ETHY    C1 2880  20.535   3.534   7.928
 2961AUSL   AUS 2881  23.889   4.956   7.911
 2962AUSL   AUS 2882  23.473   4.886   7.766
 2963AUL    AUL 2883  23.586   5.170   7.992
 2964THSLK    S 2884  23.353   5.045   7.950
 2965ETHY    C1 2885  23.236   5.357   8.261
 2966ETHY    C1 2886  23.022   5.737   8.578
 2967ETHY    C1 2887  22.732   6.108   8.824
 2968ETHY    C1 2888  22.374   6.462   9.000
 2969ETHY    C1 2889  21.953   6.790   9.102
 2970THSLK    S 2890  23.929   5.182   8.035
 2971ETHY    C1 2891  24.086   5.484   8.339
 2972ETHY    C1 2892  24.201   5.890   8.672
 2973ETHY    C1 2893  24.228   6.334   8.964
 2974ETHY    C1 2894  24.168   6.803   9.211
 2975ETHY    C1 2895  24.024   7.287   9.410
 2976AUSL   AUS 2896  23.737   5.049   7.665
 2977AUSL   AUS 2897  24.041   5.049   7.338
 2978AUL    AUL 2898  23.889   5.357   7.502
 2979THSLK    S 2899  23.778   5.297   7.774
 2980ETHY    C1 2900  23.887   5.707   7.942
 2981ETHY    C1 2901  23.931   6.214   8.118
 2982ETHY    C1 2902  23.874   6.722   8.265
 2983ETHY    C1 2903  23.721   7.219   8.383
 2984ETHY    C1 2904  23.478   7.696   8.472
 2985THSLK    S 2905  24.094   5.284   7.241
 2986ETHY    C1 2906  24.339   5.640   7.094
 2987ETHY    C1 2907  24.552   6.105   6.927
 2988ETHY    C1 2908  24.667   6.603   6.779
 2989ETHY    C1 2909  24.687   7.122   6.655
 2990ETHY    C1 2910  24.612   7.651   6.558
 2991AUSL   AUS 2911  24.041   5.049   7.665
 2992AUSL   AUS 2912  24.154   4.792   8.012
 2993AUL    AUL 2913  24.192   5.170   7.992
 2994THSLK    S 2914  24.326   4.905   8.184
 2995ETHY    C1 2915  24.611   5.008   8.524
 2996ETHY    C1 2916  24.913   5.212   8.921
 2997ETHY    C1 2917  25.158   5.502   9.294
 2998ETHY    C1 2918  25.342   5.865   9.638
 2999ETHY    C1 2919  25.461   6.295   9.948
 3000THSLK    S 2920  24.092   5.283   7.771
 3001ETHY    C1 2921  24.336   5.637   7.922
 3002ETHY    C1 2922  24.549   6.103   8.087
 3003ETHY    C1 2923  24.665   6.602   8.231
 3004ETHY    C1 2924  24.684   7.120   8.356
 3005ETHY    C1 2925  24.609   7.648   8.458
 3006AUSL   AUS 2926  23.889   3.796   7.911
 3007AUSL   AUS 2927  24.306   3.865   7.766
 3008AUL    AUL 2928  24.192   3.581   7.992
 3009THSLK    S 2929  23.845   3.541   7.990
 3010ETHY    C1 2930  23.685   3.137   8.128
 3011ETHY    C1 2931  23.571   2.656   8.341
 3012ETHY    C1 2932  23.546   2.195   8.605
 3013ETHY    C1 2933  23.605   1.765   8.915
 3014ETHY    C1 2934  23.746   1.373   9.263
 3015THSLK    S 2935  24.421   3.676   7.908
 3016ETHY    C1 2936  24.537   3.260   8.052
 3017ETHY    C1 2937  24.751   2.807   8.248
 3018ETHY    C1 2938  25.043   2.419   8.467
 3019ETHY    C1 2939  25.402   2.104   8.705
 3020ETHY    C1 2940  25.819   1.867   8.958
 3021AUSL   AUS 2941  23.737   3.702   7.665
 3022AUSL   AUS 2942  23.624   3.959   8.012
 3023AUL    AUL 2943  23.586   3.581   7.992
 3024THSLK    S 2944  23.684   3.462   7.745
 3025ETHY    C1 2945  23.439   3.081   7.801
 3026ETHY    C1 2946  23.226   2.596   7.897
 3027ETHY    C1 2947  23.111   2.093   8.025
 3028ETHY    C1 2948  23.092   1.584   8.186
 3029ETHY    C1 2949  23.166   1.081   8.374
 3030THSLK    S 2950  23.446   3.791   8.133
 3031ETHY    C1 2951  23.158   3.473   8.289
 3032ETHY    C1 2952  22.858   3.113   8.552
 3033ETHY    C1 2953  22.615   2.787   8.896
 3034ETHY    C1 2954  22.431   2.504   9.309
 3035ETHY    C1 2955  22.307   2.270   9.783
 3036AUSL   AUS 2956  24.041   3.702   7.665
 3037AUSL   AUS 2957  23.737   3.702   7.338
 3038AUL    AUL 2958  23.889   3.394   7.502
 3039THSLK    S 2959  23.686   3.459   7.266
 3040ETHY    C1 2960  23.442   3.077   7.215
 3041ETHY    C1 2961  23.229   2.593   7.117
 3042ETHY    C1 2962  23.113   2.091   6.984
 3043ETHY    C1 2963  23.094   1.582   6.825
 3044ETHY    C1 2964  23.170   1.077   6.642
 3045THSLK    S 2965  23.998   3.446   7.749
 3046ETHY    C1 2966  23.888   3.010   7.821
 3047ETHY    C1 2967  23.845   2.484   7.928
 3048ETHY    C1 2968  23.902   1.972   8.059
 3049ETHY    C1 2969  24.055   1.484   8.213
 3050ETHY    C1 2970  24.297   1.031   8.388
 3051AUSL   AUS 2971  23.889   4.956   7.093
 3052AUSL   AUS 2972  24.306   4.886   7.237
 3053AUL    AUL 2973  24.192   5.170   7.011
 3054THSLK    S 2974  23.933   5.186   6.975
 3055ETHY    C1 2975  24.093   5.490   6.674
 3056ETHY    C1 2976  24.207   5.895   6.339
 3057ETHY    C1 2977  24.232   6.338   6.045
 3058ETHY    C1 2978  24.173   6.807   5.798
 3059ETHY    C1 2979  24.032   7.294   5.604
 3060THSLK    S 2980  24.493   5.007   7.085
 3061ETHY    C1 2981  24.867   5.163   6.876
 3062ETHY    C1 2982  25.265   5.427   6.629
 3063ETHY    C1 2983  25.598   5.771   6.395
 3064ETHY    C1 2984  25.860   6.183   6.184
 3065ETHY    C1 2985  26.051   6.657   5.998
 3066AUSL   AUS 2986  23.737   5.049   7.338
 3067AUSL   AUS 2987  23.624   4.792   6.992
 3068AUL    AUL 2988  23.586   5.170   7.011
 3069THSLK    S 2989  23.780   5.300   7.237
 3070ETHY    C1 2990  23.890   5.711   7.074
 3071ETHY    C1 2991  23.933   6.217   6.896
 3072ETHY    C1 2992  23.876   6.725   6.745
 3073ETHY    C1 2993  23.723   7.222   6.627
 3074ETHY    C1 2994  23.481   7.701   6.545
 3075THSLK    S 2995  23.510   4.927   6.802
 3076ETHY    C1 2996  23.444   5.099   6.385
 3077ETHY    C1 2997  23.301   5.351   5.932
 3078ETHY    C1 2998  23.092   5.650   5.544
 3079ETHY    C1 2999  22.826   5.988   5.230
 3080ETHY    C1 3000  22.510   6.361   4.993
 3081AUSL   AUS 3001  23.889   3.796   7.093
 3082AUSL   AUS 3002  23.473   3.865   7.237
 3083AUL    AUL 3003  23.586   3.581   7.011
 3084THSLK    S 3004  23.289   3.715   7.128
 3085ETHY    C1 3005  22.917   3.454   7.085
 3086ETHY    C1 3006  22.518   3.116   6.958
 3087ETHY    C1 3007  22.183   2.757   6.753
 3088ETHY    C1 3008  21.921   2.383   6.478
 3089ETHY    C1 3009  21.734   2.000   6.142
 3090THSLK    S 3010  23.849   3.537   7.019
 3091ETHY    C1 3011  23.692   3.131   6.885
 3092ETHY    C1 3012  23.577   2.651   6.671
 3093ETHY    C1 3013  23.550   2.192   6.404
 3094ETHY    C1 3014  23.610   1.761   6.094
 3095ETHY    C1 3015  23.754   1.366   5.751
 3096AUSL   AUS 3016  24.041   3.702   7.338
 3097AUSL   AUS 3017  24.154   3.959   6.992
 3098AUL    AUL 3018  24.192   3.581   7.011
 3099THSLK    S 3019  24.000   3.445   7.262
 3100ETHY    C1 3020  23.891   3.007   7.195
 3101ETHY    C1 3021  23.848   2.481   7.086
 3102ETHY    C1 3022  23.904   1.970   6.951
 3103ETHY    C1 3023  24.057   1.482   6.798
 3104ETHY    C1 3024  24.301   1.028   6.629
 3105THSLK    S 3025  24.274   3.769   6.853
 3106ETHY    C1 3026  24.343   3.383   6.621
 3107ETHY    C1 3027  24.485   2.975   6.300
 3108ETHY    C1 3028  24.692   2.639   5.942
 3109ETHY    C1 3029  24.958   2.382   5.559
 3110ETHY    C1 3030  25.278   2.204   5.158
 3111AUC    AUC 3031  30.859  20.429   7.502
 3112AUC    AUC 3032  31.105  20.429   7.350
 3113AUC    AUC 3033  31.105  20.429   7.653
 3114AUC    AUC 3034  30.614  20.429   7.350
 3115AUC    AUC 3035  30.614  20.429   7.653
 3116AUC    AUC 3036  30.707  20.674   7.502
 3117AUC    AUC 3037  31.011  20.674   7.502
 3118AUC    AUC 3038  30.707  20.183   7.502
 3119AUC    AUC 3039  31.011  20.183   7.502
 3120AUC    AUC 3040  30.859  20.277   7.747
 3121AUC    AUC 3041  30.859  20.580   7.747
 3122AUC    AUC 3042  30.859  20.277   7.256
 3123AUC    AUC 3043  30.859  20.580   7.256
 3124AUC    AUC 3044  31.350  20.429   7.198
 3125AUC    AUC 3045  31.350  20.429   7.502
 3126AUC    AUC 3046  31.350  20.429   7.805
 3127AUC    AUC 3047  30.368  20.429   7.198
 3128AUC    AUC 3048  30.368  20.429   7.502
 3129AUC    AUC 3049  30.368  20.429   7.805
 3130AUC    AUC 3050  30.556  20.919   7.502
 3131AUC    AUC 3051  30.859  20.919   7.502
 3132AUC    AUC 3052  31.162  20.919   7.502
 3133AUC    AUC 3053  30.556  19.938   7.502
 3134AUC    AUC 3054  30.859  19.938   7.502
 3135AUC    AUC 3055  31.162  19.938   7.502
 3136AUC    AUC 3056  30.859  20.125   7.992
 3137AUC    AUC 3057  30.859  20.429   7.992
 3138AUC    AUC 3058  30.859  20.732   7.992
 3139AUC    AUC 3059  30.859  20.125   7.011
 3140AUC    AUC 3060  30.859  20.429   7.011
 3141AUC    AUC 3061  30.859  20.732   7.011
 3142AUC    AUC 3062  31.105  20.277   7.899
 3143AUC    AUC 3063  31.105  20.580   7.899
 3144AUC    AUC 3064  31.105  20.277   7.105
 3145AUC    AUC 3065  31.105  20.580   7.105
 3146AUC    AUC 3066  30.614  20.277   7.899
 3147AUC    AUC 3067  30.614  20.580   7.899
 3148AUC    AUC 3068  30.614  20.277   7.105
 3149AUC    AUC 3069  30.614  20.580   7.105
 3150AUC    AUC 3070  31.256  20.674   7.350
 3151AUC    AUC 3071  31.256  20.674   7.653
 3152AUC    AUC 3072  30.462  20.674   7.350
 3153AUC    AUC 3073  30.462  20.674   7.653
 3154AUC    AUC 3074  31.256  20.183   7.350
 3155AUC    AUC 3075  31.256  20.183   7.653
 3156AUC    AUC 3076  30.462  20.183   7.350
 3157AUC    AUC 3077  30.462  20.183   7.653
 3158AUC    AUC 3078  30.707  20.826   7.747
 3159AUC    AUC 3079  31.011  20.826   7.747
 3160AUC    AUC 3080  30.707  20.031   7.747
 3161AUC    AUC 3081  31.011  20.031   7.747
 3162AUC    AUC 3082  30.707  20.826   7.256
 3163AUC    AUC 3083  31.011  20.826   7.256
 3164AUC    AUC 3084  30.707  20.031   7.256
 3165AUC    AUC 3085  31.011  20.031   7.256
 3166AUSL   AUS 3086  31.268  20.429   8.082
 3167AUSL   AUS 3087  31.124  20.012   8.012
 3168AUL    AUL 3088  31.350  20.125   8.296
 3169THSLK    S 3089  31.238  19.824   8.156
 3170ETHY    C1 3090  31.304  19.439   8.391
 3171ETHY    C1 3091  31.447  19.031   8.710
 3172ETHY    C1 3092  31.656  18.695   9.066
 3173ETHY    C1 3093  31.922  18.437   9.450
 3174ETHY    C1 3094  32.238  18.261   9.855
 3175THSLK    S 3095  31.364  20.379   8.326
 3176ETHY    C1 3096  31.580  20.193   8.681
 3177ETHY    C1 3097  31.855  20.058   9.124
 3178ETHY    C1 3098  32.136  20.028   9.575
 3179ETHY    C1 3099  32.414  20.097  10.025
 3180ETHY    C1 3100  32.683  20.265  10.466
 3181AUSL   AUS 3101  31.023  20.277   8.175
 3182AUSL   AUS 3102  30.696  20.580   8.175
 3183AUL    AUL 3103  30.859  20.429   8.483
 3184THSLK    S 3104  31.101  20.224   8.417
 3185ETHY    C1 3105  31.178  19.974   8.790
 3186ETHY    C1 3106  31.294  19.757   9.269
 3187ETHY    C1 3107  31.431  19.641   9.769
 3188ETHY    C1 3108  31.581  19.623  10.281
 3189ETHY    C1 3109  31.740  19.704  10.794
 3190THSLK    S 3110  30.609  20.537   8.431
 3191ETHY    C1 3111  30.527  20.425   8.864
 3192ETHY    C1 3112  30.413  20.379   9.388
 3193ETHY    C1 3113  30.281  20.437   9.901
 3194ETHY    C1 3114  30.130  20.590  10.389
 3195ETHY    C1 3115  29.964  20.834  10.844
 3196AUSL   AUS 3116  31.023  20.580   8.175
 3197AUSL   AUS 3117  31.369  20.693   7.918
 3198AUL    AUL 3118  31.350  20.732   8.296
 3199THSLK    S 3119  31.110  20.634   8.414
 3200ETHY    C1 3120  31.191  20.885   8.786
 3201ETHY    C1 3121  31.305  21.101   9.265
 3202ETHY    C1 3122  31.438  21.217   9.767
 3203ETHY    C1 3123  31.588  21.235  10.279
 3204ETHY    C1 3124  31.754  21.155  10.789
 3205THSLK    S 3125  31.543  20.795   8.080
 3206ETHY    C1 3126  31.907  20.805   8.354
 3207ETHY    C1 3127  32.323  20.907   8.680
 3208ETHY    C1 3128  32.703  21.106   8.995
 3209ETHY    C1 3129  33.038  21.393   9.296
 3210ETHY    C1 3130  33.319  21.761   9.577
 3211AUSL   AUS 3131  31.268  20.429   6.922
 3212AUSL   AUS 3132  31.124  20.845   6.992
 3213AUL    AUL 3133  31.350  20.732   6.707
 3214THSLK    S 3134  31.371  20.379   6.681
 3215ETHY    C1 3135  31.592  20.193   6.329
 3216ETHY    C1 3136  31.865  20.058   5.885
 3217ETHY    C1 3137  32.143  20.028   5.432
 3218ETHY    C1 3138  32.421  20.097   4.982
 3219ETHY    C1 3139  32.695  20.265   4.545
 3220THSLK    S 3140  31.302  20.960   6.825
 3221ETHY    C1 3141  31.590  21.065   6.488
 3222ETHY    C1 3142  31.890  21.269   6.090
 3223ETHY    C1 3143  32.133  21.557   5.714
 3224ETHY    C1 3144  32.317  21.921   5.371
 3225ETHY    C1 3145  32.441  22.352   5.065
 3226AUSL   AUS 3146  31.023  20.277   6.828
 3227AUSL   AUS 3147  31.369  20.164   7.085
 3228AUL    AUL 3148  31.350  20.125   6.707
 3229THSLK    S 3149  31.506  19.972   6.944
 3230ETHY    C1 3150  31.714  19.629   6.729
 3231ETHY    C1 3151  32.015  19.287   6.442
 3232ETHY    C1 3152  32.366  19.034   6.133
 3233ETHY    C1 3153  32.760  18.872   5.812
 3234ETHY    C1 3154  33.189  18.801   5.486
 3235THSLK    S 3155  31.110  20.223   6.590
 3236ETHY    C1 3156  31.191  19.972   6.217
 3237ETHY    C1 3157  31.305  19.756   5.738
 3238ETHY    C1 3158  31.438  19.640   5.236
 3239ETHY    C1 3159  31.588  19.622   4.725
 3240ETHY    C1 3160  31.754  19.702   4.214
 3241AUSL   AUS 3161  31.023  20.580   6.828
 3242AUSL   AUS 3162  30.696  20.277   6.828
 3243AUL    AUL 3163  30.859  20.429   6.520
 3244THSLK    S 3164  30.601  20.223   6.592
 3245ETHY    C1 3165  30.464  19.975   6.235
 3246ETHY    C1 3166  30.304  19.761   5.767
 3247ETHY    C1 3167  30.157  19.646   5.269
 3248ETHY    C1 3168  30.030  19.627   4.751
 3249ETHY    C1 3169  29.925  19.703   4.224
 3250THSLK    S 3170  31.126  20.538   6.578
 3251ETHY    C1 3171  31.267  20.423   6.160
 3252ETHY    C1 3172  31.425  20.376   5.647
 3253ETHY    C1 3173  31.568  20.432   5.138
 3254ETHY    C1 3174  31.696  20.586   4.643
 3255ETHY    C1 3175  31.807  20.834   4.174
 3256AUSL   AUS 3176  30.450  20.429   8.082
 3257AUSL   AUS 3177  30.594  20.845   8.012
 3258AUL    AUL 3178  30.368  20.732   8.296
 3259THSLK    S 3179  30.347  20.379   8.322
 3260ETHY    C1 3180  30.126  20.193   8.674
 3261ETHY    C1 3181  29.853  20.058   9.118
 3262ETHY    C1 3182  29.576  20.028   9.571
 3263ETHY    C1 3183  29.298  20.097  10.021
 3264ETHY    C1 3184  29.023  20.265  10.458
 3265THSLK    S 3185  30.474  20.974   8.202
 3266ETHY    C1 3186  30.405  21.143   8.620
 3267ETHY    C1 3187  30.263  21.396   9.073
 3268ETHY    C1 3188  30.057  21.697   9.460
 3269ETHY    C1 3189  29.790  22.036   9.775
 3270ETHY    C1 3190  29.470  22.403  10.013
 3271AUSL   AUS 3191  30.696  20.277   8.175
 3272AUSL   AUS 3192  30.349  20.164   7.918
 3273AUL    AUL 3193  30.368  20.125   8.296
 3274THSLK    S 3194  30.171  20.000   8.029
 3275ETHY    C1 3195  29.803  19.747   8.125
 3276ETHY    C1 3196  29.388  19.468   8.323
 3277ETHY    C1 3197  29.010  19.228   8.611
 3278ETHY    C1 3198  28.676  19.032   8.978
 3279ETHY    C1 3199  28.390  18.886   9.415
 3280THSLK    S 3200  30.593  20.225   8.410
 3281ETHY    C1 3201  30.451  19.978   8.766
 3282ETHY    C1 3202  30.293  19.763   9.233
 3283ETHY    C1 3203  30.150  19.647   9.733
 3284ETHY    C1 3204  30.023  19.629  10.250
 3285ETHY    C1 3205  29.911  19.707  10.775
 3286AUSL   AUS 3206  30.450  20.429   6.922
 3287AUSL   AUS 3207  30.594  20.012   6.992
 3288AUL    AUL 3208  30.368  20.125   6.707
 3289THSLK    S 3209  30.355  20.379   6.677
 3290ETHY    C1 3210  30.138  20.193   6.322
 3291ETHY    C1 3211  29.863  20.058   5.879
 3292ETHY    C1 3212  29.582  20.028   5.429
 3293ETHY    C1 3213  29.304  20.097   4.978
 3294ETHY    C1 3214  29.036  20.265   4.537
 3295THSLK    S 3215  30.422  19.838   6.872
 3296ETHY    C1 3216  30.137  19.517   6.717
 3297ETHY    C1 3217  29.836  19.158   6.453
 3298ETHY    C1 3218  29.591  18.835   6.109
 3299ETHY    C1 3219  29.407  18.552   5.696
 3300ETHY    C1 3220  29.288  18.312   5.223
 3301AUSL   AUS 3221  30.696  20.580   6.828
 3302AUSL   AUS 3222  30.349  20.693   7.085
 3303AUL    AUL 3223  30.368  20.732   6.707
 3304THSLK    S 3224  30.218  20.823   6.893
 3305ETHY    C1 3225  30.012  20.923   6.499
 3306ETHY    C1 3226  29.710  21.087   6.085
 3307ETHY    C1 3227  29.356  21.299   5.748
 3308ETHY    C1 3228  28.963  21.553   5.494
 3309ETHY    C1 3229  28.538  21.846   5.324
 3310THSLK    S 3230  30.617  20.539   6.571
 3311ETHY    C1 3231  30.540  20.427   6.136
 3312ETHY    C1 3232  30.424  20.382   5.612
 3313ETHY    C1 3233  30.288  20.438   5.101
 3314ETHY    C1 3234  30.138  20.592   4.613
 3315ETHY    C1 3235  29.978  20.837   4.156
 3316AUSL   AUS 3236  31.439  20.838   7.502
 3317AUSL   AUS 3237  31.369  20.693   7.085
 3318AUL    AUL 3238  31.653  20.919   7.198
 3319THSLK    S 3239  31.548  20.796   6.930
 3320ETHY    C1 3240  31.915  20.807   6.659
 3321ETHY    C1 3241  32.330  20.909   6.332
 3322ETHY    C1 3242  32.708  21.107   6.014
 3323ETHY    C1 3243  33.042  21.394   5.713
 3324ETHY    C1 3244  33.328  21.764   5.438
 3325THSLK    S 3245  31.707  20.894   7.506
 3326ETHY    C1 3246  32.159  20.955   7.508
 3327ETHY    C1 3247  32.673  21.114   7.507
 3328ETHY    C1 3248  33.141  21.368   7.505
 3329ETHY    C1 3249  33.554  21.705   7.506
 3330ETHY    C1 3250  33.906  22.119   7.509
 3331AUSL   AUS 3251  31.533  20.592   7.350
 3332AUSL   AUS 3252  31.533  20.265   7.653
 3333AUL    AUL 3253  31.841  20.429   7.502
 3334THSLK    S 3254  31.792  20.635   7.348
 3335ETHY    C1 3255  32.237  20.565   7.278
 3336ETHY    C1 3256  32.768  20.572   7.190
 3337ETHY    C1 3257  33.281  20.682   7.101
 3338ETHY    C1 3258  33.766  20.888   7.017
 3339ETHY    C1 3259  34.213  21.185   6.940
 3340THSLK    S 3260  31.765  20.127   7.662
 3341ETHY    C1 3261  32.111  19.838   7.728
 3342ETHY    C1 3262  32.572  19.571   7.809
 3343ETHY    C1 3263  33.069  19.402   7.892
 3344ETHY    C1 3264  33.590  19.330   7.980
 3345ETHY    C1 3265  34.125  19.356   8.071
 3346AUSL   AUS 3266  31.533  20.592   7.653
 3347AUSL   AUS 3267  31.276  20.939   7.766
 3348AUL    AUL 3268  31.653  20.919   7.805
 3349THSLK    S 3269  31.459  21.058   7.926
 3350ETHY    C1 3270  31.831  21.213   8.139
 3351ETHY    C1 3271  32.231  21.478   8.385
 3352ETHY    C1 3272  32.565  21.822   8.615
 3353ETHY    C1 3273  32.827  22.235   8.827
 3354ETHY    C1 3274  33.014  22.707   9.019
 3355THSLK    S 3275  31.791  20.635   7.664
 3356ETHY    C1 3276  32.235  20.565   7.738
 3357ETHY    C1 3277  32.766  20.572   7.825
 3358ETHY    C1 3278  33.280  20.682   7.910
 3359ETHY    C1 3279  33.764  20.888   7.994
 3360ETHY    C1 3280  34.211  21.185   8.078
 3361AUSL   AUS 3281  30.279  20.838   7.502
 3362AUSL   AUS 3282  30.349  20.693   7.918
 3363AUL    AUL 3283  30.065  20.919   7.805
 3364THSLK    S 3284  30.213  20.816   8.109
 3365ETHY    C1 3285  30.004  20.912   8.503
 3366ETHY    C1 3286  29.703  21.078   8.917
 3367ETHY    C1 3287  29.352  21.293   9.254
 3368ETHY    C1 3288  28.958  21.547   9.509
 3369ETHY    C1 3289  28.529  21.834   9.678
 3370THSLK    S 3290  30.063  20.978   7.506
 3371ETHY    C1 3291  29.807  21.356   7.508
 3372ETHY    C1 3292  29.434  21.744   7.507
 3373ETHY    C1 3293  28.998  22.050   7.505
 3374ETHY    C1 3294  28.512  22.268   7.506
 3375ETHY    C1 3295  27.985  22.398   7.509
 3376AUSL   AUS 3296  30.185  20.592   7.350
 3377AUSL   AUS 3297  30.443  20.939   7.237
 3378AUL    AUL 3298  30.065  20.919   7.198
 3379THSLK    S 3299  29.954  20.707   7.303
 3380ETHY    C1 3300  29.607  20.895   7.075
 3381ETHY    C1 3301  29.147  21.087   6.872
 3382ETHY    C1 3302  28.649  21.237   6.758
 3383ETHY    C1 3303  28.128  21.347   6.733
 3384ETHY    C1 3304  27.594  21.417   6.796
 3385THSLK    S 3305  30.327  21.104   7.058
 3386ETHY    C1 3306  30.211  21.420   6.750
 3387ETHY    C1 3307  29.997  21.798   6.432
 3388ETHY    C1 3308  29.705  22.167   6.183
 3389ETHY    C1 3309  29.347  22.520   6.008
 3390ETHY    C1 3310  28.929  22.853   5.909
 3391AUSL   AUS 3311  30.185  20.592   7.653
 3392AUSL   AUS 3312  30.185  20.265   7.350
 3393AUL    AUL 3313  29.877  20.429   7.502
 3394THSLK    S 3314  29.927  20.191   7.390
 3395ETHY    C1 3315  29.483  20.156   7.486
 3396ETHY    C1 3316  28.952  20.075   7.518
 3397ETHY    C1 3317  28.438  19.950   7.458
 3398ETHY    C1 3318  27.954  19.782   7.311
 3399ETHY    C1 3319  27.507  19.575   7.083
 3400THSLK    S 3320  29.952  20.699   7.704
 3401ETHY    C1 3321  29.605  20.883   7.935
 3402ETHY    C1 3322  29.145  21.076   8.137
 3403ETHY    C1 3323  28.648  21.231   8.249
 3404ETHY    C1 3324  28.127  21.341   8.274
 3405ETHY    C1 3325  27.591  21.404   8.213
 3406AUSL   AUS 3326  31.439  20.019   7.502
 3407AUSL   AUS 3327  31.369  20.164   7.918
 3408AUL    AUL 3328  31.653  19.938   7.805
 3409THSLK    S 3329  31.655  19.879   7.506
 3410ETHY    C1 3330  31.911  19.501   7.508
 3411ETHY    C1 3331  32.284  19.113   7.507
 3412ETHY    C1 3332  32.720  18.807   7.505
 3413ETHY    C1 3333  33.206  18.589   7.506
 3414ETHY    C1 3334  33.733  18.459   7.509
 3415THSLK    S 3335  31.501  19.974   8.066
 3416ETHY    C1 3336  31.706  19.631   8.285
 3417ETHY    C1 3337  32.008  19.289   8.570
 3418ETHY    C1 3338  32.362  19.036   8.877
 3419ETHY    C1 3339  32.756  18.873   9.198
 3420ETHY    C1 3340  33.180  18.803   9.529
 3421AUSL   AUS 3341  31.533  20.265   7.350
 3422AUSL   AUS 3342  31.276  19.918   7.237
 3423AUL    AUL 3343  31.653  19.938   7.198
 3424THSLK    S 3344  31.766  20.127   7.350
 3425ETHY    C1 3345  32.114  19.838   7.289
 3426ETHY    C1 3346  32.573  19.571   7.206
 3427ETHY    C1 3347  33.070  19.402   7.118
 3428ETHY    C1 3348  33.592  19.330   7.031
 3429ETHY    C1 3349  34.127  19.356   6.947
 3430THSLK    S 3350  31.395  19.728   7.104
 3431ETHY    C1 3351  31.512  19.311   6.963
 3432ETHY    C1 3352  31.726  18.857   6.765
 3433ETHY    C1 3353  32.016  18.471   6.543
 3434ETHY    C1 3354  32.375  18.156   6.306
 3435ETHY    C1 3355  32.795  17.917   6.058
 3436AUSL   AUS 3356  30.279  20.019   7.502
 3437AUSL   AUS 3357  30.349  20.164   7.085
 3438AUL    AUL 3358  30.065  19.938   7.198
 3439THSLK    S 3359  30.176  19.993   6.973
 3440ETHY    C1 3360  29.811  19.736   6.877
 3441ETHY    C1 3361  29.395  19.459   6.679
 3442ETHY    C1 3362  29.015  19.222   6.392
 3443ETHY    C1 3363  28.681  19.026   6.025
 3444ETHY    C1 3364  28.399  18.874   5.587
 3445THSLK    S 3365  30.011  19.963   7.506
 3446ETHY    C1 3366  29.559  19.902   7.508
 3447ETHY    C1 3367  29.045  19.743   7.507
 3448ETHY    C1 3368  28.577  19.489   7.505
 3449ETHY    C1 3369  28.164  19.152   7.506
 3450ETHY    C1 3370  27.812  18.738   7.509
 3451AUSL   AUS 3371  30.185  20.265   7.653
 3452AUSL   AUS 3372  30.443  19.918   7.766
 3453AUL    AUL 3373  30.065  19.938   7.805
 3454THSLK    S 3374  30.255  19.774   7.880
 3455ETHY    C1 3375  29.881  19.517   7.926
 3456ETHY    C1 3376  29.483  19.177   8.052
 3457ETHY    C1 3377  29.150  18.815   8.255
 3458ETHY    C1 3378  28.888  18.441   8.529
 3459ETHY    C1 3379  28.697  18.063   8.870
 3460THSLK    S 3380  29.926  20.198   7.617
 3461ETHY    C1 3381  29.481  20.168   7.524
 3462ETHY    C1 3382  28.950  20.086   7.490
 3463ETHY    C1 3383  28.437  19.957   7.549
 3464ETHY    C1 3384  27.953  19.789   7.696
 3465ETHY    C1 3385  27.505  19.587   7.928
 3466AUSL   AUS 3386  30.859  21.009   7.911
 3467AUSL   AUS 3387  30.443  20.939   7.766
 3468AUL    AUL 3388  30.556  21.223   7.992
 3469THSLK    S 3389  30.323  21.098   7.950
 3470ETHY    C1 3390  30.206  21.410   8.261
 3471ETHY    C1 3391  29.992  21.790   8.578
 3472ETHY    C1 3392  29.702  22.161   8.824
 3473ETHY    C1 3393  29.344  22.515   9.000
 3474ETHY    C1 3394  28.923  22.843   9.102
 3475THSLK    S 3395  30.899  21.235   8.035
 3476ETHY    C1 3396  31.056  21.537   8.339
 3477ETHY    C1 3397  31.171  21.943   8.672
 3478ETHY    C1 3398  31.198  22.387   8.964
 3479ETHY    C1 3399  31.138  22.856   9.211
 3480ETHY    C1 3400  30.994  23.340   9.410
 3481AUSL   AUS 3401  30.707  21.102   7.665
 3482AUSL   AUS 3402  31.011  21.102   7.338
 3483AUL    AUL 3403  30.859  21.410   7.502
 3484THSLK    S 3404  30.748  21.350   7.774
 3485ETHY    C1 3405  30.857  21.760   7.942
 3486ETHY    C1 3406  30.901  22.267   8.118
 3487ETHY    C1 3407  30.844  22.775   8.265
 3488ETHY    C1 3408  30.691  23.272   8.383
 3489ETHY    C1 3409  30.448  23.749   8.472
 3490THSLK    S 3410  31.064  21.337   7.241
 3491ETHY    C1 3411  31.309  21.693   7.094
 3492ETHY    C1 3412  31.522  22.158   6.927
 3493ETHY    C1 3413  31.637  22.656   6.779
 3494ETHY    C1 3414  31.657  23.175   6.655
 3495ETHY    C1 3415  31.582  23.704   6.558
 3496AUSL   AUS 3416  31.011  21.102   7.665
 3497AUSL   AUS 3417  31.124  20.845   8.012
 3498AUL    AUL 3418  31.162  21.223   7.992
 3499THSLK    S 3419  31.296  20.958   8.184
 3500ETHY    C1 3420  31.581  21.061   8.524
 3501ETHY    C1 3421  31.883  21.265   8.921
 3502ETHY    C1 3422  32.128  21.555   9.294
 3503ETHY    C1 3423  32.312  21.918   9.638
 3504ETHY    C1 3424  32.431  22.348   9.948
 3505THSLK    S 3425  31.062  21.336   7.771
 3506ETHY    C1 3426  31.306  21.690   7.922
 3507ETHY    C1 3427  31.519  22.156   8.087
 3508ETHY    C1 3428  31.635  22.655   8.231
 3509ETHY    C1 3429  31.654  23.173   8.356
 3510ETHY    C1 3430  31.579  23.701   8.458
 3511AUSL   AUS 3431  30.859  19.849   7.911
 3512AUSL   AUS 3432  31.276  19.918   7.766
 3513AUL    AUL 3433  31.162  19.634   7.992
 3514THSLK    S 3434  30.815  19.594   7.990
 3515ETHY    C1 3435  30.655  19.190   8.128
 3516ETHY    C1 3436  30.541  18.709   8.341
 3517ETHY    C1 3437  30.516  18.248   8.605
 3518ETHY    C1 3438  30.575  17.818   8.915
 3519ETHY    C1 3439  30.716  17.426   9.263
 3520THSLK    S 3440  31.391  19.729   7.908
 3521ETHY    C1 3441  31.507  19.313   8.052
 3522ETHY    C1 3442  31.721  18.860   8.248
 3523ETHY    C1 3443  32.013  18.472   8.467
 3524ETHY    C1 3444  32.372  18.157   8.705
 3525ETHY    C1 3445  32.789  17.920   8.958
 3526AUSL   AUS 3446  30.707  19.755   7.665
 3527AUSL   AUS 3447  30.594  20.012   8.012
 3528AUL    AUL 3448  30.556  19.634   7.992
 3529THSLK    S 3449  30.654  19.515   7.745
 3530ETHY    C1 3450  30.409  19.134   7.801
 3531ETHY    C1 3451  30.196  18.649   7.897
 3532ETHY    C1 3452  30.081  18.146   8.025
 3533ETHY    C1 3453  30.062  17.637   8.186
 3534ETHY    C1 3454  30.136  17.134   8.374
 3535THSLK    S 3455  30.416  19.844   8.133
 3536ETHY    C1 3456  30.128  19.526   8.289
 3537ETHY    C1 3457  29.828  19.166   8.552
 3538ETHY    C1 3458  29.585  18.840   8.896
 3539ETHY    C1 3459  29.401  18.557   9.309
 3540ETHY    C1 3460  29.277  18.323   9.783
 3541AUSL   AUS 3461  31.011  19.755   7.665
 3542AUSL   AUS 3462  30.707  19.755   7.338
 3543AUL    AUL 3463  30.859  19.447   7.502
 3544THSLK    S 3464  30.656  19.512   7.266
 3545ETHY    C1 3465  30.412  19.130   7.215
 3546ETHY    C1 3466  30.199  18.646   7.117
 3547ETHY    C1 3467  30.083  18.144   6.984
 3548ETHY    C1 3468  30.064  17.635   6.825
 3549ETHY    C1 3469  30.140  17.130   6.642
 3550THSLK    S 3470  30.968  19.499   7.749
 3551ETHY    C1 3471  30.858  19.063   7.821
 3552ETHY    C1 3472  30.815  18.537   7.928
 3553ETHY    C1 3473  30.872  18.025   8.059
 3554ETHY    C1 3474  31.025  17.537   8.213
 3555ETHY    C1 3475  31.267  17.084   8.388
 3556AUSL   AUS 3476  30.859  21.009   7.093
 3557AUSL   AUS 3477  31.276  20.939   7.237
 3558AUL    AUL 3478  31.162  21.223   7.011
 3559THSLK    S 3479  30.903  21.239   6.975
 3560ETHY    C1 3480  31.063  21.543   6.674
 3561ETHY    C1 3481  31.177  21.948   6.339
 3562ETHY    C1 3482  31.202  22.391   6.045
 3563ETHY    C1 3483  31.143  22.860   5.798
 3564ETHY    C1 3484  31.002  23.347   5.604
 3565THSLK    S 3485  31.463  21.060   7.085
 3566ETHY    C1 3486  31.837  21.216   6.876
 3567ETHY    C1 3487  32.235  21.480   6.629
 3568ETHY    C1 3488  32.568  21.824   6.395
 3569ETHY    C1 3489  32.830  22.236   6.184
 3570ETHY    C1 3490  33.021  22.710   5.998
 3571AUSL   AUS 3491  30.707  21.102   7.338
 3572AUSL   AUS 3492  30.594  20.845   6.992
 3573AUL    AUL 3493  30.556  21.223   7.011
 3574THSLK    S 3494  30.750  21.353   7.237
 3575ETHY    C1 3495  30.860  21.764   7.074
 3576ETHY    C1 3496  30.903  22.270   6.896
 3577ETHY    C1 3497  30.846  22.778   6.745
 3578ETHY    C1 3498  30.693  23.275   6.627
 3579ETHY    C1 3499  30.451  23.754   6.545
 3580THSLK    S 3500  30.480  20.980   6.802
 3581ETHY    C1 3501  30.414  21.152   6.385
 3582ETHY    C1 3502  30.271  21.404   5.932
 3583ETHY    C1 3503  30.062  21.703   5.544
 3584ETHY    C1 3504  29.796  22.041   5.230
 3585ETHY    C1 3505  29.480  22.414   4.993
 3586AUSL   AUS 3506  30.859  19.849   7.093
 3587AUSL   AUS 3507  30.443  19.918   7.237
 3588AUL    AUL 3508  30.556  19.634   7.011
 3589THSLK    S 3509  30.259  19.768   7.128
 3590ETHY    C1 3510  29.887  19.507   7.085
 3591ETHY    C1 3511  29.488  19.169   6.958
 3592ETHY    C1 3512  29.153  18.810   6.753
 3593ETHY    C1 3513  28.891  18.436   6.478
 3594ETHY    C1 3514  28.704  18.053   6.142
 3595THSLK    S 3515  30.819  19.590   7.019
 3596ETHY    C1 3516  30.662  19.184   6.885
 3597ETHY    C1 3517  30.547  18.704   6.671
 3598ETHY    C1 3518  30.520  18.245   6.404
 3599ETHY    C1 3519  30.580  17.814   6.094
 3600ETHY    C1 3520  30.724  17.419   5.751
 3601AUSL   AUS 3521  31.011  19.755   7.338
 3602AUSL   AUS 3522  31.124  20.012   6.992
 3603AUL    AUL 3523  31.162  19.634   7.011
 3604THSLK    S 3524  30.970  19.498   7.262
 3605ETHY    C1 3525  30.861  19.060   7.195
 3606ETHY    C1 3526  30.818  18.534   7.086
 3607ETHY    C1 3527  30.874  18.023   6.951
 3608ETHY    C1 3528  31.027  17.535   6.798
 3609ETHY    C1 3529  31.271  17.081   6.629
 3610THSLK    S 3530  31.244  19.822   6.853
 3611ETHY    C1 3531  31.313  19.436   6.621
 3612ETHY    C1 3532  31.455  19.028   6.300
 3613ETHY    C1 3533  31.662  18.692   5.942
 3614ETHY    C1 3534  31.928  18.435   5.559
 3615ETHY    C1 3535  32.248  18.257   5.158
 3616AUC    AUC 3536  14.106  33.402   7.502
 3617AUC    AUC 3537  14.352  33.402   7.350
 3618AUC    AUC 3538  14.352  33.402   7.653
 3619AUC    AUC 3539  13.861  33.402   7.350
 3620AUC    AUC 3540  13.861  33.402   7.653
 3621AUC    AUC 3541  13.954  33.647   7.502
 3622AUC    AUC 3542  14.258  33.647   7.502
 3623AUC    AUC 3543  13.954  33.156   7.502
 3624AUC    AUC 3544  14.258  33.156   7.502
 3625AUC    AUC 3545  14.106  33.250   7.747
 3626AUC    AUC 3546  14.106  33.553   7.747
 3627AUC    AUC 3547  14.106  33.250   7.256
 3628AUC    AUC 3548  14.106  33.553   7.256
 3629AUC    AUC 3549  14.597  33.402   7.198
 3630AUC    AUC 3550  14.597  33.402   7.502
 3631AUC    AUC 3551  14.597  33.402   7.805
 3632AUC    AUC 3552  13.615  33.402   7.198
 3633AUC    AUC 3553  13.615  33.402   7.502
 3634AUC    AUC 3554  13.615  33.402   7.805
 3635AUC    AUC 3555  13.803  33.892   7.502
 3636AUC    AUC 3556  14.106  33.892   7.502
 3637AUC    AUC 3557  14.409  33.892   7.502
 3638AUC    AUC 3558  13.803  32.911   7.502
 3639AUC    AUC 3559  14.106  32.911   7.502
 3640AUC    AUC 3560  14.409  32.911   7.502
 3641AUC    AUC 3561  14.106  33.098   7.992
 3642AUC    AUC 3562  14.106  33.402   7.992
 3643AUC    AUC 3563  14.106  33.705   7.992
 3644AUC    AUC 3564  14.106  33.098   7.011
 3645AUC    AUC 3565  14.106  33.402   7.011
 3646AUC    AUC 3566  14.106  33.705   7.011
 3647AUC    AUC 3567  14.352  33.250   7.899
 3648AUC    AUC 3568  14.352  33.553   7.899
 3649AUC    AUC 3569  14.352  33.250   7.105
 3650AUC    AUC 3570  14.352  33.553   7.105
 3651AUC    AUC 3571  13.861  33.250   7.899
 3652AUC    AUC 3572  13.861  33.553   7.899
 3653AUC    AUC 3573  13.861  33.250   7.105
 3654AUC    AUC 3574  13.861  33.553   7.105
 3655AUC    AUC 3575  14.503  33.647   7.350
 3656AUC    AUC 3576  14.503  33.647   7.653
 3657AUC    AUC 3577  13.709  33.647   7.350
 3658AUC    AUC 3578  13.709  33.647   7.653
 3659AUC    AUC 3579  14.503  33.156   7.350
 3660AUC    AUC 3580  14.503  33.156   7.653
 3661AUC    AUC 3581  13.709  33.156   7.350
 3662AUC    AUC 3582  13.709  33.156   7.653
 3663AUC    AUC 3583  13.954  33.799   7.747
 3664AUC    AUC 3584  14.258  33.799   7.747
 3665AUC    AUC 3585  13.954  33.004   7.747
 3666AUC    AUC 3586  14.258  33.004   7.747
 3667AUC    AUC 3587  13.954  33.799   7.256
 3668AUC    AUC 3588  14.258  33.799   7.256
 3669AUC    AUC 3589  13.954  33.004   7.256
 3670AUC    AUC 3590  14.258  33.004   7.256
 3671AUSL   AUS 3591  14.515  33.402   8.082
 3672AUSL   AUS 3592  14.371  32.985   8.012
 3673AUL    AUL 3593  14.597  33.098   8.296
 3674THSLK    S 3594  14.485  32.797   8.156
 3675ETHY    C1 3595  14.551  32.412   8.391
 3676ETHY    C1 3596  14.694  32.004   8.710
 3677ETHY    C1 3597  14.903  31.668   9.066
 3678ETHY    C1 3598  15.169  31.410   9.450
 3679ETHY    C1 3599  15.485  31.234   9.855
 3680THSLK    S 3600  14.611  33.352   8.326
 3681ETHY    C1 3601  14.827  33.166   8.681
 3682ETHY    C1 3602  15.102  33.031   9.124
 3683ETHY    C1 3603  15.383  33.001   9.575
 3684ETHY    C1 3604  15.661  33.070  10.025
 3685ETHY    C1 3605  15.930  33.238  10.466
 3686AUSL   AUS 3606  14.270  33.250   8.175
 3687AUSL   AUS 3607  13.943  33.553   8.175
 3688AUL    AUL 3608  14.106  33.402   8.483
 3689THSLK    S 3609  14.348  33.197   8.417
 3690ETHY    C1 3610  14.425  32.947   8.790
 3691ETHY    C1 3611  14.541  32.730   9.269
 3692ETHY    C1 3612  14.678  32.614   9.769
 3693ETHY    C1 3613  14.828  32.596  10.281
 3694ETHY    C1 3614  14.987  32.677  10.794
 3695THSLK    S 3615  13.856  33.510   8.431
 3696ETHY    C1 3616  13.774  33.398   8.864
 3697ETHY    C1 3617  13.660  33.352   9.388
 3698ETHY    C1 3618  13.528  33.410   9.901
 3699ETHY    C1 3619  13.377  33.563  10.389
 3700ETHY    C1 3620  13.211  33.807  10.844
 3701AUSL   AUS 3621  14.270  33.553   8.175
 3702AUSL   AUS 3622  14.616  33.666   7.918
 3703AUL    AUL 3623  14.597  33.705   8.296
 3704THSLK    S 3624  14.357  33.607   8.414
 3705ETHY    C1 3625  14.438  33.858   8.786
 3706ETHY    C1 3626  14.552  34.074   9.265
 3707ETHY    C1 3627  14.685  34.190   9.767
 3708ETHY    C1 3628  14.835  34.208  10.279
 3709ETHY    C1 3629  15.001  34.128  10.789
 3710THSLK    S 3630  14.790  33.768   8.080
 3711ETHY    C1 3631  15.154  33.778   8.354
 3712ETHY    C1 3632  15.570  33.880   8.680
 3713ETHY    C1 3633  15.950  34.079   8.995
 3714ETHY    C1 3634  16.285  34.366   9.296
 3715ETHY    C1 3635  16.566  34.734   9.577
 3716AUSL   AUS 3636  14.515  33.402   6.922
 3717AUSL   AUS 3637  14.371  33.818   6.992
 3718AUL    AUL 3638  14.597  33.705   6.707
 3719THSLK    S 3639  14.618  33.352   6.681
 3720ETHY    C1 3640  14.839  33.166   6.329
 3721ETHY    C1 3641  15.112  33.031   5.885
 3722ETHY    C1 3642  15.390  33.001   5.432
 3723ETHY    C1 3643  15.668  33.070   4.982
 3724ETHY    C1 3644  15.942  33.238   4.545
 3725THSLK    S 3645  14.549  33.933   6.825
 3726ETHY    C1 3646  14.837  34.038   6.488
 3727ETHY    C1 3647  15.137  34.242   6.090
 3728ETHY    C1 3648  15.380  34.530   5.714
 3729ETHY    C1 3649  15.564  34.894   5.371
 3730ETHY    C1 3650  15.688  35.325   5.065
 3731AUSL   AUS 3651  14.270  33.250   6.828
 3732AUSL   AUS 3652  14.616  33.137   7.085
 3733AUL    AUL 3653  14.597  33.098   6.707
 3734THSLK    S 3654  14.753  32.945   6.944
 3735ETHY    C1 3655  14.961  32.602   6.729
 3736ETHY    C1 3656  15.262  32.260   6.442
 3737ETHY    C1 3657  15.613  32.007   6.133
 3738ETHY    C1 3658  16.007  31.845   5.812
 3739ETHY    C1 3659  16.436  31.774   5.486
 3740THSLK    S 3660  14.357  33.196   6.590
 3741ETHY    C1 3661  14.438  32.945   6.217
 3742ETHY    C1 3662  14.552  32.729   5.738
 3743ETHY    C1 3663  14.685  32.613   5.236
 3744ETHY    C1 3664  14.835  32.595   4.725
 3745ETHY    C1 3665  15.001  32.675   4.214
 3746AUSL   AUS 3666  14.270  33.553   6.828
 3747AUSL   AUS 3667  13.943  33.250   6.828
 3748AUL    AUL 3668  14.106  33.402   6.520
 3749THSLK    S 3669  13.848  33.196   6.592
 3750ETHY    C1 3670  13.711  32.948   6.235
 3751ETHY    C1 3671  13.551  32.734   5.767
 3752ETHY    C1 3672  13.404  32.619   5.269
 3753ETHY    C1 3673  13.277  32.600   4.751
 3754ETHY    C1 3674  13.172  32.676   4.224
 3755THSLK    S 3675  14.373  33.511   6.578
 3756ETHY    C1 3676  14.514  33.396   6.160
 3757ETHY    C1 3677  14.672  33.349   5.647
 3758ETHY    C1 3678  14.815  33.405   5.138
 3759ETHY    C1 3679  14.943  33.559   4.643
 3760ETHY    C1 3680  15.054  33.807   4.174
 3761AUSL   AUS 3681  13.697  33.402   8.082
 3762AUSL   AUS 3682  13.841  33.818   8.012
 3763AUL    AUL 3683  13.615  33.705   8.296
 3764THSLK    S 3684  13.594  33.352   8.322
 3765ETHY    C1 3685  13.373  33.166   8.674
 3766ETHY    C1 3686  13.100  33.031   9.118
 3767ETHY    C1 3687  12.823  33.001   9.571
 3768ETHY    C1 3688  12.545  33.070  10.021
 3769ETHY    C1 3689  12.270  33.238  10.458
 3770THSLK    S 3690  13.721  33.947   8.202
 3771ETHY    C1 3691  13.652  34.116   8.620
 3772ETHY    C1 3692  13.510  34.369   9.073
 3773ETHY    C1 3693  13.304  34.670   9.460
 3774ETHY    C1 3694  13.037  35.009   9.775
 3775ETHY    C1 3695  12.717  35.376  10.013
 3776AUSL   AUS 3696  13.943  33.250   8.175
 3777AUSL   AUS 3697  13.596  33.137   7.918
 3778AUL    AUL 3698  13.615  33.098   8.296
 3779THSLK    S 3699  13.418  32.973   8.029
 3780ETHY    C1 3700  13.050  32.720   8.125
 3781ETHY    C1 3701  12.635  32.441   8.323
 3782ETHY    C1 3702  12.257  32.201   8.611
 3783ETHY    C1 3703  11.923  32.005   8.978
 3784ETHY    C1 3704  11.637  31.859   9.415
 3785THSLK    S 3705  13.840  33.198   8.410
 3786ETHY    C1 3706  13.698  32.951   8.766
 3787ETHY    C1 3707  13.540  32.736   9.233
 3788ETHY    C1 3708  13.397  32.620   9.733
 3789ETHY    C1 3709  13.270  32.602  10.250
 3790ETHY    C1 3710  13.158  32.680  10.775
 3791AUSL   AUS 3711  13.697  33.402   6.922
 3792AUSL   AUS 3712  13.841  32.985   6.992
 3793AUL    AUL 3713  13.615  33.098   6.707
 3794THSLK    S 3714  13.602  33.352   6.677
 3795ETHY    C1 3715  13.385  33.166   6.322
 3796ETHY    C1 3716  13.110  33.031   5.879
 3797ETHY    C1 3717  12.829  33.001   5.429
 3798ETHY    C1 3718  12.551  33.070   4.978
 3799ETHY    C1 3719  12.283  33.238   4.537
 3800THSLK    S 3720  13.669  32.811   6.872
 3801ETHY    C1 3721  13.384  32.490   6.717
 3802ETHY    C1 3722  13.083  32.131   6.453
 3803ETHY    C1 3723  12.838  31.808   6.109
 3804ETHY    C1 3724  12.654  31.525   5.696
 3805ETHY    C1 3725  12.535  31.285   5.223
 3806AUSL   AUS 3726  13.943  33.553   6.828
 3807AUSL   AUS 3727  13.596  33.666   7.085
 3808AUL    AUL 3728  13.615  33.705   6.707
 3809THSLK    S 3729  13.465  33.796   6.893
 3810ETHY    C1 3730  13.259  33.896   6.499
 3811ETHY    C1 3731  12.957  34.060   6.085
 3812ETHY    C1 3732  12.603  34.272   5.748
 3813ETHY    C1 3733  12.210  34.526   5.494
 3814ETHY    C1 3734  11.785  34.819   5.324
 3815THSLK    S 3735  13.864  33.512   6.571
 3816ETHY    C1 3736  13.787  33.400   6.136
 3817ETHY    C1 3737  13.671  33.355   5.612
 3818ETHY    C1 3738  13.535  33.411   5.101
 3819ETHY    C1 3739  13.385  33.565   4.613
 3820ETHY    C1 3740  13.225  33.810   4.156
 3821AUSL   AUS 3741  14.686  33.811   7.502
 3822AUSL   AUS 3742  14.616  33.666   7.085
 3823AUL    AUL 3743  14.900  33.892   7.198
 3824THSLK    S 3744  14.795  33.769   6.930
 3825ETHY    C1 3745  15.162  33.780   6.659
 3826ETHY    C1 3746  15.577  33.882   6.332
 3827ETHY    C1 3747  15.955  34.080   6.014
 3828ETHY    C1 3748  16.289  34.367   5.713
 3829ETHY    C1 3749  16.575  34.737   5.438
 3830THSLK    S 3750  14.954  33.867   7.506
 3831ETHY    C1 3751  15.406  33.928   7.508
 3832ETHY    C1 3752  15.920  34.087   7.507
 3833ETHY    C1 3753  16.388  34.341   7.505
 3834ETHY    C1 3754  16.801  34.678   7.506
 3835ETHY    C1 3755  17.153  35.092   7.509
 3836AUSL   AUS 3756  14.780  33.565   7.350
 3837AUSL   AUS 3757  14.780  33.238   7.653
 3838AUL    AUL 3758  15.088  33.402   7.502
 3839THSLK    S 3759  15.039  33.608   7.348
 3840ETHY    C1 3760  15.484  33.538   7.278
 3841ETHY    C1 3761  16.015  33.545   7.190
 3842ETHY    C1 3762  16.528  33.655   7.101
 3843ETHY    C1 3763  17.013  33.861   7.017
 3844ETHY    C1 3764  17.460  34.158   6.940
 3845THSLK    S 3765  15.012  33.100   7.662
 3846ETHY    C1 3766  15.358  32.811   7.728
 3847ETHY    C1 3767  15.819  32.544   7.809
 3848ETHY    C1 3768  16.316  32.375   7.892
 3849ETHY    C1 3769  16.837  32.303   7.980
 3850ETHY    C1 3770  17.372  32.329   8.071
 3851AUSL   AUS 3771  14.780  33.565   7.653
 3852AUSL   AUS 3772  14.523  33.912   7.766
 3853AUL    AUL 3773  14.900  33.892   7.805
 3854THSLK    S 3774  14.706  34.031   7.926
 3855ETHY    C1 3775  15.078  34.186   8.139
 3856ETHY    C1 3776  15.478  34.451   8.385
 3857ETHY    C1 3777  15.812  34.795   8.615
 3858ETHY    C1 3778  16.074  35.208   8.827
 3859ETHY    C1 3779  16.261  35.680   9.019
 3860THSLK    S 3780  15.038  33.608   7.664
 3861ETHY    C1 3781  15.482  33.538   7.738
 3862ETHY    C1 3782  16.013  33.545   7.825
 3863ETHY    C1 3783  16.527  33.655   7.910
 3864ETHY    C1 3784  17.011  33.861   7.994
 3865ETHY    C1 3785  17.458  34.158   8.078
 3866AUSL   AUS 3786  13.526  33.811   7.502
 3867AUSL   AUS 3787  13.596  33.666   7.918
 3868AUL    AUL 3788  13.312  33.892   7.805
 3869THSLK    S 3789  13.460  33.789   8.109
 3870ETHY    C1 3790  13.251  33.885   8.503
 3871ETHY    C1 3791  12.950  34.051   8.917
 3872ETHY    C1 3792  12.599  34.266   9.254
 3873ETHY    C1 3793  12.205  34.520   9.509
 3874ETHY    C1 3794  11.776  34.807   9.678
 3875THSLK    S 3795  13.310  33.951   7.506
 3876ETHY    C1 3796  13.054  34.329   7.508
 3877ETHY    C1 3797  12.681  34.717   7.507
 3878ETHY    C1 3798  12.245  35.023   7.505
 3879ETHY    C1 3799  11.759  35.241   7.506
 3880ETHY    C1 3800  11.232  35.371   7.509
 3881AUSL   AUS 3801  13.432  33.565   7.350
 3882AUSL   AUS 3802  13.690  33.912   7.237
 3883AUL    AUL 3803  13.312  33.892   7.198
 3884THSLK    S 3804  13.201  33.680   7.303
 3885ETHY    C1 3805  12.854  33.868   7.075
 3886ETHY    C1 3806  12.394  34.060   6.872
 3887ETHY    C1 3807  11.896  34.210   6.758
 3888ETHY    C1 3808  11.375  34.320   6.733
 3889ETHY    C1 3809  10.841  34.390   6.796
 3890THSLK    S 3810  13.574  34.077   7.058
 3891ETHY    C1 3811  13.458  34.393   6.750
 3892ETHY    C1 3812  13.244  34.771   6.432
 3893ETHY    C1 3813  12.952  35.140   6.183
 3894ETHY    C1 3814  12.594  35.493   6.008
 3895ETHY    C1 3815  12.176  35.826   5.909
 3896AUSL   AUS 3816  13.432  33.565   7.653
 3897AUSL   AUS 3817  13.432  33.238   7.350
 3898AUL    AUL 3818  13.124  33.402   7.502
 3899THSLK    S 3819  13.174  33.164   7.390
 3900ETHY    C1 3820  12.730  33.129   7.486
 3901ETHY    C1 3821  12.199  33.048   7.518
 3902ETHY    C1 3822  11.685  32.923   7.458
 3903ETHY    C1 3823  11.201  32.755   7.311
 3904ETHY    C1 3824  10.754  32.548   7.083
 3905THSLK    S 3825  13.199  33.672   7.704
 3906ETHY    C1 3826  12.852  33.856   7.935
 3907ETHY    C1 3827  12.392  34.049   8.137
 3908ETHY    C1 3828  11.895  34.204   8.249
 3909ETHY    C1 3829  11.374  34.314   8.274
 3910ETHY    C1 3830  10.838  34.377   8.213
 3911AUSL   AUS 3831  14.686  32.992   7.502
 3912AUSL   AUS 3832  14.616  33.137   7.918
 3913AUL    AUL 3833  14.900  32.911   7.805
 3914THSLK    S 3834  14.902  32.852   7.506
 3915ETHY    C1 3835  15.158  32.474   7.508
 3916ETHY    C1 3836  15.531  32.086   7.507
 3917ETHY    C1 3837  15.967  31.780   7.505
 3918ETHY    C1 3838  16.453  31.562   7.506
 3919ETHY    C1 3839  16.980  31.432   7.509
 3920THSLK    S 3840  14.748  32.947   8.066
 3921ETHY    C1 3841  14.953  32.604   8.285
 3922ETHY    C1 3842  15.255  32.262   8.570
 3923ETHY    C1 3843  15.609  32.009   8.877
 3924ETHY    C1 3844  16.003  31.846   9.198
 3925ETHY    C1 3845  16.427  31.776   9.529
 3926AUSL   AUS 3846  14.780  33.238   7.350
 3927AUSL   AUS 3847  14.523  32.891   7.237
 3928AUL    AUL 3848  14.900  32.911   7.198
 3929THSLK    S 3849  15.013  33.100   7.350
 3930ETHY    C1 3850  15.361  32.811   7.289
 3931ETHY    C1 3851  15.820  32.544   7.206
 3932ETHY    C1 3852  16.317  32.375   7.118
 3933ETHY    C1 3853  16.839  32.303   7.031
 3934ETHY    C1 3854  17.374  32.329   6.947
 3935THSLK    S 3855  14.642  32.701   7.104
 3936ETHY    C1 3856  14.759  32.284   6.963
 3937ETHY    C1 3857  14.973  31.830   6.765
 3938ETHY    C1 3858  15.263  31.444   6.543
 3939ETHY    C1 3859  15.622  31.129   6.306
 3940ETHY    C1 3860  16.042  30.890   6.058
 3941AUSL   AUS 3861  13.526  32.992   7.502
 3942AUSL   AUS 3862  13.596  33.137   7.085
 3943AUL    AUL 3863  13.312  32.911   7.198
 3944THSLK    S 3864  13.423  32.966   6.973
 3945ETHY    C1 3865  13.058  32.709   6.877
 3946ETHY    C1 3866  12.642  32.432   6.679
 3947ETHY    C1 3867  12.262  32.195   6.392
 3948ETHY    C1 3868  11.928  31.999   6.025
 3949ETHY    C1 3869  11.646  31.847   5.587
 3950THSLK    S 3870  13.258  32.936   7.506
 3951ETHY    C1 3871  12.806  32.875   7.508
 3952ETHY    C1 3872  12.292  32.716   7.507
 3953ETHY    C1 3873  11.824  32.462   7.505
 3954ETHY    C1 3874  11.411  32.125   7.506
 3955ETHY    C1 3875  11.059  31.711   7.509
 3956AUSL   AUS 3876  13.432  33.238   7.653
 3957AUSL   AUS 3877  13.690  32.891   7.766
 3958AUL    AUL 3878  13.312  32.911   7.805
 3959THSLK    S 3879  13.502  32.747   7.880
 3960ETHY    C1 3880  13.128  32.490   7.926
 3961ETHY    C1 3881  12.730  32.150   8.052
 3962ETHY    C1 3882  12.397  31.788   8.255
 3963ETHY    C1 3883  12.135  31.414   8.529
 3964ETHY    C1 3884  11.944  31.036   8.870
 3965THSLK    S 3885  13.173  33.171   7.617
 3966ETHY    C1 3886  12.728  33.141   7.524
 3967ETHY    C1 3887  12.197  33.059   7.490
 3968ETHY    C1 3888  11.684  32.930   7.549
 3969ETHY    C1 3889  11.200  32.762   7.696
 3970ETHY    C1 3890  10.752  32.560   7.928
 3971AUSL   AUS 3891  14.106  33.982   7.911
 3972AUSL   AUS 3892  13.690  33.912   7.766
 3973AUL    AUL 3893  13.803  34.196   7.992
 3974THSLK    S 3894  13.570  34.071   7.950
 3975ETHY    C1 3895  13.453  34.383   8.261
 3976ETHY    C1 3896  13.239  34.763   8.578
 3977ETHY    C1 3897  12.949  35.134   8.824
 3978ETHY    C1 3898  12.591  35.488   9.000
 3979ETHY    C1 3899  12.170  35.816   9.102
 3980THSLK    S 3900  14.146  34.208   8.035
 3981ETHY    C1 3901  14.303  34.510   8.339
 3982ETHY    C1 3902  14.418  34.916   8.672
 3983ETHY    C1 3903  14.445  35.360   8.964
 3984ETHY    C1 3904  14.385  35.829   9.211
 3985ETHY    C1 3905  14.241  36.313   9.410
 3986AUSL   AUS 3906  13.954  34.075   7.665
 3987AUSL   AUS 3907  14.258  34.075   7.338
 3988AUL    AUL 3908  14.106  34.383   7.502
 3989THSLK    S 3909  13.995  34.323   7.774
 3990ETHY    C1 3910  14.104  34.733   7.942
 3991ETHY    C1 3911  14.148  35.240   8.118
 3992ETHY    C1 3912  14.091  35.748   8.265
 3993ETHY    C1 3913  13.938  36.245   8.383
 3994ETHY    C1 3914  13.695  36.722   8.472
 3995THSLK    S 3915  14.311  34.310   7.241
 3996ETHY    C1 3916  14.556  34.666   7.094
 3997ETHY    C1 3917  14.769  35.131   6.927
 3998ETHY    C1 3918  14.884  35.629   6.779
 3999ETHY    C1 3919  14.904  36.148   6.655
 4000ETHY    C1 3920  14.829  36.677   6.558
 4001AUSL   AUS 3921  14.258  34.075   7.665
 4002AUSL   AUS 3922  14.371  33.818   8.012
 4003AUL    AUL 3923  14.409  34.196   7.992
 4004THSLK    S 3924  14.543  33.931   8.184
 4005ETHY    C1 3925  14.828  34.034   8.524
 4006ETHY    C1 3926  15.130  34.238   8.921
 4007ETHY    C1 3927  15.375  34.528   9.294
 4008ETHY    C1 3928  15.559  34.891   9.638
 4009ETHY    C1 3929  15.678  35.321   9.948
 4010THSLK    S 3930  14.309  34.309   7.771
 4011ETHY    C1 3931  14.553  34.663   7.922
 4012ETHY    C1 3932  14.766  35.129   8.087
 4013ETHY    C1 3933  14.882  35.628   8.231
 4014ETHY    C1 3934  14.901  36.146   8.356
 4015ETHY    C1 3935  14.826  36.674   8.458
 4016AUSL   AUS 3936  14.106  32.822   7.911
 4017AUSL   AUS 3937  14.523  32.891   7.766
 4018AUL    AUL 3938  14.409  32.607   7.992
 4019THSLK    S 3939  14.062  32.567   7.990
 4020ETHY    C1 3940  13.902  32.163   8.128
 4021ETHY    C1 3941  13.788  31.682   8.341
 4022ETHY    C1 3942  13.763  31.221   8.605
 4023ETHY    C1 3943  13.822  30.791   8.915
 4024ETHY    C1 3944  13.963  30.399   9.263
 4025THSLK    S 3945  14.638  32.702   7.908
 4026ETHY    C1 3946  14.754  32.286   8.052
 4027ETHY    C1 3947  14.968  31.833   8.248
 4028ETHY    C1 3948  15.260  31.445   8.467
 4029ETHY    C1 3949  15.619  31.130   8.705
 4030ETHY    C1 3950  16.036  30.893   8.958
 4031AUSL   AUS 3951  13.954  32.728   7.665
 4032AUSL   AUS 3952  13.841  32.985   8.012
 4033AUL    AUL 3953  13.803  32.607   7.992
 4034THSLK    S 3954  13.901  32.488   7.745
 4035ETHY    C1 3955  13.656  32.107   7.801
 4036ETHY    C1 3956  13.443  31.622   7.897
 4037ETHY    C1 3957  13.328  31.119   8.025
 4038ETHY    C1 3958  13.309  30.610   8.186
 4039ETHY    C1 3959  13.383  30.107   8.374
 4040THSLK    S 3960  13.663  32.817   8.133
 4041ETHY    C1 3961  13.375  32.499   8.289
 4042ETHY    C1 3962  13.075  32.139   8.552
 4043ETHY    C1 3963  12.832  31.813   8.896
 4044ETHY    C1 3964  12.648  31.530   9.309
 4045ETHY    C1 3965  12.524  31.296   9.783
 4046AUSL   AUS 3966  14.258  32.728   7.665
 4047AUSL   AUS 3967  13.954  32.728   7.338
 4048AUL    AUL 3968  14.106  32.420   7.502
 4049THSLK    S 3969  13.903  32.485   7.266
 4050ETHY    C1 3970  13.659  32.103   7.215
 4051ETHY    C1 3971  13.446  31.619   7.117
 4052ETHY    C1 3972  13.330  31.117   6.984
 4053ETHY    C1 3973  13.311  30.608   6.825
 4054ETHY    C1 3974  13.387  30.103   6.642
 4055THSLK    S 3975  14.215  32.472   7.749
 4056ETHY    C1 3976  14.105  32.036   7.821
 4057ETHY    C1 3977  14.062  31.510   7.928
 4058ETHY    C1 3978  14.119  30.998   8.059
 4059ETHY    C1 3979  14.272  30.510   8.213
 4060ETHY    C1 3980  14.514  30.057   8.388
 4061AUSL   AUS 3981  14.106  33.982   7.093
 4062AUSL   AUS 3982  14.523  33.912   7.237
 4063AUL    AUL 3983  14.409  34.196   7.011
 4064THSLK    S 3984  14.150  34.212   6.975
 4065ETHY    C1 3985  14.310  34.516   6.674
 4066ETHY    C1 3986  14.424  34.921   6.339
 4067ETHY    C1 3987  14.449  35.364   6.045
 4068ETHY    C1 3988  14.390  35.833   5.798
 4069ETHY    C1 3989  14.249  36.320   5.604
 4070THSLK    S 3990  14.710  34.033   7.085
 4071ETHY    C1 3991  15.084  34.189   6.876
 4072ETHY    C1 3992  15.482  34.453   6.629
 4073ETHY    C1 3993  15.815  34.797   6.395
 4074ETHY    C1 3994  16.077  35.209   6.184
 4075ETHY    C1 3995  16.268  35.683   5.998
 4076AUSL   AUS 3996  13.954  34.075   7.338
 4077AUSL   AUS 3997  13.841  33.818   6.992
 4078AUL    AUL 3998  13.803  34.196   7.011
 4079THSLK    S 3999  13.997  34.326   7.237
 4080ETHY    C1 4000  14.107  34.737   7.074
 4081ETHY    C1 4001  14.150  35.243   6.896
 4082ETHY    C1 4002  14.093  35.751   6.745
 4083ETHY    C1 4003  13.940  36.248   6.627
 4084ETHY    C1 4004  13.698  36.727   6.545
 4085THSLK    S 4005  13.727  33.953   6.802
 4086ETHY    C1 4006  13.661  34.125   6.385
 4087ETHY    C1 4007  13.518  34.377   5.932
 4088ETHY    C1 4008  13.309  34.676   5.544
 4089ETHY    C1 4009  13.043  35.014   5.230
 4090ETHY    C1 4010  12.727  35.387   4.993
 4091AUSL   AUS 4011  14.106  32.822   7.093
 4092AUSL   AUS 4012  13.690  32.891   7.237
 4093AUL    AUL 4013  13.803  32.607   7.011
 4094THSLK    S 4014  13.506  32.741   7.128
 4095ETHY    C1 4015  13.134  32.480   7.085
 4096ETHY    C1 4016  12.735  32.142   6.958
 4097ETHY    C1 4017  12.400  31.783   6.753
 4098ETHY    C1 4018  12.138  31.409   6.478
 4099ETHY    C1 4019  11.951  31.026   6.142
 4100THSLK    S 4020  14.066  32.563   7.019
 4101ETHY    C1 4021  13.909  32.157   6.885
 4102ETHY    C1 4022  13.794  31.677   6.671
 4103ETHY    C1 4023  13.767  31.218   6.404
 4104ETHY    C1 4024  13.827  30.787   6.094
 4105ETHY    C1 4025  13.971  30.392   5.751
 4106AUSL   AUS 4026  14.258  32.728   7.338
 4107AUSL   AUS 4027  14.371  32.985   6.992
 4108AUL    AUL 4028  14.409  32.607   7.011
 4109THSLK    S 4029  14.217  32.471   7.262
 4110ETHY    C1 4030  14.108  32.033   7.195
 4111ETHY    C1 4031  14.065  31.507   7.086
 4112ETHY    C1 4032  14.121  30.996   6.951
 4113ETHY    C1 4033  14.274  30.508   6.798
 4114ETHY    C1 4034  14.518  30.054   6.629
 4115THSLK    S 4035  14.491  32.795   6.853
 4116ETHY    C1 4036  14.560  32.409   6.621
 4117ETHY    C1 4037  14.702  32.001   6.300
 4118ETHY    C1 4038  14.909  31.665   5.942
 4119ETHY    C1 4039  15.175  31.408   5.559
 4120ETHY    C1 4040  15.495  31.230   5.158
 4121AUC    AUC 4041  15.618  15.137   7.502
 4122AUC    AUC 4042  15.864  15.137   7.350
 4123AUC    AUC 4043  15.864  15.137   7.653
 4124AUC    AUC 4044  15.373  15.137   7.350
 4125AUC    AUC 4045  15.373  15.137   7.653
 4126AUC    AUC 4046  15.466  15.382   7.502
 4127AUC    AUC 4047  15.770  15.382   7.502
 4128AUC    AUC 4048  15.466  14.891   7.502
 4129AUC    AUC 4049  15.770  14.891   7.502
 4130AUC    AUC 4050  15.618  14.985   7.747
 4131AUC    AUC 4051  15.618  15.288   7.747
 4132AUC    AUC 4052  15.618  14.985   7.256
 4133AUC    AUC 4053  15.618  15.288   7.256
 4134AUC    AUC 4054  16.109  15.137   7.198
 4135AUC    AUC 4055  16.109  15.137   7.502
 4136AUC    AUC 4056  16.109  15.137   7.805
 4137AUC    AUC 4057  15.127  15.137   7.198
 4138AUC    AUC 4058  15.127  15.137   7.502
 4139AUC    AUC 4059  15.127  15.137   7.805
 4140AUC    AUC 4060  15.315  15.627   7.502
 4141AUC    AUC 4061  15.618  15.627   7.502
 4142AUC    AUC 4062  15.921  15.627   7.502
 4143AUC    AUC 4063  15.315  14.646   7.502
 4144AUC    AUC 4064  15.618  14.646   7.502
 4145AUC    AUC 4065  15.921  14.646   7.502
 4146AUC    AUC 4066  15.618  14.833   7.992
 4147AUC    AUC 4067  15.618  15.137   7.992
 4148AUC    AUC 4068  15.618  15.440   7.992
 4149AUC    AUC 4069  15.618  14.833   7.011
 4150AUC    AUC 4070  15.618  15.137   7.011
 4151AUC    AUC 4071  15.618  15.440   7.011
 4152AUC    AUC 4072  15.864  14.985   7.899
 4153AUC    AUC 4073  15.864  15.288   7.899
 4154AUC    AUC 4074  15.864  14.985   7.105
 4155AUC    AUC 4075  15.864  15.288   7.105
 4156AUC    AUC 4076  15.373  14.985   7.899
 4157AUC    AUC 4077  15.373  15.288   7.899
 4158AUC    AUC 4078  15.373  14.985   7.105
 4159AUC    AUC 4079  15.373  15.288   7.105
 4160AUC    AUC 4080  16.015  15.382   7.350
 4161AUC    AUC 4081  16.015  15.382   7.653
 4162AUC    AUC 4082  15.221  15.382   7.350
 4163AUC    AUC 4083  15.221  15.382   7.653
 4164AUC    AUC 4084  16.015  14.891   7.350
 4165AUC    AUC 4085  16.015  14.891   7.653
 4166AUC    AUC 4086  15.221  14.891   7.350
 4167AUC    AUC 4087  15.221  14.891   7.653
 4168AUC    AUC 4088  15.466  15.534   7.747
 4169AUC    AUC 4089  15.770  15.534   7.747
 4170AUC    AUC 4090  15.466  14.739   7.747
 4171AUC    AUC 4091  15.770  14.739   7.747
 4172AUC    AUC 4092  15.466  15.534   7.256
 4173AUC    AUC 4093  15.770  15.534   7.256
 4174AUC    AUC 4094  15.466  14.739   7.256
 4175AUC    AUC 4095  15.770  14.739   7.256
 4176AUSL   AUS 4096  16.027  15.137   8.082
 4177AUSL   AUS 4097  15.883  14.720   8.012
 4178AUL    AUL 4098  16.109  14.833   8.296
 4179THSLK    S 4099  15.997  14.532   8.156
 4180ETHY    C1 4100  16.063  14.147   8.391
 4181ETHY    C1 4101  16.206  13.739   8.710
 4182ETHY    C1 4102  16.415  13.403   9.066
 4183ETHY    C1 4103  16.681  13.145   9.450
 4184ETHY    C1 4104  16.997  12.969   9.855
 4185THSLK    S 4105  16.123  15.087   8.326
 4186ETHY    C1 4106  16.339  14.901   8.681
 4187ETHY    C1 4107  16.614  14.766   9.124
 4188ETHY    C1 4108  16.895  14.736   9.575
 4189ETHY    C1 4109  17.173  14.805  10.025
 4190ETHY    C1 4110  17.442  14.973  10.466
 4191AUSL   AUS 4111  15.782  14.985   8.175
 4192AUSL   AUS 4112  15.455  15.288   8.175
 4193AUL    AUL 4113  15.618  15.137   8.483
 4194THSLK    S 4114  15.860  14.932   8.417
 4195ETHY    C1 4115  15.937  14.682   8.790
 4196ETHY    C1 4116  16.053  14.465   9.269
 4197ETHY    C1 4117  16.190  14.349   9.769
 4198ETHY    C1 4118  16.340  14.331  10.281
 4199ETHY    C1 4119  16.499  14.412  10.794
 4200THSLK    S 4120  15.368  15.245   8.431
 4201ETHY    C1 4121  15.286  15.133   8.864
 4202ETHY    C1 4122  15.172  15.087   9.388
 4203ETHY    C1 4123  15.040  15.145   9.901
 4204ETHY    C1 4124  14.889  15.298  10.389
 4205ETHY    C1 4125  14.723  15.542  10.844
 4206AUSL   AUS 4126  15.782  15.288   8.175
 4207AUSL   AUS 4127  16.128  15.401   7.918
 4208AUL    AUL 4128  16.109  15.440   8.296
 4209THSLK    S 4129  15.869  15.342   8.414
 4210ETHY    C1 4130  15.950  15.593   8.786
 4211ETHY    C1 4131  16.064  15.809   9.265
 4212ETHY    C1 4132  16.197  15.925   9.767
 4213ETHY    C1 4133  16.347  15.943  10.279
 4214ETHY    C1 4134  16.513  15.863  10.789
 4215THSLK    S 4135  16.302  15.503   8.080
 4216ETHY    C1 4136  16.666  15.513   8.354
 4217ETHY    C1 4137  17.082  15.615   8.680
 4218ETHY    C1 4138  17.462  15.814   8.995
 4219ETHY    C1 4139  17.797  16.101   9.296
 4220ETHY    C1 4140  18.078  16.469   9.577
 4221AUSL   AUS 4141  16.027  15.137   6.922
 4222AUSL   AUS 4142  15.883  15.553   6.992
 4223AUL    AUL 4143  16.109  15.440   6.707
 4224THSLK    S 4144  16.130  15.087   6.681
 4225ETHY    C1 4145  16.351  14.901   6.329
 4226ETHY    C1 4146  16.624  14.766   5.885
 4227ETHY    C1 4147  16.902  14.736   5.432
 4228ETHY    C1 4148  17.180  14.805   4.982
 4229ETHY    C1 4149  17.454  14.973   4.545
 4230THSLK    S 4150  16.061  15.668   6.825
 4231ETHY    C1 4151  16.349  15.773   6.488
 4232ETHY    C1 4152  16.649  15.977   6.090
 4233ETHY    C1 4153  16.892  16.265   5.714
 4234ETHY    C1 4154  17.076  16.629   5.371
 4235ETHY    C1 4155  17.200  17.060   5.065
 4236AUSL   AUS 4156  15.782  14.985   6.828
 4237AUSL   AUS 4157  16.128  14.872   7.085
 4238AUL    AUL 4158  16.109  14.833   6.707
 4239THSLK    S 4159  16.265  14.680   6.944
 4240ETHY    C1 4160  16.473  14.337   6.729
 4241ETHY    C1 4161  16.774  13.995   6.442
 4242ETHY    C1 4162  17.125  13.742   6.133
 4243ETHY    C1 4163  17.519  13.580   5.812
 4244ETHY    C1 4164  17.948  13.509   5.486
 4245THSLK    S 4165  15.869  14.931   6.590
 4246ETHY    C1 4166  15.950  14.680   6.217
 4247ETHY    C1 4167  16.064  14.464   5.738
 4248ETHY    C1 4168  16.197  14.348   5.236
 4249ETHY    C1 4169  16.347  14.330   4.725
 4250ETHY    C1 4170  16.513  14.410   4.214
 4251AUSL   AUS 4171  15.782  15.288   6.828
 4252AUSL   AUS 4172  15.455  14.985   6.828
 4253AUL    AUL 4173  15.618  15.137   6.520
 4254THSLK    S 4174  15.360  14.931   6.592
 4255ETHY    C1 4175  15.223  14.683   6.235
 4256ETHY    C1 4176  15.063  14.469   5.767
 4257ETHY    C1 4177  14.916  14.354   5.269
 4258ETHY    C1 4178  14.789  14.335   4.751
 4259ETHY    C1 4179  14.684  14.411   4.224
 4260THSLK    S 4180  15.885  15.246   6.578
 4261ETHY    C1 4181  16.026  15.131   6.160
 4262ETHY    C1 4182  16.184  15.084   5.647
 4263ETHY    C1 4183  16.327  15.140   5.138
 4264ETHY    C1 4184  16.455  15.294   4.643
 4265ETHY    C1 4185  16.566  15.542   4.174
 4266AUSL   AUS 4186  15.209  15.137   8.082
 4267AUSL   AUS 4187  15.353  15.553   8.012
 4268AUL    AUL 4188  15.127  15.440   8.296
 4269THSLK    S 4189  15.106  15.087   8.322
 4270ETHY    C1 4190  14.885  14.901   8.674
 4271ETHY    C1 4191  14.612  14.766   9.118
 4272ETHY    C1 4192  14.335  14.736   9.571
 4273ETHY    C1 4193  14.057  14.805  10.021
 4274ETHY    C1 4194  13.782  14.973  10.458
 4275THSLK    S 4195  15.233  15.682   8.202
 4276ETHY    C1 4196  15.164  15.851   8.620
 4277ETHY    C1 4197  15.022  16.104   9.073
 4278ETHY    C1 4198  14.816  16.405   9.460
 4279ETHY    C1 4199  14.549  16.744   9.775
 4280ETHY    C1 4200  14.229  17.111  10.013
 4281AUSL   AUS 4201  15.455  14.985   8.175
 4282AUSL   AUS 4202  15.108  14.872   7.918
 4283AUL    AUL 4203  15.127  14.833   8.296
 4284THSLK    S 4204  14.930  14.708   8.029
 4285ETHY    C1 4205  14.562  14.455   8.125
 4286ETHY    C1 4206  14.147  14.176   8.323
 4287ETHY    C1 4207  13.769  13.936   8.611
 4288ETHY    C1 4208  13.435  13.740   8.978
 4289ETHY    C1 4209  13.149  13.594   9.415
 4290THSLK    S 4210  15.352  14.933   8.410
 4291ETHY    C1 4211  15.210  14.686   8.766
 4292ETHY    C1 4212  15.052  14.471   9.233
 4293ETHY    C1 4213  14.909  14.355   9.733
 4294ETHY    C1 4214  14.782  14.337  10.250
 4295ETHY    C1 4215  14.670  14.415  10.775
 4296AUSL   AUS 4216  15.209  15.137   6.922
 4297AUSL   AUS 4217  15.353  14.720   6.992
 4298AUL    AUL 4218  15.127  14.833   6.707
 4299THSLK    S 4219  15.114  15.087   6.677
 4300ETHY    C1 4220  14.897  14.901   6.322
 4301ETHY    C1 4221  14.622  14.766   5.879
 4302ETHY    C1 4222  14.341  14.736   5.429
 4303ETHY    C1 4223  14.063  14.805   4.978
 4304ETHY    C1 4224  13.795  14.973   4.537
 4305THSLK    S 4225  15.181  14.546   6.872
 4306ETHY    C1 4226  14.896  14.225   6.717
 4307ETHY    C1 4227  14.595  13.866   6.453
 4308ETHY    C1 4228  14.350  13.543   6.109
 4309ETHY    C1 4229  14.166  13.260   5.696
 4310ETHY    C1 4230  14.047  13.020   5.223
 4311AUSL   AUS 4231  15.455  15.288   6.828
 4312AUSL   AUS 4232  15.108  15.401   7.085
 4313AUL    AUL 4233  15.127  15.440   6.707
 4314THSLK    S 4234  14.977  15.531   6.893
 4315ETHY    C1 4235  14.771  15.631   6.499
 4316ETHY    C1 4236  14.469  15.795   6.085
 4317ETHY    C1 4237  14.115  16.007   5.748
 4318ETHY    C1 4238  13.722  16.261   5.494
 4319ETHY    C1 4239  13.297  16.554   5.324
 4320THSLK    S 4240  15.376  15.247   6.571
 4321ETHY    C1 4241  15.299  15.135   6.136
 4322ETHY    C1 4242  15.183  15.090   5.612
 4323ETHY    C1 4243  15.047  15.146   5.101
 4324ETHY    C1 4244  14.897  15.300   4.613
 4325ETHY    C1 4245  14.737  15.545   4.156
 4326AUSL   AUS 4246  16.198  15.546   7.502
 4327AUSL   AUS 4247  16.128  15.401   7.085
 4328AUL    AUL 4248  16.412  15.627   7.198
 4329THSLK    S 4249  16.307  15.504   6.930
 4330ETHY    C1 4250  16.674  15.515   6.659
 4331ETHY    C1 4251  17.089  15.617   6.332
 4332ETHY    C1 4252  17.467  15.815   6.014
 4333ETHY    C1 4253  17.801  16.102   5.713
 4334ETHY    C1 4254  18.087  16.472   5.438
 4335THSLK    S 4255  16.466  15.602   7.506
 4336ETHY    C1 4256  16.918  15.663   7.508
 4337ETHY    C1 4257  17.432  15.822   7.507
 4338ETHY    C1 4258  17.900  16.076   7.505
 4339ETHY    C1 4259  18.313  16.413   7.506
 4340ETHY    C1 4260  18.665  16.827   7.509
 4341AUSL   AUS 4261  16.292  15.300   7.350
 4342AUSL   AUS 4262  16.292  14.973   7.653
 4343AUL    AUL 4263  16.600  15.137   7.502
 4344THSLK    S 4264  16.551  15.343   7.348
 4345ETHY    C1 4265  16.996  15.273   7.278
 4346ETHY    C1 4266  17.527  15.280   7.190
 4347ETHY    C1 4267  18.040  15.390   7.101
 4348ETHY    C1 4268  18.525  15.596   7.017
 4349ETHY    C1 4269  18.972  15.893   6.940
 4350THSLK    S 4270  16.524  14.835   7.662
 4351ETHY    C1 4271  16.870  14.546   7.728
 4352ETHY    C1 4272  17.331  14.279   7.809
 4353ETHY    C1 4273  17.828  14.110   7.892
 4354ETHY    C1 4274  18.349  14.038   7.980
 4355ETHY    C1 4275  18.884  14.064   8.071
 4356AUSL   AUS 4276  16.292  15.300   7.653
 4357AUSL   AUS 4277  16.035  15.647   7.766
 4358AUL    AUL 4278  16.412  15.627   7.805
 4359THSLK    S 4279  16.218  15.766   7.926
 4360ETHY    C1 4280  16.590  15.921   8.139
 4361ETHY    C1 4281  16.990  16.186   8.385
 4362ETHY    C1 4282  17.324  16.530   8.615
 4363ETHY    C1 4283  17.586  16.943   8.827
 4364ETHY    C1 4284  17.773  17.415   9.019
 4365THSLK    S 4285  16.550  15.343   7.664
 4366ETHY    C1 4286  16.994  15.273   7.738
 4367ETHY    C1 4287  17.525  15.280   7.825
 4368ETHY    C1 4288  18.039  15.390   7.910
 4369ETHY    C1 4289  18.523  15.596   7.994
 4370ETHY    C1 4290  18.970  15.893   8.078
 4371AUSL   AUS 4291  15.038  15.546   7.502
 4372AUSL   AUS 4292  15.108  15.401   7.918
 4373AUL    AUL 4293  14.824  15.627   7.805
 4374THSLK    S 4294  14.972  15.524   8.109
 4375ETHY    C1 4295  14.763  15.620   8.503
 4376ETHY    C1 4296  14.462  15.786   8.917
 4377ETHY    C1 4297  14.111  16.001   9.254
 4378ETHY    C1 4298  13.717  16.255   9.509
 4379ETHY    C1 4299  13.288  16.542   9.678
 4380THSLK    S 4300  14.822  15.686   7.506
 4381ETHY    C1 4301  14.566  16.064   7.508
 4382ETHY    C1 4302  14.193  16.452   7.507
 4383ETHY    C1 4303  13.757  16.758   7.505
 4384ETHY    C1 4304  13.271  16.976   7.506
 4385ETHY    C1 4305  12.744  17.106   7.509
 4386AUSL   AUS 4306  14.944  15.300   7.350
 4387AUSL   AUS 4307  15.202  15.647   7.237
 4388AUL    AUL 4308  14.824  15.627   7.198
 4389THSLK    S 4309  14.713  15.415   7.303
 4390ETHY    C1 4310  14.366  15.603   7.075
 4391ETHY    C1 4311  13.906  15.795   6.872
 4392ETHY    C1 4312  13.408  15.945   6.758
 4393ETHY    C1 4313  12.887  16.055   6.733
 4394ETHY    C1 4314  12.353  16.125   6.796
 4395THSLK    S 4315  15.086  15.812   7.058
 4396ETHY    C1 4316  14.970  16.128   6.750
 4397ETHY    C1 4317  14.756  16.506   6.432
 4398ETHY    C1 4318  14.464  16.875   6.183
 4399ETHY    C1 4319  14.106  17.228   6.008
 4400ETHY    C1 4320  13.688  17.561   5.909
 4401AUSL   AUS 4321  14.944  15.300   7.653
 4402AUSL   AUS 4322  14.944  14.973   7.350
 4403AUL    AUL 4323  14.636  15.137   7.502
 4404THSLK    S 4324  14.686  14.899   7.390
 4405ETHY    C1 4325  14.242  14.864   7.486
 4406ETHY    C1 4326  13.711  14.783   7.518
 4407ETHY    C1 4327  13.197  14.658   7.458
 4408ETHY    C1 4328  12.713  14.490   7.311
 4409ETHY    C1 4329  12.266  14.283   7.083
 4410THSLK    S 4330  14.711  15.407   7.704
 4411ETHY    C1 4331  14.364  15.591   7.935
 4412ETHY    C1 4332  13.904  15.784   8.137
 4413ETHY    C1 4333  13.407  15.939   8.249
 4414ETHY    C1 4334  12.886  16.049   8.274
 4415ETHY    C1 4335  12.350  16.112   8.213
 4416AUSL   AUS 4336  16.198  14.727   7.502
 4417AUSL   AUS 4337  16.128  14.872   7.918
 4418AUL    AUL 4338  16.412  14.646   7.805
 4419THSLK    S 4339  16.414  14.587   7.506
 4420ETHY    C1 4340  16.670  14.209   7.508
 4421ETHY    C1 4341  17.043  13.821   7.507
 4422ETHY    C1 4342  17.479  13.515   7.505
 4423ETHY    C1 4343  17.965  13.297   7.506
 4424ETHY    C1 4344  18.492  13.167   7.509
 4425THSLK    S 4345  16.260  14.682   8.066
 4426ETHY    C1 4346  16.465  14.339   8.285
 4427ETHY    C1 4347  16.767  13.997   8.570
 4428ETHY    C1 4348  17.121  13.744   8.877
 4429ETHY    C1 4349  17.515  13.581   9.198
 4430ETHY    C1 4350  17.939  13.511   9.529
 4431AUSL   AUS 4351  16.292  14.973   7.350
 4432AUSL   AUS 4352  16.035  14.626   7.237
 4433AUL    AUL 4353  16.412  14.646   7.198
 4434THSLK    S 4354  16.525  14.835   7.350
 4435ETHY    C1 4355  16.873  14.546   7.289
 4436ETHY    C1 4356  17.332  14.279   7.206
 4437ETHY    C1 4357  17.829  14.110   7.118
 4438ETHY    C1 4358  18.351  14.038   7.031
 4439ETHY    C1 4359  18.886  14.064   6.947
 4440THSLK    S 4360  16.154  14.436   7.104
 4441ETHY    C1 4361  16.271  14.019   6.963
 4442ETHY    C1 4362  16.485  13.565   6.765
 4443ETHY    C1 4363  16.775  13.179   6.543
 4444ETHY    C1 4364  17.134  12.864   6.306
 4445ETHY    C1 4365  17.554  12.625   6.058
 4446AUSL   AUS 4366  15.038  14.727   7.502
 4447AUSL   AUS 4367  15.108  14.872   7.085
 4448AUL    AUL 4368  14.824  14.646   7.198
 4449THSLK    S 4369  14.935  14.701   6.973
 4450ETHY    C1 4370  14.570  14.444   6.877
 4451ETHY    C1 4371  14.154  14.167   6.679
 4452ETHY    C1 4372  13.774  13.930   6.392
 4453ETHY    C1 4373  13.440  13.734   6.025
 4454ETHY    C1 4374  13.158  13.582   5.587
 4455THSLK    S 4375  14.770  14.671   7.506
 4456ETHY    C1 4376  14.318  14.610   7.508
 4457ETHY    C1 4377  13.804  14.451   7.507
 4458ETHY    C1 4378  13.336  14.197   7.505
 4459ETHY    C1 4379  12.923  13.860   7.506
 4460ETHY    C1 4380  12.571  13.446   7.509
 4461AUSL   AUS 4381  14.944  14.973   7.653
 4462AUSL   AUS 4382  15.202  14.626   7.766
 4463AUL    AUL 4383  14.824  14.646   7.805
 4464THSLK    S 4384  15.014  14.482   7.880
 4465ETHY    C1 4385  14.640  14.225   7.926
 4466ETHY    C1 4386  14.242  13.885   8.052
 4467ETHY    C1 4387  13.909  13.523   8.255
 4468ETHY    C1 4388  13.647  13.149   8.529
 4469ETHY    C1 4389  13.456  12.771   8.870
 4470THSLK    S 4390  14.685  14.906   7.617
 4471ETHY    C1 4391  14.240  14.876   7.524
 4472ETHY    C1 4392  13.709  14.794   7.490
 4473ETHY    C1 4393  13.196  14.665   7.549
 4474ETHY    C1 4394  12.712  14.497   7.696
 4475ETHY    C1 4395  12.264  14.295   7.928
 4476AUSL   AUS 4396  15.618  15.717   7.911
 4477AUSL   AUS 4397  15.202  15.647   7.766
 4478AUL    AUL 4398  15.315  15.931   7.992
 4479THSLK    S 4399  15.082  15.806   7.950
 4480ETHY    C1 4400  14.965  16.118   8.261
 4481ETHY    C1 4401  14.751  16.498   8.578
 4482ETHY    C1 4402  14.461  16.869   8.824
 4483ETHY    C1 4403  14.103  17.223   9.000
 4484ETHY    C1 4404  13.682  17.551   9.102
 4485THSLK    S 4405  15.658  15.943   8.035
 4486ETHY    C1 4406  15.815  16.245   8.339
 4487ETHY    C1 4407  15.930  16.651   8.672
 4488ETHY    C1 4408  15.957  17.095   8.964
 4489ETHY    C1 4409  15.897  17.564   9.211
 4490ETHY    C1 4410  15.753  18.048   9.410
 4491AUSL   AUS 4411  15.466  15.810   7.665
 4492AUSL   AUS 4412  15.770  15.810   7.338
 4493AUL    AUL 4413  15.618  16.118   7.502
 4494THSLK    S 4414  15.507  16.058   7.774
 4495ETHY    C1 4415  15.616  16.468   7.942
 4496ETHY    C1 4416  15.660  16.975   8.118
 4497ETHY    C1 4417  15.603  17.483   8.265
 4498ETHY    C1 4418  15.450  17.980   8.383
 4499ETHY    C1 4419  15.207  18.457   8.472
 4500THSLK    S 4420  15.823  16.045   7.241
 4501ETHY    C1 4421  16.068  16.401   7.094
 4502ETHY    C1 4422  16.281  16.866   6.927
 4503ETHY    C1 4423  16.396  17.364   6.779
 4504ETHY    C1 4424  16.416  17.883   6.655
 4505ETHY    C1 4425  16.341  18.412   6.558
 4506AUSL   AUS 4426  15.770  15.810   7.665
 4507AUSL   AUS 4427  15.883  15.553   8.012
 4508AUL    AUL 4428  15.921  15.931   7.992
 4509THSLK    S 4429  16.055  15.666   8.184
 4510ETHY    C1 4430  16.340  15.769   8.524
 4511ETHY    C1 4431  16.642  15.973   8.921
 4512ETHY    C1 4432  16.887  16.263   9.294
 4513ETHY    C1 4433  17.071  16.626   9.638
 4514ETHY    C1 4434  17.190  17.056   9.948
 4515THSLK    S 4435  15.821  16.044   7.771
 4516ETHY    C1 4436  16.065  16.398   7.922
 4517ETHY    C1 4437  16.278  16.864   8.087
 4518ETHY    C1 4438  16.394  17.363   8.231
 4519ETHY    C1 4439  16.413  17.881   8.356
 4520ETHY    C1 4440  16.338  18.409   8.458
 4521AUSL   AUS 4441  15.618  14.557   7.911
 4522AUSL   AUS 4442  16.035  14.626   7.766
 4523AUL    AUL 4443  15.921  14.342   7.992
 4524THSLK    S 4444  15.574  14.302   7.990
 4525ETHY    C1 4445  15.414  13.898   8.128
 4526ETHY    C1 4446  15.300  13.417   8.341
 4527ETHY    C1 4447  15.275  12.956   8.605
 4528ETHY    C1 4448  15.334  12.526   8.915
 4529ETHY    C1 4449  15.475  12.134   9.263
 4530THSLK    S 4450  16.150  14.437   7.908
 4531ETHY    C1 4451  16.266  14.021   8.052
 4532ETHY    C1 4452  16.480  13.568   8.248
 4533ETHY    C1 4453  16.772  13.180   8.467
 4534ETHY    C1 4454  17.131  12.865   8.705
 4535ETHY    C1 4455  17.548  12.628   8.958
 4536AUSL   AUS 4456  15.466  14.463   7.665
 4537AUSL   AUS 4457  15.353  14.720   8.012
 4538AUL    AUL 4458  15.315  14.342   7.992
 4539THSLK    S 4459  15.413  14.223   7.745
 4540ETHY    C1 4460  15.168  13.842   7.801
 4541ETHY    C1 4461  14.955  13.357   7.897
 4542ETHY    C1 4462  14.840  12.854   8.025
 4543ETHY    C1 4463  14.821  12.345   8.186
 4544ETHY    C1 4464  14.895  11.842   8.374
 4545THSLK    S 4465  15.175  14.552   8.133
 4546ETHY    C1 4466  14.887  14.234   8.289
 4547ETHY    C1 4467  14.587  13.874   8.552
 4548ETHY    C1 4468  14.344  13.548   8.896
 4549ETHY    C1 4469  14.160  13.265   9.309
 4550ETHY    C1 4470  14.036  13.031   9.783
 4551AUSL   AUS 4471  15.770  14.463   7.665
 4552AUSL   AUS 4472  15.466  14.463   7.338
 4553AUL    AUL 4473  15.618  14.155   7.502
 4554THSLK    S 4474  15.415  14.220   7.266
 4555ETHY    C1 4475  15.171  13.838   7.215
 4556ETHY    C1 4476  14.958  13.354   7.117
 4557ETHY    C1 4477  14.842  12.852   6.984
 4558ETHY    C1 4478  14.823  12.343   6.825
 4559ETHY    C1 4479  14.899  11.838   6.642
 4560THSLK    S 4480  15.727  14.207   7.749
 4561ETHY    C1 4481  15.617  13.771   7.821
 4562ETHY    C1 4482  15.574  13.245   7.928
 4563ETHY    C1 4483  15.631  12.733   8.059
 4564ETHY    C1 4484  15.784  12.245   8.213
 4565ETHY    C1 4485  16.026  11.792   8.388
 4566AUSL   AUS 4486  15.618  15.717   7.093
 4567AUSL   AUS 4487  16.035  15.647   7.237
 4568AUL    AUL 4488  15.921  15.931   7.011
 4569THSLK    S 4489  15.662  15.947   6.975
 4570ETHY    C1 4490  15.822  16.251   6.674
 4571ETHY    C1 4491  15.936  16.656   6.339
 4572ETHY    C1 4492  15.961  17.099   6.045
 4573ETHY    C1 4493  15.902  17.568   5.798
 4574ETHY    C1 4494  15.761  18.055   5.604
 4575THSLK    S 4495  16.222  15.768   7.085
 4576ETHY    C1 4496  16.596  15.924   6.876
 4577ETHY    C1 4497  16.994  16.188   6.629
 4578ETHY    C1 4498  17.327  16.532   6.395
 4579ETHY    C1 4499  17.589  16.944   6.184
 4580ETHY    C1 4500  17.780  17.418   5.998
 4581AUSL   AUS 4501  15.466  15.810   7.338
 4582AUSL   AUS 4502  15.353  15.553   6.992
 4583AUL    AUL 4503  15.315  15.931   7.011
 4584THSLK    S 4504  15.509  16.061   7.237
 4585ETHY    C1 4505  15.619  16.472   7.074
 4586ETHY    C1 4506  15.662  16.978   6.896
 4587ETHY    C1 4507  15.605  17.486   6.745
 4588ETHY    C1 4508  15.452  17.983   6.627
 4589ETHY    C1 4509  15.210  18.462   6.545
 4590THSLK    S 4510  15.239  15.688   6.802
 4591ETHY    C1 4511  15.173  15.860   6.385
 4592ETHY    C1 4512  15.030  16.112   5.932
 4593ETHY    C1 4513  14.821  16.411   5.544
 4594ETHY    C1 4514  14.555  16.749   5.230
 4595ETHY    C1 4515  14.239  17.122   4.993
 4596AUSL   AUS 4516  15.618  14.557   7.093
 4597AUSL   AUS 4517  15.202  14.626   7.237
 4598AUL    AUL 4518  15.315  14.342   7.011
 4599THSLK    S 4519  15.018  14.476   7.128
 4600ETHY    C1 4520  14.646  14.215   7.085
 4601ETHY    C1 4521  14.247  13.877   6.958
 4602ETHY    C1 4522  13.912  13.518   6.753
 4603ETHY    C1 4523  13.650  13.144   6.478
 4604ETHY    C1 4524  13.463  12.761   6.142
 4605THSLK    S 4525  15.578  14.298   7.019
 4606ETHY    C1 4526  15.421  13.892   6.885
 4607ETHY    C1 4527  15.306  13.412   6.671
 4608ETHY    C1 4528  15.279  12.953   6.404
 4609ETHY    C1 4529  15.339  12.522   6.094
 4610ETHY    C1 4530  15.483  12.127   5.751
 4611AUSL   AUS 4531  15.770  14.463   7.338
 4612AUSL   AUS 4532  15.883  14.720   6.992
 4613AUL    AUL 4533  15.921  14.342   7.011
 4614THSLK    S 4534  15.729  14.206   7.262
 4615ETHY    C1 4535  15.620  13.768   7.195
 4616ETHY    C1 4536  15.577  13.242   7.086
 4617ETHY    C1 4537  15.633  12.731   6.951
 4618ETHY    C1 4538  15.786  12.243   6.798
 4619ETHY    C1 4539  16.030  11.789   6.629
 4620THSLK    S 4540  16.003  14.530   6.853
 4621ETHY    C1 4541  16.072  14.144   6.621
 4622ETHY    C1 4542  16.214  13.736   6.300
 4623ETHY    C1 4543  16.421  13.400   5.942
 4624ETHY    C1 4544  16.687  13.143   5.559
 4625ETHY    C1 4545  17.007  12.965   5.158
 4626AUC    AUC 4546  26.513  28.221   7.502
 4627AUC    AUC 4547  26.759  28.221   7.350
 4628AUC    AUC 4548  26.759  28.221   7.653
 4629AUC    AUC 4549  26.268  28.221   7.350
 4630AUC    AUC 4550  26.268  28.221   7.653
 4631AUC    AUC 4551  26.361  28.466   7.502
 4632AUC    AUC 4552  26.665  28.466   7.502
 4633AUC    AUC 4553  26.361  27.975   7.502
 4634AUC    AUC 4554  26.665  27.975   7.502
 4635AUC    AUC 4555  26.513  28.069   7.747
 4636AUC    AUC 4556  26.513  28.372   7.747
 4637AUC    AUC 4557  26.513  28.069   7.256
 4638AUC    AUC 4558  26.513  28.372   7.256
 4639AUC    AUC 4559  27.004  28.221   7.198
 4640AUC    AUC 4560  27.004  28.221   7.502
 4641AUC    AUC 4561  27.004  28.221   7.805
 4642AUC    AUC 4562  26.022  28.221   7.198
 4643AUC    AUC 4563  26.022  28.221   7.502
 4644AUC    AUC 4564  26.022  28.221   7.805
 4645AUC    AUC 4565  26.210  28.711   7.502
 4646AUC    AUC 4566  26.513  28.711   7.502
 4647AUC    AUC 4567  26.816  28.711   7.502
 4648AUC    AUC 4568  26.210  27.730   7.502
 4649AUC    AUC 4569  26.513  27.730   7.502
 4650AUC    AUC 4570  26.816  27.730   7.502
 4651AUC    AUC 4571  26.513  27.917   7.992
 4652AUC    AUC 4572  26.513  28.221   7.992
 4653AUC    AUC 4573  26.513  28.524   7.992
 4654AUC    AUC 4574  26.513  27.917   7.011
 4655AUC    AUC 4575  26.513  28.221   7.011
 4656AUC    AUC 4576  26.513  28.524   7.011
 4657AUC    AUC 4577  26.759  28.069   7.899
 4658AUC    AUC 4578  26.759  28.372   7.899
 4659AUC    AUC 4579  26.759  28.069   7.105
 4660AUC    AUC 4580  26.759  28.372   7.105
 4661AUC    AUC 4581  26.268  28.069   7.899
 4662AUC    AUC 4582  26.268  28.372   7.899
 4663AUC    AUC 4583  26.268  28.069   7.105
 4664AUC    AUC 4584  26.268  28.372   7.105
 4665AUC    AUC 4585  26.910  28.466   7.350
 4666AUC    AUC 4586  26.910  28.466   7.653
 4667AUC    AUC 4587  26.116  28.466   7.350
 4668AUC    AUC 4588  26.116  28.466   7.653
 4669AUC    AUC 4589  26.910  27.975   7.350
 4670AUC    AUC 4590  26.910  27.975   7.653
 4671AUC    AUC 4591  26.116  27.975   7.350
 4672AUC    AUC 4592  26.116  27.975   7.653
 4673AUC    AUC 4593  26.361  28.618   7.747
 4674AUC    AUC 4594  26.665  28.618   7.747
 4675AUC    AUC 4595  26.361  27.823   7.747
 4676AUC    AUC 4596  26.665  27.823   7.747
 4677AUC    AUC 4597  26.361  28.618   7.256
 4678AUC    AUC 4598  26.665  28.618   7.256
 4679AUC    AUC 4599  26.361  27.823   7.256
 4680AUC    AUC 4600  26.665  27.823   7.256
 4681AUSL   AUS 4601  26.922  28.221   8.082
 4682AUSL   AUS 4602  26.778  27.804   8.012
 4683AUL    AUL 4603  27.004  27.917   8.296
 4684THSLK    S 4604  26.892  27.616   8.156
 4685ETHY    C1 4605  26.958  27.231   8.391
 4686ETHY    C1 4606  27.101  26.823   8.710
 4687ETHY    C1 4607  27.310  26.487   9.066
 4688ETHY    C1 4608  27.576  26.229   9.450
 4689ETHY    C1 4609  27.892  26.053   9.855
 4690THSLK    S 4610  27.018  28.171   8.326
 4691ETHY    C1 4611  27.234  27.985   8.681
 4692ETHY    C1 4612  27.509  27.850   9.124
 4693ETHY    C1 4613  27.790  27.820   9.575
 4694ETHY    C1 4614  28.068  27.889  10.025
 4695ETHY    C1 4615  28.337  28.057  10.466
 4696AUSL   AUS 4616  26.677  28.069   8.175
 4697AUSL   AUS 4617  26.350  28.372   8.175
 4698AUL    AUL 4618  26.513  28.221   8.483
 4699THSLK    S 4619  26.755  28.016   8.417
 4700ETHY    C1 4620  26.832  27.766   8.790
 4701ETHY    C1 4621  26.948  27.549   9.269
 4702ETHY    C1 4622  27.085  27.433   9.769
 4703ETHY    C1 4623  27.235  27.415  10.281
 4704ETHY    C1 4624  27.394  27.496  10.794
 4705THSLK    S 4625  26.263  28.329   8.431
 4706ETHY    C1 4626  26.181  28.217   8.864
 4707ETHY    C1 4627  26.067  28.171   9.388
 4708ETHY    C1 4628  25.935  28.229   9.901
 4709ETHY    C1 4629  25.784  28.382  10.389
 4710ETHY    C1 4630  25.618  28.626  10.844
 4711AUSL   AUS 4631  26.677  28.372   8.175
 4712AUSL   AUS 4632  27.023  28.485   7.918
 4713AUL    AUL 4633  27.004  28.524   8.296
 4714THSLK    S 4634  26.764  28.426   8.414
 4715ETHY    C1 4635  26.845  28.677   8.786
 4716ETHY    C1 4636  26.959  28.893   9.265
 4717ETHY    C1 4637  27.092  29.009   9.767
 4718ETHY    C1 4638  27.242  29.027  10.279
 4719ETHY    C1 4639  27.408  28.947  10.789
 4720THSLK    S 4640  27.197  28.587   8.080
 4721ETHY    C1 4641  27.561  28.597   8.354
 4722ETHY    C1 4642  27.977  28.699   8.680
 4723ETHY    C1 4643  28.357  28.898   8.995
 4724ETHY    C1 4644  28.692  29.185   9.296
 4725ETHY    C1 4645  28.973  29.553   9.577
 4726AUSL   AUS 4646  26.922  28.221   6.922
 4727AUSL   AUS 4647  26.778  28.637   6.992
 4728AUL    AUL 4648  27.004  28.524   6.707
 4729THSLK    S 4649  27.025  28.171   6.681
 4730ETHY    C1 4650  27.246  27.985   6.329
 4731ETHY    C1 4651  27.519  27.850   5.885
 4732ETHY    C1 4652  27.797  27.820   5.432
 4733ETHY    C1 4653  28.075  27.889   4.982
 4734ETHY    C1 4654  28.349  28.057   4.545
 4735THSLK    S 4655  26.956  28.752   6.825
 4736ETHY    C1 4656  27.244  28.857   6.488
 4737ETHY    C1 4657  27.544  29.061   6.090
 4738ETHY    C1 4658  27.787  29.349   5.714
 4739ETHY    C1 4659  27.971  29.713   5.371
 4740ETHY    C1 4660  28.095  30.144   5.065
 4741AUSL   AUS 4661  26.677  28.069   6.828
 4742AUSL   AUS 4662  27.023  27.956   7.085
 4743AUL    AUL 4663  27.004  27.917   6.707
 4744THSLK    S 4664  27.160  27.764   6.944
 4745ETHY    C1 4665  27.368  27.421   6.729
 4746ETHY    C1 4666  27.669  27.079   6.442
 4747ETHY    C1 4667  28.020  26.826   6.133
 4748ETHY    C1 4668  28.414  26.664   5.812
 4749ETHY    C1 4669  28.843  26.593   5.486
 4750THSLK    S 4670  26.764  28.015   6.590
 4751ETHY    C1 4671  26.845  27.764   6.217
 4752ETHY    C1 4672  26.959  27.548   5.738
 4753ETHY    C1 4673  27.092  27.432   5.236
 4754ETHY    C1 4674  27.242  27.414   4.725
 4755ETHY    C1 4675  27.408  27.494   4.214
 4756AUSL   AUS 4676  26.677  28.372   6.828
 4757AUSL   AUS 4677  26.350  28.069   6.828
 4758AUL    AUL 4678  26.513  28.221   6.520
 4759THSLK    S 4679  26.255  28.015   6.592
 4760ETHY    C1 4680  26.118  27.767   6.235
 4761ETHY    C1 4681  25.958  27.553   5.767
 4762ETHY    C1 4682  25.811  27.438   5.269
 4763ETHY    C1 4683  25.684  27.419   4.751
 4764ETHY    C1 4684  25.579  27.495   4.224
 4765THSLK    S 4685  26.780  28.330   6.578
 4766ETHY    C1 4686  26.921  28.215   6.160
 4767ETHY    C1 4687  27.079  28.168   5.647
 4768ETHY    C1 4688  27.222  28.224   5.138
 4769ETHY    C1 4689  27.350  28.378   4.643
 4770ETHY    C1 4690  27.461  28.626   4.174
 4771AUSL   AUS 4691  26.104  28.221   8.082
 4772AUSL   AUS 4692  26.248  28.637   8.012
 4773AUL    AUL 4693  26.022  28.524   8.296
 4774THSLK    S 4694  26.001  28.171   8.322
 4775ETHY    C1 4695  25.780  27.985   8.674
 4776ETHY    C1 4696  25.507  27.850   9.118
 4777ETHY    C1 4697  25.230  27.820   9.571
 4778ETHY    C1 4698  24.952  27.889  10.021
 4779ETHY    C1 4699  24.677  28.057  10.458
 4780THSLK    S 4700  26.128  28.766   8.202
 4781ETHY    C1 4701  26.059  28.935   8.620
 4782ETHY    C1 4702  25.917  29.188   9.073
 4783ETHY    C1 4703  25.711  29.489   9.460
 4784ETHY    C1 4704  25.444  29.828   9.775
 4785ETHY    C1 4705  25.124  30.195  10.013
 4786AUSL   AUS 4706  26.350  28.069   8.175
 4787AUSL   AUS 4707  26.003  27.956   7.918
 4788AUL    AUL 4708  26.022  27.917   8.296
 4789THSLK    S 4709  25.825  27.792   8.029
 4790ETHY    C1 4710  25.457  27.539   8.125
 4791ETHY    C1 4711  25.042  27.260   8.323
 4792ETHY    C1 4712  24.664  27.020   8.611
 4793ETHY    C1 4713  24.330  26.824   8.978
 4794ETHY    C1 4714  24.044  26.678   9.415
 4795THSLK    S 4715  26.247  28.017   8.410
 4796ETHY    C1 4716  26.105  27.770   8.766
 4797ETHY    C1 4717  25.947  27.555   9.233
 4798ETHY    C1 4718  25.804  27.439   9.733
 4799ETHY    C1 4719  25.677  27.421  10.250
 4800ETHY    C1 4720  25.565  27.499  10.775
 4801AUSL   AUS 4721  26.104  28.221   6.922
 4802AUSL   AUS 4722  26.248  27.804   6.992
 4803AUL    AUL 4723  26.022  27.917   6.707
 4804THSLK    S 4724  26.009  28.171   6.677
 4805ETHY    C1 4725  25.792  27.985   6.322
 4806ETHY    C1 4726  25.517  27.850   5.879
 4807ETHY    C1 4727  25.236  27.820   5.429
 4808ETHY    C1 4728  24.958  27.889   4.978
 4809ETHY    C1 4729  24.690  28.057   4.537
 4810THSLK    S 4730  26.076  27.630   6.872
 4811ETHY    C1 4731  25.791  27.309   6.717
 4812ETHY    C1 4732  25.490  26.950   6.453
 4813ETHY    C1 4733  25.245  26.627   6.109
 4814ETHY    C1 4734  25.061  26.344   5.696
 4815ETHY    C1 4735  24.942  26.104   5.223
 4816AUSL   AUS 4736  26.350  28.372   6.828
 4817AUSL   AUS 4737  26.003  28.485   7.085
 4818AUL    AUL 4738  26.022  28.524   6.707
 4819THSLK    S 4739  25.872  28.615   6.893
 4820ETHY    C1 4740  25.666  28.715   6.499
 4821ETHY    C1 4741  25.364  28.879   6.085
 4822ETHY    C1 4742  25.010  29.091   5.748
 4823ETHY    C1 4743  24.617  29.345   5.494
 4824ETHY    C1 4744  24.192  29.638   5.324
 4825THSLK    S 4745  26.271  28.331   6.571
 4826ETHY    C1 4746  26.194  28.219   6.136
 4827ETHY    C1 4747  26.078  28.174   5.612
 4828ETHY    C1 4748  25.942  28.230   5.101
 4829ETHY    C1 4749  25.792  28.384   4.613
 4830ETHY    C1 4750  25.632  28.629   4.156
 4831AUSL   AUS 4751  27.093  28.630   7.502
 4832AUSL   AUS 4752  27.023  28.485   7.085
 4833AUL    AUL 4753  27.307  28.711   7.198
 4834THSLK    S 4754  27.202  28.588   6.930
 4835ETHY    C1 4755  27.569  28.599   6.659
 4836ETHY    C1 4756  27.984  28.701   6.332
 4837ETHY    C1 4757  28.362  28.899   6.014
 4838ETHY    C1 4758  28.696  29.186   5.713
 4839ETHY    C1 4759  28.982  29.556   5.438
 4840THSLK    S 4760  27.361  28.686   7.506
 4841ETHY    C1 4761  27.813  28.747   7.508
 4842ETHY    C1 4762  28.327  28.906   7.507
 4843ETHY    C1 4763  28.795  29.160   7.505
 4844ETHY    C1 4764  29.208  29.497   7.506
 4845ETHY    C1 4765  29.560  29.911   7.509
 4846AUSL   AUS 4766  27.187  28.384   7.350
 4847AUSL   AUS 4767  27.187  28.057   7.653
 4848AUL    AUL 4768  27.495  28.221   7.502
 4849THSLK    S 4769  27.446  28.427   7.348
 4850ETHY    C1 4770  27.891  28.357   7.278
 4851ETHY    C1 4771  28.422  28.364   7.190
 4852ETHY    C1 4772  28.935  28.474   7.101
 4853ETHY    C1 4773  29.420  28.680   7.017
 4854ETHY    C1 4774  29.867  28.977   6.940
 4855THSLK    S 4775  27.419  27.919   7.662
 4856ETHY    C1 4776  27.765  27.630   7.728
 4857ETHY    C1 4777  28.226  27.363   7.809
 4858ETHY    C1 4778  28.723  27.194   7.892
 4859ETHY    C1 4779  29.244  27.122   7.980
 4860ETHY    C1 4780  29.779  27.148   8.071
 4861AUSL   AUS 4781  27.187  28.384   7.653
 4862AUSL   AUS 4782  26.930  28.731   7.766
 4863AUL    AUL 4783  27.307  28.711   7.805
 4864THSLK    S 4784  27.113  28.850   7.926
 4865ETHY    C1 4785  27.485  29.005   8.139
 4866ETHY    C1 4786  27.885  29.270   8.385
 4867ETHY    C1 4787  28.219  29.614   8.615
 4868ETHY    C1 4788  28.481  30.027   8.827
 4869ETHY    C1 4789  28.668  30.499   9.019
 4870THSLK    S 4790  27.445  28.427   7.664
 4871ETHY    C1 4791  27.889  28.357   7.738
 4872ETHY    C1 4792  28.420  28.364   7.825
 4873ETHY    C1 4793  28.934  28.474   7.910
 4874ETHY    C1 4794  29.418  28.680   7.994
 4875ETHY    C1 4795  29.865  28.977   8.078
 4876AUSL   AUS 4796  25.933  28.630   7.502
 4877AUSL   AUS 4797  26.003  28.485   7.918
 4878AUL    AUL 4798  25.719  28.711   7.805
 4879THSLK    S 4799  25.867  28.608   8.109
 4880ETHY    C1 4800  25.658  28.704   8.503
 4881ETHY    C1 4801  25.357  28.870   8.917
 4882ETHY    C1 4802  25.006  29.085   9.254
 4883ETHY    C1 4803  24.612  29.339   9.509
 4884ETHY    C1 4804  24.183  29.626   9.678
 4885THSLK    S 4805  25.717  28.770   7.506
 4886ETHY    C1 4806  25.461  29.148   7.508
 4887ETHY    C1 4807  25.088  29.536   7.507
 4888ETHY    C1 4808  24.652  29.842   7.505
 4889ETHY    C1 4809  24.166  30.060   7.506
 4890ETHY    C1 4810  23.639  30.190   7.509
 4891AUSL   AUS 4811  25.839  28.384   7.350
 4892AUSL   AUS 4812  26.097  28.731   7.237
 4893AUL    AUL 4813  25.719  28.711   7.198
 4894THSLK    S 4814  25.608  28.499   7.303
 4895ETHY    C1 4815  25.261  28.687   7.075
 4896ETHY    C1 4816  24.801  28.879   6.872
 4897ETHY    C1 4817  24.303  29.029   6.758
 4898ETHY    C1 4818  23.782  29.139   6.733
 4899ETHY    C1 4819  23.248  29.209   6.796
 4900THSLK    S 4820  25.981  28.896   7.058
 4901ETHY    C1 4821  25.865  29.212   6.750
 4902ETHY    C1 4822  25.651  29.590   6.432
 4903ETHY    C1 4823  25.359  29.959   6.183
 4904ETHY    C1 4824  25.001  30.312   6.008
 4905ETHY    C1 4825  24.583  30.645   5.909
 4906AUSL   AUS 4826  25.839  28.384   7.653
 4907AUSL   AUS 4827  25.839  28.057   7.350
 4908AUL    AUL 4828  25.531  28.221   7.502
 4909THSLK    S 4829  25.581  27.983   7.390
 4910ETHY    C1 4830  25.137  27.948   7.486
 4911ETHY    C1 4831  24.606  27.867   7.518
 4912ETHY    C1 4832  24.092  27.742   7.458
 4913ETHY    C1 4833  23.608  27.574   7.311
 4914ETHY    C1 4834  23.161  27.367   7.083
 4915THSLK    S 4835  25.606  28.491   7.704
 4916ETHY    C1 4836  25.259  28.675   7.935
 4917ETHY    C1 4837  24.799  28.868   8.137
 4918ETHY    C1 4838  24.302  29.023   8.249
 4919ETHY    C1 4839  23.781  29.133   8.274
 4920ETHY    C1 4840  23.245  29.196   8.213
 4921AUSL   AUS 4841  27.093  27.811   7.502
 4922AUSL   AUS 4842  27.023  27.956   7.918
 4923AUL    AUL 4843  27.307  27.730   7.805
 4924THSLK    S 4844  27.309  27.671   7.506
 4925ETHY    C1 4845  27.565  27.293   7.508
 4926ETHY    C1 4846  27.938  26.905   7.507
 4927ETHY    C1 4847  28.374  26.599   7.505
 4928ETHY    C1 4848  28.860  26.381   7.506
 4929ETHY    C1 4849  29.387  26.251   7.509
 4930THSLK    S 4850  27.155  27.766   8.066
 4931ETHY    C1 4851  27.360  27.423   8.285
 4932ETHY    C1 4852  27.662  27.081   8.570
 4933ETHY    C1 4853  28.016  26.828   8.877
 4934ETHY    C1 4854  28.410  26.665   9.198
 4935ETHY    C1 4855  28.834  26.595   9.529
 4936AUSL   AUS 4856  27.187  28.057   7.350
 4937AUSL   AUS 4857  26.930  27.710   7.237
 4938AUL    AUL 4858  27.307  27.730   7.198
 4939THSLK    S 4859  27.420  27.919   7.350
 4940ETHY    C1 4860  27.768  27.630   7.289
 4941ETHY    C1 4861  28.227  27.363   7.206
 4942ETHY    C1 4862  28.724  27.194   7.118
 4943ETHY    C1 4863  29.246  27.122   7.031
 4944ETHY    C1 4864  29.781  27.148   6.947
 4945THSLK    S 4865  27.049  27.520   7.104
 4946ETHY    C1 4866  27.166  27.103   6.963
 4947ETHY    C1 4867  27.380  26.649   6.765
 4948ETHY    C1 4868  27.670  26.263   6.543
 4949ETHY    C1 4869  28.029  25.948   6.306
 4950ETHY    C1 4870  28.449  25.709   6.058
 4951AUSL   AUS 4871  25.933  27.811   7.502
 4952AUSL   AUS 4872  26.003  27.956   7.085
 4953AUL    AUL 4873  25.719  27.730   7.198
 4954THSLK    S 4874  25.830  27.785   6.973
 4955ETHY    C1 4875  25.465  27.528   6.877
 4956ETHY    C1 4876  25.049  27.251   6.679
 4957ETHY    C1 4877  24.669  27.014   6.392
 4958ETHY    C1 4878  24.335  26.818   6.025
 4959ETHY    C1 4879  24.053  26.666   5.587
 4960THSLK    S 4880  25.665  27.755   7.506
 4961ETHY    C1 4881  25.213  27.694   7.508
 4962ETHY    C1 4882  24.699  27.535   7.507
 4963ETHY    C1 4883  24.231  27.281   7.505
 4964ETHY    C1 4884  23.818  26.944   7.506
 4965ETHY    C1 4885  23.466  26.530   7.509
 4966AUSL   AUS 4886  25.839  28.057   7.653
 4967AUSL   AUS 4887  26.097  27.710   7.766
 4968AUL    AUL 4888  25.719  27.730   7.805
 4969THSLK    S 4889  25.909  27.566   7.880
 4970ETHY    C1 4890  25.535  27.309   7.926
 4971ETHY    C1 4891  25.137  26.969   8.052
 4972ETHY    C1 4892  24.804  26.607   8.255
 4973ETHY    C1 4893  24.542  26.233   8.529
 4974ETHY    C1 4894  24.351  25.855   8.870
 4975THSLK    S 4895  25.580  27.990   7.617
 4976ETHY    C1 4896  25.135  27.960   7.524
 4977ETHY    C1 4897  24.604  27.878   7.490
 4978ETHY    C1 4898  24.091  27.749   7.549
 4979ETHY    C1 4899  23.607  27.581   7.696
 4980ETHY    C1 4900  23.159  27.379   7.928
 4981AUSL   AUS 4901  26.513  28.801   7.911
 4982AUSL   AUS 4902  26.097  28.731   7.766
 4983AUL    AUL 4903  26.210  29.015   7.992
 4984THSLK    S 4904  25.977  28.890   7.950
 4985ETHY    C1 4905  25.860  29.202   8.261
 4986ETHY    C1 4906  25.646  29.582   8.578
 4987ETHY    C1 4907  25.356  29.953   8.824
 4988ETHY    C1 4908  24.998  30.307   9.000
 4989ETHY    C1 4909  24.577  30.635   9.102
 4990THSLK    S 4910  26.553  29.027   8.035
 4991ETHY    C1 4911  26.710  29.329   8.339
 4992ETHY    C1 4912  26.825  29.735   8.672
 4993ETHY    C1 4913  26.852  30.179   8.964
 4994ETHY    C1 4914  26.792  30.648   9.211
 4995ETHY    C1 4915  26.648  31.132   9.410
 4996AUSL   AUS 4916  26.361  28.894   7.665
 4997AUSL   AUS 4917  26.665  28.894   7.338
 4998AUL    AUL 4918  26.513  29.202   7.502
 4999THSLK    S 4919  26.402  29.142   7.774
 5000ETHY    C1 4920  26.511  29.552   7.942
 5001ETHY    C1 4921  26.555  30.059   8.118
 5002ETHY    C1 4922  26.498  30.567   8.265
 5003ETHY    C1 4923  26.345  31.064   8.383
 5004ETHY    C1 4924  26.102  31.541   8.472
 5005THSLK    S 4925  26.718  29.129   7.241
 5006ETHY    C1 4926  26.963  29.485   7.094
 5007ETHY    C1 4927  27.176  29.950   6.927
 5008ETHY    C1 4928  27.291  30.448   6.779
 5009ETHY    C1 4929  27.311  30.967   6.655
 5010ETHY    C1 4930  27.236  31.496   6.558
 5011AUSL   AUS 4931  26.665  28.894   7.665
 5012AUSL   AUS 4932  26.778  28.637   8.012
 5013AUL    AUL 4933  26.816  29.015   7.992
 5014THSLK    S 4934  26.950  28.750   8.184
 5015ETHY    C1 4935  27.235  28.853   8.524
 5016ETHY    C1 4936  27.537  29.057   8.921
 5017ETHY    C1 4937  27.782  29.347   9.294
 5018ETHY    C1 4938  27.966  29.710   9.638
 5019ETHY    C1 4939  28.085  30.140   9.948
 5020THSLK    S 4940  26.716  29.128   7.771
 5021ETHY    C1 4941  26.960  29.482   7.922
 5022ETHY    C1 4942  27.173  29.948   8.087
 5023ETHY    C1 4943  27.289  30.447   8.231
 5024ETHY    C1 4944  27.308  30.965   8.356
 5025ETHY    C1 4945  27.233  31.493   8.458
 5026AUSL   AUS 4946  26.513  27.641   7.911
 5027AUSL   AUS 4947  26.930  27.710   7.766
 5028AUL    AUL 4948  26.816  27.426   7.992
 5029THSLK    S 4949  26.469  27.386   7.990
 5030ETHY    C1 4950  26.309  26.982   8.128
 5031ETHY    C1 4951  26.195  26.501   8.341
 5032ETHY    C1 4952  26.170  26.040   8.605
 5033ETHY    C1 4953  26.229  25.610   8.915
 5034ETHY    C1 4954  26.370  25.218   9.263
 5035THSLK    S 4955  27.045  27.521   7.908
 5036ETHY    C1 4956  27.161  27.105   8.052
 5037ETHY    C1 4957  27.375  26.652   8.248
 5038ETHY    C1 4958  27.667  26.264   8.467
 5039ETHY    C1 4959  28.026  25.949   8.705
 5040ETHY    C1 4960  28.443  25.712   8.958
 5041AUSL   AUS 4961  26.361  27.547   7.665
 5042AUSL   AUS 4962  26.248  27.804   8.012
 5043AUL    AUL 4963  26.210  27.426   7.992
 5044THSLK    S 4964  26.308  27.307   7.745
 5045ETHY    C1 4965  26.063  26.926   7.801
 5046ETHY    C1 4966  25.850  26.441   7.897
 5047ETHY    C1 4967  25.735  25.938   8.025
 5048ETHY    C1 4968  25.716  25.429   8.186
 5049ETHY    C1 4969  25.790  24.926   8.374
 5050THSLK    S 4970  26.070  27.636   8.133
 5051ETHY    C1 4971  25.782  27.318   8.289
 5052ETHY    C1 4972  25.482  26.958   8.552
 5053ETHY    C1 4973  25.239  26.632   8.896
 5054ETHY    C1 4974  25.055  26.349   9.309
 5055ETHY    C1 4975  24.931  26.115   9.783
 5056AUSL   AUS 4976  26.665  27.547   7.665
 5057AUSL   AUS 4977  26.361  27.547   7.338
 5058AUL    AUL 4978  26.513  27.239   7.502
 5059THSLK    S 4979  26.310  27.304   7.266
 5060ETHY    C1 4980  26.066  26.922   7.215
 5061ETHY    C1 4981  25.853  26.438   7.117
 5062ETHY    C1 4982  25.737  25.936   6.984
 5063ETHY    C1 4983  25.718  25.427   6.825
 5064ETHY    C1 4984  25.794  24.922   6.642
 5065THSLK    S 4985  26.622  27.291   7.749
 5066ETHY    C1 4986  26.512  26.855   7.821
 5067ETHY    C1 4987  26.469  26.329   7.928
 5068ETHY    C1 4988  26.526  25.817   8.059
 5069ETHY    C1 4989  26.679  25.329   8.213
 5070ETHY    C1 4990  26.921  24.876   8.388
 5071AUSL   AUS 4991  26.513  28.801   7.093
 5072AUSL   AUS 4992  26.930  28.731   7.237
 5073AUL    AUL 4993  26.816  29.015   7.011
 5074THSLK    S 4994  26.557  29.031   6.975
 5075ETHY    C1 4995  26.717  29.335   6.674
 5076ETHY    C1 4996  26.831  29.740   6.339
 5077ETHY    C1 4997  26.856  30.183   6.045
 5078ETHY    C1 4998  26.797  30.652   5.798
 5079ETHY    C1 4999  26.656  31.139   5.604
 5080THSLK    S 5000  27.117  28.852   7.085
 5081ETHY    C1 5001  27.491  29.008   6.876
 5082ETHY    C1 5002  27.889  29.272   6.629
 5083ETHY    C1 5003  28.222  29.616   6.395
 5084ETHY    C1 5004  28.484  30.028   6.184
 5085ETHY    C1 5005  28.675  30.502   5.998
 5086AUSL   AUS 5006  26.361  28.894   7.338
 5087AUSL   AUS 5007  26.248  28.637   6.992
 5088AUL    AUL 5008  26.210  29.015   7.011
 5089THSLK    S 5009  26.404  29.145   7.237
 5090ETHY    C1 5010  26.514  29.556   7.074
 5091ETHY    C1 5011  26.557  30.062   6.896
 5092ETHY    C1 5012  26.500  30.570   6.745
 5093ETHY    C1 5013  26.347  31.067   6.627
 5094ETHY    C1 5014  26.105  31.546   6.545
 5095THSLK    S 5015  26.134  28.772   6.802
 5096ETHY    C1 5016  26.068  28.944   6.385
 5097ETHY    C1 5017  25.925  29.196   5.932
 5098ETHY    C1 5018  25.716  29.495   5.544
 5099ETHY    C1 5019  25.450  29.833   5.230
 5100ETHY    C1 5020  25.134  30.206   4.993
 5101AUSL   AUS 5021  26.513  27.641   7.093
 5102AUSL   AUS 5022  26.097  27.710   7.237
 5103AUL    AUL 5023  26.210  27.426   7.011
 5104THSLK    S 5024  25.913  27.560   7.128
 5105ETHY    C1 5025  25.541  27.299   7.085
 5106ETHY    C1 5026  25.142  26.961   6.958
 5107ETHY    C1 5027  24.807  26.602   6.753
 5108ETHY    C1 5028  24.545  26.228   6.478
 5109ETHY    C1 5029  24.358  25.845   6.142
 5110THSLK    S 5030  26.473  27.382   7.019
 5111ETHY    C1 5031  26.316  26.976   6.885
 5112ETHY    C1 5032  26.201  26.496   6.671
 5113ETHY    C1 5033  26.174  26.037   6.404
 5114ETHY    C1 5034  26.234  25.606   6.094
 5115ETHY    C1 5035  26.378  25.211   5.751
 5116AUSL   AUS 5036  26.665  27.547   7.338
 5117AUSL   AUS 5037  26.778  27.804   6.992
 5118AUL    AUL 5038  26.816  27.426   7.011
 5119THSLK    S 5039  26.624  27.290   7.262
 5120ETHY    C1 5040  26.515  26.852   7.195
 5121ETHY    C1 5041  26.472  26.326   7.086
 5122ETHY    C1 5042  26.528  25.815   6.951
 5123ETHY    C1 5043  26.681  25.327   6.798
 5124ETHY    C1 5044  26.925  24.873   6.629
 5125THSLK    S 5045  26.898  27.614   6.853
 5126ETHY    C1 5046  26.967  27.228   6.621
 5127ETHY    C1 5047  27.109  26.820   6.300
 5128ETHY    C1 5048  27.316  26.484   5.942
 5129ETHY    C1 5049  27.582  26.227   5.559
 5130ETHY    C1 5050  27.902  26.049   5.158
 5131POPC   NC3 5051   3.520  35.340   9.453
 5131POPC   PO4 5052   3.579  35.381   9.153
 5131POPC   GL1 5053   3.534  35.333   8.853
 5131POPC   GL2 5054   3.457  35.318   8.853
 5131POPC   C1A 5055   3.571  35.367   8.553
 5131POPC   D2A 5056   3.561  35.387   8.253
 5131POPC   C3A 5057   3.524  35.386   7.953
 5131POPC   C4A 5058   3.522  35.308   7.653
 5131POPC   C1B 5059   3.260  35.273   8.553
 5131POPC   C2B 5060   3.311  35.220   8.253
 5131POPC   C3B 5061   3.309  35.246   7.953
 5131POPC   C4B 5062   3.290  35.281   7.653
 5132POPC   NC3 5063  39.961  40.056   9.453
 5132POPC   PO4 5064  40.021  39.993   9.153
 5132POPC   GL1 5065  39.969  39.960   8.853
 5132POPC   GL2 5066  39.945  40.172   8.853
 5132POPC   C1A 5067  39.980  40.042   8.553
 5132POPC   D2A 5068  40.041  40.018   8.253
 5132POPC   C3A 5069  40.033  39.982   7.953
 5132POPC   C4A 5070  39.963  39.995   7.653
 5132POPC   C1B 5071  39.937  40.282   8.553
 5132POPC   C2B 5072  39.954  40.253   8.253
 5132POPC   C3B 5073  39.932  40.266   7.953
 5132POPC   C4B 5074  39.927  40.241   7.653
 5133POPC   NC3 5075  27.621  42.331   9.453
 5133POPC   PO4 5076  27.578  42.338   9.153
 5133POPC   GL1 5077  27.564  42.370   8.853
 5133POPC   GL2 5078  27.549  42.233   8.853
 5133POPC   C1A 5079  27.637  42.341   8.553
 5133POPC   D2A 5080  27.559  42.360   8.253
 5133POPC   C3A 5081  27.628  42.291   7.953
 5133POPC   C4A 5082  27.607  42.354   7.653
 5133POPC   C1B 5083  27.458  42.137   8.553
 5133POPC   C2B 5084  27.467  42.096   8.253
 5133POPC   C3B 5085  27.461  42.129   7.953
 5133POPC   C4B 5086  27.469  42.128   7.653
 5134POPC   NC3 5087  20.654   4.330   9.453
 5134POPC   PO4 5088  20.576   4.363   9.153
 5134POPC   GL1 5089  20.621   4.274   8.853
 5134POPC   GL2 5090  20.506   4.325   8.853
 5134POPC   C1A 5091  20.617   4.346   8.553
 5134POPC   D2A 5092  20.622   4.356   8.253
 5134POPC   C3A 5093  20.576   4.296   7.953
 5134POPC   C4A 5094  20.583   4.343   7.653
 5134POPC   C1B 5095  20.405   4.229   8.553
 5134POPC   C2B 5096  20.383   4.224   8.253
 5134POPC   C3B 5097  20.405   4.215   7.953
 5134POPC   C4B 5098  20.339   4.285   7.653
 5135POPC   NC3 5099  38.424  21.388   9.453
 5135POPC   PO4 5100  38.424  21.413   9.153
 5135POPC   GL1 5101  38.430  21.435   8.853
 5135POPC   GL2 5102  38.615  21.443   8.853
 5135POPC   C1A 5103  38.477  21.421   8.553
 5135POPC   D2A 5104  38.440  21.369   8.253
 5135POPC   C3A 5105  38.497  21.423   7.953
 5135POPC   C4A 5106  38.471  21.363   7.653
 5135POPC   C1B 5107  38.697  21.458   8.553
 5135POPC   C2B 5108  38.670  21.438   8.253
 5135POPC   C3B 5109  38.655  21.443   7.953
 5135POPC   C4B 5110  38.695  21.407   7.653
 5136POPC   NC3 5111  33.778   4.269   9.453
 5136POPC   PO4 5112  33.841   4.328   9.153
 5136POPC   GL1 5113  33.793   4.352   8.853
 5136POPC   GL2 5114  33.931   4.349   8.853
 5136POPC   C1A 5115  33.751   4.316   8.553
 5136POPC   D2A 5116  33.840   4.276   8.253
 5136POPC   C3A 5117  33.779   4.280   7.953
 5136POPC   C4A 5118  33.835   4.340   7.653
 5136POPC   C1B 5119  34.003   4.412   8.553
 5136POPC   C2B 5120  34.052   4.489   8.253
 5136POPC   C3B 5121  34.052   4.481   7.953
 5136POPC   C4B 5122  34.038   4.482   7.653
 5137POPC   NC3 5123  15.941  11.320   9.453
 5137POPC   PO4 5124  15.981  11.284   9.153
 5137POPC   GL1 5125  15.944  11.344   8.853
 5137POPC   GL2 5126  15.829  11.294   8.853
 5137POPC   C1A 5127  15.962  11.323   8.553
 5137POPC   D2A 5128  15.958  11.325   8.253
 5137POPC   C3A 5129  15.910  11.305   7.953
 5137POPC   C4A 5130  15.993  11.325   7.653
 5137POPC   C1B 5131  15.692  11.317   8.553
 5137POPC   C2B 5132  15.739  11.338   8.253
 5137POPC   C3B 5133  15.729  11.312   7.953
 5137POPC   C4B 5134  15.685  11.300   7.653
 5138POPC   NC3 5135  27.565   9.742   9.453
 5138POPC   PO4 5136  27.571   9.716   9.153
 5138POPC   GL1 5137  27.557   9.750   8.853
 5138POPC   GL2 5138  27.448   9.842   8.853
 5138POPC   C1A 5139  27.594   9.751   8.553
 5138POPC   D2A 5140  27.585   9.712   8.253
 5138POPC   C3A 5141  27.593   9.763   7.953
 5138POPC   C4A 5142  27.557   9.699   7.653
 5138POPC   C1B 5143  27.336   9.841   8.553
 5138POPC   C2B 5144  27.313   9.845   8.253
 5138POPC   C3B 5145  27.360   9.892   7.953
 5138POPC   C4B 5146  27.333   9.877   7.653
 5139POPC   NC3 5147  18.305  25.278   9.453
 5139POPC   PO4 5148  18.293  25.293   9.153
 5139POPC   GL1 5149  18.238  25.287   8.853
 5139POPC   GL2 5150  18.208  25.318   8.853
 5139POPC   C1A 5151  18.251  25.263   8.553
 5139POPC   D2A 5152  18.322  25.250   8.253
 5139POPC   C3A 5153  18.312  25.308   7.953
 5139POPC   C4A 5154  18.298  25.218   7.653
 5139POPC   C1B 5155  18.100  25.313   8.553
 5139POPC   C2B 5156  18.042  25.358   8.253
 5139POPC   C3B 5157  18.090  25.322   7.953
 5139POPC   C4B 5158  18.089  25.406   7.653
 5140POPC   NC3 5159  23.752   0.465   9.453
 5140POPC   PO4 5160  23.679   0.398   9.153
 5140POPC   GL1 5161  23.722   0.464   8.853
 5140POPC   GL2 5162  23.812   0.540   8.853
 5140POPC   C1A 5163  23.732   0.471   8.553
 5140POPC   D2A 5164  23.680   0.396   8.253
 5140POPC   C3A 5165  23.738   0.428   7.953
 5140POPC   C4A 5166  23.722   0.425   7.653
 5140POPC   C1B 5167  23.965   0.620   8.553
 5140POPC   C2B 5168  23.922   0.610   8.253
 5140POPC   C3B 5169  23.968   0.602   7.953
 5140POPC   C4B 5170  23.910   0.529   7.653
 5141POPC   NC3 5171  25.268  14.381   9.453
 5141POPC   PO4 5172  25.261  14.382   9.153
 5141POPC   GL1 5173  25.259  14.368   8.853
 5141POPC   GL2 5174  25.190  14.275   8.853
 5141POPC   C1A 5175  25.269  14.392   8.553
 5141POPC   D2A 5176  25.310  14.401   8.253
 5141POPC   C3A 5177  25.219  14.387   7.953
 5141POPC   C4A 5178  25.305  14.411   7.653
 5141POPC   C1B 5179  25.158  14.186   8.553
 5141POPC   C2B 5180  25.202  14.127   8.253
 5141POPC   C3B 5181  25.160  14.165   7.953
 5141POPC   C4B 5182  25.182  14.182   7.653
 5142POPC   NC3 5183   8.210  28.393   9.453
 5142POPC   PO4 5184   8.151  28.408   9.153
 5142POPC   GL1 5185   8.162  28.373   8.853
 5142POPC   GL2 5186   8.325  28.427   8.853
 5142POPC   C1A 5187   8.150  28.396   8.553
 5142POPC   D2A 5188   8.202  28.407   8.253
 5142POPC   C3A 5189   8.233  28.353   7.953
 5142POPC   C4A 5190   8.196  28.418   7.653
 5142POPC   C1B 5191   8.407  28.411   8.553
 5142POPC   C2B 5192   8.466  28.434   8.253
 5142POPC   C3B 5193   8.472  28.355   7.953
 5142POPC   C4B 5194   8.461  28.425   7.653
 5143POPC   NC3 5195  15.227  39.183   9.453
 5143POPC   PO4 5196  15.191  39.250   9.153
 5143POPC   GL1 5197  15.224  39.218   8.853
 5143POPC   GL2 5198  15.141  39.064   8.853
 5143POPC   C1A 5199  15.203  39.213   8.553
 5143POPC   D2A 5200  15.177  39.270   8.253
 5143POPC   C3A 5201  15.218  39.253   7.953
 5143POPC   C4A 5202  15.206  39.260   7.653
 5143POPC   C1B 5203  15.151  38.935   8.553
 5143POPC   C2B 5204  15.142  38.949   8.253
 5143POPC   C3B 5205  15.173  38.959   7.953
 5143POPC   C4B 5206  15.216  39.008   7.653
 5144POPC   NC3 5207   9.002  26.858   9.453
 5144POPC   PO4 5208   8.984  26.796   9.153
 5144POPC   GL1 5209   8.928  26.771   8.853
 5144POPC   GL2 5210   8.992  26.728   8.853
 5144POPC   C1A 5211   8.952  26.828   8.553
 5144POPC   D2A 5212   8.963  26.774   8.253
 5144POPC   C3A 5213   8.967  26.768   7.953
 5144POPC   C4A 5214   8.973  26.847   7.653
 5144POPC   C1B 5215   8.968  26.549   8.553
 5144POPC   C2B 5216   9.029  26.545   8.253
 5144POPC   C3B 5217   9.022  26.614   7.953
 5144POPC   C4B 5218   9.035  26.574   7.653
 5145POPC   NC3 5219   2.015  23.664   9.453
 5145POPC   PO4 5220   2.027  23.702   9.153
 5145POPC   GL1 5221   1.943  23.747   8.853
 5145POPC   GL2 5222   2.045  23.601   8.853
 5145POPC   C1A 5223   1.957  23.677   8.553
 5145POPC   D2A 5224   1.951  23.695   8.253
 5145POPC   C3A 5225   2.038  23.676   7.953
 5145POPC   C4A 5226   1.955  23.688   7.653
 5145POPC   C1B 5227   2.181  23.520   8.553
 5145POPC   C2B 5228   2.139  23.527   8.253
 5145POPC   C3B 5229   2.178  23.546   7.953
 5145POPC   C4B 5230   2.167  23.500   7.653
 5146POPC   NC3 5231  26.045   8.171   9.453
 5146POPC   PO4 5232  26.052   8.162   9.153
 5146POPC   GL1 5233  26.053   8.220   8.853
 5146POPC   GL2 5234  25.981   8.152   8.853
 5146POPC   C1A 5235  26.009   8.212   8.553
 5146POPC   D2A 5236  26.023   8.181   8.253
 5146POPC   C3A 5237  26.088   8.207   7.953
 5146POPC   C4A 5238  26.026   8.209   7.653
 5146POPC   C1B 5239  25.891   8.000   8.553
 5146POPC   C2B 5240  25.880   7.993   8.253
 5146POPC   C3B 5241  25.864   8.052   7.953
 5146POPC   C4B 5242  25.809   8.011   7.653
 5147POPC   NC3 5243   9.793  42.317   9.453
 5147POPC   PO4 5244   9.714  42.364   9.153
 5147POPC   GL1 5245   9.788  42.355   8.853
 5147POPC   GL2 5246   9.774  42.429   8.853
 5147POPC   C1A 5247   9.731  42.309   8.553
 5147POPC   D2A 5248   9.711  42.327   8.253
 5147POPC   C3A 5249   9.723  42.305   7.953
 5147POPC   C4A 5250   9.720  42.374   7.653
 5147POPC   C1B 5251   9.946  42.510   8.553
 5147POPC   C2B 5252   9.922  42.504   8.253
 5147POPC   C3B 5253   9.909  42.569   7.953
 5147POPC   C4B 5254   9.948  42.548   7.653
 5148POPC   NC3 5255  41.532  44.683   9.453
 5148POPC   PO4 5256  41.538  44.681   9.153
 5148POPC   GL1 5257  41.572  44.657   8.853
 5148POPC   GL2 5258  41.405  44.718   8.853
 5148POPC   C1A 5259  41.602  44.678   8.553
 5148POPC   D2A 5260  41.547  44.688   8.253
 5148POPC   C3A 5261  41.545  44.655   7.953
 5148POPC   C4A 5262  41.562  44.616   7.653
 5148POPC   C1B 5263  41.381  44.797   8.553
 5148POPC   C2B 5264  41.326  44.817   8.253
 5148POPC   C3B 5265  41.310  44.785   7.953
 5148POPC   C4B 5266  41.324  44.808   7.653
 5149POPC   NC3 5267  16.693  21.339   9.453
 5149POPC   PO4 5268  16.688  21.407   9.153
 5149POPC   GL1 5269  16.775  21.395   8.853
 5149POPC   GL2 5270  16.721  21.503   8.853
 5149POPC   C1A 5271  16.760  21.366   8.553
 5149POPC   D2A 5272  16.726  21.353   8.253
 5149POPC   C3A 5273  16.754  21.433   7.953
 5149POPC   C4A 5274  16.698  21.345   7.653
 5149POPC   C1B 5275  16.771  21.668   8.553
 5149POPC   C2B 5276  16.803  21.603   8.253
 5149POPC   C3B 5277  16.755  21.621   7.953
 5149POPC   C4B 5278  16.765  21.578   7.653
 5150POPC   NC3 5279  10.476  36.098   9.453
 5150POPC   PO4 5280  10.530  36.119   9.153
 5150POPC   GL1 5281  10.478  36.124   8.853
 5150POPC   GL2 5282  10.487  36.277   8.853
 5150POPC   C1A 5283  10.553  36.128   8.553
 5150POPC   D2A 5284  10.506  36.157   8.253
 5150POPC   C3A 5285  10.560  36.125   7.953
 5150POPC   C4A 5286  10.536  36.089   7.653
 5150POPC   C1B 5287  10.579  36.373   8.553
 5150POPC   C2B 5288  10.562  36.368   8.253
 5150POPC   C3B 5289  10.531  36.358   7.953
 5150POPC   C4B 5290  10.534  36.354   7.653
 5151POPC   NC3 5291   1.190  37.640   9.453
 5151POPC   PO4 5292   1.262  37.637   9.153
 5151POPC   GL1 5293   1.249  37.655   8.853
 5151POPC   GL2 5294   1.369  37.632   8.853
 5151POPC   C1A 5295   1.258  37.690   8.553
 5151POPC   D2A 5296   1.180  37.640   8.253
 5151POPC   C3A 5297   1.259  37.697   7.953
 5151POPC   C4A 5298   1.182  37.709   7.653
 5151POPC   C1B 5299   1.449  37.643   8.553
 5151POPC   C2B 5300   1.415  37.718   8.253
 5151POPC   C3B 5301   1.449  37.665   7.953
 5151POPC   C4B 5302   1.493  37.685   7.653
 5152POPC   NC3 5303  18.289  39.239   9.453
 5152POPC   PO4 5304  18.326  39.191   9.153
 5152POPC   GL1 5305  18.246  39.244   8.853
 5152POPC   GL2 5306  18.380  39.254   8.853
 5152POPC   C1A 5307  18.263  39.190   8.553
 5152POPC   D2A 5308  18.233  39.272   8.253
 5152POPC   C3A 5309  18.266  39.209   7.953
 5152POPC   C4A 5310  18.299  39.206   7.653
 5152POPC   C1B 5311  18.526  39.235   8.553
 5152POPC   C2B 5312  18.563  39.232   8.253
 5152POPC   C3B 5313  18.577  39.189   7.953
 5152POPC   C4B 5314  18.552  39.197   7.653
 5153POPC   NC3 5315  18.329  21.371   9.453
 5153POPC   PO4 5316  18.295  21.424   9.153
 5153POPC   GL1 5317  18.254  21.426   8.853
 5153POPC   GL2 5318  18.445  21.403   8.853
 5153POPC   C1A 5319  18.310  21.383   8.553
 5153POPC   D2A 5320  18.308  21.350   8.253
 5153POPC   C3A 5321  18.331  21.357   7.953
 5153POPC   C4A 5322  18.280  21.423   7.653
 5153POPC   C1B 5323  18.556  21.399   8.553
 5153POPC   C2B 5324  18.494  21.365   8.253
 5153POPC   C3B 5325  18.527  21.391   7.953
 5153POPC   C4B 5326  18.541  21.356   7.653
 5154POPC   NC3 5327  25.308  36.143   9.453
 5154POPC   PO4 5328  25.278  36.131   9.153
 5154POPC   GL1 5329  25.233  36.163   8.853
 5154POPC   GL2 5330  25.275  36.204   8.853
 5154POPC   C1A 5331  25.306  36.127   8.553
 5154POPC   D2A 5332  25.283  36.127   8.253
 5154POPC   C3A 5333  25.244  36.081   7.953
 5154POPC   C4A 5334  25.307  36.149   7.653
 5154POPC   C1B 5335  25.382  36.307   8.553
 5154POPC   C2B 5336  25.359  36.299   8.253
 5154POPC   C3B 5337  25.365  36.354   7.953
 5154POPC   C4B 5338  25.428  36.330   7.653
 5155POPC   NC3 5339   5.899  37.646   9.453
 5155POPC   PO4 5340   5.821  37.633   9.153
 5155POPC   GL1 5341   5.886  37.715   8.853
 5155POPC   GL2 5342   5.758  37.753   8.853
 5155POPC   C1A 5343   5.850  37.654   8.553
 5155POPC   D2A 5344   5.863  37.655   8.253
 5155POPC   C3A 5345   5.865  37.652   7.953
 5155POPC   C4A 5346   5.884  37.647   7.653
 5155POPC   C1B 5347   5.665  37.820   8.553
 5155POPC   C2B 5348   5.689  37.775   8.253
 5155POPC   C3B 5349   5.680  37.782   7.953
 5155POPC   C4B 5350   5.662  37.842   7.653
 5156POPC   NC3 5351   5.108  35.336   9.453
 5156POPC   PO4 5352   5.090  35.352   9.153
 5156POPC   GL1 5353   5.054  35.314   8.853
 5156POPC   GL2 5354   5.102  35.201   8.853
 5156POPC   C1A 5355   5.077  35.348   8.553
 5156POPC   D2A 5356   5.070  35.392   8.253
 5156POPC   C3A 5357   5.050  35.312   7.953
 5156POPC   C4A 5358   5.080  35.389   7.653
 5156POPC   C1B 5359   5.133  35.060   8.553
 5156POPC   C2B 5360   5.150  35.127   8.253
 5156POPC   C3B 5361   5.110  35.062   7.953
 5156POPC   C4B 5362   5.144  35.137   7.653
 5157POPC   NC3 5363  40.036  16.731   9.453
 5157POPC   PO4 5364  40.014  16.710   9.153
 5157POPC   GL1 5365  40.045  16.695   8.853
 5157POPC   GL2 5366  40.052  16.654   8.853
 5157POPC   C1A 5367  39.982  16.743   8.553
 5157POPC   D2A 5368  39.982  16.759   8.253
 5157POPC   C3A 5369  39.969  16.747   7.953
 5157POPC   C4A 5370  40.043  16.711   7.653
 5157POPC   C1B 5371  40.220  16.589   8.553
 5157POPC   C2B 5372  40.178  16.577   8.253
 5157POPC   C3B 5373  40.158  16.525   7.953
 5157POPC   C4B 5374  40.225  16.614   7.653
 5158POPC   NC3 5375  32.253  22.897   9.453
 5158POPC   PO4 5376  32.235  22.894   9.153
 5158POPC   GL1 5377  32.268  22.943   8.853
 5158POPC   GL2 5378  32.137  22.926   8.853
 5158POPC   C1A 5379  32.201  22.936   8.553
 5158POPC   D2A 5380  32.216  22.931   8.253
 5158POPC   C3A 5381  32.245  22.939   7.953
 5158POPC   C4A 5382  32.298  22.894   7.653
 5158POPC   C1B 5383  31.981  22.974   8.553
 5158POPC   C2B 5384  31.970  22.996   8.253
 5158POPC   C3B 5385  32.045  22.944   7.953
 5158POPC   C4B 5386  32.032  22.972   7.653
 5159POPC   NC3 5387  16.708  33.021   9.453
 5159POPC   PO4 5388  16.741  33.007   9.153
 5159POPC   GL1 5389  16.707  32.991   8.853
 5159POPC   GL2 5390  16.802  33.085   8.853
 5159POPC   C1A 5391  16.747  33.009   8.553
 5159POPC   D2A 5392  16.756  32.992   8.253
 5159POPC   C3A 5393  16.728  33.000   7.953
 5159POPC   C4A 5394  16.686  32.981   7.653
 5159POPC   C1B 5395  16.931  33.164   8.553
 5159POPC   C2B 5396  16.948  33.216   8.253
 5159POPC   C3B 5397  16.943  33.218   7.953
 5159POPC   C4B 5398  16.885  33.178   7.653
 5160POPC   NC3 5399   0.485   3.565   9.453
 5160POPC   PO4 5400   0.448   3.522   9.153
 5160POPC   GL1 5401   0.420   3.541   8.853
 5160POPC   GL2 5402   0.556   3.632   8.853
 5160POPC   C1A 5403   0.473   3.556   8.553
 5160POPC   D2A 5404   0.431   3.574   8.253
 5160POPC   C3A 5405   0.475   3.549   7.953
 5160POPC   C4A 5406   0.404   3.578   7.653
 5160POPC   C1B 5407   0.575   3.748   8.553
 5160POPC   C2B 5408   0.603   3.744   8.253
 5160POPC   C3B 5409   0.545   3.690   7.953
 5160POPC   C4B 5410   0.595   3.708   7.653
 5161POPC   NC3 5411  15.229   9.714   9.453
 5161POPC   PO4 5412  15.140   9.751   9.153
 5161POPC   GL1 5413  15.169   9.775   8.853
 5161POPC   GL2 5414  15.311   9.843   8.853
 5161POPC   C1A 5415  15.221   9.721   8.553
 5161POPC   D2A 5416  15.180   9.767   8.253
 5161POPC   C3A 5417  15.140   9.737   7.953
 5161POPC   C4A 5418  15.170   9.776   7.653
 5161POPC   C1B 5419  15.327   9.952   8.553
 5161POPC   C2B 5420  15.328   9.948   8.253
 5161POPC   C3B 5421  15.355   9.966   7.953
 5161POPC   C4B 5422  15.312   9.888   7.653
 5162POPC   NC3 5423  44.689  33.024   9.453
 5162POPC   PO4 5424  44.709  33.012   9.153
 5162POPC   GL1 5425  44.673  33.047   8.853
 5162POPC   GL2 5426  44.572  33.085   8.853
 5162POPC   C1A 5427  44.634  33.047   8.553
 5162POPC   D2A 5428  44.683  32.980   8.253
 5162POPC   C3A 5429  44.695  33.000   7.953
 5162POPC   C4A 5430  44.657  33.064   7.653
 5162POPC   C1B 5431  44.424  33.038   8.553
 5162POPC   C2B 5432  44.414  33.105   8.253
 5162POPC   C3B 5433  44.416  33.025   7.953
 5162POPC   C4B 5434  44.439  33.028   7.653
 5163POPC   NC3 5435  11.256  13.659   9.453
 5163POPC   PO4 5436  11.321  13.588   9.153
 5163POPC   GL1 5437  11.275  13.642   8.853
 5163POPC   GL2 5438  11.239  13.677   8.853
 5163POPC   C1A 5439  11.304  13.658   8.553
 5163POPC   D2A 5440  11.275  13.671   8.253
 5163POPC   C3A 5441  11.331  13.604   7.953
 5163POPC   C4A 5442  11.293  13.647   7.653
 5163POPC   C1B 5443  11.129  13.832   8.553
 5163POPC   C2B 5444  11.117  13.777   8.253
 5163POPC   C3B 5445  11.158  13.793   7.953
 5163POPC   C4B 5446  11.120  13.806   7.653
 5164POPC   NC3 5447  43.856  15.156   9.453
 5164POPC   PO4 5448  43.933  15.177   9.153
 5164POPC   GL1 5449  43.859  15.193   8.853
 5164POPC   GL2 5450  43.773  15.110   8.853
 5164POPC   C1A 5451  43.882  15.172   8.553
 5164POPC   D2A 5452  43.840  15.197   8.253
 5164POPC   C3A 5453  43.843  15.153   7.953
 5164POPC   C4A 5454  43.868  15.216   7.653
 5164POPC   C1B 5455  43.731  15.016   8.553
 5164POPC   C2B 5456  43.680  15.069   8.253
 5164POPC   C3B 5457  43.648  15.030   7.953
 5164POPC   C4B 5458  43.674  15.007   7.653
 5165POPC   NC3 5459  25.216  12.027   9.453
 5165POPC   PO4 5460  25.271  12.071   9.153
 5165POPC   GL1 5461  25.260  12.035   8.853
 5165POPC   GL2 5462  25.307  11.927   8.853
 5165POPC   C1A 5463  25.307  12.069   8.553
 5165POPC   D2A 5464  25.253  12.070   8.253
 5165POPC   C3A 5465  25.243  12.084   7.953
 5165POPC   C4A 5466  25.289  12.099   7.653
 5165POPC   C1B 5467  25.250  11.867   8.553
 5165POPC   C2B 5468  25.240  11.866   8.253
 5165POPC   C3B 5469  25.253  11.867   7.953
 5165POPC   C4B 5470  25.291  11.787   7.653
 5166POPC   NC3 5471  30.654  28.374   9.453
 5166POPC   PO4 5472  30.661  28.360   9.153
 5166POPC   GL1 5473  30.744  28.382   8.853
 5166POPC   GL2 5474  30.600  28.373   8.853
 5166POPC   C1A 5475  30.669  28.328   8.553
 5166POPC   D2A 5476  30.676  28.332   8.253
 5166POPC   C3A 5477  30.742  28.331   7.953
 5166POPC   C4A 5478  30.683  28.375   7.653
 5166POPC   C1B 5479  30.494  28.465   8.553
 5166POPC   C2B 5480  30.477  28.488   8.253
 5166POPC   C3B 5481  30.477  28.436   7.953
 5166POPC   C4B 5482  30.498  28.426   7.653
 5167POPC   NC3 5483   1.263   8.222   9.453
 5167POPC   PO4 5484   1.190   8.225   9.153
 5167POPC   GL1 5485   1.222   8.179   8.853
 5167POPC   GL2 5486   1.300   8.337   8.853
 5167POPC   C1A 5487   1.165   8.163   8.553
 5167POPC   D2A 5488   1.177   8.236   8.253
 5167POPC   C3A 5489   1.256   8.173   7.953
 5167POPC   C4A 5490   1.169   8.167   7.653
 5167POPC   C1B 5491   1.270   8.435   8.553
 5167POPC   C2B 5492   1.293   8.412   8.253
 5167POPC   C3B 5493   1.261   8.416   7.953
 5167POPC   C4B 5494   1.294   8.412   7.653
 5168POPC   NC3 5495  37.634   5.839   9.453
 5168POPC   PO4 5496  37.721   5.892   9.153
 5168POPC   GL1 5497  37.690   5.893   8.853
 5168POPC   GL2 5498  37.827   5.900   8.853
 5168POPC   C1A 5499  37.670   5.820   8.553
 5168POPC   D2A 5500  37.671   5.834   8.253
 5168POPC   C3A 5501  37.704   5.918   7.953
 5168POPC   C4A 5502  37.676   5.838   7.653
 5168POPC   C1B 5503  37.938   5.906   8.553
 5168POPC   C2B 5504  37.944   5.922   8.253
 5168POPC   C3B 5505  37.952   5.872   7.953
 5168POPC   C4B 5506  37.897   5.913   7.653
 5169POPC   NC3 5507  34.538  36.879   9.453
 5169POPC   PO4 5508  34.534  36.895   9.153
 5169POPC   GL1 5509  34.596  36.952   8.853
 5169POPC   GL2 5510  34.732  36.941   8.853
 5169POPC   C1A 5511  34.586  36.923   8.553
 5169POPC   D2A 5512  34.551  36.936   8.253
 5169POPC   C3A 5513  34.600  36.943   7.953
 5169POPC   C4A 5514  34.531  36.862   7.653
 5169POPC   C1B 5515  34.821  36.892   8.553
 5169POPC   C2B 5516  34.834  36.920   8.253
 5169POPC   C3B 5517  34.867  36.938   7.953
 5169POPC   C4B 5518  34.870  36.903   7.653
 5170POPC   NC3 5519   0.389  26.035   9.453
 5170POPC   PO4 5520   0.422  26.053   9.153
 5170POPC   GL1 5521   0.421  26.085   8.853
 5170POPC   GL2 5522   0.334  26.008   8.853
 5170POPC   C1A 5523   0.413  26.077   8.553
 5170POPC   D2A 5524   0.438  26.070   8.253
 5170POPC   C3A 5525   0.429  26.018   7.953
 5170POPC   C4A 5526   0.401  26.042   7.653
 5170POPC   C1B 5527   0.168  26.051   8.553
 5170POPC   C2B 5528   0.163  26.048   8.253
 5170POPC   C3B 5529   0.188  26.038   7.953
 5170POPC   C4B 5530   0.209  25.964   7.653
 5171POPC   NC3 5531  40.764  20.627   9.453
 5171POPC   PO4 5532  40.745  20.629   9.153
 5171POPC   GL1 5533  40.788  20.608   8.853
 5171POPC   GL2 5534  40.773  20.692   8.853
 5171POPC   C1A 5535  40.770  20.569   8.553
 5171POPC   D2A 5536  40.791  20.613   8.253
 5171POPC   C3A 5537  40.751  20.612   7.953
 5171POPC   C4A 5538  40.828  20.585   7.653
 5171POPC   C1B 5539  40.760  20.808   8.553
 5171POPC   C2B 5540  40.700  20.805   8.253
 5171POPC   C3B 5541  40.739  20.879   7.953
 5171POPC   C4B 5542  40.764  20.879   7.653
 5172POPC   NC3 5543  44.690   3.532   9.453
 5172POPC   PO4 5544  44.673   3.500   9.153
 5172POPC   GL1 5545  44.684   3.574   8.853
 5172POPC   GL2 5546  44.738   3.695   8.853
 5172POPC   C1A 5547  44.613   3.508   8.553
 5172POPC   D2A 5548  44.678   3.558   8.253
 5172POPC   C3A 5549  44.708   3.529   7.953
 5172POPC   C4A 5550  44.614   3.591   7.653
 5172POPC   C1B 5551  44.752   3.716   8.553
 5172POPC   C2B 5552  44.738   3.765   8.253
 5172POPC   C3B 5553  44.786   3.732   7.953
 5172POPC   C4B 5554  44.751   3.736   7.653
 5173POPC   NC3 5555   0.445   8.210   9.453
 5173POPC   PO4 5556   0.389   8.233   9.153
 5173POPC   GL1 5557   0.432   8.240   8.853
 5173POPC   GL2 5558   0.379   8.297   8.853
 5173POPC   C1A 5559   0.482   8.186   8.553
 5173POPC   D2A 5560   0.402   8.173   8.253
 5173POPC   C3A 5561   0.441   8.191   7.953
 5173POPC   C4A 5562   0.438   8.164   7.653
 5173POPC   C1B 5563   0.338   8.386   8.553
 5173POPC   C2B 5564   0.264   8.361   8.253
 5173POPC   C3B 5565   0.317   8.371   7.953
 5173POPC   C4B 5566   0.327   8.381   7.653
 5174POPC   NC3 5567  31.473  11.263   9.453
 5174POPC   PO4 5568  31.439  11.252   9.153
 5174POPC   GL1 5569  31.485  11.310   8.853
 5174POPC   GL2 5570  31.377  11.240   8.853
 5174POPC   C1A 5571  31.455  11.288   8.553
 5174POPC   D2A 5572  31.515  11.255   8.253
 5174POPC   C3A 5573  31.520  11.253   7.953
 5174POPC   C4A 5574  31.472  11.283   7.653
 5174POPC   C1B 5575  31.256  11.085   8.553
 5174POPC   C2B 5576  31.265  11.144   8.253
 5174POPC   C3B 5577  31.288  11.090   7.953
 5174POPC   C4B 5578  31.285  11.093   7.653
 5175POPC   NC3 5579  34.602  13.635   9.453
 5175POPC   PO4 5580  34.527  13.649   9.153
 5175POPC   GL1 5581  34.615  13.627   8.853
 5175POPC   GL2 5582  34.633  13.751   8.853
 5175POPC   C1A 5583  34.583  13.674   8.553
 5175POPC   D2A 5584  34.578  13.608   8.253
 5175POPC   C3A 5585  34.558  13.578   7.953
 5175POPC   C4A 5586  34.579  13.587   7.653
 5175POPC   C1B 5587  34.657  13.866   8.553
 5175POPC   C2B 5588  34.674  13.860   8.253
 5175POPC   C3B 5589  34.619  13.858   7.953
 5175POPC   C4B 5590  34.702  13.856   7.653
 5176POPC   NC3 5591  36.944  15.915   9.453
 5176POPC   PO4 5592  36.953  15.943   9.153
 5176POPC   GL1 5593  36.952  15.918   8.853
 5176POPC   GL2 5594  36.938  15.828   8.853
 5176POPC   C1A 5595  36.916  15.961   8.553
 5176POPC   D2A 5596  36.900  15.970   8.253
 5176POPC   C3A 5597  36.910  15.906   7.953
 5176POPC   C4A 5598  36.898  15.918   7.653
 5176POPC   C1B 5599  37.043  15.757   8.553
 5176POPC   C2B 5600  37.046  15.754   8.253
 5176POPC   C3B 5601  36.970  15.727   7.953
 5176POPC   C4B 5602  37.037  15.716   7.653
 5177POPC   NC3 5603   9.789  28.390   9.453
 5177POPC   PO4 5604   9.747  28.401   9.153
 5177POPC   GL1 5605   9.757  28.336   8.853
 5177POPC   GL2 5606   9.634  28.297   8.853
 5177POPC   C1A 5607   9.723  28.364   8.553
 5177POPC   D2A 5608   9.730  28.391   8.253
 5177POPC   C3A 5609   9.748  28.381   7.953
 5177POPC   C4A 5610   9.749  28.332   7.653
 5177POPC   C1B 5611   9.475  28.326   8.553
 5177POPC   C2B 5612   9.533  28.324   8.253
 5177POPC   C3B 5613   9.480  28.294   7.953
 5177POPC   C4B 5614   9.518  28.362   7.653
 5178POPC   NC3 5615   4.325  23.680   9.453
 5178POPC   PO4 5616   4.327  23.761   9.153
 5178POPC   GL1 5617   4.320  23.747   8.853
 5178POPC   GL2 5618   4.308  23.848   8.853
 5178POPC   C1A 5619   4.333  23.745   8.553
 5178POPC   D2A 5620   4.326  23.746   8.253
 5178POPC   C3A 5621   4.295  23.707   7.953
 5178POPC   C4A 5622   4.294  23.702   7.653
 5178POPC   C1B 5623   4.235  23.928   8.553
 5178POPC   C2B 5624   4.212  23.940   8.253
 5178POPC   C3B 5625   4.278  23.959   7.953
 5178POPC   C4B 5626   4.224  23.953   7.653
 5179POPC   NC3 5627  31.487  29.184   9.453
 5179POPC   PO4 5628  31.500  29.130   9.153
 5179POPC   GL1 5629  31.516  29.117   8.853
 5179POPC   GL2 5630  31.479  29.274   8.853
 5179POPC   C1A 5631  31.521  29.131   8.553
 5179POPC   D2A 5632  31.437  29.109   8.253
 5179POPC   C3A 5633  31.434  29.176   7.953
 5179POPC   C4A 5634  31.476  29.138   7.653
 5179POPC   C1B 5635  31.535  29.432   8.553
 5179POPC   C2B 5636  31.529  29.437   8.253
 5179POPC   C3B 5637  31.554  29.366   7.953
 5179POPC   C4B 5638  31.530  29.341   7.653
 5180POPC   NC3 5639  16.721   1.970   9.453
 5180POPC   PO4 5640  16.699   1.963   9.153
 5180POPC   GL1 5641  16.769   2.014   8.853
 5180POPC   GL2 5642  16.829   1.895   8.853
 5180POPC   C1A 5643  16.729   1.962   8.553
 5180POPC   D2A 5644  16.767   2.030   8.253
 5180POPC   C3A 5645  16.774   2.017   7.953
 5180POPC   C4A 5646  16.773   2.025   7.653
 5180POPC   C1B 5647  16.893   1.793   8.553
 5180POPC   C2B 5648  16.899   1.828   8.253
 5180POPC   C3B 5649  16.895   1.827   7.953
 5180POPC   C4B 5650  16.952   1.828   7.653
 5181POPC   NC3 5651  38.475   3.492   9.453
 5181POPC   PO4 5652  38.472   3.543   9.153
 5181POPC   GL1 5653  38.473   3.533   8.853
 5181POPC   GL2 5654  38.422   3.405   8.853
 5181POPC   C1A 5655  38.498   3.501   8.553
 5181POPC   D2A 5656  38.436   3.517   8.253
 5181POPC   C3A 5657  38.419   3.493   7.953
 5181POPC   C4A 5658  38.424   3.581   7.653
 5181POPC   C1B 5659  38.406   3.317   8.553
 5181POPC   C2B 5660  38.380   3.257   8.253
 5181POPC   C3B 5661  38.411   3.294   7.953
 5181POPC   C4B 5662  38.345   3.353   7.653
 5182POPC   NC3 5663  12.068  12.832   9.453
 5182POPC   PO4 5664  12.080  12.887   9.153
 5182POPC   GL1 5665  12.120  12.803   8.853
 5182POPC   GL2 5666  11.978  12.767   8.853
 5182POPC   C1A 5667  12.033  12.870   8.553
 5182POPC   D2A 5668  12.108  12.807   8.253
 5182POPC   C3A 5669  12.082  12.820   7.953
 5182POPC   C4A 5670  12.038  12.848   7.653
 5182POPC   C1B 5671  11.900  12.613   8.553
 5182POPC   C2B 5672  11.895  12.650   8.253
 5182POPC   C3B 5673  11.880  12.619   7.953
 5182POPC   C4B 5674  11.945  12.646   7.653
 5183POPC   NC3 5675  28.357  38.473   9.453
 5183POPC   PO4 5676  28.343  38.431   9.153
 5183POPC   GL1 5677  28.397  38.468   8.853
 5183POPC   GL2 5678  28.467  38.356   8.853
 5183POPC   C1A 5679  28.412  38.432   8.553
 5183POPC   D2A 5680  28.331  38.434   8.253
 5183POPC   C3A 5681  28.326  38.468   7.953
 5183POPC   C4A 5682  28.363  38.443   7.653
 5183POPC   C1B 5683  28.502  38.237   8.553
 5183POPC   C2B 5684  28.486  38.276   8.253
 5183POPC   C3B 5685  28.531  38.288   7.953
 5183POPC   C4B 5686  28.524  38.262   7.653
 5184POPC   NC3 5687  39.979  33.775   9.453
 5184POPC   PO4 5688  39.966  33.774   9.153
 5184POPC   GL1 5689  40.035  33.805   8.853
 5184POPC   GL2 5690  40.090  33.865   8.853
 5184POPC   C1A 5691  39.986  33.805   8.553
 5184POPC   D2A 5692  39.991  33.828   8.253
 5184POPC   C3A 5693  39.987  33.754   7.953
 5184POPC   C4A 5694  40.010  33.848   7.653
 5184POPC   C1B 5695  40.262  33.904   8.553
 5184POPC   C2B 5696  40.273  33.889   8.253
 5184POPC   C3B 5697  40.241  33.822   7.953
 5184POPC   C4B 5698  40.269  33.842   7.653
 5185POPC   NC3 5699  39.964   2.008   9.453
 5185POPC   PO4 5700  40.018   2.004   9.153
 5185POPC   GL1 5701  39.987   2.002   8.853
 5185POPC   GL2 5702  40.086   1.963   8.853
 5185POPC   C1A 5703  39.961   1.982   8.553
 5185POPC   D2A 5704  39.957   1.971   8.253
 5185POPC   C3A 5705  39.997   1.957   7.953
 5185POPC   C4A 5706  39.995   1.941   7.653
 5185POPC   C1B 5707  40.293   1.908   8.553
 5185POPC   C2B 5708  40.265   1.961   8.253
 5185POPC   C3B 5709  40.267   2.001   7.953
 5185POPC   C4B 5710  40.247   1.917   7.653
 5186POPC   NC3 5711  26.831  17.528   9.453
 5186POPC   PO4 5712  26.833  17.535   9.153
 5186POPC   GL1 5713  26.783  17.535   8.853
 5186POPC   GL2 5714  26.695  17.601   8.853
 5186POPC   C1A 5715  26.779  17.501   8.553
 5186POPC   D2A 5716  26.776  17.479   8.253
 5186POPC   C3A 5717  26.839  17.531   7.953
 5186POPC   C4A 5718  26.790  17.483   7.653
 5186POPC   C1B 5719  26.666  17.714   8.553
 5186POPC   C2B 5720  26.663  17.644   8.253
 5186POPC   C3B 5721  26.630  17.679   7.953
 5186POPC   C4B 5722  26.613  17.713   7.653
 5187POPC   NC3 5723  31.423  42.303   9.453
 5187POPC   PO4 5724  31.522  42.354   9.153
 5187POPC   GL1 5725  31.491  42.319   8.853
 5187POPC   GL2 5726  31.330  42.365   8.853
 5187POPC   C1A 5727  31.495  42.301   8.553
 5187POPC   D2A 5728  31.444  42.374   8.253
 5187POPC   C3A 5729  31.484  42.299   7.953
 5187POPC   C4A 5730  31.435  42.309   7.653
 5187POPC   C1B 5731  31.267  42.422   8.553
 5187POPC   C2B 5732  31.240  42.428   8.253
 5187POPC   C3B 5733  31.264  42.504   7.953
 5187POPC   C4B 5734  31.255  42.484   7.653
 5188POPC   NC3 5735  23.755  10.507   9.453
 5188POPC   PO4 5736  23.752  10.574   9.153
 5188POPC   GL1 5737  23.677  10.510   8.853
 5188POPC   GL2 5738  23.811  10.568   8.853
 5188POPC   C1A 5739  23.677  10.550   8.553
 5188POPC   D2A 5740  23.739  10.526   8.253
 5188POPC   C3A 5741  23.744  10.528   7.953
 5188POPC   C4A 5742  23.758  10.534   7.653
 5188POPC   C1B 5743  23.927  10.675   8.553
 5188POPC   C2B 5744  23.908  10.596   8.253
 5188POPC   C3B 5745  23.930  10.627   7.953
 5188POPC   C4B 5746  23.947  10.638   7.653
 5189POPC   NC3 5747   5.871  39.247   9.453
 5189POPC   PO4 5748   5.842  39.211   9.153
 5189POPC   GL1 5749   5.913  39.217   8.853
 5189POPC   GL2 5750   5.979  39.273   8.853
 5189POPC   C1A 5751   5.883  39.256   8.553
 5189POPC   D2A 5752   5.914  39.245   8.253
 5189POPC   C3A 5753   5.824  39.202   7.953
 5189POPC   C4A 5754   5.859  39.218   7.653
 5189POPC   C1B 5755   6.115  39.233   8.553
 5189POPC   C2B 5756   6.106  39.294   8.253
 5189POPC   C3B 5757   6.115  39.314   7.953
 5189POPC   C4B 5758   6.096  39.295   7.653
 5190POPC   NC3 5759  12.875   1.244   9.453
 5190POPC   PO4 5760  12.820   1.219   9.153
 5190POPC   GL1 5761  12.846   1.174   8.853
 5190POPC   GL2 5762  12.838   1.358   8.853
 5190POPC   C1A 5763  12.876   1.182   8.553
 5190POPC   D2A 5764  12.876   1.225   8.253
 5190POPC   C3A 5765  12.885   1.232   7.953
 5190POPC   C4A 5766  12.849   1.188   7.653
 5190POPC   C1B 5767  12.894   1.446   8.553
 5190POPC   C2B 5768  12.874   1.426   8.253
 5190POPC   C3B 5769  12.872   1.494   7.953
 5190POPC   C4B 5770  12.854   1.479   7.653
 5191POPC   NC3 5771  12.876  44.707   9.453
 5191POPC   PO4 5772  12.890  44.636   9.153
 5191POPC   GL1 5773  12.891  44.688   8.853
 5191POPC   GL2 5774  12.913  44.518   8.853
 5191POPC   C1A 5775  12.869  44.667   8.553
 5191POPC   D2A 5776  12.884  44.618   8.253
 5191POPC   C3A 5777  12.809  44.710   7.953
 5191POPC   C4A 5778  12.806  44.613   7.653
 5191POPC   C1B 5779  12.871  44.405   8.553
 5191POPC   C2B 5780  12.856  44.463   8.253
 5191POPC   C3B 5781  12.866  44.399   7.953
 5191POPC   C4B 5782  12.852  44.371   7.653
 5192POPC   NC3 5783  21.428  19.010   9.453
 5192POPC   PO4 5784  21.427  19.091   9.153
 5192POPC   GL1 5785  21.344  19.046   8.853
 5192POPC   GL2 5786  21.330  19.159   8.853
 5192POPC   C1A 5787  21.380  19.024   8.553
 5192POPC   D2A 5788  21.373  19.078   8.253
 5192POPC   C3A 5789  21.417  19.057   7.953
 5192POPC   C4A 5790  21.365  19.032   7.653
 5192POPC   C1B 5791  21.263  19.294   8.553
 5192POPC   C2B 5792  21.323  19.343   8.253
 5192POPC   C3B 5793  21.328  19.259   7.953
 5192POPC   C4B 5794  21.298  19.325   7.653
 5193POPC   NC3 5795  25.255   1.174   9.453
 5193POPC   PO4 5796  25.233   1.226   9.153
 5193POPC   GL1 5797  25.252   1.169   8.853
 5193POPC   GL2 5798  25.192   1.098   8.853
 5193POPC   C1A 5799  25.234   1.173   8.553
 5193POPC   D2A 5800  25.311   1.181   8.253
 5193POPC   C3A 5801  25.302   1.212   7.953
 5193POPC   C4A 5802  25.219   1.188   7.653
 5193POPC   C1B 5803  25.161   0.983   8.553
 5193POPC   C2B 5804  25.206   0.925   8.253
 5193POPC   C3B 5805  25.250   0.927   7.953
 5193POPC   C4B 5806  25.176   0.962   7.653
 5194POPC   NC3 5807   0.405   8.956   9.453
 5194POPC   PO4 5808   0.454   8.933   9.153
 5194POPC   GL1 5809   0.425   8.972   8.853
 5194POPC   GL2 5810   0.482   8.829   8.853
 5194POPC   C1A 5811   0.446   8.992   8.553
 5194POPC   D2A 5812   0.434   9.020   8.253
 5194POPC   C3A 5813   0.473   8.947   7.953
 5194POPC   C4A 5814   0.421   8.953   7.653
 5194POPC   C1B 5815   0.431   8.702   8.553
 5194POPC   C2B 5816   0.483   8.674   8.253
 5194POPC   C3B 5817   0.389   8.705   7.953
 5194POPC   C4B 5818   0.432   8.732   7.653
 5195POPC   NC3 5819  21.430  39.988   9.453
 5195POPC   PO4 5820  21.351  39.993   9.153
 5195POPC   GL1 5821  21.372  39.971   8.853
 5195POPC   GL2 5822  21.401  39.927   8.853
 5195POPC   C1A 5823  21.407  39.999   8.553
 5195POPC   D2A 5824  21.341  40.053   8.253
 5195POPC   C3A 5825  21.417  39.965   7.953
 5195POPC   C4A 5826  21.356  39.993   7.653
 5195POPC   C1B 5827  21.531  39.832   8.553
 5195POPC   C2B 5828  21.524  39.801   8.253
 5195POPC   C3B 5829  21.477  39.752   7.953
 5195POPC   C4B 5830  21.511  39.797   7.653
 5196POPC   NC3 5831   8.982  35.341   9.453
 5196POPC   PO4 5832   9.016  35.330   9.153
 5196POPC   GL1 5833   8.989  35.389   8.853
 5196POPC   GL2 5834   8.903  35.431   8.853
 5196POPC   C1A 5835   8.934  35.313   8.553
 5196POPC   D2A 5836   8.967  35.388   8.253
 5196POPC   C3A 5837   8.951  35.331   7.953
 5196POPC   C4A 5838   8.986  35.355   7.653
 5196POPC   C1B 5839   8.817  35.577   8.553
 5196POPC   C2B 5840   8.811  35.548   8.253
 5196POPC   C3B 5841   8.802  35.557   7.953
 5196POPC   C4B 5842   8.815  35.565   7.653
 5197POPC   NC3 5843  42.302   4.343   9.453
 5197POPC   PO4 5844  42.299   4.303   9.153
 5197POPC   GL1 5845  42.287   4.348   8.853
 5197POPC   GL2 5846  42.397   4.403   8.853
 5197POPC   C1A 5847  42.340   4.366   8.553
 5197POPC   D2A 5848  42.354   4.306   8.253
 5197POPC   C3A 5849  42.296   4.307   7.953
 5197POPC   C4A 5850  42.320   4.345   7.653
 5197POPC   C1B 5851  42.546   4.461   8.553
 5197POPC   C2B 5852  42.511   4.431   8.253
 5197POPC   C3B 5853  42.570   4.429   7.953
 5197POPC   C4B 5854  42.553   4.444   7.653
 5198POPC   NC3 5855  40.028  35.331   9.453
 5198POPC   PO4 5856  40.007  35.319   9.153
 5198POPC   GL1 5857  39.974  35.359   8.853
 5198POPC   GL2 5858  39.976  35.269   8.853
 5198POPC   C1A 5859  39.964  35.325   8.553
 5198POPC   D2A 5860  40.026  35.354   8.253
 5198POPC   C3A 5861  40.020  35.391   7.953
 5198POPC   C4A 5862  40.053  35.395   7.653
 5198POPC   C1B 5863  39.989  35.082   8.553
 5198POPC   C2B 5864  39.971  35.063   8.253
 5198POPC   C3B 5865  40.020  35.147   7.953
 5198POPC   C4B 5866  39.928  35.077   7.653
 5199POPC   NC3 5867  20.617  16.726   9.453
 5199POPC   PO4 5868  20.590  16.750   9.153
 5199POPC   GL1 5869  20.647  16.709   8.853
 5199POPC   GL2 5870  20.759  16.827   8.853
 5199POPC   C1A 5871  20.656  16.717   8.553
 5199POPC   D2A 5872  20.567  16.707   8.253
 5199POPC   C3A 5873  20.643  16.734   7.953
 5199POPC   C4A 5874  20.601  16.703   7.653
 5199POPC   C1B 5875  20.840  16.822   8.553
 5199POPC   C2B 5876  20.865  16.853   8.253
 5199POPC   C3B 5877  20.785  16.840   7.953
 5199POPC   C4B 5878  20.783  16.850   7.653
 5200POPC   NC3 5879  12.056  43.143   9.453
 5200POPC   PO4 5880  12.100  43.126   9.153
 5200POPC   GL1 5881  12.029  43.117   8.853
 5200POPC   GL2 5882  12.054  42.965   8.853
 5200POPC   C1A 5883  12.098  43.160   8.553
 5200POPC   D2A 5884  12.030  43.128   8.253
 5200POPC   C3A 5885  12.065  43.160   7.953
 5200POPC   C4A 5886  12.036  43.135   7.653
 5200POPC   C1B 5887  12.092  42.850   8.553
 5200POPC   C2B 5888  12.094  42.834   8.253
 5200POPC   C3B 5889  12.064  42.826   7.953
 5200POPC   C4B 5890  12.134  42.813   7.653
 5201POPC   NC3 5891  40.052  41.583   9.453
 5201POPC   PO4 5892  39.972  41.511   9.153
 5201POPC   GL1 5893  39.997  41.532   8.853
 5201POPC   GL2 5894  39.888  41.664   8.853
 5201POPC   C1A 5895  39.997  41.592   8.553
 5201POPC   D2A 5896  39.990  41.544   8.253
 5201POPC   C3A 5897  39.957  41.550   7.953
 5201POPC   C4A 5898  40.035  41.596   7.653
 5201POPC   C1B 5899  39.886  41.752   8.553
 5201POPC   C2B 5900  39.876  41.780   8.253
 5201POPC   C3B 5901  39.845  41.736   7.953
 5201POPC   C4B 5902  39.842  41.805   7.653
 5202POPC   NC3 5903   5.894  33.778   9.453
 5202POPC   PO4 5904   5.841  33.841   9.153
 5202POPC   GL1 5905   5.916  33.768   8.853
 5202POPC   GL2 5906   5.817  33.889   8.853
 5202POPC   C1A 5907   5.881  33.825   8.553
 5202POPC   D2A 5908   5.821  33.833   8.253
 5202POPC   C3A 5909   5.871  33.761   7.953
 5202POPC   C4A 5910   5.889  33.845   7.653
 5202POPC   C1B 5911   5.713  33.989   8.553
 5202POPC   C2B 5912   5.785  33.979   8.253
 5202POPC   C3B 5913   5.763  33.981   7.953
 5202POPC   C4B 5914   5.776  34.011   7.653
 5203POPC   NC3 5915  41.532  16.732   9.453
 5203POPC   PO4 5916  41.522  16.727   9.153
 5203POPC   GL1 5917  41.538  16.708   8.853
 5203POPC   GL2 5918  41.482  16.692   8.853
 5203POPC   C1A 5919  41.571  16.742   8.553
 5203POPC   D2A 5920  41.526  16.708   8.253
 5203POPC   C3A 5921  41.555  16.763   7.953
 5203POPC   C4A 5922  41.544  16.727   7.653
 5203POPC   C1B 5923  41.346  16.671   8.553
 5203POPC   C2B 5924  41.368  16.682   8.253
 5203POPC   C3B 5925  41.357  16.693   7.953
 5203POPC   C4B 5926  41.293  16.652   7.653
 5204POPC   NC3 5927   6.654  27.568   9.453
 5204POPC   PO4 5928   6.688  27.553   9.153
 5204POPC   GL1 5929   6.616  27.630   8.853
 5204POPC   GL2 5930   6.521  27.465   8.853
 5204POPC   C1A 5931   6.634  27.544   8.553
 5204POPC   D2A 5932   6.642  27.633   8.253
 5204POPC   C3A 5933   6.689  27.579   7.953
 5204POPC   C4A 5934   6.690  27.575   7.653
 5204POPC   C1B 5935   6.437  27.389   8.553
 5204POPC   C2B 5936   6.470  27.399   8.253
 5204POPC   C3B 5937   6.528  27.389   7.953
 5204POPC   C4B 5938   6.475  27.358   7.653
 5205POPC   NC3 5939  38.413  33.807   9.453
 5205POPC   PO4 5940  38.434  33.772   9.153
 5205POPC   GL1 5941  38.479  33.815   8.853
 5205POPC   GL2 5942  38.494  33.885   8.853
 5205POPC   C1A 5943  38.496  33.752   8.553
 5205POPC   D2A 5944  38.500  33.769   8.253
 5205POPC   C3A 5945  38.500  33.804   7.953
 5205POPC   C4A 5946  38.453  33.788   7.653
 5205POPC   C1B 5947  38.409  34.059   8.553
 5205POPC   C2B 5948  38.467  34.062   8.253
 5205POPC   C3B 5949  38.451  34.026   7.953
 5205POPC   C4B 5950  38.458  34.015   7.653
 5206POPC   NC3 5951  41.536  11.264   9.453
 5206POPC   PO4 5952  41.597  11.254   9.153
 5206POPC   GL1 5953  41.512  11.302   8.853
 5206POPC   GL2 5954  41.674  11.238   8.853
 5206POPC   C1A 5955  41.520  11.333   8.553
 5206POPC   D2A 5956  41.527  11.324   8.253
 5206POPC   C3A 5957  41.592  11.340   7.953
 5206POPC   C4A 5958  41.561  11.266   7.653
 5206POPC   C1B 5959  41.665  11.110   8.553
 5206POPC   C2B 5960  41.689  11.115   8.253
 5206POPC   C3B 5961  41.697  11.058   7.953
 5206POPC   C4B 5962  41.736  11.044   7.653
 5207POPC   NC3 5963  29.878   9.786   9.453
 5207POPC   PO4 5964  29.954   9.757   9.153
 5207POPC   GL1 5965  29.960   9.785   8.853
 5207POPC   GL2 5966  30.070   9.784   8.853
 5207POPC   C1A 5967  29.871   9.769   8.553
 5207POPC   D2A 5968  29.968   9.704   8.253
 5207POPC   C3A 5969  29.940   9.715   7.953
 5207POPC   C4A 5970  29.912   9.794   7.653
 5207POPC   C1B 5971  30.096   9.917   8.553
 5207POPC   C2B 5972  30.144   9.863   8.253
 5207POPC   C3B 5973  30.143   9.876   7.953
 5207POPC   C4B 5974  30.161   9.916   7.653
 5208POPC   NC3 5975   3.531  33.791   9.453
 5208POPC   PO4 5976   3.578  33.838   9.153
 5208POPC   GL1 5977   3.581  33.791   8.853
 5208POPC   GL2 5978   3.428  33.802   8.853
 5208POPC   C1A 5979   3.566  33.758   8.553
 5208POPC   D2A 5980   3.588  33.782   8.253
 5208POPC   C3A 5981   3.504  33.790   7.953
 5208POPC   C4A 5982   3.503  33.842   7.653
 5208POPC   C1B 5983   3.309  33.831   8.553
 5208POPC   C2B 5984   3.308  33.746   8.253
 5208POPC   C3B 5985   3.325  33.751   7.953
 5208POPC   C4B 5986   3.260  33.772   7.653
 5209POPC   NC3 5987  42.351   0.460   9.453
 5209POPC   PO4 5988  42.320   0.476   9.153
 5209POPC   GL1 5989  42.384   0.465   8.853
 5209POPC   GL2 5990  42.382   0.341   8.853
 5209POPC   C1A 5991  42.374   0.406   8.553
 5209POPC   D2A 5992  42.358   0.432   8.253
 5209POPC   C3A 5993  42.315   0.483   7.953
 5209POPC   C4A 5994  42.350   0.436   7.653
 5209POPC   C1B 5995  42.482   0.211   8.553
 5209POPC   C2B 5996  42.504   0.176   8.253
 5209POPC   C3B 5997  42.415   0.235   7.953
 5209POPC   C4B 5998  42.443   0.213   7.653
 5210POPC   NC3 5999  36.163  37.637   9.453
 5210POPC   PO4 6000  36.101  37.685   9.153
 5210POPC   GL1 6001  36.169  37.677   8.853
 5210POPC   GL2 6002  36.294  37.682   8.853
 5210POPC   C1A 6003  36.141  37.721   8.553
 5210POPC   D2A 6004  36.123  37.632   8.253
 5210POPC   C3A 6005  36.120  37.719   7.953
 5210POPC   C4A 6006  36.121  37.663   7.653
 5210POPC   C1B 6007  36.358  37.572   8.553
 5210POPC   C2B 6008  36.386  37.605   8.253
 5210POPC   C3B 6009  36.394  37.583   7.953
 5210POPC   C4B 6010  36.362  37.625   7.653
 5211POPC   NC3 6011  15.914   5.912   9.453
 5211POPC   PO4 6012  15.986   5.858   9.153
 5211POPC   GL1 6013  15.958   5.907   8.853
 5211POPC   GL2 6014  16.051   5.904   8.853
 5211POPC   C1A 6015  15.987   5.867   8.553
 5211POPC   D2A 6016  15.916   5.890   8.253
 5211POPC   C3A 6017  15.935   5.824   7.953
 5211POPC   C4A 6018  15.978   5.850   7.653
 5211POPC   C1B 6019  16.189   5.991   8.553
 5211POPC   C2B 6020  16.124   5.966   8.253
 5211POPC   C3B 6021  16.206   6.046   7.953
 5211POPC   C4B 6022  16.155   6.005   7.653
 5212POPC   NC3 6023  40.022  13.631   9.453
 5212POPC   PO4 6024  40.008  13.632   9.153
 5212POPC   GL1 6025  40.034  13.670   8.853
 5212POPC   GL2 6026  39.930  13.531   8.853
 5212POPC   C1A 6027  39.971  13.602   8.553
 5212POPC   D2A 6028  39.965  13.606   8.253
 5212POPC   C3A 6029  39.975  13.647   7.953
 5212POPC   C4A 6030  39.988  13.676   7.653
 5212POPC   C1B 6031  39.761  13.465   8.553
 5212POPC   C2B 6032  39.839  13.504   8.253
 5212POPC   C3B 6033  39.809  13.530   7.953
 5212POPC   C4B 6034  39.835  13.510   7.653
 5213POPC   NC3 6035  18.285   4.296   9.453
 5213POPC   PO4 6036  18.260   4.276   9.153
 5213POPC   GL1 6037  18.258   4.283   8.853
 5213POPC   GL2 6038  18.369   4.415   8.853
 5213POPC   C1A 6039  18.318   4.354   8.553
 5213POPC   D2A 6040  18.255   4.286   8.253
 5213POPC   C3A 6041  18.294   4.360   7.953
 5213POPC   C4A 6042  18.311   4.297   7.653
 5213POPC   C1B 6043  18.407   4.541   8.553
 5213POPC   C2B 6044  18.378   4.558   8.253
 5213POPC   C3B 6045  18.459   4.514   7.953
 5213POPC   C4B 6046  18.429   4.502   7.653
 5214POPC   NC3 6047  13.657  19.832   9.453
 5214POPC   PO4 6048  13.601  19.815   9.153
 5214POPC   GL1 6049  13.668  19.878   8.853
 5214POPC   GL2 6050  13.566  19.947   8.853
 5214POPC   C1A 6051  13.619  19.841   8.553
 5214POPC   D2A 6052  13.659  19.823   8.253
 5214POPC   C3A 6053  13.677  19.856   7.953
 5214POPC   C4A 6054  13.609  19.816   7.653
 5214POPC   C1B 6055  13.507  20.022   8.553
 5214POPC   C2B 6056  13.498  20.082   8.253
 5214POPC   C3B 6057  13.491  20.083   7.953
 5214POPC   C4B 6058  13.489  20.007   7.653
 5215POPC   NC3 6059  36.167  36.894   9.453
 5215POPC   PO4 6060  36.145  36.895   9.153
 5215POPC   GL1 6061  36.096  36.866   8.853
 5215POPC   GL2 6062  36.070  36.747   8.853
 5215POPC   C1A 6063  36.155  36.913   8.553
 5215POPC   D2A 6064  36.178  36.908   8.253
 5215POPC   C3A 6065  36.151  36.952   7.953
 5215POPC   C4A 6066  36.090  36.944   7.653
 5215POPC   C1B 6067  35.957  36.659   8.553
 5215POPC   C2B 6068  35.993  36.729   8.253
 5215POPC   C3B 6069  35.962  36.681   7.953
 5215POPC   C4B 6070  36.053  36.694   7.653
 5216POPC   NC3 6071  33.071  33.024   9.453
 5216POPC   PO4 6072  33.052  32.986   9.153
 5216POPC   GL1 6073  33.048  33.015   8.853
 5216POPC   GL2 6074  32.930  33.030   8.853
 5216POPC   C1A 6075  32.989  33.027   8.553
 5216POPC   D2A 6076  33.013  33.025   8.253
 5216POPC   C3A 6077  33.028  33.005   7.953
 5216POPC   C4A 6078  33.023  32.990   7.653
 5216POPC   C1B 6079  32.776  32.967   8.553
 5216POPC   C2B 6080  32.821  32.960   8.253
 5216POPC   C3B 6081  32.796  32.926   7.953
 5216POPC   C4B 6082  32.778  32.930   7.653
 5217POPC   NC3 6083  44.625   2.788   9.453
 5217POPC   PO4 6084  44.675   2.759   9.153
 5217POPC   GL1 6085  44.677   2.755   8.853
 5217POPC   GL2 6086  44.665   2.908   8.853
 5217POPC   C1A 6087  44.623   2.733   8.553
 5217POPC   D2A 6088  44.622   2.739   8.253
 5217POPC   C3A 6089  44.649   2.765   7.953
 5217POPC   C4A 6090  44.698   2.742   7.653
 5217POPC   C1B 6091  44.643   2.971   8.553
 5217POPC   C2B 6092  44.626   3.048   8.253
 5217POPC   C3B 6093  44.569   3.033   7.953
 5217POPC   C4B 6094  44.597   3.055   7.653
 5218POPC   NC3 6095  20.576   9.729   9.453
 5218POPC   PO4 6096  20.656   9.771   9.153
 5218POPC   GL1 6097  20.604   9.748   8.853
 5218POPC   GL2 6098  20.653   9.590   8.853
 5218POPC   C1A 6099  20.572   9.787   8.553
 5218POPC   D2A 6100  20.614   9.767   8.253
 5218POPC   C3A 6101  20.587   9.744   7.953
 5218POPC   C4A 6102  20.644   9.751   7.653
 5218POPC   C1B 6103  20.666   9.558   8.553
 5218POPC   C2B 6104  20.679   9.509   8.253
 5218POPC   C3B 6105  20.717   9.500   7.953
 5218POPC   C4B 6106  20.750   9.492   7.653
 5219POPC   NC3 6107  29.125  12.121   9.453
 5219POPC   PO4 6108  29.106  12.062   9.153
 5219POPC   GL1 6109  29.129  12.063   8.853
 5219POPC   GL2 6110  29.278  12.068   8.853
 5219POPC   C1A 6111  29.152  12.053   8.553
 5219POPC   D2A 6112  29.098  12.077   8.253
 5219POPC   C3A 6113  29.145  12.115   7.953
 5219POPC   C4A 6114  29.185  12.066   7.653
 5219POPC   C1B 6115  29.348  12.018   8.553
 5219POPC   C2B 6116  29.353  12.067   8.253
 5219POPC   C3B 6117  29.359  12.055   7.953
 5219POPC   C4B 6118  29.388  12.040   7.653
 5220POPC   NC3 6119  30.660  35.370   9.453
 5220POPC   PO4 6120  30.663  35.305   9.153
 5220POPC   GL1 6121  30.672  35.348   8.853
 5220POPC   GL2 6122  30.595  35.299   8.853
 5220POPC   C1A 6123  30.726  35.375   8.553
 5220POPC   D2A 6124  30.723  35.346   8.253
 5220POPC   C3A 6125  30.702  35.316   7.953
 5220POPC   C4A 6126  30.741  35.331   7.653
 5220POPC   C1B 6127  30.507  35.160   8.553
 5220POPC   C2B 6128  30.492  35.231   8.253
 5220POPC   C3B 6129  30.453  35.209   7.953
 5220POPC   C4B 6130  30.479  35.209   7.653
 5221POPC   NC3 6131  23.753  17.483   9.453
 5221POPC   PO4 6132  23.686  17.495   9.153
 5221POPC   GL1 6133  23.721  17.520   8.853
 5221POPC   GL2 6134  23.791  17.400   8.853
 5221POPC   C1A 6135  23.664  17.510   8.553
 5221POPC   D2A 6136  23.762  17.555   8.253
 5221POPC   C3A 6137  23.680  17.525   7.953
 5221POPC   C4A 6138  23.703  17.499   7.653
 5221POPC   C1B 6139  23.874  17.326   8.553
 5221POPC   C2B 6140  23.869  17.287   8.253
 5221POPC   C3B 6141  23.893  17.346   7.953
 5221POPC   C4B 6142  23.881  17.304   7.653
 5222POPC   NC3 6143  22.986  40.020   9.453
 5222POPC   PO4 6144  22.922  39.969   9.153
 5222POPC   GL1 6145  22.912  40.019   8.853
 5222POPC   GL2 6146  22.928  40.149   8.853
 5222POPC   C1A 6147  22.904  39.968   8.553
 5222POPC   D2A 6148  22.898  40.018   8.253
 5222POPC   C3A 6149  22.918  39.968   7.953
 5222POPC   C4A 6150  22.947  40.018   7.653
 5222POPC   C1B 6151  23.026  40.277   8.553
 5222POPC   C2B 6152  23.020  40.260   8.253
 5222POPC   C3B 6153  22.933  40.301   7.953
 5222POPC   C4B 6154  22.961  40.256   7.653
 5223POPC   NC3 6155  34.528  22.944   9.453
 5223POPC   PO4 6156  34.567  22.935   9.153
 5223POPC   GL1 6157  34.533  22.914   8.853
 5223POPC   GL2 6158  34.707  22.849   8.853
 5223POPC   C1A 6159  34.581  22.940   8.553
 5223POPC   D2A 6160  34.588  22.985   8.253
 5223POPC   C3A 6161  34.527  22.902   7.953
 5223POPC   C4A 6162  34.605  22.908   7.653
 5223POPC   C1B 6163  34.735  22.772   8.553
 5223POPC   C2B 6164  34.769  22.761   8.253
 5223POPC   C3B 6165  34.732  22.784   7.953
 5223POPC   C4B 6166  34.769  22.823   7.653
 5224POPC   NC3 6167  42.379  43.896   9.453
 5224POPC   PO4 6168  42.338  43.864   9.153
 5224POPC   GL1 6169  42.292  43.843   8.853
 5224POPC   GL2 6170  42.385  43.771   8.853
 5224POPC   C1A 6171  42.341  43.849   8.553
 5224POPC   D2A 6172  42.294  43.932   8.253
 5224POPC   C3A 6173  42.360  43.866   7.953
 5224POPC   C4A 6174  42.314  43.842   7.653
 5224POPC   C1B 6175  42.548  43.699   8.553
 5224POPC   C2B 6176  42.506  43.713   8.253
 5224POPC   C3B 6177  42.575  43.698   7.953
 5224POPC   C4B 6178  42.531  43.699   7.653
 5225POPC   NC3 6179  33.034  17.529   9.453
 5225POPC   PO4 6180  33.044  17.535   9.153
 5225POPC   GL1 6181  32.999  17.527   8.853
 5225POPC   GL2 6182  33.028  17.380   8.853
 5225POPC   C1A 6183  33.000  17.509   8.553
 5225POPC   D2A 6184  33.041  17.538   8.253
 5225POPC   C3A 6185  33.007  17.542   7.953
 5225POPC   C4A 6186  33.007  17.522   7.653
 5225POPC   C1B 6187  32.997  17.217   8.553
 5225POPC   C2B 6188  33.032  17.276   8.253
 5225POPC   C3B 6189  33.069  17.222   7.953
 5225POPC   C4B 6190  33.047  17.264   7.653
 5226POPC   NC3 6191  11.264  29.965   9.453
 5226POPC   PO4 6192  11.298  29.871   9.153
 5226POPC   GL1 6193  11.320  29.968   8.853
 5226POPC   GL2 6194  11.294  30.084   8.853
 5226POPC   C1A 6195  11.345  29.960   8.553
 5226POPC   D2A 6196  11.254  29.927   8.253
 5226POPC   C3A 6197  11.344  29.895   7.953
 5226POPC   C4A 6198  11.257  29.967   7.653
 5226POPC   C1B 6199  11.310  30.185   8.553
 5226POPC   C2B 6200  11.313  30.182   8.253
 5226POPC   C3B 6201  11.238  30.133   7.953
 5226POPC   C4B 6202  11.276  30.209   7.653
 5227POPC   NC3 6203   2.753  40.750   9.453
 5227POPC   PO4 6204   2.726  40.805   9.153
 5227POPC   GL1 6205   2.758  40.793   8.853
 5227POPC   GL2 6206   2.776  40.875   8.853
 5227POPC   C1A 6207   2.727  40.789   8.553
 5227POPC   D2A 6208   2.717  40.745   8.253
 5227POPC   C3A 6209   2.758  40.767   7.953
 5227POPC   C4A 6210   2.750  40.780   7.653
 5227POPC   C1B 6211   2.851  41.037   8.553
 5227POPC   C2B 6212   2.861  41.044   8.253
 5227POPC   C3B 6213   2.919  41.041   7.953
 5227POPC   C4B 6214   2.841  41.022   7.653
 5228POPC   NC3 6215  33.806   9.752   9.453
 5228POPC   PO4 6216  33.769   9.743   9.153
 5228POPC   GL1 6217  33.838   9.741   8.853
 5228POPC   GL2 6218  33.697   9.641   8.853
 5228POPC   C1A 6219  33.805   9.709   8.553
 5228POPC   D2A 6220  33.760   9.741   8.253
 5228POPC   C3A 6221  33.814   9.748   7.953
 5228POPC   C4A 6222  33.825   9.769   7.653
 5228POPC   C1B 6223  33.612   9.602   8.553
 5228POPC   C2B 6224  33.588   9.567   8.253
 5228POPC   C3B 6225  33.641   9.624   7.953
 5228POPC   C4B 6226  33.641   9.623   7.653
 5229POPC   NC3 6227  38.425  26.782   9.453
 5229POPC   PO4 6228  38.439  26.864   9.153
 5229POPC   GL1 6229  38.462  26.797   8.853
 5229POPC   GL2 6230  38.497  26.909   8.853
 5229POPC   C1A 6231  38.433  26.785   8.553
 5229POPC   D2A 6232  38.417  26.858   8.253
 5229POPC   C3A 6233  38.465  26.814   7.953
 5229POPC   C4A 6234  38.498  26.818   7.653
 5229POPC   C1B 6235  38.412  27.054   8.553
 5229POPC   C2B 6236  38.479  27.074   8.253
 5229POPC   C3B 6237  38.448  27.079   7.953
 5229POPC   C4B 6238  38.464  27.089   7.653
 5230POPC   NC3 6239  41.570  30.718   9.453
 5230POPC   PO4 6240  41.601  30.696   9.153
 5230POPC   GL1 6241  41.608  30.743   8.853
 5230POPC   GL2 6242  41.613  30.624   8.853
 5230POPC   C1A 6243  41.592  30.720   8.553
 5230POPC   D2A 6244  41.581  30.686   8.253
 5230POPC   C3A 6245  41.604  30.725   7.953
 5230POPC   C4A 6246  41.577  30.657   7.653
 5230POPC   C1B 6247  41.657  30.508   8.553
 5230POPC   C2B 6248  41.632  30.443   8.253
 5230POPC   C3B 6249  41.618  30.513   7.953
 5230POPC   C4B 6250  41.675  30.461   7.653
 5231POPC   NC3 6251  43.086  36.939   9.453
 5231POPC   PO4 6252  43.068  36.952   9.153
 5231POPC   GL1 6253  43.114  36.944   8.853
 5231POPC   GL2 6254  42.970  36.873   8.853
 5231POPC   C1A 6255  43.078  36.902   8.553
 5231POPC   D2A 6256  43.140  36.879   8.253
 5231POPC   C3A 6257  43.110  36.858   7.953
 5231POPC   C4A 6258  43.083  36.866   7.653
 5231POPC   C1B 6259  42.909  36.821   8.553
 5231POPC   C2B 6260  42.871  36.779   8.253
 5231POPC   C3B 6261  42.920  36.832   7.953
 5231POPC   C4B 6262  42.885  36.797   7.653
 5232POPC   NC3 6263  43.087  14.391   9.453
 5232POPC   PO4 6264  43.104  14.386   9.153
 5232POPC   GL1 6265  43.140  14.412   8.853
 5232POPC   GL2 6266  43.072  14.297   8.853
 5232POPC   C1A 6267  43.070  14.417   8.553
 5232POPC   D2A 6268  43.079  14.361   8.253
 5232POPC   C3A 6269  43.147  14.432   7.953
 5232POPC   C4A 6270  43.078  14.427   7.653
 5232POPC   C1B 6271  42.980  14.182   8.553
 5232POPC   C2B 6272  43.028  14.228   8.253
 5232POPC   C3B 6273  43.009  14.229   7.953
 5232POPC   C4B 6274  43.018  14.173   7.653
 5233POPC   NC3 6275  29.924  37.709   9.453
 5233POPC   PO4 6276  29.894  37.653   9.153
 5233POPC   GL1 6277  29.932  37.657   8.853
 5233POPC   GL2 6278  29.823  37.755   8.853
 5233POPC   C1A 6279  29.963  37.673   8.553
 5233POPC   D2A 6280  29.967  37.662   8.253
 5233POPC   C3A 6281  29.925  37.635   7.953
 5233POPC   C4A 6282  29.899  37.630   7.653
 5233POPC   C1B 6283  29.753  37.845   8.553
 5233POPC   C2B 6284  29.681  37.842   8.253
 5233POPC   C3B 6285  29.732  37.864   7.953
 5233POPC   C4B 6286  29.697  37.771   7.653
 5234POPC   NC3 6287  15.910  43.154   9.453
 5234POPC   PO4 6288  15.906  43.104   9.153
 5234POPC   GL1 6289  15.919  43.154   8.853
 5234POPC   GL2 6290  16.023  43.011   8.853
 5234POPC   C1A 6291  15.996  43.124   8.553
 5234POPC   D2A 6292  15.980  43.088   8.253
 5234POPC   C3A 6293  15.974  43.133   7.953
 5234POPC   C4A 6294  15.930  43.102   7.653
 5234POPC   C1B 6295  16.108  42.964   8.553
 5234POPC   C2B 6296  16.175  42.947   8.253
 5234POPC   C3B 6297  16.128  42.951   7.953
 5234POPC   C4B 6298  16.085  42.985   7.653
 5235POPC   NC3 6299  44.699   1.965   9.453
 5235POPC   PO4 6300  44.672   1.973   9.153
 5235POPC   GL1 6301  44.653   1.987   8.853
 5235POPC   GL2 6302  44.507   2.007   8.853
 5235POPC   C1A 6303  44.627   1.964   8.553
 5235POPC   D2A 6304  44.680   1.969   8.253
 5235POPC   C3A 6305  44.626   2.018   7.953
 5235POPC   C4A 6306  44.631   2.015   7.653
 5235POPC   C1B 6307  44.470   2.165   8.553
 5235POPC   C2B 6308  44.497   2.097   8.253
 5235POPC   C3B 6309  44.481   2.143   7.953
 5235POPC   C4B 6310  44.431   2.109   7.653
 5236POPC   NC3 6311  22.911   7.396   9.453
 5236POPC   PO4 6312  22.976   7.371   9.153
 5236POPC   GL1 6313  22.988   7.375   8.853
 5236POPC   GL2 6314  22.836   7.438   8.853
 5236POPC   C1A 6315  22.966   7.374   8.553
 5236POPC   D2A 6316  22.939   7.444   8.253
 5236POPC   C3A 6317  22.912   7.448   7.953
 5236POPC   C4A 6318  22.935   7.422   7.653
 5236POPC   C1B 6319  22.734   7.459   8.553
 5236POPC   C2B 6320  22.736   7.431   8.253
 5236POPC   C3B 6321  22.701   7.495   7.953
 5236POPC   C4B 6322  22.700   7.467   7.653
 5237POPC   NC3 6323   6.663   1.224   9.453
 5237POPC   PO4 6324   6.606   1.218   9.153
 5237POPC   GL1 6325   6.649   1.208   8.853
 5237POPC   GL2 6326   6.510   1.213   8.853
 5237POPC   C1A 6327   6.649   1.207   8.553
 5237POPC   D2A 6328   6.623   1.212   8.253
 5237POPC   C3A 6329   6.657   1.260   7.953
 5237POPC   C4A 6330   6.688   1.190   7.653
 5237POPC   C1B 6331   6.436   1.169   8.553
 5237POPC   C2B 6332   6.409   1.213   8.253
 5237POPC   C3B 6333   6.441   1.183   7.953
 5237POPC   C4B 6334   6.369   1.231   7.653
 5238POPC   NC3 6335  32.264  37.654   9.453
 5238POPC   PO4 6336  32.265  37.634   9.153
 5238POPC   GL1 6337  32.235  37.719   8.853
 5238POPC   GL2 6338  32.245  37.761   8.853
 5238POPC   C1A 6339  32.285  37.637   8.553
 5238POPC   D2A 6340  32.263  37.660   8.253
 5238POPC   C3A 6341  32.269  37.702   7.953
 5238POPC   C4A 6342  32.245  37.692   7.653
 5238POPC   C1B 6343  32.327  37.914   8.553
 5238POPC   C2B 6344  32.350  37.931   8.253
 5238POPC   C3B 6345  32.275  37.936   7.953
 5238POPC   C4B 6346  32.313  37.925   7.653
 5239POPC   NC3 6347  22.183  27.630   9.453
 5239POPC   PO4 6348  22.131  27.625   9.153
 5239POPC   GL1 6349  22.156  27.570   8.853
 5239POPC   GL2 6350  22.130  27.424   8.853
 5239POPC   C1A 6351  22.126  27.594   8.553
 5239POPC   D2A 6352  22.163  27.552   8.253
 5239POPC   C3A 6353  22.189  27.610   7.953
 5239POPC   C4A 6354  22.161  27.602   7.653
 5239POPC   C1B 6355  22.073  27.356   8.553
 5239POPC   C2B 6356  22.087  27.337   8.253
 5239POPC   C3B 6357  22.088  27.384   7.953
 5239POPC   C4B 6358  22.120  27.301   7.653
 5240POPC   NC3 6359   4.293  21.357   9.453
 5240POPC   PO4 6360   4.304  21.429   9.153
 5240POPC   GL1 6361   4.307  21.338   8.853
 5240POPC   GL2 6362   4.212  21.298   8.853
 5240POPC   C1A 6363   4.343  21.428   8.553
 5240POPC   D2A 6364   4.340  21.375   8.253
 5240POPC   C3A 6365   4.275  21.399   7.953
 5240POPC   C4A 6366   4.278  21.415   7.653
 5240POPC   C1B 6367   4.193  21.199   8.553
 5240POPC   C2B 6368   4.190  21.175   8.253
 5240POPC   C3B 6369   4.139  21.177   7.953
 5240POPC   C4B 6370   4.216  21.167   7.653
 5241POPC   NC3 6371  25.306  44.685   9.453
 5241POPC   PO4 6372  25.252  44.709   9.153
 5241POPC   GL1 6373  25.222  44.670   8.853
 5241POPC   GL2 6374  25.431  44.632   8.853
 5241POPC   C1A 6375  25.220  44.690   8.553
 5241POPC   D2A 6376  25.232  44.650   8.253
 5241POPC   C3A 6377  25.305  44.691   7.953
 5241POPC   C4A 6378  25.315  44.622   7.653
 5241POPC   C1B 6379  25.523  44.582   8.553
 5241POPC   C2B 6380  25.511  44.634   8.253
 5241POPC   C3B 6381  25.494  44.613   7.953
 5241POPC   C4B 6382  25.520  44.601   7.653
 5242POPC   NC3 6383  36.876  16.686   9.453
 5242POPC   PO4 6384  36.866  16.733   9.153
 5242POPC   GL1 6385  36.929  16.718   8.853
 5242POPC   GL2 6386  36.955  16.651   8.853
 5242POPC   C1A 6387  36.870  16.775   8.553
 5242POPC   D2A 6388  36.885  16.706   8.253
 5242POPC   C3A 6389  36.899  16.682   7.953
 5242POPC   C4A 6390  36.925  16.719   7.653
 5242POPC   C1B 6391  36.975  16.519   8.553
 5242POPC   C2B 6392  36.961  16.475   8.253
 5242POPC   C3B 6393  37.021  16.519   7.953
 5242POPC   C4B 6394  37.037  16.460   7.653
 5243POPC   NC3 6395   1.965  13.589   9.453
 5243POPC   PO4 6396   2.006  13.624   9.153
 5243POPC   GL1 6397   1.989  13.641   8.853
 5243POPC   GL2 6398   2.102  13.591   8.853
 5243POPC   C1A 6399   1.998  13.669   8.553
 5243POPC   D2A 6400   2.037  13.589   8.253
 5243POPC   C3A 6401   1.951  13.610   7.953
 5243POPC   C4A 6402   2.011  13.637   7.653
 5243POPC   C1B 6403   2.226  13.646   8.553
 5243POPC   C2B 6404   2.281  13.692   8.253
 5243POPC   C3B 6405   2.252  13.659   7.953
 5243POPC   C4B 6406   2.249  13.629   7.653
 5244POPC   NC3 6407  41.607  39.202   9.453
 5244POPC   PO4 6408  41.597  39.198   9.153
 5244POPC   GL1 6409  41.526  39.227   8.853
 5244POPC   GL2 6410  41.581  39.062   8.853
 5244POPC   C1A 6411  41.572  39.231   8.553
 5244POPC   D2A 6412  41.600  39.199   8.253
 5244POPC   C3A 6413  41.526  39.276   7.953
 5244POPC   C4A 6414  41.511  39.194   7.653
 5244POPC   C1B 6415  41.487  39.028   8.553
 5244POPC   C2B 6416  41.540  38.975   8.253
 5244POPC   C3B 6417  41.519  39.002   7.953
 5244POPC   C4B 6418  41.484  38.950   7.653
 5245POPC   NC3 6419  12.823  25.996   9.453
 5245POPC   PO4 6420  12.899  26.052   9.153
 5245POPC   GL1 6421  12.809  26.058   8.853
 5245POPC   GL2 6422  12.744  26.034   8.853
 5245POPC   C1A 6423  12.832  26.052   8.553
 5245POPC   D2A 6424  12.824  26.018   8.253
 5245POPC   C3A 6425  12.867  26.078   7.953
 5245POPC   C4A 6426  12.814  26.085   7.653
 5245POPC   C1B 6427  12.639  26.091   8.553
 5245POPC   C2B 6428  12.608  26.069   8.253
 5245POPC   C3B 6429  12.591  26.051   7.953
 5245POPC   C4B 6430  12.592  26.050   7.653
 5246POPC   NC3 6431  41.511  17.482   9.453
 5246POPC   PO4 6432  41.597  17.496   9.153
 5246POPC   GL1 6433  41.600  17.476   8.853
 5246POPC   GL2 6434  41.528  17.405   8.853
 5246POPC   C1A 6435  41.526  17.518   8.553
 5246POPC   D2A 6436  41.534  17.505   8.253
 5246POPC   C3A 6437  41.606  17.470   7.953
 5246POPC   C4A 6438  41.532  17.555   7.653
 5246POPC   C1B 6439  41.574  17.242   8.553
 5246POPC   C2B 6440  41.517  17.215   8.253
 5246POPC   C3B 6441  41.485  17.268   7.953
 5246POPC   C4B 6442  41.575  17.244   7.653
 5247POPC   NC3 6443  15.916  43.882   9.453
 5247POPC   PO4 6444  15.982  43.909   9.153
 5247POPC   GL1 6445  15.911  43.925   8.853
 5247POPC   GL2 6446  16.126  43.884   8.853
 5247POPC   C1A 6447  15.939  43.923   8.553
 5247POPC   D2A 6448  15.946  43.918   8.253
 5247POPC   C3A 6449  15.934  43.866   7.953
 5247POPC   C4A 6450  15.972  43.907   7.653
 5247POPC   C1B 6451  16.216  43.863   8.553
 5247POPC   C2B 6452  16.164  43.882   8.253
 5247POPC   C3B 6453  16.191  43.794   7.953
 5247POPC   C4B 6454  16.206  43.836   7.653
 5248POPC   NC3 6455  26.836  21.379   9.453
 5248POPC   PO4 6456  26.778  21.344   9.153
 5248POPC   GL1 6457  26.803  21.409   8.853
 5248POPC   GL2 6458  26.767  21.471   8.853
 5248POPC   C1A 6459  26.846  21.387   8.553
 5248POPC   D2A 6460  26.807  21.430   8.253
 5248POPC   C3A 6461  26.853  21.363   7.953
 5248POPC   C4A 6462  26.770  21.435   7.653
 5248POPC   C1B 6463  26.673  21.515   8.553
 5248POPC   C2B 6464  26.604  21.593   8.253
 5248POPC   C3B 6465  26.648  21.528   7.953
 5248POPC   C4B 6466  26.642  21.524   7.653
 5249POPC   NC3 6467  43.935   2.795   9.453
 5249POPC   PO4 6468  43.871   2.742   9.153
 5249POPC   GL1 6469  43.887   2.720   8.853
 5249POPC   GL2 6470  44.014   2.803   8.853
 5249POPC   C1A 6471  43.905   2.794   8.553
 5249POPC   D2A 6472  43.890   2.739   8.253
 5249POPC   C3A 6473  43.840   2.729   7.953
 5249POPC   C4A 6474  43.891   2.753   7.653
 5249POPC   C1B 6475  44.151   2.824   8.553
 5249POPC   C2B 6476  44.079   2.907   8.253
 5249POPC   C3B 6477  44.074   2.839   7.953
 5249POPC   C4B 6478  44.139   2.825   7.653
 5250POPC   NC3 6479  37.647  16.709   9.453
 5250POPC   PO4 6480  37.661  16.687   9.153
 5250POPC   GL1 6481  37.654  16.753   8.853
 5250POPC   GL2 6482  37.696  16.638   8.853
 5250POPC   C1A 6483  37.675  16.686   8.553
 5250POPC   D2A 6484  37.647  16.742   8.253
 5250POPC   C3A 6485  37.682  16.726   7.953
 5250POPC   C4A 6486  37.636  16.705   7.653
 5250POPC   C1B 6487  37.616  16.481   8.553
 5250POPC   C2B 6488  37.643  16.472   8.253
 5250POPC   C3B 6489  37.668  16.498   7.953
 5250POPC   C4B 6490  37.593  16.475   7.653
 5251POPC   NC3 6491  38.495  42.294   9.453
 5251POPC   PO4 6492  38.462  42.330   9.153
 5251POPC   GL1 6493  38.468  42.345   8.853
 5251POPC   GL2 6494  38.462  42.495   8.853
 5251POPC   C1A 6495  38.449  42.307   8.553
 5251POPC   D2A 6496  38.443  42.299   8.253
 5251POPC   C3A 6497  38.462  42.299   7.953
 5251POPC   C4A 6498  38.489  42.366   7.653
 5251POPC   C1B 6499  38.472  42.546   8.553
 5251POPC   C2B 6500  38.393  42.622   8.253
 5251POPC   C3B 6501  38.444  42.579   7.953
 5251POPC   C4B 6502  38.410  42.537   7.653
 5252POPC   NC3 6503  15.202  19.870   9.453
 5252POPC   PO4 6504  15.144  19.883   9.153
 5252POPC   GL1 6505  15.135  19.858   8.853
 5252POPC   GL2 6506  15.238  19.880   8.853
 5252POPC   C1A 6507  15.221  19.830   8.553
 5252POPC   D2A 6508  15.212  19.789   8.253
 5252POPC   C3A 6509  15.224  19.820   7.953
 5252POPC   C4A 6510  15.135  19.880   7.653
 5252POPC   C1B 6511  15.411  19.968   8.553
 5252POPC   C2B 6512  15.406  19.992   8.253
 5252POPC   C3B 6513  15.350  19.921   7.953
 5252POPC   C4B 6514  15.376  19.929   7.653
 5253POPC   NC3 6515  26.818   0.405   9.453
 5253POPC   PO4 6516  26.802   0.446   9.153
 5253POPC   GL1 6517  26.784   0.467   8.853
 5253POPC   GL2 6518  26.903   0.373   8.853
 5253POPC   C1A 6519  26.862   0.474   8.553
 5253POPC   D2A 6520  26.866   0.418   8.253
 5253POPC   C3A 6521  26.829   0.428   7.953
 5253POPC   C4A 6522  26.805   0.414   7.653
 5253POPC   C1B 6523  26.909   0.220   8.553
 5253POPC   C2B 6524  26.968   0.223   8.253
 5253POPC   C3B 6525  26.925   0.170   7.953
 5253POPC   C4B 6526  26.888   0.179   7.653
 5254POPC   NC3 6527   8.961  24.491   9.453
 5254POPC   PO4 6528   8.969  24.526   9.153
 5254POPC   GL1 6529   8.969  24.457   8.853
 5254POPC   GL2 6530   8.914  24.575   8.853
 5254POPC   C1A 6531   8.997  24.489   8.553
 5254POPC   D2A 6532   8.960  24.503   8.253
 5254POPC   C3A 6533   8.951  24.495   7.953
 5254POPC   C4A 6534   8.950  24.514   7.653
 5254POPC   C1B 6535   8.934  24.757   8.553
 5254POPC   C2B 6536   8.858  24.716   8.253
 5254POPC   C3B 6537   8.864  24.765   7.953
 5254POPC   C4B 6538   8.886  24.751   7.653
 5255POPC   NC3 6539  19.813  29.188   9.453
 5255POPC   PO4 6540  19.848  29.164   9.153
 5255POPC   GL1 6541  19.875  29.165   8.853
 5255POPC   GL2 6542  19.918  29.055   8.853
 5255POPC   C1A 6543  19.884  29.182   8.553
 5255POPC   D2A 6544  19.833  29.099   8.253
 5255POPC   C3A 6545  19.823  29.115   7.953
 5255POPC   C4A 6546  19.814  29.182   7.653
 5255POPC   C1B 6547  20.088  29.039   8.553
 5255POPC   C2B 6548  20.063  29.095   8.253
 5255POPC   C3B 6549  20.089  29.080   7.953
 5255POPC   C4B 6550  20.100  29.032   7.653
 5256POPC   NC3 6551   8.924  40.751   9.453
 5256POPC   PO4 6552   8.964  40.799   9.153
 5256POPC   GL1 6553   8.924  40.828   8.853
 5256POPC   GL2 6554   9.101  40.834   8.853
 5256POPC   C1A 6555   8.931  40.786   8.553
 5256POPC   D2A 6556   8.976  40.750   8.253
 5256POPC   C3A 6557   8.981  40.759   7.953
 5256POPC   C4A 6558   8.928  40.759   7.653
 5256POPC   C1B 6559   9.137  40.964   8.553
 5256POPC   C2B 6560   9.145  40.940   8.253
 5256POPC   C3B 6561   9.187  40.895   7.953
 5256POPC   C4B 6562   9.152  40.888   7.653
 5257POPC   NC3 6563  32.262  13.624   9.453
 5257POPC   PO4 6564  32.266  13.650   9.153
 5257POPC   GL1 6565  32.283  13.650   8.853
 5257POPC   GL2 6566  32.283  13.563   8.853
 5257POPC   C1A 6567  32.298  13.627   8.553
 5257POPC   D2A 6568  32.280  13.594   8.253
 5257POPC   C3A 6569  32.226  13.663   7.953
 5257POPC   C4A 6570  32.260  13.645   7.653
 5257POPC   C1B 6571  32.412  13.438   8.553
 5257POPC   C2B 6572  32.421  13.446   8.253
 5257POPC   C3B 6573  32.354  13.393   7.953
 5257POPC   C4B 6574  32.375  13.410   7.653
 5258POPC   NC3 6575  16.754  25.249   9.453
 5258POPC   PO4 6576  16.696  25.299   9.153
 5258POPC   GL1 6577  16.768  25.288   8.853
 5258POPC   GL2 6578  16.561  25.265   8.853
 5258POPC   C1A 6579  16.732  25.217   8.553
 5258POPC   D2A 6580  16.746  25.268   8.253
 5258POPC   C3A 6581  16.697  25.285   7.953
 5258POPC   C4A 6582  16.684  25.250   7.653
 5258POPC   C1B 6583  16.533  25.347   8.553
 5258POPC   C2B 6584  16.473  25.300   8.253
 5258POPC   C3B 6585  16.508  25.312   7.953
 5258POPC   C4B 6586  16.461  25.317   7.653
 5259POPC   NC3 6587  36.123   3.580   9.453
 5259POPC   PO4 6588  36.172   3.537   9.153
 5259POPC   GL1 6589  36.131   3.534   8.853
 5259POPC   GL2 6590  36.043   3.468   8.853
 5259POPC   C1A 6591  36.119   3.583   8.553
 5259POPC   D2A 6592  36.102   3.584   8.253
 5259POPC   C3A 6593  36.091   3.500   7.953
 5259POPC   C4A 6594  36.154   3.531   7.653
 5259POPC   C1B 6595  35.923   3.396   8.553
 5259POPC   C2B 6596  35.938   3.356   8.253
 5259POPC   C3B 6597  35.978   3.321   7.953
 5259POPC   C4B 6598  36.015   3.310   7.653
 5260POPC   NC3 6599  32.279   7.438   9.453
 5260POPC   PO4 6600  32.211   7.440   9.153
 5260POPC   GL1 6601  32.236   7.415   8.853
 5260POPC   GL2 6602  32.378   7.397   8.853
 5260POPC   C1A 6603  32.250   7.450   8.553
 5260POPC   D2A 6604  32.274   7.453   8.253
 5260POPC   C3A 6605  32.270   7.431   7.953
 5260POPC   C4A 6606  32.259   7.438   7.653
 5260POPC   C1B 6607  32.544   7.414   8.553
 5260POPC   C2B 6608  32.488   7.459   8.253
 5260POPC   C3B 6609  32.532   7.414   7.953
 5260POPC   C4B 6610  32.484   7.392   7.653
 5261POPC   NC3 6611  22.157  29.908   9.453
 5261POPC   PO4 6612  22.140  29.898   9.153
 5261POPC   GL1 6613  22.134  29.928   8.853
 5261POPC   GL2 6614  22.256  29.993   8.853
 5261POPC   C1A 6615  22.202  29.916   8.553
 5261POPC   D2A 6616  22.126  29.950   8.253
 5261POPC   C3A 6617  22.185  29.926   7.953
 5261POPC   C4A 6618  22.126  29.933   7.653
 5261POPC   C1B 6619  22.407  29.971   8.553
 5261POPC   C2B 6620  22.377  30.002   8.253
 5261POPC   C3B 6621  22.429  30.033   7.953
 5261POPC   C4B 6622  22.407  29.994   7.653
 5262POPC   NC3 6623   0.450   4.352   9.453
 5262POPC   PO4 6624   0.397   4.345   9.153
 5262POPC   GL1 6625   0.484   4.325   8.853
 5262POPC   GL2 6626   0.317   4.228   8.853
 5262POPC   C1A 6627   0.472   4.335   8.553
 5262POPC   D2A 6628   0.459   4.282   8.253
 5262POPC   C3A 6629   0.439   4.346   7.953
 5262POPC   C4A 6630   0.424   4.307   7.653
 5262POPC   C1B 6631   0.324   4.112   8.553
 5262POPC   C2B 6632   0.263   4.067   8.253
 5262POPC   C3B 6633   0.298   4.096   7.953
 5262POPC   C4B 6634   0.296   4.091   7.653
 5263POPC   NC3 6635  20.584  11.303   9.453
 5263POPC   PO4 6636  20.658  11.301   9.153
 5263POPC   GL1 6637  20.621  11.322   8.853
 5263POPC   GL2 6638  20.665  11.186   8.853
 5263POPC   C1A 6639  20.615  11.321   8.553
 5263POPC   D2A 6640  20.589  11.336   8.253
 5263POPC   C3A 6641  20.586  11.312   7.953
 5263POPC   C4A 6642  20.576  11.253   7.653
 5263POPC   C1B 6643  20.636  11.054   8.553
 5263POPC   C2B 6644  20.648  11.071   8.253
 5263POPC   C3B 6645  20.661  11.073   7.953
 5263POPC   C4B 6646  20.606  11.097   7.653
 5264POPC   NC3 6647  24.494   9.000   9.453
 5264POPC   PO4 6648  24.493   8.966   9.153
 5264POPC   GL1 6649  24.492   8.993   8.853
 5264POPC   GL2 6650  24.465   9.075   8.853
 5264POPC   C1A 6651  24.500   9.004   8.553
 5264POPC   D2A 6652  24.508   8.959   8.253
 5264POPC   C3A 6653  24.523   9.009   7.953
 5264POPC   C4A 6654  24.496   8.987   7.653
 5264POPC   C1B 6655  24.354   9.240   8.553
 5264POPC   C2B 6656  24.380   9.155   8.253
 5264POPC   C3B 6657  24.352   9.167   7.953
 5264POPC   C4B 6658  24.354   9.166   7.653
 5265POPC   NC3 6659   2.730  12.866   9.453
 5265POPC   PO4 6660   2.736  12.832   9.153
 5265POPC   GL1 6661   2.791  12.831   8.853
 5265POPC   GL2 6662   2.774  12.748   8.853
 5265POPC   C1A 6663   2.750  12.891   8.553
 5265POPC   D2A 6664   2.756  12.872   8.253
 5265POPC   C3A 6665   2.770  12.805   7.953
 5265POPC   C4A 6666   2.784  12.844   7.653
 5265POPC   C1B 6667   2.817  12.567   8.553
 5265POPC   C2B 6668   2.787  12.601   8.253
 5265POPC   C3B 6669   2.787  12.632   7.953
 5265POPC   C4B 6670   2.779  12.618   7.653
 5266POPC   NC3 6671  13.603  11.263   9.453
 5266POPC   PO4 6672  13.672  11.303   9.153
 5266POPC   GL1 6673  13.605  11.312   8.853
 5266POPC   GL2 6674  13.506  11.217   8.853
 5266POPC   C1A 6675  13.616  11.310   8.553
 5266POPC   D2A 6676  13.601  11.332   8.253
 5266POPC   C3A 6677  13.578  11.297   7.953
 5266POPC   C4A 6678  13.623  11.311   7.653
 5266POPC   C1B 6679  13.367  11.185   8.553
 5266POPC   C2B 6680  13.423  11.264   8.253
 5266POPC   C3B 6681  13.429  11.277   7.953
 5266POPC   C4B 6682  13.430  11.281   7.653
 5267POPC   NC3 6683  13.651  29.133   9.453
 5267POPC   PO4 6684  13.657  29.159   9.153
 5267POPC   GL1 6685  13.631  29.192   8.853
 5267POPC   GL2 6686  13.539  29.240   8.853
 5267POPC   C1A 6687  13.637  29.124   8.553
 5267POPC   D2A 6688  13.596  29.159   8.253
 5267POPC   C3A 6689  13.622  29.119   7.953
 5267POPC   C4A 6690  13.622  29.147   7.653
 5267POPC   C1B 6691  13.444  29.285   8.553
 5267POPC   C2B 6692  13.421  29.338   8.253
 5267POPC   C3B 6693  13.459  29.306   7.953
 5267POPC   C4B 6694  13.492  29.366   7.653
 5268POPC   NC3 6695  38.429   4.322   9.453
 5268POPC   PO4 6696  38.487   4.350   9.153
 5268POPC   GL1 6697  38.429   4.299   8.853
 5268POPC   GL2 6698  38.597   4.401   8.853
 5268POPC   C1A 6699  38.422   4.315   8.553
 5268POPC   D2A 6700  38.488   4.336   8.253
 5268POPC   C3A 6701  38.484   4.283   7.953
 5268POPC   C4A 6702  38.495   4.320   7.653
 5268POPC   C1B 6703  38.662   4.428   8.553
 5268POPC   C2B 6704  38.667   4.505   8.253
 5268POPC   C3B 6705  38.613   4.457   7.953
 5268POPC   C4B 6706  38.668   4.517   7.653
 5269POPC   NC3 6707  30.731   5.908   9.453
 5269POPC   PO4 6708  30.729   5.886   9.153
 5269POPC   GL1 6709  30.707   5.874   8.853
 5269POPC   GL2 6710  30.748   5.788   8.853
 5269POPC   C1A 6711  30.736   5.829   8.553
 5269POPC   D2A 6712  30.679   5.911   8.253
 5269POPC   C3A 6713  30.737   5.844   7.953
 5269POPC   C4A 6714  30.711   5.838   7.653
 5269POPC   C1B 6715  30.779   5.649   8.553
 5269POPC   C2B 6716  30.830   5.661   8.253
 5269POPC   C3B 6717  30.754   5.660   7.953
 5269POPC   C4B 6718  30.800   5.685   7.653
 5270POPC   NC3 6719  13.602   2.783   9.453
 5270POPC   PO4 6720  13.628   2.797   9.153
 5270POPC   GL1 6721  13.578   2.756   8.853
 5270POPC   GL2 6722  13.512   2.712   8.853
 5270POPC   C1A 6723  13.584   2.768   8.553
 5270POPC   D2A 6724  13.653   2.768   8.253
 5270POPC   C3A 6725  13.653   2.767   7.953
 5270POPC   C4A 6726  13.669   2.804   7.653
 5270POPC   C1B 6727  13.426   2.704   8.553
 5270POPC   C2B 6728  13.408   2.714   8.253
 5270POPC   C3B 6729  13.371   2.731   7.953
 5270POPC   C4B 6730  13.343   2.704   7.653
 5271POPC   NC3 6731   8.973  21.433   9.453
 5271POPC   PO4 6732   9.011  21.346   9.153
 5271POPC   GL1 6733   8.958  21.347   8.853
 5271POPC   GL2 6734   9.054  21.447   8.853
 5271POPC   C1A 6735   9.015  21.432   8.553
 5271POPC   D2A 6736   8.978  21.429   8.253
 5271POPC   C3A 6737   8.991  21.380   7.953
 5271POPC   C4A 6738   9.002  21.351   7.653
 5271POPC   C1B 6739   9.171  21.425   8.553
 5271POPC   C2B 6740   9.183  21.475   8.253
 5271POPC   C3B 6741   9.228  21.399   7.953
 5271POPC   C4B 6742   9.230  21.433   7.653
 5272POPC   NC3 6743   0.442   6.686   9.453
 5272POPC   PO4 6744   0.409   6.618   9.153
 5272POPC   GL1 6745   0.484   6.620   8.853
 5272POPC   GL2 6746   0.518   6.771   8.853
 5272POPC   C1A 6747   0.414   6.684   8.553
 5272POPC   D2A 6748   0.417   6.689   8.253
 5272POPC   C3A 6749   0.434   6.599   7.953
 5272POPC   C4A 6750   0.431   6.639   7.653
 5272POPC   C1B 6751   0.548   6.864   8.553
 5272POPC   C2B 6752   0.593   6.835   8.253
 5272POPC   C3B 6753   0.548   6.851   7.953
 5272POPC   C4B 6754   0.554   6.878   7.653
 5273POPC   NC3 6755  12.078   5.139   9.453
 5273POPC   PO4 6756  12.072   5.071   9.153
 5273POPC   GL1 6757  12.081   5.051   8.853
 5273POPC   GL2 6758  12.040   5.021   8.853
 5273POPC   C1A 6759  12.056   5.105   8.553
 5273POPC   D2A 6760  12.056   5.062   8.253
 5273POPC   C3A 6761  12.080   5.097   7.953
 5273POPC   C4A 6762  12.114   5.123   7.653
 5273POPC   C1B 6763  11.941   4.877   8.553
 5273POPC   C2B 6764  11.931   4.901   8.253
 5273POPC   C3B 6765  12.020   4.821   7.953
 5273POPC   C4B 6766  11.990   4.873   7.653
 5274POPC   NC3 6767  20.657   8.177   9.453
 5274POPC   PO4 6768  20.658   8.168   9.153
 5274POPC   GL1 6769  20.608   8.223   8.853
 5274POPC   GL2 6770  20.651   8.048   8.853
 5274POPC   C1A 6771  20.612   8.150   8.553
 5274POPC   D2A 6772  20.604   8.197   8.253
 5274POPC   C3A 6773  20.626   8.197   7.953
 5274POPC   C4A 6774  20.628   8.242   7.653
 5274POPC   C1B 6775  20.731   7.994   8.553
 5274POPC   C2B 6776  20.773   7.968   8.253
 5274POPC   C3B 6777  20.709   7.957   7.953
 5274POPC   C4B 6778  20.785   8.001   7.653
 5275POPC   NC3 6779  39.982  22.979   9.453
 5275POPC   PO4 6780  39.991  22.956   9.153
 5275POPC   GL1 6781  40.002  22.970   8.853
 5275POPC   GL2 6782  40.134  22.904   8.853
 5275POPC   C1A 6783  39.997  22.937   8.553
 5275POPC   D2A 6784  39.987  22.935   8.253
 5275POPC   C3A 6785  39.967  22.956   7.953
 5275POPC   C4A 6786  40.041  22.932   7.653
 5275POPC   C1B 6787  40.244  22.864   8.553
 5275POPC   C2B 6788  40.236  22.922   8.253
 5275POPC   C3B 6789  40.263  22.874   7.953
 5275POPC   C4B 6790  40.277  22.904   7.653
 5276POPC   NC3 6791  10.517  20.590   9.453
 5276POPC   PO4 6792  10.558  20.590   9.153
 5276POPC   GL1 6793  10.501  20.618   8.853
 5276POPC   GL2 6794  10.576  20.444   8.853
 5276POPC   C1A 6795  10.498  20.574   8.553
 5276POPC   D2A 6796  10.545  20.575   8.253
 5276POPC   C3A 6797  10.518  20.563   7.953
 5276POPC   C4A 6798  10.480  20.659   7.653
 5276POPC   C1B 6799  10.560  20.379   8.553
 5276POPC   C2B 6800  10.580  20.403   8.253
 5276POPC   C3B 6801  10.626  20.327   7.953
 5276POPC   C4B 6802  10.582  20.351   7.653
 5277POPC   NC3 6803   2.727  13.676   9.453
 5277POPC   PO4 6804   2.792  13.649   9.153
 5277POPC   GL1 6805   2.756  13.658   8.853
 5277POPC   GL2 6806   2.681  13.741   8.853
 5277POPC   C1A 6807   2.776  13.673   8.553
 5277POPC   D2A 6808   2.793  13.631   8.253
 5277POPC   C3A 6809   2.799  13.613   7.953
 5277POPC   C4A 6810   2.737  13.660   7.653
 5277POPC   C1B 6811   2.591  13.876   8.553
 5277POPC   C2B 6812   2.624  13.790   8.253
 5277POPC   C3B 6813   2.666  13.879   7.953
 5277POPC   C4B 6814   2.622  13.866   7.653
 5278POPC   NC3 6815  22.134  28.325   9.453
 5278POPC   PO4 6816  22.116  28.394   9.153
 5278POPC   GL1 6817  22.132  28.386   8.853
 5278POPC   GL2 6818  22.242  28.269   8.853
 5278POPC   C1A 6819  22.151  28.331   8.553
 5278POPC   D2A 6820  22.201  28.383   8.253
 5278POPC   C3A 6821  22.117  28.338   7.953
 5278POPC   C4A 6822  22.170  28.374   7.653
 5278POPC   C1B 6823  22.325  28.207   8.553
 5278POPC   C2B 6824  22.395  28.229   8.253
 5278POPC   C3B 6825  22.356  28.216   7.953
 5278POPC   C4B 6826  22.368  28.216   7.653
 5279POPC   NC3 6827   8.199  36.857   9.453
 5279POPC   PO4 6828   8.217  36.880   9.153
 5279POPC   GL1 6829   8.228  36.863   8.853
 5279POPC   GL2 6830   8.162  36.761   8.853
 5279POPC   C1A 6831   8.181  36.920   8.553
 5279POPC   D2A 6832   8.167  36.903   8.253
 5279POPC   C3A 6833   8.160  36.948   7.953
 5279POPC   C4A 6834   8.223  36.921   7.653
 5279POPC   C1B 6835   8.136  36.667   8.553
 5279POPC   C2B 6836   8.084  36.653   8.253
 5279POPC   C3B 6837   8.076  36.649   7.953
 5279POPC   C4B 6838   8.111  36.641   7.653
 5280POPC   NC3 6839  10.510  10.541   9.453
 5280POPC   PO4 6840  10.528  10.535   9.153
 5280POPC   GL1 6841  10.523  10.513   8.853
 5280POPC   GL2 6842  10.671  10.561   8.853
 5280POPC   C1A 6843  10.569  10.475   8.553
 5280POPC   D2A 6844  10.563  10.504   8.253
 5280POPC   C3A 6845  10.514  10.539   7.953
 5280POPC   C4A 6846  10.565  10.535   7.653
 5280POPC   C1B 6847  10.761  10.611   8.553
 5280POPC   C2B 6848  10.770  10.639   8.253
 5280POPC   C3B 6849  10.792  10.607   7.953
 5280POPC   C4B 6850  10.735  10.659   7.653
 5281POPC   NC3 6851  18.285  35.354   9.453
 5281POPC   PO4 6852  18.246  35.327   9.153
 5281POPC   GL1 6853  18.324  35.390   8.853
 5281POPC   GL2 6854  18.138  35.334   8.853
 5281POPC   C1A 6855  18.249  35.344   8.553
 5281POPC   D2A 6856  18.296  35.335   8.253
 5281POPC   C3A 6857  18.284  35.347   7.953
 5281POPC   C4A 6858  18.268  35.309   7.653
 5281POPC   C1B 6859  18.080  35.314   8.553
 5281POPC   C2B 6860  18.069  35.359   8.253
 5281POPC   C3B 6861  18.030  35.356   7.953
 5281POPC   C4B 6862  18.060  35.361   7.653
 5282POPC   NC3 6863  40.024  20.653   9.453
 5282POPC   PO4 6864  40.050  20.604   9.153
 5282POPC   GL1 6865  40.023  20.602   8.853
 5282POPC   GL2 6866  39.980  20.463   8.853
 5282POPC   C1A 6867  39.975  20.635   8.553
 5282POPC   D2A 6868  39.979  20.623   8.253
 5282POPC   C3A 6869  39.982  20.634   7.953
 5282POPC   C4A 6870  39.968  20.566   7.653
 5282POPC   C1B 6871  40.039  20.332   8.553
 5282POPC   C2B 6872  40.006  20.400   8.253
 5282POPC   C3B 6873  39.989  20.325   7.953
 5282POPC   C4B 6874  40.039  20.312   7.653
 5283POPC   NC3 6875  29.936  16.736   9.453
 5283POPC   PO4 6876  29.875  16.752   9.153
 5283POPC   GL1 6877  29.895  16.763   8.853
 5283POPC   GL2 6878  30.082  16.733   8.853
 5283POPC   C1A 6879  29.916  16.687   8.553
 5283POPC   D2A 6880  29.913  16.752   8.253
 5283POPC   C3A 6881  29.886  16.717   7.953
 5283POPC   C4A 6882  29.915  16.747   7.653
 5283POPC   C1B 6883  30.144  16.610   8.553
 5283POPC   C2B 6884  30.145  16.625   8.253
 5283POPC   C3B 6885  30.194  16.611   7.953
 5283POPC   C4B 6886  30.182  16.696   7.653
 5284POPC   NC3 6887  21.340  42.314   9.453
 5284POPC   PO4 6888  21.382  42.321   9.153
 5284POPC   GL1 6889  21.389  42.351   8.853
 5284POPC   GL2 6890  21.343  42.438   8.853
 5284POPC   C1A 6891  21.390  42.325   8.553
 5284POPC   D2A 6892  21.399  42.324   8.253
 5284POPC   C3A 6893  21.387  42.328   7.953
 5284POPC   C4A 6894  21.393  42.298   7.653
 5284POPC   C1B 6895  21.239  42.556   8.553
 5284POPC   C2B 6896  21.276  42.511   8.253
 5284POPC   C3B 6897  21.276  42.528   7.953
 5284POPC   C4B 6898  21.243  42.567   7.653
 5285POPC   NC3 6899  29.181  31.487   9.453
 5285POPC   PO4 6900  29.112  31.439   9.153
 5285POPC   GL1 6901  29.123  31.429   8.853
 5285POPC   GL2 6902  29.049  31.461   8.853
 5285POPC   C1A 6903  29.149  31.428   8.553
 5285POPC   D2A 6904  29.139  31.509   8.253
 5285POPC   C3A 6905  29.101  31.461   7.953
 5285POPC   C4A 6906  29.173  31.513   7.653
 5285POPC   C1B 6907  28.920  31.501   8.553
 5285POPC   C2B 6908  28.876  31.499   8.253
 5285POPC   C3B 6909  28.923  31.492   7.953
 5285POPC   C4B 6910  28.846  31.482   7.653
 5286POPC   NC3 6911  24.517  15.225   9.453
 5286POPC   PO4 6912  24.445  15.146   9.153
 5286POPC   GL1 6913  24.512  15.225   8.853
 5286POPC   GL2 6914  24.363  15.174   8.853
 5286POPC   C1A 6915  24.496  15.205   8.553
 5286POPC   D2A 6916  24.465  15.173   8.253
 5286POPC   C3A 6917  24.530  15.193   7.953
 5286POPC   C4A 6918  24.459  15.200   7.653
 5286POPC   C1B 6919  24.276  15.222   8.553
 5286POPC   C2B 6920  24.296  15.249   8.253
 5286POPC   C3B 6921  24.229  15.244   7.953
 5286POPC   C4B 6922  24.290  15.220   7.653
 5287POPC   NC3 6923  15.936  29.146   9.453
 5287POPC   PO4 6924  15.985  29.112   9.153
 5287POPC   GL1 6925  15.956  29.158   8.853
 5287POPC   GL2 6926  16.126  29.147   8.853
 5287POPC   C1A 6927  15.992  29.132   8.553
 5287POPC   D2A 6928  15.995  29.182   8.253
 5287POPC   C3A 6929  15.988  29.183   7.953
 5287POPC   C4A 6930  15.994  29.186   7.653
 5287POPC   C1B 6931  16.231  29.243   8.553
 5287POPC   C2B 6932  16.237  29.157   8.253
 5287POPC   C3B 6933  16.191  29.168   7.953
 5287POPC   C4B 6934  16.216  29.232   7.653
 5288POPC   NC3 6935  26.789  11.339   9.453
 5288POPC   PO4 6936  26.853  11.337   9.153
 5288POPC   GL1 6937  26.799  11.330   8.853
 5288POPC   GL2 6938  26.976  11.214   8.853
 5288POPC   C1A 6939  26.867  11.276   8.553
 5288POPC   D2A 6940  26.783  11.293   8.253
 5288POPC   C3A 6941  26.786  11.279   7.953
 5288POPC   C4A 6942  26.770  11.341   7.653
 5288POPC   C1B 6943  27.010  11.160   8.553
 5288POPC   C2B 6944  27.064  11.195   8.253
 5288POPC   C3B 6945  27.086  11.211   7.953
 5288POPC   C4B 6946  27.077  11.230   7.653
 5289POPC   NC3 6947  30.730  38.418   9.453
 5289POPC   PO4 6948  30.688  38.483   9.153
 5289POPC   GL1 6949  30.707  38.426   8.853
 5289POPC   GL2 6950  30.679  38.520   8.853
 5289POPC   C1A 6951  30.709  38.439   8.553
 5289POPC   D2A 6952  30.664  38.442   8.253
 5289POPC   C3A 6953  30.674  38.499   7.953
 5289POPC   C4A 6954  30.733  38.443   7.653
 5289POPC   C1B 6955  30.610  38.729   8.553
 5289POPC   C2B 6956  30.629  38.676   8.253
 5289POPC   C3B 6957  30.623  38.635   7.953
 5289POPC   C4B 6958  30.619  38.682   7.653
 5290POPC   NC3 6959  36.949  33.068   9.453
 5290POPC   PO4 6960  36.888  32.988   9.153
 5290POPC   GL1 6961  36.904  32.982   8.853
 5290POPC   GL2 6962  36.821  32.925   8.853
 5290POPC   C1A 6963  36.887  32.977   8.553
 5290POPC   D2A 6964  36.856  33.006   8.253
 5290POPC   C3A 6965  36.859  33.013   7.953
 5290POPC   C4A 6966  36.907  32.991   7.653
 5290POPC   C1B 6967  36.697  32.860   8.553
 5290POPC   C2B 6968  36.698  32.825   8.253
 5290POPC   C3B 6969  36.749  32.855   7.953
 5290POPC   C4B 6970  36.780  32.879   7.653
 5291POPC   NC3 6971  43.151   2.799   9.453
 5291POPC   PO4 6972  43.084   2.716   9.153
 5291POPC   GL1 6973  43.108   2.777   8.853
 5291POPC   GL2 6974  42.986   2.859   8.853
 5291POPC   C1A 6975  43.121   2.791   8.553
 5291POPC   D2A 6976  43.061   2.785   8.253
 5291POPC   C3A 6977  43.112   2.792   7.953
 5291POPC   C4A 6978  43.061   2.739   7.653
 5291POPC   C1B 6979  42.890   2.866   8.553
 5291POPC   C2B 6980  42.947   2.907   8.253
 5291POPC   C3B 6981  42.852   2.920   7.953
 5291POPC   C4B 6982  42.919   2.873   7.653
 5292POPC   NC3 6983  33.827   3.514   9.453
 5292POPC   PO4 6984  33.834   3.545   9.153
 5292POPC   GL1 6985  33.770   3.563   8.853
 5292POPC   GL2 6986  33.766   3.372   8.853
 5292POPC   C1A 6987  33.759   3.519   8.553
 5292POPC   D2A 6988  33.836   3.580   8.253
 5292POPC   C3A 6989  33.839   3.545   7.953
 5292POPC   C4A 6990  33.760   3.562   7.653
 5292POPC   C1B 6991  33.829   3.281   8.553
 5292POPC   C2B 6992  33.812   3.273   8.253
 5292POPC   C3B 6993  33.840   3.280   7.953
 5292POPC   C4B 6994  33.837   3.269   7.653
 5293POPC   NC3 6995   7.470  31.432   9.453
 5293POPC   PO4 6996   7.450  31.439   9.153
 5293POPC   GL1 6997   7.454  31.433   8.853
 5293POPC   GL2 6998   7.323  31.425   8.853
 5293POPC   C1A 6999   7.407  31.513   8.553
 5293POPC   D2A 7000   7.425  31.467   8.253
 5293POPC   C3A 7001   7.453  31.450   7.953
 5293POPC   C4A 7002   7.456  31.516   7.653
 5293POPC   C1B 7003   7.193  31.348   8.553
 5293POPC   C2B 7004   7.232  31.351   8.253
 5293POPC   C3B 7005   7.155  31.406   7.953
 5293POPC   C4B 7006   7.208  31.423   7.653
 5294POPC   NC3 7007  43.925  12.099   9.453
 5294POPC   PO4 7008  43.857  12.097   9.153
 5294POPC   GL1 7009  43.868  12.039   8.853
 5294POPC   GL2 7010  43.851  12.177   8.853
 5294POPC   C1A 7011  43.859  12.096   8.553
 5294POPC   D2A 7012  43.912  12.083   8.253
 5294POPC   C3A 7013  43.919  12.046   7.953
 5294POPC   C4A 7014  43.925  12.050   7.653
 5294POPC   C1B 7015  43.788  12.322   8.553
 5294POPC   C2B 7016  43.747  12.353   8.253
 5294POPC   C3B 7017  43.807  12.341   7.953
 5294POPC   C4B 7018  43.755  12.338   7.653
 5295POPC   NC3 7019  19.017  20.608   9.453
 5295POPC   PO4 7020  19.017  20.650   9.153
 5295POPC   GL1 7021  19.103  20.566   8.853
 5295POPC   GL2 7022  19.171  20.642   8.853
 5295POPC   C1A 7023  19.057  20.651   8.553
 5295POPC   D2A 7024  19.033  20.607   8.253
 5295POPC   C3A 7025  19.039  20.622   7.953
 5295POPC   C4A 7026  19.077  20.652   7.653
 5295POPC   C1B 7027  19.325  20.606   8.553
 5295POPC   C2B 7028  19.328  20.565   8.253
 5295POPC   C3B 7029  19.301  20.560   7.953
 5295POPC   C4B 7030  19.348  20.553   7.653
 5296POPC   NC3 7031   8.933  42.324   9.453
 5296POPC   PO4 7032   9.008  42.294   9.153
 5296POPC   GL1 7033   8.974  42.358   8.853
 5296POPC   GL2 7034   8.836  42.450   8.853
 5296POPC   C1A 7035   8.983  42.308   8.553
 5296POPC   D2A 7036   8.977  42.372   8.253
 5296POPC   C3A 7037   8.928  42.294   7.953
 5296POPC   C4A 7038   8.949  42.314   7.653
 5296POPC   C1B 7039   8.792  42.488   8.553
 5296POPC   C2B 7040   8.742  42.524   8.253
 5296POPC   C3B 7041   8.819  42.454   7.953
 5296POPC   C4B 7042   8.789  42.522   7.653
 5297POPC   NC3 7043  22.131  14.402   9.453
 5297POPC   PO4 7044  22.177  14.439   9.153
 5297POPC   GL1 7045  22.193  14.369   8.853
 5297POPC   GL2 7046  21.998  14.433   8.853
 5297POPC   C1A 7047  22.125  14.449   8.553
 5297POPC   D2A 7048  22.166  14.366   8.253
 5297POPC   C3A 7049  22.169  14.440   7.953
 5297POPC   C4A 7050  22.147  14.373   7.653
 5297POPC   C1B 7051  21.951  14.516   8.553
 5297POPC   C2B 7052  21.920  14.473   8.253
 5297POPC   C3B 7053  21.969  14.502   7.953
 5297POPC   C4B 7054  21.885  14.516   7.653
 5298POPC   NC3 7055   5.867   9.787   9.453
 5298POPC   PO4 7056   5.860   9.768   9.153
 5298POPC   GL1 7057   5.913   9.700   8.853
 5298POPC   GL2 7058   5.755   9.814   8.853
 5298POPC   C1A 7059   5.897   9.716   8.553
 5298POPC   D2A 7060   5.834   9.749   8.253
 5298POPC   C3A 7061   5.822   9.757   7.953
 5298POPC   C4A 7062   5.830   9.729   7.653
 5298POPC   C1B 7063   5.693   9.898   8.553
 5298POPC   C2B 7064   5.725   9.961   8.253
 5298POPC   C3B 7065   5.680   9.888   7.953
 5298POPC   C4B 7066   5.681   9.869   7.653
 5299POPC   NC3 7067  26.787  10.524   9.453
 5299POPC   PO4 7068  26.843  10.571   9.153
 5299POPC   GL1 7069  26.771  10.570   8.853
 5299POPC   GL2 7070  26.913  10.563   8.853
 5299POPC   C1A 7071  26.787  10.518   8.553
 5299POPC   D2A 7072  26.787  10.572   8.253
 5299POPC   C3A 7073  26.782  10.541   7.953
 5299POPC   C4A 7074  26.823  10.493   7.653
 5299POPC   C1B 7075  27.078  10.676   8.553
 5299POPC   C2B 7076  27.055  10.594   8.253
 5299POPC   C3B 7077  27.026  10.666   7.953
 5299POPC   C4B 7078  27.006  10.676   7.653
 5300POPC   NC3 7079  42.375  41.566   9.453
 5300POPC   PO4 7080  42.349  41.565   9.153
 5300POPC   GL1 7081  42.287  41.601   8.853
 5300POPC   GL2 7082  42.330  41.673   8.853
 5300POPC   C1A 7083  42.298  41.549   8.553
 5300POPC   D2A 7084  42.361  41.601   8.253
 5300POPC   C3A 7085  42.329  41.601   7.953
 5300POPC   C4A 7086  42.305  41.573   7.653
 5300POPC   C1B 7087  42.316  41.847   8.553
 5300POPC   C2B 7088  42.374  41.802   8.253
 5300POPC   C3B 7089  42.355  41.812   7.953
 5300POPC   C4B 7090  42.380  41.853   7.653
 5301POPC   NC3 7091  11.322  39.225   9.453
 5301POPC   PO4 7092  11.295  39.211   9.153
 5301POPC   GL1 7093  11.303  39.243   8.853
 5301POPC   GL2 7094  11.192  39.359   8.853
 5301POPC   C1A 7095  11.286  39.237   8.553
 5301POPC   D2A 7096  11.312  39.259   8.253
 5301POPC   C3A 7097  11.287  39.186   7.953
 5301POPC   C4A 7098  11.339  39.229   7.653
 5301POPC   C1B 7099  11.076  39.373   8.553
 5301POPC   C2B 7100  11.161  39.380   8.253
 5301POPC   C3B 7101  11.142  39.449   7.953
 5301POPC   C4B 7102  11.089  39.380   7.653
 5302POPC   NC3 7103   5.888   0.436   9.453
 5302POPC   PO4 7104   5.831   0.395   9.153
 5302POPC   GL1 7105   5.879   0.476   8.853
 5302POPC   GL2 7106   5.780   0.350   8.853
 5302POPC   C1A 7107   5.872   0.411   8.553
 5302POPC   D2A 7108   5.832   0.483   8.253
 5302POPC   C3A 7109   5.875   0.418   7.953
 5302POPC   C4A 7110   5.905   0.432   7.653
 5302POPC   C1B 7111   5.685   0.356   8.553
 5302POPC   C2B 7112   5.610   0.295   8.253
 5302POPC   C3B 7113   5.667   0.266   7.953
 5302POPC   C4B 7114   5.657   0.292   7.653
 5303POPC   NC3 7115  35.396  11.276   9.453
 5303POPC   PO4 7116  35.362  11.318   9.153
 5303POPC   GL1 7117  35.361  11.290   8.853
 5303POPC   GL2 7118  35.195  11.385   8.853
 5303POPC   C1A 7119  35.326  11.290   8.553
 5303POPC   D2A 7120  35.333  11.289   8.253
 5303POPC   C3A 7121  35.308  11.342   7.953
 5303POPC   C4A 7122  35.393  11.312   7.653
 5303POPC   C1B 7123  35.116  11.435   8.553
 5303POPC   C2B 7124  35.168  11.423   8.253
 5303POPC   C3B 7125  35.172  11.404   7.953
 5303POPC   C4B 7126  35.117  11.461   7.653
 5304POPC   NC3 7127   7.451  22.138   9.453
 5304POPC   PO4 7128   7.435  22.190   9.153
 5304POPC   GL1 7129   7.438  22.177   8.853
 5304POPC   GL2 7130   7.489  22.249   8.853
 5304POPC   C1A 7131   7.439  22.188   8.553
 5304POPC   D2A 7132   7.394  22.131   8.253
 5304POPC   C3A 7133   7.383  22.141   7.953
 5304POPC   C4A 7134   7.383  22.122   7.653
 5304POPC   C1B 7135   7.579  22.292   8.553
 5304POPC   C2B 7136   7.562  22.347   8.253
 5304POPC   C3B 7137   7.582  22.326   7.953
 5304POPC   C4B 7138   7.593  22.349   7.653
 5305POPC   NC3 7139   2.716   0.399   9.453
 5305POPC   PO4 7140   2.804   0.397   9.153
 5305POPC   GL1 7141   2.749   0.468   8.853
 5305POPC   GL2 7142   2.913   0.349   8.853
 5305POPC   C1A 7143   2.815   0.481   8.553
 5305POPC   D2A 7144   2.761   0.477   8.253
 5305POPC   C3A 7145   2.780   0.415   7.953
 5305POPC   C4A 7146   2.802   0.434   7.653
 5305POPC   C1B 7147   3.011   0.318   8.553
 5305POPC   C2B 7148   2.960   0.272   8.253
 5305POPC   C3B 7149   2.968   0.318   7.953
 5305POPC   C4B 7150   2.990   0.258   7.653
 5306POPC   NC3 7151  25.293  19.042   9.453
 5306POPC   PO4 7152  25.299  19.064   9.153
 5306POPC   GL1 7153  25.256  19.071   8.853
 5306POPC   GL2 7154  25.428  19.009   8.853
 5306POPC   C1A 7155  25.228  19.048   8.553
 5306POPC   D2A 7156  25.231  19.068   8.253
 5306POPC   C3A 7157  25.306  19.073   7.953
 5306POPC   C4A 7158  25.295  19.012   7.653
 5306POPC   C1B 7159  25.463  19.028   8.553
 5306POPC   C2B 7160  25.497  18.978   8.253
 5306POPC   C3B 7161  25.493  19.034   7.953
 5306POPC   C4B 7162  25.506  18.949   7.653
 5307POPC   NC3 7163  31.439   2.750   9.453
 5307POPC   PO4 7164  31.490   2.780   9.153
 5307POPC   GL1 7165  31.509   2.717   8.853
 5307POPC   GL2 7166  31.547   2.819   8.853
 5307POPC   C1A 7167  31.518   2.722   8.553
 5307POPC   D2A 7168  31.431   2.720   8.253
 5307POPC   C3A 7169  31.499   2.795   7.953
 5307POPC   C4A 7170  31.435   2.753   7.653
 5307POPC   C1B 7171  31.724   2.872   8.553
 5307POPC   C2B 7172  31.717   2.806   8.253
 5307POPC   C3B 7173  31.736   2.802   7.953
 5307POPC   C4B 7174  31.734   2.882   7.653
 5308POPC   NC3 7175  40.816  34.590   9.453
 5308POPC   PO4 7176  40.737  34.560   9.153
 5308POPC   GL1 7177  40.798  34.539   8.853
 5308POPC   GL2 7178  40.801  34.462   8.853
 5308POPC   C1A 7179  40.761  34.598   8.553
 5308POPC   D2A 7180  40.768  34.545   8.253
 5308POPC   C3A 7181  40.792  34.587   7.953
 5308POPC   C4A 7182  40.783  34.577   7.653
 5308POPC   C1B 7183  40.777  34.287   8.553
 5308POPC   C2B 7184  40.781  34.299   8.253
 5308POPC   C3B 7185  40.787  34.290   7.953
 5308POPC   C4B 7186  40.720  34.292   7.653
 5309POPC   NC3 7187  20.649  43.093   9.453
 5309POPC   PO4 7188  20.629  43.153   9.153
 5309POPC   GL1 7189  20.598  43.089   8.853
 5309POPC   GL2 7190  20.651  42.975   8.853
 5309POPC   C1A 7191  20.653  43.160   8.553
 5309POPC   D2A 7192  20.593  43.111   8.253
 5309POPC   C3A 7193  20.642  43.077   7.953
 5309POPC   C4A 7194  20.593  43.113   7.653
 5309POPC   C1B 7195  20.743  42.919   8.553
 5309POPC   C2B 7196  20.733  42.910   8.253
 5309POPC   C3B 7197  20.728  42.934   7.953
 5309POPC   C4B 7198  20.730  42.886   7.653
 5310POPC   NC3 7199   3.589  12.860   9.453
 5310POPC   PO4 7200   3.550  12.834   9.153
 5310POPC   GL1 7201   3.576  12.856   8.853
 5310POPC   GL2 7202   3.612  12.904   8.853
 5310POPC   C1A 7203   3.547  12.869   8.553
 5310POPC   D2A 7204   3.544  12.815   8.253
 5310POPC   C3A 7205   3.569  12.827   7.953
 5310POPC   C4A 7206   3.513  12.864   7.653
 5310POPC   C1B 7207   3.787  12.959   8.553
 5310POPC   C2B 7208   3.810  12.942   8.253
 5310POPC   C3B 7209   3.763  12.905   7.953
 5310POPC   C4B 7210   3.755  12.951   7.653
 5311POPC   NC3 7211  26.822  43.879   9.453
 5311POPC   PO4 7212  26.821  43.922   9.153
 5311POPC   GL1 7213  26.854  43.879   8.853
 5311POPC   GL2 7214  26.941  43.816   8.853
 5311POPC   C1A 7215  26.811  43.846   8.553
 5311POPC   D2A 7216  26.791  43.934   8.253
 5311POPC   C3A 7217  26.779  43.913   7.953
 5311POPC   C4A 7218  26.813  43.918   7.653
 5311POPC   C1B 7219  26.962  43.731   8.553
 5311POPC   C2B 7220  26.974  43.744   8.253
 5311POPC   C3B 7221  27.029  43.724   7.953
 5311POPC   C4B 7222  26.957  43.761   7.653
 5312POPC   NC3 7223  20.583  30.695   9.453
 5312POPC   PO4 7224  20.571  30.678   9.153
 5312POPC   GL1 7225  20.562  30.743   8.853
 5312POPC   GL2 7226  20.606  30.564   8.853
 5312POPC   C1A 7227  20.631  30.677   8.553
 5312POPC   D2A 7228  20.596  30.740   8.253
 5312POPC   C3A 7229  20.605  30.713   7.953
 5312POPC   C4A 7230  20.644  30.720   7.653
 5312POPC   C1B 7231  20.642  30.440   8.553
 5312POPC   C2B 7232  20.668  30.401   8.253
 5312POPC   C3B 7233  20.606  30.433   7.953
 5312POPC   C4B 7234  20.600  30.463   7.653
 5313POPC   NC3 7235  21.408  44.682   9.453
 5313POPC   PO4 7236  21.368  44.665   9.153
 5313POPC   GL1 7237  21.361  44.651   8.853
 5313POPC   GL2 7238  21.429  44.809   8.853
 5313POPC   C1A 7239  21.401  44.674   8.553
 5313POPC   D2A 7240  21.418  44.655   8.253
 5313POPC   C3A 7241  21.345  44.676   7.953
 5313POPC   C4A 7242  21.364  44.623   7.653
 5313POPC   C1B 7243  21.437  44.943   8.553
 5313POPC   C2B 7244  21.424  44.929   8.253
 5313POPC   C3B 7245  21.412  44.948   7.953
 5313POPC   C4B 7246  21.449  44.891   7.653
 5314POPC   NC3 7247  40.780  43.100   9.453
 5314POPC   PO4 7248  40.816  43.152   9.153
 5314POPC   GL1 7249  40.822  43.159   8.853
 5314POPC   GL2 7250  40.805  43.241   8.853
 5314POPC   C1A 7251  40.781  43.093   8.553
 5314POPC   D2A 7252  40.774  43.130   8.253
 5314POPC   C3A 7253  40.752  43.126   7.953
 5314POPC   C4A 7254  40.792  43.074   7.653
 5314POPC   C1B 7255  40.834  43.311   8.553
 5314POPC   C2B 7256  40.861  43.359   8.253
 5314POPC   C3B 7257  40.826  43.317   7.953
 5314POPC   C4B 7258  40.847  43.335   7.653
 5315POPC   NC3 7259  29.890  33.009   9.453
 5315POPC   PO4 7260  29.914  33.011   9.153
 5315POPC   GL1 7261  29.956  32.983   8.853
 5315POPC   GL2 7262  29.790  33.057   8.853
 5315POPC   C1A 7263  29.882  32.994   8.553
 5315POPC   D2A 7264  29.927  32.982   8.253
 5315POPC   C3A 7265  29.967  32.992   7.953
 5315POPC   C4A 7266  29.903  32.987   7.653
 5315POPC   C1B 7267  29.668  33.106   8.553
 5315POPC   C2B 7268  29.707  33.043   8.253
 5315POPC   C3B 7269  29.684  33.065   7.953
 5315POPC   C4B 7270  29.703  33.101   7.653
 5316POPC   NC3 7271  24.448  31.470   9.453
 5316POPC   PO4 7272  24.462  31.469   9.153
 5316POPC   GL1 7273  24.461  31.499   8.853
 5316POPC   GL2 7274  24.505  31.396   8.853
 5316POPC   C1A 7275  24.477  31.459   8.553
 5316POPC   D2A 7276  24.524  31.502   8.253
 5316POPC   C3A 7277  24.477  31.515   7.953
 5316POPC   C4A 7278  24.516  31.506   7.653
 5316POPC   C1B 7279  24.621  31.259   8.553
 5316POPC   C2B 7280  24.616  31.209   8.253
 5316POPC   C3B 7281  24.632  31.224   7.953
 5316POPC   C4B 7282  24.584  31.297   7.653
 5317POPC   NC3 7283  37.677  15.143   9.453
 5317POPC   PO4 7284  37.685  15.134   9.153
 5317POPC   GL1 7285  37.715  15.202   8.853
 5317POPC   GL2 7286  37.678  15.319   8.853
 5317POPC   C1A 7287  37.635  15.149   8.553
 5317POPC   D2A 7288  37.692  15.224   8.253
 5317POPC   C3A 7289  37.713  15.178   7.953
 5317POPC   C4A 7290  37.693  15.200   7.653
 5317POPC   C1B 7291  37.633  15.461   8.553
 5317POPC   C2B 7292  37.681  15.401   8.253
 5317POPC   C3B 7293  37.687  15.406   7.953
 5317POPC   C4B 7294  37.686  15.404   7.653
 5318POPC   NC3 7295  31.500   1.975   9.453
 5318POPC   PO4 7296  31.471   2.013   9.153
 5318POPC   GL1 7297  31.471   1.956   8.853
 5318POPC   GL2 7298  31.480   1.820   8.853
 5318POPC   C1A 7299  31.507   2.006   8.553
 5318POPC   D2A 7300  31.519   1.940   8.253
 5318POPC   C3A 7301  31.442   1.965   7.953
 5318POPC   C4A 7302  31.463   1.995   7.653
 5318POPC   C1B 7303  31.480   1.709   8.553
 5318POPC   C2B 7304  31.484   1.726   8.253
 5318POPC   C3B 7305  31.491   1.763   7.953
 5318POPC   C4B 7306  31.455   1.780   7.653
 5319POPC   NC3 7307  30.691  37.658   9.453
 5319POPC   PO4 7308  30.722  37.633   9.153
 5319POPC   GL1 7309  30.687  37.718   8.853
 5319POPC   GL2 7310  30.611  37.560   8.853
 5319POPC   C1A 7311  30.726  37.632   8.553
 5319POPC   D2A 7312  30.734  37.678   8.253
 5319POPC   C3A 7313  30.715  37.649   7.953
 5319POPC   C4A 7314  30.690  37.702   7.653
 5319POPC   C1B 7315  30.501  37.431   8.553
 5319POPC   C2B 7316  30.514  37.522   8.253
 5319POPC   C3B 7317  30.583  37.500   7.953
 5319POPC   C4B 7318  30.581  37.472   7.653
 5320POPC   NC3 7319  36.089   8.949   9.453
 5320POPC   PO4 7320  36.149   9.021   9.153
 5320POPC   GL1 7321  36.121   8.993   8.853
 5320POPC   GL2 7322  36.256   9.093   8.853
 5320POPC   C1A 7323  36.093   8.958   8.553
 5320POPC   D2A 7324  36.141   8.968   8.253
 5320POPC   C3A 7325  36.156   8.989   7.953
 5320POPC   C4A 7326  36.159   8.945   7.653
 5320POPC   C1B 7327  36.282   9.144   8.553
 5320POPC   C2B 7328  36.287   9.129   8.253
 5320POPC   C3B 7329  36.286   9.127   7.953
 5320POPC   C4B 7330  36.337   9.104   7.653
 5321POPC   NC3 7331  14.360  19.066   9.453
 5321POPC   PO4 7332  14.377  19.057   9.153
 5321POPC   GL1 7333  14.400  19.041   8.853
 5321POPC   GL2 7334  14.438  18.988   8.853
 5321POPC   C1A 7335  14.393  19.108   8.553
 5321POPC   D2A 7336  14.382  19.071   8.253
 5321POPC   C3A 7337  14.359  19.067   7.953
 5321POPC   C4A 7338  14.403  19.056   7.653
 5321POPC   C1B 7339  14.535  18.853   8.553
 5321POPC   C2B 7340  14.491  18.847   8.253
 5321POPC   C3B 7341  14.514  18.874   7.953
 5321POPC   C4B 7342  14.518  18.882   7.653
 5322POPC   NC3 7343  39.181  17.533   9.453
 5322POPC   PO4 7344  39.271  17.508   9.153
 5322POPC   GL1 7345  39.229  17.546   8.853
 5322POPC   GL2 7346  39.386  17.499   8.853
 5322POPC   C1A 7347  39.251  17.493   8.553
 5322POPC   D2A 7348  39.198  17.544   8.253
 5322POPC   C3A 7349  39.240  17.465   7.953
 5322POPC   C4A 7350  39.268  17.463   7.653
 5322POPC   C1B 7351  39.441  17.385   8.553
 5322POPC   C2B 7352  39.426  17.456   8.253
 5322POPC   C3B 7353  39.469  17.457   7.953
 5322POPC   C4B 7354  39.480  17.445   7.653
 5323POPC   NC3 7355   9.741  18.316   9.453
 5323POPC   PO4 7356   9.741  18.243   9.153
 5323POPC   GL1 7357   9.744  18.248   8.853
 5323POPC   GL2 7358   9.619  18.253   8.853
 5323POPC   C1A 7359   9.759  18.328   8.553
 5323POPC   D2A 7360   9.710  18.324   8.253
 5323POPC   C3A 7361   9.775  18.249   7.953
 5323POPC   C4A 7362   9.743  18.246   7.653
 5323POPC   C1B 7363   9.472  18.247   8.553
 5323POPC   C2B 7364   9.497  18.271   8.253
 5323POPC   C3B 7365   9.464  18.225   7.953
 5323POPC   C4B 7366   9.457  18.317   7.653
 5324POPC   NC3 7367  36.937  12.872   9.453
 5324POPC   PO4 7368  36.860  12.836   9.153
 5324POPC   GL1 7369  36.951  12.874   8.853
 5324POPC   GL2 7370  36.802  12.736   8.853
 5324POPC   C1A 7371  36.923  12.882   8.553
 5324POPC   D2A 7372  36.898  12.819   8.253
 5324POPC   C3A 7373  36.949  12.884   7.953
 5324POPC   C4A 7374  36.872  12.862   7.653
 5324POPC   C1B 7375  36.750  12.642   8.553
 5324POPC   C2B 7376  36.690  12.711   8.253
 5324POPC   C3B 7377  36.738  12.689   7.953
 5324POPC   C4B 7378  36.750  12.642   7.653
 5325POPC   NC3 7379  22.173  42.364   9.453
 5325POPC   PO4 7380  22.198  42.301   9.153
 5325POPC   GL1 7381  22.183  42.306   8.853
 5325POPC   GL2 7382  22.227  42.435   8.853
 5325POPC   C1A 7383  22.136  42.327   8.553
 5325POPC   D2A 7384  22.192  42.287   8.253
 5325POPC   C3A 7385  22.165  42.348   7.953
 5325POPC   C4A 7386  22.145  42.303   7.653
 5325POPC   C1B 7387  22.290  42.602   8.553
 5325POPC   C2B 7388  22.305  42.517   8.253
 5325POPC   C3B 7389  22.227  42.599   7.953
 5325POPC   C4B 7390  22.237  42.611   7.653
 5326POPC   NC3 7391  36.889  15.189   9.453
 5326POPC   PO4 7392  36.860  15.219   9.153
 5326POPC   GL1 7393  36.922  15.133   8.853
 5326POPC   GL2 7394  36.803  15.190   8.853
 5326POPC   C1A 7395  36.873  15.183   8.553
 5326POPC   D2A 7396  36.873  15.157   8.253
 5326POPC   C3A 7397  36.888  15.172   7.953
 5326POPC   C4A 7398  36.943  15.152   7.653
 5326POPC   C1B 7399  36.631  15.193   8.553
 5326POPC   C2B 7400  36.649  15.194   8.253
 5326POPC   C3B 7401  36.678  15.172   7.953
 5326POPC   C4B 7402  36.694  15.197   7.653
 5327POPC   NC3 7403  42.333  26.811   9.453
 5327POPC   PO4 7404  42.344  26.775   9.153
 5327POPC   GL1 7405  42.300  26.839   8.853
 5327POPC   GL2 7406  42.394  26.905   8.853
 5327POPC   C1A 7407  42.285  26.798   8.553
 5327POPC   D2A 7408  42.294  26.862   8.253
 5327POPC   C3A 7409  42.350  26.827   7.953
 5327POPC   C4A 7410  42.318  26.793   7.653
 5327POPC   C1B 7411  42.481  27.012   8.553
 5327POPC   C2B 7412  42.490  27.026   8.253
 5327POPC   C3B 7413  42.480  26.986   7.953
 5327POPC   C4B 7414  42.503  27.017   7.653
 5328POPC   NC3 7415  28.328  36.080   9.453
 5328POPC   PO4 7416  28.356  36.126   9.153
 5328POPC   GL1 7417  28.417  36.086   8.853
 5328POPC   GL2 7418  28.513  36.158   8.853
 5328POPC   C1A 7419  28.352  36.113   8.553
 5328POPC   D2A 7420  28.335  36.170   8.253
 5328POPC   C3A 7421  28.394  36.112   7.953
 5328POPC   C4A 7422  28.356  36.084   7.653
 5328POPC   C1B 7423  28.618  36.245   8.553
 5328POPC   C2B 7424  28.602  36.253   8.253
 5328POPC   C3B 7425  28.591  36.237   7.953
 5328POPC   C4B 7426  28.571  36.183   7.653
 5329POPC   NC3 7427  40.055  21.382   9.453
 5329POPC   PO4 7428  39.981  21.369   9.153
 5329POPC   GL1 7429  39.957  21.430   8.853
 5329POPC   GL2 7430  39.940  21.469   8.853
 5329POPC   C1A 7431  39.971  21.435   8.553
 5329POPC   D2A 7432  40.017  21.363   8.253
 5329POPC   C3A 7433  40.022  21.358   7.953
 5329POPC   C4A 7434  40.050  21.346   7.653
 5329POPC   C1B 7435  39.813  21.509   8.553
 5329POPC   C2B 7436  39.840  21.510   8.253
 5329POPC   C3B 7437  39.762  21.489   7.953
 5329POPC   C4B 7438  39.826  21.489   7.653
 5330POPC   NC3 7439   2.762  20.619   9.453
 5330POPC   PO4 7440   2.718  20.647   9.153
 5330POPC   GL1 7441   2.748  20.623   8.853
 5330POPC   GL2 7442   2.832  20.528   8.853
 5330POPC   C1A 7443   2.772  20.640   8.553
 5330POPC   D2A 7444   2.809  20.574   8.253
 5330POPC   C3A 7445   2.783  20.615   7.953
 5330POPC   C4A 7446   2.746  20.572   7.653
 5330POPC   C1B 7447   2.891  20.340   8.553
 5330POPC   C2B 7448   2.838  20.350   8.253
 5330POPC   C3B 7449   2.817  20.420   7.953
 5330POPC   C4B 7450   2.818  20.393   7.653
 5331POPC   NC3 7451  17.458  29.966   9.453
 5331POPC   PO4 7452  17.481  29.965   9.153
 5331POPC   GL1 7453  17.513  29.901   8.853
 5331POPC   GL2 7454  17.532  29.831   8.853
 5331POPC   C1A 7455  17.478  29.910   8.553
 5331POPC   D2A 7456  17.537  29.923   8.253
 5331POPC   C3A 7457  17.538  29.904   7.953
 5331POPC   C4A 7458  17.507  29.924   7.653
 5331POPC   C1B 7459  17.435  29.689   8.553
 5331POPC   C2B 7460  17.441  29.648   8.253
 5331POPC   C3B 7461  17.525  29.671   7.953
 5331POPC   C4B 7462  17.449  29.712   7.653
 5332POPC   NC3 7463  38.479   2.794   9.453
 5332POPC   PO4 7464  38.469   2.731   9.153
 5332POPC   GL1 7465  38.445   2.800   8.853
 5332POPC   GL2 7466  38.424   2.854   8.853
 5332POPC   C1A 7467  38.467   2.774   8.553
 5332POPC   D2A 7468  38.442   2.746   8.253
 5332POPC   C3A 7469  38.414   2.789   7.953
 5332POPC   C4A 7470  38.503   2.728   7.653
 5332POPC   C1B 7471  38.425   3.009   8.553
 5332POPC   C2B 7472  38.343   3.050   8.253
 5332POPC   C3B 7473  38.383   3.029   7.953
 5332POPC   C4B 7474  38.400   3.028   7.653
 5333POPC   NC3 7475  37.666  12.100   9.453
 5333POPC   PO4 7476  37.687  12.050   9.153
 5333POPC   GL1 7477  37.727  12.061   8.853
 5333POPC   GL2 7478  37.582  12.117   8.853
 5333POPC   C1A 7479  37.700  12.090   8.553
 5333POPC   D2A 7480  37.684  12.060   8.253
 5333POPC   C3A 7481  37.712  12.097   7.953
 5333POPC   C4A 7482  37.641  12.118   7.653
 5333POPC   C1B 7483  37.411  12.147   8.553
 5333POPC   C2B 7484  37.468  12.130   8.253
 5333POPC   C3B 7485  37.452  12.112   7.953
 5333POPC   C4B 7486  37.381  12.055   7.653
 5334POPC   NC3 7487  24.490  23.667   9.453
 5334POPC   PO4 7488  24.474  23.720   9.153
 5334POPC   GL1 7489  24.520  23.669   8.853
 5334POPC   GL2 7490  24.649  23.690   8.853
 5334POPC   C1A 7491  24.486  23.739   8.553
 5334POPC   D2A 7492  24.511  23.686   8.253
 5334POPC   C3A 7493  24.466  23.679   7.953
 5334POPC   C4A 7494  24.459  23.707   7.653
 5334POPC   C1B 7495  24.702  23.737   8.553
 5334POPC   C2B 7496  24.710  23.715   8.253
 5334POPC   C3B 7497  24.711  23.755   7.953
 5334POPC   C4B 7498  24.759  23.697   7.653
 5335POPC   NC3 7499  15.224  38.434   9.453
 5335POPC   PO4 7500  15.165  38.453   9.153
 5335POPC   GL1 7501  15.165  38.433   8.853
 5335POPC   GL2 7502  15.233  38.524   8.853
 5335POPC   C1A 7503  15.150  38.491   8.553
 5335POPC   D2A 7504  15.162  38.439   8.253
 5335POPC   C3A 7505  15.165  38.500   7.953
 5335POPC   C4A 7506  15.148  38.416   7.653
 5335POPC   C1B 7507  15.394  38.594   8.553
 5335POPC   C2B 7508  15.376  38.605   8.253
 5335POPC   C3B 7509  15.355  38.674   7.953
 5335POPC   C4B 7510  15.313  38.675   7.653
 5336POPC   NC3 7511  32.230  25.277   9.453
 5336POPC   PO4 7512  32.211  25.274   9.153
 5336POPC   GL1 7513  32.289  25.240   8.853
 5336POPC   GL2 7514  32.187  25.169   8.853
 5336POPC   C1A 7515  32.238  25.246   8.553
 5336POPC   D2A 7516  32.279  25.223   8.253
 5336POPC   C3A 7517  32.232  25.249   7.953
 5336POPC   C4A 7518  32.287  25.292   7.653
 5336POPC   C1B 7519  32.165  24.976   8.553
 5336POPC   C2B 7520  32.184  25.036   8.253
 5336POPC   C3B 7521  32.214  25.068   7.953
 5336POPC   C4B 7522  32.160  25.038   7.653
 5337POPC   NC3 7523  16.687   7.440   9.453
 5337POPC   PO4 7524  16.691   7.414   9.153
 5337POPC   GL1 7525  16.717   7.460   8.853
 5337POPC   GL2 7526  16.660   7.272   8.853
 5337POPC   C1A 7527  16.689   7.399   8.553
 5337POPC   D2A 7528  16.681   7.451   8.253
 5337POPC   C3A 7529  16.759   7.463   7.953
 5337POPC   C4A 7530  16.776   7.402   7.653
 5337POPC   C1B 7531  16.635   7.225   8.553
 5337POPC   C2B 7532  16.582   7.171   8.253
 5337POPC   C3B 7533  16.583   7.160   7.953
 5337POPC   C4B 7534  16.577   7.239   7.653
 5338POPC   NC3 7535  19.058  43.137   9.453
 5338POPC   PO4 7536  19.065  43.082   9.153
 5338POPC   GL1 7537  19.059  43.138   8.853
 5338POPC   GL2 7538  18.937  43.158   8.853
 5338POPC   C1A 7539  19.075  43.086   8.553
 5338POPC   D2A 7540  19.036  43.061   8.253
 5338POPC   C3A 7541  19.039  43.159   7.953
 5338POPC   C4A 7542  19.050  43.146   7.653
 5338POPC   C1B 7543  18.770  43.089   8.553
 5338POPC   C2B 7544  18.817  43.114   8.253
 5338POPC   C3B 7545  18.848  43.136   7.953
 5338POPC   C4B 7546  18.803  43.096   7.653
 5339POPC   NC3 7547  43.120  16.731   9.453
 5339POPC   PO4 7548  43.111  16.778   9.153
 5339POPC   GL1 7549  43.073  16.768   8.853
 5339POPC   GL2 7550  43.225  16.653   8.853
 5339POPC   C1A 7551  43.079  16.724   8.553
 5339POPC   D2A 7552  43.147  16.764   8.253
 5339POPC   C3A 7553  43.142  16.685   7.953
 5339POPC   C4A 7554  43.152  16.727   7.653
 5339POPC   C1B 7555  43.357  16.616   8.553
 5339POPC   C2B 7556  43.344  16.638   8.253
 5339POPC   C3B 7557  43.340  16.617   7.953
 5339POPC   C4B 7558  43.378  16.646   7.653
 5340POPC   NC3 7559  19.843   1.236   9.453
 5340POPC   PO4 7560  19.872   1.166   9.153
 5340POPC   GL1 7561  19.803   1.191   8.853
 5340POPC   GL2 7562  19.913   1.197   8.853
 5340POPC   C1A 7563  19.880   1.165   8.553
 5340POPC   D2A 7564  19.882   1.172   8.253
 5340POPC   C3A 7565  19.804   1.221   7.953
 5340POPC   C4A 7566  19.785   1.238   7.653
 5340POPC   C1B 7567  20.046   1.076   8.553
 5340POPC   C2B 7568  20.048   1.086   8.253
 5340POPC   C3B 7569  20.023   1.121   7.953
 5340POPC   C4B 7570  20.108   1.167   7.653
 5341POPC   NC3 7571  15.177  19.021   9.453
 5341POPC   PO4 7572  15.226  19.037   9.153
 5341POPC   GL1 7573  15.167  19.082   8.853
 5341POPC   GL2 7574  15.120  18.945   8.853
 5341POPC   C1A 7575  15.204  19.098   8.553
 5341POPC   D2A 7576  15.137  19.066   8.253
 5341POPC   C3A 7577  15.173  19.063   7.953
 5341POPC   C4A 7578  15.186  19.102   7.653
 5341POPC   C1B 7579  15.042  18.817   8.553
 5341POPC   C2B 7580  15.092  18.810   8.253
 5341POPC   C3B 7581  15.059  18.782   7.953
 5341POPC   C4B 7582  15.089  18.780   7.653
 5342POPC   NC3 7583  34.621  36.080   9.453
 5342POPC   PO4 7584  34.538  36.158   9.153
 5342POPC   GL1 7585  34.567  36.113   8.853
 5342POPC   GL2 7586  34.436  36.193   8.853
 5342POPC   C1A 7587  34.586  36.107   8.553
 5342POPC   D2A 7588  34.559  36.129   8.253
 5342POPC   C3A 7589  34.599  36.163   7.953
 5342POPC   C4A 7590  34.570  36.111   7.653
 5342POPC   C1B 7591  34.316  36.240   8.553
 5342POPC   C2B 7592  34.392  36.279   8.253
 5342POPC   C3B 7593  34.396  36.301   7.953
 5342POPC   C4B 7594  34.322  36.242   7.653
 5343POPC   NC3 7595  22.920  28.376   9.453
 5343POPC   PO4 7596  22.949  28.410   9.153
 5343POPC   GL1 7597  22.956  28.392   8.853
 5343POPC   GL2 7598  22.977  28.236   8.853
 5343POPC   C1A 7599  22.891  28.350   8.553
 5343POPC   D2A 7600  22.943  28.389   8.253
 5343POPC   C3A 7601  22.902  28.417   7.953
 5343POPC   C4A 7602  22.895  28.379   7.653
 5343POPC   C1B 7603  23.046  28.202   8.553
 5343POPC   C2B 7604  23.035  28.158   8.253
 5343POPC   C3B 7605  23.080  28.159   7.953
 5343POPC   C4B 7606  23.028  28.189   7.653
 5344POPC   NC3 7607  25.300  43.081   9.453
 5344POPC   PO4 7608  25.288  43.138   9.153
 5344POPC   GL1 7609  25.268  43.129   8.853
 5344POPC   GL2 7610  25.211  42.964   8.853
 5344POPC   C1A 7611  25.263  43.109   8.553
 5344POPC   D2A 7612  25.256  43.148   8.253
 5344POPC   C3A 7613  25.255  43.144   7.953
 5344POPC   C4A 7614  25.266  43.126   7.653
 5344POPC   C1B 7615  25.173  42.917   8.553
 5344POPC   C2B 7616  25.150  42.885   8.253
 5344POPC   C3B 7617  25.157  42.857   7.953
 5344POPC   C4B 7618  25.162  42.910   7.653
 5345POPC   NC3 7619  35.312  15.167   9.453
 5345POPC   PO4 7620  35.309  15.206   9.153
 5345POPC   GL1 7621  35.316  15.197   8.853
 5345POPC   GL2 7622  35.237  15.194   8.853
 5345POPC   C1A 7623  35.311  15.195   8.553
 5345POPC   D2A 7624  35.385  15.179   8.253
 5345POPC   C3A 7625  35.396  15.227   7.953
 5345POPC   C4A 7626  35.356  15.211   7.653
 5345POPC   C1B 7627  35.152  15.318   8.553
 5345POPC   C2B 7628  35.088  15.239   8.253
 5345POPC   C3B 7629  35.086  15.322   7.953
 5345POPC   C4B 7630  35.150  15.294   7.653
 5346POPC   NC3 7631  12.088  22.140   9.453
 5346POPC   PO4 7632  12.126  22.126   9.153
 5346POPC   GL1 7633  12.069  22.206   8.853
 5346POPC   GL2 7634  12.223  22.077   8.853
 5346POPC   C1A 7635  12.060  22.145   8.553
 5346POPC   D2A 7636  12.114  22.167   8.253
 5346POPC   C3A 7637  12.106  22.173   7.953
 5346POPC   C4A 7638  12.027  22.147   7.653
 5346POPC   C1B 7639  12.270  22.043   8.553
 5346POPC   C2B 7640  12.280  22.068   8.253
 5346POPC   C3B 7641  12.300  22.059   7.953
 5346POPC   C4B 7642  12.325  22.033   7.653
 5347POPC   NC3 7643  30.691   9.764   9.453
 5347POPC   PO4 7644  30.694   9.726   9.153
 5347POPC   GL1 7645  30.675   9.796   8.853
 5347POPC   GL2 7646  30.814   9.803   8.853
 5347POPC   C1A 7647  30.737   9.770   8.553
 5347POPC   D2A 7648  30.647   9.759   8.253
 5347POPC   C3A 7649  30.721   9.742   7.953
 5347POPC   C4A 7650  30.691   9.740   7.653
 5347POPC   C1B 7651  30.926   9.916   8.553
 5347POPC   C2B 7652  30.867   9.897   8.253
 5347POPC   C3B 7653  30.864   9.935   7.953
 5347POPC   C4B 7654  30.870   9.891   7.653
 5348POPC   NC3 7655  39.961  15.172   9.453
 5348POPC   PO4 7656  40.015  15.167   9.153
 5348POPC   GL1 7657  40.052  15.132   8.853
 5348POPC   GL2 7658  40.124  15.164   8.853
 5348POPC   C1A 7659  39.993  15.137   8.553
 5348POPC   D2A 7660  39.968  15.183   8.253
 5348POPC   C3A 7661  39.959  15.209   7.953
 5348POPC   C4A 7662  40.046  15.205   7.653
 5348POPC   C1B 7663  40.193  15.105   8.553
 5348POPC   C2B 7664  40.266  15.013   8.253
 5348POPC   C3B 7665  40.266  15.046   7.953
 5348POPC   C4B 7666  40.199  15.043   7.653
 5349POPC   NC3 7667   5.079  36.174   9.453
 5349POPC   PO4 7668   5.089  36.164   9.153
 5349POPC   GL1 7669   5.071  36.129   8.853
 5349POPC   GL2 7670   5.121  36.037   8.853
 5349POPC   C1A 7671   5.085  36.091   8.553
 5349POPC   D2A 7672   5.131  36.089   8.253
 5349POPC   C3A 7673   5.089  36.093   7.953
 5349POPC   C4A 7674   5.049  36.123   7.653
 5349POPC   C1B 7675   5.139  35.883   8.553
 5349POPC   C2B 7676   5.093  35.848   8.253
 5349POPC   C3B 7677   5.096  35.900   7.953
 5349POPC   C4B 7678   5.174  35.853   7.653
 5350POPC   NC3 7679   1.955  10.535   9.453
 5350POPC   PO4 7680   1.958  10.544   9.153
 5350POPC   GL1 7681   2.006  10.499   8.853
 5350POPC   GL2 7682   2.110  10.512   8.853
 5350POPC   C1A 7683   1.984  10.507   8.553
 5350POPC   D2A 7684   1.970  10.505   8.253
 5350POPC   C3A 7685   1.949  10.546   7.953
 5350POPC   C4A 7686   2.018  10.544   7.653
 5350POPC   C1B 7687   2.264  10.574   8.553
 5350POPC   C2B 7688   2.238  10.572   8.253
 5350POPC   C3B 7689   2.238  10.594   7.953
 5350POPC   C4B 7690   2.198  10.554   7.653
 5351POPC   NC3 7691  37.659  39.215   9.453
 5351POPC   PO4 7692  37.635  39.278   9.153
 5351POPC   GL1 7693  37.679  39.199   8.853
 5351POPC   GL2 7694  37.775  39.269   8.853
 5351POPC   C1A 7695  37.683  39.188   8.553
 5351POPC   D2A 7696  37.714  39.246   8.253
 5351POPC   C3A 7697  37.711  39.257   7.953
 5351POPC   C4A 7698  37.692  39.191   7.653
 5351POPC   C1B 7699  37.918  39.273   8.553
 5351POPC   C2B 7700  37.970  39.341   8.253
 5351POPC   C3B 7701  37.887  39.300   7.953
 5351POPC   C4B 7702  37.968  39.317   7.653
 5352POPC   NC3 7703  41.597   6.629   9.453
 5352POPC   PO4 7704  41.547   6.632   9.153
 5352POPC   GL1 7705  41.575   6.599   8.853
 5352POPC   GL2 7706  41.639   6.526   8.853
 5352POPC   C1A 7707  41.511   6.656   8.553
 5352POPC   D2A 7708  41.536   6.600   8.253
 5352POPC   C3A 7709  41.583   6.598   7.953
 5352POPC   C4A 7710  41.556   6.668   7.653
 5352POPC   C1B 7711  41.770   6.443   8.553
 5352POPC   C2B 7712  41.738   6.428   8.253
 5352POPC   C3B 7713  41.741   6.410   7.953
 5352POPC   C4B 7714  41.748   6.439   7.653
 5353POPC   NC3 7715  15.152   3.499   9.453
 5353POPC   PO4 7716  15.144   3.554   9.153
 5353POPC   GL1 7717  15.138   3.584   8.853
 5353POPC   GL2 7718  15.119   3.640   8.853
 5353POPC   C1A 7719  15.138   3.500   8.553
 5353POPC   D2A 7720  15.131   3.553   8.253
 5353POPC   C3A 7721  15.149   3.573   7.953
 5353POPC   C4A 7722  15.147   3.518   7.653
 5353POPC   C1B 7723  14.989   3.752   8.553
 5353POPC   C2B 7724  15.054   3.743   8.253
 5353POPC   C3B 7725  15.052   3.760   7.953
 5353POPC   C4B 7726  15.029   3.715   7.653
 5354POPC   NC3 7727  26.825  19.879   9.453
 5354POPC   PO4 7728  26.844  19.789   9.153
 5354POPC   GL1 7729  26.804  19.854   8.853
 5354POPC   GL2 7730  26.890  19.758   8.853
 5354POPC   C1A 7731  26.809  19.841   8.553
 5354POPC   D2A 7732  26.842  19.823   8.253
 5354POPC   C3A 7733  26.843  19.847   7.953
 5354POPC   C4A 7734  26.860  19.785   7.653
 5354POPC   C1B 7735  26.881  19.634   8.553
 5354POPC   C2B 7736  26.870  19.581   8.253
 5354POPC   C3B 7737  26.858  19.550   7.953
 5354POPC   C4B 7738  26.908  19.590   7.653
 5355POPC   NC3 7739  39.266   6.681   9.453
 5355POPC   PO4 7740  39.182   6.642   9.153
 5355POPC   GL1 7741  39.250   6.614   8.853
 5355POPC   GL2 7742  39.091   6.605   8.853
 5355POPC   C1A 7743  39.203   6.690   8.553
 5355POPC   D2A 7744  39.230   6.638   8.253
 5355POPC   C3A 7745  39.213   6.692   7.953
 5355POPC   C4A 7746  39.280   6.607   7.653
 5355POPC   C1B 7747  39.024   6.493   8.553
 5355POPC   C2B 7748  38.978   6.548   8.253
 5355POPC   C3B 7749  39.027   6.495   7.953
 5355POPC   C4B 7750  38.985   6.471   7.653
 5356POPC   NC3 7751   2.788  44.700   9.453
 5356POPC   PO4 7752   2.738  44.690   9.153
 5356POPC   GL1 7753   2.753  44.711   8.853
 5356POPC   GL2 7754   2.638  44.769   8.853
 5356POPC   C1A 7755   2.737  44.697   8.553
 5356POPC   D2A 7756   2.737  44.650   8.253
 5356POPC   C3A 7757   2.789  44.649   7.953
 5356POPC   C4A 7758   2.740  44.642   7.653
 5356POPC   C1B 7759   2.614  44.804   8.553
 5356POPC   C2B 7760   2.615  44.818   8.253
 5356POPC   C3B 7761   2.542  44.862   7.953
 5356POPC   C4B 7762   2.580  44.844   7.653
 5357POPC   NC3 7763   1.951   7.409   9.453
 5357POPC   PO4 7764   1.998   7.374   9.153
 5357POPC   GL1 7765   1.942   7.412   8.853
 5357POPC   GL2 7766   1.837   7.500   8.853
 5357POPC   C1A 7767   1.983   7.435   8.553
 5357POPC   D2A 7768   1.974   7.451   8.253
 5357POPC   C3A 7769   1.996   7.424   7.953
 5357POPC   C4A 7770   2.016   7.414   7.653
 5357POPC   C1B 7771   1.768   7.535   8.553
 5357POPC   C2B 7772   1.743   7.557   8.253
 5357POPC   C3B 7773   1.719   7.573   7.953
 5357POPC   C4B 7774   1.804   7.563   7.653
 5358POPC   NC3 7775  29.185  36.860   9.453
 5358POPC   PO4 7776  29.148  36.927   9.153
 5358POPC   GL1 7777  29.162  36.862   8.853
 5358POPC   GL2 7778  29.195  37.009   8.853
 5358POPC   C1A 7779  29.138  36.893   8.553
 5358POPC   D2A 7780  29.157  36.872   8.253
 5358POPC   C3A 7781  29.193  36.879   7.953
 5358POPC   C4A 7782  29.135  36.900   7.653
 5358POPC   C1B 7783  29.296  37.104   8.553
 5358POPC   C2B 7784  29.360  37.058   8.253
 5358POPC   C3B 7785  29.321  37.026   7.953
 5358POPC   C4B 7786  29.360  37.096   7.653
 5359POPC   NC3 7787  32.283  28.351   9.453
 5359POPC   PO4 7788  32.261  28.368   9.153
 5359POPC   GL1 7789  32.294  28.416   8.853
 5359POPC   GL2 7790  32.177  28.263   8.853
 5359POPC   C1A 7791  32.232  28.392   8.553
 5359POPC   D2A 7792  32.216  28.362   8.253
 5359POPC   C3A 7793  32.245  28.385   7.953
 5359POPC   C4A 7794  32.266  28.408   7.653
 5359POPC   C1B 7795  32.083  28.257   8.553
 5359POPC   C2B 7796  32.085  28.244   8.253
 5359POPC   C3B 7797  32.013  28.218   7.953
 5359POPC   C4B 7798  31.996  28.209   7.653
 5360POPC   NC3 7799  13.581  41.572   9.453
 5360POPC   PO4 7800  13.663  41.574   9.153
 5360POPC   GL1 7801  13.625  41.545   8.853
 5360POPC   GL2 7802  13.580  41.663   8.853
 5360POPC   C1A 7803  13.623  41.548   8.553
 5360POPC   D2A 7804  13.646  41.538   8.253
 5360POPC   C3A 7805  13.618  41.592   7.953
 5360POPC   C4A 7806  13.582  41.598   7.653
 5360POPC   C1B 7807  13.600  41.759   8.553
 5360POPC   C2B 7808  13.617  41.832   8.253
 5360POPC   C3B 7809  13.550  41.757   7.953
 5360POPC   C4B 7810  13.580  41.756   7.653
 5361POPC   NC3 7811  18.324   2.746   9.453
 5361POPC   PO4 7812  18.244   2.799   9.153
 5361POPC   GL1 7813  18.245   2.750   8.853
 5361POPC   GL2 7814  18.351   2.857   8.853
 5361POPC   C1A 7815  18.240   2.757   8.553
 5361POPC   D2A 7816  18.330   2.719   8.253
 5361POPC   C3A 7817  18.309   2.800   7.953
 5361POPC   C4A 7818  18.321   2.794   7.653
 5361POPC   C1B 7819  18.462   2.884   8.553
 5361POPC   C2B 7820  18.463   2.941   8.253
 5361POPC   C3B 7821  18.535   2.906   7.953
 5361POPC   C4B 7822  18.455   2.908   7.653
 5362POPC   NC3 7823  33.815  16.738   9.453
 5362POPC   PO4 7824  33.840  16.734   9.153
 5362POPC   GL1 7825  33.845  16.718   8.853
 5362POPC   GL2 7826  33.809  16.664   8.853
 5362POPC   C1A 7827  33.793  16.772   8.553
 5362POPC   D2A 7828  33.781  16.754   8.253
 5362POPC   C3A 7829  33.813  16.754   7.953
 5362POPC   C4A 7830  33.754  16.708   7.653
 5362POPC   C1B 7831  33.931  16.524   8.553
 5362POPC   C2B 7832  33.934  16.483   8.253
 5362POPC   C3B 7833  33.906  16.475   7.953
 5362POPC   C4B 7834  33.891  16.522   7.653
 5363POPC   NC3 7835  32.298  16.727   9.453
 5363POPC   PO4 7836  32.278  16.731   9.153
 5363POPC   GL1 7837  32.253  16.773   8.853
 5363POPC   GL2 7838  32.155  16.642   8.853
 5363POPC   C1A 7839  32.241  16.758   8.553
 5363POPC   D2A 7840  32.250  16.681   8.253
 5363POPC   C3A 7841  32.229  16.766   7.953
 5363POPC   C4A 7842  32.270  16.741   7.653
 5363POPC   C1B 7843  32.088  16.621   8.553
 5363POPC   C2B 7844  32.082  16.561   8.253
 5363POPC   C3B 7845  32.063  16.619   7.953
 5363POPC   C4B 7846  32.051  16.528   7.653
 5364POPC   NC3 7847  41.516   3.523   9.453
 5364POPC   PO4 7848  41.525   3.590   9.153
 5364POPC   GL1 7849  41.554   3.520   8.853
 5364POPC   GL2 7850  41.471   3.616   8.853
 5364POPC   C1A 7851  41.531   3.568   8.553
 5364POPC   D2A 7852  41.549   3.524   8.253
 5364POPC   C3A 7853  41.549   3.513   7.953
 5364POPC   C4A 7854  41.558   3.549   7.653
 5364POPC   C1B 7855  41.430   3.748   8.553
 5364POPC   C2B 7856  41.438   3.741   8.253
 5364POPC   C3B 7857  41.433   3.783   7.953
 5364POPC   C4B 7858  41.383   3.771   7.653
 5365POPC   NC3 7859  39.254  12.047   9.453
 5365POPC   PO4 7860  39.193  12.092   9.153
 5365POPC   GL1 7861  39.252  12.043   8.853
 5365POPC   GL2 7862  39.162  11.916   8.853
 5365POPC   C1A 7863  39.270  12.061   8.553
 5365POPC   D2A 7864  39.269  12.049   8.253
 5365POPC   C3A 7865  39.254  12.041   7.953
 5365POPC   C4A 7866  39.238  12.064   7.653
 5365POPC   C1B 7867  39.197  11.863   8.553
 5365POPC   C2B 7868  39.186  11.837   8.253
 5365POPC   C3B 7869  39.160  11.869   7.953
 5365POPC   C4B 7870  39.101  11.885   7.653
 5366POPC   NC3 7871   1.964  11.259   9.453
 5366POPC   PO4 7872   1.972  11.331   9.153
 5366POPC   GL1 7873   2.005  11.272   8.853
 5366POPC   GL2 7874   1.820  11.313   8.853
 5366POPC   C1A 7875   1.991  11.347   8.553
 5366POPC   D2A 7876   2.033  11.319   8.253
 5366POPC   C3A 7877   2.004  11.329   7.953
 5366POPC   C4A 7878   1.959  11.335   7.653
 5366POPC   C1B 7879   1.772  11.274   8.553
 5366POPC   C2B 7880   1.703  11.261   8.253
 5366POPC   C3B 7881   1.749  11.251   7.953
 5366POPC   C4B 7882   1.782  11.225   7.653
 5367POPC   NC3 7883  23.689  38.471   9.453
 5367POPC   PO4 7884  23.679  38.486   9.153
 5367POPC   GL1 7885  23.703  38.499   8.853
 5367POPC   GL2 7886  23.631  38.490   8.853
 5367POPC   C1A 7887  23.723  38.469   8.553
 5367POPC   D2A 7888  23.686  38.474   8.253
 5367POPC   C3A 7889  23.758  38.472   7.953
 5367POPC   C4A 7890  23.721  38.494   7.653
 5367POPC   C1B 7891  23.502  38.469   8.553
 5367POPC   C2B 7892  23.504  38.468   8.253
 5367POPC   C3B 7893  23.492  38.477   7.953
 5367POPC   C4B 7894  23.475  38.468   7.653
 5368POPC   NC3 7895  35.387  28.371   9.453
 5368POPC   PO4 7896  35.360  28.396   9.153
 5368POPC   GL1 7897  35.358  28.392   8.853
 5368POPC   GL2 7898  35.435  28.259   8.853
 5368POPC   C1A 7899  35.389  28.374   8.553
 5368POPC   D2A 7900  35.400  28.385   8.253
 5368POPC   C3A 7901  35.337  28.331   7.953
 5368POPC   C4A 7902  35.321  28.405   7.653
 5368POPC   C1B 7903  35.540  28.158   8.553
 5368POPC   C2B 7904  35.501  28.226   8.253
 5368POPC   C3B 7905  35.536  28.149   7.953
 5368POPC   C4B 7906  35.547  28.144   7.653
 5369POPC   NC3 7907  26.861  33.069   9.453
 5369POPC   PO4 7908  26.837  32.975   9.153
 5369POPC   GL1 7909  26.805  33.048   8.853
 5369POPC   GL2 7910  26.872  32.878   8.853
 5369POPC   C1A 7911  26.802  33.003   8.553
 5369POPC   D2A 7912  26.858  33.057   8.253
 5369POPC   C3A 7913  26.783  33.069   7.953
 5369POPC   C4A 7914  26.850  33.069   7.653
 5369POPC   C1B 7915  26.889  32.731   8.553
 5369POPC   C2B 7916  26.868  32.812   8.253
 5369POPC   C3B 7917  26.848  32.792   7.953
 5369POPC   C4B 7918  26.791  32.753   7.653
 5370POPC   NC3 7919  22.205  29.112   9.453
 5370POPC   PO4 7920  22.179  29.177   9.153
 5370POPC   GL1 7921  22.117  29.146   8.853
 5370POPC   GL2 7922  22.016  29.085   8.853
 5370POPC   C1A 7923  22.141  29.138   8.553
 5370POPC   D2A 7924  22.160  29.158   8.253
 5370POPC   C3A 7925  22.150  29.157   7.953
 5370POPC   C4A 7926  22.175  29.149   7.653
 5370POPC   C1B 7927  21.893  29.052   8.553
 5370POPC   C2B 7928  21.947  29.139   8.253
 5370POPC   C3B 7929  21.957  29.094   7.953
 5370POPC   C4B 7930  21.950  29.106   7.653
 5371POPC   NC3 7931  36.173  33.031   9.453
 5371POPC   PO4 7932  36.086  32.983   9.153
 5371POPC   GL1 7933  36.113  33.002   8.853
 5371POPC   GL2 7934  35.961  33.109   8.853
 5371POPC   C1A 7935  36.153  33.023   8.553
 5371POPC   D2A 7936  36.128  33.017   8.253
 5371POPC   C3A 7937  36.169  33.015   7.953
 5371POPC   C4A 7938  36.105  33.070   7.653
 5371POPC   C1B 7939  35.922  33.114   8.553
 5371POPC   C2B 7940  35.866  33.090   8.253
 5371POPC   C3B 7941  35.862  33.058   7.953
 5371POPC   C4B 7942  35.902  33.071   7.653
 5372POPC   NC3 7943  36.915  22.959   9.453
 5372POPC   PO4 7944  36.884  22.918   9.153
 5372POPC   GL1 7945  36.894  22.978   8.853
 5372POPC   GL2 7946  37.001  22.883   8.853
 5372POPC   C1A 7947  36.885  22.891   8.553
 5372POPC   D2A 7948  36.880  22.983   8.253
 5372POPC   C3A 7949  36.893  22.935   7.953
 5372POPC   C4A 7950  36.877  22.935   7.653
 5372POPC   C1B 7951  37.137  22.876   8.553
 5372POPC   C2B 7952  37.135  22.898   8.253
 5372POPC   C3B 7953  37.191  22.854   7.953
 5372POPC   C4B 7954  37.142  22.858   7.653
 5373POPC   NC3 7955   9.713  31.463   9.453
 5373POPC   PO4 7956   9.728  31.457   9.153
 5373POPC   GL1 7957   9.740  31.471   8.853
 5373POPC   GL2 7958   9.824  31.499   8.853
 5373POPC   C1A 7959   9.797  31.438   8.553
 5373POPC   D2A 7960   9.715  31.447   8.253
 5373POPC   C3A 7961   9.779  31.496   7.953
 5373POPC   C4A 7962   9.795  31.429   7.653
 5373POPC   C1B 7963   9.956  31.576   8.553
 5373POPC   C2B 7964   9.965  31.533   8.253
 5373POPC   C3B 7965   9.978  31.550   7.953
 5373POPC   C4B 7966   9.983  31.582   7.653
 5374POPC   NC3 7967  19.875   2.034   9.453
 5374POPC   PO4 7968  19.877   2.001   9.153
 5374POPC   GL1 7969  19.865   2.036   8.853
 5374POPC   GL2 7970  19.978   1.993   8.853
 5374POPC   C1A 7971  19.854   1.971   8.553
 5374POPC   D2A 7972  19.873   2.035   8.253
 5374POPC   C3A 7973  19.882   2.020   7.953
 5374POPC   C4A 7974  19.872   1.963   7.653
 5374POPC   C1B 7975  20.030   1.882   8.553
 5374POPC   C2B 7976  20.112   1.891   8.253
 5374POPC   C3B 7977  20.098   1.873   7.953
 5374POPC   C4B 7978  20.101   1.905   7.653
 5375POPC   NC3 7979  35.329  36.166   9.453
 5375POPC   PO4 7980  35.344  36.156   9.153
 5375POPC   GL1 7981  35.305  36.140   8.853
 5375POPC   GL2 7982  35.290  36.035   8.853
 5375POPC   C1A 7983  35.325  36.160   8.553
 5375POPC   D2A 7984  35.308  36.100   8.253
 5375POPC   C3A 7985  35.394  36.122   7.953
 5375POPC   C4A 7986  35.308  36.115   7.653
 5375POPC   C1B 7987  35.100  36.015   8.553
 5375POPC   C2B 7988  35.107  36.048   8.253
 5375POPC   C3B 7989  35.179  35.991   7.953
 5375POPC   C4B 7990  35.164  35.970   7.653
 5376POPC   NC3 7991   0.432  31.514   9.453
 5376POPC   PO4 7992   0.403  31.479   9.153
 5376POPC   GL1 7993   0.447  31.451   8.853
 5376POPC   GL2 7994   0.367  31.606   8.853
 5376POPC   C1A 7995   0.410  31.491   8.553
 5376POPC   D2A 7996   0.390  31.512   8.253
 5376POPC   C3A 7997   0.474  31.457   7.953
 5376POPC   C4A 7998   0.398  31.469   7.653
 5376POPC   C1B 7999   0.375  31.721   8.553
 5376POPC   C2B 8000   0.384  31.717   8.253
 5376POPC   C3B 8001   0.427  31.681   7.953
 5376POPC   C4B 8002   0.361  31.710   7.653
 5377POPC   NC3 8003  32.256  29.122   9.453
 5377POPC   PO4 8004  32.247  29.173   9.153
 5377POPC   GL1 8005  32.251  29.154   8.853
 5377POPC   GL2 8006  32.342  29.033   8.853
 5377POPC   C1A 8007  32.201  29.161   8.553
 5377POPC   D2A 8008  32.280  29.150   8.253
 5377POPC   C3A 8009  32.285  29.122   7.953
 5377POPC   C4A 8010  32.209  29.164   7.653
 5377POPC   C1B 8011  32.392  28.966   8.553
 5377POPC   C2B 8012  32.322  28.966   8.253
 5377POPC   C3B 8013  32.312  28.878   7.953
 5377POPC   C4B 8014  32.319  28.915   7.653
 5378POPC   NC3 8015   9.709  36.857   9.453
 5378POPC   PO4 8016   9.735  36.858   9.153
 5378POPC   GL1 8017   9.753  36.938   8.853
 5378POPC   GL2 8018   9.749  36.766   8.853
 5378POPC   C1A 8019   9.784  36.879   8.553
 5378POPC   D2A 8020   9.767  36.915   8.253
 5378POPC   C3A 8021   9.736  36.936   7.953
 5378POPC   C4A 8022   9.729  36.868   7.653
 5378POPC   C1B 8023   9.840  36.673   8.553
 5378POPC   C2B 8024   9.776  36.619   8.253
 5378POPC   C3B 8025   9.839  36.678   7.953
 5378POPC   C4B 8026   9.829  36.654   7.653
 5379POPC   NC3 8027   6.671  36.114   9.453
 5379POPC   PO4 8028   6.610  36.086   9.153
 5379POPC   GL1 8029   6.597  36.088   8.853
 5379POPC   GL2 8030   6.659  36.041   8.853
 5379POPC   C1A 8031   6.595  36.171   8.553
 5379POPC   D2A 8032   6.656  36.156   8.253
 5379POPC   C3A 8033   6.685  36.127   7.953
 5379POPC   C4A 8034   6.671  36.134   7.653
 5379POPC   C1B 8035   6.606  35.867   8.553
 5379POPC   C2B 8036   6.554  35.926   8.253
 5379POPC   C3B 8037   6.559  35.870   7.953
 5379POPC   C4B 8038   6.593  35.876   7.653
 5380POPC   NC3 8039  33.062   5.865   9.453
 5380POPC   PO4 8040  32.983   5.868   9.153
 5380POPC   GL1 8041  32.982   5.828   8.853
 5380POPC   GL2 8042  33.070   6.022   8.853
 5380POPC   C1A 8043  32.989   5.870   8.553
 5380POPC   D2A 8044  32.978   5.837   8.253
 5380POPC   C3A 8045  32.994   5.867   7.953
 5380POPC   C4A 8046  33.061   5.896   7.653
 5380POPC   C1B 8047  33.041   6.092   8.553
 5380POPC   C2B 8048  33.010   6.081   8.253
 5380POPC   C3B 8049  32.979   6.142   7.953
 5380POPC   C4B 8050  33.049   6.169   7.653
 5381POPC   NC3 8051  33.792  44.701   9.453
 5381POPC   PO4 8052  33.794  44.665   9.153
 5381POPC   GL1 8053  33.815  44.656   8.853
 5381POPC   GL2 8054  33.805  44.546   8.853
 5381POPC   C1A 8055  33.804  44.626   8.553
 5381POPC   D2A 8056  33.803  44.679   8.253
 5381POPC   C3A 8057  33.795  44.622   7.953
 5381POPC   C4A 8058  33.777  44.695   7.653
 5381POPC   C1B 8059  33.740  44.467   8.553
 5381POPC   C2B 8060  33.700  44.439   8.253
 5381POPC   C3B 8061  33.698  44.426   7.953
 5381POPC   C4B 8062  33.749  44.432   7.653
 5382POPC   NC3 8063  33.001  11.321   9.453
 5382POPC   PO4 8064  33.004  11.299   9.153
 5382POPC   GL1 8065  33.014  11.277   8.853
 5382POPC   GL2 8066  33.090  11.269   8.853
 5382POPC   C1A 8067  32.988  11.251   8.553
 5382POPC   D2A 8068  33.025  11.308   8.253
 5382POPC   C3A 8069  33.057  11.329   7.953
 5382POPC   C4A 8070  33.049  11.307   7.653
 5382POPC   C1B 8071  33.182  11.168   8.553
 5382POPC   C2B 8072  33.201  11.204   8.253
 5382POPC   C3B 8073  33.256  11.164   7.953
 5382POPC   C4B 8074  33.251  11.169   7.653
 5383POPC   NC3 8075  40.015  28.392   9.453
 5383POPC   PO4 8076  39.976  28.351   9.153
 5383POPC   GL1 8077  39.985  28.319   8.853
 5383POPC   GL2 8078  39.960  28.493   8.853
 5383POPC   C1A 8079  40.029  28.407   8.553
 5383POPC   D2A 8080  39.971  28.397   8.253
 5383POPC   C3A 8081  40.000  28.327   7.953
 5383POPC   C4A 8082  39.998  28.339   7.653
 5383POPC   C1B 8083  39.790  28.568   8.553
 5383POPC   C2B 8084  39.845  28.572   8.253
 5383POPC   C3B 8085  39.873  28.527   7.953
 5383POPC   C4B 8086  39.869  28.590   7.653
 5384POPC   NC3 8087  16.713   5.878   9.453
 5384POPC   PO4 8088  16.721   5.833   9.153
 5384POPC   GL1 8089  16.697   5.838   8.853
 5384POPC   GL2 8090  16.843   5.925   8.853
 5384POPC   C1A 8091  16.704   5.877   8.553
 5384POPC   D2A 8092  16.733   5.890   8.253
 5384POPC   C3A 8093  16.711   5.830   7.953
 5384POPC   C4A 8094  16.709   5.873   7.653
 5384POPC   C1B 8095  16.905   6.109   8.553
 5384POPC   C2B 8096  16.843   6.103   8.253
 5384POPC   C3B 8097  16.909   6.073   7.953
 5384POPC   C4B 8098  16.896   6.049   7.653
 5385POPC   NC3 8099   9.755  26.012   9.453
 5385POPC   PO4 8100   9.731  26.062   9.153
 5385POPC   GL1 8101   9.705  26.051   8.853
 5385POPC   GL2 8102   9.858  26.061   8.853
 5385POPC   C1A 8103   9.719  26.040   8.553
 5385POPC   D2A 8104   9.710  26.010   8.253
 5385POPC   C3A 8105   9.759  26.048   7.953
 5385POPC   C4A 8106   9.731  26.014   7.653
 5385POPC   C1B 8107   9.952  26.082   8.553
 5385POPC   C2B 8108  10.008  26.075   8.253
 5385POPC   C3B 8109   9.983  26.089   7.953
 5385POPC   C4B 8110  10.035  26.110   7.653
 5386POPC   NC3 8111  17.543  42.366   9.453
 5386POPC   PO4 8112  17.531  42.312   9.153
 5386POPC   GL1 8113  17.541  42.306   8.853
 5386POPC   GL2 8114  17.395  42.380   8.853
 5386POPC   C1A 8115  17.524  42.306   8.553
 5386POPC   D2A 8116  17.472  42.295   8.253
 5386POPC   C3A 8117  17.515  42.369   7.953
 5386POPC   C4A 8118  17.466  42.319   7.653
 5386POPC   C1B 8119  17.271  42.408   8.553
 5386POPC   C2B 8120  17.234  42.446   8.253
 5386POPC   C3B 8121  17.297  42.468   7.953
 5386POPC   C4B 8122  17.318  42.441   7.653
 5387POPC   NC3 8123  35.351  12.065   9.453
 5387POPC   PO4 8124  35.393  12.081   9.153
 5387POPC   GL1 8125  35.310  12.033   8.853
 5387POPC   GL2 8126  35.469  12.045   8.853
 5387POPC   C1A 8127  35.326  12.067   8.553
 5387POPC   D2A 8128  35.317  12.102   8.253
 5387POPC   C3A 8129  35.318  12.040   7.953
 5387POPC   C4A 8130  35.387  12.044   7.653
 5387POPC   C1B 8131  35.601  12.101   8.553
 5387POPC   C2B 8132  35.589  12.082   8.253
 5387POPC   C3B 8133  35.602  12.076   7.953
 5387POPC   C4B 8134  35.594  12.113   7.653
 5388POPC   NC3 8135  32.285  34.549   9.453
 5388POPC   PO4 8136  32.277  34.586   9.153
 5388POPC   GL1 8137  32.214  34.553   8.853
 5388POPC   GL2 8138  32.272  34.741   8.853
 5388POPC   C1A 8139  32.279  34.529   8.553
 5388POPC   D2A 8140  32.248  34.548   8.253
 5388POPC   C3A 8141  32.246  34.573   7.953
 5388POPC   C4A 8142  32.290  34.621   7.653
 5388POPC   C1B 8143  32.257  34.845   8.553
 5388POPC   C2B 8144  32.292  34.859   8.253
 5388POPC   C3B 8145  32.271  34.791   7.953
 5388POPC   C4B 8146  32.320  34.868   7.653
 5389POPC   NC3 8147  15.941  29.970   9.453
 5389POPC   PO4 8148  15.956  29.912   9.153
 5389POPC   GL1 8149  15.963  29.878   8.853
 5389POPC   GL2 8150  15.948  30.072   8.853
 5389POPC   C1A 8151  15.907  29.890   8.553
 5389POPC   D2A 8152  15.964  29.933   8.253
 5389POPC   C3A 8153  16.004  29.962   7.953
 5389POPC   C4A 8154  15.916  29.880   7.653
 5389POPC   C1B 8155  15.991  30.169   8.553
 5389POPC   C2B 8156  16.036  30.185   8.253
 5389POPC   C3B 8157  16.070  30.188   7.953
 5389POPC   C4B 8158  16.025  30.132   7.653
 5390POPC   NC3 8159  10.559  13.586   9.453
 5390POPC   PO4 8160  10.533  13.616   9.153
 5390POPC   GL1 8161  10.574  13.589   8.853
 5390POPC   GL2 8162  10.406  13.609   8.853
 5390POPC   C1A 8163  10.550  13.578   8.553
 5390POPC   D2A 8164  10.482  13.579   8.253
 5390POPC   C3A 8165  10.527  13.593   7.953
 5390POPC   C4A 8166  10.547  13.590   7.653
 5390POPC   C1B 8167  10.276  13.677   8.553
 5390POPC   C2B 8168  10.286  13.689   8.253
 5390POPC   C3B 8169  10.288  13.638   7.953
 5390POPC   C4B 8170  10.259  13.653   7.653
 5391POPC   NC3 8171  25.239  22.969   9.453
 5391POPC   PO4 8172  25.239  22.925   9.153
 5391POPC   GL1 8173  25.313  22.924   8.853
 5391POPC   GL2 8174  25.319  22.836   8.853
 5391POPC   C1A 8175  25.248  22.956   8.553
 5391POPC   D2A 8176  25.258  22.892   8.253
 5391POPC   C3A 8177  25.297  22.913   7.953
 5391POPC   C4A 8178  25.291  22.918   7.653
 5391POPC   C1B 8179  25.434  22.775   8.553
 5391POPC   C2B 8180  25.388  22.774   8.253
 5391POPC   C3B 8181  25.429  22.748   7.953
 5391POPC   C4B 8182  25.393  22.701   7.653
 5392POPC   NC3 8183   7.446  18.275   9.453
 5392POPC   PO4 8184   7.427  18.258   9.153
 5392POPC   GL1 8185   7.384  18.325   8.853
 5392POPC   GL2 8186   7.336  18.310   8.853
 5392POPC   C1A 8187   7.424  18.246   8.553
 5392POPC   D2A 8188   7.412  18.284   8.253
 5392POPC   C3A 8189   7.415  18.290   7.953
 5392POPC   C4A 8190   7.386  18.244   7.653
 5392POPC   C1B 8191   7.192  18.238   8.553
 5392POPC   C2B 8192   7.126  18.239   8.253
 5392POPC   C3B 8193   7.168  18.276   7.953
 5392POPC   C4B 8194   7.169  18.269   7.653
 5393POPC   NC3 8195   8.224  30.711   9.453
 5393POPC   PO4 8196   8.209  30.701   9.153
 5393POPC   GL1 8197   8.171  30.651   8.853
 5393POPC   GL2 8198   8.130  30.528   8.853
 5393POPC   C1A 8199   8.195  30.740   8.553
 5393POPC   D2A 8200   8.230  30.714   8.253
 5393POPC   C3A 8201   8.241  30.659   7.953
 5393POPC   C4A 8202   8.222  30.703   7.653
 5393POPC   C1B 8203   8.175  30.480   8.553
 5393POPC   C2B 8204   8.143  30.441   8.253
 5393POPC   C3B 8205   8.191  30.481   7.953
 5393POPC   C4B 8206   8.108  30.463   7.653
 5394POPC   NC3 8207  22.971  15.213   9.453
 5394POPC   PO4 8208  22.910  15.225   9.153
 5394POPC   GL1 8209  22.931  15.195   8.853
 5394POPC   GL2 8210  22.851  15.089   8.853
 5394POPC   C1A 8211  22.906  15.179   8.553
 5394POPC   D2A 8212  22.953  15.198   8.253
 5394POPC   C3A 8213  22.907  15.190   7.953
 5394POPC   C4A 8214  22.944  15.154   7.653
 5394POPC   C1B 8215  22.707  15.003   8.553
 5394POPC   C2B 8216  22.724  15.039   8.253
 5394POPC   C3B 8217  22.748  15.036   7.953
 5394POPC   C4B 8218  22.705  15.049   7.653
 5395POPC   NC3 8219  43.090   1.987   9.453
 5395POPC   PO4 8220  43.148   2.031   9.153
 5395POPC   GL1 8221  43.136   1.950   8.853
 5395POPC   GL2 8222  43.020   1.866   8.853
 5395POPC   C1A 8223  43.131   2.026   8.553
 5395POPC   D2A 8224  43.154   1.973   8.253
 5395POPC   C3A 8225  43.110   2.029   7.953
 5395POPC   C4A 8226  43.101   1.972   7.653
 5395POPC   C1B 8227  42.997   1.731   8.553
 5395POPC   C2B 8228  43.011   1.770   8.253
 5395POPC   C3B 8229  43.021   1.803   7.953
 5395POPC   C4B 8230  43.048   1.735   7.653
 5396POPC   NC3 8231  39.189   2.814   9.453
 5396POPC   PO4 8232  39.229   2.754   9.153
 5396POPC   GL1 8233  39.219   2.798   8.853
 5396POPC   GL2 8234  39.079   2.722   8.853
 5396POPC   C1A 8235  39.237   2.717   8.553
 5396POPC   D2A 8236  39.200   2.807   8.253
 5396POPC   C3A 8237  39.229   2.762   7.953
 5396POPC   C4A 8238  39.207   2.758   7.653
 5396POPC   C1B 8239  38.993   2.703   8.553
 5396POPC   C2B 8240  39.039   2.690   8.253
 5396POPC   C3B 8241  39.017   2.639   7.953
 5396POPC   C4B 8242  39.036   2.685   7.653
 5397POPC   NC3 8243  37.669  20.585   9.453
 5397POPC   PO4 8244  37.662  20.596   9.153
 5397POPC   GL1 8245  37.711  20.595   8.853
 5397POPC   GL2 8246  37.771  20.765   8.853
 5397POPC   C1A 8247  37.652  20.595   8.553
 5397POPC   D2A 8248  37.688  20.577   8.253
 5397POPC   C3A 8249  37.653  20.627   7.953
 5397POPC   C4A 8250  37.716  20.631   7.653
 5397POPC   C1B 8251  37.753  20.809   8.553
 5397POPC   C2B 8252  37.835  20.815   8.253
 5397POPC   C3B 8253  37.828  20.838   7.953
 5397POPC   C4B 8254  37.785  20.799   7.653
 5398POPC   NC3 8255  44.695   7.405   9.453
 5398POPC   PO4 8256  44.683   7.388   9.153
 5398POPC   GL1 8257  44.633   7.386   8.853
 5398POPC   GL2 8258  44.629   7.516   8.853
 5398POPC   C1A 8259  44.651   7.464   8.553
 5398POPC   D2A 8260  44.709   7.394   8.253
 5398POPC   C3A 8261  44.621   7.449   7.953
 5398POPC   C4A 8262  44.690   7.399   7.653
 5398POPC   C1B 8263  44.730   7.627   8.553
 5398POPC   C2B 8264  44.680   7.660   8.253
 5398POPC   C3B 8265  44.652   7.635   7.953
 5398POPC   C4B 8266  44.690   7.676   7.653
 5399POPC   NC3 8267  24.481  44.643   9.453
 5399POPC   PO4 8268  24.520  44.667   9.153
 5399POPC   GL1 8269  24.483  44.639   8.853
 5399POPC   GL2 8270  24.477  44.777   8.853
 5399POPC   C1A 8271  24.466  44.635   8.553
 5399POPC   D2A 8272  24.514  44.621   8.253
 5399POPC   C3A 8273  24.442  44.628   7.953
 5399POPC   C4A 8274  24.528  44.690   7.653
 5399POPC   C1B 8275  24.426  44.879   8.553
 5399POPC   C2B 8276  24.375  44.899   8.253
 5399POPC   C3B 8277  24.398  44.866   7.953
 5399POPC   C4B 8278  24.387  44.900   7.653
 5400POPC   NC3 8279  33.790  23.736   9.453
 5400POPC   PO4 8280  33.761  23.674   9.153
 5400POPC   GL1 8281  33.832  23.666   8.853
 5400POPC   GL2 8282  33.874  23.708   8.853
 5400POPC   C1A 8283  33.828  23.695   8.553
 5400POPC   D2A 8284  33.770  23.718   8.253
 5400POPC   C3A 8285  33.803  23.684   7.953
 5400POPC   C4A 8286  33.800  23.737   7.653
 5400POPC   C1B 8287  34.008  23.683   8.553
 5400POPC   C2B 8288  33.998  23.689   8.253
 5400POPC   C3B 8289  34.028  23.679   7.953
 5400POPC   C4B 8290  34.089  23.679   7.653
 5401POPC   NC3 8291   0.475  21.435   9.453
 5401POPC   PO4 8292   0.440  21.430   9.153
 5401POPC   GL1 8293   0.433  21.392   8.853
 5401POPC   GL2 8294   0.277  21.388   8.853
 5401POPC   C1A 8295   0.444  21.343   8.553
 5401POPC   D2A 8296   0.455  21.408   8.253
 5401POPC   C3A 8297   0.478  21.378   7.953
 5401POPC   C4A 8298   0.416  21.418   7.653
 5401POPC   C1B 8299   0.218  21.354   8.553
 5401POPC   C2B 8300   0.239  21.343   8.253
 5401POPC   C3B 8301   0.241  21.352   7.953
 5401POPC   C4B 8302   0.182  21.301   7.653
 5402POPC   NC3 8303  33.846  36.898   9.453
 5402POPC   PO4 8304  33.786  36.861   9.153
 5402POPC   GL1 8305  33.813  36.869   8.853
 5402POPC   GL2 8306  33.926  36.794   8.853
 5402POPC   C1A 8307  33.766  36.921   8.553
 5402POPC   D2A 8308  33.849  36.907   8.253
 5402POPC   C3A 8309  33.814  36.932   7.953
 5402POPC   C4A 8310  33.789  36.872   7.653
 5402POPC   C1B 8311  34.045  36.764   8.553
 5402POPC   C2B 8312  33.969  36.746   8.253
 5402POPC   C3B 8313  34.044  36.740   7.953
 5402POPC   C4B 8314  33.961  36.788   7.653
 5403POPC   NC3 8315  11.275  22.949   9.453
 5403POPC   PO4 8316  11.278  22.904   9.153
 5403POPC   GL1 8317  11.251  22.889   8.853
 5403POPC   GL2 8318  11.196  22.994   8.853
 5403POPC   C1A 8319  11.338  22.949   8.553
 5403POPC   D2A 8320  11.343  22.970   8.253
 5403POPC   C3A 8321  11.295  22.951   7.953
 5403POPC   C4A 8322  11.343  22.905   7.653
 5403POPC   C1B 8323  11.190  23.110   8.553
 5403POPC   C2B 8324  11.146  23.175   8.253
 5403POPC   C3B 8325  11.211  23.141   7.953
 5403POPC   C4B 8326  11.197  23.196   7.653
 5404POPC   NC3 8327  14.430  27.596   9.453
 5404POPC   PO4 8328  14.436  27.622   9.153
 5404POPC   GL1 8329  14.362  27.603   8.853
 5404POPC   GL2 8330  14.266  27.577   8.853
 5404POPC   C1A 8331  14.396  27.633   8.553
 5404POPC   D2A 8332  14.400  27.623   8.253
 5404POPC   C3A 8333  14.383  27.586   7.953
 5404POPC   C4A 8334  14.402  27.606   7.653
 5404POPC   C1B 8335  14.188  27.614   8.553
 5404POPC   C2B 8336  14.148  27.603   8.253
 5404POPC   C3B 8337  14.152  27.625   7.953
 5404POPC   C4B 8338  14.110  27.599   7.653
 5405POPC   NC3 8339  40.783   9.772   9.453
 5405POPC   PO4 8340  40.806   9.754   9.153
 5405POPC   GL1 8341  40.803   9.758   8.853
 5405POPC   GL2 8342  40.784   9.595   8.853
 5405POPC   C1A 8343  40.755   9.797   8.553
 5405POPC   D2A 8344  40.819   9.755   8.253
 5405POPC   C3A 8345  40.816   9.762   7.953
 5405POPC   C4A 8346  40.812   9.731   7.653
 5405POPC   C1B 8347  40.783   9.494   8.553
 5405POPC   C2B 8348  40.773   9.489   8.253
 5405POPC   C3B 8349  40.782   9.530   7.953
 5405POPC   C4B 8350  40.735   9.483   7.653
 5406POPC   NC3 8351  34.530  26.805   9.453
 5406POPC   PO4 8352  34.567  26.786   9.153
 5406POPC   GL1 8353  34.552  26.841   8.853
 5406POPC   GL2 8354  34.596  26.891   8.853
 5406POPC   C1A 8355  34.550  26.851   8.553
 5406POPC   D2A 8356  34.567  26.848   8.253
 5406POPC   C3A 8357  34.543  26.863   7.953
 5406POPC   C4A 8358  34.554  26.822   7.653
 5406POPC   C1B 8359  34.677  27.084   8.553
 5406POPC   C2B 8360  34.693  27.065   8.253
 5406POPC   C3B 8361  34.684  27.083   7.953
 5406POPC   C4B 8362  34.697  27.061   7.653
 5407POPC   NC3 8363   2.757  23.749   9.453
 5407POPC   PO4 8364   2.766  23.734   9.153
 5407POPC   GL1 8365   2.721  23.689   8.853
 5407POPC   GL2 8366   2.711  23.576   8.853
 5407POPC   C1A 8367   2.804  23.690   8.553
 5407POPC   D2A 8368   2.799  23.747   8.253
 5407POPC   C3A 8369   2.719  23.724   7.953
 5407POPC   C4A 8370   2.784  23.689   7.653
 5407POPC   C1B 8371   2.715  23.434   8.553
 5407POPC   C2B 8372   2.782  23.420   8.253
 5407POPC   C3B 8373   2.777  23.459   7.953
 5407POPC   C4B 8374   2.728  23.484   7.653
 5408POPC   NC3 8375  20.596  26.786   9.453
 5408POPC   PO4 8376  20.604  26.860   9.153
 5408POPC   GL1 8377  20.655  26.838   8.853
 5408POPC   GL2 8378  20.607  26.891   8.853
 5408POPC   C1A 8379  20.592  26.835   8.553
 5408POPC   D2A 8380  20.591  26.788   8.253
 5408POPC   C3A 8381  20.611  26.799   7.953
 5408POPC   C4A 8382  20.630  26.825   7.653
 5408POPC   C1B 8383  20.586  27.033   8.553
 5408POPC   C2B 8384  20.571  27.067   8.253
 5408POPC   C3B 8385  20.599  27.064   7.953
 5408POPC   C4B 8386  20.546  27.058   7.653
 5409POPC   NC3 8387  41.548  29.952   9.453
 5409POPC   PO4 8388  41.542  29.958   9.153
 5409POPC   GL1 8389  41.573  29.882   8.853
 5409POPC   GL2 8390  41.670  30.023   8.853
 5409POPC   C1A 8391  41.554  29.940   8.553
 5409POPC   D2A 8392  41.523  29.961   8.253
 5409POPC   C3A 8393  41.586  29.899   7.953
 5409POPC   C4A 8394  41.539  29.960   7.653
 5409POPC   C1B 8395  41.735  30.052   8.553
 5409POPC   C2B 8396  41.753  30.084   8.253
 5409POPC   C3B 8397  41.766  30.133   7.953
 5409POPC   C4B 8398  41.773  30.132   7.653
 5410POPC   NC3 8399  14.392  42.358   9.453
 5410POPC   PO4 8400  14.403  42.352   9.153
 5410POPC   GL1 8401  14.448  42.369   8.853
 5410POPC   GL2 8402  14.369  42.174   8.853
 5410POPC   C1A 8403  14.399  42.336   8.553
 5410POPC   D2A 8404  14.383  42.293   8.253
 5410POPC   C3A 8405  14.394  42.304   7.953
 5410POPC   C4A 8406  14.370  42.373   7.653
 5410POPC   C1B 8407  14.286  42.056   8.553
 5410POPC   C2B 8408  14.338  42.146   8.253
 5410POPC   C3B 8409  14.358  42.082   7.953
 5410POPC   C4B 8410  14.283  42.068   7.653
 5411POPC   NC3 8411   8.179  44.658   9.453
 5411POPC   PO4 8412   8.176  44.677   9.153
 5411POPC   GL1 8413   8.218  44.670   8.853
 5411POPC   GL2 8414   8.084  44.582   8.853
 5411POPC   C1A 8415   8.160  44.628   8.553
 5411POPC   D2A 8416   8.162  44.681   8.253
 5411POPC   C3A 8417   8.189  44.682   7.953
 5411POPC   C4A 8418   8.156  44.639   7.653
 5411POPC   C1B 8419   7.983  44.456   8.553
 5411POPC   C2B 8420   8.052  44.506   8.253
 5411POPC   C3B 8421   8.051  44.454   7.953
 5411POPC   C4B 8422   8.048  44.531   7.653
 5412POPC   NC3 8423  12.816  42.290   9.453
 5412POPC   PO4 8424  12.845  42.326   9.153
 5412POPC   GL1 8425  12.899  42.332   8.853
 5412POPC   GL2 8426  12.818  42.424   8.853
 5412POPC   C1A 8427  12.899  42.363   8.553
 5412POPC   D2A 8428  12.858  42.383   8.253
 5412POPC   C3A 8429  12.859  42.349   7.953
 5412POPC   C4A 8430  12.898  42.356   7.653
 5412POPC   C1B 8431  12.899  42.634   8.553
 5412POPC   C2B 8432  12.904  42.602   8.253
 5412POPC   C3B 8433  12.865  42.568   7.953
 5412POPC   C4B 8434  12.822  42.624   7.653
 5413POPC   NC3 8435  35.323  23.757   9.453
 5413POPC   PO4 8436  35.384  23.696   9.153
 5413POPC   GL1 8437  35.327  23.666   8.853
 5413POPC   GL2 8438  35.249  23.802   8.853
 5413POPC   C1A 8439  35.369  23.738   8.553
 5413POPC   D2A 8440  35.361  23.679   8.253
 5413POPC   C3A 8441  35.385  23.686   7.953
 5413POPC   C4A 8442  35.305  23.666   7.653
 5413POPC   C1B 8443  35.065  23.787   8.553
 5413POPC   C2B 8444  35.096  23.769   8.253
 5413POPC   C3B 8445  35.090  23.777   7.953
 5413POPC   C4B 8446  35.119  23.771   7.653
 5414POPC   NC3 8447  37.671   0.473   9.453
 5414POPC   PO4 8448  37.680   0.476   9.153
 5414POPC   GL1 8449  37.643   0.471   8.853
 5414POPC   GL2 8450  37.647   0.325   8.853
 5414POPC   C1A 8451  37.670   0.438   8.553
 5414POPC   D2A 8452  37.689   0.397   8.253
 5414POPC   C3A 8453  37.723   0.406   7.953
 5414POPC   C4A 8454  37.668   0.412   7.653
 5414POPC   C1B 8455  37.569   0.165   8.553
 5414POPC   C2B 8456  37.593   0.228   8.253
 5414POPC   C3B 8457  37.632   0.181   7.953
 5414POPC   C4B 8458  37.540   0.245   7.653
 5415POPC   NC3 8459  12.123  41.585   9.453
 5415POPC   PO4 8460  12.117  41.548   9.153
 5415POPC   GL1 8461  12.049  41.529   8.853
 5415POPC   GL2 8462  11.955  41.515   8.853
 5415POPC   C1A 8463  12.070  41.601   8.553
 5415POPC   D2A 8464  12.086  41.570   8.253
 5415POPC   C3A 8465  12.060  41.580   7.953
 5415POPC   C4A 8466  12.067  41.575   7.653
 5415POPC   C1B 8467  11.820  41.487   8.553
 5415POPC   C2B 8468  11.810  41.566   8.253
 5415POPC   C3B 8469  11.857  41.525   7.953
 5415POPC   C4B 8470  11.787  41.550   7.653
 5416POPC   NC3 8471   3.512  39.274   9.453
 5416POPC   PO4 8472   3.524  39.260   9.153
 5416POPC   GL1 8473   3.514  39.269   8.853
 5416POPC   GL2 8474   3.495  39.379   8.853
 5416POPC   C1A 8475   3.568  39.265   8.553
 5416POPC   D2A 8476   3.585  39.182   8.253
 5416POPC   C3A 8477   3.569  39.194   7.953
 5416POPC   C4A 8478   3.584  39.198   7.653
 5416POPC   C1B 8479   3.418  39.403   8.553
 5416POPC   C2B 8480   3.410  39.401   8.253
 5416POPC   C3B 8481   3.354  39.433   7.953
 5416POPC   C4B 8482   3.374  39.440   7.653
 5417POPC   NC3 8483  15.922  21.399   9.453
 5417POPC   PO4 8484  15.967  21.388   9.153
 5417POPC   GL1 8485  15.938  21.420   8.853
 5417POPC   GL2 8486  16.049  21.505   8.853
 5417POPC   C1A 8487  15.959  21.419   8.553
 5417POPC   D2A 8488  15.934  21.374   8.253
 5417POPC   C3A 8489  15.907  21.382   7.953
 5417POPC   C4A 8490  15.971  21.391   7.653
 5417POPC   C1B 8491  16.088  21.630   8.553
 5417POPC   C2B 8492  16.075  21.575   8.253
 5417POPC   C3B 8493  16.084  21.541   7.953
 5417POPC   C4B 8494  16.144  21.612   7.653
 5418POPC   NC3 8495  37.652  17.465   9.453
 5418POPC   PO4 8496  37.698  17.506   9.153
 5418POPC   GL1 8497  37.713  17.474   8.853
 5418POPC   GL2 8498  37.677  17.386   8.853
 5418POPC   C1A 8499  37.669  17.504   8.553
 5418POPC   D2A 8500  37.707  17.478   8.253
 5418POPC   C3A 8501  37.712  17.477   7.953
 5418POPC   C4A 8502  37.679  17.545   7.653
 5418POPC   C1B 8503  37.734  17.246   8.553
 5418POPC   C2B 8504  37.700  17.239   8.253
 5418POPC   C3B 8505  37.705  17.233   7.953
 5418POPC   C4B 8506  37.693  17.209   7.653
 5419POPC   NC3 8507  30.714  10.500   9.453
 5419POPC   PO4 8508  30.673  10.492   9.153
 5419POPC   GL1 8509  30.723  10.521   8.853
 5419POPC   GL2 8510  30.725  10.664   8.853
 5419POPC   C1A 8511  30.725  10.483   8.553
 5419POPC   D2A 8512  30.717  10.566   8.253
 5419POPC   C3A 8513  30.672  10.531   7.953
 5419POPC   C4A 8514  30.655  10.564   7.653
 5419POPC   C1B 8515  30.734  10.731   8.553
 5419POPC   C2B 8516  30.710  10.820   8.253
 5419POPC   C3B 8517  30.757  10.735   7.953
 5419POPC   C4B 8518  30.742  10.733   7.653
 5420POPC   NC3 8519  19.865  12.826   9.453
 5420POPC   PO4 8520  19.876  12.828   9.153
 5420POPC   GL1 8521  19.847  12.891   8.853
 5420POPC   GL2 8522  19.782  12.894   8.853
 5420POPC   C1A 8523  19.850  12.826   8.553
 5420POPC   D2A 8524  19.855  12.847   8.253
 5420POPC   C3A 8525  19.879  12.828   7.953
 5420POPC   C4A 8526  19.823  12.803   7.653
 5420POPC   C1B 8527  19.613  13.047   8.553
 5420POPC   C2B 8528  19.638  12.992   8.253
 5420POPC   C3B 8529  19.650  13.052   7.953
 5420POPC   C4B 8530  19.600  13.023   7.653
 5421POPC   NC3 8531  33.003  29.956   9.453
 5421POPC   PO4 8532  33.040  29.895   9.153
 5421POPC   GL1 8533  33.063  29.944   8.853
 5421POPC   GL2 8534  33.139  30.039   8.853
 5421POPC   C1A 8535  33.048  29.917   8.553
 5421POPC   D2A 8536  33.034  29.968   8.253
 5421POPC   C3A 8537  33.003  29.910   7.953
 5421POPC   C4A 8538  33.036  29.914   7.653
 5421POPC   C1B 8539  33.128  30.109   8.553
 5421POPC   C2B 8540  33.183  30.115   8.253
 5421POPC   C3B 8541  33.184  30.161   7.953
 5421POPC   C4B 8542  33.162  30.117   7.653
 5422POPC   NC3 8543   9.747  38.486   9.453
 5422POPC   PO4 8544   9.797  38.475   9.153
 5422POPC   GL1 8545   9.735  38.413   8.853
 5422POPC   GL2 8546   9.585  38.490   8.853
 5422POPC   C1A 8547   9.729  38.408   8.553
 5422POPC   D2A 8548   9.763  38.434   8.253
 5422POPC   C3A 8549   9.744  38.415   7.953
 5422POPC   C4A 8550   9.716  38.430   7.653
 5422POPC   C1B 8551   9.534  38.426   8.553
 5422POPC   C2B 8552   9.475  38.455   8.253
 5422POPC   C3B 8553   9.507  38.474   7.953
 5422POPC   C4B 8554   9.467  38.506   7.653
 5423POPC   NC3 8555   8.201  26.831   9.453
 5423POPC   PO4 8556   8.148  26.782   9.153
 5423POPC   GL1 8557   8.204  26.799   8.853
 5423POPC   GL2 8558   8.294  26.793   8.853
 5423POPC   C1A 8559   8.239  26.860   8.553
 5423POPC   D2A 8560   8.178  26.783   8.253
 5423POPC   C3A 8561   8.150  26.770   7.953
 5423POPC   C4A 8562   8.175  26.865   7.653
 5423POPC   C1B 8563   8.425  26.776   8.553
 5423POPC   C2B 8564   8.397  26.771   8.253
 5423POPC   C3B 8565   8.396  26.724   7.953
 5423POPC   C4B 8566   8.393  26.792   7.653
 5424POPC   NC3 8567  18.285  17.469   9.453
 5424POPC   PO4 8568  18.259  17.495   9.153
 5424POPC   GL1 8569  18.237  17.520   8.853
 5424POPC   GL2 8570  18.295  17.669   8.853
 5424POPC   C1A 8571  18.241  17.537   8.553
 5424POPC   D2A 8572  18.326  17.470   8.253
 5424POPC   C3A 8573  18.258  17.475   7.953
 5424POPC   C4A 8574  18.331  17.509   7.653
 5424POPC   C1B 8575  18.232  17.737   8.553
 5424POPC   C2B 8576  18.169  17.704   8.253
 5424POPC   C3B 8577  18.258  17.701   7.953
 5424POPC   C4B 8578  18.234  17.747   7.653
 5425POPC   NC3 8579  19.027  13.604   9.453
 5425POPC   PO4 8580  19.022  13.628   9.153
 5425POPC   GL1 8581  19.064  13.649   8.853
 5425POPC   GL2 8582  19.153  13.548   8.853
 5425POPC   C1A 8583  19.011  13.614   8.553
 5425POPC   D2A 8584  19.084  13.590   8.253
 5425POPC   C3A 8585  19.015  13.579   7.953
 5425POPC   C4A 8586  19.028  13.618   7.653
 5425POPC   C1B 8587  19.330  13.576   8.553
 5425POPC   C2B 8588  19.266  13.552   8.253
 5425POPC   C3B 8589  19.317  13.522   7.953
 5425POPC   C4B 8590  19.251  13.554   7.653
 5426POPC   NC3 8591   0.423  10.480   9.453
 5426POPC   PO4 8592   0.398  10.574   9.153
 5426POPC   GL1 8593   0.389  10.507   8.853
 5426POPC   GL2 8594   0.382  10.579   8.853
 5426POPC   C1A 8595   0.442  10.527   8.553
 5426POPC   D2A 8596   0.402  10.491   8.253
 5426POPC   C3A 8597   0.427  10.554   7.953
 5426POPC   C4A 8598   0.399  10.482   7.653
 5426POPC   C1B 8599   0.271  10.709   8.553
 5426POPC   C2B 8600   0.209  10.657   8.253
 5426POPC   C3B 8601   0.293  10.641   7.953
 5426POPC   C4B 8602   0.228  10.686   7.653
 5427POPC   NC3 8603  16.725   4.284   9.453
 5427POPC   PO4 8604  16.774   4.297   9.153
 5427POPC   GL1 8605  16.687   4.344   8.853
 5427POPC   GL2 8606  16.809   4.279   8.853
 5427POPC   C1A 8607  16.781   4.331   8.553
 5427POPC   D2A 8608  16.738   4.269   8.253
 5427POPC   C3A 8609  16.709   4.294   7.953
 5427POPC   C4A 8610  16.725   4.274   7.653
 5427POPC   C1B 8611  17.008   4.289   8.553
 5427POPC   C2B 8612  16.952   4.260   8.253
 5427POPC   C3B 8613  16.937   4.324   7.953
 5427POPC   C4B 8614  17.026   4.248   7.653
 5428POPC   NC3 8615  33.779  28.346   9.453
 5428POPC   PO4 8616  33.764  28.354   9.153
 5428POPC   GL1 8617  33.812  28.404   8.853
 5428POPC   GL2 8618  33.802  28.450   8.853
 5428POPC   C1A 8619  33.840  28.363   8.553
 5428POPC   D2A 8620  33.787  28.384   8.253
 5428POPC   C3A 8621  33.769  28.352   7.953
 5428POPC   C4A 8622  33.766  28.392   7.653
 5428POPC   C1B 8623  33.703  28.619   8.553
 5428POPC   C2B 8624  33.698  28.637   8.253
 5428POPC   C3B 8625  33.788  28.623   7.953
 5428POPC   C4B 8626  33.697  28.641   7.653
 5429POPC   NC3 8627  39.186  32.250   9.453
 5429POPC   PO4 8628  39.264  32.275   9.153
 5429POPC   GL1 8629  39.263  32.223   8.853
 5429POPC   GL2 8630  39.184  32.160   8.853
 5429POPC   C1A 8631  39.246  32.286   8.553
 5429POPC   D2A 8632  39.279  32.225   8.253
 5429POPC   C3A 8633  39.250  32.232   7.953
 5429POPC   C4A 8634  39.213  32.215   7.653
 5429POPC   C1B 8635  39.270  32.029   8.553
 5429POPC   C2B 8636  39.186  32.036   8.253
 5429POPC   C3B 8637  39.175  31.981   7.953
 5429POPC   C4B 8638  39.200  31.995   7.653
 5430POPC   NC3 8639   6.611  29.101   9.453
 5430POPC   PO4 8640   6.596  29.185   9.153
 5430POPC   GL1 8641   6.612  29.138   8.853
 5430POPC   GL2 8642   6.711  29.040   8.853
 5430POPC   C1A 8643   6.656  29.121   8.553
 5430POPC   D2A 8644   6.595  29.165   8.253
 5430POPC   C3A 8645   6.615  29.169   7.953
 5430POPC   C4A 8646   6.625  29.161   7.653
 5430POPC   C1B 8647   6.672  28.874   8.553
 5430POPC   C2B 8648   6.647  28.937   8.253
 5430POPC   C3B 8649   6.707  28.940   7.953
 5430POPC   C4B 8650   6.659  28.892   7.653
 5431POPC   NC3 8651  14.448   4.340   9.453
 5431POPC   PO4 8652  14.419   4.309   9.153
 5431POPC   GL1 8653  14.411   4.276   8.853
 5431POPC   GL2 8654  14.319   4.382   8.853
 5431POPC   C1A 8655  14.440   4.362   8.553
 5431POPC   D2A 8656  14.429   4.347   8.253
 5431POPC   C3A 8657  14.377   4.315   7.953
 5431POPC   C4A 8658  14.452   4.321   7.653
 5431POPC   C1B 8659  14.207   4.452   8.553
 5431POPC   C2B 8660  14.179   4.484   8.253
 5431POPC   C3B 8661  14.177   4.397   7.953
 5431POPC   C4B 8662  14.208   4.488   7.653
 5432POPC   NC3 8663  12.110  16.711   9.453
 5432POPC   PO4 8664  12.111  16.690   9.153
 5432POPC   GL1 8665  12.060  16.683   8.853
 5432POPC   GL2 8666  11.930  16.684   8.853
 5432POPC   C1A 8667  12.057  16.688   8.553
 5432POPC   D2A 8668  12.040  16.682   8.253
 5432POPC   C3A 8669  12.113  16.757   7.953
 5432POPC   C4A 8670  12.046  16.733   7.653
 5432POPC   C1B 8671  11.805  16.724   8.553
 5432POPC   C2B 8672  11.837  16.722   8.253
 5432POPC   C3B 8673  11.806  16.656   7.953
 5432POPC   C4B 8674  11.870  16.718   7.653
 5433POPC   NC3 8675  41.600  22.134   9.453
 5433POPC   PO4 8676  41.543  22.128   9.153
 5433POPC   GL1 8677  41.570  22.203   8.853
 5433POPC   GL2 8678  41.592  22.057   8.853
 5433POPC   C1A 8679  41.559  22.113   8.553
 5433POPC   D2A 8680  41.512  22.156   8.253
 5433POPC   C3A 8681  41.571  22.207   7.953
 5433POPC   C4A 8682  41.513  22.117   7.653
 5433POPC   C1B 8683  41.553  21.960   8.553
 5433POPC   C2B 8684  41.593  21.942   8.253
 5433POPC   C3B 8685  41.638  21.921   7.953
 5433POPC   C4B 8686  41.639  21.960   7.653
 5434POPC   NC3 8687   9.719  12.892   9.453
 5434POPC   PO4 8688   9.704  12.870   9.153
 5434POPC   GL1 8689   9.787  12.854   8.853
 5434POPC   GL2 8690   9.684  12.940   8.853
 5434POPC   C1A 8691   9.796  12.893   8.553
 5434POPC   D2A 8692   9.798  12.861   8.253
 5434POPC   C3A 8693   9.754  12.865   7.953
 5434POPC   C4A 8694   9.779  12.894   7.653
 5434POPC   C1B 8695   9.509  13.027   8.553
 5434POPC   C2B 8696   9.574  12.965   8.253
 5434POPC   C3B 8697   9.516  13.051   7.953
 5434POPC   C4B 8698   9.565  13.039   7.653
 5435POPC   NC3 8699  14.367  43.143   9.453
 5435POPC   PO4 8700  14.429  43.135   9.153
 5435POPC   GL1 8701  14.393  43.066   8.853
 5435POPC   GL2 8702  14.503  43.252   8.853
 5435POPC   C1A 8703  14.436  43.108   8.553
 5435POPC   D2A 8704  14.447  43.070   8.253
 5435POPC   C3A 8705  14.446  43.151   7.953
 5435POPC   C4A 8706  14.442  43.121   7.653
 5435POPC   C1B 8707  14.500  43.336   8.553
 5435POPC   C2B 8708  14.567  43.334   8.253
 5435POPC   C3B 8709  14.491  43.359   7.953
 5435POPC   C4B 8710  14.516  43.301   7.653
 5436POPC   NC3 8711  35.366  19.089   9.453
 5436POPC   PO4 8712  35.400  19.050   9.153
 5436POPC   GL1 8713  35.379  19.052   8.853
 5436POPC   GL2 8714  35.247  18.952   8.853
 5436POPC   C1A 8715  35.355  19.077   8.553
 5436POPC   D2A 8716  35.344  19.073   8.253
 5436POPC   C3A 8717  35.344  19.027   7.953
 5436POPC   C4A 8718  35.343  19.047   7.653
 5436POPC   C1B 8719  35.202  18.863   8.553
 5436POPC   C2B 8720  35.155  18.905   8.253
 5436POPC   C3B 8721  35.165  18.930   7.953
 5436POPC   C4B 8722  35.144  18.886   7.653
 5437POPC   NC3 8723  19.839  43.100   9.453
 5437POPC   PO4 8724  19.870  43.117   9.153
 5437POPC   GL1 8725  19.792  43.113   8.853
 5437POPC   GL2 8726  19.679  43.091   8.853
 5437POPC   C1A 8727  19.797  43.102   8.553
 5437POPC   D2A 8728  19.811  43.075   8.253
 5437POPC   C3A 8729  19.854  43.139   7.953
 5437POPC   C4A 8730  19.835  43.113   7.653
 5437POPC   C1B 8731  19.545  43.123   8.553
 5437POPC   C2B 8732  19.553  43.160   8.253
 5437POPC   C3B 8733  19.539  43.171   7.953
 5437POPC   C4B 8734  19.612  43.085   7.653
 5438POPC   NC3 8735  38.420   2.020   9.453
 5438POPC   PO4 8736  38.463   1.948   9.153
 5438POPC   GL1 8737  38.458   1.998   8.853
 5438POPC   GL2 8738  38.496   2.100   8.853
 5438POPC   C1A 8739  38.467   1.989   8.553
 5438POPC   D2A 8740  38.422   1.976   8.253
 5438POPC   C3A 8741  38.479   2.006   7.953
 5438POPC   C4A 8742  38.411   1.964   7.653
 5438POPC   C1B 8743  38.646   2.173   8.553
 5438POPC   C2B 8744  38.586   2.180   8.253
 5438POPC   C3B 8745  38.650   2.231   7.953
 5438POPC   C4B 8746  38.652   2.224   7.653
 5439POPC   NC3 8747   9.759   8.193   9.453
 5439POPC   PO4 8748   9.780   8.158   9.153
 5439POPC   GL1 8749   9.775   8.170   8.853
 5439POPC   GL2 8750   9.707   8.067   8.853
 5439POPC   C1A 8751   9.749   8.214   8.553
 5439POPC   D2A 8752   9.749   8.181   8.253
 5439POPC   C3A 8753   9.791   8.172   7.953
 5439POPC   C4A 8754   9.730   8.160   7.653
 5439POPC   C1B 8755   9.744   7.917   8.553
 5439POPC   C2B 8756   9.775   7.921   8.253
 5439POPC   C3B 8757   9.727   7.914   7.953
 5439POPC   C4B 8758   9.728   7.989   7.653
 5440POPC   NC3 8759  43.933  42.369   9.453
 5440POPC   PO4 8760  43.929  42.328   9.153
 5440POPC   GL1 8761  43.857  42.342   8.853
 5440POPC   GL2 8762  43.828  42.496   8.853
 5440POPC   C1A 8763  43.861  42.322   8.553
 5440POPC   D2A 8764  43.842  42.336   8.253
 5440POPC   C3A 8765  43.855  42.307   7.953
 5440POPC   C4A 8766  43.858  42.327   7.653
 5440POPC   C1B 8767  43.747  42.560   8.553
 5440POPC   C2B 8768  43.778  42.579   8.253
 5440POPC   C3B 8769  43.787  42.532   7.953
 5440POPC   C4B 8770  43.742  42.546   7.653
 5441POPC   NC3 8771   2.785  34.526   9.453
 5441POPC   PO4 8772   2.738  34.526   9.153
 5441POPC   GL1 8773   2.778  34.571   8.853
 5441POPC   GL2 8774   2.721  34.473   8.853
 5441POPC   C1A 8775   2.794  34.584   8.553
 5441POPC   D2A 8776   2.808  34.568   8.253
 5441POPC   C3A 8777   2.731  34.590   7.953
 5441POPC   C4A 8778   2.799  34.583   7.653
 5441POPC   C1B 8779   2.588  34.357   8.553
 5441POPC   C2B 8780   2.590  34.431   8.253
 5441POPC   C3B 8781   2.580  34.445   7.953
 5441POPC   C4B 8782   2.612  34.425   7.653
 5442POPC   NC3 8783  35.351  14.410   9.453
 5442POPC   PO4 8784  35.351  14.403   9.153
 5442POPC   GL1 8785  35.339  14.358   8.853
 5442POPC   GL2 8786  35.451  14.372   8.853
 5442POPC   C1A 8787  35.366  14.391   8.553
 5442POPC   D2A 8788  35.323  14.398   8.253
 5442POPC   C3A 8789  35.312  14.427   7.953
 5442POPC   C4A 8790  35.362  14.410   7.653
 5442POPC   C1B 8791  35.600  14.465   8.553
 5442POPC   C2B 8792  35.591  14.382   8.253
 5442POPC   C3B 8793  35.638  14.453   7.953
 5442POPC   C4B 8794  35.616  14.430   7.653
 5443POPC   NC3 8795   1.201  36.173   9.453
 5443POPC   PO4 8796   1.233  36.094   9.153
 5443POPC   GL1 8797   1.240  36.108   8.853
 5443POPC   GL2 8798   1.198  35.960   8.853
 5443POPC   C1A 8799   1.170  36.154   8.553
 5443POPC   D2A 8800   1.240  36.111   8.253
 5443POPC   C3A 8801   1.199  36.143   7.953
 5443POPC   C4A 8802   1.243  36.148   7.653
 5443POPC   C1B 8803   1.207  35.883   8.553
 5443POPC   C2B 8804   1.291  35.928   8.253
 5443POPC   C3B 8805   1.236  35.918   7.953
 5443POPC   C4B 8806   1.287  35.926   7.653
 5444POPC   NC3 8807  36.926   2.768   9.453
 5444POPC   PO4 8808  36.950   2.805   9.153
 5444POPC   GL1 8809  36.882   2.764   8.853
 5444POPC   GL2 8810  36.765   2.769   8.853
 5444POPC   C1A 8811  36.855   2.782   8.553
 5444POPC   D2A 8812  36.929   2.774   8.253
 5444POPC   C3A 8813  36.874   2.727   7.953
 5444POPC   C4A 8814  36.860   2.780   7.653
 5444POPC   C1B 8815  36.710   2.665   8.553
 5444POPC   C2B 8816  36.630   2.695   8.253
 5444POPC   C3B 8817  36.689   2.737   7.953
 5444POPC   C4B 8818  36.701   2.648   7.653
 5445POPC   NC3 8819  38.465  26.081   9.453
 5445POPC   PO4 8820  38.418  26.036   9.153
 5445POPC   GL1 8821  38.446  26.049   8.853
 5445POPC   GL2 8822  38.381  25.961   8.853
 5445POPC   C1A 8823  38.412  26.065   8.553
 5445POPC   D2A 8824  38.462  26.062   8.253
 5445POPC   C3A 8825  38.438  26.056   7.953
 5445POPC   C4A 8826  38.407  25.996   7.653
 5445POPC   C1B 8827  38.349  25.886   8.553
 5445POPC   C2B 8828  38.276  25.811   8.253
 5445POPC   C3B 8829  38.278  25.849   7.953
 5445POPC   C4B 8830  38.319  25.836   7.653
 5446POPC   NC3 8831  30.736   2.796   9.453
 5446POPC   PO4 8832  30.673   2.778   9.153
 5446POPC   GL1 8833  30.732   2.790   8.853
 5446POPC   GL2 8834  30.635   2.838   8.853
 5446POPC   C1A 8835  30.723   2.765   8.553
 5446POPC   D2A 8836  30.694   2.782   8.253
 5446POPC   C3A 8837  30.685   2.797   7.953
 5446POPC   C4A 8838  30.683   2.789   7.653
 5446POPC   C1B 8839  30.511   2.899   8.553
 5446POPC   C2B 8840  30.495   2.914   8.253
 5446POPC   C3B 8841  30.471   2.900   7.953
 5446POPC   C4B 8842  30.516   2.919   7.653
 5447POPC   NC3 8843   5.822  25.219   9.453
 5447POPC   PO4 8844   5.872  25.244   9.153
 5447POPC   GL1 8845   5.908  25.305   8.853
 5447POPC   GL2 8846   5.926  25.153   8.853
 5447POPC   C1A 8847   5.901  25.286   8.553
 5447POPC   D2A 8848   5.832  25.289   8.253
 5447POPC   C3A 8849   5.910  25.265   7.953
 5447POPC   C4A 8850   5.849  25.303   7.653
 5447POPC   C1B 8851   6.024  25.076   8.553
 5447POPC   C2B 8852   6.073  25.094   8.253
 5447POPC   C3B 8853   6.013  25.142   7.953
 5447POPC   C4B 8854   6.111  25.109   7.653
 5448POPC   NC3 8855   6.641   8.155   9.453
 5448POPC   PO4 8856   6.644   8.190   9.153
 5448POPC   GL1 8857   6.684   8.189   8.853
 5448POPC   GL2 8858   6.652   8.274   8.853
 5448POPC   C1A 8859   6.686   8.236   8.553
 5448POPC   D2A 8860   6.692   8.157   8.253
 5448POPC   C3A 8861   6.621   8.244   7.953
 5448POPC   C4A 8862   6.679   8.160   7.653
 5448POPC   C1B 8863   6.588   8.469   8.553
 5448POPC   C2B 8864   6.592   8.387   8.253
 5448POPC   C3B 8865   6.587   8.448   7.953
 5448POPC   C4B 8866   6.595   8.409   7.653
 5449POPC   NC3 8867   1.238  39.229   9.453
 5449POPC   PO4 8868   1.190  39.230   9.153
 5449POPC   GL1 8869   1.181  39.269   8.853
 5449POPC   GL2 8870   1.200  39.088   8.853
 5449POPC   C1A 8871   1.192  39.222   8.553
 5449POPC   D2A 8872   1.208  39.223   8.253
 5449POPC   C3A 8873   1.215  39.236   7.953
 5449POPC   C4A 8874   1.237  39.264   7.653
 5449POPC   C1B 8875   1.314  38.948   8.553
 5449POPC   C2B 8876   1.319  38.962   8.253
 5449POPC   C3B 8877   1.256  39.019   7.953
 5449POPC   C4B 8878   1.298  38.966   7.653
 5450POPC   NC3 8879   8.176   8.219   9.453
 5450POPC   PO4 8880   8.239   8.235   9.153
 5450POPC   GL1 8881   8.147   8.155   8.853
 5450POPC   GL2 8882   8.265   8.297   8.853
 5450POPC   C1A 8883   8.245   8.244   8.553
 5450POPC   D2A 8884   8.237   8.155   8.253
 5450POPC   C3A 8885   8.242   8.195   7.953
 5450POPC   C4A 8886   8.209   8.190   7.653
 5450POPC   C1B 8887   8.216   8.469   8.553
 5450POPC   C2B 8888   8.269   8.479   8.253
 5450POPC   C3B 8889   8.202   8.436   7.953
 5450POPC   C4B 8890   8.242   8.450   7.653
 5451POPC   NC3 8891  21.351  25.287   9.453
 5451POPC   PO4 8892  21.398  25.262   9.153
 5451POPC   GL1 8893  21.357  25.256   8.853
 5451POPC   GL2 8894  21.307  25.172   8.853
 5451POPC   C1A 8895  21.388  25.275   8.553
 5451POPC   D2A 8896  21.357  25.237   8.253
 5451POPC   C3A 8897  21.429  25.306   7.953
 5451POPC   C4A 8898  21.429  25.258   7.653
 5451POPC   C1B 8899  21.207  25.070   8.553
 5451POPC   C2B 8900  21.228  25.107   8.253
 5451POPC   C3B 8901  21.229  25.069   7.953
 5451POPC   C4B 8902  21.202  25.066   7.653
 5452POPC   NC3 8903  14.448  12.055   9.453
 5452POPC   PO4 8904  14.391  12.033   9.153
 5452POPC   GL1 8905  14.394  12.118   8.853
 5452POPC   GL2 8906  14.517  12.018   8.853
 5452POPC   C1A 8907  14.365  12.085   8.553
 5452POPC   D2A 8908  14.441  12.068   8.253
 5452POPC   C3A 8909  14.440  12.125   7.953
 5452POPC   C4A 8910  14.385  12.105   7.653
 5452POPC   C1B 8911  14.595  11.957   8.553
 5452POPC   C2B 8912  14.589  11.929   8.253
 5452POPC   C3B 8913  14.655  11.946   7.953
 5452POPC   C4B 8914  14.590  11.893   7.653
 5453POPC   NC3 8915   4.268  26.013   9.453
 5453POPC   PO4 8916   4.285  26.075   9.153
 5453POPC   GL1 8917   4.353  26.080   8.853
 5453POPC   GL2 8918   4.174  25.965   8.853
 5453POPC   C1A 8919   4.339  26.038   8.553
 5453POPC   D2A 8920   4.335  26.042   8.253
 5453POPC   C3A 8921   4.299  26.078   7.953
 5453POPC   C4A 8922   4.269  26.035   7.653
 5453POPC   C1B 8923   4.088  25.992   8.553
 5453POPC   C2B 8924   4.080  26.019   8.253
 5453POPC   C3B 8925   4.036  25.969   7.953
 5453POPC   C4B 8926   4.115  26.018   7.653
 5454POPC   NC3 8927  13.665   5.880   9.453
 5454POPC   PO4 8928  13.606   5.877   9.153
 5454POPC   GL1 8929  13.622   5.899   8.853
 5454POPC   GL2 8930  13.557   5.914   8.853
 5454POPC   C1A 8931  13.630   5.860   8.553
 5454POPC   D2A 8932  13.654   5.849   8.253
 5454POPC   C3A 8933  13.672   5.903   7.953
 5454POPC   C4A 8934  13.635   5.848   7.653
 5454POPC   C1B 8935  13.412   5.994   8.553
 5454POPC   C2B 8936  13.448   6.046   8.253
 5454POPC   C3B 8937  13.461   5.991   7.953
 5454POPC   C4B 8938  13.390   6.020   7.653
 5455POPC   NC3 8939  19.837  22.136   9.453
 5455POPC   PO4 8940  19.862  22.200   9.153
 5455POPC   GL1 8941  19.870  22.147   8.853
 5455POPC   GL2 8942  19.938  22.060   8.853
 5455POPC   C1A 8943  19.850  22.119   8.553
 5455POPC   D2A 8944  19.857  22.166   8.253
 5455POPC   C3A 8945  19.826  22.155   7.953
 5455POPC   C4A 8946  19.862  22.140   7.653
 5455POPC   C1B 8947  20.046  21.997   8.553
 5455POPC   C2B 8948  20.044  21.989   8.253
 5455POPC   C3B 8949  20.028  21.978   7.953
 5455POPC   C4B 8950  20.002  22.020   7.653
 5456POPC   NC3 8951  36.164   4.356   9.453
 5456POPC   PO4 8952  36.078   4.289   9.153
 5456POPC   GL1 8953  36.084   4.285   8.853
 5456POPC   GL2 8954  36.091   4.173   8.853
 5456POPC   C1A 8955  36.132   4.351   8.553
 5456POPC   D2A 8956  36.170   4.316   8.253
 5456POPC   C3A 8957  36.111   4.313   7.953
 5456POPC   C4A 8958  36.132   4.367   7.653
 5456POPC   C1B 8959  36.034   4.136   8.553
 5456POPC   C2B 8960  36.051   4.134   8.253
 5456POPC   C3B 8961  35.969   4.132   7.953
 5456POPC   C4B 8962  36.046   4.061   7.653
 5457POPC   NC3 8963  22.175  26.838   9.453
 5457POPC   PO4 8964  22.168  26.795   9.153
 5457POPC   GL1 8965  22.160  26.866   8.853
 5457POPC   GL2 8966  22.150  26.674   8.853
 5457POPC   C1A 8967  22.199  26.831   8.553
 5457POPC   D2A 8968  22.133  26.794   8.253
 5457POPC   C3A 8969  22.203  26.779   7.953
 5457POPC   C4A 8970  22.116  26.866   7.653
 5457POPC   C1B 8971  22.199  26.612   8.553
 5457POPC   C2B 8972  22.211  26.612   8.253
 5457POPC   C3B 8973  22.216  26.595   7.953
 5457POPC   C4B 8974  22.246  26.546   7.653
 5458POPC   NC3 8975   9.719  44.667   9.453
 5458POPC   PO4 8976   9.788  44.643   9.153
 5458POPC   GL1 8977   9.749  44.636   8.853
 5458POPC   GL2 8978   9.665  44.564   8.853
 5458POPC   C1A 8979   9.729  44.612   8.553
 5458POPC   D2A 8980   9.712  44.711   8.253
 5458POPC   C3A 8981   9.786  44.689   7.953
 5458POPC   C4A 8982   9.729  44.621   7.653
 5458POPC   C1B 8983   9.610  44.499   8.553
 5458POPC   C2B 8984   9.588  44.484   8.253
 5458POPC   C3B 8985   9.595  44.497   7.953
 5458POPC   C4B 8986   9.648  44.412   7.653
 5459POPC   NC3 8987   6.599  40.739   9.453
 5459POPC   PO4 8988   6.611  40.770   9.153
 5459POPC   GL1 8989   6.609  40.746   8.853
 5459POPC   GL2 8990   6.602  40.686   8.853
 5459POPC   C1A 8991   6.670  40.791   8.553
 5459POPC   D2A 8992   6.625  40.818   8.253
 5459POPC   C3A 8993   6.607  40.817   7.953
 5459POPC   C4A 8994   6.608  40.805   7.653
 5459POPC   C1B 8995   6.615  40.495   8.553
 5459POPC   C2B 8996   6.638  40.494   8.253
 5459POPC   C3B 8997   6.650  40.502   7.953
 5459POPC   C4B 8998   6.615  40.497   7.653
 5460POPC   NC3 8999  25.282   6.616   9.453
 5460POPC   PO4 9000  25.241   6.635   9.153
 5460POPC   GL1 9001  25.218   6.615   8.853
 5460POPC   GL2 9002  25.120   6.638   8.853
 5460POPC   C1A 9003  25.264   6.649   8.553
 5460POPC   D2A 9004  25.277   6.674   8.253
 5460POPC   C3A 9005  25.310   6.630   7.953
 5460POPC   C4A 9006  25.241   6.627   7.653
 5460POPC   C1B 9007  24.975   6.675   8.553
 5460POPC   C2B 9008  25.051   6.709   8.253
 5460POPC   C3B 9009  25.048   6.703   7.953
 5460POPC   C4B 9010  25.013   6.743   7.653
 5461POPC   NC3 9011  21.368  22.193   9.453
 5461POPC   PO4 9012  21.414  22.127   9.153
 5461POPC   GL1 9013  21.430  22.184   8.853
 5461POPC   GL2 9014  21.270  22.124   8.853
 5461POPC   C1A 9015  21.422  22.116   8.553
 5461POPC   D2A 9016  21.364  22.114   8.253
 5461POPC   C3A 9017  21.406  22.189   7.953
 5461POPC   C4A 9018  21.404  22.155   7.653
 5461POPC   C1B 9019  21.180  21.957   8.553
 5461POPC   C2B 9020  21.222  22.010   8.253
 5461POPC   C3B 9021  21.176  21.985   7.953
 5461POPC   C4B 9022  21.231  21.977   7.653
 5462POPC   NC3 9023   3.535   8.152   9.453
 5462POPC   PO4 9024   3.540   8.201   9.153
 5462POPC   GL1 9025   3.591   8.225   8.853
 5462POPC   GL2 9026   3.418   8.096   8.853
 5462POPC   C1A 9027   3.523   8.171   8.553
 5462POPC   D2A 9028   3.545   8.196   8.253
 5462POPC   C3A 9029   3.535   8.210   7.953
 5462POPC   C4A 9030   3.577   8.207   7.653
 5462POPC   C1B 9031   3.316   8.075   8.553
 5462POPC   C2B 9032   3.304   8.066   8.253
 5462POPC   C3B 9033   3.343   8.122   7.953
 5462POPC   C4B 9034   3.317   8.080   7.653
 5463POPC   NC3 9035   8.169  39.959   9.453
 5463POPC   PO4 9036   8.181  40.002   9.153
 5463POPC   GL1 9037   8.217  40.029   8.853
 5463POPC   GL2 9038   8.364  40.050   8.853
 5463POPC   C1A 9039   8.151  39.963   8.553
 5463POPC   D2A 9040   8.164  40.043   8.253
 5463POPC   C3A 9041   8.152  40.004   7.953
 5463POPC   C4A 9042   8.160  40.036   7.653
 5463POPC   C1B 9043   8.440  40.026   8.553
 5463POPC   C2B 9044   8.397  40.080   8.253
 5463POPC   C3B 9045   8.418  40.060   7.953
 5463POPC   C4B 9046   8.424  40.041   7.653
 5464POPC   NC3 9047  28.337  40.784   9.453
 5464POPC   PO4 9048  28.367  40.774   9.153
 5464POPC   GL1 9049  28.410  40.766   8.853
 5464POPC   GL2 9050  28.253  40.736   8.853
 5464POPC   C1A 9051  28.361  40.817   8.553
 5464POPC   D2A 9052  28.383  40.749   8.253
 5464POPC   C3A 9053  28.401  40.771   7.953
 5464POPC   C4A 9054  28.351  40.761   7.653
 5464POPC   C1B 9055  28.091  40.723   8.553
 5464POPC   C2B 9056  28.132  40.700   8.253
 5464POPC   C3B 9057  28.177  40.673   7.953
 5464POPC   C4B 9058  28.157  40.722   7.653
 5465POPC   NC3 9059  33.848  15.143   9.453
 5465POPC   PO4 9060  33.755  15.205   9.153
 5465POPC   GL1 9061  33.822  15.173   8.853
 5465POPC   GL2 9062  33.745  15.228   8.853
 5465POPC   C1A 9063  33.789  15.182   8.553
 5465POPC   D2A 9064  33.805  15.143   8.253
 5465POPC   C3A 9065  33.811  15.203   7.953
 5465POPC   C4A 9066  33.836  15.131   7.653
 5465POPC   C1B 9067  33.606  15.360   8.553
 5465POPC   C2B 9068  33.586  15.364   8.253
 5465POPC   C3B 9069  33.657  15.391   7.953
 5465POPC   C4B 9070  33.622  15.379   7.653
 5466POPC   NC3 9071  41.586   9.767   9.453
 5466POPC   PO4 9072  41.583   9.741   9.153
 5466POPC   GL1 9073  41.602   9.787   8.853
 5466POPC   GL2 9074  41.619   9.917   8.853
 5466POPC   C1A 9075  41.584   9.705   8.553
 5466POPC   D2A 9076  41.556   9.723   8.253
 5466POPC   C3A 9077  41.606   9.732   7.953
 5466POPC   C4A 9078  41.520   9.705   7.653
 5466POPC   C1B 9079  41.591   9.952   8.553
 5466POPC   C2B 9080  41.653  10.030   8.253
 5466POPC   C3B 9081  41.630  10.008   7.953
 5466POPC   C4B 9082  41.627   9.959   7.653
 5467POPC   NC3 9083  28.346   7.445   9.453
 5467POPC   PO4 9084  28.380   7.445   9.153
 5467POPC   GL1 9085  28.372   7.421   8.853
 5467POPC   GL2 9086  28.465   7.429   8.853
 5467POPC   C1A 9087  28.410   7.374   8.553
 5467POPC   D2A 9088  28.365   7.435   8.253
 5467POPC   C3A 9089  28.417   7.425   7.953
 5467POPC   C4A 9090  28.399   7.465   7.653
 5467POPC   C1B 9091  28.645   7.448   8.553
 5467POPC   C2B 9092  28.561   7.541   8.253
 5467POPC   C3B 9093  28.631   7.490   7.953
 5467POPC   C4B 9094  28.627   7.468   7.653
 5468POPC   NC3 9095  11.337   8.989   9.453
 5468POPC   PO4 9096  11.252   8.932   9.153
 5468POPC   GL1 9097  11.266   9.016   8.853
 5468POPC   GL2 9098  11.246   8.943   8.853
 5468POPC   C1A 9099  11.276   8.976   8.553
 5468POPC   D2A 9100  11.333   8.992   8.253
 5468POPC   C3A 9101  11.310   8.961   7.953
 5468POPC   C4A 9102  11.275   8.957   7.653
 5468POPC   C1B 9103  11.048   8.835   8.553
 5468POPC   C2B 9104  11.074   8.784   8.253
 5468POPC   C3B 9105  11.121   8.777   7.953
 5468POPC   C4B 9106  11.138   8.823   7.653
 5469POPC   NC3 9107  18.294   8.201   9.453
 5469POPC   PO4 9108  18.286   8.188   9.153
 5469POPC   GL1 9109  18.300   8.239   8.853
 5469POPC   GL2 9110  18.139   8.300   8.853
 5469POPC   C1A 9111  18.321   8.242   8.553
 5469POPC   D2A 9112  18.299   8.197   8.253
 5469POPC   C3A 9113  18.312   8.230   7.953
 5469POPC   C4A 9114  18.271   8.241   7.653
 5469POPC   C1B 9115  18.112   8.312   8.553
 5469POPC   C2B 9116  18.046   8.351   8.253
 5469POPC   C3B 9117  18.097   8.370   7.953
 5469POPC   C4B 9118  18.135   8.397   7.653
 5470POPC   NC3 9119   5.887  43.852   9.453
 5470POPC   PO4 9120   5.836  43.882   9.153
 5470POPC   GL1 9121   5.839  43.886   8.853
 5470POPC   GL2 9122   5.805  43.802   8.853
 5470POPC   C1A 9123   5.821  43.908   8.553
 5470POPC   D2A 9124   5.900  43.841   8.253
 5470POPC   C3A 9125   5.898  43.911   7.953
 5470POPC   C4A 9126   5.895  43.896   7.653
 5470POPC   C1B 9127   5.846  43.636   8.553
 5470POPC   C2B 9128   5.838  43.618   8.253
 5470POPC   C3B 9129   5.792  43.659   7.953
 5470POPC   C4B 9130   5.781  43.657   7.653
 5471POPC   NC3 9131   6.684  19.840   9.453
 5471POPC   PO4 9132   6.603  19.786   9.153
 5471POPC   GL1 9133   6.632  19.842   8.853
 5471POPC   GL2 9134   6.592  19.760   8.853
 5471POPC   C1A 9135   6.674  19.795   8.553
 5471POPC   D2A 9136   6.599  19.801   8.253
 5471POPC   C3A 9137   6.651  19.869   7.953
 5471POPC   C4A 9138   6.676  19.878   7.653
 5471POPC   C1B 9139   6.586  19.560   8.553
 5471POPC   C2B 9140   6.551  19.603   8.253
 5471POPC   C3B 9141   6.597  19.614   7.953
 5471POPC   C4B 9142   6.580  19.554   7.653
 5472POPC   NC3 9143  33.072  28.418   9.453
 5472POPC   PO4 9144  33.008  28.412   9.153
 5472POPC   GL1 9145  33.009  28.347   8.853
 5472POPC   GL2 9146  32.896  28.396   8.853
 5472POPC   C1A 9147  33.011  28.389   8.553
 5472POPC   D2A 9148  33.003  28.384   8.253
 5472POPC   C3A 9149  32.996  28.376   7.953
 5472POPC   C4A 9150  33.011  28.348   7.653
 5472POPC   C1B 9151  32.756  28.430   8.553
 5472POPC   C2B 9152  32.769  28.360   8.253
 5472POPC   C3B 9153  32.804  28.414   7.953
 5472POPC   C4B 9154  32.779  28.362   7.653
 5473POPC   NC3 9155  41.526  36.156   9.453
 5473POPC   PO4 9156  41.588  36.098   9.153
 5473POPC   GL1 9157  41.592  36.106   8.853
 5473POPC   GL2 9158  41.678  36.087   8.853
 5473POPC   C1A 9159  41.597  36.130   8.553
 5473POPC   D2A 9160  41.602  36.110   8.253
 5473POPC   C3A 9161  41.529  36.153   7.953
 5473POPC   C4A 9162  41.576  36.134   7.653
 5473POPC   C1B 9163  41.852  36.074   8.553
 5473POPC   C2B 9164  41.831  36.067   8.253
 5473POPC   C3B 9165  41.801  36.120   7.953
 5473POPC   C4B 9166  41.820  36.078   7.653
 5474POPC   NC3 9167  25.264  13.670   9.453
 5474POPC   PO4 9168  25.283  13.621   9.153
 5474POPC   GL1 9169  25.280  13.648   8.853
 5474POPC   GL2 9170  25.118  13.624   8.853
 5474POPC   C1A 9171  25.222  13.611   8.553
 5474POPC   D2A 9172  25.225  13.590   8.253
 5474POPC   C3A 9173  25.308  13.578   7.953
 5474POPC   C4A 9174  25.235  13.604   7.653
 5474POPC   C1B 9175  25.027  13.736   8.553
 5474POPC   C2B 9176  25.009  13.687   8.253
 5474POPC   C3B 9177  25.007  13.662   7.953
 5474POPC   C4B 9178  25.030  13.749   7.653
 5475POPC   NC3 9179  26.085  20.647   9.453
 5475POPC   PO4 9180  26.082  20.582   9.153
 5475POPC   GL1 9181  26.064  20.646   8.853
 5475POPC   GL2 9182  26.044  20.467   8.853
 5475POPC   C1A 9183  26.010  20.612   8.553
 5475POPC   D2A 9184  26.071  20.634   8.253
 5475POPC   C3A 9185  26.079  20.656   7.953
 5475POPC   C4A 9186  26.013  20.590   7.653
 5475POPC   C1B 9187  26.045  20.386   8.553
 5475POPC   C2B 9188  26.004  20.368   8.253
 5475POPC   C3B 9189  26.064  20.340   7.953
 5475POPC   C4B 9190  26.013  20.382   7.653
 5476POPC   NC3 9191   5.074  40.815   9.453
 5476POPC   PO4 9192   5.086  40.812   9.153
 5476POPC   GL1 9193   5.131  40.759   8.853
 5476POPC   GL2 9194   5.203  40.689   8.853
 5476POPC   C1A 9195   5.091  40.822   8.553
 5476POPC   D2A 9196   5.114  40.809   8.253
 5476POPC   C3A 9197   5.124  40.745   7.953
 5476POPC   C4A 9198   5.099  40.826   7.653
 5476POPC   C1B 9199   5.288  40.640   8.553
 5476POPC   C2B 9200   5.298  40.637   8.253
 5476POPC   C3B 9201   5.261  40.594   7.953
 5476POPC   C4B 9202   5.310  40.621   7.653
 5477POPC   NC3 9203   0.428  32.205   9.453
 5477POPC   PO4 9204   0.430  32.274   9.153
 5477POPC   GL1 9205   0.461  32.231   8.853
 5477POPC   GL2 9206   0.404  32.121   8.853
 5477POPC   C1A 9207   0.480  32.263   8.553
 5477POPC   D2A 9208   0.472  32.220   8.253
 5477POPC   C3A 9209   0.463  32.200   7.953
 5477POPC   C4A 9210   0.471  32.262   7.653
 5477POPC   C1B 9211   0.390  31.991   8.553
 5477POPC   C2B 9212   0.332  32.008   8.253
 5477POPC   C3B 9213   0.372  32.001   7.953
 5477POPC   C4B 9214   0.350  32.046   7.653
 5478POPC   NC3 9215  32.206   8.226   9.453
 5478POPC   PO4 9216  32.286   8.189   9.153
 5478POPC   GL1 9217  32.255   8.187   8.853
 5478POPC   GL2 9218  32.314   8.257   8.853
 5478POPC   C1A 9219  32.229   8.179   8.553
 5478POPC   D2A 9220  32.256   8.150   8.253
 5478POPC   C3A 9221  32.269   8.203   7.953
 5478POPC   C4A 9222  32.283   8.176   7.653
 5478POPC   C1B 9223  32.464   8.343   8.553
 5478POPC   C2B 9224  32.497   8.339   8.253
 5478POPC   C3B 9225  32.412   8.351   7.953
 5478POPC   C4B 9226  32.478   8.313   7.653
 5479POPC   NC3 9227  14.376   0.453   9.453
 5479POPC   PO4 9228  14.373   0.398   9.153
 5479POPC   GL1 9229  14.376   0.432   8.853
 5479POPC   GL2 9230  14.570   0.452   8.853
 5479POPC   C1A 9231  14.356   0.444   8.553
 5479POPC   D2A 9232  14.404   0.430   8.253
 5479POPC   C3A 9233  14.374   0.432   7.953
 5479POPC   C4A 9234  14.453   0.459   7.653
 5479POPC   C1B 9235  14.635   0.488   8.553
 5479POPC   C2B 9236  14.641   0.546   8.253
 5479POPC   C3B 9237  14.650   0.482   7.953
 5479POPC   C4B 9238  14.661   0.533   7.653
 5480POPC   NC3 9239  25.997  22.894   9.453
 5480POPC   PO4 9240  26.076  22.905   9.153
 5480POPC   GL1 9241  26.084  22.938   8.853
 5480POPC   GL2 9242  26.070  22.845   8.853
 5480POPC   C1A 9243  26.067  22.961   8.553
 5480POPC   D2A 9244  26.031  22.891   8.253
 5480POPC   C3A 9245  26.029  22.918   7.953
 5480POPC   C4A 9246  26.053  22.938   7.653
 5480POPC   C1B 9247  25.969  22.687   8.553
 5480POPC   C2B 9248  25.963  22.695   8.253
 5480POPC   C3B 9249  25.985  22.647   7.953
 5480POPC   C4B 9250  25.960  22.715   7.653
 5481POPC   NC3 9251  37.630   2.000   9.453
 5481POPC   PO4 9252  37.715   1.952   9.153
 5481POPC   GL1 9253  37.650   2.035   8.853
 5481POPC   GL2 9254  37.616   1.872   8.853
 5481POPC   C1A 9255  37.680   2.029   8.553
 5481POPC   D2A 9256  37.654   1.994   8.253
 5481POPC   C3A 9257  37.712   2.034   7.953
 5481POPC   C4A 9258  37.697   2.003   7.653
 5481POPC   C1B 9259  37.499   1.781   8.553
 5481POPC   C2B 9260  37.513   1.769   8.253
 5481POPC   C3B 9261  37.457   1.777   7.953
 5481POPC   C4B 9262  37.489   1.851   7.653
 5482POPC   NC3 9263   1.258  44.636   9.453
 5482POPC   PO4 9264   1.254  44.651   9.153
 5482POPC   GL1 9265   1.212  44.613   8.853
 5482POPC   GL2 9266   1.186  44.496   8.853
 5482POPC   C1A 9267   1.231  44.662   8.553
 5482POPC   D2A 9268   1.165  44.661   8.253
 5482POPC   C3A 9269   1.169  44.642   7.953
 5482POPC   C4A 9270   1.211  44.619   7.653
 5482POPC   C1B 9271   1.126  44.378   8.553
 5482POPC   C2B 9272   1.173  44.374   8.253
 5482POPC   C3B 9273   1.190  44.383   7.953
 5482POPC   C4B 9274   1.129  44.430   7.653
 5483POPC   NC3 9275  38.497  19.865   9.453
 5483POPC   PO4 9276  38.417  19.827   9.153
 5483POPC   GL1 9277  38.416  19.858   8.853
 5483POPC   GL2 9278  38.354  19.783   8.853
 5483POPC   C1A 9279  38.505  19.809   8.553
 5483POPC   D2A 9280  38.469  19.879   8.253
 5483POPC   C3A 9281  38.431  19.834   7.953
 5483POPC   C4A 9282  38.428  19.869   7.653
 5483POPC   C1B 9283  38.173  19.775   8.553
 5483POPC   C2B 9284  38.170  19.860   8.253
 5483POPC   C3B 9285  38.208  19.851   7.953
 5483POPC   C4B 9286  38.169  19.802   7.653
 5484POPC   NC3 9287  27.548  17.508   9.453
 5484POPC   PO4 9288  27.571  17.493   9.153
 5484POPC   GL1 9289  27.573  17.460   8.853
 5484POPC   GL2 9290  27.569  17.622   8.853
 5484POPC   C1A 9291  27.574  17.512   8.553
 5484POPC   D2A 9292  27.608  17.530   8.253
 5484POPC   C3A 9293  27.555  17.486   7.953
 5484POPC   C4A 9294  27.568  17.496   7.653
 5484POPC   C1B 9295  27.488  17.748   8.553
 5484POPC   C2B 9296  27.500  17.731   8.253
 5484POPC   C3B 9297  27.444  17.716   7.953
 5484POPC   C4B 9298  27.462  17.726   7.653
 5485POPC   NC3 9299   2.788   6.676   9.453
 5485POPC   PO4 9300   2.732   6.687   9.153
 5485POPC   GL1 9301   2.805   6.625   8.853
 5485POPC   GL2 9302   2.690   6.769   8.853
 5485POPC   C1A 9303   2.793   6.683   8.553
 5485POPC   D2A 9304   2.764   6.671   8.253
 5485POPC   C3A 9305   2.807   6.659   7.953
 5485POPC   C4A 9306   2.782   6.661   7.653
 5485POPC   C1B 9307   2.576   6.847   8.553
 5485POPC   C2B 9308   2.590   6.821   8.253
 5485POPC   C3B 9309   2.563   6.813   7.953
 5485POPC   C4B 9310   2.638   6.844   7.653
 5486POPC   NC3 9311  38.455  24.450   9.453
 5486POPC   PO4 9312  38.420  24.491   9.153
 5486POPC   GL1 9313  38.427  24.523   8.853
 5486POPC   GL2 9314  38.566  24.413   8.853
 5486POPC   C1A 9315  38.500  24.509   8.553
 5486POPC   D2A 9316  38.469  24.464   8.253
 5486POPC   C3A 9317  38.433  24.479   7.953
 5486POPC   C4A 9318  38.449  24.486   7.653
 5486POPC   C1B 9319  38.664  24.327   8.553
 5486POPC   C2B 9320  38.702  24.313   8.253
 5486POPC   C3B 9321  38.669  24.338   7.953
 5486POPC   C4B 9322  38.697  24.378   7.653
 5487POPC   NC3 9323  39.237  18.279   9.453
 5487POPC   PO4 9324  39.275  18.330   9.153
 5487POPC   GL1 9325  39.208  18.323   8.853
 5487POPC   GL2 9326  39.338  18.199   8.853
 5487POPC   C1A 9327  39.262  18.266   8.553
 5487POPC   D2A 9328  39.242  18.272   8.253
 5487POPC   C3A 9329  39.242  18.312   7.953
 5487POPC   C4A 9330  39.195  18.238   7.653
 5487POPC   C1B 9331  39.433  18.106   8.553
 5487POPC   C2B 9332  39.401  18.120   8.253
 5487POPC   C3B 9333  39.436  18.111   7.953
 5487POPC   C4B 9334  39.367  18.074   7.653
 5488POPC   NC3 9335   9.020  29.896   9.453
 5488POPC   PO4 9336   8.968  29.932   9.153
 5488POPC   GL1 9337   8.924  29.956   8.853
 5488POPC   GL2 9338   8.993  30.061   8.853
 5488POPC   C1A 9339   8.987  29.941   8.553
 5488POPC   D2A 9340   9.000  29.931   8.253
 5488POPC   C3A 9341   9.015  29.943   7.953
 5488POPC   C4A 9342   9.021  29.966   7.653
 5488POPC   C1B 9343   9.030  30.142   8.553
 5488POPC   C2B 9344   9.078  30.186   8.253
 5488POPC   C3B 9345   9.016  30.137   7.953
 5488POPC   C4B 9346   9.030  30.111   7.653
 5489POPC   NC3 9347  15.932  37.685   9.453
 5489POPC   PO4 9348  15.980  37.642   9.153
 5489POPC   GL1 9349  15.980  37.727   8.853
 5489POPC   GL2 9350  15.874  37.615   8.853
 5489POPC   C1A 9351  16.000  37.682   8.553
 5489POPC   D2A 9352  15.997  37.656   8.253
 5489POPC   C3A 9353  15.951  37.694   7.953
 5489POPC   C4A 9354  15.986  37.700   7.653
 5489POPC   C1B 9355  15.697  37.553   8.553
 5489POPC   C2B 9356  15.737  37.536   8.253
 5489POPC   C3B 9357  15.711  37.600   7.953
 5489POPC   C4B 9358  15.740  37.583   7.653
 5490POPC   NC3 9359  19.069  29.925   9.453
 5490POPC   PO4 9360  19.029  29.921   9.153
 5490POPC   GL1 9361  19.082  29.963   8.853
 5490POPC   GL2 9362  19.006  30.044   8.853
 5490POPC   C1A 9363  19.044  29.884   8.553
 5490POPC   D2A 9364  19.028  29.875   8.253
 5490POPC   C3A 9365  19.024  29.948   7.953
 5490POPC   C4A 9366  19.022  29.898   7.653
 5490POPC   C1B 9367  19.041  30.212   8.553
 5490POPC   C2B 9368  19.063  30.173   8.253
 5490POPC   C3B 9369  19.072  30.161   7.953
 5490POPC   C4B 9370  19.071  30.133   7.653
 5491POPC   NC3 9371  20.621  21.341   9.453
 5491POPC   PO4 9372  20.575  21.338   9.153
 5491POPC   GL1 9373  20.570  21.352   8.853
 5491POPC   GL2 9374  20.693  21.287   8.853
 5491POPC   C1A 9375  20.564  21.392   8.553
 5491POPC   D2A 9376  20.596  21.416   8.253
 5491POPC   C3A 9377  20.569  21.388   7.953
 5491POPC   C4A 9378  20.649  21.351   7.653
 5491POPC   C1B 9379  20.774  21.144   8.553
 5491POPC   C2B 9380  20.702  21.189   8.253
 5491POPC   C3B 9381  20.738  21.189   7.953
 5491POPC   C4B 9382  20.677  21.168   7.653
 5492POPC   NC3 9383  35.396   8.167   9.453
 5492POPC   PO4 9384  35.354   8.223   9.153
 5492POPC   GL1 9385  35.398   8.183   8.853
 5492POPC   GL2 9386  35.201   8.155   8.853
 5492POPC   C1A 9387  35.322   8.212   8.553
 5492POPC   D2A 9388  35.357   8.164   8.253
 5492POPC   C3A 9389  35.338   8.180   7.953
 5492POPC   C4A 9390  35.304   8.217   7.653
 5492POPC   C1B 9391  35.067   8.146   8.553
 5492POPC   C2B 9392  35.084   8.173   8.253
 5492POPC   C3B 9393  35.129   8.192   7.953
 5492POPC   C4B 9394  35.057   8.222   7.653
 5493POPC   NC3 9395  29.922   8.198   9.453
 5493POPC   PO4 9396  29.911   8.202   9.153
 5493POPC   GL1 9397  29.962   8.233   8.853
 5493POPC   GL2 9398  29.824   8.252   8.853
 5493POPC   C1A 9399  29.960   8.186   8.553
 5493POPC   D2A 9400  29.970   8.186   8.253
 5493POPC   C3A 9401  29.876   8.224   7.953
 5493POPC   C4A 9402  29.890   8.188   7.653
 5493POPC   C1B 9403  29.668   8.204   8.553
 5493POPC   C2B 9404  29.678   8.255   8.253
 5493POPC   C3B 9405  29.678   8.260   7.953
 5493POPC   C4B 9406  29.693   8.261   7.653
 5494POPC   NC3 9407  42.350  22.889   9.453
 5494POPC   PO4 9408  42.311  22.895   9.153
 5494POPC   GL1 9409  42.328  22.954   8.853
 5494POPC   GL2 9410  42.498  22.892   8.853
 5494POPC   C1A 9411  42.336  22.942   8.553
 5494POPC   D2A 9412  42.383  22.928   8.253
 5494POPC   C3A 9413  42.345  22.939   7.953
 5494POPC   C4A 9414  42.384  22.921   7.653
 5494POPC   C1B 9415  42.623  22.876   8.553
 5494POPC   C2B 9416  42.620  22.899   8.253
 5494POPC   C3B 9417  42.555  22.940   7.953
 5494POPC   C4B 9418  42.567  22.925   7.653
 5495POPC   NC3 9419  19.087  37.638   9.453
 5495POPC   PO4 9420  19.024  37.638   9.153
 5495POPC   GL1 9421  19.014  37.669   8.853
 5495POPC   GL2 9422  19.109  37.585   8.853
 5495POPC   C1A 9423  19.023  37.722   8.553
 5495POPC   D2A 9424  19.019  37.711   8.253
 5495POPC   C3A 9425  19.026  37.700   7.953
 5495POPC   C4A 9426  19.054  37.644   7.653
 5495POPC   C1B 9427  19.184  37.417   8.553
 5495POPC   C2B 9428  19.211  37.501   8.253
 5495POPC   C3B 9429  19.162  37.450   7.953
 5495POPC   C4B 9430  19.199  37.475   7.653
 5496POPC   NC3 9431  26.786  41.582   9.453
 5496POPC   PO4 9432  26.787  41.554   9.153
 5496POPC   GL1 9433  26.853  41.523   8.853
 5496POPC   GL2 9434  26.703  41.517   8.853
 5496POPC   C1A 9435  26.768  41.563   8.553
 5496POPC   D2A 9436  26.838  41.528   8.253
 5496POPC   C3A 9437  26.856  41.556   7.953
 5496POPC   C4A 9438  26.776  41.514   7.653
 5496POPC   C1B 9439  26.552  41.489   8.553
 5496POPC   C2B 9440  26.528  41.467   8.253
 5496POPC   C3B 9441  26.537  41.498   7.953
 5496POPC   C4B 9442  26.569  41.485   7.653
 5497POPC   NC3 9443  42.380  19.850   9.453
 5497POPC   PO4 9444  42.316  19.859   9.153
 5497POPC   GL1 9445  42.336  19.848   8.853
 5497POPC   GL2 9446  42.163  19.776   8.853
 5497POPC   C1A 9447  42.326  19.862   8.553
 5497POPC   D2A 9448  42.345  19.805   8.253
 5497POPC   C3A 9449  42.368  19.814   7.953
 5497POPC   C4A 9450  42.377  19.819   7.653
 5497POPC   C1B 9451  42.082  19.814   8.553
 5497POPC   C2B 9452  42.060  19.798   8.253
 5497POPC   C3B 9453  42.091  19.827   7.953
 5497POPC   C4B 9454  42.123  19.813   7.653
 5498POPC   NC3 9455  27.610  12.827   9.453
 5498POPC   PO4 9456  27.557  12.851   9.153
 5498POPC   GL1 9457  27.627  12.819   8.853
 5498POPC   GL2 9458  27.692  12.718   8.853
 5498POPC   C1A 9459  27.626  12.875   8.553
 5498POPC   D2A 9460  27.597  12.882   8.253
 5498POPC   C3A 9461  27.627  12.808   7.953
 5498POPC   C4A 9462  27.548  12.894   7.653
 5498POPC   C1B 9463  27.711  12.625   8.553
 5498POPC   C2B 9464  27.686  12.607   8.253
 5498POPC   C3B 9465  27.669  12.611   7.953
 5498POPC   C4B 9466  27.718  12.635   7.653
 5499POPC   NC3 9467  40.783  31.458   9.453
 5499POPC   PO4 9468  40.772  31.428   9.153
 5499POPC   GL1 9469  40.745  31.495   8.853
 5499POPC   GL2 9470  40.695  31.561   8.853
 5499POPC   C1A 9471  40.778  31.495   8.553
 5499POPC   D2A 9472  40.746  31.507   8.253
 5499POPC   C3A 9473  40.796  31.466   7.953
 5499POPC   C4A 9474  40.746  31.433   7.653
 5499POPC   C1B 9475  40.631  31.658   8.553
 5499POPC   C2B 9476  40.576  31.643   8.253
 5499POPC   C3B 9477  40.632  31.594   7.953
 5499POPC   C4B 9478  40.599  31.645   7.653
 5500POPC   NC3 9479   1.943   4.335   9.453
 5500POPC   PO4 9480   2.023   4.278   9.153
 5500POPC   GL1 9481   1.954   4.342   8.853
 5500POPC   GL2 9482   1.956   4.442   8.853
 5500POPC   C1A 9483   1.944   4.346   8.553
 5500POPC   D2A 9484   1.975   4.313   8.253
 5500POPC   C3A 9485   1.976   4.274   7.953
 5500POPC   C4A 9486   1.971   4.316   7.653
 5500POPC   C1B 9487   1.923   4.570   8.553
 5500POPC   C2B 9488   1.840   4.543   8.253
 5500POPC   C3B 9489   1.903   4.564   7.953
 5500POPC   C4B 9490   1.878   4.526   7.653
 5501POPC   NC3 9491  12.070  43.838   9.453
 5501POPC   PO4 9492  12.111  43.890   9.153
 5501POPC   GL1 9493  12.080  43.917   8.853
 5501POPC   GL2 9494  12.242  43.890   8.853
 5501POPC   C1A 9495  12.028  43.909   8.553
 5501POPC   D2A 9496  12.069  43.843   8.253
 5501POPC   C3A 9497  12.032  43.934   7.953
 5501POPC   C4A 9498  12.123  43.931   7.653
 5501POPC   C1B 9499  12.353  43.958   8.553
 5501POPC   C2B 9500  12.317  43.966   8.253
 5501POPC   C3B 9501  12.275  43.950   7.953
 5501POPC   C4B 9502  12.340  43.975   7.653
 5502POPC   NC3 9503   7.461  30.703   9.453
 5502POPC   PO4 9504   7.378  30.731   9.153
 5502POPC   GL1 9505   7.392  30.712   8.853
 5502POPC   GL2 9506   7.272  30.687   8.853
 5502POPC   C1A 9507   7.444  30.663   8.553
 5502POPC   D2A 9508   7.386  30.653   8.253
 5502POPC   C3A 9509   7.429  30.699   7.953
 5502POPC   C4A 9510   7.435  30.734   7.653
 5502POPC   C1B 9511   7.218  30.726   8.553
 5502POPC   C2B 9512   7.134  30.760   8.253
 5502POPC   C3B 9513   7.200  30.751   7.953
 5502POPC   C4B 9514   7.126  30.697   7.653
 5503POPC   NC3 9515   8.192  29.190   9.453
 5503POPC   PO4 9516   8.172  29.189   9.153
 5503POPC   GL1 9517   8.166  29.150   8.853
 5503POPC   GL2 9518   8.067  29.187   8.853
 5503POPC   C1A 9519   8.181  29.137   8.553
 5503POPC   D2A 9520   8.243  29.189   8.253
 5503POPC   C3A 9521   8.244  29.167   7.953
 5503POPC   C4A 9522   8.158  29.133   7.653
 5503POPC   C1B 9523   7.980  29.286   8.553
 5503POPC   C2B 9524   7.967  29.220   8.253
 5503POPC   C3B 9525   7.985  29.243   7.953
 5503POPC   C4B 9526   7.972  29.212   7.653
 5504POPC   NC3 9527   9.796  23.687   9.453
 5504POPC   PO4 9528   9.746  23.733   9.153
 5504POPC   GL1 9529   9.789  23.713   8.853
 5504POPC   GL2 9530   9.634  23.771   8.853
 5504POPC   C1A 9531   9.757  23.686   8.553
 5504POPC   D2A 9532   9.752  23.685   8.253
 5504POPC   C3A 9533   9.787  23.700   7.953
 5504POPC   C4A 9534   9.797  23.758   7.653
 5504POPC   C1B 9535   9.573  23.937   8.553
 5504POPC   C2B 9536   9.545  23.868   8.253
 5504POPC   C3B 9537   9.570  23.915   7.953
 5504POPC   C4B 9538   9.532  23.941   7.653
 5505POPC   NC3 9539  12.029   5.848   9.453
 5505POPC   PO4 9540  12.057   5.915   9.153
 5505POPC   GL1 9541  12.066   5.833   8.853
 5505POPC   GL2 9542  11.932   5.839   8.853
 5505POPC   C1A 9543  12.085   5.861   8.553
 5505POPC   D2A 9544  12.077   5.830   8.253
 5505POPC   C3A 9545  12.070   5.871   7.953
 5505POPC   C4A 9546  12.028   5.846   7.653
 5505POPC   C1B 9547  11.840   5.725   8.553
 5505POPC   C2B 9548  11.883   5.682   8.253
 5505POPC   C3B 9549  11.875   5.700   7.953
 5505POPC   C4B 9550  11.860   5.756   7.653
 5506POPC   NC3 9551  19.802  27.585   9.453
 5506POPC   PO4 9552  19.865  27.549   9.153
 5506POPC   GL1 9553  19.841  27.569   8.853
 5506POPC   GL2 9554  19.938  27.697   8.853
 5506POPC   C1A 9555  19.850  27.580   8.553
 5506POPC   D2A 9556  19.810  27.634   8.253
 5506POPC   C3A 9557  19.848  27.573   7.953
 5506POPC   C4A 9558  19.819  27.606   7.653
 5506POPC   C1B 9559  20.013  27.770   8.553
 5506POPC   C2B 9560  19.987  27.789   8.253
 5506POPC   C3B 9561  20.019  27.758   7.953
 5506POPC   C4B 9562  19.997  27.777   7.653
 5507POPC   NC3 9563   5.133  39.198   9.453
 5507POPC   PO4 9564   5.100  39.218   9.153
 5507POPC   GL1 9565   5.130  39.209   8.853
 5507POPC   GL2 9566   5.242  39.224   8.853
 5507POPC   C1A 9567   5.104  39.217   8.553
 5507POPC   D2A 9568   5.084  39.233   8.253
 5507POPC   C3A 9569   5.067  39.251   7.953
 5507POPC   C4A 9570   5.087  39.271   7.653
 5507POPC   C1B 9571   5.305  39.335   8.553
 5507POPC   C2B 9572   5.363  39.335   8.253
 5507POPC   C3B 9573   5.378  39.251   7.953
 5507POPC   C4B 9574   5.344  39.298   7.653
 5508POPC   NC3 9575  22.983  30.688   9.453
 5508POPC   PO4 9576  22.956  30.716   9.153
 5508POPC   GL1 9577  22.917  30.685   8.853
 5508POPC   GL2 9578  23.050  30.675   8.853
 5508POPC   C1A 9579  22.894  30.680   8.553
 5508POPC   D2A 9580  22.894  30.674   8.253
 5508POPC   C3A 9581  22.927  30.702   7.953
 5508POPC   C4A 9582  22.907  30.693   7.653
 5508POPC   C1B 9583  23.131  30.654   8.553
 5508POPC   C2B 9584  23.180  30.576   8.253
 5508POPC   C3B 9585  23.133  30.653   7.953
 5508POPC   C4B 9586  23.155  30.647   7.653
 5509POPC   NC3 9587  38.460   9.768   9.453
 5509POPC   PO4 9588  38.428   9.723   9.153
 5509POPC   GL1 9589  38.501   9.755   8.853
 5509POPC   GL2 9590  38.419   9.659   8.853
 5509POPC   C1A 9591  38.428   9.740   8.553
 5509POPC   D2A 9592  38.486   9.709   8.253
 5509POPC   C3A 9593  38.419   9.739   7.953
 5509POPC   C4A 9594  38.461   9.762   7.653
 5509POPC   C1B 9595  38.490   9.534   8.553
 5509POPC   C2B 9596  38.515   9.471   8.253
 5509POPC   C3B 9597  38.470   9.454   7.953
 5509POPC   C4B 9598  38.457   9.489   7.653
 5510POPC   NC3 9599  18.318   1.240   9.453
 5510POPC   PO4 9600  18.254   1.202   9.153
 5510POPC   GL1 9601  18.240   1.228   8.853
 5510POPC   GL2 9602  18.329   1.383   8.853
 5510POPC   C1A 9603  18.239   1.223   8.553
 5510POPC   D2A 9604  18.276   1.262   8.253
 5510POPC   C3A 9605  18.249   1.214   7.953
 5510POPC   C4A 9606  18.258   1.253   7.653
 5510POPC   C1B 9607  18.278   1.494   8.553
 5510POPC   C2B 9608  18.353   1.431   8.253
 5510POPC   C3B 9609  18.308   1.456   7.953
 5510POPC   C4B 9610  18.281   1.504   7.653
 5511POPC   NC3 9611   9.764   1.966   9.453
 5511POPC   PO4 9612   9.701   2.027   9.153
 5511POPC   GL1 9613   9.770   2.006   8.853
 5511POPC   GL2 9614   9.624   1.859   8.853
 5511POPC   C1A 9615   9.709   2.033   8.553
 5511POPC   D2A 9616   9.777   1.968   8.253
 5511POPC   C3A 9617   9.708   2.030   7.953
 5511POPC   C4A 9618   9.796   2.031   7.653
 5511POPC   C1B 9619   9.614   1.820   8.553
 5511POPC   C2B 9620   9.541   1.770   8.253
 5511POPC   C3B 9621   9.541   1.839   7.953
 5511POPC   C4B 9622   9.565   1.832   7.653
 5512POPC   NC3 9623   0.458  40.757   9.453
 5512POPC   PO4 9624   0.421  40.758   9.153
 5512POPC   GL1 9625   0.483  40.756   8.853
 5512POPC   GL2 9626   0.505  40.714   8.853
 5512POPC   C1A 9627   0.459  40.830   8.553
 5512POPC   D2A 9628   0.392  40.807   8.253
 5512POPC   C3A 9629   0.466  40.767   7.953
 5512POPC   C4A 9630   0.454  40.753   7.653
 5512POPC   C1B 9631   0.540  40.519   8.553
 5512POPC   C2B 9632   0.494  40.557   8.253
 5512POPC   C3B 9633   0.553  40.510   7.953
 5512POPC   C4B 9634   0.500  40.588   7.653
 5513POPC   NC3 9635  43.913  37.687   9.453
 5513POPC   PO4 9636  43.892  37.669   9.153
 5513POPC   GL1 9637  43.906  37.689   8.853
 5513POPC   GL2 9638  43.941  37.773   8.853
 5513POPC   C1A 9639  43.916  37.676   8.553
 5513POPC   D2A 9640  43.902  37.686   8.253
 5513POPC   C3A 9641  43.891  37.635   7.953
 5513POPC   C4A 9642  43.888  37.683   7.653
 5513POPC   C1B 9643  43.939  37.895   8.553
 5513POPC   C2B 9644  43.910  37.905   8.253
 5513POPC   C3B 9645  43.954  37.927   7.953
 5513POPC   C4B 9646  43.951  37.892   7.653
 5514POPC   NC3 9647  23.683  12.046   9.453
 5514POPC   PO4 9648  23.751  12.051   9.153
 5514POPC   GL1 9649  23.734  12.038   8.853
 5514POPC   GL2 9650  23.627  12.015   8.853
 5514POPC   C1A 9651  23.691  12.113   8.553
 5514POPC   D2A 9652  23.737  12.067   8.253
 5514POPC   C3A 9653  23.706  12.049   7.953
 5514POPC   C4A 9654  23.733  12.035   7.653
 5514POPC   C1B 9655  23.477  12.032   8.553
 5514POPC   C2B 9656  23.468  12.020   8.253
 5514POPC   C3B 9657  23.500  11.986   7.953
 5514POPC   C4B 9658  23.450  11.993   7.653
 5515POPC   NC3 9659  33.762  12.111   9.453
 5515POPC   PO4 9660  33.824  12.046   9.153
 5515POPC   GL1 9661  33.803  12.054   8.853
 5515POPC   GL2 9662  33.864  12.015   8.853
 5515POPC   C1A 9663  33.798  12.027   8.553
 5515POPC   D2A 9664  33.837  12.075   8.253
 5515POPC   C3A 9665  33.774  12.066   7.953
 5515POPC   C4A 9666  33.789  12.109   7.653
 5515POPC   C1B 9667  33.911  11.891   8.553
 5515POPC   C2B 9668  33.954  11.843   8.253
 5515POPC   C3B 9669  33.927  11.890   7.953
 5515POPC   C4B 9670  33.932  11.850   7.653
 5516POPC   NC3 9671   7.454  19.792   9.453
 5516POPC   PO4 9672   7.408  19.811   9.153
 5516POPC   GL1 9673   7.373  19.858   8.853
 5516POPC   GL2 9674   7.332  19.767   8.853
 5516POPC   C1A 9675   7.372  19.867   8.553
 5516POPC   D2A 9676   7.420  19.842   8.253
 5516POPC   C3A 9677   7.456  19.836   7.953
 5516POPC   C4A 9678   7.449  19.852   7.653
 5516POPC   C1B 9679   7.251  19.627   8.553
 5516POPC   C2B 9680   7.242  19.684   8.253
 5516POPC   C3B 9681   7.234  19.685   7.953
 5516POPC   C4B 9682   7.270  19.675   7.653
 5517POPC   NC3 9683  31.475  16.776   9.453
 5517POPC   PO4 9684  31.468  16.715   9.153
 5517POPC   GL1 9685  31.452  16.727   8.853
 5517POPC   GL2 9686  31.497  16.657   8.853
 5517POPC   C1A 9687  31.496  16.730   8.553
 5517POPC   D2A 9688  31.457  16.755   8.253
 5517POPC   C3A 9689  31.522  16.684   7.953
 5517POPC   C4A 9690  31.457  16.725   7.653
 5517POPC   C1B 9691  31.610  16.507   8.553
 5517POPC   C2B 9692  31.608  16.538   8.253
 5517POPC   C3B 9693  31.570  16.546   7.953
 5517POPC   C4B 9694  31.613  16.500   7.653
 5518POPC   NC3 9695  43.118  36.081   9.453
 5518POPC   PO4 9696  43.150  36.143   9.153
 5518POPC   GL1 9697  43.144  36.083   8.853
 5518POPC   GL2 9698  42.994  36.159   8.853
 5518POPC   C1A 9699  43.160  36.116   8.553
 5518POPC   D2A 9700  43.066  36.085   8.253
 5518POPC   C3A 9701  43.144  36.079   7.953
 5518POPC   C4A 9702  43.149  36.176   7.653
 5518POPC   C1B 9703  42.868  36.227   8.553
 5518POPC   C2B 9704  42.824  36.194   8.253
 5518POPC   C3B 9705  42.881  36.162   7.953
 5518POPC   C4B 9706  42.884  36.149   7.653
 5519POPC   NC3 9707  17.502  36.923   9.453
 5519POPC   PO4 9708  17.521  36.910   9.153
 5519POPC   GL1 9709  17.525  36.858   8.853
 5519POPC   GL2 9710  17.456  36.864   8.853
 5519POPC   C1A 9711  17.487  36.885   8.553
 5519POPC   D2A 9712  17.533  36.870   8.253
 5519POPC   C3A 9713  17.515  36.929   7.953
 5519POPC   C4A 9714  17.475  36.893   7.653
 5519POPC   C1B 9715  17.326  36.701   8.553
 5519POPC   C2B 9716  17.310  36.693   8.253
 5519POPC   C3B 9717  17.353  36.707   7.953
 5519POPC   C4B 9718  17.361  36.711   7.653
 5520POPC   NC3 9719   7.405  12.806   9.453
 5520POPC   PO4 9720   7.424  12.823   9.153
 5520POPC   GL1 9721   7.432  12.883   8.853
 5520POPC   GL2 9722   7.424  12.756   8.853
 5520POPC   C1A 9723   7.382  12.862   8.553
 5520POPC   D2A 9724   7.445  12.890   8.253
 5520POPC   C3A 9725   7.406  12.817   7.953
 5520POPC   C4A 9726   7.427  12.857   7.653
 5520POPC   C1B 9727   7.422  12.643   8.553
 5520POPC   C2B 9728   7.351  12.634   8.253
 5520POPC   C3B 9729   7.368  12.581   7.953
 5520POPC   C4B 9730   7.440  12.563   7.653
 5521POPC   NC3 9731  44.639  36.138   9.453
 5521POPC   PO4 9732  44.695  36.150   9.153
 5521POPC   GL1 9733  44.668  36.095   8.853
 5521POPC   GL2 9734  44.576  36.062   8.853
 5521POPC   C1A 9735  44.619  36.119   8.553
 5521POPC   D2A 9736  44.690  36.150   8.253
 5521POPC   C3A 9737  44.615  36.162   7.953
 5521POPC   C4A 9738  44.670  36.165   7.653
 5521POPC   C1B 9739  44.536  35.886   8.553
 5521POPC   C2B 9740  44.557  35.966   8.253
 5521POPC   C3B 9741  44.492  35.963   7.953
 5521POPC   C4B 9742  44.513  35.899   7.653
 5522POPC   NC3 9743   5.105  38.487   9.453
 5522POPC   PO4 9744   5.126  38.477   9.153
 5522POPC   GL1 9745   5.066  38.471   8.853
 5522POPC   GL2 9746   5.186  38.527   8.853
 5522POPC   C1A 9747   5.048  38.452   8.553
 5522POPC   D2A 9748   5.054  38.447   8.253
 5522POPC   C3A 9749   5.113  38.453   7.953
 5522POPC   C4A 9750   5.071  38.457   7.653
 5522POPC   C1B 9751   5.279  38.613   8.553
 5522POPC   C2B 9752   5.257  38.630   8.253
 5522POPC   C3B 9753   5.239  38.659   7.953
 5522POPC   C4B 9754   5.272  38.663   7.653
 5523POPC   NC3 9755  22.914  16.772   9.453
 5523POPC   PO4 9756  22.906  16.702   9.153
 5523POPC   GL1 9757  22.955  16.775   8.853
 5523POPC   GL2 9758  22.856  16.786   8.853
 5523POPC   C1A 9759  22.897  16.691   8.553
 5523POPC   D2A 9760  22.930  16.777   8.253
 5523POPC   C3A 9761  22.971  16.691   7.953
 5523POPC   C4A 9762  22.895  16.759   7.653
 5523POPC   C1B 9763  22.739  16.807   8.553
 5523POPC   C2B 9764  22.736  16.840   8.253
 5523POPC   C3B 9765  22.692  16.817   7.953
 5523POPC   C4B 9766  22.711  16.829   7.653
 5524POPC   NC3 9767  42.366  18.233   9.453
 5524POPC   PO4 9768  42.315  18.246   9.153
 5524POPC   GL1 9769  42.348  18.298   8.853
 5524POPC   GL2 9770  42.497  18.217   8.853
 5524POPC   C1A 9771  42.380  18.264   8.553
 5524POPC   D2A 9772  42.352  18.287   8.253
 5524POPC   C3A 9773  42.310  18.302   7.953
 5524POPC   C4A 9774  42.372  18.321   7.653
 5524POPC   C1B 9775  42.581  18.219   8.553
 5524POPC   C2B 9776  42.610  18.250   8.253
 5524POPC   C3B 9777  42.558  18.246   7.953
 5524POPC   C4B 9778  42.589  18.218   7.653
 5525POPC   NC3 9779   1.252   6.634   9.453
 5525POPC   PO4 9780   1.202   6.658   9.153
 5525POPC   GL1 9781   1.234   6.658   8.853
 5525POPC   GL2 9782   1.193   6.769   8.853
 5525POPC   C1A 9783   1.256   6.672   8.553
 5525POPC   D2A 9784   1.263   6.607   8.253
 5525POPC   C3A 9785   1.245   6.639   7.953
 5525POPC   C4A 9786   1.202   6.659   7.653
 5525POPC   C1B 9787   1.146   6.895   8.553
 5525POPC   C2B 9788   1.089   6.909   8.253
 5525POPC   C3B 9789   1.131   6.897   7.953
 5525POPC   C4B 9790   1.164   6.873   7.653
 5526POPC   NC3 9791   1.259   2.725   9.453
 5526POPC   PO4 9792   1.217   2.802   9.153
 5526POPC   GL1 9793   1.168   2.757   8.853
 5526POPC   GL2 9794   1.289   2.838   8.853
 5526POPC   C1A 9795   1.261   2.811   8.553
 5526POPC   D2A 9796   1.231   2.770   8.253
 5526POPC   C3A 9797   1.204   2.740   7.953
 5526POPC   C4A 9798   1.227   2.777   7.653
 5526POPC   C1B 9799   1.238   2.968   8.553
 5526POPC   C2B 9800   1.299   3.025   8.253
 5526POPC   C3B 9801   1.236   2.963   7.953
 5526POPC   C4B 9802   1.317   3.008   7.653
 5527POPC   NC3 9803   5.065  12.117   9.453
 5527POPC   PO4 9804   5.120  12.098   9.153
 5527POPC   GL1 9805   5.049  12.123   8.853
 5527POPC   GL2 9806   5.226  12.197   8.853
 5527POPC   C1A 9807   5.088  12.070   8.553
 5527POPC   D2A 9808   5.088  12.125   8.253
 5527POPC   C3A 9809   5.098  12.034   7.953
 5527POPC   C4A 9810   5.093  12.092   7.653
 5527POPC   C1B 9811   5.310  12.213   8.553
 5527POPC   C2B 9812   5.276  12.224   8.253
 5527POPC   C3B 9813   5.217  12.248   7.953
 5527POPC   C4B 9814   5.230  12.276   7.653
 5528POPC   NC3 9815   0.424  37.667   9.453
 5528POPC   PO4 9816   0.466  37.714   9.153
 5528POPC   GL1 9817   0.478  37.666   8.853
 5528POPC   GL2 9818   0.597  37.699   8.853
 5528POPC   C1A 9819   0.433  37.697   8.553
 5528POPC   D2A 9820   0.459  37.689   8.253
 5528POPC   C3A 9821   0.438  37.665   7.953
 5528POPC   C4A 9822   0.487  37.677   7.653
 5528POPC   C1B 9823   0.706  37.811   8.553
 5528POPC   C2B 9824   0.717  37.760   8.253
 5528POPC   C3B 9825   0.635  37.729   7.953
 5528POPC   C4B 9826   0.684  37.810   7.653
 5529POPC   NC3 9827  31.496  36.915   9.453
 5529POPC   PO4 9828  31.500  36.931   9.153
 5529POPC   GL1 9829  31.498  36.925   8.853
 5529POPC   GL2 9830  31.392  36.947   8.853
 5529POPC   C1A 9831  31.466  36.899   8.553
 5529POPC   D2A 9832  31.467  36.947   8.253
 5529POPC   C3A 9833  31.440  36.862   7.953
 5529POPC   C4A 9834  31.470  36.907   7.653
 5529POPC   C1B 9835  31.215  36.988   8.553
 5529POPC   C2B 9836  31.225  37.027   8.253
 5529POPC   C3B 9837  31.213  36.997   7.953
 5529POPC   C4B 9838  31.245  36.968   7.653
 5530POPC   NC3 9839  35.365  17.499   9.453
 5530POPC   PO4 9840  35.320  17.515   9.153
 5530POPC   GL1 9841  35.353  17.492   8.853
 5530POPC   GL2 9842  35.510  17.542   8.853
 5530POPC   C1A 9843  35.399  17.555   8.553
 5530POPC   D2A 9844  35.322  17.556   8.253
 5530POPC   C3A 9845  35.361  17.529   7.953
 5530POPC   C4A 9846  35.343  17.460   7.653
 5530POPC   C1B 9847  35.581  17.467   8.553
 5530POPC   C2B 9848  35.634  17.479   8.253
 5530POPC   C3B 9849  35.629  17.545   7.953
 5530POPC   C4B 9850  35.581  17.516   7.653
 5531POPC   NC3 9851   1.962   9.761   9.453
 5531POPC   PO4 9852   2.038   9.782   9.153
 5531POPC   GL1 9853   1.942   9.709   8.853
 5531POPC   GL2 9854   2.113   9.757   8.853
 5531POPC   C1A 9855   2.022   9.742   8.553
 5531POPC   D2A 9856   1.965   9.737   8.253
 5531POPC   C3A 9857   2.020   9.764   7.953
 5531POPC   C4A 9858   2.000   9.789   7.653
 5531POPC   C1B 9859   2.226   9.769   8.553
 5531POPC   C2B 9860   2.218   9.796   8.253
 5531POPC   C3B 9861   2.227   9.829   7.953
 5531POPC   C4B 9862   2.182   9.820   7.653
 5532POPC   NC3 9863  29.884  28.417   9.453
 5532POPC   PO4 9864  29.955  28.404   9.153
 5532POPC   GL1 9865  29.966  28.328   8.853
 5532POPC   GL2 9866  30.017  28.514   8.853
 5532POPC   C1A 9867  29.886  28.362   8.553
 5532POPC   D2A 9868  29.902  28.342   8.253
 5532POPC   C3A 9869  29.889  28.341   7.953
 5532POPC   C4A 9870  29.944  28.322   7.653
 5532POPC   C1B 9871  30.029  28.566   8.553
 5532POPC   C2B 9872  30.074  28.621   8.253
 5532POPC   C3B 9873  30.034  28.611   7.953
 5532POPC   C4B 9874  30.028  28.584   7.653
 5533POPC   NC3 9875  33.765  29.947   9.453
 5533POPC   PO4 9876  33.839  29.889   9.153
 5533POPC   GL1 9877  33.831  29.960   8.853
 5533POPC   GL2 9878  33.918  29.874   8.853
 5533POPC   C1A 9879  33.828  29.936   8.553
 5533POPC   D2A 9880  33.792  29.969   8.253
 5533POPC   C3A 9881  33.780  29.876   7.953
 5533POPC   C4A 9882  33.771  29.930   7.653
 5533POPC   C1B 9883  34.031  29.861   8.553
 5533POPC   C2B 9884  34.009  29.830   8.253
 5533POPC   C3B 9885  34.057  29.837   7.953
 5533POPC   C4B 9886  34.014  29.867   7.653
 5534POPC   NC3 9887   8.163  12.101   9.453
 5534POPC   PO4 9888   8.174  12.066   9.153
 5534POPC   GL1 9889   8.153  12.032   8.853
 5534POPC   GL2 9890   8.207  12.157   8.853
 5534POPC   C1A 9891   8.221  12.051   8.553
 5534POPC   D2A 9892   8.217  12.039   8.253
 5534POPC   C3A 9893   8.164  12.072   7.953
 5534POPC   C4A 9894   8.213  12.095   7.653
 5534POPC   C1B 9895   8.203  12.364   8.553
 5534POPC   C2B 9896   8.235  12.371   8.253
 5534POPC   C3B 9897   8.197  12.306   7.953
 5534POPC   C4B 9898   8.244  12.309   7.653
 5535POPC   NC3 9899  23.748  20.608   9.453
 5535POPC   PO4 9900  23.733  20.619   9.153
 5535POPC   GL1 9901  23.738  20.640   8.853
 5535POPC   GL2 9902  23.760  20.513   8.853
 5535POPC   C1A 9903  23.679  20.604   8.553
 5535POPC   D2A 9904  23.703  20.656   8.253
 5535POPC   C3A 9905  23.670  20.579   7.953
 5535POPC   C4A 9906  23.754  20.618   7.653
 5535POPC   C1B 9907  23.781  20.350   8.553
 5535POPC   C2B 9908  23.765  20.355   8.253
 5535POPC   C3B 9909  23.722  20.376   7.953
 5535POPC   C4B 9910  23.803  20.353   7.653
 5536POPC   NC3 9911   6.690  29.926   9.453
 5536POPC   PO4 9912   6.616  29.945   9.153
 5536POPC   GL1 9913   6.600  29.872   8.853
 5536POPC   GL2 9914   6.727  29.986   8.853
 5536POPC   C1A 9915   6.664  29.939   8.553
 5536POPC   D2A 9916   6.651  29.954   8.253
 5536POPC   C3A 9917   6.684  29.890   7.953
 5536POPC   C4A 9918   6.596  29.915   7.653
 5536POPC   C1B 9919   6.906  30.028   8.553
 5536POPC   C2B 9920   6.891  30.041   8.253
 5536POPC   C3B 9921   6.896  29.967   7.953
 5536POPC   C4B 9922   6.896  29.992   7.653
 5537POPC   NC3 9923  44.686  39.272   9.453
 5537POPC   PO4 9924  44.657  39.218   9.153
 5537POPC   GL1 9925  44.631  39.230   8.853
 5537POPC   GL2 9926  44.635  39.128   8.853
 5537POPC   C1A 9927  44.650  39.254   8.553
 5537POPC   D2A 9928  44.645  39.228   8.253
 5537POPC   C3A 9929  44.702  39.226   7.953
 5537POPC   C4A 9930  44.641  39.268   7.653
 5537POPC   C1B 9931  44.509  38.995   8.553
 5537POPC   C2B 9932  44.497  39.026   8.253
 5537POPC   C3B 9933  44.490  39.067   7.953
 5537POPC   C4B 9934  44.528  39.062   7.653
 5538POPC   NC3 9935  31.447  26.004   9.453
 5538POPC   PO4 9936  31.430  25.997   9.153
 5538POPC   GL1 9937  31.438  26.033   8.853
 5538POPC   GL2 9938  31.390  26.062   8.853
 5538POPC   C1A 9939  31.463  26.056   8.553
 5538POPC   D2A 9940  31.507  26.059   8.253
 5538POPC   C3A 9941  31.459  26.063   7.953
 5538POPC   C4A 9942  31.479  26.088   7.653
 5538POPC   C1B 9943  31.270  26.081   8.553
 5538POPC   C2B 9944  31.188  26.112   8.253
 5538POPC   C3B 9945  31.202  26.034   7.953
 5538POPC   C4B 9946  31.189  26.085   7.653
 5539POPC   NC3 9947  42.317  24.455   9.453
 5539POPC   PO4 9948  42.384  24.470   9.153
 5539POPC   GL1 9949  42.313  24.482   8.853
 5539POPC   GL2 9950  42.306  24.617   8.853
 5539POPC   C1A 9951  42.350  24.447   8.553
 5539POPC   D2A 9952  42.373  24.521   8.253
 5539POPC   C3A 9953  42.359  24.509   7.953
 5539POPC   C4A 9954  42.352  24.507   7.653
 5539POPC   C1B 9955  42.318  24.716   8.553
 5539POPC   C2B 9956  42.337  24.725   8.253
 5539POPC   C3B 9957  42.335  24.708   7.953
 5539POPC   C4B 9958  42.359  24.736   7.653
 5540POPC   NC3 9959  43.149  40.012   9.453
 5540POPC   PO4 9960  43.126  39.976   9.153
 5540POPC   GL1 9961  43.119  39.993   8.853
 5540POPC   GL2 9962  43.202  39.972   8.853
 5540POPC   C1A 9963  43.084  40.004   8.553
 5540POPC   D2A 9964  43.105  40.026   8.253
 5540POPC   C3A 9965  43.153  39.961   7.953
 5540POPC   C4A 9966  43.104  40.047   7.653
 5540POPC   C1B 9967  43.351  39.904   8.553
 5540POPC   C2B 9968  43.307  39.979   8.253
 5540POPC   C3B 9969  43.311  39.958   7.953
 5540POPC   C4B 9970  43.300  39.970   7.653
 5541POPC   NC3 9971   4.304  43.138   9.453
 5541POPC   PO4 9972   4.333  43.119   9.153
 5541POPC   GL1 9973   4.327  43.128   8.853
 5541POPC   GL2 9974   4.147  43.141   8.853
 5541POPC   C1A 9975   4.298  43.109   8.553
 5541POPC   D2A 9976   4.290  43.155   8.253
 5541POPC   C3A 9977   4.346  43.150   7.953
 5541POPC   C4A 9978   4.278  43.123   7.653
 5541POPC   C1B 9979   4.027  43.142   8.553
 5541POPC   C2B 9980   4.101  43.120   8.253
 5541POPC   C3B 9981   4.119  43.160   7.953
 5541POPC   C4B 9982   4.094  43.113   7.653
 5542POPC   NC3 9983  36.127  25.286   9.453
 5542POPC   PO4 9984  36.163  25.288   9.153
 5542POPC   GL1 9985  36.092  25.276   8.853
 5542POPC   GL2 9986  36.153  25.414   8.853
 5542POPC   C1A 9987  36.174  25.302   8.553
 5542POPC   D2A 9988  36.100  25.226   8.253
 5542POPC   C3A 9989  36.139  25.277   7.953
 5542POPC   C4A 9990  36.108  25.249   7.653
 5542POPC   C1B 9991  36.223  25.515   8.553
 5542POPC   C2B 9992  36.171  25.453   8.253
 5542POPC   C3B 9993  36.211  25.475   7.953
 5542POPC   C4B 9994  36.242  25.478   7.653
 5543POPC   NC3 9995  34.570  17.507   9.453
 5543POPC   PO4 9996  34.539  17.525   9.153
 5543POPC   GL1 9997  34.565  17.492   8.853
 5543POPC   GL2 9998  34.484  17.592   8.853
 5543POPC   C1A 9999  34.622  17.542   8.553
 5543POPC   D2A10000  34.604  17.524   8.253
 5543POPC   C3A10001  34.572  17.550   7.953
 5543POPC   C4A10002  34.552  17.528   7.653
 5543POPC   C1B10003  34.494  17.786   8.553
 5543POPC   C2B10004  34.501  17.768   8.253
 5543POPC   C3B10005  34.509  17.737   7.953
 5543POPC   C4B10006  34.509  17.688   7.653
 5544POPC   NC310007  42.383   8.173   9.453
 5544POPC   PO410008  42.299   8.216   9.153
 5544POPC   GL110009  42.299   8.226   8.853
 5544POPC   GL210010  42.170   8.198   8.853
 5544POPC   C1A10011  42.314   8.180   8.553
 5544POPC   D2A10012  42.324   8.221   8.253
 5544POPC   C3A10013  42.335   8.223   7.953
 5544POPC   C4A10014  42.348   8.229   7.653
 5544POPC   C1B10015  42.060   8.188   8.553
 5544POPC   C2B10016  42.079   8.188   8.253
 5544POPC   C3B10017  42.079   8.153   7.953
 5544POPC   C4B10018  42.074   8.235   7.653
 5545POPC   NC310019  36.120   5.866   9.453
 5545POPC   PO410020  36.174   5.823   9.153
 5545POPC   GL110021  36.086   5.859   8.853
 5545POPC   GL210022  36.045   6.017   8.853
 5545POPC   C1A10023  36.146   5.904   8.553
 5545POPC   D2A10024  36.133   5.831   8.253
 5545POPC   C3A10025  36.171   5.889   7.953
 5545POPC   C4A10026  36.096   5.860   7.653
 5545POPC   C1B10027  36.013   6.151   8.553
 5545POPC   C2B10028  36.071   6.054   8.253
 5545POPC   C3B10029  36.063   6.064   7.953
 5545POPC   C4B10030  36.014   6.060   7.653
 5546POPC   NC310031  44.696  24.453   9.453
 5546POPC   PO410032  44.710  24.530   9.153
 5546POPC   GL110033  44.692  24.463   8.853
 5546POPC   GL210034  44.579  24.489   8.853
 5546POPC   C1A10035  44.641  24.503   8.553
 5546POPC   D2A10036  44.671  24.534   8.253
 5546POPC   C3A10037  44.627  24.484   7.953
 5546POPC   C4A10038  44.703  24.488   7.653
 5546POPC   C1B10039  44.457  24.456   8.553
 5546POPC   C2B10040  44.389  24.508   8.253
 5546POPC   C3B10041  44.377  24.500   7.953
 5546POPC   C4B10042  44.435  24.508   7.653
 5547POPC   NC310043  40.046  34.548   9.453
 5547POPC   PO410044  40.053  34.601   9.153
 5547POPC   GL110045  39.963  34.553   8.853
 5547POPC   GL210046  40.025  34.455   8.853
 5547POPC   C1A10047  40.034  34.528   8.553
 5547POPC   D2A10048  39.967  34.585   8.253
 5547POPC   C3A10049  39.983  34.538   7.953
 5547POPC   C4A10050  40.037  34.557   7.653
 5547POPC   C1B10051  40.014  34.348   8.553
 5547POPC   C2B10052  39.992  34.296   8.253
 5547POPC   C3B10053  40.067  34.340   7.953
 5547POPC   C4B10054  39.983  34.329   7.653
 5548POPC   NC310055   8.173  34.559   9.453
 5548POPC   PO410056   8.237  34.584   9.153
 5548POPC   GL110057   8.152  34.615   8.853
 5548POPC   GL210058   8.057  34.626   8.853
 5548POPC   C1A10059   8.208  34.620   8.553
 5548POPC   D2A10060   8.212  34.574   8.253
 5548POPC   C3A10061   8.240  34.612   7.953
 5548POPC   C4A10062   8.182  34.530   7.653
 5548POPC   C1B10063   7.904  34.605   8.553
 5548POPC   C2B10064   7.961  34.654   8.253
 5548POPC   C3B10065   7.971  34.632   7.953
 5548POPC   C4B10066   7.996  34.597   7.653
 5549POPC   NC310067   6.678  34.619   9.453
 5549POPC   PO410068   6.652  34.605   9.153
 5549POPC   GL110069   6.601  34.623   8.853
 5549POPC   GL210070   6.720  34.618   8.853
 5549POPC   C1A10071   6.659  34.625   8.553
 5549POPC   D2A10072   6.682  34.587   8.253
 5549POPC   C3A10073   6.624  34.574   7.953
 5549POPC   C4A10074   6.610  34.583   7.653
 5549POPC   C1B10075   6.924  34.652   8.553
 5549POPC   C2B10076   6.854  34.600   8.253
 5549POPC   C3B10077   6.932  34.623   7.953
 5549POPC   C4B10078   6.842  34.643   7.653
 5550POPC   NC310079  36.950  36.164   9.453
 5550POPC   PO410080  36.866  36.111   9.153
 5550POPC   GL110081  36.931  36.102   8.853
 5550POPC   GL210082  36.829  36.049   8.853
 5550POPC   C1A10083  36.939  36.140   8.553
 5550POPC   D2A10084  36.876  36.139   8.253
 5550POPC   C3A10085  36.914  36.169   7.953
 5550POPC   C4A10086  36.919  36.111   7.653
 5550POPC   C1B10087  36.668  36.047   8.553
 5550POPC   C2B10088  36.631  36.040   8.253
 5550POPC   C3B10089  36.702  35.990   7.953
 5550POPC   C4B10090  36.671  36.014   7.653
 5551POPC   NC310091  15.140  28.321   9.453
 5551POPC   PO410092  15.219  28.361   9.153
 5551POPC   GL110093  15.189  28.383   8.853
 5551POPC   GL210094  15.190  28.511   8.853
 5551POPC   C1A10095  15.222  28.405   8.553
 5551POPC   D2A10096  15.199  28.371   8.253
 5551POPC   C3A10097  15.154  28.366   7.953
 5551POPC   C4A10098  15.184  28.346   7.653
 5551POPC   C1B10099  15.244  28.605   8.553
 5551POPC   C2B10100  15.232  28.565   8.253
 5551POPC   C3B10101  15.274  28.644   7.953
 5551POPC   C4B10102  15.294  28.631   7.653
 5552POPC   NC310103  28.389   6.660   9.453
 5552POPC   PO410104  28.340   6.637   9.153
 5552POPC   GL110105  28.408   6.686   8.853
 5552POPC   GL210106  28.294   6.713   8.853
 5552POPC   C1A10107  28.396   6.627   8.553
 5552POPC   D2A10108  28.415   6.690   8.253
 5552POPC   C3A10109  28.393   6.604   7.953
 5552POPC   C4A10110  28.347   6.640   7.653
 5552POPC   C1B10111  28.261   6.841   8.553
 5552POPC   C2B10112  28.257   6.798   8.253
 5552POPC   C3B10113  28.224   6.878   7.953
 5552POPC   C4B10114  28.263   6.823   7.653
 5553POPC   NC310115  40.828   5.142   9.453
 5553POPC   PO410116  40.817   5.097   9.153
 5553POPC   GL110117  40.821   5.069   8.853
 5553POPC   GL210118  40.643   5.130   8.853
 5553POPC   C1A10119  40.766   5.129   8.553
 5553POPC   D2A10120  40.805   5.076   8.253
 5553POPC   C3A10121  40.779   5.096   7.953
 5553POPC   C4A10122  40.764   5.071   7.653
 5553POPC   C1B10123  40.565   5.256   8.553
 5553POPC   C2B10124  40.550   5.193   8.253
 5553POPC   C3B10125  40.561   5.225   7.953
 5553POPC   C4B10126  40.546   5.213   7.653
 5554POPC   NC310127  19.029   3.543   9.453
 5554POPC   PO410128  19.066   3.520   9.153
 5554POPC   GL110129  19.062   3.561   8.853
 5554POPC   GL210130  19.214   3.578   8.853
 5554POPC   C1A10131  19.107   3.550   8.553
 5554POPC   D2A10132  19.088   3.507   8.253
 5554POPC   C3A10133  19.041   3.543   7.953
 5554POPC   C4A10134  19.096   3.552   7.653
 5554POPC   C1B10135  19.332   3.600   8.553
 5554POPC   C2B10136  19.344   3.567   8.253
 5554POPC   C3B10137  19.253   3.585   7.953
 5554POPC   C4B10138  19.338   3.561   7.653
 5555POPC   NC310139  43.083  33.766   9.453
 5555POPC   PO410140  43.102  33.834   9.153
 5555POPC   GL110141  43.143  33.755   8.853
 5555POPC   GL210142  43.233  33.890   8.853
 5555POPC   C1A10143  43.145  33.798   8.553
 5555POPC   D2A10144  43.095  33.759   8.253
 5555POPC   C3A10145  43.078  33.836   7.953
 5555POPC   C4A10146  43.144  33.830   7.653
 5555POPC   C1B10147  43.389  33.865   8.553
 5555POPC   C2B10148  43.361  33.899   8.253
 5555POPC   C3B10149  43.380  33.947   7.953
 5555POPC   C4B10150  43.313  33.879   7.653
 5556POPC   NC310151   5.068  19.791   9.453
 5556POPC   PO410152   5.074  19.790   9.153
 5556POPC   GL110153   5.049  19.795   8.853
 5556POPC   GL210154   5.191  19.764   8.853
 5556POPC   C1A10155   5.082  19.841   8.553
 5556POPC   D2A10156   5.044  19.842   8.253
 5556POPC   C3A10157   5.068  19.870   7.953
 5556POPC   C4A10158   5.064  19.872   7.653
 5556POPC   C1B10159   5.328  19.788   8.553
 5556POPC   C2B10160   5.345  19.731   8.253
 5556POPC   C3B10161   5.327  19.776   7.953
 5556POPC   C4B10162   5.287  19.784   7.653
 5557POPC   NC310163  29.964  39.184   9.453
 5557POPC   PO410164  29.877  39.207   9.153
 5557POPC   GL110165  29.877  39.244   8.853
 5557POPC   GL210166  30.020  39.149   8.853
 5557POPC   C1A10167  29.918  39.241   8.553
 5557POPC   D2A10168  29.919  39.197   8.253
 5557POPC   C3A10169  29.936  39.230   7.953
 5557POPC   C4A10170  29.918  39.273   7.653
 5557POPC   C1B10171  30.128  39.148   8.553
 5557POPC   C2B10172  30.143  39.132   8.253
 5557POPC   C3B10173  30.178  39.132   7.953
 5557POPC   C4B10174  30.147  39.094   7.653
 5558POPC   NC310175   2.787  33.023   9.453
 5558POPC   PO410176   2.813  33.063   9.153
 5558POPC   GL110177   2.777  32.991   8.853
 5558POPC   GL210178   2.752  33.195   8.853
 5558POPC   C1A10179   2.736  33.070   8.553
 5558POPC   D2A10180   2.799  33.045   8.253
 5558POPC   C3A10181   2.805  33.010   7.953
 5558POPC   C4A10182   2.780  33.059   7.653
 5558POPC   C1B10183   2.826  33.236   8.553
 5558POPC   C2B10184   2.842  33.257   8.253
 5558POPC   C3B10185   2.775  33.302   7.953
 5558POPC   C4B10186   2.783  33.317   7.653
 5559POPC   NC310187   8.173  11.276   9.453
 5559POPC   PO410188   8.203  11.266   9.153
 5559POPC   GL110189   8.173  11.302   8.853
 5559POPC   GL210190   8.161  11.398   8.853
 5559POPC   C1A10191   8.246  11.327   8.553
 5559POPC   D2A10192   8.179  11.332   8.253
 5559POPC   C3A10193   8.149  11.296   7.953
 5559POPC   C4A10194   8.185  11.258   7.653
 5559POPC   C1B10195   8.120  11.497   8.553
 5559POPC   C2B10196   8.035  11.492   8.253
 5559POPC   C3B10197   8.076  11.548   7.953
 5559POPC   C4B10198   8.116  11.542   7.653
 5560POPC   NC310199  22.156  30.737   9.453
 5560POPC   PO410200  22.144  30.729   9.153
 5560POPC   GL110201  22.124  30.704   8.853
 5560POPC   GL210202  22.242  30.758   8.853
 5560POPC   C1A10203  22.152  30.718   8.553
 5560POPC   D2A10204  22.199  30.744   8.253
 5560POPC   C3A10205  22.209  30.737   7.953
 5560POPC   C4A10206  22.148  30.665   7.653
 5560POPC   C1B10207  22.410  30.761   8.553
 5560POPC   C2B10208  22.436  30.784   8.253
 5560POPC   C3B10209  22.426  30.804   7.953
 5560POPC   C4B10210  22.419  30.790   7.653
 5561POPC   NC310211  26.084  24.526   9.453
 5561POPC   PO410212  26.070  24.461   9.153
 5561POPC   GL110213  26.048  24.520   8.853
 5561POPC   GL210214  25.886  24.454   8.853
 5561POPC   C1A10215  26.020  24.533   8.553
 5561POPC   D2A10216  26.022  24.521   8.253
 5561POPC   C3A10217  26.043  24.511   7.953
 5561POPC   C4A10218  26.052  24.484   7.653
 5561POPC   C1B10219  25.859  24.342   8.553
 5561POPC   C2B10220  25.789  24.344   8.253
 5561POPC   C3B10221  25.868  24.351   7.953
 5561POPC   C4B10222  25.805  24.328   7.653
 5562POPC   NC310223  41.555  26.068   9.453
 5562POPC   PO410224  41.527  26.007   9.153
 5562POPC   GL110225  41.573  26.030   8.853
 5562POPC   GL210226  41.489  25.888   8.853
 5562POPC   C1A10227  41.583  26.053   8.553
 5562POPC   D2A10228  41.584  26.087   8.253
 5562POPC   C3A10229  41.572  26.090   7.953
 5562POPC   C4A10230  41.525  26.019   7.653
 5562POPC   C1B10231  41.399  25.853   8.553
 5562POPC   C2B10232  41.399  25.830   8.253
 5562POPC   C3B10233  41.429  25.850   7.953
 5562POPC   C4B10234  41.448  25.847   7.653
 5563POPC   NC310235   0.427  41.605   9.453
 5563POPC   PO410236   0.452  41.546   9.153
 5563POPC   GL110237   0.468  41.561   8.853
 5563POPC   GL210238   0.576  41.618   8.853
 5563POPC   C1A10239   0.404  41.527   8.553
 5563POPC   D2A10240   0.418  41.580   8.253
 5563POPC   C3A10241   0.459  41.520   7.953
 5563POPC   C4A10242   0.485  41.537   7.653
 5563POPC   C1B10243   0.664  41.652   8.553
 5563POPC   C2B10244   0.645  41.666   8.253
 5563POPC   C3B10245   0.633  41.631   7.953
 5563POPC   C4B10246   0.696  41.648   7.653
 5564POPC   NC310247  31.474  14.364   9.453
 5564POPC   PO410248  31.495  14.403   9.153
 5564POPC   GL110249  31.452  14.423   8.853
 5564POPC   GL210250  31.348  14.497   8.853
 5564POPC   C1A10251  31.425  14.357   8.553
 5564POPC   D2A10252  31.512  14.398   8.253
 5564POPC   C3A10253  31.438  14.429   7.953
 5564POPC   C4A10254  31.511  14.434   7.653
 5564POPC   C1B10255  31.327  14.582   8.553
 5564POPC   C2B10256  31.250  14.566   8.253
 5564POPC   C3B10257  31.342  14.594   7.953
 5564POPC   C4B10258  31.324  14.584   7.653
 5565POPC   NC310259  42.352  33.824   9.453
 5565POPC   PO410260  42.313  33.808   9.153
 5565POPC   GL110261  42.329  33.807   8.853
 5565POPC   GL210262  42.480  33.893   8.853
 5565POPC   C1A10263  42.305  33.752   8.553
 5565POPC   D2A10264  42.301  33.769   8.253
 5565POPC   C3A10265  42.356  33.844   7.953
 5565POPC   C4A10266  42.305  33.778   7.653
 5565POPC   C1B10267  42.544  33.898   8.553
 5565POPC   C2B10268  42.585  33.910   8.253
 5565POPC   C3B10269  42.493  33.952   7.953
 5565POPC   C4B10270  42.549  33.918   7.653
 5566POPC   NC310271   8.986  20.565   9.453
 5566POPC   PO410272   8.978  20.591   9.153
 5566POPC   GL110273   8.958  20.580   8.853
 5566POPC   GL210274   9.130  20.610   8.853
 5566POPC   C1A10275   8.963  20.591   8.553
 5566POPC   D2A10276   8.967  20.561   8.253
 5566POPC   C3A10277   8.982  20.586   7.953
 5566POPC   C4A10278   8.942  20.647   7.653
 5566POPC   C1B10279   9.185  20.593   8.553
 5566POPC   C2B10280   9.242  20.530   8.253
 5566POPC   C3B10281   9.265  20.604   7.953
 5566POPC   C4B10282   9.171  20.569   7.653
 5567POPC   NC310283  39.211  37.725   9.453
 5567POPC   PO410284  39.255  37.691   9.153
 5567POPC   GL110285  39.182  37.692   8.853
 5567POPC   GL210286  39.380  37.578   8.853
 5567POPC   C1A10287  39.228  37.699   8.553
 5567POPC   D2A10288  39.186  37.694   8.253
 5567POPC   C3A10289  39.215  37.641   7.953
 5567POPC   C4A10290  39.249  37.671   7.653
 5567POPC   C1B10291  39.426  37.508   8.553
 5567POPC   C2B10292  39.409  37.557   8.253
 5567POPC   C3B10293  39.475  37.528   7.953
 5567POPC   C4B10294  39.420  37.552   7.653
 5568POPC   NC310295   6.609  33.757   9.453
 5568POPC   PO410296   6.602  33.848   9.153
 5568POPC   GL110297   6.668  33.788   8.853
 5568POPC   GL210298   6.573  33.768   8.853
 5568POPC   C1A10299   6.625  33.816   8.553
 5568POPC   D2A10300   6.616  33.791   8.253
 5568POPC   C3A10301   6.690  33.824   7.953
 5568POPC   C4A10302   6.630  33.817   7.653
 5568POPC   C1B10303   6.404  33.657   8.553
 5568POPC   C2B10304   6.435  33.723   8.253
 5568POPC   C3B10305   6.402  33.736   7.953
 5568POPC   C4B10306   6.400  33.736   7.653
 5569POPC   NC310307  33.040  43.872   9.453
 5569POPC   PO410308  32.977  43.935   9.153
 5569POPC   GL110309  33.012  43.896   8.853
 5569POPC   GL210310  33.042  43.730   8.853
 5569POPC   C1A10311  32.979  43.895   8.553
 5569POPC   D2A10312  33.036  43.897   8.253
 5569POPC   C3A10313  33.032  43.846   7.953
 5569POPC   C4A10314  32.990  43.926   7.653
 5569POPC   C1B10315  33.024  43.623   8.553
 5569POPC   C2B10316  33.043  43.591   8.253
 5569POPC   C3B10317  33.082  43.629   7.953
 5569POPC   C4B10318  33.024  43.595   7.653
 5570POPC   NC310319  22.146   9.704   9.453
 5570POPC   PO410320  22.181   9.742   9.153
 5570POPC   GL110321  22.167   9.770   8.853
 5570POPC   GL210322  22.076   9.626   8.853
 5570POPC   C1A10323  22.130   9.733   8.553
 5570POPC   D2A10324  22.130   9.788   8.253
 5570POPC   C3A10325  22.193   9.786   7.953
 5570POPC   C4A10326  22.141   9.784   7.653
 5570POPC   C1B10327  22.114   9.476   8.553
 5570POPC   C2B10328  22.084   9.540   8.253
 5570POPC   C3B10329  22.042   9.467   7.953
 5570POPC   C4B10330  22.132   9.544   7.653
 5571POPC   NC310331   7.411  19.016   9.453
 5571POPC   PO410332   7.397  19.021   9.153
 5571POPC   GL110333   7.381  19.020   8.853
 5571POPC   GL210334   7.570  19.145   8.853
 5571POPC   C1A10335   7.445  19.073   8.553
 5571POPC   D2A10336   7.444  19.101   8.253
 5571POPC   C3A10337   7.468  19.067   7.953
 5571POPC   C4A10338   7.453  19.063   7.653
 5571POPC   C1B10339   7.641  19.153   8.553
 5571POPC   C2B10340   7.603  19.170   8.253
 5571POPC   C3B10341   7.590  19.158   7.953
 5571POPC   C4B10342   7.597  19.207   7.653
 5572POPC   NC310343  35.334  21.389   9.453
 5572POPC   PO410344  35.305  21.434   9.153
 5572POPC   GL110345  35.316  21.398   8.853
 5572POPC   GL210346  35.378  21.291   8.853
 5572POPC   C1A10347  35.306  21.366   8.553
 5572POPC   D2A10348  35.337  21.386   8.253
 5572POPC   C3A10349  35.382  21.353   7.953
 5572POPC   C4A10350  35.365  21.400   7.653
 5572POPC   C1B10351  35.502  21.209   8.553
 5572POPC   C2B10352  35.446  21.174   8.253
 5572POPC   C3B10353  35.450  21.195   7.953
 5572POPC   C4B10354  35.496  21.215   7.653
 5573POPC   NC310355  34.577  20.608   9.453
 5573POPC   PO410356  34.528  20.640   9.153
 5573POPC   GL110357  34.609  20.594   8.853
 5573POPC   GL210358  34.676  20.709   8.853
 5573POPC   C1A10359  34.557  20.649   8.553
 5573POPC   D2A10360  34.600  20.629   8.253
 5573POPC   C3A10361  34.588  20.600   7.953
 5573POPC   C4A10362  34.562  20.618   7.653
 5573POPC   C1B10363  34.799  20.736   8.553
 5573POPC   C2B10364  34.745  20.742   8.253
 5573POPC   C3B10365  34.786  20.775   7.953
 5573POPC   C4B10366  34.796  20.744   7.653
 5574POPC   NC310367  44.687  43.117   9.453
 5574POPC   PO410368  44.685  43.105   9.153
 5574POPC   GL110369  44.671  43.129   8.853
 5574POPC   GL210370  44.515  43.000   8.853
 5574POPC   C1A10371  44.680  43.124   8.553
 5574POPC   D2A10372  44.631  43.069   8.253
 5574POPC   C3A10373  44.644  43.083   7.953
 5574POPC   C4A10374  44.679  43.105   7.653
 5574POPC   C1B10375  44.494  42.927   8.553
 5574POPC   C2B10376  44.455  42.955   8.253
 5574POPC   C3B10377  44.419  43.016   7.953
 5574POPC   C4B10378  44.453  42.950   7.653
 5575POPC   NC310379  12.822  12.885   9.453
 5575POPC   PO410380  12.886  12.869   9.153
 5575POPC   GL110381  12.824  12.820   8.853
 5575POPC   GL210382  12.926  12.744   8.853
 5575POPC   C1A10383  12.877  12.851   8.553
 5575POPC   D2A10384  12.844  12.893   8.253
 5575POPC   C3A10385  12.802  12.817   7.953
 5575POPC   C4A10386  12.805  12.894   7.653
 5575POPC   C1B10387  13.039  12.756   8.553
 5575POPC   C2B10388  13.106  12.676   8.253
 5575POPC   C3B10389  13.091  12.741   7.953
 5575POPC   C4B10390  13.104  12.742   7.653
 5576POPC   NC310391  16.707  27.597   9.453
 5576POPC   PO410392  16.778  27.550   9.153
 5576POPC   GL110393  16.720  27.570   8.853
 5576POPC   GL210394  16.612  27.544   8.853
 5576POPC   C1A10395  16.738  27.549   8.553
 5576POPC   D2A10396  16.729  27.584   8.253
 5576POPC   C3A10397  16.696  27.549   7.953
 5576POPC   C4A10398  16.684  27.590   7.653
 5576POPC   C1B10399  16.569  27.405   8.553
 5576POPC   C2B10400  16.520  27.448   8.253
 5576POPC   C3B10401  16.541  27.363   7.953
 5576POPC   C4B10402  16.555  27.434   7.653
 5577POPC   NC310403  37.655  32.276   9.453
 5577POPC   PO410404  37.652  32.270   9.153
 5577POPC   GL110405  37.706  32.282   8.853
 5577POPC   GL210406  37.794  32.180   8.853
 5577POPC   C1A10407  37.659  32.220   8.553
 5577POPC   D2A10408  37.669  32.244   8.253
 5577POPC   C3A10409  37.709  32.268   7.953
 5577POPC   C4A10410  37.682  32.297   7.653
 5577POPC   C1B10411  37.944  32.174   8.553
 5577POPC   C2B10412  37.918  32.195   8.253
 5577POPC   C3B10413  37.934  32.154   7.953
 5577POPC   C4B10414  37.946  32.191   7.653
 5578POPC   NC310415  34.593  32.293   9.453
 5578POPC   PO410416  34.622  32.289   9.153
 5578POPC   GL110417  34.570  32.275   8.853
 5578POPC   GL210418  34.635  32.130   8.853
 5578POPC   C1A10419  34.531  32.249   8.553
 5578POPC   D2A10420  34.572  32.263   8.253
 5578POPC   C3A10421  34.558  32.298   7.953
 5578POPC   C4A10422  34.593  32.257   7.653
 5578POPC   C1B10423  34.596  32.016   8.553
 5578POPC   C2B10424  34.595  31.980   8.253
 5578POPC   C3B10425  34.590  32.005   7.953
 5578POPC   C4B10426  34.619  32.002   7.653
 5579POPC   NC310427  10.491  22.160   9.453
 5579POPC   PO410428  10.569  22.131   9.153
 5579POPC   GL110429  10.477  22.176   8.853
 5579POPC   GL210430  10.414  22.041   8.853
 5579POPC   C1A10431  10.561  22.180   8.553
 5579POPC   D2A10432  10.533  22.133   8.253
 5579POPC   C3A10433  10.512  22.116   7.953
 5579POPC   C4A10434  10.491  22.193   7.653
 5579POPC   C1B10435  10.290  21.977   8.553
 5579POPC   C2B10436  10.357  21.970   8.253
 5579POPC   C3B10437  10.373  21.993   7.953
 5579POPC   C4B10438  10.383  22.003   7.653
 5580POPC   NC310439  19.028  42.289   9.453
 5580POPC   PO410440  19.026  42.298   9.153
 5580POPC   GL110441  19.021  42.324   8.853
 5580POPC   GL210442  18.921  42.318   8.853
 5580POPC   C1A10443  19.025  42.312   8.553
 5580POPC   D2A10444  19.048  42.347   8.253
 5580POPC   C3A10445  19.107  42.295   7.953
 5580POPC   C4A10446  19.097  42.353   7.653
 5580POPC   C1B10447  18.795  42.298   8.553
 5580POPC   C2B10448  18.770  42.329   8.253
 5580POPC   C3B10449  18.773  42.301   7.953
 5580POPC   C4B10450  18.861  42.296   7.653
 5581POPC   NC310451   2.716   1.200   9.453
 5581POPC   PO410452   2.752   1.207   9.153
 5581POPC   GL110453   2.796   1.203   8.853
 5581POPC   GL210454   2.659   1.276   8.853
 5581POPC   C1A10455   2.763   1.184   8.553
 5581POPC   D2A10456   2.719   1.260   8.253
 5581POPC   C3A10457   2.794   1.189   7.953
 5581POPC   C4A10458   2.813   1.232   7.653
 5581POPC   C1B10459   2.533   1.354   8.553
 5581POPC   C2B10460   2.543   1.375   8.253
 5581POPC   C3B10461   2.514   1.313   7.953
 5581POPC   C4B10462   2.602   1.358   7.653
 5582POPC   NC310463  24.524   2.031   9.453
 5582POPC   PO410464  24.505   1.972   9.153
 5582POPC   GL110465  24.448   1.976   8.853
 5582POPC   GL210466  24.366   1.904   8.853
 5582POPC   C1A10467  24.480   2.020   8.553
 5582POPC   D2A10468  24.510   2.028   8.253
 5582POPC   C3A10469  24.468   1.973   7.953
 5582POPC   C4A10470  24.538   2.004   7.653
 5582POPC   C1B10471  24.236   1.956   8.553
 5582POPC   C2B10472  24.298   1.948   8.253
 5582POPC   C3B10473  24.273   1.900   7.953
 5582POPC   C4B10474  24.277   1.905   7.653
 5583POPC   NC310475  33.785  32.980   9.453
 5583POPC   PO410476  33.824  33.009   9.153
 5583POPC   GL110477  33.780  32.988   8.853
 5583POPC   GL210478  33.722  33.169   8.853
 5583POPC   C1A10479  33.836  33.002   8.553
 5583POPC   D2A10480  33.813  33.017   8.253
 5583POPC   C3A10481  33.837  33.012   7.953
 5583POPC   C4A10482  33.828  33.030   7.653
 5583POPC   C1B10483  33.617  33.207   8.553
 5583POPC   C2B10484  33.676  33.269   8.253
 5583POPC   C3B10485  33.707  33.262   7.953
 5583POPC   C4B10486  33.632  33.235   7.653
 5584POPC   NC310487  13.673  10.549   9.453
 5584POPC   PO410488  13.595  10.570   9.153
 5584POPC   GL110489  13.578  10.474   8.853
 5584POPC   GL210490  13.538  10.443   8.853
 5584POPC   C1A10491  13.624  10.509   8.553
 5584POPC   D2A10492  13.632  10.492   8.253
 5584POPC   C3A10493  13.641  10.497   7.953
 5584POPC   C4A10494  13.613  10.557   7.653
 5584POPC   C1B10495  13.351  10.376   8.553
 5584POPC   C2B10496  13.391  10.411   8.253
 5584POPC   C3B10497  13.447  10.419   7.953
 5584POPC   C4B10498  13.448  10.462   7.653
 5585POPC   NC310499  42.338   5.878   9.453
 5585POPC   PO410500  42.322   5.856   9.153
 5585POPC   GL110501  42.320   5.832   8.853
 5585POPC   GL210502  42.172   5.921   8.853
 5585POPC   C1A10503  42.286   5.842   8.553
 5585POPC   D2A10504  42.374   5.886   8.253
 5585POPC   C3A10505  42.303   5.855   7.953
 5585POPC   C4A10506  42.364   5.831   7.653
 5585POPC   C1B10507  42.150   6.004   8.553
 5585POPC   C2B10508  42.096   5.942   8.253
 5585POPC   C3B10509  42.067   5.953   7.953
 5585POPC   C4B10510  42.075   5.921   7.653
 5586POPC   NC310511  30.713   9.016   9.453
 5586POPC   PO410512  30.661   8.960   9.153
 5586POPC   GL110513  30.657   9.009   8.853
 5586POPC   GL210514  30.677   8.824   8.853
 5586POPC   C1A10515  30.655   8.950   8.553
 5586POPC   D2A10516  30.713   8.998   8.253
 5586POPC   C3A10517  30.673   8.924   7.953
 5586POPC   C4A10518  30.668   8.986   7.653
 5586POPC   C1B10519  30.748   8.712   8.553
 5586POPC   C2B10520  30.660   8.763   8.253
 5586POPC   C3B10521  30.742   8.718   7.953
 5586POPC   C4B10522  30.697   8.684   7.653
 5587POPC   NC310523   7.464  40.787   9.453
 5587POPC   PO410524   7.451  40.770   9.153
 5587POPC   GL110525   7.384  40.830   8.853
 5587POPC   GL210526   7.273  40.818   8.853
 5587POPC   C1A10527   7.371  40.749   8.553
 5587POPC   D2A10528   7.412  40.747   8.253
 5587POPC   C3A10529   7.413  40.767   7.953
 5587POPC   C4A10530   7.404  40.778   7.653
 5587POPC   C1B10531   7.189  40.866   8.553
 5587POPC   C2B10532   7.226  40.884   8.253
 5587POPC   C3B10533   7.161  40.851   7.953
 5587POPC   C4B10534   7.189  40.865   7.653
 5588POPC   NC310535  20.607   1.991   9.453
 5588POPC   PO410536  20.604   1.950   9.153
 5588POPC   GL110537  20.628   1.991   8.853
 5588POPC   GL210538  20.663   1.855   8.853
 5588POPC   C1A10539  20.585   1.977   8.553
 5588POPC   D2A10540  20.629   1.951   8.253
 5588POPC   C3A10541  20.573   1.991   7.953
 5588POPC   C4A10542  20.576   1.949   7.653
 5588POPC   C1B10543  20.686   1.729   8.553
 5588POPC   C2B10544  20.726   1.733   8.253
 5588POPC   C3B10545  20.743   1.773   7.953
 5588POPC   C4B10546  20.736   1.790   7.653
 5589POPC   NC310547  25.233  15.174   9.453
 5589POPC   PO410548  25.222  15.132   9.153
 5589POPC   GL110549  25.308  15.147   8.853
 5589POPC   GL210550  25.198  15.270   8.853
 5589POPC   C1A10551  25.302  15.149   8.553
 5589POPC   D2A10552  25.279  15.188   8.253
 5589POPC   C3A10553  25.232  15.133   7.953
 5589POPC   C4A10554  25.310  15.171   7.653
 5589POPC   C1B10555  25.077  15.335   8.553
 5589POPC   C2B10556  25.078  15.371   8.253
 5589POPC   C3B10557  25.100  15.346   7.953
 5589POPC   C4B10558  25.107  15.358   7.653
 5590POPC   NC310559  25.290  37.693   9.453
 5590POPC   PO410560  25.257  37.691   9.153
 5590POPC   GL110561  25.241  37.671   8.853
 5590POPC   GL210562  25.327  37.554   8.853
 5590POPC   C1A10563  25.254  37.660   8.553
 5590POPC   D2A10564  25.292  37.660   8.253
 5590POPC   C3A10565  25.300  37.719   7.953
 5590POPC   C4A10566  25.307  37.656   7.653
 5590POPC   C1B10567  25.463  37.517   8.553
 5590POPC   C2B10568  25.502  37.504   8.253
 5590POPC   C3B10569  25.490  37.493   7.953
 5590POPC   C4B10570  25.413  37.511   7.653
 5591POPC   NC310571  12.114   3.523   9.453
 5591POPC   PO410572  12.039   3.526   9.153
 5591POPC   GL110573  12.049   3.517   8.853
 5591POPC   GL210574  12.183   3.472   8.853
 5591POPC   C1A10575  12.071   3.561   8.553
 5591POPC   D2A10576  12.062   3.549   8.253
 5591POPC   C3A10577  12.090   3.507   7.953
 5591POPC   C4A10578  12.033   3.536   7.653
 5591POPC   C1B10579  12.219   3.378   8.553
 5591POPC   C2B10580  12.242   3.327   8.253
 5591POPC   C3B10581  12.220   3.326   7.953
 5591POPC   C4B10582  12.265   3.380   7.653
 5592POPC   NC310583  36.145  22.177   9.453
 5592POPC   PO410584  36.118  22.201   9.153
 5592POPC   GL110585  36.146  22.171   8.853
 5592POPC   GL210586  36.141  22.296   8.853
 5592POPC   C1A10587  36.138  22.125   8.553
 5592POPC   D2A10588  36.138  22.143   8.253
 5592POPC   C3A10589  36.138  22.116   7.953
 5592POPC   C4A10590  36.150  22.146   7.653
 5592POPC   C1B10591  36.178  22.379   8.553
 5592POPC   C2B10592  36.200  22.367   8.253
 5592POPC   C3B10593  36.206  22.412   7.953
 5592POPC   C4B10594  36.164  22.413   7.653
 5593POPC   NC310595   9.707  36.079   9.453
 5593POPC   PO410596   9.730  36.168   9.153
 5593POPC   GL110597   9.726  36.140   8.853
 5593POPC   GL210598   9.605  36.180   8.853
 5593POPC   C1A10599   9.776  36.139   8.553
 5593POPC   D2A10600   9.774  36.175   8.253
 5593POPC   C3A10601   9.762  36.124   7.953
 5593POPC   C4A10602   9.763  36.143   7.653
 5593POPC   C1B10603   9.538  36.152   8.553
 5593POPC   C2B10604   9.481  36.182   8.253
 5593POPC   C3B10605   9.532  36.099   7.953
 5593POPC   C4B10606   9.464  36.147   7.653
 5594POPC   NC310607  36.151  14.356   9.453
 5594POPC   PO410608  36.145  14.372   9.153
 5594POPC   GL110609  36.081  14.431   8.853
 5594POPC   GL210610  36.176  14.335   8.853
 5594POPC   C1A10611  36.080  14.449   8.553
 5594POPC   D2A10612  36.100  14.413   8.253
 5594POPC   C3A10613  36.171  14.430   7.953
 5594POPC   C4A10614  36.099  14.406   7.653
 5594POPC   C1B10615  36.217  14.199   8.553
 5594POPC   C2B10616  36.230  14.185   8.253
 5594POPC   C3B10617  36.251  14.153   7.953
 5594POPC   C4B10618  36.192  14.137   7.653
 5595POPC   NC310619  42.310   9.773   9.453
 5595POPC   PO410620  42.380   9.698   9.153
 5595POPC   GL110621  42.301   9.729   8.853
 5595POPC   GL210622  42.229   9.705   8.853
 5595POPC   C1A10623  42.349   9.748   8.553
 5595POPC   D2A10624  42.314   9.745   8.253
 5595POPC   C3A10625  42.287   9.751   7.953
 5595POPC   C4A10626  42.379   9.788   7.653
 5595POPC   C1B10627  42.067   9.683   8.553
 5595POPC   C2B10628  42.073   9.661   8.253
 5595POPC   C3B10629  42.075   9.700   7.953
 5595POPC   C4B10630  42.074   9.642   7.653
 5596POPC   NC310631  20.609  43.857   9.453
 5596POPC   PO410632  20.615  43.924   9.153
 5596POPC   GL110633  20.629  43.883   8.853
 5596POPC   GL210634  20.676  43.976   8.853
 5596POPC   C1A10635  20.568  43.891   8.553
 5596POPC   D2A10636  20.639  43.933   8.253
 5596POPC   C3A10637  20.622  43.859   7.953
 5596POPC   C4A10638  20.658  43.860   7.653
 5596POPC   C1B10639  20.629  44.129   8.553
 5596POPC   C2B10640  20.696  44.102   8.253
 5596POPC   C3B10641  20.706  44.131   7.953
 5596POPC   C4B10642  20.633  44.098   7.653
 5597POPC   NC310643  12.899  18.321   9.453
 5597POPC   PO410644  12.886  18.276   9.153
 5597POPC   GL110645  12.880  18.259   8.853
 5597POPC   GL210646  12.897  18.430   8.853
 5597POPC   C1A10647  12.877  18.240   8.553
 5597POPC   D2A10648  12.853  18.284   8.253
 5597POPC   C3A10649  12.878  18.279   7.953
 5597POPC   C4A10650  12.817  18.294   7.653
 5597POPC   C1B10651  12.991  18.497   8.553
 5597POPC   C2B10652  13.002  18.535   8.253
 5597POPC   C3B10653  12.991  18.486   7.953
 5597POPC   C4B10654  12.944  18.529   7.653
 5598POPC   NC310655  11.273   9.792   9.453
 5598POPC   PO410656  11.259   9.767   9.153
 5598POPC   GL110657  11.347   9.798   8.853
 5598POPC   GL210658  11.348   9.832   8.853
 5598POPC   C1A10659  11.307   9.795   8.553
 5598POPC   D2A10660  11.270   9.732   8.253
 5598POPC   C3A10661  11.322   9.721   7.953
 5598POPC   C4A10662  11.279   9.738   7.653
 5598POPC   C1B10663  11.382   9.946   8.553
 5598POPC   C2B10664  11.378   9.972   8.253
 5598POPC   C3B10665  11.377   9.977   7.953
 5598POPC   C4B10666  11.355   9.985   7.653
 5599POPC   NC310667   8.232  15.963   9.453
 5599POPC   PO410668   8.246  15.989   9.153
 5599POPC   GL110669   8.221  15.958   8.853
 5599POPC   GL210670   8.316  16.026   8.853
 5599POPC   C1A10671   8.176  15.949   8.553
 5599POPC   D2A10672   8.231  15.980   8.253
 5599POPC   C3A10673   8.202  15.964   7.953
 5599POPC   C4A10674   8.175  15.945   7.653
 5599POPC   C1B10675   8.405  16.120   8.553
 5599POPC   C2B10676   8.421  16.097   8.253
 5599POPC   C3B10677   8.355  16.079   7.953
 5599POPC   C4B10678   8.402  16.081   7.653
 5600POPC   NC310679  44.659  15.204   9.453
 5600POPC   PO410680  44.668  15.176   9.153
 5600POPC   GL110681  44.660  15.170   8.853
 5600POPC   GL210682  44.583  15.290   8.853
 5600POPC   C1A10683  44.661  15.215   8.553
 5600POPC   D2A10684  44.687  15.203   8.253
 5600POPC   C3A10685  44.638  15.227   7.953
 5600POPC   C4A10686  44.673  15.209   7.653
 5600POPC   C1B10687  44.563  15.455   8.553
 5600POPC   C2B10688  44.563  15.385   8.253
 5600POPC   C3B10689  44.587  15.428   7.953
 5600POPC   C4B10690  44.595  15.435   7.653
 5601POPC   NC310691  32.228  35.312   9.453
 5601POPC   PO410692  32.252  35.326   9.153
 5601POPC   GL110693  32.262  35.357   8.853
 5601POPC   GL210694  32.305  35.444   8.853
 5601POPC   C1A10695  32.205  35.313   8.553
 5601POPC   D2A10696  32.204  35.396   8.253
 5601POPC   C3A10697  32.293  35.334   7.953
 5601POPC   C4A10698  32.238  35.380   7.653
 5601POPC   C1B10699  32.415  35.556   8.553
 5601POPC   C2B10700  32.368  35.529   8.253
 5601POPC   C3B10701  32.444  35.527   7.953
 5601POPC   C4B10702  32.418  35.500   7.653
 5602POPC   NC310703  34.533  15.143   9.453
 5602POPC   PO410704  34.593  15.160   9.153
 5602POPC   GL110705  34.583  15.198   8.853
 5602POPC   GL210706  34.660  15.253   8.853
 5602POPC   C1A10707  34.574  15.192   8.553
 5602POPC   D2A10708  34.542  15.133   8.253
 5602POPC   C3A10709  34.558  15.171   7.953
 5602POPC   C4A10710  34.571  15.219   7.653
 5602POPC   C1B10711  34.677  15.416   8.553
 5602POPC   C2B10712  34.637  15.410   8.253
 5602POPC   C3B10713  34.701  15.400   7.953
 5602POPC   C4B10714  34.647  15.443   7.653
 5603POPC   NC310715  25.279  22.135   9.453
 5603POPC   PO410716  25.216  22.139   9.153
 5603POPC   GL110717  25.267  22.184   8.853
 5603POPC   GL210718  25.377  22.173   8.853
 5603POPC   C1A10719  25.237  22.114   8.553
 5603POPC   D2A10720  25.290  22.140   8.253
 5603POPC   C3A10721  25.233  22.190   7.953
 5603POPC   C4A10722  25.273  22.180   7.653
 5603POPC   C1B10723  25.532  22.148   8.553
 5603POPC   C2B10724  25.501  22.161   8.253
 5603POPC   C3B10725  25.530  22.172   7.953
 5603POPC   C4B10726  25.535  22.189   7.653
 5604POPC   NC310727  12.073  29.158   9.453
 5604POPC   PO410728  12.075  29.120   9.153
 5604POPC   GL110729  12.112  29.162   8.853
 5604POPC   GL210730  12.184  29.076   8.853
 5604POPC   C1A10731  12.098  29.185   8.553
 5604POPC   D2A10732  12.092  29.153   8.253
 5604POPC   C3A10733  12.044  29.098   7.953
 5604POPC   C4A10734  12.029  29.178   7.653
 5604POPC   C1B10735  12.217  28.964   8.553
 5604POPC   C2B10736  12.190  28.888   8.253
 5604POPC   C3B10737  12.196  28.958   7.953
 5604POPC   C4B10738  12.187  28.951   7.653
 5605POPC   NC310739  28.339  44.687   9.453
 5605POPC   PO410740  28.373  44.626   9.153
 5605POPC   GL110741  28.388  44.670   8.853
 5605POPC   GL210742  28.475  44.596   8.853
 5605POPC   C1A10743  28.357  44.690   8.553
 5605POPC   D2A10744  28.332  44.640   8.253
 5605POPC   C3A10745  28.382  44.663   7.953
 5605POPC   C4A10746  28.406  44.701   7.653
 5605POPC   C1B10747  28.573  44.547   8.553
 5605POPC   C2B10748  28.599  44.562   8.253
 5605POPC   C3B10749  28.590  44.555   7.953
 5605POPC   C4B10750  28.580  44.542   7.653
 5606POPC   NC310751   0.405   5.835   9.453
 5606POPC   PO410752   0.430   5.849   9.153
 5606POPC   GL110753   0.467   5.869   8.853
 5606POPC   GL210754   0.488   5.802   8.853
 5606POPC   C1A10755   0.444   5.872   8.553
 5606POPC   D2A10756   0.421   5.906   8.253
 5606POPC   C3A10757   0.468   5.853   7.953
 5606POPC   C4A10758   0.401   5.865   7.653
 5606POPC   C1B10759   0.594   5.641   8.553
 5606POPC   C2B10760   0.577   5.639   8.253
 5606POPC   C3B10761   0.634   5.704   7.953
 5606POPC   C4B10762   0.580   5.717   7.653
 5607POPC   NC310763  44.675   0.442   9.453
 5607POPC   PO410764  44.635   0.396   9.153
 5607POPC   GL110765  44.711   0.459   8.853
 5607POPC   GL210766  44.635   0.611   8.853
 5607POPC   C1A10767  44.639   0.487   8.553
 5607POPC   D2A10768  44.631   0.400   8.253
 5607POPC   C3A10769  44.684   0.473   7.953
 5607POPC   C4A10770  44.702   0.396   7.653
 5607POPC   C1B10771  44.733   0.673   8.553
 5607POPC   C2B10772  44.685   0.674   8.253
 5607POPC   C3B10773  44.658   0.641   7.953
 5607POPC   C4B10774  44.647   0.676   7.653
 5608POPC   NC310775  18.240  43.847   9.453
 5608POPC   PO410776  18.283  43.900   9.153
 5608POPC   GL110777  18.242  43.877   8.853
 5608POPC   GL210778  18.280  44.016   8.853
 5608POPC   C1A10779  18.233  43.885   8.553
 5608POPC   D2A10780  18.266  43.900   8.253
 5608POPC   C3A10781  18.280  43.855   7.953
 5608POPC   C4A10782  18.242  43.889   7.653
 5608POPC   C1B10783  18.289  44.110   8.553
 5608POPC   C2B10784  18.266  44.178   8.253
 5608POPC   C3B10785  18.321  44.156   7.953
 5608POPC   C4B10786  18.261  44.166   7.653
 5609POPC   NC310787  19.098  12.807   9.453
 5609POPC   PO410788  19.034  12.885   9.153
 5609POPC   GL110789  19.102  12.847   8.853
 5609POPC   GL210790  18.902  12.920   8.853
 5609POPC   C1A10791  19.016  12.857   8.553
 5609POPC   D2A10792  19.108  12.872   8.253
 5609POPC   C3A10793  19.045  12.848   7.953
 5609POPC   C4A10794  19.027  12.802   7.653
 5609POPC   C1B10795  18.824  12.926   8.553
 5609POPC   C2B10796  18.769  12.909   8.253
 5609POPC   C3B10797  18.861  12.920   7.953
 5609POPC   C4B10798  18.847  12.878   7.653
 5610POPC   NC310799  24.469  11.257   9.453
 5610POPC   PO410800  24.487  11.317   9.153
 5610POPC   GL110801  24.539  11.255   8.853
 5610POPC   GL210802  24.576  11.210   8.853
 5610POPC   C1A10803  24.526  11.331   8.553
 5610POPC   D2A10804  24.476  11.329   8.253
 5610POPC   C3A10805  24.463  11.327   7.953
 5610POPC   C4A10806  24.457  11.335   7.653
 5610POPC   C1B10807  24.717  11.186   8.553
 5610POPC   C2B10808  24.634  11.177   8.253
 5610POPC   C3B10809  24.721  11.121   7.953
 5610POPC   C4B10810  24.682  11.168   7.653
 5611POPC   NC310811  40.021  43.144   9.453
 5611POPC   PO410812  40.036  43.147   9.153
 5611POPC   GL110813  39.999  43.129   8.853
 5611POPC   GL210814  40.131  42.985   8.853
 5611POPC   C1A10815  40.050  43.138   8.553
 5611POPC   D2A10816  40.056  43.073   8.253
 5611POPC   C3A10817  40.025  43.063   7.953
 5611POPC   C4A10818  39.988  43.120   7.653
 5611POPC   C1B10819  40.178  42.889   8.553
 5611POPC   C2B10820  40.142  42.892   8.253
 5611POPC   C3B10821  40.147  42.931   7.953
 5611POPC   C4B10822  40.208  42.901   7.653
 5612POPC   NC310823  39.992   9.773   9.453
 5612POPC   PO410824  40.046   9.781   9.153
 5612POPC   GL110825  39.961   9.732   8.853
 5612POPC   GL210826  40.012   9.593   8.853
 5612POPC   C1A10827  40.026   9.795   8.553
 5612POPC   D2A10828  39.965   9.759   8.253
 5612POPC   C3A10829  39.978   9.773   7.953
 5612POPC   C4A10830  39.986   9.704   7.653
 5612POPC   C1B10831  39.947   9.558   8.553
 5612POPC   C2B10832  39.962   9.477   8.253
 5612POPC   C3B10833  39.887   9.492   7.953
 5612POPC   C4B10834  39.921   9.545   7.653
 5613POPC   NC310835   9.746  33.031   9.453
 5613POPC   PO410836   9.735  33.064   9.153
 5613POPC   GL110837   9.749  33.040   8.853
 5613POPC   GL210838   9.759  32.930   8.853
 5613POPC   C1A10839   9.749  33.069   8.553
 5613POPC   D2A10840   9.711  32.976   8.253
 5613POPC   C3A10841   9.747  32.995   7.953
 5613POPC   C4A10842   9.719  33.030   7.653
 5613POPC   C1B10843   9.643  32.781   8.553
 5613POPC   C2B10844   9.715  32.812   8.253
 5613POPC   C3B10845   9.722  32.771   7.953
 5613POPC   C4B10846   9.715  32.739   7.653
 5614POPC   NC310847   1.188  31.513   9.453
 5614POPC   PO410848   1.216  31.425   9.153
 5614POPC   GL110849   1.253  31.453   8.853
 5614POPC   GL210850   1.230  31.553   8.853
 5614POPC   C1A10851   1.262  31.460   8.553
 5614POPC   D2A10852   1.184  31.431   8.253
 5614POPC   C3A10853   1.227  31.433   7.953
 5614POPC   C4A10854   1.206  31.457   7.653
 5614POPC   C1B10855   1.294  31.704   8.553
 5614POPC   C2B10856   1.307  31.751   8.253
 5614POPC   C3B10857   1.292  31.704   7.953
 5614POPC   C4B10858   1.257  31.686   7.653
 5615POPC   NC310859   6.613  30.657   9.453
 5615POPC   PO410860   6.601  30.677   9.153
 5615POPC   GL110861   6.609  30.726   8.853
 5615POPC   GL210862   6.793  30.634   8.853
 5615POPC   C1A10863   6.617  30.723   8.553
 5615POPC   D2A10864   6.605  30.648   8.253
 5615POPC   C3A10865   6.614  30.713   7.953
 5615POPC   C4A10866   6.653  30.746   7.653
 5615POPC   C1B10867   6.889  30.641   8.553
 5615POPC   C2B10868   6.935  30.684   8.253
 5615POPC   C3B10869   6.853  30.619   7.953
 5615POPC   C4B10870   6.920  30.609   7.653
 5616POPC   NC310871  41.592   5.847   9.453
 5616POPC   PO410872  41.592   5.837   9.153
 5616POPC   GL110873  41.518   5.864   8.853
 5616POPC   GL210874  41.691   5.855   8.853
 5616POPC   C1A10875  41.563   5.914   8.553
 5616POPC   D2A10876  41.564   5.908   8.253
 5616POPC   C3A10877  41.570   5.852   7.953
 5616POPC   C4A10878  41.555   5.839   7.653
 5616POPC   C1B10879  41.766   5.957   8.553
 5616POPC   C2B10880  41.817   5.950   8.253
 5616POPC   C3B10881  41.804   5.944   7.953
 5616POPC   C4B10882  41.791   5.953   7.653
 5617POPC   NC310883  18.306  29.142   9.453
 5617POPC   PO410884  18.293  29.172   9.153
 5617POPC   GL110885  18.272  29.099   8.853
 5617POPC   GL210886  18.418  29.231   8.853
 5617POPC   C1A10887  18.313  29.115   8.553
 5617POPC   D2A10888  18.236  29.185   8.253
 5617POPC   C3A10889  18.270  29.192   7.953
 5617POPC   C4A10890  18.265  29.188   7.653
 5617POPC   C1B10891  18.426  29.364   8.553
 5617POPC   C2B10892  18.472  29.305   8.253
 5617POPC   C3B10893  18.439  29.344   7.953
 5617POPC   C4B10894  18.459  29.361   7.653
 5618POPC   NC310895   1.237   8.996   9.453
 5618POPC   PO410896   1.216   8.956   9.153
 5618POPC   GL110897   1.188   8.991   8.853
 5618POPC   GL210898   1.149   8.853   8.853
 5618POPC   C1A10899   1.241   8.952   8.553
 5618POPC   D2A10900   1.243   8.999   8.253
 5618POPC   C3A10901   1.196   8.979   7.953
 5618POPC   C4A10902   1.259   8.933   7.653
 5618POPC   C1B10903   1.110   8.737   8.553
 5618POPC   C2B10904   1.114   8.794   8.253
 5618POPC   C3B10905   1.120   8.717   7.953
 5618POPC   C4B10906   1.072   8.767   7.653
 5619POPC   NC310907  31.502  33.038   9.453
 5619POPC   PO410908  31.476  33.044   9.153
 5619POPC   GL110909  31.451  33.048   8.853
 5619POPC   GL210910  31.405  32.975   8.853
 5619POPC   C1A10911  31.424  33.072   8.553
 5619POPC   D2A10912  31.469  33.041   8.253
 5619POPC   C3A10913  31.460  33.029   7.953
 5619POPC   C4A10914  31.509  33.010   7.653
 5619POPC   C1B10915  31.231  32.954   8.553
 5619POPC   C2B10916  31.251  32.931   8.253
 5619POPC   C3B10917  31.210  32.961   7.953
 5619POPC   C4B10918  31.229  32.964   7.653
 5620POPC   NC310919  42.357  27.562   9.453
 5620POPC   PO410920  42.343  27.636   9.153
 5620POPC   GL110921  42.329  27.548   8.853
 5620POPC   GL210922  42.195  27.579   8.853
 5620POPC   C1A10923  42.327  27.581   8.553
 5620POPC   D2A10924  42.308  27.593   8.253
 5620POPC   C3A10925  42.337  27.574   7.953
 5620POPC   C4A10926  42.379  27.642   7.653
 5620POPC   C1B10927  42.111  27.491   8.553
 5620POPC   C2B10928  42.106  27.574   8.253
 5620POPC   C3B10929  42.106  27.505   7.953
 5620POPC   C4B10930  42.130  27.491   7.653
 5621POPC   NC310931   9.784   9.752   9.453
 5621POPC   PO410932   9.706   9.783   9.153
 5621POPC   GL110933   9.711   9.710   8.853
 5621POPC   GL210934   9.678   9.602   8.853
 5621POPC   C1A10935   9.743   9.716   8.553
 5621POPC   D2A10936   9.767   9.783   8.253
 5621POPC   C3A10937   9.780   9.754   7.953
 5621POPC   C4A10938   9.798   9.759   7.653
 5621POPC   C1B10939   9.630   9.570   8.553
 5621POPC   C2B10940   9.640   9.563   8.253
 5621POPC   C3B10941   9.617   9.532   7.953
 5621POPC   C4B10942   9.608   9.553   7.653
 5622POPC   NC310943  19.078  28.358   9.453
 5622POPC   PO410944  19.069  28.398   9.153
 5622POPC   GL110945  19.079  28.352   8.853
 5622POPC   GL210946  19.190  28.438   8.853
 5622POPC   C1A10947  19.082  28.344   8.553
 5622POPC   D2A10948  19.105  28.341   8.253
 5622POPC   C3A10949  19.024  28.414   7.953
 5622POPC   C4A10950  19.020  28.383   7.653
 5622POPC   C1B10951  19.310  28.460   8.553
 5622POPC   C2B10952  19.268  28.461   8.253
 5622POPC   C3B10953  19.322  28.498   7.953
 5622POPC   C4B10954  19.299  28.489   7.653
 5623POPC   NC310955  20.577  23.696   9.453
 5623POPC   PO410956  20.578  23.725   9.153
 5623POPC   GL110957  20.600  23.758   8.853
 5623POPC   GL210958  20.726  23.671   8.853
 5623POPC   C1A10959  20.613  23.734   8.553
 5623POPC   D2A10960  20.628  23.688   8.253
 5623POPC   C3A10961  20.654  23.670   7.953
 5623POPC   C4A10962  20.583  23.711   7.653
 5623POPC   C1B10963  20.906  23.657   8.553
 5623POPC   C2B10964  20.810  23.652   8.253
 5623POPC   C3B10965  20.906  23.723   7.953
 5623POPC   C4B10966  20.850  23.643   7.653
 5624POPC   NC310967  10.531   3.579   9.453
 5624POPC   PO410968  10.535   3.509   9.153
 5624POPC   GL110969  10.539   3.529   8.853
 5624POPC   GL210970  10.485   3.480   8.853
 5624POPC   C1A10971  10.561   3.586   8.553
 5624POPC   D2A10972  10.543   3.583   8.253
 5624POPC   C3A10973  10.526   3.517   7.953
 5624POPC   C4A10974  10.503   3.516   7.653
 5624POPC   C1B10975  10.332   3.372   8.553
 5624POPC   C2B10976  10.328   3.394   8.253
 5624POPC   C3B10977  10.317   3.357   7.953
 5624POPC   C4B10978  10.380   3.358   7.653
 5625POPC   NC310979  42.367  15.956   9.453
 5625POPC   PO410980  42.306  15.917   9.153
 5625POPC   GL110981  42.309  15.996   8.853
 5625POPC   GL210982  42.485  16.004   8.853
 5625POPC   C1A10983  42.295  15.931   8.553
 5625POPC   D2A10984  42.304  15.913   8.253
 5625POPC   C3A10985  42.303  15.929   7.953
 5625POPC   C4A10986  42.285  15.926   7.653
 5625POPC   C1B10987  42.608  16.061   8.553
 5625POPC   C2B10988  42.537  16.062   8.253
 5625POPC   C3B10989  42.600  16.015   7.953
 5625POPC   C4B10990  42.567  16.060   7.653
 5626POPC   NC310991  19.848  11.304   9.453
 5626POPC   PO410992  19.796  11.320   9.153
 5626POPC   GL110993  19.800  11.291   8.853
 5626POPC   GL210994  19.705  11.203   8.853
 5626POPC   C1A10995  19.873  11.334   8.553
 5626POPC   D2A10996  19.806  11.283   8.253
 5626POPC   C3A10997  19.839  11.264   7.953
 5626POPC   C4A10998  19.813  11.349   7.653
 5626POPC   C1B10999  19.705  11.128   8.553
 5626POPC   C2B11000  19.706  11.072   8.253
 5626POPC   C3B11001  19.661  11.133   7.953
 5626POPC   C4B11002  19.695  11.145   7.653
 5627POPC   NC311003  38.441  27.614   9.453
 5627POPC   PO411004  38.410  27.630   9.153
 5627POPC   GL111005  38.483  27.590   8.853
 5627POPC   GL211006  38.561  27.605   8.853
 5627POPC   C1A11007  38.483  27.610   8.553
 5627POPC   D2A11008  38.498  27.600   8.253
 5627POPC   C3A11009  38.451  27.625   7.953
 5627POPC   C4A11010  38.448  27.547   7.653
 5627POPC   C1B11011  38.680  27.547   8.553
 5627POPC   C2B11012  38.731  27.579   8.253
 5627POPC   C3B11013  38.736  27.551   7.953
 5627POPC   C4B11014  38.702  27.574   7.653
 5628POPC   NC311015  13.647  12.101   9.453
 5628POPC   PO411016  13.591  12.068   9.153
 5628POPC   GL111017  13.598  12.106   8.853
 5628POPC   GL211018  13.558  11.944   8.853
 5628POPC   C1A11019  13.613  12.031   8.553
 5628POPC   D2A11020  13.605  12.048   8.253
 5628POPC   C3A11021  13.618  12.121   7.953
 5628POPC   C4A11022  13.667  12.064   7.653
 5628POPC   C1B11023  13.439  11.836   8.553
 5628POPC   C2B11024  13.460  11.919   8.253
 5628POPC   C3B11025  13.445  11.864   7.953
 5628POPC   C4B11026  13.500  11.898   7.653
 5629POPC   NC311027  14.415  41.546   9.453
 5629POPC   PO411028  14.381  41.584   9.153
 5629POPC   GL111029  14.429  41.551   8.853
 5629POPC   GL211030  14.472  41.600   8.853
 5629POPC   C1A11031  14.372  41.550   8.553
 5629POPC   D2A11032  14.372  41.596   8.253
 5629POPC   C3A11033  14.358  41.602   7.953
 5629POPC   C4A11034  14.452  41.546   7.653
 5629POPC   C1B11035  14.662  41.691   8.553
 5629POPC   C2B11036  14.662  41.670   8.253
 5629POPC   C3B11037  14.647  41.714   7.953
 5629POPC   C4B11038  14.675  41.656   7.653
 5630POPC   NC311039  27.571  24.516   9.453
 5630POPC   PO411040  27.577  24.482   9.153
 5630POPC   GL111041  27.640  24.526   8.853
 5630POPC   GL211042  27.557  24.386   8.853
 5630POPC   C1A11043  27.586  24.536   8.553
 5630POPC   D2A11044  27.584  24.463   8.253
 5630POPC   C3A11045  27.597  24.462   7.953
 5630POPC   C4A11046  27.620  24.498   7.653
 5630POPC   C1B11047  27.528  24.248   8.553
 5630POPC   C2B11048  27.610  24.290   8.253
 5630POPC   C3B11049  27.553  24.208   7.953
 5630POPC   C4B11050  27.545  24.208   7.653
 5631POPC   NC311051   8.973  32.222   9.453
 5631POPC   PO411052   8.997  32.245   9.153
 5631POPC   GL111053   8.998  32.240   8.853
 5631POPC   GL211054   9.128  32.213   8.853
 5631POPC   C1A11055   9.010  32.231   8.553
 5631POPC   D2A11056   8.973  32.285   8.253
 5631POPC   C3A11057   8.926  32.268   7.953
 5631POPC   C4A11058   8.964  32.202   7.653
 5631POPC   C1B11059   9.189  32.161   8.553
 5631POPC   C2B11060   9.214  32.190   8.253
 5631POPC   C3B11061   9.220  32.104   7.953
 5631POPC   C4B11062   9.213  32.172   7.653
 5632POPC   NC311063  22.940  12.103   9.453
 5632POPC   PO411064  22.907  12.122   9.153
 5632POPC   GL111065  22.917  12.104   8.853
 5632POPC   GL211066  22.886  12.209   8.853
 5632POPC   C1A11067  22.983  12.075   8.553
 5632POPC   D2A11068  22.913  12.116   8.253
 5632POPC   C3A11069  22.940  12.050   7.953
 5632POPC   C4A11070  22.927  12.092   7.653
 5632POPC   C1B11071  22.860  12.306   8.553
 5632POPC   C2B11072  22.852  12.263   8.253
 5632POPC   C3B11073  22.788  12.305   7.953
 5632POPC   C4B11074  22.769  12.282   7.653
 5633POPC   NC311075   5.899  33.004   9.453
 5633POPC   PO411076   5.916  32.990   9.153
 5633POPC   GL111077   5.859  32.976   8.853
 5633POPC   GL211078   5.927  33.118   8.853
 5633POPC   C1A11079   5.915  33.069   8.553
 5633POPC   D2A11080   5.861  33.073   8.253
 5633POPC   C3A11081   5.912  32.990   7.953
 5633POPC   C4A11082   5.865  33.026   7.653
 5633POPC   C1B11083   5.886  33.300   8.553
 5633POPC   C2B11084   5.888  33.282   8.253
 5633POPC   C3B11085   5.944  33.272   7.953
 5633POPC   C4B11086   5.907  33.302   7.653
 5634POPC   NC311087  25.232  36.905   9.453
 5634POPC   PO411088  25.253  36.952   9.153
 5634POPC   GL111089  25.235  36.863   8.853
 5634POPC   GL211090  25.151  36.792   8.853
 5634POPC   C1A11091  25.311  36.951   8.553
 5634POPC   D2A11092  25.306  36.895   8.253
 5634POPC   C3A11093  25.254  36.948   7.953
 5634POPC   C4A11094  25.284  36.861   7.653
 5634POPC   C1B11095  25.062  36.813   8.553
 5634POPC   C2B11096  25.038  36.813   8.253
 5634POPC   C3B11097  25.047  36.796   7.953
 5634POPC   C4B11098  25.050  36.777   7.653
 5635POPC   NC311099  11.331  41.609   9.453
 5635POPC   PO411100  11.295  41.557   9.153
 5635POPC   GL111101  11.296  41.576   8.853
 5635POPC   GL211102  11.357  41.526   8.853
 5635POPC   C1A11103  11.277  41.558   8.553
 5635POPC   D2A11104  11.277  41.559   8.253
 5635POPC   C3A11105  11.265  41.581   7.953
 5635POPC   C4A11106  11.276  41.604   7.653
 5635POPC   C1B11107  11.462  41.371   8.553
 5635POPC   C2B11108  11.511  41.441   8.253
 5635POPC   C3B11109  11.472  41.424   7.953
 5635POPC   C4B11110  11.489  41.382   7.653
 5636POPC   NC311111  23.736  24.531   9.453
 5636POPC   PO411112  23.703  24.530   9.153
 5636POPC   GL111113  23.756  24.449   8.853
 5636POPC   GL211114  23.632  24.488   8.853
 5636POPC   C1A11115  23.747  24.487   8.553
 5636POPC   D2A11116  23.669  24.511   8.253
 5636POPC   C3A11117  23.692  24.522   7.953
 5636POPC   C4A11118  23.686  24.506   7.653
 5636POPC   C1B11119  23.461  24.525   8.553
 5636POPC   C2B11120  23.488  24.526   8.253
 5636POPC   C3B11121  23.473  24.469   7.953
 5636POPC   C4B11122  23.474  24.479   7.653
 5637POPC   NC311123   4.275   9.015   9.453
 5637POPC   PO411124   4.339   8.994   9.153
 5637POPC   GL111125   4.297   8.943   8.853
 5637POPC   GL211126   4.359   9.121   8.853
 5637POPC   C1A11127   4.354   8.984   8.553
 5637POPC   D2A11128   4.296   9.017   8.253
 5637POPC   C3A11129   4.366   8.997   7.953
 5637POPC   C4A11130   4.343   8.994   7.653
 5637POPC   C1B11131   4.336   9.221   8.553
 5637POPC   C2B11132   4.335   9.225   8.253
 5637POPC   C3B11133   4.340   9.244   7.953
 5637POPC   C4B11134   4.389   9.205   7.653
 5638POPC   NC311135  32.230   2.036   9.453
 5638POPC   PO411136  32.220   2.039   9.153
 5638POPC   GL111137  32.280   2.005   8.853
 5638POPC   GL211138  32.346   1.894   8.853
 5638POPC   C1A11139  32.232   2.010   8.553
 5638POPC   D2A11140  32.243   1.979   8.253
 5638POPC   C3A11141  32.246   1.958   7.953
 5638POPC   C4A11142  32.278   1.988   7.653
 5638POPC   C1B11143  32.492   1.889   8.553
 5638POPC   C2B11144  32.504   1.898   8.253
 5638POPC   C3B11145  32.504   1.902   7.953
 5638POPC   C4B11146  32.476   1.865   7.653
 5639POPC   NC311147  15.920  26.828   9.453
 5639POPC   PO411148  15.985  26.792   9.153
 5639POPC   GL111149  15.971  26.815   8.853
 5639POPC   GL211150  15.855  26.689   8.853
 5639POPC   C1A11151  15.928  26.807   8.553
 5639POPC   D2A11152  15.907  26.782   8.253
 5639POPC   C3A11153  15.930  26.850   7.953
 5639POPC   C4A11154  15.931  26.829   7.653
 5639POPC   C1B11155  15.787  26.585   8.553
 5639POPC   C2B11156  15.776  26.619   8.253
 5639POPC   C3B11157  15.784  26.582   7.953
 5639POPC   C4B11158  15.788  26.657   7.653
 5640POPC   NC311159  12.047  15.135   9.453
 5640POPC   PO411160  12.051  15.222   9.153
 5640POPC   GL111161  12.038  15.171   8.853
 5640POPC   GL211162  12.014  15.298   8.853
 5640POPC   C1A11163  12.099  15.200   8.553
 5640POPC   D2A11164  12.079  15.132   8.253
 5640POPC   C3A11165  12.110  15.173   7.953
 5640POPC   C4A11166  12.101  15.208   7.653
 5640POPC   C1B11167  11.908  15.386   8.553
 5640POPC   C2B11168  11.961  15.420   8.253
 5640POPC   C3B11169  11.952  15.375   7.953
 5640POPC   C4B11170  11.892  15.360   7.653
 5641POPC   NC311171  36.108   7.428   9.453
 5641POPC   PO411172  36.144   7.391   9.153
 5641POPC   GL111173  36.153   7.453   8.853
 5641POPC   GL211174  36.170   7.510   8.853
 5641POPC   C1A11175  36.139   7.405   8.553
 5641POPC   D2A11176  36.101   7.388   8.253
 5641POPC   C3A11177  36.176   7.374   7.953
 5641POPC   C4A11178  36.100   7.461   7.653
 5641POPC   C1B11179  36.319   7.626   8.553
 5641POPC   C2B11180  36.303   7.586   8.253
 5641POPC   C3B11181  36.289   7.617   7.953
 5641POPC   C4B11182  36.335   7.586   7.653
 5642POPC   NC311183  33.846  29.120   9.453
 5642POPC   PO411184  33.837  29.176   9.153
 5642POPC   GL111185  33.756  29.110   8.853
 5642POPC   GL211186  33.882  29.020   8.853
 5642POPC   C1A11187  33.756  29.157   8.553
 5642POPC   D2A11188  33.809  29.162   8.253
 5642POPC   C3A11189  33.796  29.174   7.953
 5642POPC   C4A11190  33.794  29.105   7.653
 5642POPC   C1B11191  34.002  28.972   8.553
 5642POPC   C2B11192  33.975  28.962   8.253
 5642POPC   C3B11193  33.947  29.001   7.953
 5642POPC   C4B11194  34.006  28.956   7.653
 5643POPC   NC311195  14.407  23.702   9.453
 5643POPC   PO411196  14.428  23.755   9.153
 5643POPC   GL111197  14.427  23.731   8.853
 5643POPC   GL211198  14.374  23.810   8.853
 5643POPC   C1A11199  14.431  23.757   8.553
 5643POPC   D2A11200  14.432  23.680   8.253
 5643POPC   C3A11201  14.449  23.691   7.953
 5643POPC   C4A11202  14.438  23.688   7.653
 5643POPC   C1B11203  14.378  23.984   8.553
 5643POPC   C2B11204  14.420  23.945   8.253
 5643POPC   C3B11205  14.395  23.921   7.953
 5643POPC   C4B11206  14.416  23.935   7.653
 5644POPC   NC311207  31.436  38.412   9.453
 5644POPC   PO411208  31.498  38.485   9.153
 5644POPC   GL111209  31.446  38.435   8.853
 5644POPC   GL211210  31.415  38.573   8.853
 5644POPC   C1A11211  31.505  38.422   8.553
 5644POPC   D2A11212  31.511  38.450   8.253
 5644POPC   C3A11213  31.501  38.431   7.953
 5644POPC   C4A11214  31.501  38.410   7.653
 5644POPC   C1B11215  31.445  38.709   8.553
 5644POPC   C2B11216  31.370  38.743   8.253
 5644POPC   C3B11217  31.406  38.648   7.953
 5644POPC   C4B11218  31.426  38.655   7.653
 5645POPC   NC311219  22.967   0.433   9.453
 5645POPC   PO411220  22.976   0.481   9.153
 5645POPC   GL111221  22.973   0.476   8.853
 5645POPC   GL211222  23.031   0.533   8.853
 5645POPC   C1A11223  22.958   0.447   8.553
 5645POPC   D2A11224  22.933   0.449   8.253
 5645POPC   C3A11225  22.955   0.420   7.953
 5645POPC   C4A11226  22.982   0.402   7.653
 5645POPC   C1B11227  23.139   0.538   8.553
 5645POPC   C2B11228  23.135   0.545   8.253
 5645POPC   C3B11229  23.170   0.558   7.953
 5645POPC   C4B11230  23.181   0.481   7.653
 5646POPC   NC311231  28.382  10.524   9.453
 5646POPC   PO411232  28.390  10.516   9.153
 5646POPC   GL111233  28.412  10.545   8.853
 5646POPC   GL211234  28.475  10.462   8.853
 5646POPC   C1A11235  28.402  10.565   8.553
 5646POPC   D2A11236  28.393  10.527   8.253
 5646POPC   C3A11237  28.368  10.508   7.953
 5646POPC   C4A11238  28.397  10.521   7.653
 5646POPC   C1B11239  28.622  10.428   8.553
 5646POPC   C2B11240  28.561  10.337   8.253
 5646POPC   C3B11241  28.606  10.419   7.953
 5646POPC   C4B11242  28.583  10.399   7.653
 5647POPC   NC311243  30.656  15.152   9.453
 5647POPC   PO411244  30.669  15.146   9.153
 5647POPC   GL111245  30.674  15.188   8.853
 5647POPC   GL211246  30.641  15.330   8.853
 5647POPC   C1A11247  30.742  15.155   8.553
 5647POPC   D2A11248  30.732  15.154   8.253
 5647POPC   C3A11249  30.698  15.217   7.953
 5647POPC   C4A11250  30.695  15.148   7.653
 5647POPC   C1B11251  30.558  15.352   8.553
 5647POPC   C2B11252  30.586  15.446   8.253
 5647POPC   C3B11253  30.554  15.389   7.953
 5647POPC   C4B11254  30.614  15.414   7.653
 5648POPC   NC311255  28.390  32.989   9.453
 5648POPC   PO411256  28.326  33.017   9.153
 5648POPC   GL111257  28.359  33.046   8.853
 5648POPC   GL211258  28.432  33.139   8.853
 5648POPC   C1A11259  28.405  33.004   8.553
 5648POPC   D2A11260  28.323  32.993   8.253
 5648POPC   C3A11261  28.331  33.029   7.953
 5648POPC   C4A11262  28.392  33.008   7.653
 5648POPC   C1B11263  28.501  33.273   8.553
 5648POPC   C2B11264  28.472  33.209   8.253
 5648POPC   C3B11265  28.492  33.270   7.953
 5648POPC   C4B11266  28.503  33.221   7.653
 5649POPC   NC311267  10.528   1.979   9.453
 5649POPC   PO411268  10.520   1.966   9.153
 5649POPC   GL111269  10.543   1.970   8.853
 5649POPC   GL211270  10.673   2.099   8.853
 5649POPC   C1A11271  10.496   2.030   8.553
 5649POPC   D2A11272  10.512   1.955   8.253
 5649POPC   C3A11273  10.569   1.947   7.953
 5649POPC   C4A11274  10.555   1.971   7.653
 5649POPC   C1B11275  10.678   2.180   8.553
 5649POPC   C2B11276  10.699   2.106   8.253
 5649POPC   C3B11277  10.700   2.165   7.953
 5649POPC   C4B11278  10.705   2.144   7.653
 5650POPC   NC311279   1.196   4.293   9.453
 5650POPC   PO411280   1.202   4.320   9.153
 5650POPC   GL111281   1.236   4.354   8.853
 5650POPC   GL211282   1.133   4.388   8.853
 5650POPC   C1A11283   1.195   4.317   8.553
 5650POPC   D2A11284   1.232   4.350   8.253
 5650POPC   C3A11285   1.177   4.361   7.953
 5650POPC   C4A11286   1.173   4.290   7.653
 5650POPC   C1B11287   0.978   4.351   8.553
 5650POPC   C2B11288   0.927   4.413   8.253
 5650POPC   C3B11289   0.972   4.353   7.953
 5650POPC   C4B11290   1.008   4.364   7.653
 5651POPC   NC311291  34.600   3.535   9.453
 5651POPC   PO411292  34.529   3.520   9.153
 5651POPC   GL111293  34.563   3.493   8.853
 5651POPC   GL211294  34.563   3.405   8.853
 5651POPC   C1A11295  34.544   3.526   8.553
 5651POPC   D2A11296  34.548   3.542   8.253
 5651POPC   C3A11297  34.611   3.519   7.953
 5651POPC   C4A11298  34.577   3.538   7.653
 5651POPC   C1B11299  34.492   3.275   8.553
 5651POPC   C2B11300  34.530   3.299   8.253
 5651POPC   C3B11301  34.476   3.268   7.953
 5651POPC   C4B11302  34.520   3.291   7.653
 5652POPC   NC311303   5.110  42.351   9.453
 5652POPC   PO411304   5.136  42.301   9.153
 5652POPC   GL111305   5.113  42.300   8.853
 5652POPC   GL211306   5.150  42.209   8.853
 5652POPC   C1A11307   5.044  42.318   8.553
 5652POPC   D2A11308   5.073  42.353   8.253
 5652POPC   C3A11309   5.062  42.308   7.953
 5652POPC   C4A11310   5.111  42.358   7.653
 5652POPC   C1B11311   5.256  42.162   8.553
 5652POPC   C2B11312   5.188  42.076   8.253
 5652POPC   C3B11313   5.258  42.156   7.953
 5652POPC   C4B11314   5.197  42.102   7.653
 5653POPC   NC311315   4.289   7.464   9.453
 5653POPC   PO411316   4.300   7.408   9.153
 5653POPC   GL111317   4.306   7.415   8.853
 5653POPC   GL211318   4.254   7.538   8.853
 5653POPC   C1A11319   4.316   7.395   8.553
 5653POPC   D2A11320   4.306   7.438   8.253
 5653POPC   C3A11321   4.353   7.380   7.953
 5653POPC   C4A11322   4.345   7.460   7.653
 5653POPC   C1B11323   4.150   7.589   8.553
 5653POPC   C2B11324   4.170   7.649   8.253
 5653POPC   C3B11325   4.153   7.612   7.953
 5653POPC   C4B11326   4.220   7.645   7.653
 5654POPC   NC311327  38.478  12.057   9.453
 5654POPC   PO411328  38.458  12.112   9.153
 5654POPC   GL111329  38.453  12.089   8.853
 5654POPC   GL211330  38.557  12.033   8.853
 5654POPC   C1A11331  38.486  12.049   8.553
 5654POPC   D2A11332  38.495  12.038   8.253
 5654POPC   C3A11333  38.439  12.027   7.953
 5654POPC   C4A11334  38.489  12.070   7.653
 5654POPC   C1B11335  38.630  11.924   8.553
 5654POPC   C2B11336  38.652  11.916   8.253
 5654POPC   C3B11337  38.583  11.904   7.953
 5654POPC   C4B11338  38.586  11.905   7.653
 5655POPC   NC311339  17.509  36.168   9.453
 5655POPC   PO411340  17.493  36.098   9.153
 5655POPC   GL111341  17.539  36.117   8.853
 5655POPC   GL211342  17.338  36.148   8.853
 5655POPC   C1A11343  17.508  36.103   8.553
 5655POPC   D2A11344  17.543  36.149   8.253
 5655POPC   C3A11345  17.521  36.110   7.953
 5655POPC   C4A11346  17.487  36.097   7.653
 5655POPC   C1B11347  17.251  36.214   8.553
 5655POPC   C2B11348  17.219  36.179   8.253
 5655POPC   C3B11349  17.279  36.173   7.953
 5655POPC   C4B11350  17.278  36.207   7.653
 5656POPC   NC311351  36.162   9.709   9.453
 5656POPC   PO411352  36.101   9.768   9.153
 5656POPC   GL111353  36.128   9.759   8.853
 5656POPC   GL211354  36.257   9.763   8.853
 5656POPC   C1A11355  36.126   9.779   8.553
 5656POPC   D2A11356  36.082   9.758   8.253
 5656POPC   C3A11357  36.081   9.737   7.953
 5656POPC   C4A11358  36.136   9.790   7.653
 5656POPC   C1B11359  36.357   9.895   8.553
 5656POPC   C2B11360  36.366   9.903   8.253
 5656POPC   C3B11361  36.355   9.841   7.953
 5656POPC   C4B11362  36.372   9.882   7.653
 5657POPC   NC311363  22.135  21.402   9.453
 5657POPC   PO411364  22.127  21.381   9.153
 5657POPC   GL111365  22.208  21.359   8.853
 5657POPC   GL211366  22.033  21.321   8.853
 5657POPC   C1A11367  22.184  21.398   8.553
 5657POPC   D2A11368  22.211  21.416   8.253
 5657POPC   C3A11369  22.184  21.355   7.953
 5657POPC   C4A11370  22.184  21.347   7.653
 5657POPC   C1B11371  21.975  21.230   8.553
 5657POPC   C2B11372  21.933  21.236   8.253
 5657POPC   C3B11373  21.975  21.275   7.953
 5657POPC   C4B11374  21.905  21.267   7.653
 5658POPC   NC311375  17.511   1.239   9.453
 5658POPC   PO411376  17.517   1.213   9.153
 5658POPC   GL111377  17.533   1.176   8.853
 5658POPC   GL211378  17.434   1.300   8.853
 5658POPC   C1A11379  17.462   1.253   8.553
 5658POPC   D2A11380  17.535   1.201   8.253
 5658POPC   C3A11381  17.540   1.259   7.953
 5658POPC   C4A11382  17.501   1.193   7.653
 5658POPC   C1B11383  17.276   1.324   8.553
 5658POPC   C2B11384  17.310   1.334   8.253
 5658POPC   C3B11385  17.323   1.261   7.953
 5658POPC   C4B11386  17.241   1.262   7.653
 5659POPC   NC311387  29.168  33.772   9.453
 5659POPC   PO411388  29.189  33.793   9.153
 5659POPC   GL111389  29.157  33.840   8.853
 5659POPC   GL211390  29.228  33.739   8.853
 5659POPC   C1A11391  29.139  33.763   8.553
 5659POPC   D2A11392  29.157  33.797   8.253
 5659POPC   C3A11393  29.162  33.777   7.953
 5659POPC   C4A11394  29.153  33.774   7.653
 5659POPC   C1B11395  29.399  33.745   8.553
 5659POPC   C2B11396  29.357  33.721   8.253
 5659POPC   C3B11397  29.425  33.739   7.953
 5659POPC   C4B11398  29.388  33.712   7.653
 5660POPC   NC311399  19.824   2.719   9.453
 5660POPC   PO411400  19.869   2.781   9.153
 5660POPC   GL111401  19.800   2.744   8.853
 5660POPC   GL211402  19.937   2.726   8.853
 5660POPC   C1A11403  19.849   2.813   8.553
 5660POPC   D2A11404  19.787   2.751   8.253
 5660POPC   C3A11405  19.846   2.792   7.953
 5660POPC   C4A11406  19.801   2.737   7.653
 5660POPC   C1B11407  20.086   2.785   8.553
 5660POPC   C2B11408  20.085   2.754   8.253
 5660POPC   C3B11409  20.114   2.815   7.953
 5660POPC   C4B11410  20.038   2.765   7.653
 5661POPC   NC311411  43.898   8.196   9.453
 5661POPC   PO411412  43.841   8.213   9.153
 5661POPC   GL111413  43.895   8.221   8.853
 5661POPC   GL211414  43.900   8.070   8.853
 5661POPC   C1A11415  43.899   8.246   8.553
 5661POPC   D2A11416  43.924   8.221   8.253
 5661POPC   C3A11417  43.913   8.174   7.953
 5661POPC   C4A11418  43.844   8.223   7.653
 5661POPC   C1B11419  43.874   7.930   8.553
 5661POPC   C2B11420  43.924   7.914   8.253
 5661POPC   C3B11421  43.887   7.922   7.953
 5661POPC   C4B11422  43.927   7.987   7.653
 5662POPC   NC311423  35.396  35.393   9.453
 5662POPC   PO411424  35.305  35.398   9.153
 5662POPC   GL111425  35.372  35.391   8.853
 5662POPC   GL211426  35.407  35.517   8.853
 5662POPC   C1A11427  35.312  35.380   8.553
 5662POPC   D2A11428  35.370  35.331   8.253
 5662POPC   C3A11429  35.312  35.362   7.953
 5662POPC   C4A11430  35.373  35.386   7.653
 5662POPC   C1B11431  35.430  35.573   8.553
 5662POPC   C2B11432  35.428  35.614   8.253
 5662POPC   C3B11433  35.350  35.637   7.953
 5662POPC   C4B11434  35.345  35.617   7.653
 5663POPC   NC311435  36.144   2.758   9.453
 5663POPC   PO411436  36.122   2.809   9.153
 5663POPC   GL111437  36.109   2.761   8.853
 5663POPC   GL211438  36.116   2.625   8.853
 5663POPC   C1A11439  36.136   2.731   8.553
 5663POPC   D2A11440  36.140   2.811   8.253
 5663POPC   C3A11441  36.147   2.733   7.953
 5663POPC   C4A11442  36.170   2.765   7.653
 5663POPC   C1B11443  36.167   2.534   8.553
 5663POPC   C2B11444  36.212   2.475   8.253
 5663POPC   C3B11445  36.207   2.475   7.953
 5663POPC   C4B11446  36.197   2.536   7.653
 5664POPC   NC311447  16.711  28.408   9.453
 5664POPC   PO411448  16.731  28.339   9.153
 5664POPC   GL111449  16.749  28.353   8.853
 5664POPC   GL211450  16.759  28.486   8.853
 5664POPC   C1A11451  16.682  28.374   8.553
 5664POPC   D2A11452  16.754  28.323   8.253
 5664POPC   C3A11453  16.755  28.364   7.953
 5664POPC   C4A11454  16.690  28.374   7.653
 5664POPC   C1B11455  16.818  28.635   8.553
 5664POPC   C2B11456  16.857  28.570   8.253
 5664POPC   C3B11457  16.838  28.628   7.953
 5664POPC   C4B11458  16.804  28.602   7.653
 5665POPC   NC311459  12.860  39.255   9.453
 5665POPC   PO411460  12.872  39.220   9.153
 5665POPC   GL111461  12.812  39.229   8.853
 5665POPC   GL211462  12.814  39.109   8.853
 5665POPC   C1A11463  12.889  39.216   8.553
 5665POPC   D2A11464  12.860  39.254   8.253
 5665POPC   C3A11465  12.804  39.214   7.953
 5665POPC   C4A11466  12.878  39.281   7.653
 5665POPC   C1B11467  12.772  39.008   8.553
 5665POPC   C2B11468  12.789  38.995   8.253
 5665POPC   C3B11469  12.770  39.027   7.953
 5665POPC   C4B11470  12.850  39.019   7.653
 5666POPC   NC311471  23.701  14.362   9.453
 5666POPC   PO411472  23.714  14.451   9.153
 5666POPC   GL111473  23.744  14.381   8.853
 5666POPC   GL211474  23.848  14.410   8.853
 5666POPC   C1A11475  23.718  14.359   8.553
 5666POPC   D2A11476  23.698  14.375   8.253
 5666POPC   C3A11477  23.734  14.445   7.953
 5666POPC   C4A11478  23.683  14.427   7.653
 5666POPC   C1B11479  23.976  14.419   8.553
 5666POPC   C2B11480  23.966  14.437   8.253
 5666POPC   C3B11481  23.970  14.435   7.953
 5666POPC   C4B11482  23.941  14.450   7.653
 5667POPC   NC311483  36.120  26.842   9.453
 5667POPC   PO411484  36.148  26.791   9.153
 5667POPC   GL111485  36.133  26.808   8.853
 5667POPC   GL211486  36.067  26.652   8.853
 5667POPC   C1A11487  36.169  26.783   8.553
 5667POPC   D2A11488  36.087  26.867   8.253
 5667POPC   C3A11489  36.158  26.841   7.953
 5667POPC   C4A11490  36.123  26.831   7.653
 5667POPC   C1B11491  36.103  26.565   8.553
 5667POPC   C2B11492  36.132  26.574   8.253
 5667POPC   C3B11493  36.135  26.580   7.953
 5667POPC   C4B11494  36.110  26.530   7.653
 5668POPC   NC311495   9.725  21.378   9.453
 5668POPC   PO411496   9.701  21.390   9.153
 5668POPC   GL111497   9.731  21.340   8.853
 5668POPC   GL211498   9.762  21.236   8.853
 5668POPC   C1A11499   9.719  21.419   8.553
 5668POPC   D2A11500   9.784  21.368   8.253
 5668POPC   C3A11501   9.763  21.398   7.953
 5668POPC   C4A11502   9.759  21.401   7.653
 5668POPC   C1B11503   9.757  21.185   8.553
 5668POPC   C2B11504   9.731  21.164   8.253
 5668POPC   C3B11505   9.736  21.135   7.953
 5668POPC   C4B11506   9.722  21.180   7.653
 5669POPC   NC311507   2.770  37.696   9.453
 5669POPC   PO411508   2.740  37.713   9.153
 5669POPC   GL111509   2.722  37.647   8.853
 5669POPC   GL211510   2.780  37.568   8.853
 5669POPC   C1A11511   2.730  37.684   8.553
 5669POPC   D2A11512   2.731  37.694   8.253
 5669POPC   C3A11513   2.810  37.661   7.953
 5669POPC   C4A11514   2.801  37.724   7.653
 5669POPC   C1B11515   2.822  37.479   8.553
 5669POPC   C2B11516   2.865  37.473   8.253
 5669POPC   C3B11517   2.816  37.462   7.953
 5669POPC   C4B11518   2.865  37.430   7.653
 5670POPC   NC311519   3.519   0.460   9.453
 5670POPC   PO411520   3.539   0.454   9.153
 5670POPC   GL111521   3.500   0.395   8.853
 5670POPC   GL211522   3.577   0.375   8.853
 5670POPC   C1A11523   3.524   0.465   8.553
 5670POPC   D2A11524   3.581   0.423   8.253
 5670POPC   C3A11525   3.582   0.464   7.953
 5670POPC   C4A11526   3.541   0.449   7.653
 5670POPC   C1B11527   3.684   0.245   8.553
 5670POPC   C2B11528   3.672   0.254   8.253
 5670POPC   C3B11529   3.669   0.244   7.953
 5670POPC   C4B11530   3.707   0.198   7.653
 5671POPC   NC311531  22.136  17.531   9.453
 5671POPC   PO411532  22.133  17.537   9.153
 5671POPC   GL111533  22.165  17.494   8.853
 5671POPC   GL211534  22.274  17.470   8.853
 5671POPC   C1A11535  22.194  17.554   8.553
 5671POPC   D2A11536  22.147  17.528   8.253
 5671POPC   C3A11537  22.164  17.464   7.953
 5671POPC   C4A11538  22.139  17.468   7.653
 5671POPC   C1B11539  22.418  17.524   8.553
 5671POPC   C2B11540  22.372  17.530   8.253
 5671POPC   C3B11541  22.452  17.521   7.953
 5671POPC   C4B11542  22.443  17.559   7.653
 5672POPC   NC311543  36.914   4.354   9.453
 5672POPC   PO411544  36.884   4.323   9.153
 5672POPC   GL111545  36.858   4.356   8.853
 5672POPC   GL211546  36.971   4.391   8.853
 5672POPC   C1A11547  36.862   4.311   8.553
 5672POPC   D2A11548  36.925   4.287   8.253
 5672POPC   C3A11549  36.878   4.364   7.953
 5672POPC   C4A11550  36.937   4.339   7.653
 5672POPC   C1B11551  37.081   4.457   8.553
 5672POPC   C2B11552  37.079   4.437   8.253
 5672POPC   C3B11553  37.076   4.405   7.953
 5672POPC   C4B11554  37.145   4.470   7.653
 5673POPC   NC311555  43.852  15.991   9.453
 5673POPC   PO411556  43.873  15.990   9.153
 5673POPC   GL111557  43.911  15.950   8.853
 5673POPC   GL211558  43.844  16.045   8.853
 5673POPC   C1A11559  43.837  16.003   8.553
 5673POPC   D2A11560  43.854  15.931   8.253
 5673POPC   C3A11561  43.904  15.963   7.953
 5673POPC   C4A11562  43.900  15.955   7.653
 5673POPC   C1B11563  43.794  16.175   8.553
 5673POPC   C2B11564  43.812  16.228   8.253
 5673POPC   C3B11565  43.811  16.218   7.953
 5673POPC   C4B11566  43.808  16.243   7.653
 5674POPC   NC311567  11.340  43.845   9.453
 5674POPC   PO411568  11.336  43.883   9.153
 5674POPC   GL111569  11.349  43.894   8.853
 5674POPC   GL211570  11.202  43.927   8.853
 5674POPC   C1A11571  11.346  43.862   8.553
 5674POPC   D2A11572  11.325  43.912   8.253
 5674POPC   C3A11573  11.280  43.905   7.953
 5674POPC   C4A11574  11.268  43.901   7.653
 5674POPC   C1B11575  11.089  44.012   8.553
 5674POPC   C2B11576  11.064  44.023   8.253
 5674POPC   C3B11577  11.090  43.962   7.953
 5674POPC   C4B11578  11.040  43.941   7.653
 5675POPC   NC311579  28.366  40.036   9.453
 5675POPC   PO411580  28.334  40.031   9.153
 5675POPC   GL111581  28.397  40.055   8.853
 5675POPC   GL211582  28.223  40.093   8.853
 5675POPC   C1A11583  28.346  40.016   8.553
 5675POPC   D2A11584  28.401  39.992   8.253
 5675POPC   C3A11585  28.384  39.975   7.953
 5675POPC   C4A11586  28.379  40.019   7.653
 5675POPC   C1B11587  28.118  40.106   8.553
 5675POPC   C2B11588  28.136  40.155   8.253
 5675POPC   C3B11589  28.189  40.099   7.953
 5675POPC   C4B11590  28.177  40.113   7.653
 5676POPC   NC311591   7.453  41.534   9.453
 5676POPC   PO411592   7.400  41.582   9.153
 5676POPC   GL111593   7.447  41.570   8.853
 5676POPC   GL211594   7.379  41.397   8.853
 5676POPC   C1A11595   7.470  41.565   8.553
 5676POPC   D2A11596   7.397  41.514   8.253
 5676POPC   C3A11597   7.387  41.543   7.953
 5676POPC   C4A11598   7.447  41.592   7.653
 5676POPC   C1B11599   7.354  41.300   8.553
 5676POPC   C2B11600   7.428  41.315   8.253
 5676POPC   C3B11601   7.393  41.358   7.953
 5676POPC   C4B11602   7.369  41.266   7.653
 5677POPC   NC311603  18.333  39.997   9.453
 5677POPC   PO411604  18.266  40.009   9.153
 5677POPC   GL111605  18.304  40.009   8.853
 5677POPC   GL211606  18.316  39.835   8.853
 5677POPC   C1A11607  18.281  40.025   8.553
 5677POPC   D2A11608  18.298  39.991   8.253
 5677POPC   C3A11609  18.291  40.048   7.953
 5677POPC   C4A11610  18.303  39.980   7.653
 5677POPC   C1B11611  18.282  39.794   8.553
 5677POPC   C2B11612  18.276  39.717   8.253
 5677POPC   C3B11613  18.283  39.781   7.953
 5677POPC   C4B11614  18.297  39.733   7.653
 5678POPC   NC311615  31.458  10.477   9.453
 5678POPC   PO411616  31.431  10.519   9.153
 5678POPC   GL111617  31.432  10.544   8.853
 5678POPC   GL211618  31.551  10.561   8.853
 5678POPC   C1A11619  31.442  10.516   8.553
 5678POPC   D2A11620  31.490  10.515   8.253
 5678POPC   C3A11621  31.428  10.543   7.953
 5678POPC   C4A11622  31.435  10.490   7.653
 5678POPC   C1B11623  31.669  10.732   8.553
 5678POPC   C2B11624  31.667  10.676   8.253
 5678POPC   C3B11625  31.631  10.688   7.953
 5678POPC   C4B11626  31.680  10.664   7.653
 5679POPC   NC311627  33.761  13.623   9.453
 5679POPC   PO411628  33.794  13.583   9.153
 5679POPC   GL111629  33.824  13.642   8.853
 5679POPC   GL211630  33.795  13.708   8.853
 5679POPC   C1A11631  33.765  13.603   8.553
 5679POPC   D2A11632  33.789  13.606   8.253
 5679POPC   C3A11633  33.776  13.670   7.953
 5679POPC   C4A11634  33.781  13.591   7.653
 5679POPC   C1B11635  33.870  13.855   8.553
 5679POPC   C2B11636  33.904  13.884   8.253
 5679POPC   C3B11637  33.862  13.893   7.953
 5679POPC   C4B11638  33.930  13.840   7.653
 5680POPC   NC311639  22.123  43.851   9.453
 5680POPC   PO411640  22.164  43.853   9.153
 5680POPC   GL111641  22.162  43.903   8.853
 5680POPC   GL211642  22.091  44.024   8.853
 5680POPC   C1A11643  22.198  43.898   8.553
 5680POPC   D2A11644  22.175  43.932   8.253
 5680POPC   C3A11645  22.148  43.927   7.953
 5680POPC   C4A11646  22.167  43.853   7.653
 5680POPC   C1B11647  22.003  44.044   8.553
 5680POPC   C2B11648  21.959  44.023   8.253
 5680POPC   C3B11649  21.945  44.063   7.953
 5680POPC   C4B11650  22.019  44.077   7.653
 5681POPC   NC311651   6.678  10.541   9.453
 5681POPC   PO411652   6.650  10.531   9.153
 5681POPC   GL111653   6.644  10.519   8.853
 5681POPC   GL211654   6.535  10.592   8.853
 5681POPC   C1A11655   6.601  10.508   8.553
 5681POPC   D2A11656   6.616  10.528   8.253
 5681POPC   C3A11657   6.645  10.506   7.953
 5681POPC   C4A11658   6.655  10.532   7.653
 5681POPC   C1B11659   6.531  10.705   8.553
 5681POPC   C2B11660   6.507  10.699   8.253
 5681POPC   C3B11661   6.441  10.684   7.953
 5681POPC   C4B11662   6.527  10.708   7.653
 5682POPC   NC311663  38.499  41.576   9.453
 5682POPC   PO411664  38.479  41.515   9.153
 5682POPC   GL111665  38.479  41.542   8.853
 5682POPC   GL211666  38.617  41.511   8.853
 5682POPC   C1A11667  38.438  41.546   8.553
 5682POPC   D2A11668  38.474  41.519   8.253
 5682POPC   C3A11669  38.408  41.589   7.953
 5682POPC   C4A11670  38.475  41.601   7.653
 5682POPC   C1B11671  38.721  41.517   8.553
 5682POPC   C2B11672  38.675  41.542   8.253
 5682POPC   C3B11673  38.699  41.512   7.953
 5682POPC   C4B11674  38.681  41.501   7.653
 5683POPC   NC311675  22.953  21.405   9.453
 5683POPC   PO411676  22.947  21.374   9.153
 5683POPC   GL111677  22.896  21.366   8.853
 5683POPC   GL211678  22.946  21.495   8.853
 5683POPC   C1A11679  22.892  21.390   8.553
 5683POPC   D2A11680  22.969  21.429   8.253
 5683POPC   C3A11681  22.942  21.390   7.953
 5683POPC   C4A11682  22.891  21.339   7.653
 5683POPC   C1B11683  22.866  21.655   8.553
 5683POPC   C2B11684  22.833  21.595   8.253
 5683POPC   C3B11685  22.844  21.654   7.953
 5683POPC   C4B11686  22.878  21.662   7.653
 5684POPC   NC311687   5.886  36.936   9.453
 5684POPC   PO411688   5.844  36.930   9.153
 5684POPC   GL111689   5.899  36.926   8.853
 5684POPC   GL211690   5.747  37.027   8.853
 5684POPC   C1A11691   5.892  36.869   8.553
 5684POPC   D2A11692   5.906  36.872   8.253
 5684POPC   C3A11693   5.873  36.910   7.953
 5684POPC   C4A11694   5.862  36.881   7.653
 5684POPC   C1B11695   5.730  37.104   8.553
 5684POPC   C2B11696   5.745  37.074   8.253
 5684POPC   C3B11697   5.740  37.121   7.953
 5684POPC   C4B11698   5.681  37.112   7.653
 5685POPC   NC311699  40.037  25.285   9.453
 5685POPC   PO411700  39.991  25.277   9.153
 5685POPC   GL111701  40.052  25.278   8.853
 5685POPC   GL211702  40.034  25.341   8.853
 5685POPC   C1A11703  39.980  25.243   8.553
 5685POPC   D2A11704  40.047  25.229   8.253
 5685POPC   C3A11705  40.015  25.297   7.953
 5685POPC   C4A11706  40.047  25.247   7.653
 5685POPC   C1B11707  39.958  25.537   8.553
 5685POPC   C2B11708  39.983  25.538   8.253
 5685POPC   C3B11709  40.000  25.550   7.953
 5685POPC   C4B11710  40.006  25.547   7.653
 5686POPC   NC311711  22.947   6.659   9.453
 5686POPC   PO411712  22.940   6.684   9.153
 5686POPC   GL111713  22.895   6.651   8.853
 5686POPC   GL211714  22.858   6.511   8.853
 5686POPC   C1A11715  22.933   6.677   8.553
 5686POPC   D2A11716  22.909   6.650   8.253
 5686POPC   C3A11717  22.905   6.679   7.953
 5686POPC   C4A11718  22.944   6.661   7.653
 5686POPC   C1B11719  22.807   6.432   8.553
 5686POPC   C2B11720  22.811   6.423   8.253
 5686POPC   C3B11721  22.755   6.438   7.953
 5686POPC   C4B11722  22.737   6.455   7.653
 5687POPC   NC311723  35.320  22.959   9.453
 5687POPC   PO411724  35.336  22.951   9.153
 5687POPC   GL111725  35.359  22.933   8.853
 5687POPC   GL211726  35.365  23.054   8.853
 5687POPC   C1A11727  35.350  22.929   8.553
 5687POPC   D2A11728  35.307  22.983   8.253
 5687POPC   C3A11729  35.320  22.929   7.953
 5687POPC   C4A11730  35.315  22.908   7.653
 5687POPC   C1B11731  35.447  23.200   8.553
 5687POPC   C2B11732  35.405  23.137   8.253
 5687POPC   C3B11733  35.469  23.143   7.953
 5687POPC   C4B11734  35.439  23.129   7.653
 5688POPC   NC311735  22.159  40.039   9.453
 5688POPC   PO411736  22.138  39.993   9.153
 5688POPC   GL111737  22.197  40.039   8.853
 5688POPC   GL211738  22.181  40.140   8.853
 5688POPC   C1A11739  22.174  39.999   8.553
 5688POPC   D2A11740  22.177  40.030   8.253
 5688POPC   C3A11741  22.182  40.018   7.953
 5688POPC   C4A11742  22.156  40.003   7.653
 5688POPC   C1B11743  22.254  40.224   8.553
 5688POPC   C2B11744  22.181  40.270   8.253
 5688POPC   C3B11745  22.246  40.281   7.953
 5688POPC   C4B11746  22.228  40.298   7.653
 5689POPC   NC311747   7.451  24.471   9.453
 5689POPC   PO411748   7.381  24.534   9.153
 5689POPC   GL111749   7.423  24.537   8.853
 5689POPC   GL211750   7.483  24.627   8.853
 5689POPC   C1A11751   7.429  24.490   8.553
 5689POPC   D2A11752   7.413  24.473   8.253
 5689POPC   C3A11753   7.404  24.459   7.953
 5689POPC   C4A11754   7.375  24.474   7.653
 5689POPC   C1B11755   7.591  24.649   8.553
 5689POPC   C2B11756   7.582  24.698   8.253
 5689POPC   C3B11757   7.570  24.675   7.953
 5689POPC   C4B11758   7.561  24.690   7.653
 5690POPC   NC311759  35.391  36.891   9.453
 5690POPC   PO411760  35.324  36.913   9.153
 5690POPC   GL111761  35.319  36.926   8.853
 5690POPC   GL211762  35.291  36.938   8.853
 5690POPC   C1A11763  35.302  36.896   8.553
 5690POPC   D2A11764  35.377  36.913   8.253
 5690POPC   C3A11765  35.346  36.867   7.953
 5690POPC   C4A11766  35.386  36.883   7.653
 5690POPC   C1B11767  35.098  37.035   8.553
 5690POPC   C2B11768  35.175  37.060   8.253
 5690POPC   C3B11769  35.154  37.028   7.953
 5690POPC   C4B11770  35.120  37.010   7.653
 5691POPC   NC311771  28.357  12.893   9.453
 5691POPC   PO411772  28.414  12.844   9.153
 5691POPC   GL111773  28.343  12.861   8.853
 5691POPC   GL211774  28.447  12.806   8.853
 5691POPC   C1A11775  28.353  12.810   8.553
 5691POPC   D2A11776  28.401  12.888   8.253
 5691POPC   C3A11777  28.364  12.882   7.953
 5691POPC   C4A11778  28.375  12.868   7.653
 5691POPC   C1B11779  28.598  12.910   8.553
 5691POPC   C2B11780  28.599  12.884   8.253
 5691POPC   C3B11781  28.591  12.820   7.953
 5691POPC   C4B11782  28.583  12.816   7.653
 5692POPC   NC311783  31.501  43.846   9.453
 5692POPC   PO411784  31.427  43.861   9.153
 5692POPC   GL111785  31.466  43.851   8.853
 5692POPC   GL211786  31.534  44.002   8.853
 5692POPC   C1A11787  31.484  43.930   8.553
 5692POPC   D2A11788  31.452  43.880   8.253
 5692POPC   C3A11789  31.512  43.904   7.953
 5692POPC   C4A11790  31.441  43.885   7.653
 5692POPC   C1B11791  31.493  44.096   8.553
 5692POPC   C2B11792  31.534  44.113   8.253
 5692POPC   C3B11793  31.562  44.130   7.953
 5692POPC   C4B11794  31.518  44.136   7.653
 5693POPC   NC311795   2.748  22.966   9.453
 5693POPC   PO411796   2.780  22.956   9.153
 5693POPC   GL111797   2.741  22.931   8.853
 5693POPC   GL211798   2.637  22.901   8.853
 5693POPC   C1A11799   2.723  22.916   8.553
 5693POPC   D2A11800   2.748  22.889   8.253
 5693POPC   C3A11801   2.721  22.944   7.953
 5693POPC   C4A11802   2.773  22.973   7.653
 5693POPC   C1B11803   2.537  22.921   8.553
 5693POPC   C2B11804   2.549  23.004   8.253
 5693POPC   C3B11805   2.564  22.979   7.953
 5693POPC   C4B11806   2.471  22.936   7.653
 5694POPC   NC311807  44.689  19.823   9.453
 5694POPC   PO411808  44.688  19.803   9.153
 5694POPC   GL111809  44.697  19.859   8.853
 5694POPC   GL211810  44.567  19.835   8.853
 5694POPC   C1A11811  44.689  19.787   8.553
 5694POPC   D2A11812  44.701  19.849   8.253
 5694POPC   C3A11813  44.641  19.842   7.953
 5694POPC   C4A11814  44.667  19.864   7.653
 5694POPC   C1B11815  44.407  19.938   8.553
 5694POPC   C2B11816  44.381  19.869   8.253
 5694POPC   C3B11817  44.432  19.902   7.953
 5694POPC   C4B11818  44.439  19.860   7.653
 5695POPC   NC311819  35.324  22.162   9.453
 5695POPC   PO411820  35.353  22.169   9.153
 5695POPC   GL111821  35.313  22.142   8.853
 5695POPC   GL211822  35.274  22.027   8.853
 5695POPC   C1A11823  35.357  22.133   8.553
 5695POPC   D2A11824  35.401  22.154   8.253
 5695POPC   C3A11825  35.338  22.138   7.953
 5695POPC   C4A11826  35.372  22.179   7.653
 5695POPC   C1B11827  35.177  21.996   8.553
 5695POPC   C2B11828  35.152  21.991   8.253
 5695POPC   C3B11829  35.156  21.946   7.953
 5695POPC   C4B11830  35.206  21.953   7.653
 5696POPC   NC311831  36.156   1.190   9.453
 5696POPC   PO411832  36.151   1.212   9.153
 5696POPC   GL111833  36.175   1.190   8.853
 5696POPC   GL211834  36.293   1.222   8.853
 5696POPC   C1A11835  36.163   1.260   8.553
 5696POPC   D2A11836  36.132   1.263   8.253
 5696POPC   C3A11837  36.144   1.172   7.953
 5696POPC   C4A11838  36.133   1.248   7.653
 5696POPC   C1B11839  36.332   1.252   8.553
 5696POPC   C2B11840  36.339   1.187   8.253
 5696POPC   C3B11841  36.329   1.198   7.953
 5696POPC   C4B11842  36.426   1.216   7.653
 5697POPC   NC311843  26.860   8.217   9.453
 5697POPC   PO411844  26.835   8.186   9.153
 5697POPC   GL111845  26.836   8.184   8.853
 5697POPC   GL211846  26.874   8.108   8.853
 5697POPC   C1A11847  26.786   8.218   8.553
 5697POPC   D2A11848  26.807   8.168   8.253
 5697POPC   C3A11849  26.779   8.202   7.953
 5697POPC   C4A11850  26.793   8.199   7.653
 5697POPC   C1B11851  26.959   7.987   8.553
 5697POPC   C2B11852  26.953   7.970   8.253
 5697POPC   C3B11853  26.892   7.999   7.953
 5697POPC   C4B11854  26.904   7.943   7.653
 5698POPC   NC311855  40.745  30.708   9.453
 5698POPC   PO411856  40.760  30.688   9.153
 5698POPC   GL111857  40.775  30.678   8.853
 5698POPC   GL211858  40.853  30.600   8.853
 5698POPC   C1A11859  40.744  30.744   8.553
 5698POPC   D2A11860  40.817  30.706   8.253
 5698POPC   C3A11861  40.750  30.673   7.953
 5698POPC   C4A11862  40.796  30.730   7.653
 5698POPC   C1B11863  40.971  30.566   8.553
 5698POPC   C2B11864  40.946  30.592   8.253
 5698POPC   C3B11865  40.960  30.530   7.953
 5698POPC   C4B11866  40.948  30.536   7.653
 5699POPC   NC311867  40.788   8.225   9.453
 5699POPC   PO411868  40.757   8.209   9.153
 5699POPC   GL111869  40.733   8.230   8.853
 5699POPC   GL211870  40.707   8.229   8.853
 5699POPC   C1A11871  40.775   8.208   8.553
 5699POPC   D2A11872  40.746   8.187   8.253
 5699POPC   C3A11873  40.806   8.224   7.953
 5699POPC   C4A11874  40.764   8.173   7.653
 5699POPC   C1B11875  40.522   8.239   8.553
 5699POPC   C2B11876  40.563   8.169   8.253
 5699POPC   C3B11877  40.564   8.202   7.953
 5699POPC   C4B11878  40.514   8.236   7.653
 5700POPC   NC311879  21.400   1.967   9.453
 5700POPC   PO411880  21.403   2.012   9.153
 5700POPC   GL111881  21.352   2.027   8.853
 5700POPC   GL211882  21.453   1.894   8.853
 5700POPC   C1A11883  21.399   1.958   8.553
 5700POPC   D2A11884  21.340   2.037   8.253
 5700POPC   C3A11885  21.401   1.995   7.953
 5700POPC   C4A11886  21.388   1.995   7.653
 5700POPC   C1B11887  21.507   1.821   8.553
 5700POPC   C2B11888  21.499   1.762   8.253
 5700POPC   C3B11889  21.551   1.791   7.953
 5700POPC   C4B11890  21.531   1.816   7.653
 5701POPC   NC311891  22.155  25.300   9.453
 5701POPC   PO411892  22.167  25.242   9.153
 5701POPC   GL111893  22.193  25.296   8.853
 5701POPC   GL211894  22.011  25.261   8.853
 5701POPC   C1A11895  22.127  25.301   8.553
 5701POPC   D2A11896  22.132  25.257   8.253
 5701POPC   C3A11897  22.182  25.315   7.953
 5701POPC   C4A11898  22.160  25.272   7.653
 5701POPC   C1B11899  21.922  25.192   8.553
 5701POPC   C2B11900  21.949  25.155   8.253
 5701POPC   C3B11901  21.957  25.120   7.953
 5701POPC   C4B11902  21.978  25.149   7.653
 5702POPC   NC311903   6.604  20.625   9.453
 5702POPC   PO411904   6.636  20.628   9.153
 5702POPC   GL111905   6.654  20.650   8.853
 5702POPC   GL211906   6.726  20.505   8.853
 5702POPC   C1A11907   6.685  20.593   8.553
 5702POPC   D2A11908   6.683  20.567   8.253
 5702POPC   C3A11909   6.673  20.581   7.953
 5702POPC   C4A11910   6.681  20.658   7.653
 5702POPC   C1B11911   6.796  20.494   8.553
 5702POPC   C2B11912   6.797  20.405   8.253
 5702POPC   C3B11913   6.819  20.457   7.953
 5702POPC   C4B11914   6.878  20.458   7.653
 5703POPC   NC311915  34.573   8.946   9.453
 5703POPC   PO411916  34.549   8.948   9.153
 5703POPC   GL111917  34.577   8.982   8.853
 5703POPC   GL211918  34.685   8.981   8.853
 5703POPC   C1A11919  34.585   8.928   8.553
 5703POPC   D2A11920  34.599   8.965   8.253
 5703POPC   C3A11921  34.612   8.989   7.953
 5703POPC   C4A11922  34.617   8.982   7.653
 5703POPC   C1B11923  34.857   8.996   8.553
 5703POPC   C2B11924  34.797   8.975   8.253
 5703POPC   C3B11925  34.781   9.028   7.953
 5703POPC   C4B11926  34.820   9.003   7.653
 5704POPC   NC311927  12.043   9.728   9.453
 5704POPC   PO411928  12.060   9.769   9.153
 5704POPC   GL111929  12.057   9.764   8.853
 5704POPC   GL211930  12.112   9.670   8.853
 5704POPC   C1A11931  12.061   9.743   8.553
 5704POPC   D2A11932  12.096   9.747   8.253
 5704POPC   C3A11933  12.059   9.756   7.953
 5704POPC   C4A11934  12.040   9.718   7.653
 5704POPC   C1B11935  12.172   9.534   8.553
 5704POPC   C2B11936  12.251   9.499   8.253
 5704POPC   C3B11937  12.231   9.513   7.953
 5704POPC   C4B11938  12.235   9.512   7.653
 5705POPC   NC311939  35.309   2.735   9.453
 5705POPC   PO411940  35.320   2.810   9.153
 5705POPC   GL111941  35.401   2.795   8.853
 5705POPC   GL211942  35.297   2.866   8.853
 5705POPC   C1A11943  35.320   2.728   8.553
 5705POPC   D2A11944  35.335   2.740   8.253
 5705POPC   C3A11945  35.346   2.739   7.953
 5705POPC   C4A11946  35.343   2.747   7.653
 5705POPC   C1B11947  35.187   2.949   8.553
 5705POPC   C2B11948  35.245   2.983   8.253
 5705POPC   C3B11949  35.273   3.006   7.953
 5705POPC   C4B11950  35.266   2.990   7.653
 5706POPC   NC311951   8.230   8.927   9.453
 5706POPC   PO411952   8.240   8.986   9.153
 5706POPC   GL111953   8.234   8.978   8.853
 5706POPC   GL211954   8.197   9.124   8.853
 5706POPC   C1A11955   8.202   9.001   8.553
 5706POPC   D2A11956   8.207   8.998   8.253
 5706POPC   C3A11957   8.149   8.941   7.953
 5706POPC   C4A11958   8.198   9.015   7.653
 5706POPC   C1B11959   8.167   9.227   8.553
 5706POPC   C2B11960   8.116   9.257   8.253
 5706POPC   C3B11961   8.149   9.259   7.953
 5706POPC   C4B11962   8.155   9.177   7.653
 5707POPC   NC311963  35.315  31.520   9.453
 5707POPC   PO411964  35.327  31.435   9.153
 5707POPC   GL111965  35.387  31.522   8.853
 5707POPC   GL211966  35.514  31.523   8.853
 5707POPC   C1A11967  35.349  31.502   8.553
 5707POPC   D2A11968  35.325  31.444   8.253
 5707POPC   C3A11969  35.385  31.471   7.953
 5707POPC   C4A11970  35.313  31.463   7.653
 5707POPC   C1B11971  35.646  31.497   8.553
 5707POPC   C2B11972  35.613  31.496   8.253
 5707POPC   C3B11973  35.637  31.513   7.953
 5707POPC   C4B11974  35.556  31.546   7.653
 5708POPC   NC311975   8.960  30.664   9.453
 5708POPC   PO411976   8.960  30.699   9.153
 5708POPC   GL111977   9.007  30.651   8.853
 5708POPC   GL211978   8.928  30.821   8.853
 5708POPC   C1A11979   9.016  30.651   8.553
 5708POPC   D2A11980   8.994  30.712   8.253
 5708POPC   C3A11981   8.993  30.647   7.953
 5708POPC   C4A11982   8.940  30.729   7.653
 5708POPC   C1B11983   8.835  30.863   8.553
 5708POPC   C2B11984   8.800  30.912   8.253
 5708POPC   C3B11985   8.809  30.920   7.953
 5708POPC   C4B11986   8.835  30.936   7.653
 5709POPC   NC311987  41.549  29.161   9.453
 5709POPC   PO411988  41.576  29.173   9.153
 5709POPC   GL111989  41.552  29.123   8.853
 5709POPC   GL211990  41.628  29.077   8.853
 5709POPC   C1A11991  41.558  29.105   8.553
 5709POPC   D2A11992  41.554  29.150   8.253
 5709POPC   C3A11993  41.597  29.162   7.953
 5709POPC   C4A11994  41.513  29.150   7.653
 5709POPC   C1B11995  41.808  28.969   8.553
 5709POPC   C2B11996  41.749  28.970   8.253
 5709POPC   C3B11997  41.810  29.016   7.953
 5709POPC   C4B11998  41.738  28.986   7.653
 5710POPC   NC311999  28.342  12.028   9.453
 5710POPC   PO412000  28.407  12.126   9.153
 5710POPC   GL112001  28.390  12.078   8.853
 5710POPC   GL212002  28.463  12.022   8.853
 5710POPC   C1A12003  28.319  12.072   8.553
 5710POPC   D2A12004  28.329  12.124   8.253
 5710POPC   C3A12005  28.376  12.028   7.953
 5710POPC   C4A12006  28.364  12.046   7.653
 5710POPC   C1B12007  28.639  11.948   8.553
 5710POPC   C2B12008  28.563  11.952   8.253
 5710POPC   C3B12009  28.611  11.982   7.953
 5710POPC   C4B12010  28.605  11.985   7.653
 5711POPC   NC312011   5.916  34.566   9.453
 5711POPC   PO412012   5.897  34.624   9.153
 5711POPC   GL112013   5.905  34.545   8.853
 5711POPC   GL212014   5.789  34.505   8.853
 5711POPC   C1A12015   5.826  34.573   8.553
 5711POPC   D2A12016   5.870  34.553   8.253
 5711POPC   C3A12017   5.886  34.570   7.953
 5711POPC   C4A12018   5.852  34.589   7.653
 5711POPC   C1B12019   5.605  34.524   8.553
 5711POPC   C2B12020   5.659  34.538   8.253
 5711POPC   C3B12021   5.669  34.537   7.953
 5711POPC   C4B12022   5.635  34.511   7.653
 5712POPC   NC312023  40.753  19.092   9.453
 5712POPC   PO412024  40.759  19.044   9.153
 5712POPC   GL112025  40.784  19.062   8.853
 5712POPC   GL212026  40.616  19.000   8.853
 5712POPC   C1A12027  40.805  19.090   8.553
 5712POPC   D2A12028  40.750  19.102   8.253
 5712POPC   C3A12029  40.753  19.092   7.953
 5712POPC   C4A12030  40.755  19.054   7.653
 5712POPC   C1B12031  40.558  18.974   8.553
 5712POPC   C2B12032  40.557  19.040   8.253
 5712POPC   C3B12033  40.581  19.003   7.953
 5712POPC   C4B12034  40.513  19.049   7.653
 5713POPC   NC312035  28.358  17.484   9.453
 5713POPC   PO412036  28.407  17.479   9.153
 5713POPC   GL112037  28.363  17.541   8.853
 5713POPC   GL212038  28.378  17.432   8.853
 5713POPC   C1A12039  28.417  17.510   8.553
 5713POPC   D2A12040  28.378  17.523   8.253
 5713POPC   C3A12041  28.406  17.508   7.953
 5713POPC   C4A12042  28.414  17.479   7.653
 5713POPC   C1B12043  28.421  17.247   8.553
 5713POPC   C2B12044  28.429  17.257   8.253
 5713POPC   C3B12045  28.435  17.302   7.953
 5713POPC   C4B12046  28.408  17.233   7.653
 5714POPC   NC312047   1.945  24.485   9.453
 5714POPC   PO412048   1.989  24.519   9.153
 5714POPC   GL112049   2.024  24.485   8.853
 5714POPC   GL212050   1.997  24.320   8.853
 5714POPC   C1A12051   2.022  24.532   8.553
 5714POPC   D2A12052   2.012  24.487   8.253
 5714POPC   C3A12053   1.988  24.523   7.953
 5714POPC   C4A12054   2.034  24.460   7.653
 5714POPC   C1B12055   1.972  24.283   8.553
 5714POPC   C2B12056   1.963  24.196   8.253
 5714POPC   C3B12057   1.977  24.255   7.953
 5714POPC   C4B12058   1.976  24.269   7.653
 5715POPC   NC312059  33.807  19.801   9.453
 5715POPC   PO412060  33.808  19.825   9.153
 5715POPC   GL112061  33.849  19.860   8.853
 5715POPC   GL212062  33.633  19.810   8.853
 5715POPC   C1A12063  33.758  19.787   8.553
 5715POPC   D2A12064  33.812  19.787   8.253
 5715POPC   C3A12065  33.773  19.791   7.953
 5715POPC   C4A12066  33.753  19.864   7.653
 5715POPC   C1B12067  33.516  19.770   8.553
 5715POPC   C2B12068  33.525  19.776   8.253
 5715POPC   C3B12069  33.606  19.753   7.953
 5715POPC   C4B12070  33.592  19.805   7.653
 5716POPC   NC312071  31.512  33.805   9.453
 5716POPC   PO412072  31.475  33.848   9.153
 5716POPC   GL112073  31.494  33.824   8.853
 5716POPC   GL212074  31.544  33.756   8.853
 5716POPC   C1A12075  31.512  33.801   8.553
 5716POPC   D2A12076  31.466  33.806   8.253
 5716POPC   C3A12077  31.467  33.834   7.953
 5716POPC   C4A12078  31.485  33.779   7.653
 5716POPC   C1B12079  31.643  33.650   8.553
 5716POPC   C2B12080  31.710  33.631   8.253
 5716POPC   C3B12081  31.630  33.656   7.953
 5716POPC   C4B12082  31.694  33.629   7.653
 5717POPC   NC312083   3.547  43.897   9.453
 5717POPC   PO412084   3.555  43.840   9.153
 5717POPC   GL112085   3.554  43.878   8.853
 5717POPC   GL212086   3.475  43.797   8.853
 5717POPC   C1A12087   3.555  43.840   8.553
 5717POPC   D2A12088   3.517  43.913   8.253
 5717POPC   C3A12089   3.568  43.934   7.953
 5717POPC   C4A12090   3.552  43.890   7.653
 5717POPC   C1B12091   3.338  43.659   8.553
 5717POPC   C2B12092   3.379  43.718   8.253
 5717POPC   C3B12093   3.378  43.700   7.953
 5717POPC   C4B12094   3.348  43.745   7.653
 5718POPC   NC312095  11.295  21.406   9.453
 5718POPC   PO412096  11.250  21.363   9.153
 5718POPC   GL112097  11.320  21.340   8.853
 5718POPC   GL212098  11.282  21.270   8.853
 5718POPC   C1A12099  11.293  21.372   8.553
 5718POPC   D2A12100  11.341  21.405   8.253
 5718POPC   C3A12101  11.312  21.431   7.953
 5718POPC   C4A12102  11.264  21.370   7.653
 5718POPC   C1B12103  11.399  21.131   8.553
 5718POPC   C2B12104  11.320  21.183   8.253
 5718POPC   C3B12105  11.362  21.127   7.953
 5718POPC   C4B12106  11.394  21.138   7.653
 5719POPC   NC312107  11.258  19.076   9.453
 5719POPC   PO412108  11.285  19.031   9.153
 5719POPC   GL112109  11.340  19.056   8.853
 5719POPC   GL212110  11.213  19.130   8.853
 5719POPC   C1A12111  11.327  19.044   8.553
 5719POPC   D2A12112  11.280  19.030   8.253
 5719POPC   C3A12113  11.322  19.018   7.953
 5719POPC   C4A12114  11.295  19.095   7.653
 5719POPC   C1B12115  11.117  19.175   8.553
 5719POPC   C2B12116  11.065  19.118   8.253
 5719POPC   C3B12117  11.061  19.160   7.953
 5719POPC   C4B12118  11.025  19.147   7.653
 5720POPC   NC312119   6.634  23.738   9.453
 5720POPC   PO412120   6.639  23.679   9.153
 5720POPC   GL112121   6.654  23.729   8.853
 5720POPC   GL212122   6.496  23.763   8.853
 5720POPC   C1A12123   6.656  23.748   8.553
 5720POPC   D2A12124   6.689  23.749   8.253
 5720POPC   C3A12125   6.634  23.672   7.953
 5720POPC   C4A12126   6.629  23.707   7.653
 5720POPC   C1B12127   6.455  23.766   8.553
 5720POPC   C2B12128   6.365  23.773   8.253
 5720POPC   C3B12129   6.376  23.748   7.953
 5720POPC   C4B12130   6.390  23.796   7.653
 5721POPC   NC312131   8.164  43.151   9.453
 5721POPC   PO412132   8.233  43.101   9.153
 5721POPC   GL112133   8.213  43.158   8.853
 5721POPC   GL212134   8.283  43.003   8.853
 5721POPC   C1A12135   8.200  43.151   8.553
 5721POPC   D2A12136   8.176  43.081   8.253
 5721POPC   C3A12137   8.229  43.109   7.953
 5721POPC   C4A12138   8.225  43.135   7.653
 5721POPC   C1B12139   8.396  42.905   8.553
 5721POPC   C2B12140   8.418  42.940   8.253
 5721POPC   C3B12141   8.427  42.915   7.953
 5721POPC   C4B12142   8.338  42.909   7.653
 5722POPC   NC312143   7.396  26.067   9.453
 5722POPC   PO412144   7.378  26.038   9.153
 5722POPC   GL112145   7.433  26.019   8.853
 5722POPC   GL212146   7.299  26.070   8.853
 5722POPC   C1A12147   7.390  26.011   8.553
 5722POPC   D2A12148   7.457  26.074   8.253
 5722POPC   C3A12149   7.434  26.025   7.953
 5722POPC   C4A12150   7.451  26.060   7.653
 5722POPC   C1B12151   7.206  26.140   8.553
 5722POPC   C2B12152   7.178  26.216   8.253
 5722POPC   C3B12153   7.257  26.155   7.953
 5722POPC   C4B12154   7.209  26.169   7.653
 5723POPC   NC312155  33.772   1.997   9.453
 5723POPC   PO412156  33.773   2.018   9.153
 5723POPC   GL112157  33.775   2.035   8.853
 5723POPC   GL212158  33.668   2.057   8.853
 5723POPC   C1A12159  33.803   2.033   8.553
 5723POPC   D2A12160  33.802   1.957   8.253
 5723POPC   C3A12161  33.755   1.961   7.953
 5723POPC   C4A12162  33.819   1.985   7.653
 5723POPC   C1B12163  33.520   2.090   8.553
 5723POPC   C2B12164  33.554   2.087   8.253
 5723POPC   C3B12165  33.520   2.043   7.953
 5723POPC   C4B12166  33.609   2.100   7.653
 5724POPC   NC312167  41.607  10.567   9.453
 5724POPC   PO412168  41.556  10.545   9.153
 5724POPC   GL112169  41.597  10.503   8.853
 5724POPC   GL212170  41.616  10.554   8.853
 5724POPC   C1A12171  41.545  10.522   8.553
 5724POPC   D2A12172  41.578  10.567   8.253
 5724POPC   C3A12173  41.543  10.480   7.953
 5724POPC   C4A12174  41.532  10.490   7.653
 5724POPC   C1B12175  41.753  10.680   8.553
 5724POPC   C2B12176  41.744  10.702   8.253
 5724POPC   C3B12177  41.816  10.677   7.953
 5724POPC   C4B12178  41.735  10.652   7.653
 5725POPC   NC312179  40.749  39.245   9.453
 5725POPC   PO412180  40.787  39.211   9.153
 5725POPC   GL112181  40.780  39.239   8.853
 5725POPC   GL212182  40.864  39.157   8.853
 5725POPC   C1A12183  40.783  39.193   8.553
 5725POPC   D2A12184  40.769  39.200   8.253
 5725POPC   C3A12185  40.777  39.203   7.953
 5725POPC   C4A12186  40.753  39.256   7.653
 5725POPC   C1B12187  41.040  39.122   8.553
 5725POPC   C2B12188  41.021  39.084   8.253
 5725POPC   C3B12189  41.019  39.118   7.953
 5725POPC   C4B12190  41.034  39.070   7.653
 5726POPC   NC312191  35.398  30.649   9.453
 5726POPC   PO412192  35.366  30.722   9.153
 5726POPC   GL112193  35.378  30.678   8.853
 5726POPC   GL212194  35.372  30.839   8.853
 5726POPC   C1A12195  35.393  30.716   8.553
 5726POPC   D2A12196  35.311  30.656   8.253
 5726POPC   C3A12197  35.348  30.655   7.953
 5726POPC   C4A12198  35.369  30.661   7.653
 5726POPC   C1B12199  35.455  30.967   8.553
 5726POPC   C2B12200  35.441  30.927   8.253
 5726POPC   C3B12201  35.425  30.978   7.953
 5726POPC   C4B12202  35.427  30.927   7.653
 5727POPC   NC312203  32.199  15.196   9.453
 5727POPC   PO412204  32.233  15.136   9.153
 5727POPC   GL112205  32.293  15.211   8.853
 5727POPC   GL212206  32.259  15.011   8.853
 5727POPC   C1A12207  32.240  15.168   8.553
 5727POPC   D2A12208  32.288  15.138   8.253
 5727POPC   C3A12209  32.236  15.158   7.953
 5727POPC   C4A12210  32.226  15.183   7.653
 5727POPC   C1B12211  32.307  14.983   8.553
 5727POPC   C2B12212  32.311  14.937   8.253
 5727POPC   C3B12213  32.308  14.963   7.953
 5727POPC   C4B12214  32.291  14.973   7.653
 5728POPC   NC312215   9.701  22.986   9.453
 5728POPC   PO412216   9.775  22.960   9.153
 5728POPC   GL112217   9.734  22.932   8.853
 5728POPC   GL212218   9.838  22.981   8.853
 5728POPC   C1A12219   9.714  22.929   8.553
 5728POPC   D2A12220   9.714  22.931   8.253
 5728POPC   C3A12221   9.745  22.904   7.953
 5728POPC   C4A12222   9.706  22.939   7.653
 5728POPC   C1B12223   9.983  23.123   8.553
 5728POPC   C2B12224   9.922  23.045   8.253
 5728POPC   C3B12225   9.918  23.120   7.953
 5728POPC   C4B12226   9.935  23.076   7.653
 5729POPC   NC312227  23.712  40.790   9.453
 5729POPC   PO412228  23.692  40.743   9.153
 5729POPC   GL112229  23.674  40.757   8.853
 5729POPC   GL212230  23.598  40.720   8.853
 5729POPC   C1A12231  23.740  40.751   8.553
 5729POPC   D2A12232  23.760  40.761   8.253
 5729POPC   C3A12233  23.731  40.743   7.953
 5729POPC   C4A12234  23.699  40.825   7.653
 5729POPC   C1B12235  23.489  40.797   8.553
 5729POPC   C2B12236  23.442  40.750   8.253
 5729POPC   C3B12237  23.430  40.793   7.953
 5729POPC   C4B12238  23.476  40.767   7.653
 5730POPC   NC312239   6.615  44.637   9.453
 5730POPC   PO412240   6.645  44.682   9.153
 5730POPC   GL112241   6.596  44.710   8.853
 5730POPC   GL212242   6.591  44.542   8.853
 5730POPC   C1A12243   6.670  44.627   8.553
 5730POPC   D2A12244   6.624  44.638   8.253
 5730POPC   C3A12245   6.671  44.704   7.953
 5730POPC   C4A12246   6.676  44.658   7.653
 5730POPC   C1B12247   6.531  44.495   8.553
 5730POPC   C2B12248   6.486  44.412   8.253
 5730POPC   C3B12249   6.533  44.488   7.953
 5730POPC   C4B12250   6.478  44.462   7.653
 5731POPC   NC312251  26.794  16.760   9.453
 5731POPC   PO412252  26.806  16.682   9.153
 5731POPC   GL112253  26.787  16.715   8.853
 5731POPC   GL212254  26.914  16.797   8.853
 5731POPC   C1A12255  26.838  16.755   8.553
 5731POPC   D2A12256  26.867  16.755   8.253
 5731POPC   C3A12257  26.795  16.735   7.953
 5731POPC   C4A12258  26.784  16.756   7.653
 5731POPC   C1B12259  26.976  16.926   8.553
 5731POPC   C2B12260  26.948  16.960   8.253
 5731POPC   C3B12261  26.990  16.893   7.953
 5731POPC   C4B12262  27.012  16.950   7.653
 5732POPC   NC312263  17.487  24.534   9.453
 5732POPC   PO412264  17.464  24.473   9.153
 5732POPC   GL112265  17.502  24.536   8.853
 5732POPC   GL212266  17.533  24.384   8.853
 5732POPC   C1A12267  17.545  24.455   8.553
 5732POPC   D2A12268  17.553  24.474   8.253
 5732POPC   C3A12269  17.478  24.535   7.953
 5732POPC   C4A12270  17.549  24.471   7.653
 5732POPC   C1B12271  17.471  24.275   8.553
 5732POPC   C2B12272  17.509  24.197   8.253
 5732POPC   C3B12273  17.526  24.204   7.953
 5732POPC   C4B12274  17.520  24.265   7.653
 5733POPC   NC312275  16.723  19.854   9.453
 5733POPC   PO412276  16.754  19.834   9.153
 5733POPC   GL112277  16.722  19.790   8.853
 5733POPC   GL212278  16.833  19.746   8.853
 5733POPC   C1A12279  16.696  19.822   8.553
 5733POPC   D2A12280  16.727  19.800   8.253
 5733POPC   C3A12281  16.742  19.831   7.953
 5733POPC   C4A12282  16.692  19.795   7.653
 5733POPC   C1B12283  16.949  19.676   8.553
 5733POPC   C2B12284  16.932  19.713   8.253
 5733POPC   C3B12285  16.898  19.656   7.953
 5733POPC   C4B12286  16.886  19.632   7.653
 5734POPC   NC312287   1.941  37.637   9.453
 5734POPC   PO412288   1.978  37.655   9.153
 5734POPC   GL112289   1.951  37.701   8.853
 5734POPC   GL212290   1.937  37.741   8.853
 5734POPC   C1A12291   1.943  37.683   8.553
 5734POPC   D2A12292   2.024  37.653   8.253
 5734POPC   C3A12293   2.030  37.667   7.953
 5734POPC   C4A12294   2.003  37.649   7.653
 5734POPC   C1B12295   1.873  37.920   8.553
 5734POPC   C2B12296   1.822  37.926   8.253
 5734POPC   C3B12297   1.884  37.918   7.953
 5734POPC   C4B12298   1.891  37.913   7.653
 5735POPC   NC312299  37.646  10.549   9.453
 5735POPC   PO412300  37.684  10.531   9.153
 5735POPC   GL112301  37.710  10.520   8.853
 5735POPC   GL212302  37.580  10.588   8.853
 5735POPC   C1A12303  37.665  10.519   8.553
 5735POPC   D2A12304  37.642  10.574   8.253
 5735POPC   C3A12305  37.680  10.510   7.953
 5735POPC   C4A12306  37.699  10.564   7.653
 5735POPC   C1B12307  37.577  10.715   8.553
 5735POPC   C2B12308  37.587  10.779   8.253
 5735POPC   C3B12309  37.549  10.731   7.953
 5735POPC   C4B12310  37.515  10.718   7.653
 5736POPC   NC312311   9.735   6.659   9.453
 5736POPC   PO412312   9.778   6.597   9.153
 5736POPC   GL112313   9.709   6.684   8.853
 5736POPC   GL212314   9.676   6.608   8.853
 5736POPC   C1A12315   9.723   6.684   8.553
 5736POPC   D2A12316   9.790   6.625   8.253
 5736POPC   C3A12317   9.777   6.648   7.953
 5736POPC   C4A12318   9.710   6.643   7.653
 5736POPC   C1B12319   9.540   6.525   8.553
 5736POPC   C2B12320   9.522   6.491   8.253
 5736POPC   C3B12321   9.564   6.466   7.953
 5736POPC   C4B12322   9.504   6.545   7.653
 5737POPC   NC312323  42.356   1.990   9.453
 5737POPC   PO412324  42.369   1.991   9.153
 5737POPC   GL112325  42.316   2.011   8.853
 5737POPC   GL212326  42.313   2.156   8.853
 5737POPC   C1A12327  42.327   1.952   8.553
 5737POPC   D2A12328  42.354   1.941   8.253
 5737POPC   C3A12329  42.327   1.944   7.953
 5737POPC   C4A12330  42.350   1.997   7.653
 5737POPC   C1B12331  42.321   2.216   8.553
 5737POPC   C2B12332  42.276   2.280   8.253
 5737POPC   C3B12333  42.328   2.242   7.953
 5737POPC   C4B12334  42.275   2.269   7.653
 5738POPC   NC312335  19.103   2.754   9.453
 5738POPC   PO412336  19.021   2.807   9.153
 5738POPC   GL112337  19.038   2.733   8.853
 5738POPC   GL212338  18.951   2.817   8.853
 5738POPC   C1A12339  19.027   2.744   8.553
 5738POPC   D2A12340  19.101   2.740   8.253
 5738POPC   C3A12341  19.032   2.771   7.953
 5738POPC   C4A12342  19.076   2.741   7.653
 5738POPC   C1B12343  18.842   2.808   8.553
 5738POPC   C2B12344  18.783   2.871   8.253
 5738POPC   C3B12345  18.800   2.806   7.953
 5738POPC   C4B12346  18.788   2.881   7.653
 5739POPC   NC312347  32.976  33.808   9.453
 5739POPC   PO412348  33.024  33.825   9.153
 5739POPC   GL112349  32.986  33.804   8.853
 5739POPC   GL212350  33.171  33.709   8.853
 5739POPC   C1A12351  33.033  33.845   8.553
 5739POPC   D2A12352  33.022  33.754   8.253
 5739POPC   C3A12353  33.054  33.842   7.953
 5739POPC   C4A12354  33.034  33.753   7.653
 5739POPC   C1B12355  33.229  33.722   8.553
 5739POPC   C2B12356  33.221  33.690   8.253
 5739POPC   C3B12357  33.276  33.717   7.953
 5739POPC   C4B12358  33.291  33.668   7.653
 5740POPC   NC312359  33.774   9.018   9.453
 5740POPC   PO412360  33.767   8.996   9.153
 5740POPC   GL112361  33.829   8.926   8.853
 5740POPC   GL212362  33.643   8.973   8.853
 5740POPC   C1A12363  33.808   9.003   8.553
 5740POPC   D2A12364  33.814   8.934   8.253
 5740POPC   C3A12365  33.827   8.990   7.953
 5740POPC   C4A12366  33.766   8.981   7.653
 5740POPC   C1B12367  33.562   9.045   8.553
 5740POPC   C2B12368  33.600   9.017   8.253
 5740POPC   C3B12369  33.528   8.988   7.953
 5740POPC   C4B12370  33.587   9.041   7.653
 5741POPC   NC312371  41.567  32.228   9.453
 5741POPC   PO412372  41.519  32.285   9.153
 5741POPC   GL112373  41.525  32.278   8.853
 5741POPC   GL212374  41.482  32.309   8.853
 5741POPC   C1A12375  41.606  32.236   8.553
 5741POPC   D2A12376  41.519  32.279   8.253
 5741POPC   C3A12377  41.578  32.254   7.953
 5741POPC   C4A12378  41.514  32.202   7.653
 5741POPC   C1B12379  41.389  32.429   8.553
 5741POPC   C2B12380  41.430  32.439   8.253
 5741POPC   C3B12381  41.450  32.417   7.953
 5741POPC   C4B12382  41.405  32.489   7.653
 5742POPC   NC312383  26.057  33.756   9.453
 5742POPC   PO412384  26.080  33.760   9.153
 5742POPC   GL112385  26.039  33.791   8.853
 5742POPC   GL212386  26.135  33.645   8.853
 5742POPC   C1A12387  26.066  33.817   8.553
 5742POPC   D2A12388  26.035  33.846   8.253
 5742POPC   C3A12389  26.045  33.758   7.953
 5742POPC   C4A12390  25.999  33.763   7.653
 5742POPC   C1B12391  26.112  33.566   8.553
 5742POPC   C2B12392  26.164  33.567   8.253
 5742POPC   C3B12393  26.173  33.564   7.953
 5742POPC   C4B12394  26.192  33.611   7.653
 5743POPC   NC312395  39.238  29.955   9.453
 5743POPC   PO412396  39.227  29.883   9.153
 5743POPC   GL112397  39.244  29.890   8.853
 5743POPC   GL212398  39.069  29.965   8.853
 5743POPC   C1A12399  39.233  29.970   8.553
 5743POPC   D2A12400  39.222  29.950   8.253
 5743POPC   C3A12401  39.199  29.910   7.953
 5743POPC   C4A12402  39.269  29.927   7.653
 5743POPC   C1B12403  38.991  29.889   8.553
 5743POPC   C2B12404  38.962  29.878   8.253
 5743POPC   C3B12405  38.968  29.967   7.953
 5743POPC   C4B12406  38.949  29.905   7.653
 5744POPC   NC312407  10.548   0.454   9.453
 5744POPC   PO412408  10.551   0.487   9.153
 5744POPC   GL112409  10.499   0.441   8.853
 5744POPC   GL212410  10.446   0.330   8.853
 5744POPC   C1A12411  10.552   0.476   8.553
 5744POPC   D2A12412  10.490   0.413   8.253
 5744POPC   C3A12413  10.547   0.441   7.953
 5744POPC   C4A12414  10.501   0.405   7.653
 5744POPC   C1B12415  10.396   0.293   8.553
 5744POPC   C2B12416  10.345   0.296   8.253
 5744POPC   C3B12417  10.350   0.297   7.953
 5744POPC   C4B12418  10.311   0.212   7.653
 5745POPC   NC312419   7.464  32.271   9.453
 5745POPC   PO412420   7.409  32.228   9.153
 5745POPC   GL112421   7.387  32.254   8.853
 5745POPC   GL212422   7.587  32.278   8.853
 5745POPC   C1A12423   7.448  32.242   8.553
 5745POPC   D2A12424   7.469  32.204   8.253
 5745POPC   C3A12425   7.401  32.261   7.953
 5745POPC   C4A12426   7.425  32.200   7.653
 5745POPC   C1B12427   7.654  32.169   8.553
 5745POPC   C2B12428   7.686  32.189   8.253
 5745POPC   C3B12429   7.645  32.181   7.953
 5745POPC   C4B12430   7.682  32.212   7.653
 5746POPC   NC312431  11.290   5.052   9.453
 5746POPC   PO412432  11.303   5.115   9.153
 5746POPC   GL112433  11.335   5.068   8.853
 5746POPC   GL212434  11.337   5.176   8.853
 5746POPC   C1A12435  11.318   5.119   8.553
 5746POPC   D2A12436  11.329   5.134   8.253
 5746POPC   C3A12437  11.330   5.047   7.953
 5746POPC   C4A12438  11.347   5.054   7.653
 5746POPC   C1B12439  11.360   5.368   8.553
 5746POPC   C2B12440  11.394   5.349   8.253
 5746POPC   C3B12441  11.396   5.328   7.953
 5746POPC   C4B12442  11.414   5.287   7.653
 5747POPC   NC312443  19.067  17.555   9.453
 5747POPC   PO412444  19.034  17.550   9.153
 5747POPC   GL112445  19.088  17.505   8.853
 5747POPC   GL212446  18.958  17.599   8.853
 5747POPC   C1A12447  19.082  17.465   8.553
 5747POPC   D2A12448  19.018  17.464   8.253
 5747POPC   C3A12449  19.043  17.503   7.953
 5747POPC   C4A12450  19.023  17.471   7.653
 5747POPC   C1B12451  18.806  17.684   8.553
 5747POPC   C2B12452  18.830  17.658   8.253
 5747POPC   C3B12453  18.858  17.678   7.953
 5747POPC   C4B12454  18.869  17.688   7.653
 5748POPC   NC312455   4.353  37.682   9.453
 5748POPC   PO412456   4.346  37.644   9.153
 5748POPC   GL112457   4.353  37.672   8.853
 5748POPC   GL212458   4.273  37.545   8.853
 5748POPC   C1A12459   4.312  37.644   8.553
 5748POPC   D2A12460   4.348  37.667   8.253
 5748POPC   C3A12461   4.310  37.725   7.953
 5748POPC   C4A12462   4.306  37.703   7.653
 5748POPC   C1B12463   4.287  37.383   8.553
 5748POPC   C2B12464   4.274  37.422   8.253
 5748POPC   C3B12465   4.350  37.380   7.953
 5748POPC   C4B12466   4.305  37.431   7.653
 5749POPC   NC312467  24.533  43.838   9.453
 5749POPC   PO412468  24.504  43.871   9.153
 5749POPC   GL112469  24.525  43.901   8.853
 5749POPC   GL212470  24.431  43.945   8.853
 5749POPC   C1A12471  24.484  43.860   8.553
 5749POPC   D2A12472  24.482  43.883   8.253
 5749POPC   C3A12473  24.460  43.837   7.953
 5749POPC   C4A12474  24.469  43.871   7.653
 5749POPC   C1B12475  24.289  44.062   8.553
 5749POPC   C2B12476  24.306  44.018   8.253
 5749POPC   C3B12477  24.336  44.055   7.953
 5749POPC   C4B12478  24.333  44.013   7.653
 5750POPC   NC312479  34.569   2.029   9.453
 5750POPC   PO412480  34.618   1.991   9.153
 5750POPC   GL112481  34.588   2.033   8.853
 5750POPC   GL212482  34.619   2.116   8.853
 5750POPC   C1A12483  34.555   1.979   8.553
 5750POPC   D2A12484  34.618   1.971   8.253
 5750POPC   C3A12485  34.605   2.007   7.953
 5750POPC   C4A12486  34.567   2.039   7.653
 5750POPC   C1B12487  34.695   2.216   8.553
 5750POPC   C2B12488  34.620   2.221   8.253
 5750POPC   C3B12489  34.668   2.258   7.953
 5750POPC   C4B12490  34.662   2.230   7.653
 5751POPC   NC312491  10.530  35.366   9.453
 5751POPC   PO412492  10.484  35.318   9.153
 5751POPC   GL112493  10.481  35.399   8.853
 5751POPC   GL212494  10.514  35.262   8.853
 5751POPC   C1A12495  10.495  35.333   8.553
 5751POPC   D2A12496  10.530  35.305   8.253
 5751POPC   C3A12497  10.495  35.376   7.953
 5751POPC   C4A12498  10.563  35.357   7.653
 5751POPC   C1B12499  10.560  35.139   8.553
 5751POPC   C2B12500  10.610  35.069   8.253
 5751POPC   C3B12501  10.534  35.138   7.953
 5751POPC   C4B12502  10.578  35.104   7.653
 5752POPC   NC312503  15.969   0.484   9.453
 5752POPC   PO412504  15.970   0.398   9.153
 5752POPC   GL112505  15.976   0.420   8.853
 5752POPC   GL212506  15.838   0.518   8.853
 5752POPC   C1A12507  15.957   0.445   8.553
 5752POPC   D2A12508  15.939   0.424   8.253
 5752POPC   C3A12509  15.952   0.462   7.953
 5752POPC   C4A12510  15.922   0.399   7.653
 5752POPC   C1B12511  15.760   0.495   8.553
 5752POPC   C2B12512  15.707   0.565   8.253
 5752POPC   C3B12513  15.741   0.510   7.953
 5752POPC   C4B12514  15.705   0.548   7.653
 5753POPC   NC312515  22.943   9.759   9.453
 5753POPC   PO412516  22.941   9.725   9.153
 5753POPC   GL112517  22.938   9.704   8.853
 5753POPC   GL212518  23.045   9.678   8.853
 5753POPC   C1A12519  22.949   9.763   8.553
 5753POPC   D2A12520  22.937   9.774   8.253
 5753POPC   C3A12521  22.891   9.751   7.953
 5753POPC   C4A12522  22.911   9.775   7.653
 5753POPC   C1B12523  23.164   9.585   8.553
 5753POPC   C2B12524  23.155   9.599   8.253
 5753POPC   C3B12525  23.121   9.615   7.953
 5753POPC   C4B12526  23.152   9.558   7.653
 5754POPC   NC312527  34.624   2.750   9.453
 5754POPC   PO412528  34.578   2.812   9.153
 5754POPC   GL112529  34.558   2.779   8.853
 5754POPC   GL212530  34.577   2.925   8.853
 5754POPC   C1A12531  34.543   2.768   8.553
 5754POPC   D2A12532  34.561   2.720   8.253
 5754POPC   C3A12533  34.604   2.760   7.953
 5754POPC   C4A12534  34.609   2.719   7.653
 5754POPC   C1B12535  34.623   3.034   8.553
 5754POPC   C2B12536  34.611   3.040   8.253
 5754POPC   C3B12537  34.642   3.059   7.953
 5754POPC   C4B12538  34.599   3.043   7.653
 5755POPC   NC312539   5.097   8.940   9.453
 5755POPC   PO412540   5.087   8.942   9.153
 5755POPC   GL112541   5.101   8.929   8.853
 5755POPC   GL212542   5.009   8.914   8.853
 5755POPC   C1A12543   5.102   8.969   8.553
 5755POPC   D2A12544   5.049   8.943   8.253
 5755POPC   C3A12545   5.074   8.945   7.953
 5755POPC   C4A12546   5.044   8.980   7.653
 5755POPC   C1B12547   4.945   8.758   8.553
 5755POPC   C2B12548   4.972   8.746   8.253
 5755POPC   C3B12549   4.967   8.778   7.953
 5755POPC   C4B12550   4.894   8.731   7.653
 5756POPC   NC312551  28.391   5.141   9.453
 5756POPC   PO412552  28.394   5.044   9.153
 5756POPC   GL112553  28.396   5.118   8.853
 5756POPC   GL212554  28.234   5.039   8.853
 5756POPC   C1A12555  28.344   5.115   8.553
 5756POPC   D2A12556  28.352   5.093   8.253
 5756POPC   C3A12557  28.375   5.065   7.953
 5756POPC   C4A12558  28.343   5.114   7.653
 5756POPC   C1B12559  28.145   4.916   8.553
 5756POPC   C2B12560  28.234   4.928   8.253
 5756POPC   C3B12561  28.169   4.898   7.953
 5756POPC   C4B12562  28.196   4.954   7.653
 5757POPC   NC312563  40.745   3.584   9.453
 5757POPC   PO412564  40.746   3.564   9.153
 5757POPC   GL112565  40.754   3.570   8.853
 5757POPC   GL212566  40.702   3.578   8.853
 5757POPC   C1A12567  40.736   3.492   8.553
 5757POPC   D2A12568  40.790   3.546   8.253
 5757POPC   C3A12569  40.795   3.569   7.953
 5757POPC   C4A12570  40.807   3.562   7.653
 5757POPC   C1B12571  40.526   3.580   8.553
 5757POPC   C2B12572  40.503   3.499   8.253
 5757POPC   C3B12573  40.496   3.511   7.953
 5757POPC   C4B12574  40.541   3.563   7.653
 5758POPC   NC312575   5.828  27.560   9.453
 5758POPC   PO412576   5.916  27.573   9.153
 5758POPC   GL112577   5.906  27.639   8.853
 5758POPC   GL212578   5.739  27.585   8.853
 5758POPC   C1A12579   5.908  27.582   8.553
 5758POPC   D2A12580   5.829  27.583   8.253
 5758POPC   C3A12581   5.870  27.574   7.953
 5758POPC   C4A12582   5.834  27.574   7.653
 5758POPC   C1B12583   5.674  27.520   8.553
 5758POPC   C2B12584   5.676  27.506   8.253
 5758POPC   C3B12585   5.621  27.500   7.953
 5758POPC   C4B12586   5.615  27.480   7.653
 5759POPC   NC312587  43.085  22.962   9.453
 5759POPC   PO412588  43.138  22.976   9.153
 5759POPC   GL112589  43.125  22.967   8.853
 5759POPC   GL212590  43.121  22.767   8.853
 5759POPC   C1A12591  43.123  22.987   8.553
 5759POPC   D2A12592  43.062  22.963   8.253
 5759POPC   C3A12593  43.135  22.979   7.953
 5759POPC   C4A12594  43.092  22.954   7.653
 5759POPC   C1B12595  43.065  22.720   8.553
 5759POPC   C2B12596  43.049  22.710   8.253
 5759POPC   C3B12597  43.089  22.679   7.953
 5759POPC   C4B12598  43.088  22.678   7.653
 5760POPC   NC312599  16.768   6.680   9.453
 5760POPC   PO412600  16.696   6.641   9.153
 5760POPC   GL112601  16.760   6.682   8.853
 5760POPC   GL212602  16.641   6.506   8.853
 5760POPC   C1A12603  16.756   6.608   8.553
 5760POPC   D2A12604  16.761   6.676   8.253
 5760POPC   C3A12605  16.700   6.685   7.953
 5760POPC   C4A12606  16.766   6.622   7.653
 5760POPC   C1B12607  16.602   6.366   8.553
 5760POPC   C2B12608  16.612   6.364   8.253
 5760POPC   C3B12609  16.667   6.400   7.953
 5760POPC   C4B12610  16.695   6.423   7.653
 5761POPC   NC312611  28.375  42.377   9.453
 5761POPC   PO412612  28.410  42.364   9.153
 5761POPC   GL112613  28.416  42.289   8.853
 5761POPC   GL212614  28.272  42.296   8.853
 5761POPC   C1A12615  28.379  42.330   8.553
 5761POPC   D2A12616  28.335  42.309   8.253
 5761POPC   C3A12617  28.339  42.376   7.953
 5761POPC   C4A12618  28.358  42.290   7.653
 5761POPC   C1B12619  28.125  42.145   8.553
 5761POPC   C2B12620  28.155  42.158   8.253
 5761POPC   C3B12621  28.168  42.217   7.953
 5761POPC   C4B12622  28.184  42.211   7.653
 5762POPC   NC312623  15.917  24.503   9.453
 5762POPC   PO412624  15.985  24.471   9.153
 5762POPC   GL112625  15.984  24.463   8.853
 5762POPC   GL212626  16.031  24.482   8.853
 5762POPC   C1A12627  15.961  24.528   8.553
 5762POPC   D2A12628  15.969  24.523   8.253
 5762POPC   C3A12629  15.929  24.533   7.953
 5762POPC   C4A12630  15.986  24.514   7.653
 5762POPC   C1B12631  16.227  24.435   8.553
 5762POPC   C2B12632  16.236  24.510   8.253
 5762POPC   C3B12633  16.170  24.490   7.953
 5762POPC   C4B12634  16.224  24.462   7.653
 5763POPC   NC312635  43.899   6.603   9.453
 5763POPC   PO412636  43.906   6.621   9.153
 5763POPC   GL112637  43.856   6.653   8.853
 5763POPC   GL212638  43.977   6.641   8.853
 5763POPC   C1A12639  43.876   6.632   8.553
 5763POPC   D2A12640  43.878   6.644   8.253
 5763POPC   C3A12641  43.850   6.595   7.953
 5763POPC   C4A12642  43.904   6.692   7.653
 5763POPC   C1B12643  44.086   6.515   8.553
 5763POPC   C2B12644  44.136   6.499   8.253
 5763POPC   C3B12645  44.119   6.552   7.953
 5763POPC   C4B12646  44.070   6.595   7.653
 5764POPC   NC312647  33.027   4.328   9.453
 5764POPC   PO412648  32.979   4.309   9.153
 5764POPC   GL112649  32.975   4.297   8.853
 5764POPC   GL212650  32.918   4.407   8.853
 5764POPC   C1A12651  33.014   4.357   8.553
 5764POPC   D2A12652  33.070   4.334   8.253
 5764POPC   C3A12653  33.036   4.321   7.953
 5764POPC   C4A12654  33.067   4.343   7.653
 5764POPC   C1B12655  32.905   4.514   8.553
 5764POPC   C2B12656  32.918   4.567   8.253
 5764POPC   C3B12657  32.860   4.487   7.953
 5764POPC   C4B12658  32.865   4.506   7.653
 5765POPC   NC312659  43.063   5.894   9.453
 5765POPC   PO412660  43.071   5.871   9.153
 5765POPC   GL112661  43.135   5.828   8.853
 5765POPC   GL212662  43.102   5.718   8.853
 5765POPC   C1A12663  43.108   5.821   8.553
 5765POPC   D2A12664  43.085   5.872   8.253
 5765POPC   C3A12665  43.157   5.836   7.953
 5765POPC   C4A12666  43.106   5.872   7.653
 5765POPC   C1B12667  43.006   5.666   8.553
 5765POPC   C2B12668  43.067   5.628   8.253
 5765POPC   C3B12669  42.971   5.635   7.953
 5765POPC   C4B12670  42.968   5.604   7.653
 5766POPC   NC312671   2.773  43.071   9.453
 5766POPC   PO412672   2.716  43.107   9.153
 5766POPC   GL112673   2.767  43.073   8.853
 5766POPC   GL212674   2.898  42.984   8.853
 5766POPC   C1A12675   2.736  43.072   8.553
 5766POPC   D2A12676   2.781  43.150   8.253
 5766POPC   C3A12677   2.770  43.121   7.953
 5766POPC   C4A12678   2.755  43.103   7.653
 5766POPC   C1B12679   2.996  42.944   8.553
 5766POPC   C2B12680   2.949  42.901   8.253
 5766POPC   C3B12681   2.920  42.929   7.953
 5766POPC   C4B12682   2.908  42.942   7.653
 5767POPC   NC312683   7.450  35.378   9.453
 5767POPC   PO412684   7.406  35.330   9.153
 5767POPC   GL112685   7.411  35.384   8.853
 5767POPC   GL212686   7.478  35.243   8.853
 5767POPC   C1A12687   7.387  35.368   8.553
 5767POPC   D2A12688   7.417  35.357   8.253
 5767POPC   C3A12689   7.417  35.367   7.953
 5767POPC   C4A12690   7.372  35.388   7.653
 5767POPC   C1B12691   7.543  35.139   8.553
 5767POPC   C2B12692   7.607  35.187   8.253
 5767POPC   C3B12693   7.561  35.112   7.953
 5767POPC   C4B12694   7.579  35.146   7.653
 5768POPC   NC312695  35.363  13.614   9.453
 5768POPC   PO412696  35.400  13.671   9.153
 5768POPC   GL112697  35.360  13.615   8.853
 5768POPC   GL212698  35.382  13.745   8.853
 5768POPC   C1A12699  35.378  13.619   8.553
 5768POPC   D2A12700  35.366  13.611   8.253
 5768POPC   C3A12701  35.365  13.589   7.953
 5768POPC   C4A12702  35.379  13.640   7.653
 5768POPC   C1B12703  35.471  13.882   8.553
 5768POPC   C2B12704  35.453  13.869   8.253
 5768POPC   C3B12705  35.462  13.856   7.953
 5768POPC   C4B12706  35.462  13.906   7.653
 5769POPC   NC312707   3.530   8.936   9.453
 5769POPC   PO412708   3.587   8.960   9.153
 5769POPC   GL112709   3.565   8.961   8.853
 5769POPC   GL212710   3.592   8.802   8.853
 5769POPC   C1A12711   3.575   8.949   8.553
 5769POPC   D2A12712   3.516   8.955   8.253
 5769POPC   C3A12713   3.540   8.933   7.953
 5769POPC   C4A12714   3.536   8.976   7.653
 5769POPC   C1B12715   3.570   8.728   8.553
 5769POPC   C2B12716   3.587   8.699   8.253
 5769POPC   C3B12717   3.556   8.736   7.953
 5769POPC   C4B12718   3.524   8.690   7.653
 5770POPC   NC312719   9.722   5.056   9.453
 5770POPC   PO412720   9.702   5.124   9.153
 5770POPC   GL112721   9.741   5.080   8.853
 5770POPC   GL212722   9.631   5.003   8.853
 5770POPC   C1A12723   9.767   5.070   8.553
 5770POPC   D2A12724   9.723   5.075   8.253
 5770POPC   C3A12725   9.780   5.111   7.953
 5770POPC   C4A12726   9.742   5.096   7.653
 5770POPC   C1B12727   9.529   4.949   8.553
 5770POPC   C2B12728   9.581   4.929   8.253
 5770POPC   C3B12729   9.536   4.922   7.953
 5770POPC   C4B12730   9.522   4.924   7.653
 5771POPC   NC312731  32.986   1.169   9.453
 5771POPC   PO412732  33.046   1.230   9.153
 5771POPC   GL112733  33.018   1.202   8.853
 5771POPC   GL212734  33.055   1.270   8.853
 5771POPC   C1A12735  33.008   1.172   8.553
 5771POPC   D2A12736  33.007   1.175   8.253
 5771POPC   C3A12737  33.060   1.238   7.953
 5771POPC   C4A12738  33.027   1.233   7.653
 5771POPC   C1B12739  33.131   1.396   8.553
 5771POPC   C2B12740  33.203   1.435   8.253
 5771POPC   C3B12741  33.140   1.434   7.953
 5771POPC   C4B12742  33.121   1.379   7.653
 5772POPC   NC312743  25.279  43.920   9.453
 5772POPC   PO412744  25.296  43.927   9.153
 5772POPC   GL112745  25.279  43.854   8.853
 5772POPC   GL212746  25.171  43.905   8.853
 5772POPC   C1A12747  25.294  43.903   8.553
 5772POPC   D2A12748  25.267  43.910   8.253
 5772POPC   C3A12749  25.248  43.902   7.953
 5772POPC   C4A12750  25.241  43.892   7.653
 5772POPC   C1B12751  25.049  43.882   8.553
 5772POPC   C2B12752  25.000  43.908   8.253
 5772POPC   C3B12753  25.030  43.908   7.953
 5772POPC   C4B12754  25.009  43.883   7.653
 5773POPC   NC312755  36.940   8.222   9.453
 5773POPC   PO412756  36.860   8.194   9.153
 5773POPC   GL112757  36.880   8.155   8.853
 5773POPC   GL212758  36.957   8.147   8.853
 5773POPC   C1A12759  36.910   8.193   8.553
 5773POPC   D2A12760  36.931   8.200   8.253
 5773POPC   C3A12761  36.866   8.223   7.953
 5773POPC   C4A12762  36.912   8.240   7.653
 5773POPC   C1B12763  37.120   7.990   8.553
 5773POPC   C2B12764  37.083   8.028   8.253
 5773POPC   C3B12765  37.084   8.016   7.953
 5773POPC   C4B12766  37.079   8.043   7.653
 5774POPC   NC312767  31.444   9.766   9.453
 5774POPC   PO412768  31.489   9.746   9.153
 5774POPC   GL112769  31.448   9.797   8.853
 5774POPC   GL212770  31.351   9.767   8.853
 5774POPC   C1A12771  31.497   9.759   8.553
 5774POPC   D2A12772  31.464   9.751   8.253
 5774POPC   C3A12773  31.482   9.704   7.953
 5774POPC   C4A12774  31.501   9.755   7.653
 5774POPC   C1B12775  31.284   9.841   8.553
 5774POPC   C2B12776  31.247   9.861   8.253
 5774POPC   C3B12777  31.211   9.844   7.953
 5774POPC   C4B12778  31.225   9.863   7.653
 5775POPC   NC312779  34.594  34.551   9.453
 5775POPC   PO412780  34.532  34.539   9.153
 5775POPC   GL112781  34.553  34.544   8.853
 5775POPC   GL212782  34.470  34.552   8.853
 5775POPC   C1A12783  34.568  34.540   8.553
 5775POPC   D2A12784  34.623  34.617   8.253
 5775POPC   C3A12785  34.616  34.619   7.953
 5775POPC   C4A12786  34.580  34.617   7.653
 5775POPC   C1B12787  34.307  34.655   8.553
 5775POPC   C2B12788  34.337  34.586   8.253
 5775POPC   C3B12789  34.375  34.670   7.953
 5775POPC   C4B12790  34.305  34.654   7.653
 5776POPC   NC312791  43.882  34.591   9.453
 5776POPC   PO412792  43.920  34.586   9.153
 5776POPC   GL112793  43.896  34.624   8.853
 5776POPC   GL212794  44.012  34.599   8.853
 5776POPC   C1A12795  43.911  34.586   8.553
 5776POPC   D2A12796  43.862  34.613   8.253
 5776POPC   C3A12797  43.930  34.613   7.953
 5776POPC   C4A12798  43.921  34.539   7.653
 5776POPC   C1B12799  44.167  34.541   8.553
 5776POPC   C2B12800  44.180  34.599   8.253
 5776POPC   C3B12801  44.088  34.594   7.953
 5776POPC   C4B12802  44.112  34.602   7.653
 5777POPC   NC312803  15.178   8.222   9.453
 5777POPC   PO412804  15.187   8.150   9.153
 5777POPC   GL112805  15.226   8.232   8.853
 5777POPC   GL212806  15.083   8.266   8.853
 5777POPC   C1A12807  15.191   8.167   8.553
 5777POPC   D2A12808  15.160   8.179   8.253
 5777POPC   C3A12809  15.207   8.246   7.953
 5777POPC   C4A12810  15.186   8.185   7.653
 5777POPC   C1B12811  15.076   8.396   8.553
 5777POPC   C2B12812  15.059   8.398   8.253
 5777POPC   C3B12813  15.047   8.379   7.953
 5777POPC   C4B12814  15.036   8.403   7.653
 5778POPC   NC312815  40.057   8.182   9.453
 5778POPC   PO412816  40.001   8.219   9.153
 5778POPC   GL112817  40.033   8.243   8.853
 5778POPC   GL212818  40.013   8.327   8.853
 5778POPC   C1A12819  39.958   8.195   8.553
 5778POPC   D2A12820  40.055   8.207   8.253
 5778POPC   C3A12821  40.019   8.176   7.953
 5778POPC   C4A12822  40.023   8.175   7.653
 5778POPC   C1B12823  40.045   8.493   8.553
 5778POPC   C2B12824  39.998   8.419   8.253
 5778POPC   C3B12825  40.022   8.417   7.953
 5778POPC   C4B12826  39.978   8.476   7.653
 5779POPC   NC312827  41.517   0.431   9.453
 5779POPC   PO412828  41.540   0.440   9.153
 5779POPC   GL112829  41.513   0.483   8.853
 5779POPC   GL212830  41.500   0.549   8.853
 5779POPC   C1A12831  41.608   0.404   8.553
 5779POPC   D2A12832  41.533   0.439   8.253
 5779POPC   C3A12833  41.566   0.438   7.953
 5779POPC   C4A12834  41.547   0.458   7.653
 5779POPC   C1B12835  41.462   0.666   8.553
 5779POPC   C2B12836  41.446   0.632   8.253
 5779POPC   C3B12837  41.505   0.676   7.953
 5779POPC   C4B12838  41.499   0.711   7.653
 5780POPC   NC312839  25.288  20.657   9.453
 5780POPC   PO412840  25.239  20.590   9.153
 5780POPC   GL112841  25.254  20.637   8.853
 5780POPC   GL212842  25.414  20.633   8.853
 5780POPC   C1A12843  25.244  20.643   8.553
 5780POPC   D2A12844  25.309  20.644   8.253
 5780POPC   C3A12845  25.310  20.580   7.953
 5780POPC   C4A12846  25.297  20.604   7.653
 5780POPC   C1B12847  25.481  20.599   8.553
 5780POPC   C2B12848  25.500  20.581   8.253
 5780POPC   C3B12849  25.493  20.621   7.953
 5780POPC   C4B12850  25.534  20.556   7.653
 5781POPC   NC312851  29.115  17.461   9.453
 5781POPC   PO412852  29.137  17.515   9.153
 5781POPC   GL112853  29.098  17.522   8.853
 5781POPC   GL212854  29.156  17.600   8.853
 5781POPC   C1A12855  29.096  17.534   8.553
 5781POPC   D2A12856  29.185  17.548   8.253
 5781POPC   C3A12857  29.188  17.460   7.953
 5781POPC   C4A12858  29.181  17.519   7.653
 5781POPC   C1B12859  29.119  17.718   8.553
 5781POPC   C2B12860  29.168  17.771   8.253
 5781POPC   C3B12861  29.178  17.764   7.953
 5781POPC   C4B12862  29.139  17.802   7.653
 5782POPC   NC312863  43.072  29.929   9.453
 5782POPC   PO412864  43.158  29.888   9.153
 5782POPC   GL112865  43.160  29.915   8.853
 5782POPC   GL212866  43.097  29.810   8.853
 5782POPC   C1A12867  43.142  29.878   8.553
 5782POPC   D2A12868  43.126  29.934   8.253
 5782POPC   C3A12869  43.133  29.955   7.953
 5782POPC   C4A12870  43.156  29.903   7.653
 5782POPC   C1B12871  43.016  29.663   8.553
 5782POPC   C2B12872  43.046  29.647   8.253
 5782POPC   C3B12873  42.957  29.714   7.953
 5782POPC   C4B12874  42.955  29.674   7.653
 5783POPC   NC312875  12.028  27.548   9.453
 5783POPC   PO412876  12.108  27.614   9.153
 5783POPC   GL112877  12.093  27.616   8.853
 5783POPC   GL212878  11.973  27.692   8.853
 5783POPC   C1A12879  12.031  27.571   8.553
 5783POPC   D2A12880  12.032  27.571   8.253
 5783POPC   C3A12881  12.055  27.581   7.953
 5783POPC   C4A12882  12.117  27.593   7.653
 5783POPC   C1B12883  11.830  27.754   8.553
 5783POPC   C2B12884  11.923  27.733   8.253
 5783POPC   C3B12885  11.842  27.716   7.953
 5783POPC   C4B12886  11.869  27.734   7.653
 5784POPC   NC312887  12.100  28.396   9.453
 5784POPC   PO412888  12.100  28.364   9.153
 5784POPC   GL112889  12.111  28.328   8.853
 5784POPC   GL212890  11.995  28.507   8.853
 5784POPC   C1A12891  12.072  28.342   8.553
 5784POPC   D2A12892  12.096  28.394   8.253
 5784POPC   C3A12893  12.088  28.384   7.953
 5784POPC   C4A12894  12.065  28.403   7.653
 5784POPC   C1B12895  11.919  28.571   8.553
 5784POPC   C2B12896  11.939  28.561   8.253
 5784POPC   C3B12897  11.945  28.519   7.953
 5784POPC   C4B12898  11.908  28.549   7.653
 5785POPC   NC312899  19.845   7.380   9.453
 5785POPC   PO412900  19.794   7.462   9.153
 5785POPC   GL112901  19.789   7.468   8.853
 5785POPC   GL212902  19.839   7.546   8.853
 5785POPC   C1A12903  19.805   7.451   8.553
 5785POPC   D2A12904  19.864   7.423   8.253
 5785POPC   C3A12905  19.863   7.455   7.953
 5785POPC   C4A12906  19.833   7.450   7.653
 5785POPC   C1B12907  19.732   7.698   8.553
 5785POPC   C2B12908  19.721   7.694   8.253
 5785POPC   C3B12909  19.800   7.643   7.953
 5785POPC   C4B12910  19.711   7.685   7.653
 5786POPC   NC312911  26.794  38.448   9.453
 5786POPC   PO412912  26.793  38.487   9.153
 5786POPC   GL112913  26.793  38.444   8.853
 5786POPC   GL212914  26.953  38.398   8.853
 5786POPC   C1A12915  26.854  38.437   8.553
 5786POPC   D2A12916  26.799  38.446   8.253
 5786POPC   C3A12917  26.838  38.431   7.953
 5786POPC   C4A12918  26.818  38.463   7.653
 5786POPC   C1B12919  27.096  38.398   8.553
 5786POPC   C2B12920  27.027  38.391   8.253
 5786POPC   C3B12921  27.026  38.340   7.953
 5786POPC   C4B12922  27.051  38.395   7.653
 5787POPC   NC312923  35.335  33.815   9.453
 5787POPC   PO412924  35.389  33.758   9.153
 5787POPC   GL112925  35.376  33.759   8.853
 5787POPC   GL212926  35.420  33.937   8.853
 5787POPC   C1A12927  35.347  33.849   8.553
 5787POPC   D2A12928  35.376  33.775   8.253
 5787POPC   C3A12929  35.367  33.786   7.953
 5787POPC   C4A12930  35.378  33.776   7.653
 5787POPC   C1B12931  35.474  33.986   8.553
 5787POPC   C2B12932  35.495  34.044   8.253
 5787POPC   C3B12933  35.520  33.957   7.953
 5787POPC   C4B12934  35.476  34.015   7.653
 5788POPC   NC312935   2.723   1.958   9.453
 5788POPC   PO412936   2.744   1.990   9.153
 5788POPC   GL112937   2.786   1.982   8.853
 5788POPC   GL212938   2.925   2.064   8.853
 5788POPC   C1A12939   2.812   2.035   8.553
 5788POPC   D2A12940   2.766   1.982   8.253
 5788POPC   C3A12941   2.800   1.980   7.953
 5788POPC   C4A12942   2.780   1.983   7.653
 5788POPC   C1B12943   3.039   2.028   8.553
 5788POPC   C2B12944   3.034   2.079   8.253
 5788POPC   C3B12945   3.052   2.007   7.953
 5788POPC   C4B12946   3.043   2.006   7.653
 5789POPC   NC312947  43.158   5.114   9.453
 5789POPC   PO412948  43.150   5.061   9.153
 5789POPC   GL112949  43.114   5.129   8.853
 5789POPC   GL212950  43.072   4.990   8.853
 5789POPC   C1A12951  43.142   5.108   8.553
 5789POPC   D2A12952  43.111   5.073   8.253
 5789POPC   C3A12953  43.098   5.099   7.953
 5789POPC   C4A12954  43.156   5.070   7.653
 5789POPC   C1B12955  43.109   4.806   8.553
 5789POPC   C2B12956  43.126   4.801   8.253
 5789POPC   C3B12957  43.115   4.853   7.953
 5789POPC   C4B12958  43.106   4.824   7.653
 5790POPC   NC312959  27.603  33.064   9.453
 5790POPC   PO412960  27.585  33.011   9.153
 5790POPC   GL112961  27.559  33.054   8.853
 5790POPC   GL212962  27.582  33.134   8.853
 5790POPC   C1A12963  27.548  32.990   8.553
 5790POPC   D2A12964  27.633  33.073   8.253
 5790POPC   C3A12965  27.619  33.028   7.953
 5790POPC   C4A12966  27.598  33.029   7.653
 5790POPC   C1B12967  27.660  33.301   8.553
 5790POPC   C2B12968  27.631  33.273   8.253
 5790POPC   C3B12969  27.606  33.221   7.953
 5790POPC   C4B12970  27.625  33.306   7.653
 5791POPC   NC312971  14.354   6.663   9.453
 5791POPC   PO412972  14.431   6.641   9.153
 5791POPC   GL112973  14.441   6.631   8.853
 5791POPC   GL212974  14.558   6.668   8.853
 5791POPC   C1A12975  14.418   6.607   8.553
 5791POPC   D2A12976  14.368   6.661   8.253
 5791POPC   C3A12977  14.400   6.693   7.953
 5791POPC   C4A12978  14.441   6.655   7.653
 5791POPC   C1B12979  14.662   6.649   8.553
 5791POPC   C2B12980  14.656   6.599   8.253
 5791POPC   C3B12981  14.631   6.578   7.953
 5791POPC   C4B12982  14.644   6.614   7.653
 5792POPC   NC312983  26.082  14.401   9.453
 5792POPC   PO412984  25.994  14.405   9.153
 5792POPC   GL112985  26.074  14.411   8.853
 5792POPC   GL212986  26.039  14.237   8.853
 5792POPC   C1A12987  26.058  14.436   8.553
 5792POPC   D2A12988  26.001  14.443   8.253
 5792POPC   C3A12989  26.015  14.407   7.953
 5792POPC   C4A12990  26.059  14.427   7.653
 5792POPC   C1B12991  25.949  14.184   8.553
 5792POPC   C2B12992  25.989  14.164   8.253
 5792POPC   C3B12993  25.953  14.204   7.953
 5792POPC   C4B12994  25.960  14.170   7.653
 5793POPC   NC312995   5.887  12.120   9.453
 5793POPC   PO412996   5.864  12.103   9.153
 5793POPC   GL112997   5.843  12.052   8.853
 5793POPC   GL212998   5.987  11.969   8.853
 5793POPC   C1A12999   5.911  12.092   8.553
 5793POPC   D2A13000   5.882  12.062   8.253
 5793POPC   C3A13001   5.894  12.110   7.953
 5793POPC   C4A13002   5.828  12.062   7.653
 5793POPC   C1B13003   5.999  11.892   8.553
 5793POPC   C2B13004   6.079  11.909   8.253
 5793POPC   C3B13005   6.007  11.928   7.953
 5793POPC   C4B13006   6.084  11.892   7.653
 5794POPC   NC313007  10.477  36.902   9.453
 5794POPC   PO413008  10.556  36.906   9.153
 5794POPC   GL113009  10.553  36.904   8.853
 5794POPC   GL213010  10.466  36.847   8.853
 5794POPC   C1A13011  10.545  36.903   8.553
 5794POPC   D2A13012  10.562  36.924   8.253
 5794POPC   C3A13013  10.566  36.875   7.953
 5794POPC   C4A13014  10.525  36.886   7.653
 5794POPC   C1B13015  10.287  36.778   8.553
 5794POPC   C2B13016  10.271  36.769   8.253
 5794POPC   C3B13017  10.262  36.796   7.953
 5794POPC   C4B13018  10.261  36.776   7.653
 5795POPC   NC313019  20.564  37.638   9.453
 5795POPC   PO413020  20.605  37.664   9.153
 5795POPC   GL113021  20.608  37.691   8.853
 5795POPC   GL213022  20.608  37.841   8.853
 5795POPC   C1A13023  20.604  37.684   8.553
 5795POPC   D2A13024  20.631  37.706   8.253
 5795POPC   C3A13025  20.650  37.723   7.953
 5795POPC   C4A13026  20.579  37.638   7.653
 5795POPC   C1B13027  20.542  37.942   8.553
 5795POPC   C2B13028  20.608  37.879   8.253
 5795POPC   C3B13029  20.607  37.880   7.953
 5795POPC   C4B13030  20.577  37.970   7.653
 5796POPC   NC313031  35.380  10.546   9.453
 5796POPC   PO413032  35.373  10.563   9.153
 5796POPC   GL113033  35.400  10.525   8.853
 5796POPC   GL213034  35.410  10.653   8.853
 5796POPC   C1A13035  35.318  10.532   8.553
 5796POPC   D2A13036  35.330  10.489   8.253
 5796POPC   C3A13037  35.343  10.537   7.953
 5796POPC   C4A13038  35.314  10.519   7.653
 5796POPC   C1B13039  35.347  10.802   8.553
 5796POPC   C2B13040  35.360  10.775   8.253
 5796POPC   C3B13041  35.418  10.781   7.953
 5796POPC   C4B13042  35.406  10.788   7.653
 5797POPC   NC313043  12.803   6.596   9.453
 5797POPC   PO413044  12.893   6.685   9.153
 5797POPC   GL113045  12.824   6.677   8.853
 5797POPC   GL213046  12.746   6.640   8.853
 5797POPC   C1A13047  12.886   6.651   8.553
 5797POPC   D2A13048  12.876   6.690   8.253
 5797POPC   C3A13049  12.885   6.596   7.953
 5797POPC   C4A13050  12.894   6.668   7.653
 5797POPC   C1B13051  12.649   6.654   8.553
 5797POPC   C2B13052  12.572   6.676   8.253
 5797POPC   C3B13053  12.619   6.673   7.953
 5797POPC   C4B13054  12.590   6.710   7.653
 5798POPC   NC313055  20.633  39.979   9.453
 5798POPC   PO413056  20.606  40.015   9.153
 5798POPC   GL113057  20.582  40.040   8.853
 5798POPC   GL213058  20.516  40.079   8.853
 5798POPC   C1A13059  20.589  39.960   8.553
 5798POPC   D2A13060  20.590  40.026   8.253
 5798POPC   C3A13061  20.613  40.027   7.953
 5798POPC   C4A13062  20.606  39.965   7.653
 5798POPC   C1B13063  20.404  40.169   8.553
 5798POPC   C2B13064  20.445  40.150   8.253
 5798POPC   C3B13065  20.446  40.174   7.953
 5798POPC   C4B13066  20.477  40.148   7.653
 5799POPC   NC313067  39.980  40.768   9.453
 5799POPC   PO413068  40.048  40.789   9.153
 5799POPC   GL113069  39.969  40.771   8.853
 5799POPC   GL213070  40.066  40.937   8.853
 5799POPC   C1A13071  39.986  40.792   8.553
 5799POPC   D2A13072  40.039  40.828   8.253
 5799POPC   C3A13073  39.963  40.796   7.953
 5799POPC   C4A13074  39.960  40.762   7.653
 5799POPC   C1B13075  40.077  41.024   8.553
 5799POPC   C2B13076  40.157  40.970   8.253
 5799POPC   C3B13077  40.160  41.027   7.953
 5799POPC   C4B13078  40.083  41.054   7.653
 5800POPC   NC313079  42.352  19.012   9.453
 5800POPC   PO413080  42.339  19.021   9.153
 5800POPC   GL113081  42.312  19.029   8.853
 5800POPC   GL213082  42.328  18.955   8.853
 5800POPC   C1A13083  42.309  19.041   8.553
 5800POPC   D2A13084  42.333  19.067   8.253
 5800POPC   C3A13085  42.366  19.063   7.953
 5800POPC   C4A13086  42.350  19.104   7.653
 5800POPC   C1B13087  42.230  18.785   8.553
 5800POPC   C2B13088  42.306  18.862   8.253
 5800POPC   C3B13089  42.308  18.785   7.953
 5800POPC   C4B13090  42.265  18.847   7.653
 5801POPC   NC313091   8.204  23.705   9.453
 5801POPC   PO413092   8.159  23.725   9.153
 5801POPC   GL113093   8.208  23.733   8.853
 5801POPC   GL213094   8.251  23.680   8.853
 5801POPC   C1A13095   8.173  23.710   8.553
 5801POPC   D2A13096   8.178  23.718   8.253
 5801POPC   C3A13097   8.157  23.717   7.953
 5801POPC   C4A13098   8.220  23.741   7.653
 5801POPC   C1B13099   8.394  23.566   8.553
 5801POPC   C2B13100   8.417  23.568   8.253
 5801POPC   C3B13101   8.367  23.597   7.953
 5801POPC   C4B13102   8.382  23.579   7.653
 5802POPC   NC313103  41.556  15.992   9.453
 5802POPC   PO413104  41.608  15.947   9.153
 5802POPC   GL113105  41.566  15.976   8.853
 5802POPC   GL213106  41.618  15.843   8.853
 5802POPC   C1A13107  41.554  15.959   8.553
 5802POPC   D2A13108  41.550  15.914   8.253
 5802POPC   C3A13109  41.547  15.913   7.953
 5802POPC   C4A13110  41.591  15.906   7.653
 5802POPC   C1B13111  41.639  15.758   8.553
 5802POPC   C2B13112  41.676  15.691   8.253
 5802POPC   C3B13113  41.679  15.763   7.953
 5802POPC   C4B13114  41.595  15.686   7.653
 5803POPC   NC313115  14.413  11.318   9.453
 5803POPC   PO413116  14.433  11.256   9.153
 5803POPC   GL113117  14.418  11.340   8.853
 5803POPC   GL213118  14.371  11.198   8.853
 5803POPC   C1A13119  14.446  11.333   8.553
 5803POPC   D2A13120  14.423  11.332   8.253
 5803POPC   C3A13121  14.443  11.304   7.953
 5803POPC   C4A13122  14.370  11.326   7.653
 5803POPC   C1B13123  14.277  11.087   8.553
 5803POPC   C2B13124  14.270  11.064   8.253
 5803POPC   C3B13125  14.312  11.060   7.953
 5803POPC   C4B13126  14.342  11.056   7.653
 5804POPC   NC313127  32.234   0.475   9.453
 5804POPC   PO413128  32.284   0.418   9.153
 5804POPC   GL113129  32.259   0.451   8.853
 5804POPC   GL213130  32.372   0.374   8.853
 5804POPC   C1A13131  32.244   0.441   8.553
 5804POPC   D2A13132  32.266   0.400   8.253
 5804POPC   C3A13133  32.281   0.396   7.953
 5804POPC   C4A13134  32.213   0.486   7.653
 5804POPC   C1B13135  32.436   0.303   8.553
 5804POPC   C2B13136  32.443   0.266   8.253
 5804POPC   C3B13137  32.498   0.348   7.953
 5804POPC   C4B13138  32.472   0.278   7.653
 5805POPC   NC313139  17.493   0.480   9.453
 5805POPC   PO413140  17.493   0.396   9.153
 5805POPC   GL113141  17.458   0.438   8.853
 5805POPC   GL213142  17.452   0.593   8.853
 5805POPC   C1A13143  17.556   0.395   8.553
 5805POPC   D2A13144  17.493   0.390   8.253
 5805POPC   C3A13145  17.478   0.479   7.953
 5805POPC   C4A13146  17.511   0.401   7.653
 5805POPC   C1B13147  17.376   0.630   8.553
 5805POPC   C2B13148  17.425   0.688   8.253
 5805POPC   C3B13149  17.427   0.669   7.953
 5805POPC   C4B13150  17.342   0.618   7.653
 5806POPC   NC313151  20.582  24.539   9.453
 5806POPC   PO413152  20.561  24.510   9.153
 5806POPC   GL113153  20.610  24.450   8.853
 5806POPC   GL213154  20.589  24.385   8.853
 5806POPC   C1A13155  20.594  24.527   8.553
 5806POPC   D2A13156  20.629  24.444   8.253
 5806POPC   C3A13157  20.660  24.483   7.953
 5806POPC   C4A13158  20.635  24.445   7.653
 5806POPC   C1B13159  20.600  24.288   8.553
 5806POPC   C2B13160  20.554  24.210   8.253
 5806POPC   C3B13161  20.568  24.290   7.953
 5806POPC   C4B13162  20.605  24.240   7.653
 5807POPC   NC313163  25.296  25.255   9.453
 5807POPC   PO413164  25.309  25.261   9.153
 5807POPC   GL113165  25.231  25.240   8.853
 5807POPC   GL213166  25.215  25.154   8.853
 5807POPC   C1A13167  25.221  25.276   8.553
 5807POPC   D2A13168  25.245  25.255   8.253
 5807POPC   C3A13169  25.309  25.216   7.953
 5807POPC   C4A13170  25.287  25.264   7.653
 5807POPC   C1B13171  25.132  25.053   8.553
 5807POPC   C2B13172  25.150  25.066   8.253
 5807POPC   C3B13173  25.124  25.010   7.953
 5807POPC   C4B13174  25.152  25.020   7.653
 5808POPC   NC313175  36.946   3.527   9.453
 5808POPC   PO413176  36.907   3.553   9.153
 5808POPC   GL113177  36.909   3.566   8.853
 5808POPC   GL213178  37.033   3.468   8.853
 5808POPC   C1A13179  36.888   3.539   8.553
 5808POPC   D2A13180  36.854   3.497   8.253
 5808POPC   C3A13181  36.945   3.524   7.953
 5808POPC   C4A13182  36.940   3.539   7.653
 5808POPC   C1B13183  37.093   3.383   8.553
 5808POPC   C2B13184  37.086   3.463   8.253
 5808POPC   C3B13185  37.085   3.418   7.953
 5808POPC   C4B13186  37.108   3.469   7.653
 5809POPC   NC313187  35.400   7.443   9.453
 5809POPC   PO413188  35.335   7.376   9.153
 5809POPC   GL113189  35.360   7.384   8.853
 5809POPC   GL213190  35.336   7.320   8.853
 5809POPC   C1A13191  35.333   7.412   8.553
 5809POPC   D2A13192  35.339   7.378   8.253
 5809POPC   C3A13193  35.344   7.418   7.953
 5809POPC   C4A13194  35.395   7.395   7.653
 5809POPC   C1B13195  35.271   7.173   8.553
 5809POPC   C2B13196  35.259   7.145   8.253
 5809POPC   C3B13197  35.238   7.217   7.953
 5809POPC   C4B13198  35.225   7.163   7.653
 5810POPC   NC313199  32.215  36.953   9.453
 5810POPC   PO413200  32.225  36.939   9.153
 5810POPC   GL113201  32.257  36.902   8.853
 5810POPC   GL213202  32.129  36.897   8.853
 5810POPC   C1A13203  32.225  36.876   8.553
 5810POPC   D2A13204  32.199  36.918   8.253
 5810POPC   C3A13205  32.287  36.935   7.953
 5810POPC   C4A13206  32.235  36.889   7.653
 5810POPC   C1B13207  31.989  36.844   8.553
 5810POPC   C2B13208  32.048  36.831   8.253
 5810POPC   C3B13209  32.047  36.777   7.953
 5810POPC   C4B13210  32.040  36.771   7.653
 5811POPC   NC313211  23.674  23.719   9.453
 5811POPC   PO413212  23.717  23.731   9.153
 5811POPC   GL113213  23.753  23.757   8.853
 5811POPC   GL213214  23.618  23.667   8.853
 5811POPC   C1A13215  23.745  23.693   8.553
 5811POPC   D2A13216  23.752  23.701   8.253
 5811POPC   C3A13217  23.748  23.738   7.953
 5811POPC   C4A13218  23.692  23.678   7.653
 5811POPC   C1B13219  23.421  23.651   8.553
 5811POPC   C2B13220  23.515  23.695   8.253
 5811POPC   C3B13221  23.480  23.628   7.953
 5811POPC   C4B13222  23.472  23.634   7.653
 5812POPC   NC313223  40.778   0.459   9.453
 5812POPC   PO413224  40.742   0.485   9.153
 5812POPC   GL113225  40.782   0.425   8.853
 5812POPC   GL213226  40.717   0.363   8.853
 5812POPC   C1A13227  40.815   0.467   8.553
 5812POPC   D2A13228  40.741   0.476   8.253
 5812POPC   C3A13229  40.775   0.470   7.953
 5812POPC   C4A13230  40.756   0.427   7.653
 5812POPC   C1B13231  40.583   0.364   8.553
 5812POPC   C2B13232  40.594   0.352   8.253
 5812POPC   C3B13233  40.595   0.326   7.953
 5812POPC   C4B13234  40.578   0.285   7.653
 5813POPC   NC313235  30.736  30.736   9.453
 5813POPC   PO413236  30.674  30.693   9.153
 5813POPC   GL113237  30.685  30.708   8.853
 5813POPC   GL213238  30.812  30.817   8.853
 5813POPC   C1A13239  30.664  30.745   8.553
 5813POPC   D2A13240  30.674  30.659   8.253
 5813POPC   C3A13241  30.712  30.705   7.953
 5813POPC   C4A13242  30.694  30.738   7.653
 5813POPC   C1B13243  30.898  30.888   8.553
 5813POPC   C2B13244  30.862  30.834   8.253
 5813POPC   C3B13245  30.860  30.869   7.953
 5813POPC   C4B13246  30.893  30.916   7.653
 5814POPC   NC313247  14.432  24.489   9.453
 5814POPC   PO413248  14.396  24.466   9.153
 5814POPC   GL113249  14.431  24.455   8.853
 5814POPC   GL213250  14.324  24.475   8.853
 5814POPC   C1A13251  14.400  24.485   8.553
 5814POPC   D2A13252  14.364  24.518   8.253
 5814POPC   C3A13253  14.417  24.475   7.953
 5814POPC   C4A13254  14.415  24.515   7.653
 5814POPC   C1B13255  14.181  24.335   8.553
 5814POPC   C2B13256  14.226  24.357   8.253
 5814POPC   C3B13257  14.213  24.332   7.953
 5814POPC   C4B13258  14.179  24.410   7.653
 5815POPC   NC313259   6.691   9.770   9.453
 5815POPC   PO413260   6.620   9.768   9.153
 5815POPC   GL113261   6.652   9.741   8.853
 5815POPC   GL213262   6.684   9.850   8.853
 5815POPC   C1A13263   6.683   9.743   8.553
 5815POPC   D2A13264   6.642   9.722   8.253
 5815POPC   C3A13265   6.612   9.798   7.953
 5815POPC   C4A13266   6.616   9.762   7.653
 5815POPC   C1B13267   6.622  10.008   8.553
 5815POPC   C2B13268   6.687   9.994   8.253
 5815POPC   C3B13269   6.617  10.030   7.953
 5815POPC   C4B13270   6.597   9.968   7.653
 5816POPC   NC313271  31.431  13.644   9.453
 5816POPC   PO413272  31.505  13.669   9.153
 5816POPC   GL113273  31.517  13.659   8.853
 5816POPC   GL213274  31.359  13.581   8.853
 5816POPC   C1A13275  31.470  13.664   8.553
 5816POPC   D2A13276  31.459  13.581   8.253
 5816POPC   C3A13277  31.479  13.582   7.953
 5816POPC   C4A13278  31.510  13.582   7.653
 5816POPC   C1B13279  31.277  13.524   8.553
 5816POPC   C2B13280  31.253  13.511   8.253
 5816POPC   C3B13281  31.235  13.498   7.953
 5816POPC   C4B13282  31.257  13.575   7.653
 5817POPC   NC313283   8.148  32.211   9.453
 5817POPC   PO413284   8.190  32.240   9.153
 5817POPC   GL113285   8.195  32.263   8.853
 5817POPC   GL213286   8.326  32.230   8.853
 5817POPC   C1A13287   8.156  32.263   8.553
 5817POPC   D2A13288   8.176  32.247   8.253
 5817POPC   C3A13289   8.179  32.227   7.953
 5817POPC   C4A13290   8.173  32.233   7.653
 5817POPC   C1B13291   8.496  32.304   8.553
 5817POPC   C2B13292   8.442  32.251   8.253
 5817POPC   C3B13293   8.438  32.215   7.953
 5817POPC   C4B13294   8.431  32.256   7.653
 5818POPC   NC313295  19.060  41.529   9.453
 5818POPC   PO413296  19.075  41.576   9.153
 5818POPC   GL113297  19.104  41.541   8.853
 5818POPC   GL213298  19.214  41.532   8.853
 5818POPC   C1A13299  19.105  41.519   8.553
 5818POPC   D2A13300  19.022  41.566   8.253
 5818POPC   C3A13301  19.063  41.516   7.953
 5818POPC   C4A13302  19.034  41.578   7.653
 5818POPC   C1B13303  19.246  41.486   8.553
 5818POPC   C2B13304  19.264  41.494   8.253
 5818POPC   C3B13305  19.315  41.460   7.953
 5818POPC   C4B13306  19.262  41.407   7.653
 5819POPC   NC313307  39.265  22.903   9.453
 5819POPC   PO413308  39.253  22.954   9.153
 5819POPC   GL113309  39.261  22.948   8.853
 5819POPC   GL213310  39.185  22.989   8.853
 5819POPC   C1A13311  39.213  22.981   8.553
 5819POPC   D2A13312  39.231  22.984   8.253
 5819POPC   C3A13313  39.201  22.890   7.953
 5819POPC   C4A13314  39.232  22.923   7.653
 5819POPC   C1B13315  39.102  23.135   8.553
 5819POPC   C2B13316  39.081  23.161   8.253
 5819POPC   C3B13317  39.078  23.122   7.953
 5819POPC   C4B13318  39.066  23.185   7.653
 5820POPC   NC313319  33.828  31.465   9.453
 5820POPC   PO413320  33.822  31.517   9.153
 5820POPC   GL113321  33.844  31.428   8.853
 5820POPC   GL213322  33.689  31.473   8.853
 5820POPC   C1A13323  33.758  31.424   8.553
 5820POPC   D2A13324  33.840  31.475   8.253
 5820POPC   C3A13325  33.757  31.471   7.953
 5820POPC   C4A13326  33.784  31.445   7.653
 5820POPC   C1B13327  33.566  31.434   8.553
 5820POPC   C2B13328  33.586  31.370   8.253
 5820POPC   C3B13329  33.554  31.377   7.953
 5820POPC   C4B13330  33.555  31.428   7.653
 5821POPC   NC313331  39.231   4.344   9.453
 5821POPC   PO413332  39.220   4.314   9.153
 5821POPC   GL113333  39.193   4.274   8.853
 5821POPC   GL213334  39.145   4.399   8.853
 5821POPC   C1A13335  39.261   4.304   8.553
 5821POPC   D2A13336  39.244   4.353   8.253
 5821POPC   C3A13337  39.263   4.303   7.953
 5821POPC   C4A13338  39.238   4.297   7.653
 5821POPC   C1B13339  39.083   4.518   8.553
 5821POPC   C2B13340  39.082   4.520   8.253
 5821POPC   C3B13341  39.076   4.545   7.953
 5821POPC   C4B13342  39.063   4.556   7.653
 5822POPC   NC313343  37.665  37.686   9.453
 5822POPC   PO413344  37.681  37.633   9.153
 5822POPC   GL113345  37.708  37.656   8.853
 5822POPC   GL213346  37.729  37.510   8.853
 5822POPC   C1A13347  37.630  37.678   8.553
 5822POPC   D2A13348  37.690  37.722   8.253
 5822POPC   C3A13349  37.681  37.638   7.953
 5822POPC   C4A13350  37.646  37.638   7.653
 5822POPC   C1B13351  37.725  37.463   8.553
 5822POPC   C2B13352  37.696  37.472   8.253
 5822POPC   C3B13353  37.696  37.412   7.953
 5822POPC   C4B13354  37.686  37.441   7.653
 5823POPC   NC313355  43.851  11.319   9.453
 5823POPC   PO413356  43.875  11.295   9.153
 5823POPC   GL113357  43.906  11.347   8.853
 5823POPC   GL213358  43.797  11.403   8.853
 5823POPC   C1A13359  43.875  11.300   8.553
 5823POPC   D2A13360  43.920  11.263   8.253
 5823POPC   C3A13361  43.866  11.340   7.953
 5823POPC   C4A13362  43.908  11.332   7.653
 5823POPC   C1B13363  43.688  11.360   8.553
 5823POPC   C2B13364  43.650  11.392   8.253
 5823POPC   C3B13365  43.653  11.380   7.953
 5823POPC   C4B13366  43.647  11.420   7.653
 5824POPC   NC313367  30.661  15.981   9.453
 5824POPC   PO413368  30.656  15.934   9.153
 5824POPC   GL113369  30.745  15.980   8.853
 5824POPC   GL213370  30.656  15.796   8.853
 5824POPC   C1A13371  30.688  15.948   8.553
 5824POPC   D2A13372  30.664  15.940   8.253
 5824POPC   C3A13373  30.716  15.999   7.953
 5824POPC   C4A13374  30.705  15.949   7.653
 5824POPC   C1B13375  30.627  15.660   8.553
 5824POPC   C2B13376  30.637  15.701   8.253
 5824POPC   C3B13377  30.650  15.728   7.953
 5824POPC   C4B13378  30.686  15.668   7.653
 5825POPC   NC313379  13.675  43.923   9.453
 5825POPC   PO413380  13.641  43.911   9.153
 5825POPC   GL113381  13.578  43.852   8.853
 5825POPC   GL213382  13.480  43.869   8.853
 5825POPC   C1A13383  13.637  43.918   8.553
 5825POPC   D2A13384  13.613  43.926   8.253
 5825POPC   C3A13385  13.593  43.863   7.953
 5825POPC   C4A13386  13.634  43.850   7.653
 5825POPC   C1B13387  13.388  43.811   8.553
 5825POPC   C2B13388  13.344  43.840   8.253
 5825POPC   C3B13389  13.417  43.797   7.953
 5825POPC   C4B13390  13.361  43.837   7.653
 5826POPC   NC313391  36.148  25.997   9.453
 5826POPC   PO413392  36.128  26.024   9.153
 5826POPC   GL113393  36.078  26.007   8.853
 5826POPC   GL213394  35.961  26.091   8.853
 5826POPC   C1A13395  36.139  26.090   8.553
 5826POPC   D2A13396  36.112  26.010   8.253
 5826POPC   C3A13397  36.108  26.070   7.953
 5826POPC   C4A13398  36.170  26.051   7.653
 5826POPC   C1B13399  35.900  26.083   8.553
 5826POPC   C2B13400  35.876  26.152   8.253
 5826POPC   C3B13401  35.923  26.128   7.953
 5826POPC   C4B13402  35.922  26.060   7.653
 5827POPC   NC313403  16.004  40.056   9.453
 5827POPC   PO413404  15.908  39.958   9.153
 5827POPC   GL113405  15.965  40.012   8.853
 5827POPC   GL213406  15.894  39.954   8.853
 5827POPC   C1A13407  15.988  40.028   8.553
 5827POPC   D2A13408  15.969  40.043   8.253
 5827POPC   C3A13409  15.938  40.055   7.953
 5827POPC   C4A13410  16.004  40.016   7.653
 5827POPC   C1B13411  15.802  39.813   8.553
 5827POPC   C2B13412  15.777  39.794   8.253
 5827POPC   C3B13413  15.772  39.850   7.953
 5827POPC   C4B13414  15.767  39.834   7.653
 5828POPC   NC313415  22.166  22.177   9.453
 5828POPC   PO413416  22.121  22.203   9.153
 5828POPC   GL113417  22.114  22.120   8.853
 5828POPC   GL213418  22.296  22.179   8.853
 5828POPC   C1A13419  22.210  22.161   8.553
 5828POPC   D2A13420  22.174  22.126   8.253
 5828POPC   C3A13421  22.126  22.196   7.953
 5828POPC   C4A13422  22.116  22.172   7.653
 5828POPC   C1B13423  22.353  22.249   8.553
 5828POPC   C2B13424  22.421  22.202   8.253
 5828POPC   C3B13425  22.369  22.271   7.953
 5828POPC   C4B13426  22.359  22.248   7.653
 5829POPC   NC313427   5.889  24.512   9.453
 5829POPC   PO413428   5.850  24.469   9.153
 5829POPC   GL113429   5.868  24.535   8.853
 5829POPC   GL213430   5.744  24.446   8.853
 5829POPC   C1A13431   5.844  24.491   8.553
 5829POPC   D2A13432   5.854  24.539   8.253
 5829POPC   C3A13433   5.903  24.536   7.953
 5829POPC   C4A13434   5.881  24.465   7.653
 5829POPC   C1B13435   5.591  24.452   8.553
 5829POPC   C2B13436   5.588  24.479   8.253
 5829POPC   C3B13437   5.612  24.478   7.953
 5829POPC   C4B13438   5.662  24.419   7.653
 5830POPC   NC313439  26.018  16.742   9.453
 5830POPC   PO413440  26.019  16.750   9.153
 5830POPC   GL113441  26.015  16.753   8.853
 5830POPC   GL213442  26.055  16.662   8.853
 5830POPC   C1A13443  26.023  16.683   8.553
 5830POPC   D2A13444  26.067  16.695   8.253
 5830POPC   C3A13445  26.068  16.729   7.953
 5830POPC   C4A13446  26.006  16.733   7.653
 5830POPC   C1B13447  26.122  16.499   8.553
 5830POPC   C2B13448  26.184  16.508   8.253
 5830POPC   C3B13449  26.190  16.535   7.953
 5830POPC   C4B13450  26.153  16.480   7.653
 5831POPC   NC313451  30.718  11.255   9.453
 5831POPC   PO413452  30.682  11.346   9.153
 5831POPC   GL113453  30.661  11.334   8.853
 5831POPC   GL213454  30.851  11.295   8.853
 5831POPC   C1A13455  30.663  11.314   8.553
 5831POPC   D2A13456  30.696  11.262   8.253
 5831POPC   C3A13457  30.648  11.310   7.953
 5831POPC   C4A13458  30.675  11.306   7.653
 5831POPC   C1B13459  30.907  11.279   8.553
 5831POPC   C2B13460  30.978  11.257   8.253
 5831POPC   C3B13461  30.933  11.321   7.953
 5831POPC   C4B13462  30.963  11.328   7.653
 5832POPC   NC313463  33.766  30.738   9.453
 5832POPC   PO413464  33.835  30.697   9.153
 5832POPC   GL113465  33.808  30.704   8.853
 5832POPC   GL213466  33.836  30.839   8.853
 5832POPC   C1A13467  33.788  30.656   8.553
 5832POPC   D2A13468  33.847  30.705   8.253
 5832POPC   C3A13469  33.795  30.684   7.953
 5832POPC   C4A13470  33.763  30.742   7.653
 5832POPC   C1B13471  33.989  30.935   8.553
 5832POPC   C2B13472  33.913  30.879   8.253
 5832POPC   C3B13473  33.960  30.883   7.953
 5832POPC   C4B13474  33.940  30.849   7.653
 5833POPC   NC313475  11.293  40.773   9.453
 5833POPC   PO413476  11.271  40.818   9.153
 5833POPC   GL113477  11.348  40.758   8.853
 5833POPC   GL213478  11.209  40.883   8.853
 5833POPC   C1A13479  11.345  40.800   8.553
 5833POPC   D2A13480  11.315  40.793   8.253
 5833POPC   C3A13481  11.327  40.816   7.953
 5833POPC   C4A13482  11.250  40.804   7.653
 5833POPC   C1B13483  11.063  40.859   8.553
 5833POPC   C2B13484  11.121  40.847   8.253
 5833POPC   C3B13485  11.066  40.892   7.953
 5833POPC   C4B13486  11.079  40.911   7.653
 5834POPC   NC313487   5.050  23.706   9.453
 5834POPC   PO413488   5.074  23.758   9.153
 5834POPC   GL113489   5.103  23.720   8.853
 5834POPC   GL213490   5.162  23.794   8.853
 5834POPC   C1A13491   5.125  23.755   8.553
 5834POPC   D2A13492   5.068  23.754   8.253
 5834POPC   C3A13493   5.068  23.761   7.953
 5834POPC   C4A13494   5.122  23.756   7.653
 5834POPC   C1B13495   5.299  23.937   8.553
 5834POPC   C2B13496   5.217  23.884   8.253
 5834POPC   C3B13497   5.279  23.859   7.953
 5834POPC   C4B13498   5.244  23.901   7.653
 5835POPC   NC313499  36.923  32.221   9.453
 5835POPC   PO413500  36.941  32.259   9.153
 5835POPC   GL113501  36.900  32.246   8.853
 5835POPC   GL213502  37.056  32.252   8.853
 5835POPC   C1A13503  36.946  32.276   8.553
 5835POPC   D2A13504  36.914  32.295   8.253
 5835POPC   C3A13505  36.914  32.249   7.953
 5835POPC   C4A13506  36.917  32.218   7.653
 5835POPC   C1B13507  37.186  32.354   8.553
 5835POPC   C2B13508  37.110  32.355   8.253
 5835POPC   C3B13509  37.159  32.305   7.953
 5835POPC   C4B13510  37.168  32.289   7.653
 5836POPC   NC313511  37.689  15.935   9.453
 5836POPC   PO413512  37.722  15.966   9.153
 5836POPC   GL113513  37.695  15.963   8.853
 5836POPC   GL213514  37.803  15.922   8.853
 5836POPC   C1A13515  37.729  16.002   8.553
 5836POPC   D2A13516  37.721  15.933   8.253
 5836POPC   C3A13517  37.684  15.998   7.953
 5836POPC   C4A13518  37.637  15.941   7.653
 5836POPC   C1B13519  37.951  15.879   8.553
 5836POPC   C2B13520  37.889  15.879   8.253
 5836POPC   C3B13521  37.933  15.890   7.953
 5836POPC   C4B13522  37.915  15.888   7.653
 5837POPC   NC313523  18.263  24.485   9.453
 5837POPC   PO413524  18.237  24.529   9.153
 5837POPC   GL113525  18.322  24.453   8.853
 5837POPC   GL213526  18.366  24.558   8.853
 5837POPC   C1A13527  18.259  24.487   8.553
 5837POPC   D2A13528  18.239  24.440   8.253
 5837POPC   C3A13529  18.332  24.454   7.953
 5837POPC   C4A13530  18.291  24.530   7.653
 5837POPC   C1B13531  18.530  24.501   8.553
 5837POPC   C2B13532  18.514  24.573   8.253
 5837POPC   C3B13533  18.537  24.541   7.953
 5837POPC   C4B13534  18.556  24.526   7.653
 5838POPC   NC313535  40.825   2.784   9.453
 5838POPC   PO413536  40.794   2.727   9.153
 5838POPC   GL113537  40.733   2.753   8.853
 5838POPC   GL213538  40.707   2.730   8.853
 5838POPC   C1A13539  40.815   2.802   8.553
 5838POPC   D2A13540  40.819   2.724   8.253
 5838POPC   C3A13541  40.760   2.735   7.953
 5838POPC   C4A13542  40.765   2.723   7.653
 5838POPC   C1B13543  40.573   2.687   8.553
 5838POPC   C2B13544  40.577   2.650   8.253
 5838POPC   C3B13545  40.504   2.713   7.953
 5838POPC   C4B13546  40.540   2.676   7.653
 5839POPC   NC313547  43.130   9.720   9.453
 5839POPC   PO413548  43.148   9.704   9.153
 5839POPC   GL113549  43.137   9.785   8.853
 5839POPC   GL213550  43.000   9.676   8.853
 5839POPC   C1A13551  43.087   9.757   8.553
 5839POPC   D2A13552  43.145   9.767   8.253
 5839POPC   C3A13553  43.094   9.748   7.953
 5839POPC   C4A13554  43.086   9.732   7.653
 5839POPC   C1B13555  42.955   9.571   8.553
 5839POPC   C2B13556  42.868   9.600   8.253
 5839POPC   C3B13557  42.920   9.625   7.953
 5839POPC   C4B13558  42.902   9.570   7.653
 5840POPC   NC313559  44.657  37.721   9.453
 5840POPC   PO413560  44.671  37.666   9.153
 5840POPC   GL113561  44.612  37.698   8.853
 5840POPC   GL213562  44.542  37.685   8.853
 5840POPC   C1A13563  44.662  37.694   8.553
 5840POPC   D2A13564  44.704  37.630   8.253
 5840POPC   C3A13565  44.664  37.666   7.953
 5840POPC   C4A13566  44.660  37.729   7.653
 5840POPC   C1B13567  44.426  37.721   8.553
 5840POPC   C2B13568  44.384  37.679   8.253
 5840POPC   C3B13569  44.407  37.695   7.953
 5840POPC   C4B13570  44.374  37.677   7.653
 5841POPC   NC313571  12.039  19.794   9.453
 5841POPC   PO413572  12.063  19.795   9.153
 5841POPC   GL113573  12.033  19.805   8.853
 5841POPC   GL213574  11.930  19.916   8.853
 5841POPC   C1A13575  12.113  19.822   8.553
 5841POPC   D2A13576  12.059  19.817   8.253
 5841POPC   C3A13577  12.030  19.789   7.953
 5841POPC   C4A13578  12.045  19.818   7.653
 5841POPC   C1B13579  11.876  20.008   8.553
 5841POPC   C2B13580  11.871  19.957   8.253
 5841POPC   C3B13581  11.897  20.001   7.953
 5841POPC   C4B13582  11.839  19.961   7.653
 5842POPC   NC313583  22.141   8.157   9.453
 5842POPC   PO413584  22.173   8.181   9.153
 5842POPC   GL113585  22.146   8.219   8.853
 5842POPC   GL213586  22.008   8.166   8.853
 5842POPC   C1A13587  22.210   8.196   8.553
 5842POPC   D2A13588  22.131   8.216   8.253
 5842POPC   C3A13589  22.167   8.167   7.953
 5842POPC   C4A13590  22.148   8.161   7.653
 5842POPC   C1B13591  21.925   8.147   8.553
 5842POPC   C2B13592  21.932   8.125   8.253
 5842POPC   C3B13593  21.930   8.218   7.953
 5842POPC   C4B13594  21.871   8.218   7.653
 5843POPC   NC313595  35.328   9.774   9.453
 5843POPC   PO413596  35.336   9.706   9.153
 5843POPC   GL113597  35.358   9.766   8.853
 5843POPC   GL213598  35.315   9.579   8.853
 5843POPC   C1A13599  35.346   9.718   8.553
 5843POPC   D2A13600  35.359   9.769   8.253
 5843POPC   C3A13601  35.336   9.763   7.953
 5843POPC   C4A13602  35.319   9.701   7.653
 5843POPC   C1B13603  35.360   9.503   8.553
 5843POPC   C2B13604  35.328   9.511   8.253
 5843POPC   C3B13605  35.328   9.547   7.953
 5843POPC   C4B13606  35.360   9.459   7.653
 5844POPC   NC313607   0.399  15.174   9.453
 5844POPC   PO413608   0.481  15.176   9.153
 5844POPC   GL113609   0.475  15.180   8.853
 5844POPC   GL213610   0.499  15.293   8.853
 5844POPC   C1A13611   0.401  15.206   8.553
 5844POPC   D2A13612   0.393  15.177   8.253
 5844POPC   C3A13613   0.429  15.181   7.953
 5844POPC   C4A13614   0.394  15.150   7.653
 5844POPC   C1B13615   0.511  15.401   8.553
 5844POPC   C2B13616   0.522  15.407   8.253
 5844POPC   C3B13617   0.484  15.425   7.953
 5844POPC   C4B13618   0.480  15.413   7.653
 5845POPC   NC313619  19.042  26.860   9.453
 5845POPC   PO413620  19.066  26.839   9.153
 5845POPC   GL113621  19.026  26.858   8.853
 5845POPC   GL213622  19.155  26.904   8.853
 5845POPC   C1A13623  19.061  26.850   8.553
 5845POPC   D2A13624  19.079  26.805   8.253
 5845POPC   C3A13625  19.072  26.789   7.953
 5845POPC   C4A13626  19.084  26.861   7.653
 5845POPC   C1B13627  19.138  27.070   8.553
 5845POPC   C2B13628  19.151  27.053   8.253
 5845POPC   C3B13629  19.195  27.089   7.953
 5845POPC   C4B13630  19.217  26.999   7.653
 5846POPC   NC313631  25.312  39.249   9.453
 5846POPC   PO413632  25.240  39.278   9.153
 5846POPC   GL113633  25.274  39.190   8.853
 5846POPC   GL213634  25.163  39.171   8.853
 5846POPC   C1A13635  25.293  39.196   8.553
 5846POPC   D2A13636  25.276  39.275   8.253
 5846POPC   C3A13637  25.232  39.204   7.953
 5846POPC   C4A13638  25.298  39.264   7.653
 5846POPC   C1B13639  25.118  39.086   8.553
 5846POPC   C2B13640  25.030  39.066   8.253
 5846POPC   C3B13641  25.099  39.027   7.953
 5846POPC   C4B13642  25.029  39.117   7.653
 5847POPC   NC313643  43.076   6.615   9.453
 5847POPC   PO413644  43.112   6.601   9.153
 5847POPC   GL113645  43.149   6.655   8.853
 5847POPC   GL213646  43.141   6.555   8.853
 5847POPC   C1A13647  43.093   6.605   8.553
 5847POPC   D2A13648  43.103   6.629   8.253
 5847POPC   C3A13649  43.140   6.674   7.953
 5847POPC   C4A13650  43.092   6.661   7.653
 5847POPC   C1B13651  43.235   6.391   8.553
 5847POPC   C2B13652  43.209   6.416   8.253
 5847POPC   C3B13653  43.180   6.376   7.953
 5847POPC   C4B13654  43.225   6.421   7.653
 5848POPC   NC313655  22.188  18.237   9.453
 5848POPC   PO413656  22.165  18.236   9.153
 5848POPC   GL113657  22.205  18.304   8.853
 5848POPC   GL213658  22.180  18.369   8.853
 5848POPC   C1A13659  22.157  18.326   8.553
 5848POPC   D2A13660  22.208  18.331   8.253
 5848POPC   C3A13661  22.115  18.285   7.953
 5848POPC   C4A13662  22.182  18.237   7.653
 5848POPC   C1B13663  22.249  18.523   8.553
 5848POPC   C2B13664  22.235  18.576   8.253
 5848POPC   C3B13665  22.199  18.556   7.953
 5848POPC   C4B13666  22.245  18.542   7.653
 5849POPC   NC313667  36.863  28.322   9.453
 5849POPC   PO413668  36.946  28.362   9.153
 5849POPC   GL113669  36.909  28.375   8.853
 5849POPC   GL213670  36.876  28.473   8.853
 5849POPC   C1A13671  36.876  28.352   8.553
 5849POPC   D2A13672  36.932  28.367   8.253
 5849POPC   C3A13673  36.882  28.340   7.953
 5849POPC   C4A13674  36.882  28.355   7.653
 5849POPC   C1B13675  36.810  28.558   8.553
 5849POPC   C2B13676  36.732  28.601   8.253
 5849POPC   C3B13677  36.829  28.572   7.953
 5849POPC   C4B13678  36.813  28.547   7.653
 5850POPC   NC313679  17.509  44.643   9.453
 5850POPC   PO413680  17.488  44.646   9.153
 5850POPC   GL113681  17.460  44.662   8.853
 5850POPC   GL213682  17.460  44.596   8.853
 5850POPC   C1A13683  17.487  44.690   8.553
 5850POPC   D2A13684  17.549  44.694   8.253
 5850POPC   C3A13685  17.541  44.638   7.953
 5850POPC   C4A13686  17.503  44.700   7.653
 5850POPC   C1B13687  17.383  44.449   8.553
 5850POPC   C2B13688  17.357  44.487   8.253
 5850POPC   C3B13689  17.356  44.430   7.953
 5850POPC   C4B13690  17.351  44.498   7.653
 5851POPC   NC313691   2.013   2.741   9.453
 5851POPC   PO413692   1.940   2.805   9.153
 5851POPC   GL113693   2.009   2.813   8.853
 5851POPC   GL213694   2.056   2.804   8.853
 5851POPC   C1A13695   2.035   2.758   8.553
 5851POPC   D2A13696   1.980   2.803   8.253
 5851POPC   C3A13697   2.017   2.773   7.953
 5851POPC   C4A13698   1.943   2.768   7.653
 5851POPC   C1B13699   2.207   2.881   8.553
 5851POPC   C2B13700   2.253   2.905   8.253
 5851POPC   C3B13701   2.166   2.929   7.953
 5851POPC   C4B13702   2.171   2.897   7.653
 5852POPC   NC313703  17.552   5.845   9.453
 5852POPC   PO413704  17.506   5.830   9.153
 5852POPC   GL113705  17.540   5.825   8.853
 5852POPC   GL213706  17.399   5.800   8.853
 5852POPC   C1A13707  17.518   5.860   8.553
 5852POPC   D2A13708  17.461   5.855   8.253
 5852POPC   C3A13709  17.552   5.843   7.953
 5852POPC   C4A13710  17.542   5.899   7.653
 5852POPC   C1B13711  17.308   5.819   8.553
 5852POPC   C2B13712  17.266   5.797   8.253
 5852POPC   C3B13713  17.265   5.830   7.953
 5852POPC   C4B13714  17.225   5.789   7.653
 5853POPC   NC313715  19.066   9.708   9.453
 5853POPC   PO413716  19.093   9.743   9.153
 5853POPC   GL113717  19.087   9.714   8.853
 5853POPC   GL213718  18.919   9.743   8.853
 5853POPC   C1A13719  19.094   9.706   8.553
 5853POPC   D2A13720  19.027   9.787   8.253
 5853POPC   C3A13721  19.051   9.770   7.953
 5853POPC   C4A13722  19.033   9.780   7.653
 5853POPC   C1B13723  18.829   9.810   8.553
 5853POPC   C2B13724  18.830   9.826   8.253
 5853POPC   C3B13725  18.838   9.765   7.953
 5853POPC   C4B13726  18.802   9.830   7.653
 5854POPC   NC313727  36.139  23.694   9.453
 5854POPC   PO413728  36.085  23.713   9.153
 5854POPC   GL113729  36.163  23.701   8.853
 5854POPC   GL213730  36.221  23.675   8.853
 5854POPC   C1A13731  36.170  23.670   8.553
 5854POPC   D2A13732  36.125  23.713   8.253
 5854POPC   C3A13733  36.142  23.742   7.953
 5854POPC   C4A13734  36.169  23.690   7.653
 5854POPC   C1B13735  36.284  23.545   8.553
 5854POPC   C2B13736  36.298  23.588   8.253
 5854POPC   C3B13737  36.360  23.577   7.953
 5854POPC   C4B13738  36.304  23.569   7.653
 5855POPC   NC313739  43.150  19.791   9.453
 5855POPC   PO413740  43.067  19.792   9.153
 5855POPC   GL113741  43.073  19.785   8.853
 5855POPC   GL213742  43.188  19.878   8.853
 5855POPC   C1A13743  43.108  19.804   8.553
 5855POPC   D2A13744  43.115  19.820   8.253
 5855POPC   C3A13745  43.136  19.824   7.953
 5855POPC   C4A13746  43.106  19.814   7.653
 5855POPC   C1B13747  43.380  19.835   8.553
 5855POPC   C2B13748  43.332  19.829   8.253
 5855POPC   C3B13749  43.350  19.866   7.953
 5855POPC   C4B13750  43.371  19.821   7.653
 5856POPC   NC313751  34.613  35.306   9.453
 5856POPC   PO413752  34.606  35.371   9.153
 5856POPC   GL113753  34.617  35.312   8.853
 5856POPC   GL213754  34.654  35.488   8.853
 5856POPC   C1A13755  34.539  35.327   8.553
 5856POPC   D2A13756  34.552  35.326   8.253
 5856POPC   C3A13757  34.554  35.330   7.953
 5856POPC   C4A13758  34.595  35.328   7.653
 5856POPC   C1B13759  34.690  35.552   8.553
 5856POPC   C2B13760  34.687  35.595   8.253
 5856POPC   C3B13761  34.750  35.584   7.953
 5856POPC   C4B13762  34.767  35.516   7.653
 5857POPC   NC313763  38.458  31.506   9.453
 5857POPC   PO413764  38.436  31.489   9.153
 5857POPC   GL113765  38.492  31.434   8.853
 5857POPC   GL213766  38.559  31.587   8.853
 5857POPC   C1A13767  38.503  31.481   8.553
 5857POPC   D2A13768  38.501  31.480   8.253
 5857POPC   C3A13769  38.431  31.462   7.953
 5857POPC   C4A13770  38.458  31.461   7.653
 5857POPC   C1B13771  38.684  31.590   8.553
 5857POPC   C2B13772  38.615  31.585   8.253
 5857POPC   C3B13773  38.643  31.622   7.953
 5857POPC   C4B13774  38.642  31.628   7.653
 5858POPC   NC313775  33.791  26.021   9.453
 5858POPC   PO413776  33.773  26.071   9.153
 5858POPC   GL113777  33.829  26.017   8.853
 5858POPC   GL213778  33.808  25.894   8.853
 5858POPC   C1A13779  33.796  26.003   8.553
 5858POPC   D2A13780  33.803  25.994   8.253
 5858POPC   C3A13781  33.758  26.017   7.953
 5858POPC   C4A13782  33.820  26.046   7.653
 5858POPC   C1B13783  33.880  25.820   8.553
 5858POPC   C2B13784  33.846  25.778   8.253
 5858POPC   C3B13785  33.864  25.770   7.953
 5858POPC   C4B13786  33.822  25.806   7.653
 5859POPC   NC313787  12.844  11.251   9.453
 5859POPC   PO413788  12.880  11.300   9.153
 5859POPC   GL113789  12.814  11.281   8.853
 5859POPC   GL213790  12.931  11.386   8.853
 5859POPC   C1A13791  12.811  11.252   8.553
 5859POPC   D2A13792  12.818  11.330   8.253
 5859POPC   C3A13793  12.806  11.274   7.953
 5859POPC   C4A13794  12.809  11.341   7.653
 5859POPC   C1B13795  12.944  11.535   8.553
 5859POPC   C2B13796  12.968  11.553   8.253
 5859POPC   C3B13797  12.939  11.566   7.953
 5859POPC   C4B13798  12.947  11.533   7.653
 5860POPC   NC313799   5.102  44.640   9.453
 5860POPC   PO413800   5.121  44.691   9.153
 5860POPC   GL113801   5.096  44.666   8.853
 5860POPC   GL213802   5.042  44.772   8.853
 5860POPC   C1A13803   5.136  44.684   8.553
 5860POPC   D2A13804   5.079  44.692   8.253
 5860POPC   C3A13805   5.052  44.653   7.953
 5860POPC   C4A13806   5.085  44.639   7.653
 5860POPC   C1B13807   5.073  44.910   8.553
 5860POPC   C2B13808   5.037  44.890   8.253
 5860POPC   C3B13809   5.082  44.867   7.953
 5860POPC   C4B13810   5.100  44.908   7.653
 5861POPC   NC313811  36.869  18.263   9.453
 5861POPC   PO413812  36.858  18.308   9.153
 5861POPC   GL113813  36.938  18.316   8.853
 5861POPC   GL213814  37.001  18.189   8.853
 5861POPC   C1A13815  36.890  18.245   8.553
 5861POPC   D2A13816  36.904  18.287   8.253
 5861POPC   C3A13817  36.917  18.240   7.953
 5861POPC   C4A13818  36.920  18.239   7.653
 5861POPC   C1B13819  37.093  18.220   8.553
 5861POPC   C2B13820  37.144  18.172   8.253
 5861POPC   C3B13821  37.169  18.161   7.953
 5861POPC   C4B13822  37.111  18.211   7.653
 5862POPC   NC313823   1.993  15.914   9.453
 5862POPC   PO413824   1.982  15.986   9.153
 5862POPC   GL113825   1.972  15.948   8.853
 5862POPC   GL213826   2.077  15.818   8.853
 5862POPC   C1A13827   2.010  15.967   8.553
 5862POPC   D2A13828   1.958  15.941   8.253
 5862POPC   C3A13829   1.984  16.001   7.953
 5862POPC   C4A13830   2.018  15.912   7.653
 5862POPC   C1B13831   2.105  15.807   8.553
 5862POPC   C2B13832   2.140  15.744   8.253
 5862POPC   C3B13833   2.188  15.727   7.953
 5862POPC   C4B13834   2.172  15.785   7.653
 5863POPC   NC313835  15.151   4.315   9.453
 5863POPC   PO413836  15.199   4.273   9.153
 5863POPC   GL113837  15.159   4.349   8.853
 5863POPC   GL213838  15.109   4.377   8.853
 5863POPC   C1A13839  15.207   4.308   8.553
 5863POPC   D2A13840  15.197   4.351   8.253
 5863POPC   C3A13841  15.198   4.276   7.953
 5863POPC   C4A13842  15.212   4.282   7.653
 5863POPC   C1B13843  15.030   4.518   8.553
 5863POPC   C2B13844  15.039   4.498   8.253
 5863POPC   C3B13845  15.016   4.507   7.953
 5863POPC   C4B13846  15.031   4.461   7.653
 5864POPC   NC313847  11.257   8.175   9.453
 5864POPC   PO413848  11.283   8.205   9.153
 5864POPC   GL113849  11.308   8.245   8.853
 5864POPC   GL213850  11.159   8.245   8.853
 5864POPC   C1A13851  11.261   8.221   8.553
 5864POPC   D2A13852  11.253   8.166   8.253
 5864POPC   C3A13853  11.299   8.244   7.953
 5864POPC   C4A13854  11.324   8.205   7.653
 5864POPC   C1B13855  11.048   8.304   8.553
 5864POPC   C2B13856  11.067   8.361   8.253
 5864POPC   C3B13857  11.128   8.336   7.953
 5864POPC   C4B13858  11.118   8.327   7.653
 5865POPC   NC313859  21.403   9.798   9.453
 5865POPC   PO413860  21.347   9.730   9.153
 5865POPC   GL113861  21.393   9.778   8.853
 5865POPC   GL213862  21.424   9.676   8.853
 5865POPC   C1A13863  21.398   9.721   8.553
 5865POPC   D2A13864  21.348   9.723   8.253
 5865POPC   C3A13865  21.349   9.766   7.953
 5865POPC   C4A13866  21.405   9.778   7.653
 5865POPC   C1B13867  21.465   9.569   8.553
 5865POPC   C2B13868  21.473   9.493   8.253
 5865POPC   C3B13869  21.504   9.556   7.953
 5865POPC   C4B13870  21.510   9.520   7.653
 5866POPC   NC313871  28.355  13.644   9.453
 5866POPC   PO413872  28.347  13.642   9.153
 5866POPC   GL113873  28.370  13.669   8.853
 5866POPC   GL213874  28.328  13.531   8.853
 5866POPC   C1A13875  28.412  13.648   8.553
 5866POPC   D2A13876  28.339  13.602   8.253
 5866POPC   C3A13877  28.350  13.657   7.953
 5866POPC   C4A13878  28.364  13.649   7.653
 5866POPC   C1B13879  28.370  13.346   8.553
 5866POPC   C2B13880  28.376  13.343   8.253
 5866POPC   C3B13881  28.342  13.385   7.953
 5866POPC   C4B13882  28.343  13.331   7.653
 5867POPC   NC313883   8.176  22.961   9.453
 5867POPC   PO413884   8.197  22.942   9.153
 5867POPC   GL113885   8.207  22.929   8.853
 5867POPC   GL213886   8.248  22.854   8.853
 5867POPC   C1A13887   8.160  22.900   8.553
 5867POPC   D2A13888   8.200  22.928   8.253
 5867POPC   C3A13889   8.185  22.942   7.953
 5867POPC   C4A13890   8.148  22.972   7.653
 5867POPC   C1B13891   8.422  22.812   8.553
 5867POPC   C2B13892   8.413  22.767   8.253
 5867POPC   C3B13893   8.434  22.810   7.953
 5867POPC   C4B13894   8.413  22.817   7.653
 5868POPC   NC313895  11.344  43.079   9.453
 5868POPC   PO413896  11.330  43.131   9.153
 5868POPC   GL113897  11.345  43.130   8.853
 5868POPC   GL213898  11.236  43.153   8.853
 5868POPC   C1A13899  11.324  43.064   8.553
 5868POPC   D2A13900  11.293  43.073   8.253
 5868POPC   C3A13901  11.315  43.117   7.953
 5868POPC   C4A13902  11.321  43.071   7.653
 5868POPC   C1B13903  11.117  43.251   8.553
 5868POPC   C2B13904  11.071  43.277   8.253
 5868POPC   C3B13905  11.130  43.211   7.953
 5868POPC   C4B13906  11.054  43.207   7.653
 5869POPC   NC313907   9.730  20.593   9.453
 5869POPC   PO413908   9.780  20.652   9.153
 5869POPC   GL113909   9.755  20.611   8.853
 5869POPC   GL213910   9.632  20.532   8.853
 5869POPC   C1A13911   9.743  20.629   8.553
 5869POPC   D2A13912   9.770  20.583   8.253
 5869POPC   C3A13913   9.770  20.643   7.953
 5869POPC   C4A13914   9.723  20.645   7.653
 5869POPC   C1B13915   9.534  20.511   8.553
 5869POPC   C2B13916   9.574  20.472   8.253
 5869POPC   C3B13917   9.496  20.513   7.953
 5869POPC   C4B13918   9.574  20.474   7.653
 5870POPC   NC313919   5.897  36.085   9.453
 5870POPC   PO413920   5.827  36.091   9.153
 5870POPC   GL113921   5.911  36.141   8.853
 5870POPC   GL213922   5.902  36.057   8.853
 5870POPC   C1A13923   5.830  36.132   8.553
 5870POPC   D2A13924   5.883  36.159   8.253
 5870POPC   C3A13925   5.906  36.137   7.953
 5870POPC   C4A13926   5.849  36.093   7.653
 5870POPC   C1B13927   6.032  35.965   8.553
 5870POPC   C2B13928   6.008  35.907   8.253
 5870POPC   C3B13929   6.022  35.960   7.953
 5870POPC   C4B13930   6.044  35.895   7.653
 5871POPC   NC313931  39.281   8.165   9.453
 5871POPC   PO413932  39.218   8.187   9.153
 5871POPC   GL113933  39.257   8.194   8.853
 5871POPC   GL213934  39.143   8.255   8.853
 5871POPC   C1A13935  39.271   8.179   8.553
 5871POPC   D2A13936  39.199   8.192   8.253
 5871POPC   C3A13937  39.189   8.182   7.953
 5871POPC   C4A13938  39.250   8.194   7.653
 5871POPC   C1B13939  38.960   8.247   8.553
 5871POPC   C2B13940  39.025   8.224   8.253
 5871POPC   C3B13941  39.036   8.274   7.953
 5871POPC   C4B13942  38.998   8.263   7.653
 5872POPC   NC313943  19.053  19.862   9.453
 5872POPC   PO413944  19.009  19.824   9.153
 5872POPC   GL113945  19.058  19.880   8.853
 5872POPC   GL213946  19.189  19.730   8.853
 5872POPC   C1A13947  19.098  19.846   8.553
 5872POPC   D2A13948  19.063  19.842   8.253
 5872POPC   C3A13949  19.074  19.802   7.953
 5872POPC   C4A13950  19.108  19.853   7.653
 5872POPC   C1B13951  19.202  19.663   8.553
 5872POPC   C2B13952  19.267  19.610   8.253
 5872POPC   C3B13953  19.186  19.669   7.953
 5872POPC   C4B13954  19.281  19.616   7.653
 5873POPC   NC313955   0.447  14.389   9.453
 5873POPC   PO413956   0.434  14.407   9.153
 5873POPC   GL113957   0.479  14.402   8.853
 5873POPC   GL213958   0.429  14.275   8.853
 5873POPC   C1A13959   0.487  14.381   8.553
 5873POPC   D2A13960   0.455  14.439   8.253
 5873POPC   C3A13961   0.407  14.372   7.953
 5873POPC   C4A13962   0.410  14.434   7.653
 5873POPC   C1B13963   0.310  14.168   8.553
 5873POPC   C2B13964   0.278  14.206   8.253
 5873POPC   C3B13965   0.348  14.185   7.953
 5873POPC   C4B13966   0.332  14.226   7.653
 5874POPC   NC313967  36.883  12.098   9.453
 5874POPC   PO413968  36.896  12.046   9.153
 5874POPC   GL113969  36.947  12.046   8.853
 5874POPC   GL213970  36.790  12.036   8.853
 5874POPC   C1A13971  36.860  12.114   8.553
 5874POPC   D2A13972  36.915  12.117   8.253
 5874POPC   C3A13973  36.857  12.069   7.953
 5874POPC   C4A13974  36.905  12.046   7.653
 5874POPC   C1B13975  36.696  12.058   8.553
 5874POPC   C2B13976  36.620  12.082   8.253
 5874POPC   C3B13977  36.689  12.067   7.953
 5874POPC   C4B13978  36.642  12.116   7.653
 5875POPC   NC313979  41.608  43.151   9.453
 5875POPC   PO413980  41.581  43.155   9.153
 5875POPC   GL113981  41.605  43.064   8.853
 5875POPC   GL213982  41.636  43.059   8.853
 5875POPC   C1A13983  41.567  43.152   8.553
 5875POPC   D2A13984  41.562  43.062   8.253
 5875POPC   C3A13985  41.606  43.127   7.953
 5875POPC   C4A13986  41.606  43.068   7.653
 5875POPC   C1B13987  41.814  43.017   8.553
 5875POPC   C2B13988  41.834  43.072   8.253
 5875POPC   C3B13989  41.833  42.996   7.953
 5875POPC   C4B13990  41.802  43.038   7.653
 5876POPC   NC313991  43.117  44.673   9.453
 5876POPC   PO413992  43.133  44.708   9.153
 5876POPC   GL113993  43.072  44.637   8.853
 5876POPC   GL213994  43.213  44.562   8.853
 5876POPC   C1A13995  43.109  44.634   8.553
 5876POPC   D2A13996  43.085  44.616   8.253
 5876POPC   C3A13997  43.137  44.710   7.953
 5876POPC   C4A13998  43.113  44.640   7.653
 5876POPC   C1B13999  43.273  44.481   8.553
 5876POPC   C2B14000  43.243  44.502   8.253
 5876POPC   C3B14001  43.301  44.481   7.953
 5876POPC   C4B14002  43.284  44.447   7.653
 5877POPC   NC314003  22.166   7.379   9.453
 5877POPC   PO414004  22.208   7.375   9.153
 5877POPC   GL114005  22.171   7.387   8.853
 5877POPC   GL214006  22.020   7.476   8.853
 5877POPC   C1A14007  22.137   7.457   8.553
 5877POPC   D2A14008  22.185   7.386   8.253
 5877POPC   C3A14009  22.204   7.378   7.953
 5877POPC   C4A14010  22.154   7.382   7.653
 5877POPC   C1B14011  21.963   7.565   8.553
 5877POPC   C2B14012  21.992   7.538   8.253
 5877POPC   C3B14013  21.973   7.546   7.953
 5877POPC   C4B14014  21.993   7.545   7.653
 5878POPC   NC314015  33.810  26.770   9.453
 5878POPC   PO414016  33.807  26.817   9.153
 5878POPC   GL114017  33.757  26.846   8.853
 5878POPC   GL214018  33.781  26.941   8.853
 5878POPC   C1A14019  33.775  26.814   8.553
 5878POPC   D2A14020  33.811  26.787   8.253
 5878POPC   C3A14021  33.784  26.778   7.953
 5878POPC   C4A14022  33.809  26.862   7.653
 5878POPC   C1B14023  33.862  27.072   8.553
 5878POPC   C2B14024  33.847  27.049   8.253
 5878POPC   C3B14025  33.835  27.111   7.953
 5878POPC   C4B14026  33.811  27.105   7.653
 5879POPC   NC314027   8.984  44.708   9.453
 5879POPC   PO414028   9.007  44.660   9.153
 5879POPC   GL114029   9.018  44.658   8.853
 5879POPC   GL214030   9.014  44.747   8.853
 5879POPC   C1A14031   8.989  44.703   8.553
 5879POPC   D2A14032   8.985  44.640   8.253
 5879POPC   C3A14033   8.950  44.646   7.953
 5879POPC   C4A14034   8.992  44.693   7.653
 5879POPC   C1B14035   9.098  44.856   8.553
 5879POPC   C2B14036   9.071  44.882   8.253
 5879POPC   C3B14037   9.064  44.854   7.953
 5879POPC   C4B14038   9.068  44.924   7.653
 5880POPC   NC314039  19.101  30.739   9.453
 5880POPC   PO414040  19.018  30.730   9.153
 5880POPC   GL114041  19.023  30.661   8.853
 5880POPC   GL214042  18.993  30.837   8.853
 5880POPC   C1A14043  19.093  30.704   8.553
 5880POPC   D2A14044  19.106  30.726   8.253
 5880POPC   C3A14045  19.094  30.738   7.953
 5880POPC   C4A14046  19.044  30.731   7.653
 5880POPC   C1B14047  18.915  30.941   8.553
 5880POPC   C2B14048  18.980  30.884   8.253
 5880POPC   C3B14049  18.951  30.913   7.953
 5880POPC   C4B14050  18.899  30.883   7.653
 5881POPC   NC314051  20.589  19.835   9.453
 5881POPC   PO414052  20.575  19.857   9.153
 5881POPC   GL114053  20.577  19.792   8.853
 5881POPC   GL214054  20.692  19.756   8.853
 5881POPC   C1A14055  20.651  19.804   8.553
 5881POPC   D2A14056  20.618  19.846   8.253
 5881POPC   C3A14057  20.608  19.827   7.953
 5881POPC   C4A14058  20.640  19.866   7.653
 5881POPC   C1B14059  20.772  19.674   8.553
 5881POPC   C2B14060  20.797  19.678   8.253
 5881POPC   C3B14061  20.764  19.619   7.953
 5881POPC   C4B14062  20.749  19.649   7.653
 5882POPC   NC314063  41.577  40.830   9.453
 5882POPC   PO414064  41.590  40.750   9.153
 5882POPC   GL114065  41.517  40.754   8.853
 5882POPC   GL214066  41.649  40.797   8.853
 5882POPC   C1A14067  41.552  40.733   8.553
 5882POPC   D2A14068  41.558  40.831   8.253
 5882POPC   C3A14069  41.588  40.786   7.953
 5882POPC   C4A14070  41.554  40.738   7.653
 5882POPC   C1B14071  41.807  40.939   8.553
 5882POPC   C2B14072  41.785  40.848   8.253
 5882POPC   C3B14073  41.752  40.941   7.953
 5882POPC   C4B14074  41.797  40.878   7.653
 5883POPC   NC314075  43.074  34.595   9.453
 5883POPC   PO414076  43.130  34.621   9.153
 5883POPC   GL114077  43.145  34.621   8.853
 5883POPC   GL214078  42.977  34.604   8.853
 5883POPC   C1A14079  43.159  34.558   8.553
 5883POPC   D2A14080  43.095  34.557   8.253
 5883POPC   C3A14081  43.145  34.578   7.953
 5883POPC   C4A14082  43.090  34.583   7.653
 5883POPC   C1B14083  42.849  34.584   8.553
 5883POPC   C2B14084  42.869  34.595   8.253
 5883POPC   C3B14085  42.842  34.523   7.953
 5883POPC   C4B14086  42.910  34.600   7.653
 5884POPC   NC314087  10.510  11.262   9.453
 5884POPC   PO414088  10.520  11.269   9.153
 5884POPC   GL114089  10.485  11.303   8.853
 5884POPC   GL214090  10.367  11.359   8.853
 5884POPC   C1A14091  10.559  11.319   8.553
 5884POPC   D2A14092  10.479  11.313   8.253
 5884POPC   C3A14093  10.495  11.338   7.953
 5884POPC   C4A14094  10.525  11.278   7.653
 5884POPC   C1B14095  10.275  11.386   8.553
 5884POPC   C2B14096  10.302  11.347   8.253
 5884POPC   C3B14097  10.259  11.429   7.953
 5884POPC   C4B14098  10.298  11.424   7.653
 5885POPC   NC314099  15.929   4.356   9.453
 5885POPC   PO414100  15.918   4.274   9.153
 5885POPC   GL114101  15.987   4.290   8.853
 5885POPC   GL214102  15.806   4.405   8.853
 5885POPC   C1A14103  15.995   4.366   8.553
 5885POPC   D2A14104  15.934   4.293   8.253
 5885POPC   C3A14105  15.931   4.316   7.953
 5885POPC   C4A14106  15.991   4.339   7.653
 5885POPC   C1B14107  15.725   4.386   8.553
 5885POPC   C2B14108  15.740   4.415   8.253
 5885POPC   C3B14109  15.764   4.467   7.953
 5885POPC   C4B14110  15.777   4.478   7.653
 5886POPC   NC314111   7.378  11.341   9.453
 5886POPC   PO414112   7.458  11.303   9.153
 5886POPC   GL114113   7.433  11.270   8.853
 5886POPC   GL214114   7.536  11.368   8.853
 5886POPC   C1A14115   7.408  11.339   8.553
 5886POPC   D2A14116   7.461  11.327   8.253
 5886POPC   C3A14117   7.451  11.272   7.953
 5886POPC   C4A14118   7.421  11.343   7.653
 5886POPC   C1B14119   7.678  11.427   8.553
 5886POPC   C2B14120   7.643  11.415   8.253
 5886POPC   C3B14121   7.591  11.446   7.953
 5886POPC   C4B14122   7.625  11.436   7.653
 5887POPC   NC314123  12.811  16.723   9.453
 5887POPC   PO414124  12.834  16.749   9.153
 5887POPC   GL114125  12.828  16.683   8.853
 5887POPC   GL214126  12.902  16.772   8.853
 5887POPC   C1A14127  12.884  16.739   8.553
 5887POPC   D2A14128  12.806  16.773   8.253
 5887POPC   C3A14129  12.865  16.722   7.953
 5887POPC   C4A14130  12.809  16.707   7.653
 5887POPC   C1B14131  12.975  16.864   8.553
 5887POPC   C2B14132  13.070  16.906   8.253
 5887POPC   C3B14133  12.998  16.869   7.953
 5887POPC   C4B14134  13.007  16.916   7.653
 5888POPC   NC314135  30.648  12.848   9.453
 5888POPC   PO414136  30.719  12.892   9.153
 5888POPC   GL114137  30.660  12.887   8.853
 5888POPC   GL214138  30.728  12.978   8.853
 5888POPC   C1A14139  30.659  12.864   8.553
 5888POPC   D2A14140  30.683  12.822   8.253
 5888POPC   C3A14141  30.665  12.895   7.953
 5888POPC   C4A14142  30.669  12.816   7.653
 5888POPC   C1B14143  30.654  13.124   8.553
 5888POPC   C2B14144  30.692  13.103   8.253
 5888POPC   C3B14145  30.696  13.110   7.953
 5888POPC   C4B14146  30.719  13.134   7.653
 5889POPC   NC314147   7.427  37.656   9.453
 5889POPC   PO414148   7.409  37.645   9.153
 5889POPC   GL114149   7.454  37.632   8.853
 5889POPC   GL214150   7.320  37.543   8.853
 5889POPC   C1A14151   7.449  37.671   8.553
 5889POPC   D2A14152   7.374  37.666   8.253
 5889POPC   C3A14153   7.434  37.720   7.953
 5889POPC   C4A14154   7.422  37.687   7.653
 5889POPC   C1B14155   7.286  37.478   8.553
 5889POPC   C2B14156   7.292  37.434   8.253
 5889POPC   C3B14157   7.323  37.445   7.953
 5889POPC   C4B14158   7.278  37.449   7.653
 5890POPC   NC314159  36.919  26.865   9.453
 5890POPC   PO414160  36.856  26.866   9.153
 5890POPC   GL114161  36.920  26.855   8.853
 5890POPC   GL214162  36.934  26.902   8.853
 5890POPC   C1A14163  36.871  26.867   8.553
 5890POPC   D2A14164  36.896  26.805   8.253
 5890POPC   C3A14165  36.930  26.812   7.953
 5890POPC   C4A14166  36.906  26.833   7.653
 5890POPC   C1B14167  37.019  27.084   8.553
 5890POPC   C2B14168  37.028  27.046   8.253
 5890POPC   C3B14169  36.968  27.026   7.953
 5890POPC   C4B14170  36.985  27.041   7.653
 5891POPC   NC314171  41.510   8.994   9.453
 5891POPC   PO414172  41.570   9.004   9.153
 5891POPC   GL114173  41.552   8.985   8.853
 5891POPC   GL214174  41.466   9.015   8.853
 5891POPC   C1A14175  41.543   9.002   8.553
 5891POPC   D2A14176  41.580   8.931   8.253
 5891POPC   C3A14177  41.581   8.927   7.953
 5891POPC   C4A14178  41.592   8.997   7.653
 5891POPC   C1B14179  41.384   9.084   8.553
 5891POPC   C2B14180  41.346   9.149   8.253
 5891POPC   C3B14181  41.321   9.120   7.953
 5891POPC   C4B14182  41.312   9.056   7.653
 5892POPC   NC314183  29.099   6.633   9.453
 5892POPC   PO414184  29.116   6.687   9.153
 5892POPC   GL114185  29.106   6.620   8.853
 5892POPC   GL214186  29.265   6.575   8.853
 5892POPC   C1A14187  29.172   6.624   8.553
 5892POPC   D2A14188  29.185   6.620   8.253
 5892POPC   C3A14189  29.097   6.627   7.953
 5892POPC   C4A14190  29.095   6.678   7.653
 5892POPC   C1B14191  29.337   6.459   8.553
 5892POPC   C2B14192  29.370   6.482   8.253
 5892POPC   C3B14193  29.334   6.463   7.953
 5892POPC   C4B14194  29.358   6.507   7.653
 5893POPC   NC314195  32.248  17.535   9.453
 5893POPC   PO414196  32.254  17.515   9.153
 5893POPC   GL114197  32.270  17.524   8.853
 5893POPC   GL214198  32.301  17.438   8.853
 5893POPC   C1A14199  32.202  17.494   8.553
 5893POPC   D2A14200  32.235  17.534   8.253
 5893POPC   C3A14201  32.213  17.494   7.953
 5893POPC   C4A14202  32.221  17.518   7.653
 5893POPC   C1B14203  32.378  17.301   8.553
 5893POPC   C2B14204  32.367  17.256   8.253
 5893POPC   C3B14205  32.345  17.322   7.953
 5893POPC   C4B14206  32.380  17.247   7.653
 5894POPC   NC314207   8.156  41.537   9.453
 5894POPC   PO414208   8.193  41.567   9.153
 5894POPC   GL114209   8.234  41.563   8.853
 5894POPC   GL214210   8.118  41.491   8.853
 5894POPC   C1A14211   8.181  41.521   8.553
 5894POPC   D2A14212   8.148  41.583   8.253
 5894POPC   C3A14213   8.175  41.576   7.953
 5894POPC   C4A14214   8.170  41.596   7.653
 5894POPC   C1B14215   8.105  41.283   8.553
 5894POPC   C2B14216   8.146  41.278   8.253
 5894POPC   C3B14217   8.130  41.307   7.953
 5894POPC   C4B14218   8.142  41.316   7.653
 5895POPC   NC314219  35.380  32.258   9.453
 5895POPC   PO414220  35.359  32.208   9.153
 5895POPC   GL114221  35.379  32.277   8.853
 5895POPC   GL214222  35.469  32.203   8.853
 5895POPC   C1A14223  35.365  32.199   8.553
 5895POPC   D2A14224  35.326  32.293   8.253
 5895POPC   C3A14225  35.313  32.198   7.953
 5895POPC   C4A14226  35.370  32.275   7.653
 5895POPC   C1B14227  35.599  32.091   8.553
 5895POPC   C2B14228  35.584  32.091   8.253
 5895POPC   C3B14229  35.540  32.145   7.953
 5895POPC   C4B14230  35.598  32.117   7.653
 5896POPC   NC314231  11.259  36.133   9.453
 5896POPC   PO414232  11.269  36.149   9.153
 5896POPC   GL114233  11.256  36.142   8.853
 5896POPC   GL214234  11.214  36.242   8.853
 5896POPC   C1A14235  11.293  36.128   8.553
 5896POPC   D2A14236  11.252  36.139   8.253
 5896POPC   C3A14237  11.320  36.086   7.953
 5896POPC   C4A14238  11.324  36.155   7.653
 5896POPC   C1B14239  11.152  36.301   8.553
 5896POPC   C2B14240  11.120  36.286   8.253
 5896POPC   C3B14241  11.095  36.347   7.953
 5896POPC   C4B14242  11.087  36.332   7.653
 5897POPC   NC314243  38.451   0.446   9.453
 5897POPC   PO414244  38.422   0.431   9.153
 5897POPC   GL114245  38.495   0.483   8.853
 5897POPC   GL214246  38.412   0.300   8.853
 5897POPC   C1A14247  38.410   0.464   8.553
 5897POPC   D2A14248  38.460   0.424   8.253
 5897POPC   C3A14249  38.461   0.475   7.953
 5897POPC   C4A14250  38.497   0.482   7.653
 5897POPC   C1B14251  38.385   0.167   8.553
 5897POPC   C2B14252  38.437   0.215   8.253
 5897POPC   C3B14253  38.443   0.157   7.953
 5897POPC   C4B14254  38.381   0.204   7.653
 5898POPC   NC314255  12.034  20.644   9.453
 5898POPC   PO414256  12.118  20.623   9.153
 5898POPC   GL114257  12.109  20.607   8.853
 5898POPC   GL214258  12.186  20.558   8.853
 5898POPC   C1A14259  12.034  20.566   8.553
 5898POPC   D2A14260  12.092  20.584   8.253
 5898POPC   C3A14261  12.033  20.636   7.953
 5898POPC   C4A14262  12.033  20.624   7.653
 5898POPC   C1B14263  12.354  20.528   8.553
 5898POPC   C2B14264  12.306  20.499   8.253
 5898POPC   C3B14265  12.313  20.572   7.953
 5898POPC   C4B14266  12.309  20.535   7.653
 5899POPC   NC314267  22.200  12.838   9.453
 5899POPC   PO414268  22.140  12.877   9.153
 5899POPC   GL114269  22.114  12.899   8.853
 5899POPC   GL214270  22.205  12.945   8.853
 5899POPC   C1A14271  22.204  12.828   8.553
 5899POPC   D2A14272  22.115  12.877   8.253
 5899POPC   C3A14273  22.161  12.821   7.953
 5899POPC   C4A14274  22.181  12.835   7.653
 5899POPC   C1B14275  22.226  13.115   8.553
 5899POPC   C2B14276  22.257  13.054   8.253
 5899POPC   C3B14277  22.300  13.090   7.953
 5899POPC   C4B14278  22.227  13.078   7.653
 5900POPC   NC314279  37.669  21.405   9.453
 5900POPC   PO414280  37.712  21.386   9.153
 5900POPC   GL114281  37.661  21.378   8.853
 5900POPC   GL214282  37.825  21.402   8.853
 5900POPC   C1A14283  37.639  21.344   8.553
 5900POPC   D2A14284  37.664  21.431   8.253
 5900POPC   C3A14285  37.673  21.432   7.953
 5900POPC   C4A14286  37.722  21.343   7.653
 5900POPC   C1B14287  37.950  21.448   8.553
 5900POPC   C2B14288  37.884  21.474   8.253
 5900POPC   C3B14289  37.895  21.459   7.953
 5900POPC   C4B14290  37.928  21.452   7.653
 5901POPC   NC314291  29.936  40.801   9.453
 5901POPC   PO414292  29.948  40.733   9.153
 5901POPC   GL114293  29.960  40.796   8.853
 5901POPC   GL214294  29.828  40.776   8.853
 5901POPC   C1A14295  29.879  40.754   8.553
 5901POPC   D2A14296  29.893  40.748   8.253
 5901POPC   C3A14297  29.931  40.771   7.953
 5901POPC   C4A14298  29.917  40.821   7.653
 5901POPC   C1B14299  29.736  40.646   8.553
 5901POPC   C2B14300  29.664  40.714   8.253
 5901POPC   C3B14301  29.712  40.681   7.953
 5901POPC   C4B14302  29.741  40.677   7.653
 5902POPC   NC314303  37.648  43.933   9.453
 5902POPC   PO414304  37.705  43.853   9.153
 5902POPC   GL114305  37.715  43.849   8.853
 5902POPC   GL214306  37.775  43.989   8.853
 5902POPC   C1A14307  37.631  43.924   8.553
 5902POPC   D2A14308  37.639  43.926   8.253
 5902POPC   C3A14309  37.656  43.866   7.953
 5902POPC   C4A14310  37.668  43.841   7.653
 5902POPC   C1B14311  37.869  44.014   8.553
 5902POPC   C2B14312  37.863  44.088   8.253
 5902POPC   C3B14313  37.832  44.104   7.953
 5902POPC   C4B14314  37.825  44.050   7.653
 5903POPC   NC314315   5.902  38.477   9.453
 5903POPC   PO414316   5.893  38.421   9.153
 5903POPC   GL114317   5.865  38.505   8.853
 5903POPC   GL214318   5.964  38.514   8.853
 5903POPC   C1A14319   5.854  38.458   8.553
 5903POPC   D2A14320   5.851  38.498   8.253
 5903POPC   C3A14321   5.820  38.430   7.953
 5903POPC   C4A14322   5.868  38.474   7.653
 5903POPC   C1B14323   6.073  38.616   8.553
 5903POPC   C2B14324   6.027  38.602   8.253
 5903POPC   C3B14325   6.019  38.665   7.953
 5903POPC   C4B14326   6.030  38.611   7.653
 5904POPC   NC314327  15.980   2.781   9.453
 5904POPC   PO414328  15.959   2.803   9.153
 5904POPC   GL114329  15.971   2.734   8.853
 5904POPC   GL214330  15.841   2.797   8.853
 5904POPC   C1A14331  15.912   2.753   8.553
 5904POPC   D2A14332  15.963   2.752   8.253
 5904POPC   C3A14333  15.934   2.775   7.953
 5904POPC   C4A14334  16.002   2.815   7.653
 5904POPC   C1B14335  15.712   2.725   8.553
 5904POPC   C2B14336  15.676   2.682   8.253
 5904POPC   C3B14337  15.721   2.724   7.953
 5904POPC   C4B14338  15.674   2.705   7.653
 5905POPC   NC314339  44.651   4.360   9.453
 5905POPC   PO414340  44.630   4.343   9.153
 5905POPC   GL114341  44.657   4.325   8.853
 5905POPC   GL214342  44.769   4.430   8.853
 5905POPC   C1A14343  44.634   4.358   8.553
 5905POPC   D2A14344  44.636   4.332   8.253
 5905POPC   C3A14345  44.638   4.298   7.953
 5905POPC   C4A14346  44.688   4.331   7.653
 5905POPC   C1B14347  44.770   4.554   8.553
 5905POPC   C2B14348  44.784   4.489   8.253
 5905POPC   C3B14349  44.835   4.550   7.953
 5905POPC   C4B14350  44.795   4.557   7.653
 5906POPC   NC314351  40.029  36.095   9.453
 5906POPC   PO414352  40.049  36.131   9.153
 5906POPC   GL114353  40.033  36.127   8.853
 5906POPC   GL214354  39.932  36.254   8.853
 5906POPC   C1A14355  39.997  36.099   8.553
 5906POPC   D2A14356  40.032  36.092   8.253
 5906POPC   C3A14357  40.038  36.155   7.953
 5906POPC   C4A14358  40.037  36.090   7.653
 5906POPC   C1B14359  39.926  36.323   8.553
 5906POPC   C2B14360  39.911  36.298   8.253
 5906POPC   C3B14361  39.864  36.321   7.953
 5906POPC   C4B14362  39.908  36.309   7.653
 5907POPC   NC314363  15.911  39.223   9.453
 5907POPC   PO414364  15.999  39.260   9.153
 5907POPC   GL114365  15.978  39.280   8.853
 5907POPC   GL214366  16.050  39.294   8.853
 5907POPC   C1A14367  16.005  39.235   8.553
 5907POPC   D2A14368  15.964  39.232   8.253
 5907POPC   C3A14369  15.961  39.279   7.953
 5907POPC   C4A14370  15.971  39.183   7.653
 5907POPC   C1B14371  16.137  39.448   8.553
 5907POPC   C2B14372  16.102  39.432   8.253
 5907POPC   C3B14373  16.177  39.380   7.953
 5907POPC   C4B14374  16.134  39.389   7.653
 5908POPC   NC314375  32.994   3.587   9.453
 5908POPC   PO414376  33.041   3.580   9.153
 5908POPC   GL114377  33.061   3.531   8.853
 5908POPC   GL214378  33.012   3.450   8.853
 5908POPC   C1A14379  33.021   3.572   8.553
 5908POPC   D2A14380  33.036   3.515   8.253
 5908POPC   C3A14381  33.029   3.544   7.953
 5908POPC   C4A14382  33.008   3.540   7.653
 5908POPC   C1B14383  33.108   3.325   8.553
 5908POPC   C2B14384  33.062   3.289   8.253
 5908POPC   C3B14385  33.089   3.304   7.953
 5908POPC   C4B14386  33.044   3.322   7.653
 5909POPC   NC314387  29.891  25.226   9.453
 5909POPC   PO414388  29.947  25.314   9.153
 5909POPC   GL114389  29.960  25.301   8.853
 5909POPC   GL214390  30.004  25.392   8.853
 5909POPC   C1A14391  29.892  25.240   8.553
 5909POPC   D2A14392  29.889  25.266   8.253
 5909POPC   C3A14393  29.949  25.260   7.953
 5909POPC   C4A14394  29.920  25.269   7.653
 5909POPC   C1B14395  30.119  25.420   8.553
 5909POPC   C2B14396  30.064  25.424   8.253
 5909POPC   C3B14397  30.137  25.416   7.953
 5909POPC   C4B14398  30.124  25.432   7.653
 5910POPC   NC314399  33.007  24.507   9.453
 5910POPC   PO414400  32.985  24.450   9.153
 5910POPC   GL114401  33.006  24.442   8.853
 5910POPC   GL214402  32.940  24.391   8.853
 5910POPC   C1A14403  33.029  24.469   8.553
 5910POPC   D2A14404  32.995  24.448   8.253
 5910POPC   C3A14405  33.067  24.515   7.953
 5910POPC   C4A14406  32.990  24.473   7.653
 5910POPC   C1B14407  32.870  24.351   8.553
 5910POPC   C2B14408  32.860  24.364   8.253
 5910POPC   C3B14409  32.836  24.377   7.953
 5910POPC   C4B14410  32.818  24.348   7.653
 5911POPC   NC314411   8.228  19.801   9.453
 5911POPC   PO414412   8.167  19.841   9.153
 5911POPC   GL114413   8.190  19.846   8.853
 5911POPC   GL214414   8.122  19.892   8.853
 5911POPC   C1A14415   8.150  19.853   8.553
 5911POPC   D2A14416   8.167  19.793   8.253
 5911POPC   C3A14417   8.236  19.818   7.953
 5911POPC   C4A14418   8.176  19.854   7.653
 5911POPC   C1B14419   8.007  20.060   8.553
 5911POPC   C2B14420   8.023  20.072   8.253
 5911POPC   C3B14421   8.024  20.031   7.953
 5911POPC   C4B14422   8.036  20.087   7.653
 5912POPC   NC314423  13.667  28.399   9.453
 5912POPC   PO414424  13.584  28.416   9.153
 5912POPC   GL114425  13.613  28.334   8.853
 5912POPC   GL214426  13.535  28.522   8.853
 5912POPC   C1A14427  13.578  28.349   8.553
 5912POPC   D2A14428  13.591  28.374   8.253
 5912POPC   C3A14429  13.581  28.402   7.953
 5912POPC   C4A14430  13.664  28.345   7.653
 5912POPC   C1B14431  13.514  28.638   8.553
 5912POPC   C2B14432  13.499  28.619   8.253
 5912POPC   C3B14433  13.530  28.636   7.953
 5912POPC   C4B14434  13.498  28.581   7.653
 5913POPC   NC314435  39.252  27.640   9.453
 5913POPC   PO414436  39.278  27.617   9.153
 5913POPC   GL114437  39.234  27.566   8.853
 5913POPC   GL214438  39.336  27.694   8.853
 5913POPC   C1A14439  39.254  27.566   8.553
 5913POPC   D2A14440  39.259  27.588   8.253
 5913POPC   C3A14441  39.206  27.545   7.953
 5913POPC   C4A14442  39.270  27.598   7.653
 5913POPC   C1B14443  39.454  27.713   8.553
 5913POPC   C2B14444  39.452  27.731   8.253
 5913POPC   C3B14445  39.466  27.746   7.953
 5913POPC   C4B14446  39.477  27.709   7.653
 5914POPC   NC314447  24.480  19.817   9.453
 5914POPC   PO414448  24.501  19.856   9.153
 5914POPC   GL114449  24.516  19.813   8.853
 5914POPC   GL214450  24.505  19.700   8.853
 5914POPC   C1A14451  24.517  19.864   8.553
 5914POPC   D2A14452  24.509  19.853   8.253
 5914POPC   C3A14453  24.486  19.788   7.953
 5914POPC   C4A14454  24.478  19.836   7.653
 5914POPC   C1B14455  24.477  19.559   8.553
 5914POPC   C2B14456  24.432  19.560   8.253
 5914POPC   C3B14457  24.501  19.560   7.953
 5914POPC   C4B14458  24.438  19.566   7.653
 5915POPC   NC314459  23.754  31.458   9.453
 5915POPC   PO414460  23.732  31.486   9.153
 5915POPC   GL114461  23.754  31.430   8.853
 5915POPC   GL214462  23.623  31.511   8.853
 5915POPC   C1A14463  23.712  31.513   8.553
 5915POPC   D2A14464  23.671  31.425   8.253
 5915POPC   C3A14465  23.690  31.425   7.953
 5915POPC   C4A14466  23.720  31.451   7.653
 5915POPC   C1B14467  23.508  31.605   8.553
 5915POPC   C2B14468  23.442  31.592   8.253
 5915POPC   C3B14469  23.457  31.623   7.953
 5915POPC   C4B14470  23.452  31.612   7.653
 5916POPC   NC314471  38.464   1.199   9.453
 5916POPC   PO414472  38.408   1.254   9.153
 5916POPC   GL114473  38.407   1.211   8.853
 5916POPC   GL214474  38.333   1.222   8.853
 5916POPC   C1A14475  38.414   1.181   8.553
 5916POPC   D2A14476  38.420   1.255   8.253
 5916POPC   C3A14477  38.471   1.172   7.953
 5916POPC   C4A14478  38.459   1.183   7.653
 5916POPC   C1B14479  38.249   1.239   8.553
 5916POPC   C2B14480  38.209   1.217   8.253
 5916POPC   C3B14481  38.172   1.253   7.953
 5916POPC   C4B14482  38.256   1.249   7.653
 5917POPC   NC314483  14.369   5.846   9.453
 5917POPC   PO414484  14.373   5.883   9.153
 5917POPC   GL114485  14.382   5.842   8.853
 5917POPC   GL214486  14.328   6.011   8.853
 5917POPC   C1A14487  14.439   5.898   8.553
 5917POPC   D2A14488  14.424   5.871   8.253
 5917POPC   C3A14489  14.380   5.827   7.953
 5917POPC   C4A14490  14.400   5.872   7.653
 5917POPC   C1B14491  14.219   6.094   8.553
 5917POPC   C2B14492  14.271   6.073   8.253
 5917POPC   C3B14493  14.247   6.045   7.953
 5917POPC   C4B14494  14.297   6.120   7.653
 5918POPC   NC314495  41.552  37.647   9.453
 5918POPC   PO414496  41.509  37.697   9.153
 5918POPC   GL114497  41.555  37.703   8.853
 5918POPC   GL214498  41.560  37.522   8.853
 5918POPC   C1A14499  41.552  37.706   8.553
 5918POPC   D2A14500  41.596  37.679   8.253
 5918POPC   C3A14501  41.590  37.708   7.953
 5918POPC   C4A14502  41.534  37.663   7.653
 5918POPC   C1B14503  41.561  37.422   8.553
 5918POPC   C2B14504  41.505  37.461   8.253
 5918POPC   C3B14505  41.499  37.418   7.953
 5918POPC   C4B14506  41.484  37.431   7.653
 5919POPC   NC314507   5.142  40.035   9.453
 5919POPC   PO414508   5.089  39.960   9.153
 5919POPC   GL114509   5.093  40.025   8.853
 5919POPC   GL214510   4.941  40.065   8.853
 5919POPC   C1A14511   5.135  40.033   8.553
 5919POPC   D2A14512   5.067  40.003   8.253
 5919POPC   C3A14513   5.111  40.009   7.953
 5919POPC   C4A14514   5.114  40.030   7.653
 5919POPC   C1B14515   4.823  40.113   8.553
 5919POPC   C2B14516   4.902  40.077   8.253
 5919POPC   C3B14517   4.879  40.073   7.953
 5919POPC   C4B14518   4.877  40.108   7.653
 5920POPC   NC314519  33.000  16.709   9.453
 5920POPC   PO414520  33.067  16.707   9.153
 5920POPC   GL114521  33.016  16.735   8.853
 5920POPC   GL214522  32.898  16.742   8.853
 5920POPC   C1A14523  33.046  16.705   8.553
 5920POPC   D2A14524  33.071  16.717   8.253
 5920POPC   C3A14525  32.983  16.685   7.953
 5920POPC   C4A14526  33.006  16.690   7.653
 5920POPC   C1B14527  32.791  16.677   8.553
 5920POPC   C2B14528  32.757  16.626   8.253
 5920POPC   C3B14529  32.746  16.643   7.953
 5920POPC   C4B14530  32.820  16.678   7.653
 5921POPC   NC314531   1.213   7.459   9.453
 5921POPC   PO414532   1.203   7.406   9.153
 5921POPC   GL114533   1.245   7.435   8.853
 5921POPC   GL214534   1.135   7.373   8.853
 5921POPC   C1A14535   1.180   7.380   8.553
 5921POPC   D2A14536   1.236   7.423   8.253
 5921POPC   C3A14537   1.262   7.438   7.953
 5921POPC   C4A14538   1.182   7.461   7.653
 5921POPC   C1B14539   0.974   7.295   8.553
 5921POPC   C2B14540   1.027   7.346   8.253
 5921POPC   C3B14541   0.934   7.337   7.953
 5921POPC   C4B14542   0.962   7.348   7.653
 5922POPC   NC314543   7.436  21.338   9.453
 5922POPC   PO414544   7.425  21.350   9.153
 5922POPC   GL114545   7.452  21.377   8.853
 5922POPC   GL214546   7.489  21.465   8.853
 5922POPC   C1A14547   7.435  21.357   8.553
 5922POPC   D2A14548   7.418  21.409   8.253
 5922POPC   C3A14549   7.392  21.421   7.953
 5922POPC   C4A14550   7.422  21.411   7.653
 5922POPC   C1B14551   7.659  21.541   8.553
 5922POPC   C2B14552   7.603  21.505   8.253
 5922POPC   C3B14553   7.662  21.491   7.953
 5922POPC   C4B14554   7.623  21.481   7.653
 5923POPC   NC314555  40.757  28.377   9.453
 5923POPC   PO414556  40.825  28.414   9.153
 5923POPC   GL114557  40.818  28.334   8.853
 5923POPC   GL214558  40.843  28.270   8.853
 5923POPC   C1A14559  40.782  28.339   8.553
 5923POPC   D2A14560  40.742  28.325   8.253
 5923POPC   C3A14561  40.825  28.342   7.953
 5923POPC   C4A14562  40.829  28.363   7.653
 5923POPC   C1B14563  40.951  28.201   8.553
 5923POPC   C2B14564  40.945  28.152   8.253
 5923POPC   C3B14565  41.008  28.161   7.953
 5923POPC   C4B14566  40.912  28.150   7.653
 5924POPC   NC314567  40.821   5.819   9.453
 5924POPC   PO414568  40.807   5.837   9.153
 5924POPC   GL114569  40.784   5.821   8.853
 5924POPC   GL214570  40.649   5.826   8.853
 5924POPC   C1A14571  40.770   5.840   8.553
 5924POPC   D2A14572  40.815   5.874   8.253
 5924POPC   C3A14573  40.771   5.847   7.953
 5924POPC   C4A14574  40.784   5.862   7.653
 5924POPC   C1B14575  40.544   5.867   8.553
 5924POPC   C2B14576  40.566   5.861   8.253
 5924POPC   C3B14577  40.545   5.850   7.953
 5924POPC   C4B14578  40.528   5.909   7.653
 5925POPC   NC314579  37.650   5.061   9.453
 5925POPC   PO414580  37.649   5.078   9.153
 5925POPC   GL114581  37.631   5.060   8.853
 5925POPC   GL214582  37.729   5.041   8.853
 5925POPC   C1A14583  37.719   5.055   8.553
 5925POPC   D2A14584  37.724   5.106   8.253
 5925POPC   C3A14585  37.700   5.089   7.953
 5925POPC   C4A14586  37.680   5.143   7.653
 5925POPC   C1B14587  37.866   4.933   8.553
 5925POPC   C2B14588  37.873   4.946   8.253
 5925POPC   C3B14589  37.800   4.915   7.953
 5925POPC   C4B14590  37.815   4.905   7.653
 5926POPC   NC314591  29.187  37.712   9.453
 5926POPC   PO414592  29.158  37.679   9.153
 5926POPC   GL114593  29.190  37.729   8.853
 5926POPC   GL214594  29.085  37.771   8.853
 5926POPC   C1A14595  29.107  37.647   8.553
 5926POPC   D2A14596  29.126  37.681   8.253
 5926POPC   C3A14597  29.152  37.678   7.953
 5926POPC   C4A14598  29.152  37.630   7.653
 5926POPC   C1B14599  29.006  37.888   8.553
 5926POPC   C2B14600  29.069  37.940   8.253
 5926POPC   C3B14601  29.026  37.942   7.953
 5926POPC   C4B14602  29.059  37.941   7.653
 5927POPC   NC314603  15.992  19.790   9.453
 5927POPC   PO414604  15.906  19.864   9.153
 5927POPC   GL114605  15.987  19.833   8.853
 5927POPC   GL214606  16.013  19.707   8.853
 5927POPC   C1A14607  15.972  19.840   8.553
 5927POPC   D2A14608  15.957  19.831   8.253
 5927POPC   C3A14609  15.925  19.818   7.953
 5927POPC   C4A14610  15.915  19.880   7.653
 5927POPC   C1B14611  16.028  19.648   8.553
 5927POPC   C2B14612  16.061  19.640   8.253
 5927POPC   C3B14613  16.013  19.595   7.953
 5927POPC   C4B14614  16.033  19.640   7.653
 5928POPC   NC314615  19.804  23.753   9.453
 5928POPC   PO414616  19.807  23.713   9.153
 5928POPC   GL114617  19.877  23.682   8.853
 5928POPC   GL214618  19.896  23.842   8.853
 5928POPC   C1A14619  19.817  23.677   8.553
 5928POPC   D2A14620  19.881  23.692   8.253
 5928POPC   C3A14621  19.875  23.702   7.953
 5928POPC   C4A14622  19.864  23.683   7.653
 5928POPC   C1B14623  19.847  23.990   8.553
 5928POPC   C2B14624  19.898  23.931   8.253
 5928POPC   C3B14625  19.867  23.967   7.953
 5928POPC   C4B14626  19.879  23.926   7.653
 5929POPC   NC314627  30.689  24.497   9.453
 5929POPC   PO414628  30.743  24.515   9.153
 5929POPC   GL114629  30.687  24.514   8.853
 5929POPC   GL214630  30.646  24.447   8.853
 5929POPC   C1A14631  30.671  24.481   8.553
 5929POPC   D2A14632  30.743  24.492   8.253
 5929POPC   C3A14633  30.715  24.459   7.953
 5929POPC   C4A14634  30.698  24.440   7.653
 5929POPC   C1B14635  30.538  24.280   8.553
 5929POPC   C2B14636  30.562  24.351   8.253
 5929POPC   C3B14637  30.542  24.273   7.953
 5929POPC   C4B14638  30.472  24.266   7.653
 5930POPC   NC314639  40.793  14.361   9.453
 5930POPC   PO414640  40.796  14.412   9.153
 5930POPC   GL114641  40.760  14.427   8.853
 5930POPC   GL214642  40.754  14.271   8.853
 5930POPC   C1A14643  40.747  14.421   8.553
 5930POPC   D2A14644  40.753  14.394   8.253
 5930POPC   C3A14645  40.734  14.424   7.953
 5930POPC   C4A14646  40.804  14.377   7.653
 5930POPC   C1B14647  40.670  14.232   8.553
 5930POPC   C2B14648  40.678  14.173   8.253
 5930POPC   C3B14649  40.693  14.168   7.953
 5930POPC   C4B14650  40.619  14.144   7.653
 5931POPC   NC314651  32.253  43.929   9.453
 5931POPC   PO414652  32.295  43.888   9.153
 5931POPC   GL114653  32.225  43.845   8.853
 5931POPC   GL214654  32.151  43.843   8.853
 5931POPC   C1A14655  32.250  43.887   8.553
 5931POPC   D2A14656  32.205  43.849   8.253
 5931POPC   C3A14657  32.217  43.901   7.953
 5931POPC   C4A14658  32.261  43.883   7.653
 5931POPC   C1B14659  31.976  43.814   8.553
 5931POPC   C2B14660  31.974  43.845   8.253
 5931POPC   C3B14661  32.042  43.783   7.953
 5931POPC   C4B14662  31.993  43.804   7.653
 5932POPC   NC314663  13.586   8.177   9.453
 5932POPC   PO414664  13.609   8.204   9.153
 5932POPC   GL114665  13.584   8.210   8.853
 5932POPC   GL214666  13.546   8.121   8.853
 5932POPC   C1A14667  13.601   8.234   8.553
 5932POPC   D2A14668  13.604   8.217   8.253
 5932POPC   C3A14669  13.661   8.227   7.953
 5932POPC   C4A14670  13.584   8.224   7.653
 5932POPC   C1B14671  13.430   8.086   8.553
 5932POPC   C2B14672  13.408   8.145   8.253
 5932POPC   C3B14673  13.343   8.104   7.953
 5932POPC   C4B14674  13.387   8.152   7.653
 5933POPC   NC314675   0.436   1.991   9.453
 5933POPC   PO414676   0.414   1.968   9.153
 5933POPC   GL114677   0.446   2.008   8.853
 5933POPC   GL214678   0.407   2.097   8.853
 5933POPC   C1A14679   0.422   2.017   8.553
 5933POPC   D2A14680   0.410   1.949   8.253
 5933POPC   C3A14681   0.402   1.951   7.953
 5933POPC   C4A14682   0.432   1.950   7.653
 5933POPC   C1B14683   0.304   2.201   8.553
 5933POPC   C2B14684   0.262   2.219   8.253
 5933POPC   C3B14685   0.302   2.240   7.953
 5933POPC   C4B14686   0.328   2.196   7.653
 5934POPC   NC314687  31.503   1.223   9.453
 5934POPC   PO414688  31.464   1.166   9.153
 5934POPC   GL114689  31.498   1.215   8.853
 5934POPC   GL214690  31.387   1.228   8.853
 5934POPC   C1A14691  31.522   1.222   8.553
 5934POPC   D2A14692  31.447   1.187   8.253
 5934POPC   C3A14693  31.501   1.209   7.953
 5934POPC   C4A14694  31.480   1.170   7.653
 5934POPC   C1B14695  31.206   1.305   8.553
 5934POPC   C2B14696  31.263   1.324   8.253
 5934POPC   C3B14697  31.190   1.278   7.953
 5934POPC   C4B14698  31.221   1.268   7.653
 5935POPC   NC314699  28.357   1.942   9.453
 5935POPC   PO414700  28.356   1.986   9.153
 5935POPC   GL114701  28.382   2.018   8.853
 5935POPC   GL214702  28.414   2.066   8.853
 5935POPC   C1A14703  28.335   2.032   8.553
 5935POPC   D2A14704  28.411   1.993   8.253
 5935POPC   C3A14705  28.369   2.023   7.953
 5935POPC   C4A14706  28.382   2.031   7.653
 5935POPC   C1B14707  28.513   2.141   8.553
 5935POPC   C2B14708  28.510   2.186   8.253
 5935POPC   C3B14709  28.486   2.140   7.953
 5935POPC   C4B14710  28.549   2.149   7.653
 5936POPC   NC314711  29.961   5.099   9.453
 5936POPC   PO414712  29.915   5.067   9.153
 5936POPC   GL114713  29.946   5.046   8.853
 5936POPC   GL214714  30.061   5.107   8.853
 5936POPC   C1A14715  29.920   5.087   8.553
 5936POPC   D2A14716  29.946   5.058   8.253
 5936POPC   C3A14717  29.917   5.104   7.953
 5936POPC   C4A14718  29.893   5.119   7.653
 5936POPC   C1B14719  30.128   5.090   8.553
 5936POPC   C2B14720  30.137   5.103   8.253
 5936POPC   C3B14721  30.207   5.128   7.953
 5936POPC   C4B14722  30.214   5.113   7.653
 5937POPC   NC314723  26.837  33.797   9.453
 5937POPC   PO414724  26.816  33.804   9.153
 5937POPC   GL114725  26.854  33.800   8.853
 5937POPC   GL214726  26.892  33.726   8.853
 5937POPC   C1A14727  26.853  33.774   8.553
 5937POPC   D2A14728  26.790  33.762   8.253
 5937POPC   C3A14729  26.833  33.766   7.953
 5937POPC   C4A14730  26.853  33.806   7.653
 5937POPC   C1B14731  26.991  33.635   8.553
 5937POPC   C2B14732  26.976  33.625   8.253
 5937POPC   C3B14733  27.073  33.641   7.953
 5937POPC   C4B14734  27.068  33.678   7.653
 5938POPC   NC314735  38.480  36.890   9.453
 5938POPC   PO414736  38.441  36.892   9.153
 5938POPC   GL114737  38.445  36.876   8.853
 5938POPC   GL214738  38.283  36.931   8.853
 5938POPC   C1A14739  38.432  36.856   8.553
 5938POPC   D2A14740  38.501  36.882   8.253
 5938POPC   C3A14741  38.484  36.942   7.953
 5938POPC   C4A14742  38.421  36.895   7.653
 5938POPC   C1B14743  38.247  36.940   8.553
 5938POPC   C2B14744  38.247  36.891   8.253
 5938POPC   C3B14745  38.182  36.916   7.953
 5938POPC   C4B14746  38.173  36.951   7.653
 5939POPC   NC314747  33.035   2.721   9.453
 5939POPC   PO414748  33.007   2.729   9.153
 5939POPC   GL114749  33.011   2.804   8.853
 5939POPC   GL214750  33.035   2.917   8.853
 5939POPC   C1A14751  33.010   2.771   8.553
 5939POPC   D2A14752  32.976   2.791   8.253
 5939POPC   C3A14753  33.063   2.732   7.953
 5939POPC   C4A14754  33.022   2.738   7.653
 5939POPC   C1B14755  33.100   3.020   8.553
 5939POPC   C2B14756  33.085   3.054   8.253
 5939POPC   C3B14757  33.002   2.976   7.953
 5939POPC   C4B14758  33.011   3.028   7.653
 5940POPC   NC314759  10.519  42.343   9.453
 5940POPC   PO414760  10.557  42.362   9.153
 5940POPC   GL114761  10.483  42.316   8.853
 5940POPC   GL214762  10.609  42.435   8.853
 5940POPC   C1A14763  10.532  42.372   8.553
 5940POPC   D2A14764  10.552  42.384   8.253
 5940POPC   C3A14765  10.487  42.303   7.953
 5940POPC   C4A14766  10.542  42.320   7.653
 5940POPC   C1B14767  10.636  42.601   8.553
 5940POPC   C2B14768  10.685  42.516   8.253
 5940POPC   C3B14769  10.685  42.529   7.953
 5940POPC   C4B14770  10.639  42.565   7.653
 5941POPC   NC314771  12.118  22.918   9.453
 5941POPC   PO414772  12.061  22.920   9.153
 5941POPC   GL114773  12.047  22.952   8.853
 5941POPC   GL214774  12.107  23.025   8.853
 5941POPC   C1A14775  12.100  22.921   8.553
 5941POPC   D2A14776  12.093  22.960   8.253
 5941POPC   C3A14777  12.071  22.940   7.953
 5941POPC   C4A14778  12.093  22.953   7.653
 5941POPC   C1B14779  12.021  23.236   8.553
 5941POPC   C2B14780  12.076  23.186   8.253
 5941POPC   C3B14781  12.037  23.165   7.953
 5941POPC   C4B14782  12.033  23.218   7.653
 5942POPC   NC314783  18.265  18.305   9.453
 5942POPC   PO414784  18.258  18.239   9.153
 5942POPC   GL114785  18.235  18.330   8.853
 5942POPC   GL214786  18.447  18.256   8.853
 5942POPC   C1A14787  18.271  18.273   8.553
 5942POPC   D2A14788  18.292  18.260   8.253
 5942POPC   C3A14789  18.319  18.282   7.953
 5942POPC   C4A14790  18.327  18.258   7.653
 5942POPC   C1B14791  18.576  18.305   8.553
 5942POPC   C2B14792  18.529  18.234   8.253
 5942POPC   C3B14793  18.567  18.279   7.953
 5942POPC   C4B14794  18.572  18.299   7.653
 5943POPC   NC314795  22.982  23.724   9.453
 5943POPC   PO414796  22.973  23.675   9.153
 5943POPC   GL114797  22.939  23.674   8.853
 5943POPC   GL214798  22.956  23.634   8.853
 5943POPC   C1A14799  22.946  23.739   8.553
 5943POPC   D2A14800  22.978  23.670   8.253
 5943POPC   C3A14801  22.970  23.754   7.953
 5943POPC   C4A14802  22.964  23.686   7.653
 5943POPC   C1B14803  23.035  23.443   8.553
 5943POPC   C2B14804  23.047  23.452   8.253
 5943POPC   C3B14805  23.062  23.480   7.953
 5943POPC   C4B14806  23.061  23.501   7.653
 5944POPC   NC314807  27.568  43.119   9.453
 5944POPC   PO414808  27.563  43.101   9.153
 5944POPC   GL114809  27.564  43.088   8.853
 5944POPC   GL214810  27.439  43.169   8.853
 5944POPC   C1A14811  27.634  43.132   8.553
 5944POPC   D2A14812  27.559  43.120   8.253
 5944POPC   C3A14813  27.551  43.101   7.953
 5944POPC   C4A14814  27.629  43.130   7.653
 5944POPC   C1B14815  27.355  43.165   8.553
 5944POPC   C2B14816  27.342  43.200   8.253
 5944POPC   C3B14817  27.374  43.171   7.953
 5944POPC   C4B14818  27.350  43.219   7.653
 5945POPC   NC314819  19.848   5.893   9.453
 5945POPC   PO414820  19.880   5.892   9.153
 5945POPC   GL114821  19.834   5.906   8.853
 5945POPC   GL214822  19.832   5.954   8.853
 5945POPC   C1A14823  19.816   5.890   8.553
 5945POPC   D2A14824  19.804   5.904   8.253
 5945POPC   C3A14825  19.879   5.908   7.953
 5945POPC   C4A14826  19.875   5.840   7.653
 5945POPC   C1B14827  19.885   6.125   8.553
 5945POPC   C2B14828  19.880   6.082   8.253
 5945POPC   C3B14829  19.926   6.156   7.953
 5945POPC   C4B14830  19.897   6.067   7.653
 5946POPC   NC314831   5.915  30.668   9.453
 5946POPC   PO414832   5.825  30.700   9.153
 5946POPC   GL114833   5.886  30.744   8.853
 5946POPC   GL214834   5.992  30.643   8.853
 5946POPC   C1A14835   5.848  30.702   8.553
 5946POPC   D2A14836   5.880  30.719   8.253
 5946POPC   C3A14837   5.856  30.648   7.953
 5946POPC   C4A14838   5.919  30.698   7.653
 5946POPC   C1B14839   6.071  30.514   8.553
 5946POPC   C2B14840   5.990  30.486   8.253
 5946POPC   C3B14841   6.036  30.544   7.953
 5946POPC   C4B14842   6.044  30.485   7.653
 5947POPC   NC314843  16.689  39.986   9.453
 5947POPC   PO414844  16.689  39.981   9.153
 5947POPC   GL114845  16.707  40.021   8.853
 5947POPC   GL214846  16.716  39.861   8.853
 5947POPC   C1A14847  16.741  40.057   8.553
 5947POPC   D2A14848  16.686  40.026   8.253
 5947POPC   C3A14849  16.756  40.000   7.953
 5947POPC   C4A14850  16.736  39.978   7.653
 5947POPC   C1B14851  16.584  39.765   8.553
 5947POPC   C2B14852  16.638  39.750   8.253
 5947POPC   C3B14853  16.669  39.745   7.953
 5947POPC   C4B14854  16.595  39.758   7.653
 5948POPC   NC314855  27.636  25.257   9.453
 5948POPC   PO414856  27.635  25.277   9.153
 5948POPC   GL114857  27.606  25.236   8.853
 5948POPC   GL214858  27.618  25.135   8.853
 5948POPC   C1A14859  27.584  25.264   8.553
 5948POPC   D2A14860  27.577  25.269   8.253
 5948POPC   C3A14861  27.587  25.267   7.953
 5948POPC   C4A14862  27.575  25.224   7.653
 5948POPC   C1B14863  27.728  25.065   8.553
 5948POPC   C2B14864  27.760  25.091   8.253
 5948POPC   C3B14865  27.706  25.083   7.953
 5948POPC   C4B14866  27.702  25.026   7.653
 5949POPC   NC314867  14.446  36.947   9.453
 5949POPC   PO414868  14.403  36.856   9.153
 5949POPC   GL114869  14.424  36.854   8.853
 5949POPC   GL214870  14.354  36.871   8.853
 5949POPC   C1A14871  14.391  36.892   8.553
 5949POPC   D2A14872  14.453  36.855   8.253
 5949POPC   C3A14873  14.395  36.906   7.953
 5949POPC   C4A14874  14.409  36.866   7.653
 5949POPC   C1B14875  14.211  36.787   8.553
 5949POPC   C2B14876  14.174  36.780   8.253
 5949POPC   C3B14877  14.181  36.767   7.953
 5949POPC   C4B14878  14.255  36.716   7.653
 5950POPC   NC314879   2.783  24.502   9.453
 5950POPC   PO414880   2.796  24.486   9.153
 5950POPC   GL114881   2.754  24.452   8.853
 5950POPC   GL214882   2.682  24.438   8.853
 5950POPC   C1A14883   2.754  24.504   8.553
 5950POPC   D2A14884   2.764  24.510   8.253
 5950POPC   C3A14885   2.767  24.498   7.953
 5950POPC   C4A14886   2.743  24.505   7.653
 5950POPC   C1B14887   2.577  24.351   8.553
 5950POPC   C2B14888   2.507  24.380   8.253
 5950POPC   C3B14889   2.492  24.414   7.953
 5950POPC   C4B14890   2.550  24.341   7.653
 5951POPC   NC314891  29.873   4.282   9.453
 5951POPC   PO414892  29.873   4.292   9.153
 5951POPC   GL114893  29.878   4.332   8.853
 5951POPC   GL214894  30.049   4.341   8.853
 5951POPC   C1A14895  29.901   4.335   8.553
 5951POPC   D2A14896  29.962   4.363   8.253
 5951POPC   C3A14897  29.954   4.354   7.953
 5951POPC   C4A14898  29.934   4.268   7.653
 5951POPC   C1B14899  30.170   4.316   8.553
 5951POPC   C2B14900  30.150   4.289   8.253
 5951POPC   C3B14901  30.142   4.343   7.953
 5951POPC   C4B14902  30.172   4.289   7.653
 5952POPC   NC314903  29.168  30.736   9.453
 5952POPC   PO414904  29.153  30.690   9.153
 5952POPC   GL114905  29.184  30.683   8.853
 5952POPC   GL214906  29.202  30.558   8.853
 5952POPC   C1A14907  29.142  30.700   8.553
 5952POPC   D2A14908  29.153  30.717   8.253
 5952POPC   C3A14909  29.104  30.718   7.953
 5952POPC   C4A14910  29.184  30.713   7.653
 5952POPC   C1B14911  29.204  30.462   8.553
 5952POPC   C2B14912  29.277  30.416   8.253
 5952POPC   C3B14913  29.193  30.463   7.953
 5952POPC   C4B14914  29.246  30.445   7.653
 5953POPC   NC314915   5.063  37.638   9.453
 5953POPC   PO414916   5.130  37.677   9.153
 5953POPC   GL114917   5.059  37.639   8.853
 5953POPC   GL214918   5.207  37.673   8.853
 5953POPC   C1A14919   5.076  37.728   8.553
 5953POPC   D2A14920   5.091  37.634   8.253
 5953POPC   C3A14921   5.082  37.721   7.953
 5953POPC   C4A14922   5.134  37.663   7.653
 5953POPC   C1B14923   5.369  37.672   8.553
 5953POPC   C2B14924   5.334  37.619   8.253
 5953POPC   C3B14925   5.365  37.589   7.953
 5953POPC   C4B14926   5.361  37.628   7.653
 5954POPC   NC314927  37.687   6.678   9.453
 5954POPC   PO414928  37.707   6.673   9.153
 5954POPC   GL114929  37.630   6.660   8.853
 5954POPC   GL214930  37.516   6.682   8.853
 5954POPC   C1A14931  37.727   6.609   8.553
 5954POPC   D2A14932  37.680   6.651   8.253
 5954POPC   C3A14933  37.677   6.660   7.953
 5954POPC   C4A14934  37.728   6.672   7.653
 5954POPC   C1B14935  37.438   6.625   8.553
 5954POPC   C2B14936  37.396   6.614   8.253
 5954POPC   C3B14937  37.392   6.654   7.953
 5954POPC   C4B14938  37.445   6.605   7.653
 5955POPC   NC314939   9.779   0.446   9.453
 5955POPC   PO414940   9.737   0.391   9.153
 5955POPC   GL114941   9.782   0.466   8.853
 5955POPC   GL214942   9.669   0.374   8.853
 5955POPC   C1A14943   9.751   0.487   8.553
 5955POPC   D2A14944   9.712   0.422   8.253
 5955POPC   C3A14945   9.720   0.463   7.953
 5955POPC   C4A14946   9.762   0.393   7.653
 5955POPC   C1B14947   9.693   0.249   8.553
 5955POPC   C2B14948   9.634   0.215   8.253
 5955POPC   C3B14949   9.633   0.251   7.953
 5955POPC   C4B14950   9.655   0.174   7.653
 5956POPC   NC314951  15.920  19.104   9.453
 5956POPC   PO414952  15.936  19.030   9.153
 5956POPC   GL114953  15.993  19.027   8.853
 5956POPC   GL214954  15.959  19.181   8.853
 5956POPC   C1A14955  15.930  19.106   8.553
 5956POPC   D2A14956  15.914  19.101   8.253
 5956POPC   C3A14957  15.999  19.023   7.953
 5956POPC   C4A14958  15.988  19.028   7.653
 5956POPC   C1B14959  16.056  19.256   8.553
 5956POPC   C2B14960  16.020  19.273   8.253
 5956POPC   C3B14961  15.971  19.282   7.953
 5956POPC   C4B14962  15.976  19.295   7.653
 5957POPC   NC314963  11.278   6.624   9.453
 5957POPC   PO414964  11.339   6.665   9.153
 5957POPC   GL114965  11.262   6.690   8.853
 5957POPC   GL214966  11.438   6.662   8.853
 5957POPC   C1A14967  11.293   6.690   8.553
 5957POPC   D2A14968  11.304   6.642   8.253
 5957POPC   C3A14969  11.283   6.616   7.953
 5957POPC   C4A14970  11.289   6.606   7.653
 5957POPC   C1B14971  11.500   6.704   8.553
 5957POPC   C2B14972  11.564   6.650   8.253
 5957POPC   C3B14973  11.528   6.652   7.953
 5957POPC   C4B14974  11.519   6.701   7.653
 5958POPC   NC314975  37.707  24.488   9.453
 5958POPC   PO414976  37.708  24.516   9.153
 5958POPC   GL114977  37.664  24.492   8.853
 5958POPC   GL214978  37.531  24.461   8.853
 5958POPC   C1A14979  37.644  24.446   8.553
 5958POPC   D2A14980  37.676  24.444   8.253
 5958POPC   C3A14981  37.673  24.504   7.953
 5958POPC   C4A14982  37.666  24.503   7.653
 5958POPC   C1B14983  37.450  24.520   8.553
 5958POPC   C2B14984  37.398  24.514   8.253
 5958POPC   C3B14985  37.438  24.465   7.953
 5958POPC   C4B14986  37.425  24.474   7.653
 5959POPC   NC314987  36.078  29.967   9.453
 5959POPC   PO414988  36.151  29.951   9.153
 5959POPC   GL114989  36.150  29.914   8.853
 5959POPC   GL214990  36.041  29.974   8.853
 5959POPC   C1A14991  36.150  29.913   8.553
 5959POPC   D2A14992  36.122  29.954   8.253
 5959POPC   C3A14993  36.159  29.915   7.953
 5959POPC   C4A14994  36.153  29.891   7.653
 5959POPC   C1B14995  35.949  30.068   8.553
 5959POPC   C2B14996  35.889  30.097   8.253
 5959POPC   C3B14997  35.931  30.070   7.953
 5959POPC   C4B14998  35.913  30.088   7.653
 5960POPC   NC314999  27.614  14.408   9.453
 5960POPC   PO415000  27.634  14.374   9.153
 5960POPC   GL115001  27.553  14.395   8.853
 5960POPC   GL215002  27.458  14.425   8.853
 5960POPC   C1A15003  27.633  14.447   8.553
 5960POPC   D2A15004  27.635  14.396   8.253
 5960POPC   C3A15005  27.642  14.449   7.953
 5960POPC   C4A15006  27.587  14.435   7.653
 5960POPC   C1B15007  27.332  14.541   8.553
 5960POPC   C2B15008  27.374  14.515   8.253
 5960POPC   C3B15009  27.381  14.512   7.953
 5960POPC   C4B15010  27.349  14.536   7.653
 5961POPC   NC315011  23.665  26.036   9.453
 5961POPC   PO415012  23.688  26.051   9.153
 5961POPC   GL115013  23.736  26.072   8.853
 5961POPC   GL215014  23.856  26.037   8.853
 5961POPC   C1A15015  23.697  26.012   8.553
 5961POPC   D2A15016  23.688  26.018   8.253
 5961POPC   C3A15017  23.704  25.993   7.953
 5961POPC   C4A15018  23.691  26.081   7.653
 5961POPC   C1B15019  23.922  26.078   8.553
 5961POPC   C2B15020  23.998  26.025   8.253
 5961POPC   C3B15021  23.954  26.032   7.953
 5961POPC   C4B15022  23.986  26.041   7.653
 5962POPC   NC315023  27.559   6.679   9.453
 5962POPC   PO415024  27.611   6.666   9.153
 5962POPC   GL115025  27.573   6.660   8.853
 5962POPC   GL215026  27.594   6.538   8.853
 5962POPC   C1A15027  27.597   6.694   8.553
 5962POPC   D2A15028  27.580   6.604   8.253
 5962POPC   C3A15029  27.557   6.606   7.953
 5962POPC   C4A15030  27.589   6.609   7.653
 5962POPC   C1B15031  27.528   6.410   8.553
 5962POPC   C2B15032  27.493   6.440   8.253
 5962POPC   C3B15033  27.559   6.418   7.953
 5962POPC   C4B15034  27.483   6.373   7.653
 5963POPC   NC315035  37.657  26.048   9.453
 5963POPC   PO415036  37.685  26.084   9.153
 5963POPC   GL115037  37.710  26.039   8.853
 5963POPC   GL215038  37.593  26.140   8.853
 5963POPC   C1A15039  37.729  26.054   8.553
 5963POPC   D2A15040  37.639  26.007   8.253
 5963POPC   C3A15041  37.657  26.071   7.953
 5963POPC   C4A15042  37.662  26.052   7.653
 5963POPC   C1B15043  37.539  26.213   8.553
 5963POPC   C2B15044  37.554  26.282   8.253
 5963POPC   C3B15045  37.506  26.291   7.953
 5963POPC   C4B15046  37.492  26.266   7.653
 5964POPC   NC315047  23.715  42.383   9.453
 5964POPC   PO415048  23.725  42.301   9.153
 5964POPC   GL115049  23.740  42.352   8.853
 5964POPC   GL215050  23.802  42.356   8.853
 5964POPC   C1A15051  23.714  42.316   8.553
 5964POPC   D2A15052  23.719  42.358   8.253
 5964POPC   C3A15053  23.723  42.311   7.953
 5964POPC   C4A15054  23.686  42.285   7.653
 5964POPC   C1B15055  24.004  42.353   8.553
 5964POPC   C2B15056  23.978  42.367   8.253
 5964POPC   C3B15057  23.933  42.291   7.953
 5964POPC   C4B15058  23.917  42.292   7.653
 5965POPC   NC315059  29.128   1.954   9.453
 5965POPC   PO415060  29.181   1.944   9.153
 5965POPC   GL115061  29.105   1.955   8.853
 5965POPC   GL215062  29.304   1.992   8.853
 5965POPC   C1A15063  29.184   2.028   8.553
 5965POPC   D2A15064  29.146   1.974   8.253
 5965POPC   C3A15065  29.129   1.995   7.953
 5965POPC   C4A15066  29.152   1.995   7.653
 5965POPC   C1B15067  29.422   1.916   8.553
 5965POPC   C2B15068  29.343   1.959   8.253
 5965POPC   C3B15069  29.398   1.929   7.953
 5965POPC   C4B15070  29.337   1.926   7.653
 5966POPC   NC315071  33.823   0.409   9.453
 5966POPC   PO415072  33.780   0.413   9.153
 5966POPC   GL115073  33.765   0.439   8.853
 5966POPC   GL215074  33.792   0.298   8.853
 5966POPC   C1A15075  33.786   0.398   8.553
 5966POPC   D2A15076  33.821   0.463   8.253
 5966POPC   C3A15077  33.780   0.461   7.953
 5966POPC   C4A15078  33.756   0.432   7.653
 5966POPC   C1B15079  33.779   0.171   8.553
 5966POPC   C2B15080  33.783   0.150   8.253
 5966POPC   C3B15081  33.749   0.185   7.953
 5966POPC   C4B15082  33.726   0.156   7.653
 5967POPC   NC315083  10.550  43.876   9.453
 5967POPC   PO415084  10.536  43.861   9.153
 5967POPC   GL115085  10.512  43.888   8.853
 5967POPC   GL215086  10.581  43.739   8.853
 5967POPC   C1A15087  10.539  43.878   8.553
 5967POPC   D2A15088  10.546  43.880   8.253
 5967POPC   C3A15089  10.493  43.914   7.953
 5967POPC   C4A15090  10.510  43.907   7.653
 5967POPC   C1B15091  10.627  43.603   8.553
 5967POPC   C2B15092  10.599  43.648   8.253
 5967POPC   C3B15093  10.564  43.677   7.953
 5967POPC   C4B15094  10.573  43.618   7.653
 5968POPC   NC315095   1.240  24.443   9.453
 5968POPC   PO415096   1.198  24.501   9.153
 5968POPC   GL115097   1.169  24.523   8.853
 5968POPC   GL215098   1.236  24.392   8.853
 5968POPC   C1A15099   1.176  24.478   8.553
 5968POPC   D2A15100   1.236  24.514   8.253
 5968POPC   C3A15101   1.243  24.443   7.953
 5968POPC   C4A15102   1.217  24.478   7.653
 5968POPC   C1B15103   1.257  24.288   8.553
 5968POPC   C2B15104   1.285  24.294   8.253
 5968POPC   C3B15105   1.265  24.228   7.953
 5968POPC   C4B15106   1.277  24.233   7.653
 5969POPC   NC315107   0.451  19.048   9.453
 5969POPC   PO415108   0.449  19.032   9.153
 5969POPC   GL115109   0.424  19.090   8.853
 5969POPC   GL215110   0.303  19.103   8.853
 5969POPC   C1A15111   0.455  19.056   8.553
 5969POPC   D2A15112   0.450  19.063   8.253
 5969POPC   C3A15113   0.425  19.065   7.953
 5969POPC   C4A15114   0.425  19.041   7.653
 5969POPC   C1B15115   0.193  19.075   8.553
 5969POPC   C2B15116   0.186  19.019   8.253
 5969POPC   C3B15117   0.153  19.022   7.953
 5969POPC   C4B15118   0.169  19.057   7.653
 5970POPC   NC315119  32.288  15.931   9.453
 5970POPC   PO415120  32.249  15.985   9.153
 5970POPC   GL115121  32.273  15.982   8.853
 5970POPC   GL215122  32.218  15.797   8.853
 5970POPC   C1A15123  32.232  15.957   8.553
 5970POPC   D2A15124  32.285  15.987   8.253
 5970POPC   C3A15125  32.255  15.947   7.953
 5970POPC   C4A15126  32.230  15.916   7.653
 5970POPC   C1B15127  32.181  15.718   8.553
 5970POPC   C2B15128  32.235  15.687   8.253
 5970POPC   C3B15129  32.195  15.688   7.953
 5970POPC   C4B15130  32.214  15.711   7.653
 5971POPC   NC315131  33.021  23.728   9.453
 5971POPC   PO415132  32.998  23.714   9.153
 5971POPC   GL115133  33.030  23.707   8.853
 5971POPC   GL215134  33.100  23.577   8.853
 5971POPC   C1A15135  33.009  23.747   8.553
 5971POPC   D2A15136  33.049  23.685   8.253
 5971POPC   C3A15137  32.992  23.725   7.953
 5971POPC   C4A15138  33.065  23.665   7.653
 5971POPC   C1B15139  33.166  23.452   8.553
 5971POPC   C2B15140  33.108  23.469   8.253
 5971POPC   C3B15141  33.126  23.486   7.953
 5971POPC   C4B15142  33.158  23.455   7.653
 5972POPC   NC315143  12.831   3.537   9.453
 5972POPC   PO415144  12.859   3.522   9.153
 5972POPC   GL115145  12.865   3.526   8.853
 5972POPC   GL215146  12.909   3.624   8.853
 5972POPC   C1A15147  12.837   3.583   8.553
 5972POPC   D2A15148  12.805   3.579   8.253
 5972POPC   C3A15149  12.873   3.524   7.953
 5972POPC   C4A15150  12.832   3.565   7.653
 5972POPC   C1B15151  12.960   3.801   8.553
 5972POPC   C2B15152  12.948   3.725   8.253
 5972POPC   C3B15153  12.986   3.738   7.953
 5972POPC   C4B15154  12.965   3.747   7.653
 5973POPC   NC315155  29.946  26.077   9.453
 5973POPC   PO415156  29.885  25.998   9.153
 5973POPC   GL115157  29.954  26.046   8.853
 5973POPC   GL215158  29.835  26.116   8.853
 5973POPC   C1A15159  29.887  26.079   8.553
 5973POPC   D2A15160  29.944  26.045   8.253
 5973POPC   C3A15161  29.956  25.993   7.953
 5973POPC   C4A15162  29.924  26.087   7.653
 5973POPC   C1B15163  29.668  26.098   8.553
 5973POPC   C2B15164  29.677  26.148   8.253
 5973POPC   C3B15165  29.689  26.116   7.953
 5973POPC   C4B15166  29.646  26.117   7.653
 5974POPC   NC315167   9.787   4.280   9.453
 5974POPC   PO415168   9.718   4.332   9.153
 5974POPC   GL115169   9.771   4.346   8.853
 5974POPC   GL215170   9.849   4.366   8.853
 5974POPC   C1A15171   9.759   4.284   8.553
 5974POPC   D2A15172   9.749   4.342   8.253
 5974POPC   C3A15173   9.728   4.307   7.953
 5974POPC   C4A15174   9.778   4.288   7.653
 5974POPC   C1B15175   9.937   4.545   8.553
 5974POPC   C2B15176   9.873   4.497   8.253
 5974POPC   C3B15177   9.924   4.539   7.953
 5974POPC   C4B15178   9.955   4.549   7.653
 5975POPC   NC315179  26.767  34.551   9.453
 5975POPC   PO415180  26.838  34.620   9.153
 5975POPC   GL115181  26.796  34.557   8.853
 5975POPC   GL215182  26.653  34.646   8.853
 5975POPC   C1A15183  26.799  34.569   8.553
 5975POPC   D2A15184  26.824  34.600   8.253
 5975POPC   C3A15185  26.855  34.590   7.953
 5975POPC   C4A15186  26.804  34.561   7.653
 5975POPC   C1B15187  26.600  34.615   8.553
 5975POPC   C2B15188  26.580  34.628   8.253
 5975POPC   C3B15189  26.569  34.621   7.953
 5975POPC   C4B15190  26.573  34.656   7.653
 5976POPC   NC315191  39.200  26.790   9.453
 5976POPC   PO415192  39.192  26.841   9.153
 5976POPC   GL115193  39.254  26.781   8.853
 5976POPC   GL215194  39.193  26.736   8.853
 5976POPC   C1A15195  39.267  26.822   8.553
 5976POPC   D2A15196  39.235  26.854   8.253
 5976POPC   C3A15197  39.257  26.784   7.953
 5976POPC   C4A15198  39.195  26.825   7.653
 5976POPC   C1B15199  39.224  26.622   8.553
 5976POPC   C2B15200  39.154  26.610   8.253
 5976POPC   C3B15201  39.181  26.582   7.953
 5976POPC   C4B15202  39.206  26.595   7.653
 5977POPC   NC315203   8.958  12.034   9.453
 5977POPC   PO415204   8.944  12.070   9.153
 5977POPC   GL115205   8.927  12.067   8.853
 5977POPC   GL215206   9.060  12.213   8.853
 5977POPC   C1A15207   8.944  12.124   8.553
 5977POPC   D2A15208   8.927  12.120   8.253
 5977POPC   C3A15209   8.997  12.091   7.953
 5977POPC   C4A15210   8.924  12.094   7.653
 5977POPC   C1B15211   9.056  12.346   8.553
 5977POPC   C2B15212   9.042  12.286   8.253
 5977POPC   C3B15213   9.117  12.351   7.953
 5977POPC   C4B15214   9.093  12.326   7.653
 5978POPC   NC315215  19.804  44.629   9.453
 5978POPC   PO415216  19.869  44.692   9.153
 5978POPC   GL115217  19.810  44.652   8.853
 5978POPC   GL215218  19.987  44.564   8.853
 5978POPC   C1A15219  19.818  44.615   8.553
 5978POPC   D2A15220  19.825  44.683   8.253
 5978POPC   C3A15221  19.859  44.661   7.953
 5978POPC   C4A15222  19.786  44.669   7.653
 5978POPC   C1B15223  20.109  44.515   8.553
 5978POPC   C2B15224  20.028  44.513   8.253
 5978POPC   C3B15225  20.082  44.583   7.953
 5978POPC   C4B15226  20.092  44.538   7.653
 5979POPC   NC315227  19.071  24.474   9.453
 5979POPC   PO415228  19.058  24.526   9.153
 5979POPC   GL115229  19.044  24.500   8.853
 5979POPC   GL215230  18.915  24.394   8.853
 5979POPC   C1A15231  19.101  24.446   8.553
 5979POPC   D2A15232  19.043  24.455   8.253
 5979POPC   C3A15233  19.041  24.481   7.953
 5979POPC   C4A15234  19.019  24.522   7.653
 5979POPC   C1B15235  18.792  24.341   8.553
 5979POPC   C2B15236  18.835  24.390   8.253
 5979POPC   C3B15237  18.877  24.374   7.953
 5979POPC   C4B15238  18.861  24.395   7.653
 5980POPC   NC315239  42.384  40.798   9.453
 5980POPC   PO415240  42.302  40.808   9.153
 5980POPC   GL115241  42.318  40.817   8.853
 5980POPC   GL215242  42.451  40.690   8.853
 5980POPC   C1A15243  42.315  40.819   8.553
 5980POPC   D2A15244  42.358  40.745   8.253
 5980POPC   C3A15245  42.334  40.764   7.953
 5980POPC   C4A15246  42.338  40.778   7.653
 5980POPC   C1B15247  42.546  40.688   8.553
 5980POPC   C2B15248  42.606  40.688   8.253
 5980POPC   C3B15249  42.568  40.666   7.953
 5980POPC   C4B15250  42.570  40.694   7.653
 5981POPC   NC315251  23.724  25.292   9.453
 5981POPC   PO415252  23.733  25.284   9.153
 5981POPC   GL115253  23.686  25.229   8.853
 5981POPC   GL215254  23.736  25.133   8.853
 5981POPC   C1A15255  23.716  25.240   8.553
 5981POPC   D2A15256  23.713  25.310   8.253
 5981POPC   C3A15257  23.677  25.293   7.953
 5981POPC   C4A15258  23.677  25.266   7.653
 5981POPC   C1B15259  23.769  25.009   8.553
 5981POPC   C2B15260  23.782  25.066   8.253
 5981POPC   C3B15261  23.776  25.022   7.953
 5981POPC   C4B15262  23.815  25.039   7.653
 5982POPC   NC315263  39.204  24.442   9.453
 5982POPC   PO415264  39.201  24.492   9.153
 5982POPC   GL115265  39.204  24.529   8.853
 5982POPC   GL215266  39.084  24.452   8.853
 5982POPC   C1A15267  39.192  24.440   8.553
 5982POPC   D2A15268  39.204  24.525   8.253
 5982POPC   C3A15269  39.277  24.514   7.953
 5982POPC   C4A15270  39.231  24.484   7.653
 5982POPC   C1B15271  39.002  24.434   8.553
 5982POPC   C2B15272  38.990  24.415   8.253
 5982POPC   C3B15273  38.984  24.409   7.953
 5982POPC   C4B15274  38.970  24.501   7.653
 5983POPC   NC315275  14.427   5.060   9.453
 5983POPC   PO415276  14.453   5.121   9.153
 5983POPC   GL115277  14.374   5.138   8.853
 5983POPC   GL215278  14.386   5.197   8.853
 5983POPC   C1A15279  14.440   5.122   8.553
 5983POPC   D2A15280  14.402   5.092   8.253
 5983POPC   C3A15281  14.371   5.055   7.953
 5983POPC   C4A15282  14.391   5.076   7.653
 5983POPC   C1B15283  14.385   5.329   8.553
 5983POPC   C2B15284  14.402   5.348   8.253
 5983POPC   C3B15285  14.396   5.335   7.953
 5983POPC   C4B15286  14.408   5.387   7.653
 5984POPC   NC315287  36.863  29.921   9.453
 5984POPC   PO415288  36.887  29.912   9.153
 5984POPC   GL115289  36.940  29.930   8.853
 5984POPC   GL215290  36.897  30.093   8.853
 5984POPC   C1A15291  36.901  29.926   8.553
 5984POPC   D2A15292  36.940  29.967   8.253
 5984POPC   C3A15293  36.912  29.920   7.953
 5984POPC   C4A15294  36.943  29.918   7.653
 5984POPC   C1B15295  36.897  30.168   8.553
 5984POPC   C2B15296  36.899  30.166   8.253
 5984POPC   C3B15297  36.892  30.213   7.953
 5984POPC   C4B15298  36.887  30.120   7.653
 5985POPC   NC315299   0.431   5.076   9.453
 5985POPC   PO415300   0.417   5.124   9.153
 5985POPC   GL115301   0.480   5.076   8.853
 5985POPC   GL215302   0.287   5.083   8.853
 5985POPC   C1A15303   0.391   5.107   8.553
 5985POPC   D2A15304   0.409   5.097   8.253
 5985POPC   C3A15305   0.459   5.097   7.953
 5985POPC   C4A15306   0.406   5.068   7.653
 5985POPC   C1B15307   0.182   5.093   8.553
 5985POPC   C2B15308   0.158   5.134   8.253
 5985POPC   C3B15309   0.204   5.154   7.953
 5985POPC   C4B15310   0.225   5.121   7.653
 5986POPC   NC315311  26.083  15.215   9.453
 5986POPC   PO415312  26.068  15.228   9.153
 5986POPC   GL115313  26.013  15.175   8.853
 5986POPC   GL215314  26.111  15.158   8.853
 5986POPC   C1A15315  26.046  15.176   8.553
 5986POPC   D2A15316  26.027  15.163   8.253
 5986POPC   C3A15317  26.080  15.142   7.953
 5986POPC   C4A15318  26.019  15.226   7.653
 5986POPC   C1B15319  26.315  15.128   8.553
 5986POPC   C2B15320  26.279  15.034   8.253
 5986POPC   C3B15321  26.259  15.052   7.953
 5986POPC   C4B15322  26.265  15.058   7.653
 5987POPC   NC315323  41.579  19.068   9.453
 5987POPC   PO415324  41.581  19.090   9.153
 5987POPC   GL115325  41.525  19.049   8.853
 5987POPC   GL215326  41.436  19.056   8.853
 5987POPC   C1A15327  41.538  19.019   8.553
 5987POPC   D2A15328  41.534  19.093   8.253
 5987POPC   C3A15329  41.536  19.075   7.953
 5987POPC   C4A15330  41.512  19.015   7.653
 5987POPC   C1B15331  41.285  19.115   8.553
 5987POPC   C2B15332  41.362  19.156   8.253
 5987POPC   C3B15333  41.323  19.117   7.953
 5987POPC   C4B15334  41.351  19.088   7.653
 5988POPC   NC315335  36.908  13.653   9.453
 5988POPC   PO415336  36.881  13.586   9.153
 5988POPC   GL115337  36.945  13.653   8.853
 5988POPC   GL215338  36.888  13.789   8.853
 5988POPC   C1A15339  36.891  13.656   8.553
 5988POPC   D2A15340  36.869  13.601   8.253
 5988POPC   C3A15341  36.923  13.620   7.953
 5988POPC   C4A15342  36.929  13.676   7.653
 5988POPC   C1B15343  36.865  13.827   8.553
 5988POPC   C2B15344  36.815  13.892   8.253
 5988POPC   C3B15345  36.840  13.852   7.953
 5988POPC   C4B15346  36.880  13.889   7.653
 5989POPC   NC315347  38.442  40.011   9.453
 5989POPC   PO415348  38.447  40.049   9.153
 5989POPC   GL115349  38.464  39.991   8.853
 5989POPC   GL215350  38.506  39.906   8.853
 5989POPC   C1A15351  38.499  40.020   8.553
 5989POPC   D2A15352  38.467  39.961   8.253
 5989POPC   C3A15353  38.440  40.046   7.953
 5989POPC   C4A15354  38.439  40.009   7.653
 5989POPC   C1B15355  38.634  39.840   8.553
 5989POPC   C2B15356  38.688  39.846   8.253
 5989POPC   C3B15357  38.639  39.863   7.953
 5989POPC   C4B15358  38.676  39.881   7.653
 5990POPC   NC315359  12.835  20.622   9.453
 5990POPC   PO415360  12.836  20.590   9.153
 5990POPC   GL115361  12.825  20.620   8.853
 5990POPC   GL215362  12.920  20.692   8.853
 5990POPC   C1A15363  12.818  20.588   8.553
 5990POPC   D2A15364  12.855  20.631   8.253
 5990POPC   C3A15365  12.872  20.563   7.953
 5990POPC   C4A15366  12.898  20.590   7.653
 5990POPC   C1B15367  12.998  20.856   8.553
 5990POPC   C2B15368  12.995  20.862   8.253
 5990POPC   C3B15369  12.929  20.803   7.953
 5990POPC   C4B15370  12.939  20.830   7.653
 5991POPC   NC315371  26.781   9.760   9.453
 5991POPC   PO415372  26.785   9.715   9.153
 5991POPC   GL115373  26.774   9.791   8.853
 5991POPC   GL215374  26.785   9.614   8.853
 5991POPC   C1A15375  26.842   9.781   8.553
 5991POPC   D2A15376  26.809   9.790   8.253
 5991POPC   C3A15377  26.853   9.706   7.953
 5991POPC   C4A15378  26.848   9.784   7.653
 5991POPC   C1B15379  26.697   9.512   8.553
 5991POPC   C2B15380  26.640   9.583   8.253
 5991POPC   C3B15381  26.692   9.580   7.953
 5991POPC   C4B15382  26.655   9.563   7.653
 5992POPC   NC315383  15.227  21.392   9.453
 5992POPC   PO415384  15.152  21.360   9.153
 5992POPC   GL115385  15.203  21.383   8.853
 5992POPC   GL215386  15.104  21.503   8.853
 5992POPC   C1A15387  15.223  21.402   8.553
 5992POPC   D2A15388  15.178  21.348   8.253
 5992POPC   C3A15389  15.200  21.382   7.953
 5992POPC   C4A15390  15.176  21.344   7.653
 5992POPC   C1B15391  15.089  21.657   8.553
 5992POPC   C2B15392  15.109  21.581   8.253
 5992POPC   C3B15393  15.123  21.638   7.953
 5992POPC   C4B15394  15.118  21.673   7.653
 5993POPC   NC315395  18.258  31.438   9.453
 5993POPC   PO415396  18.266  31.464   9.153
 5993POPC   GL115397  18.330  31.446   8.853
 5993POPC   GL215398  18.308  31.356   8.853
 5993POPC   C1A15399  18.234  31.500   8.553
 5993POPC   D2A15400  18.238  31.521   8.253
 5993POPC   C3A15401  18.324  31.423   7.953
 5993POPC   C4A15402  18.317  31.492   7.653
 5993POPC   C1B15403  18.254  31.193   8.553
 5993POPC   C2B15404  18.341  31.175   8.253
 5993POPC   C3B15405  18.295  31.217   7.953
 5993POPC   C4B15406  18.327  31.224   7.653
 5994POPC   NC315407  11.313  23.740   9.453
 5994POPC   PO415408  11.281  23.700   9.153
 5994POPC   GL115409  11.269  23.665   8.853
 5994POPC   GL215410  11.236  23.587   8.853
 5994POPC   C1A15411  11.320  23.679   8.553
 5994POPC   D2A15412  11.284  23.677   8.253
 5994POPC   C3A15413  11.300  23.731   7.953
 5994POPC   C4A15414  11.250  23.696   7.653
 5994POPC   C1B15415  11.200  23.454   8.553
 5994POPC   C2B15416  11.203  23.515   8.253
 5994POPC   C3B15417  11.272  23.436   7.953
 5994POPC   C4B15418  11.250  23.502   7.653
 5995POPC   NC315419  26.048  34.536   9.453
 5995POPC   PO415420  26.063  34.608   9.153
 5995POPC   GL115421  26.055  34.551   8.853
 5995POPC   GL215422  25.954  34.559   8.853
 5995POPC   C1A15423  26.027  34.624   8.553
 5995POPC   D2A15424  26.022  34.605   8.253
 5995POPC   C3A15425  26.004  34.560   7.953
 5995POPC   C4A15426  26.074  34.594   7.653
 5995POPC   C1B15427  25.837  34.612   8.553
 5995POPC   C2B15428  25.754  34.525   8.253
 5995POPC   C3B15429  25.798  34.589   7.953
 5995POPC   C4B15430  25.761  34.586   7.653
 5996POPC   NC315431  37.637  19.829   9.453
 5996POPC   PO415432  37.634  19.806   9.153
 5996POPC   GL115433  37.705  19.816   8.853
 5996POPC   GL215434  37.736  19.924   8.853
 5996POPC   C1A15435  37.720  19.794   8.553
 5996POPC   D2A15436  37.713  19.849   8.253
 5996POPC   C3A15437  37.630  19.840   7.953
 5996POPC   C4A15438  37.690  19.868   7.653
 5996POPC   C1B15439  37.861  19.998   8.553
 5996POPC   C2B15440  37.830  19.956   8.253
 5996POPC   C3B15441  37.815  20.012   7.953
 5996POPC   C4B15442  37.815  20.033   7.653
 5997POPC   NC315443   4.289  12.873   9.453
 5997POPC   PO415444   4.315  12.828   9.153
 5997POPC   GL115445   4.288  12.809   8.853
 5997POPC   GL215446   4.298  12.949   8.853
 5997POPC   C1A15447   4.278  12.837   8.553
 5997POPC   D2A15448   4.295  12.854   8.253
 5997POPC   C3A15449   4.362  12.851   7.953
 5997POPC   C4A15450   4.296  12.803   7.653
 5997POPC   C1B15451   4.198  13.047   8.553
 5997POPC   C2B15452   4.199  13.101   8.253
 5997POPC   C3B15453   4.218  13.077   7.953
 5997POPC   C4B15454   4.226  13.110   7.653
 5998POPC   NC315455  44.628  14.447   9.453
 5998POPC   PO415456  44.643  14.408   9.153
 5998POPC   GL115457  44.698  14.401   8.853
 5998POPC   GL215458  44.735  14.341   8.853
 5998POPC   C1A15459  44.662  14.359   8.553
 5998POPC   D2A15460  44.644  14.417   8.253
 5998POPC   C3A15461  44.649  14.438   7.953
 5998POPC   C4A15462  44.662  14.363   7.653
 5998POPC   C1B15463  44.909  14.254   8.553
 5998POPC   C2B15464  44.877  14.283   8.253
 5998POPC   C3B15465  44.891  14.266   7.953
 5998POPC   C4B15466  44.896  14.257   7.653
 5999POPC   NC315467  24.501   9.747   9.453
 5999POPC   PO415468  24.457   9.703   9.153
 5999POPC   GL115469  24.482   9.721   8.853
 5999POPC   GL215470  24.365   9.789   8.853
 5999POPC   C1A15471  24.525   9.703   8.553
 5999POPC   D2A15472  24.516   9.711   8.253
 5999POPC   C3A15473  24.520   9.704   7.953
 5999POPC   C4A15474  24.532   9.701   7.653
 5999POPC   C1B15475  24.286   9.868   8.553
 5999POPC   C2B15476  24.255   9.821   8.253
 5999POPC   C3B15477  24.207   9.830   7.953
 5999POPC   C4B15478  24.278   9.884   7.653
 6000POPC   NC315479  40.790  32.212   9.453
 6000POPC   PO415480  40.797  32.264   9.153
 6000POPC   GL115481  40.801  32.247   8.853
 6000POPC   GL215482  40.775  32.173   8.853
 6000POPC   C1A15483  40.772  32.291   8.553
 6000POPC   D2A15484  40.770  32.260   8.253
 6000POPC   C3A15485  40.832  32.267   7.953
 6000POPC   C4A15486  40.792  32.216   7.653
 6000POPC   C1B15487  40.727  31.978   8.553
 6000POPC   C2B15488  40.697  31.974   8.253
 6000POPC   C3B15489  40.764  31.994   7.953
 6000POPC   C4B15490  40.698  31.956   7.653
 6001POPC   NC315491  26.835  36.888   9.453
 6001POPC   PO415492  26.838  36.882   9.153
 6001POPC   GL115493  26.829  36.892   8.853
 6001POPC   GL215494  26.907  36.824   8.853
 6001POPC   C1A15495  26.822  36.940   8.553
 6001POPC   D2A15496  26.814  36.933   8.253
 6001POPC   C3A15497  26.806  36.922   7.953
 6001POPC   C4A15498  26.826  36.948   7.653
 6001POPC   C1B15499  26.970  36.759   8.553
 6001POPC   C2B15500  26.948  36.729   8.253
 6001POPC   C3B15501  27.033  36.737   7.953
 6001POPC   C4B15502  27.029  36.753   7.653
 6002POPC   NC315503   5.130  33.069   9.453
 6002POPC   PO415504   5.066  33.055   9.153
 6002POPC   GL115505   5.113  32.989   8.853
 6002POPC   GL215506   4.970  33.142   8.853
 6002POPC   C1A15507   5.110  32.975   8.553
 6002POPC   D2A15508   5.055  33.024   8.253
 6002POPC   C3A15509   5.049  33.054   7.953
 6002POPC   C4A15510   5.062  33.069   7.653
 6002POPC   C1B15511   4.967  33.249   8.553
 6002POPC   C2B15512   4.960  33.200   8.253
 6002POPC   C3B15513   4.947  33.239   7.953
 6002POPC   C4B15514   4.930  33.181   7.653
 6003POPC   NC315515  43.094  11.284   9.453
 6003POPC   PO415516  43.128  11.328   9.153
 6003POPC   GL115517  43.131  11.282   8.853
 6003POPC   GL215518  43.014  11.429   8.853
 6003POPC   C1A15519  43.113  11.261   8.553
 6003POPC   D2A15520  43.091  11.325   8.253
 6003POPC   C3A15521  43.150  11.332   7.953
 6003POPC   C4A15522  43.153  11.254   7.653
 6003POPC   C1B15523  42.997  11.494   8.553
 6003POPC   C2B15524  43.030  11.519   8.253
 6003POPC   C3B15525  43.042  11.567   7.953
 6003POPC   C4B15526  43.022  11.549   7.653
 6004POPC   NC315527  10.537   8.169   9.453
 6004POPC   PO415528  10.526   8.164   9.153
 6004POPC   GL115529  10.570   8.180   8.853
 6004POPC   GL215530  10.485   8.073   8.853
 6004POPC   C1A15531  10.491   8.161   8.553
 6004POPC   D2A15532  10.477   8.226   8.253
 6004POPC   C3A15533  10.478   8.220   7.953
 6004POPC   C4A15534  10.553   8.157   7.653
 6004POPC   C1B15535  10.462   7.909   8.553
 6004POPC   C2B15536  10.473   7.925   8.253
 6004POPC   C3B15537  10.445   7.925   7.953
 6004POPC   C4B15538  10.436   7.932   7.653
 6005POPC   NC315539  20.596  22.968   9.453
 6005POPC   PO415540  20.606  22.924   9.153
 6005POPC   GL115541  20.655  22.905   8.853
 6005POPC   GL215542  20.755  22.854   8.853
 6005POPC   C1A15543  20.584  22.904   8.553
 6005POPC   D2A15544  20.618  22.923   8.253
 6005POPC   C3A15545  20.574  22.935   7.953
 6005POPC   C4A15546  20.610  22.959   7.653
 6005POPC   C1B15547  20.840  22.772   8.553
 6005POPC   C2B15548  20.794  22.767   8.253
 6005POPC   C3B15549  20.794  22.764   7.953
 6005POPC   C4B15550  20.866  22.811   7.653
 6006POPC   NC315551   3.499   4.292   9.453
 6006POPC   PO415552   3.507   4.313   9.153
 6006POPC   GL115553   3.495   4.363   8.853
 6006POPC   GL215554   3.513   4.460   8.853
 6006POPC   C1A15555   3.584   4.274   8.553
 6006POPC   D2A15556   3.555   4.353   8.253
 6006POPC   C3A15557   3.557   4.274   7.953
 6006POPC   C4A15558   3.534   4.324   7.653
 6006POPC   C1B15559   3.404   4.586   8.553
 6006POPC   C2B15560   3.465   4.530   8.253
 6006POPC   C3B15561   3.400   4.567   7.953
 6006POPC   C4B15562   3.475   4.506   7.653
 6007POPC   NC315563  20.643  26.011   9.453
 6007POPC   PO415564  20.608  26.016   9.153
 6007POPC   GL115565  20.591  26.004   8.853
 6007POPC   GL215566  20.653  26.110   8.853
 6007POPC   C1A15567  20.579  26.075   8.553
 6007POPC   D2A15568  20.626  26.013   8.253
 6007POPC   C3A15569  20.650  26.016   7.953
 6007POPC   C4A15570  20.613  26.035   7.653
 6007POPC   C1B15571  20.680  26.225   8.553
 6007POPC   C2B15572  20.705  26.269   8.253
 6007POPC   C3B15573  20.673  26.254   7.953
 6007POPC   C4B15574  20.658  26.303   7.653
 6008POPC   NC315575  41.519  26.832   9.453
 6008POPC   PO415576  41.586  26.828   9.153
 6008POPC   GL115577  41.560  26.834   8.853
 6008POPC   GL215578  41.463  26.880   8.853
 6008POPC   C1A15579  41.594  26.769   8.553
 6008POPC   D2A15580  41.556  26.825   8.253
 6008POPC   C3A15581  41.606  26.823   7.953
 6008POPC   C4A15582  41.581  26.799   7.653
 6008POPC   C1B15583  41.344  26.910   8.553
 6008POPC   C2B15584  41.277  26.883   8.253
 6008POPC   C3B15585  41.278  26.845   7.953
 6008POPC   C4B15586  41.319  26.931   7.653
 6009POPC   NC315587  22.131  44.618   9.453
 6009POPC   PO415588  22.145  44.698   9.153
 6009POPC   GL115589  22.154  44.639   8.853
 6009POPC   GL215590  22.220  44.784   8.853
 6009POPC   C1A15591  22.168  44.623   8.553
 6009POPC   D2A15592  22.209  44.699   8.253
 6009POPC   C3A15593  22.164  44.680   7.953
 6009POPC   C4A15594  22.114  44.619   7.653
 6009POPC   C1B15595  22.183  44.866   8.553
 6009POPC   C2B15596  22.167  44.926   8.253
 6009POPC   C3B15597  22.200  44.880   7.953
 6009POPC   C4B15598  22.132  44.956   7.653
 6010POPC   NC315599  36.094   0.388   9.453
 6010POPC   PO415600  36.123   0.410   9.153
 6010POPC   GL115601  36.087   0.459   8.853
 6010POPC   GL215602  36.160   0.368   8.853
 6010POPC   C1A15603  36.104   0.476   8.553
 6010POPC   D2A15604  36.111   0.450   8.253
 6010POPC   C3A15605  36.165   0.432   7.953
 6010POPC   C4A15606  36.105   0.481   7.653
 6010POPC   C1B15607  36.235   0.227   8.553
 6010POPC   C2B15608  36.212   0.241   8.253
 6010POPC   C3B15609  36.186   0.262   7.953
 6010POPC   C4B15610  36.260   0.211   7.653
 6011POPC   NC315611  34.558   9.737   9.453
 6011POPC   PO415612  34.556   9.754   9.153
 6011POPC   GL115613  34.618   9.764   8.853
 6011POPC   GL215614  34.538   9.627   8.853
 6011POPC   C1A15615  34.623   9.701   8.553
 6011POPC   D2A15616  34.612   9.768   8.253
 6011POPC   C3A15617  34.555   9.712   7.953
 6011POPC   C4A15618  34.552   9.778   7.653
 6011POPC   C1B15619  34.371   9.534   8.553
 6011POPC   C2B15620  34.380   9.538   8.253
 6011POPC   C3B15621  34.415   9.587   7.953
 6011POPC   C4B15622  34.442   9.562   7.653
 6012POPC   NC315623  24.490  39.980   9.453
 6012POPC   PO415624  24.449  39.993   9.153
 6012POPC   GL115625  24.539  39.970   8.853
 6012POPC   GL215626  24.345  40.015   8.853
 6012POPC   C1A15627  24.461  40.024   8.553
 6012POPC   D2A15628  24.482  39.962   8.253
 6012POPC   C3A15629  24.515  39.978   7.953
 6012POPC   C4A15630  24.465  39.997   7.653
 6012POPC   C1B15631  24.241  39.982   8.553
 6012POPC   C2B15632  24.281  39.951   8.253
 6012POPC   C3B15633  24.278  39.926   7.953
 6012POPC   C4B15634  24.219  39.986   7.653
 6013POPC   NC315635  10.529  30.692   9.453
 6013POPC   PO415636  10.559  30.695   9.153
 6013POPC   GL115637  10.544  30.715   8.853
 6013POPC   GL215638  10.617  30.694   8.853
 6013POPC   C1A15639  10.531  30.672   8.553
 6013POPC   D2A15640  10.536  30.667   8.253
 6013POPC   C3A15641  10.498  30.684   7.953
 6013POPC   C4A15642  10.534  30.681   7.653
 6013POPC   C1B15643  10.769  30.612   8.553
 6013POPC   C2B15644  10.754  30.652   8.253
 6013POPC   C3B15645  10.801  30.614   7.953
 6013POPC   C4B15646  10.718  30.642   7.653
 6014POPC   NC315647  28.378  37.663   9.453
 6014POPC   PO415648  28.416  37.653   9.153
 6014POPC   GL115649  28.380  37.701   8.853
 6014POPC   GL215650  28.273  37.788   8.853
 6014POPC   C1A15651  28.343  37.726   8.553
 6014POPC   D2A15652  28.373  37.646   8.253
 6014POPC   C3A15653  28.351  37.708   7.953
 6014POPC   C4A15654  28.367  37.717   7.653
 6014POPC   C1B15655  28.253  37.885   8.553
 6014POPC   C2B15656  28.246  37.923   8.253
 6014POPC   C3B15657  28.281  37.866   7.953
 6014POPC   C4B15658  28.244  37.948   7.653
 6015POPC   NC315659  11.299   7.425   9.453
 6015POPC   PO415660  11.265   7.372   9.153
 6015POPC   GL115661  11.270   7.467   8.853
 6015POPC   GL215662  11.387   7.451   8.853
 6015POPC   C1A15663  11.311   7.425   8.553
 6015POPC   D2A15664  11.265   7.378   8.253
 6015POPC   C3A15665  11.344   7.395   7.953
 6015POPC   C4A15666  11.270   7.427   7.653
 6015POPC   C1B15667  11.457   7.530   8.553
 6015POPC   C2B15668  11.538   7.583   8.253
 6015POPC   C3B15669  11.538   7.532   7.953
 6015POPC   C4B15670  11.470   7.585   7.653
 6016POPC   NC315671  13.618  37.714   9.453
 6016POPC   PO415672  13.613  37.646   9.153
 6016POPC   GL115673  13.632  37.695   8.853
 6016POPC   GL215674  13.582  37.594   8.853
 6016POPC   C1A15675  13.607  37.700   8.553
 6016POPC   D2A15676  13.677  37.723   8.253
 6016POPC   C3A15677  13.589  37.699   7.953
 6016POPC   C4A15678  13.649  37.681   7.653
 6016POPC   C1B15679  13.563  37.404   8.553
 6016POPC   C2B15680  13.553  37.449   8.253
 6016POPC   C3B15681  13.621  37.474   7.953
 6016POPC   C4B15682  13.573  37.412   7.653
 6017POPC   NC315683  29.891   3.492   9.453
 6017POPC   PO415684  29.889   3.581   9.153
 6017POPC   GL115685  29.952   3.506   8.853
 6017POPC   GL215686  30.057   3.577   8.853
 6017POPC   C1A15687  29.891   3.585   8.553
 6017POPC   D2A15688  29.894   3.553   8.253
 6017POPC   C3A15689  29.965   3.570   7.953
 6017POPC   C4A15690  29.950   3.544   7.653
 6017POPC   C1B15691  30.075   3.688   8.553
 6017POPC   C2B15692  30.127   3.709   8.253
 6017POPC   C3B15693  30.092   3.659   7.953
 6017POPC   C4B15694  30.111   3.684   7.653
 6018POPC   NC315695  44.645  41.607   9.453
 6018POPC   PO415696  44.658  41.531   9.153
 6018POPC   GL115697  44.704  41.526   8.853
 6018POPC   GL215698  44.513  41.591   8.853
 6018POPC   C1A15699  44.706  41.601   8.553
 6018POPC   D2A15700  44.652  41.579   8.253
 6018POPC   C3A15701  44.699  41.599   7.953
 6018POPC   C4A15702  44.686  41.524   7.653
 6018POPC   C1B15703  44.449  41.565   8.553
 6018POPC   C2B15704  44.392  41.639   8.253
 6018POPC   C3B15705  44.391  41.576   7.953
 6018POPC   C4B15706  44.454  41.617   7.653
 6019POPC   NC315707   9.716  27.615   9.453
 6019POPC   PO415708   9.732  27.589   9.153
 6019POPC   GL115709   9.699  27.577   8.853
 6019POPC   GL215710   9.803  27.512   8.853
 6019POPC   C1A15711   9.757  27.592   8.553
 6019POPC   D2A15712   9.710  27.576   8.253
 6019POPC   C3A15713   9.742  27.561   7.953
 6019POPC   C4A15714   9.713  27.626   7.653
 6019POPC   C1B15715   9.784  27.357   8.553
 6019POPC   C2B15716   9.800  27.311   8.253
 6019POPC   C3B15717   9.757  27.399   7.953
 6019POPC   C4B15718   9.857  27.331   7.653
 6020POPC   NC315719  23.716   8.153   9.453
 6020POPC   PO415720  23.666   8.196   9.153
 6020POPC   GL115721  23.703   8.180   8.853
 6020POPC   GL215722  23.803   8.254   8.853
 6020POPC   C1A15723  23.751   8.199   8.553
 6020POPC   D2A15724  23.763   8.226   8.253
 6020POPC   C3A15725  23.705   8.212   7.953
 6020POPC   C4A15726  23.757   8.209   7.653
 6020POPC   C1B15727  23.921   8.267   8.553
 6020POPC   C2B15728  23.911   8.234   8.253
 6020POPC   C3B15729  23.918   8.258   7.953
 6020POPC   C4B15730  23.957   8.274   7.653
 6021POPC   NC315731  22.943  22.137   9.453
 6021POPC   PO415732  22.974  22.188   9.153
 6021POPC   GL115733  22.918  22.142   8.853
 6021POPC   GL215734  22.827  22.242   8.853
 6021POPC   C1A15735  22.909  22.198   8.553
 6021POPC   D2A15736  22.946  22.208   8.253
 6021POPC   C3A15737  22.942  22.127   7.953
 6021POPC   C4A15738  22.940  22.119   7.653
 6021POPC   C1B15739  22.802  22.373   8.553
 6021POPC   C2B15740  22.796  22.398   8.253
 6021POPC   C3B15741  22.767  22.352   7.953
 6021POPC   C4B15742  22.789  22.406   7.653
 6022POPC   NC315743  40.023  12.112   9.453
 6022POPC   PO415744  40.003  12.068   9.153
 6022POPC   GL115745  39.986  12.061   8.853
 6022POPC   GL215746  39.923  12.002   8.853
 6022POPC   C1A15747  40.047  12.080   8.553
 6022POPC   D2A15748  40.029  12.062   8.253
 6022POPC   C3A15749  40.050  12.048   7.953
 6022POPC   C4A15750  40.038  12.106   7.653
 6022POPC   C1B15751  39.819  11.855   8.553
 6022POPC   C2B15752  39.883  11.860   8.253
 6022POPC   C3B15753  39.844  11.889   7.953
 6022POPC   C4B15754  39.850  11.874   7.653
 6023POPC   NC315755  36.120  33.754   9.453
 6023POPC   PO415756  36.089  33.778   9.153
 6023POPC   GL115757  36.176  33.808   8.853
 6023POPC   GL215758  36.208  33.784   8.853
 6023POPC   C1A15759  36.153  33.808   8.553
 6023POPC   D2A15760  36.146  33.751   8.253
 6023POPC   C3A15761  36.149  33.825   7.953
 6023POPC   C4A15762  36.093  33.810   7.653
 6023POPC   C1B15763  36.341  33.733   8.553
 6023POPC   C2B15764  36.359  33.765   8.253
 6023POPC   C3B15765  36.337  33.814   7.953
 6023POPC   C4B15766  36.411  33.746   7.653
 6024POPC   NC315767  27.579   3.548   9.453
 6024POPC   PO415768  27.579   3.551   9.153
 6024POPC   GL115769  27.582   3.580   8.853
 6024POPC   GL215770  27.738   3.642   8.853
 6024POPC   C1A15771  27.581   3.549   8.553
 6024POPC   D2A15772  27.625   3.550   8.253
 6024POPC   C3A15773  27.599   3.505   7.953
 6024POPC   C4A15774  27.611   3.514   7.653
 6024POPC   C1B15775  27.773   3.678   8.553
 6024POPC   C2B15776  27.847   3.638   8.253
 6024POPC   C3B15777  27.782   3.635   7.953
 6024POPC   C4B15778  27.866   3.699   7.653
 6025POPC   NC315779  26.035  12.865   9.453
 6025POPC   PO415780  26.091  12.868   9.153
 6025POPC   GL115781  26.063  12.898   8.853
 6025POPC   GL215782  26.087  12.957   8.853
 6025POPC   C1A15783  26.068  12.859   8.553
 6025POPC   D2A15784  26.015  12.843   8.253
 6025POPC   C3A15785  26.042  12.821   7.953
 6025POPC   C4A15786  26.065  12.808   7.653
 6025POPC   C1B15787  26.162  13.104   8.553
 6025POPC   C2B15788  26.113  13.093   8.253
 6025POPC   C3B15789  26.135  13.046   7.953
 6025POPC   C4B15790  26.140  13.078   7.653
 6026POPC   NC315791  15.943   7.444   9.453
 6026POPC   PO415792  15.968   7.411   9.153
 6026POPC   GL115793  15.968   7.437   8.853
 6026POPC   GL215794  15.984   7.346   8.853
 6026POPC   C1A15795  15.938   7.413   8.553
 6026POPC   D2A15796  15.956   7.462   8.253
 6026POPC   C3A15797  15.988   7.413   7.953
 6026POPC   C4A15798  15.949   7.415   7.653
 6026POPC   C1B15799  16.017   7.197   8.553
 6026POPC   C2B15800  16.012   7.190   8.253
 6026POPC   C3B15801  16.001   7.219   7.953
 6026POPC   C4B15802  15.969   7.179   7.653
 6027POPC   NC315803  29.902  10.509   9.453
 6027POPC   PO415804  29.933  10.548   9.153
 6027POPC   GL115805  29.967  10.499   8.853
 6027POPC   GL215806  29.822  10.429   8.853
 6027POPC   C1A15807  29.909  10.539   8.553
 6027POPC   D2A15808  29.942  10.527   8.253
 6027POPC   C3A15809  29.887  10.523   7.953
 6027POPC   C4A15810  29.967  10.528   7.653
 6027POPC   C1B15811  29.734  10.375   8.553
 6027POPC   C2B15812  29.739  10.356   8.253
 6027POPC   C3B15813  29.765  10.344   7.953
 6027POPC   C4B15814  29.741  10.344   7.653
 6028POPC   NC315815  25.997   9.772   9.453
 6028POPC   PO415816  26.058   9.748   9.153
 6028POPC   GL115817  26.086   9.794   8.853
 6028POPC   GL215818  26.116   9.858   8.853
 6028POPC   C1A15819  26.090   9.765   8.553
 6028POPC   D2A15820  26.024   9.748   8.253
 6028POPC   C3A15821  26.081   9.733   7.953
 6028POPC   C4A15822  26.068   9.741   7.653
 6028POPC   C1B15823  26.155   9.938   8.553
 6028POPC   C2B15824  26.135   9.988   8.253
 6028POPC   C3B15825  26.145   9.962   7.953
 6028POPC   C4B15826  26.181   9.943   7.653
 6029POPC   NC315827  23.703  22.118   9.453
 6029POPC   PO415828  23.739  22.176   9.153
 6029POPC   GL115829  23.752  22.114   8.853
 6029POPC   GL215830  23.607  22.272   8.853
 6029POPC   C1A15831  23.737  22.179   8.553
 6029POPC   D2A15832  23.689  22.205   8.253
 6029POPC   C3A15833  23.726  22.166   7.953
 6029POPC   C4A15834  23.670  22.196   7.653
 6029POPC   C1B15835  23.561  22.303   8.553
 6029POPC   C2B15836  23.501  22.359   8.253
 6029POPC   C3B15837  23.530  22.297   7.953
 6029POPC   C4B15838  23.485  22.329   7.653
 6030POPC   NC315839  38.423  11.350   9.453
 6030POPC   PO415840  38.423  11.340   9.153
 6030POPC   GL115841  38.436  11.268   8.853
 6030POPC   GL215842  38.360  11.177   8.853
 6030POPC   C1A15843  38.433  11.293   8.553
 6030POPC   D2A15844  38.422  11.340   8.253
 6030POPC   C3A15845  38.476  11.332   7.953
 6030POPC   C4A15846  38.483  11.258   7.653
 6030POPC   C1B15847  38.344  11.086   8.553
 6030POPC   C2B15848  38.378  11.029   8.253
 6030POPC   C3B15849  38.340  11.026   7.953
 6030POPC   C4B15850  38.326  11.037   7.653
 6031POPC   NC315851  16.748  24.454   9.453
 6031POPC   PO415852  16.768  24.505   9.153
 6031POPC   GL115853  16.776  24.499   8.853
 6031POPC   GL215854  16.645  24.489   8.853
 6031POPC   C1A15855  16.683  24.452   8.553
 6031POPC   D2A15856  16.696  24.521   8.253
 6031POPC   C3A15857  16.733  24.450   7.953
 6031POPC   C4A15858  16.745  24.536   7.653
 6031POPC   C1B15859  16.443  24.512   8.553
 6031POPC   C2B15860  16.487  24.588   8.253
 6031POPC   C3B15861  16.507  24.492   7.953
 6031POPC   C4B15862  16.519  24.536   7.653
 6032POPC   NC315863   4.348  41.565   9.453
 6032POPC   PO415864   4.349  41.554   9.153
 6032POPC   GL115865   4.305  41.514   8.853
 6032POPC   GL215866   4.372  41.482   8.853
 6032POPC   C1A15867   4.326  41.579   8.553
 6032POPC   D2A15868   4.350  41.597   8.253
 6032POPC   C3A15869   4.364  41.555   7.953
 6032POPC   C4A15870   4.325  41.597   7.653
 6032POPC   C1B15871   4.303  41.307   8.553
 6032POPC   C2B15872   4.316  41.270   8.253
 6032POPC   C3B15873   4.319  41.315   7.953
 6032POPC   C4B15874   4.360  41.283   7.653
 6033POPC   NC315875  41.515  22.907   9.453
 6033POPC   PO415876  41.532  22.933   9.153
 6033POPC   GL115877  41.532  22.894   8.853
 6033POPC   GL215878  41.511  23.099   8.853
 6033POPC   C1A15879  41.575  22.962   8.553
 6033POPC   D2A15880  41.543  22.907   8.253
 6033POPC   C3A15881  41.556  22.913   7.953
 6033POPC   C4A15882  41.557  22.983   7.653
 6033POPC   C1B15883  41.538  23.210   8.553
 6033POPC   C2B15884  41.500  23.173   8.253
 6033POPC   C3B15885  41.557  23.191   7.953
 6033POPC   C4B15886  41.587  23.169   7.653
 6034POPC   NC315887  21.360  18.318   9.453
 6034POPC   PO415888  21.405  18.274   9.153
 6034POPC   GL115889  21.426  18.301   8.853
 6034POPC   GL215890  21.401  18.393   8.853
 6034POPC   C1A15891  21.359  18.233   8.553
 6034POPC   D2A15892  21.341  18.236   8.253
 6034POPC   C3A15893  21.422  18.275   7.953
 6034POPC   C4A15894  21.399  18.299   7.653
 6034POPC   C1B15895  21.413  18.569   8.553
 6034POPC   C2B15896  21.411  18.503   8.253
 6034POPC   C3B15897  21.415  18.489   7.953
 6034POPC   C4B15898  21.408  18.569   7.653
 6035POPC   NC315899  21.368  20.623   9.453
 6035POPC   PO415900  21.413  20.638   9.153
 6035POPC   GL115901  21.415  20.614   8.853
 6035POPC   GL215902  21.298  20.630   8.853
 6035POPC   C1A15903  21.430  20.562   8.553
 6035POPC   D2A15904  21.430  20.650   8.253
 6035POPC   C3A15905  21.392  20.572   7.953
 6035POPC   C4A15906  21.366  20.632   7.653
 6035POPC   C1B15907  21.201  20.765   8.553
 6035POPC   C2B15908  21.130  20.769   8.253
 6035POPC   C3B15909  21.176  20.778   7.953
 6035POPC   C4B15910  21.176  20.732   7.653
 6036POPC   NC315911  12.811  21.396   9.453
 6036POPC   PO415912  12.869  21.354   9.153
 6036POPC   GL115913  12.824  21.352   8.853
 6036POPC   GL215914  12.884  21.279   8.853
 6036POPC   C1A15915  12.810  21.387   8.553
 6036POPC   D2A15916  12.891  21.417   8.253
 6036POPC   C3A15917  12.807  21.435   7.953
 6036POPC   C4A15918  12.899  21.359   7.653
 6036POPC   C1B15919  12.929  21.139   8.553
 6036POPC   C2B15920  12.936  21.138   8.253
 6036POPC   C3B15921  12.910  21.169   7.953
 6036POPC   C4B15922  12.973  21.154   7.653
 6037POPC   NC315923  39.239  43.145   9.453
 6037POPC   PO415924  39.231  43.150   9.153
 6037POPC   GL115925  39.184  43.065   8.853
 6037POPC   GL215926  39.096  43.111   8.853
 6037POPC   C1A15927  39.200  43.155   8.553
 6037POPC   D2A15928  39.249  43.096   8.253
 6037POPC   C3A15929  39.213  43.072   7.953
 6037POPC   C4A15930  39.228  43.114   7.653
 6037POPC   C1B15931  39.038  43.067   8.553
 6037POPC   C2B15932  39.021  43.028   8.253
 6037POPC   C3B15933  38.950  43.030   7.953
 6037POPC   C4B15934  39.023  43.016   7.653
 6038POPC   NC315935  39.237  43.913   9.453
 6038POPC   PO415936  39.261  43.894   9.153
 6038POPC   GL115937  39.277  43.845   8.853
 6038POPC   GL215938  39.163  43.774   8.853
 6038POPC   C1A15939  39.209  43.840   8.553
 6038POPC   D2A15940  39.187  43.905   8.253
 6038POPC   C3A15941  39.279  43.908   7.953
 6038POPC   C4A15942  39.269  43.890   7.653
 6038POPC   C1B15943  39.063  43.753   8.553
 6038POPC   C2B15944  39.071  43.718   8.253
 6038POPC   C3B15945  39.029  43.715   7.953
 6038POPC   C4B15946  39.046  43.665   7.653
 6039POPC   NC315947  25.233  21.355   9.453
 6039POPC   PO415948  25.275  21.418   9.153
 6039POPC   GL115949  25.264  21.431   8.853
 6039POPC   GL215950  25.405  21.365   8.853
 6039POPC   C1A15951  25.288  21.434   8.553
 6039POPC   D2A15952  25.304  21.379   8.253
 6039POPC   C3A15953  25.218  21.429   7.953
 6039POPC   C4A15954  25.284  21.421   7.653
 6039POPC   C1B15955  25.469  21.362   8.553
 6039POPC   C2B15956  25.499  21.379   8.253
 6039POPC   C3B15957  25.501  21.423   7.953
 6039POPC   C4B15958  25.501  21.384   7.653
 6040POPC   NC315959  40.814  29.942   9.453
 6040POPC   PO415960  40.781  29.958   9.153
 6040POPC   GL115961  40.786  29.883   8.853
 6040POPC   GL215962  40.759  30.079   8.853
 6040POPC   C1A15963  40.799  29.967   8.553
 6040POPC   D2A15964  40.802  29.930   8.253
 6040POPC   C3A15965  40.794  29.914   7.953
 6040POPC   C4A15966  40.796  29.907   7.653
 6040POPC   C1B15967  40.829  30.205   8.553
 6040POPC   C2B15968  40.798  30.204   8.253
 6040POPC   C3B15969  40.782  30.142   7.953
 6040POPC   C4B15970  40.786  30.173   7.653
 6041POPC   NC315971   3.514  42.287   9.453
 6041POPC   PO415972   3.538  42.302   9.153
 6041POPC   GL115973   3.556  42.358   8.853
 6041POPC   GL215974   3.613  42.398   8.853
 6041POPC   C1A15975   3.561  42.320   8.553
 6041POPC   D2A15976   3.500  42.374   8.253
 6041POPC   C3A15977   3.578  42.381   7.953
 6041POPC   C4A15978   3.522  42.301   7.653
 6041POPC   C1B15979   3.740  42.486   8.553
 6041POPC   C2B15980   3.742  42.512   8.253
 6041POPC   C3B15981   3.683  42.478   7.953
 6041POPC   C4B15982   3.775  42.499   7.653
 6042POPC   NC315983  12.122   4.349   9.453
 6042POPC   PO415984  12.068   4.352   9.153
 6042POPC   GL115985  12.112   4.320   8.853
 6042POPC   GL215986  12.141   4.186   8.853
 6042POPC   C1A15987  12.043   4.335   8.553
 6042POPC   D2A15988  12.090   4.324   8.253
 6042POPC   C3A15989  12.077   4.282   7.953
 6042POPC   C4A15990  12.076   4.325   7.653
 6042POPC   C1B15991  12.099   4.080   8.553
 6042POPC   C2B15992  12.154   4.094   8.253
 6042POPC   C3B15993  12.118   4.119   7.953
 6042POPC   C4B15994  12.095   4.101   7.653
 6043POPC   NC315995  10.538  18.257   9.453
 6043POPC   PO415996  10.491  18.298   9.153
 6043POPC   GL115997  10.555  18.272   8.853
 6043POPC   GL215998  10.590  18.393   8.853
 6043POPC   C1A15999  10.526  18.233   8.553
 6043POPC   D2A16000  10.565  18.271   8.253
 6043POPC   C3A16001  10.494  18.270   7.953
 6043POPC   C4A16002  10.532  18.299   7.653
 6043POPC   C1B16003  10.534  18.548   8.553
 6043POPC   C2B16004  10.556  18.494   8.253
 6043POPC   C3B16005  10.555  18.520   7.953
 6043POPC   C4B16006  10.579  18.480   7.653
 6044POPC   NC316007   1.940   5.836   9.453
 6044POPC   PO416008   1.978   5.874   9.153
 6044POPC   GL116009   2.012   5.912   8.853
 6044POPC   GL216010   1.854   5.748   8.853
 6044POPC   C1A16011   2.027   5.903   8.553
 6044POPC   D2A16012   2.025   5.868   8.253
 6044POPC   C3A16013   2.037   5.851   7.953
 6044POPC   C4A16014   2.001   5.836   7.653
 6044POPC   C1B16015   1.823   5.695   8.553
 6044POPC   C2B16016   1.828   5.673   8.253
 6044POPC   C3B16017   1.811   5.728   7.953
 6044POPC   C4B16018   1.834   5.736   7.653
 6045POPC   NC316019  39.246   1.944   9.453
 6045POPC   PO416020  39.236   2.037   9.153
 6045POPC   GL116021  39.194   1.988   8.853
 6045POPC   GL216022  39.344   1.879   8.853
 6045POPC   C1A16023  39.247   2.012   8.553
 6045POPC   D2A16024  39.232   2.010   8.253
 6045POPC   C3A16025  39.239   1.953   7.953
 6045POPC   C4A16026  39.276   1.965   7.653
 6045POPC   C1B16027  39.344   1.824   8.553
 6045POPC   C2B16028  39.399   1.768   8.253
 6045POPC   C3B16029  39.409   1.812   7.953
 6045POPC   C4B16030  39.392   1.788   7.653
 6046POPC   NC316031  28.336  25.283   9.453
 6046POPC   PO416032  28.395  25.269   9.153
 6046POPC   GL116033  28.366  25.279   8.853
 6046POPC   GL216034  28.289  25.397   8.853
 6046POPC   C1A16035  28.407  25.279   8.553
 6046POPC   D2A16036  28.334  25.269   8.253
 6046POPC   C3A16037  28.351  25.217   7.953
 6046POPC   C4A16038  28.412  25.273   7.653
 6046POPC   C1B16039  28.284  25.507   8.553
 6046POPC   C2B16040  28.273  25.482   8.253
 6046POPC   C3B16041  28.244  25.529   7.953
 6046POPC   C4B16042  28.246  25.528   7.653
 6047POPC   NC316043  38.451  16.696   9.453
 6047POPC   PO416044  38.447  16.726   9.153
 6047POPC   GL116045  38.484  16.746   8.853
 6047POPC   GL216046  38.598  16.818   8.853
 6047POPC   C1A16047  38.407  16.735   8.553
 6047POPC   D2A16048  38.468  16.714   8.253
 6047POPC   C3A16049  38.491  16.735   7.953
 6047POPC   C4A16050  38.436  16.769   7.653
 6047POPC   C1B16051  38.699  16.811   8.553
 6047POPC   C2B16052  38.645  16.835   8.253
 6047POPC   C3B16053  38.661  16.827   7.953
 6047POPC   C4B16054  38.650  16.835   7.653
 6048POPC   NC316055   8.178  24.451   9.453
 6048POPC   PO416056   8.227  24.525   9.153
 6048POPC   GL116057   8.155  24.465   8.853
 6048POPC   GL216058   8.206  24.566   8.853
 6048POPC   C1A16059   8.206  24.514   8.553
 6048POPC   D2A16060   8.225  24.496   8.253
 6048POPC   C3A16061   8.180  24.452   7.953
 6048POPC   C4A16062   8.222  24.525   7.653
 6048POPC   C1B16063   8.098  24.754   8.553
 6048POPC   C2B16064   8.134  24.708   8.253
 6048POPC   C3B16065   8.173  24.762   7.953
 6048POPC   C4B16066   8.143  24.696   7.653
 6049POPC   NC316067  15.201   0.419   9.453
 6049POPC   PO416068  15.183   0.480   9.153
 6049POPC   GL116069  15.190   0.482   8.853
 6049POPC   GL216070  15.164   0.285   8.853
 6049POPC   C1A16071  15.210   0.431   8.553
 6049POPC   D2A16072  15.195   0.452   8.253
 6049POPC   C3A16073  15.223   0.434   7.953
 6049POPC   C4A16074  15.166   0.436   7.653
 6049POPC   C1B16075  15.167   0.208   8.553
 6049POPC   C2B16076  15.222   0.147   8.253
 6049POPC   C3B16077  15.188   0.214   7.953
 6049POPC   C4B16078  15.154   0.207   7.653
 6050POPC   NC316079  25.314  41.571   9.453
 6050POPC   PO416080  25.217  41.537   9.153
 6050POPC   GL116081  25.267  41.533   8.853
 6050POPC   GL216082  25.172  41.502   8.853
 6050POPC   C1A16083  25.237  41.572   8.553
 6050POPC   D2A16084  25.241  41.607   8.253
 6050POPC   C3A16085  25.268  41.542   7.953
 6050POPC   C4A16086  25.247  41.569   7.653
 6050POPC   C1B16087  25.053  41.460   8.553
 6050POPC   C2B16088  25.047  41.451   8.253
 6050POPC   C3B16089  25.046  41.444   7.953
 6050POPC   C4B16090  25.051  41.413   7.653
 6051POPC   NC316091  33.033   0.415   9.453
 6051POPC   PO416092  32.979   0.429   9.153
 6051POPC   GL116093  33.011   0.420   8.853
 6051POPC   GL216094  32.977   0.362   8.853
 6051POPC   C1A16095  32.982   0.415   8.553
 6051POPC   D2A16096  32.993   0.465   8.253
 6051POPC   C3A16097  32.976   0.463   7.953
 6051POPC   C4A16098  33.068   0.420   7.653
 6051POPC   C1B16099  32.910   0.248   8.553
 6051POPC   C2B16100  32.897   0.249   8.253
 6051POPC   C3B16101  32.898   0.283   7.953
 6051POPC   C4B16102  32.917   0.263   7.653
 6052POPC   NC316103  31.465   8.974   9.453
 6052POPC   PO416104  31.483   8.927   9.153
 6052POPC   GL116105  31.449   8.933   8.853
 6052POPC   GL216106  31.521   8.863   8.853
 6052POPC   C1A16107  31.466   8.974   8.553
 6052POPC   D2A16108  31.452   9.003   8.253
 6052POPC   C3A16109  31.486   8.993   7.953
 6052POPC   C4A16110  31.499   8.944   7.653
 6052POPC   C1B16111  31.531   8.724   8.553
 6052POPC   C2B16112  31.491   8.772   8.253
 6052POPC   C3B16113  31.520   8.752   7.953
 6052POPC   C4B16114  31.505   8.708   7.653
 6053POPC   NC316115  43.912  26.081   9.453
 6053POPC   PO416116  43.893  26.088   9.153
 6053POPC   GL116117  43.865  26.014   8.853
 6053POPC   GL216118  43.940  25.964   8.853
 6053POPC   C1A16119  43.892  26.000   8.553
 6053POPC   D2A16120  43.926  26.007   8.253
 6053POPC   C3A16121  43.840  26.064   7.953
 6053POPC   C4A16122  43.923  26.050   7.653
 6053POPC   C1B16123  44.089  25.903   8.553
 6053POPC   C2B16124  44.088  25.891   8.253
 6053POPC   C3B16125  44.064  25.892   7.953
 6053POPC   C4B16126  44.054  25.882   7.653
 6054POPC   NC316127   3.534  44.646   9.453
 6054POPC   PO416128   3.541  44.624   9.153
 6054POPC   GL116129   3.552  44.682   8.853
 6054POPC   GL216130   3.603  44.767   8.853
 6054POPC   C1A16131   3.493  44.693   8.553
 6054POPC   D2A16132   3.533  44.634   8.253
 6054POPC   C3A16133   3.581  44.617   7.953
 6054POPC   C4A16134   3.552  44.637   7.653
 6054POPC   C1B16135   3.566  44.900   8.553
 6054POPC   C2B16136   3.543  44.929   8.253
 6054POPC   C3B16137   3.571  44.871   7.953
 6054POPC   C4B16138   3.562  44.873   7.653
 6055POPC   NC316139  23.679  11.313   9.453
 6055POPC   PO416140  23.755  11.306   9.153
 6055POPC   GL116141  23.681  11.314   8.853
 6055POPC   GL216142  23.775  11.328   8.853
 6055POPC   C1A16143  23.745  11.315   8.553
 6055POPC   D2A16144  23.748  11.316   8.253
 6055POPC   C3A16145  23.756  11.277   7.953
 6055POPC   C4A16146  23.755  11.273   7.653
 6055POPC   C1B16147  23.889  11.411   8.553
 6055POPC   C2B16148  23.911  11.389   8.253
 6055POPC   C3B16149  23.896  11.384   7.953
 6055POPC   C4B16150  23.965  11.461   7.653
 6056POPC   NC316151  24.487  32.284   9.453
 6056POPC   PO416152  24.452  32.215   9.153
 6056POPC   GL116153  24.463  32.203   8.853
 6056POPC   GL216154  24.438  32.338   8.853
 6056POPC   C1A16155  24.507  32.292   8.553
 6056POPC   D2A16156  24.453  32.236   8.253
 6056POPC   C3A16157  24.509  32.271   7.953
 6056POPC   C4A16158  24.491  32.203   7.653
 6056POPC   C1B16159  24.430  32.474   8.553
 6056POPC   C2B16160  24.388  32.487   8.253
 6056POPC   C3B16161  24.381  32.455   7.953
 6056POPC   C4B16162  24.362  32.476   7.653
 6057POPC   NC316163  40.799  43.926   9.453
 6057POPC   PO416164  40.832  43.897   9.153
 6057POPC   GL116165  40.736  43.910   8.853
 6057POPC   GL216166  40.886  43.910   8.853
 6057POPC   C1A16167  40.795  43.886   8.553
 6057POPC   D2A16168  40.826  43.902   8.253
 6057POPC   C3A16169  40.764  43.915   7.953
 6057POPC   C4A16170  40.826  43.842   7.653
 6057POPC   C1B16171  41.076  43.920   8.553
 6057POPC   C2B16172  41.021  43.852   8.253
 6057POPC   C3B16173  41.067  43.872   7.953
 6057POPC   C4B16174  41.061  43.875   7.653
 6058POPC   NC316175  12.828  38.422   9.453
 6058POPC   PO416176  12.876  38.459   9.153
 6058POPC   GL116177  12.872  38.501   8.853
 6058POPC   GL216178  12.767  38.440   8.853
 6058POPC   C1A16179  12.896  38.455   8.553
 6058POPC   D2A16180  12.898  38.422   8.253
 6058POPC   C3A16181  12.868  38.414   7.953
 6058POPC   C4A16182  12.814  38.464   7.653
 6058POPC   C1B16183  12.656  38.353   8.553
 6058POPC   C2B16184  12.623  38.319   8.253
 6058POPC   C3B16185  12.635  38.288   7.953
 6058POPC   C4B16186  12.610  38.362   7.653
 6059POPC   NC316187   4.367  12.067   9.453
 6059POPC   PO416188   4.352  12.111   9.153
 6059POPC   GL116189   4.342  12.080   8.853
 6059POPC   GL216190   4.182  12.067   8.853
 6059POPC   C1A16191   4.365  12.069   8.553
 6059POPC   D2A16192   4.275  12.057   8.253
 6059POPC   C3A16193   4.342  12.050   7.953
 6059POPC   C4A16194   4.332  12.073   7.653
 6059POPC   C1B16195   4.050  12.018   8.553
 6059POPC   C2B16196   4.042  12.021   8.253
 6059POPC   C3B16197   4.076  12.112   7.953
 6059POPC   C4B16198   4.097  12.021   7.653
 6060POPC   NC316199  38.433  23.713   9.453
 6060POPC   PO416200  38.439  23.681   9.153
 6060POPC   GL116201  38.409  23.698   8.853
 6060POPC   GL216202  38.583  23.750   8.853
 6060POPC   C1A16203  38.447  23.690   8.553
 6060POPC   D2A16204  38.496  23.729   8.253
 6060POPC   C3A16205  38.484  23.688   7.953
 6060POPC   C4A16206  38.452  23.741   7.653
 6060POPC   C1B16207  38.622  23.868   8.553
 6060POPC   C2B16208  38.682  23.837   8.253
 6060POPC   C3B16209  38.601  23.837   7.953
 6060POPC   C4B16210  38.625  23.851   7.653
 6061POPC   NC316211  41.563  35.370   9.453
 6061POPC   PO416212  41.553  35.368   9.153
 6061POPC   GL116213  41.579  35.348   8.853
 6061POPC   GL216214  41.459  35.409   8.853
 6061POPC   C1A16215  41.545  35.398   8.553
 6061POPC   D2A16216  41.603  35.392   8.253
 6061POPC   C3A16217  41.558  35.326   7.953
 6061POPC   C4A16218  41.552  35.350   7.653
 6061POPC   C1B16219  41.340  35.415   8.553
 6061POPC   C2B16220  41.323  35.419   8.253
 6061POPC   C3B16221  41.332  35.408   7.953
 6061POPC   C4B16222  41.276  35.389   7.653
 6062POPC   NC316223  22.967  17.519   9.453
 6062POPC   PO416224  22.955  17.542   9.153
 6062POPC   GL116225  22.974  17.555   8.853
 6062POPC   GL216226  22.894  17.400   8.853
 6062POPC   C1A16227  22.944  17.477   8.553
 6062POPC   D2A16228  22.928  17.497   8.253
 6062POPC   C3A16229  22.944  17.490   7.953
 6062POPC   C4A16230  22.916  17.489   7.653
 6062POPC   C1B16231  22.832  17.255   8.553
 6062POPC   C2B16232  22.808  17.314   8.253
 6062POPC   C3B16233  22.817  17.280   7.953
 6062POPC   C4B16234  22.746  17.349   7.653
 6063POPC   NC316235  10.568  14.389   9.453
 6063POPC   PO416236  10.559  14.440   9.153
 6063POPC   GL116237  10.549  14.388   8.853
 6063POPC   GL216238  10.397  14.433   8.853
 6063POPC   C1A16239  10.569  14.453   8.553
 6063POPC   D2A16240  10.535  14.405   8.253
 6063POPC   C3A16241  10.564  14.415   7.953
 6063POPC   C4A16242  10.548  14.426   7.653
 6063POPC   C1B16243  10.346  14.534   8.553
 6063POPC   C2B16244  10.339  14.520   8.253
 6063POPC   C3B16245  10.380  14.550   7.953
 6063POPC   C4B16246  10.312  14.590   7.653
 6064POPC   NC316247   8.953  43.863   9.453
 6064POPC   PO416248   9.019  43.885   9.153
 6064POPC   GL116249   8.931  43.918   8.853
 6064POPC   GL216250   9.104  43.809   8.853
 6064POPC   C1A16251   8.996  43.902   8.553
 6064POPC   D2A16252   8.950  43.910   8.253
 6064POPC   C3A16253   8.952  43.837   7.953
 6064POPC   C4A16254   8.982  43.931   7.653
 6064POPC   C1B16255   9.156  43.821   8.553
 6064POPC   C2B16256   9.165  43.796   8.253
 6064POPC   C3B16257   9.213  43.751   7.953
 6064POPC   C4B16258   9.163  43.728   7.653
 6065POPC   NC316259  44.665  32.272   9.453
 6065POPC   PO416260  44.670  32.203   9.153
 6065POPC   GL116261  44.628  32.249   8.853
 6065POPC   GL216262  44.687  32.332   8.853
 6065POPC   C1A16263  44.616  32.243   8.553
 6065POPC   D2A16264  44.644  32.224   8.253
 6065POPC   C3A16265  44.697  32.226   7.953
 6065POPC   C4A16266  44.709  32.232   7.653
 6065POPC   C1B16267  44.716  32.482   8.553
 6065POPC   C2B16268  44.732  32.497   8.253
 6065POPC   C3B16269  44.742  32.498   7.953
 6065POPC   C4B16270  44.739  32.533   7.653
 6066POPC   NC316271  19.798  40.039   9.453
 6066POPC   PO416272  19.832  40.000   9.153
 6066POPC   GL116273  19.806  40.030   8.853
 6066POPC   GL216274  19.840  39.929   8.853
 6066POPC   C1A16275  19.842  40.042   8.553
 6066POPC   D2A16276  19.816  40.033   8.253
 6066POPC   C3A16277  19.871  40.007   7.953
 6066POPC   C4A16278  19.825  40.029   7.653
 6066POPC   C1B16279  19.851  39.747   8.553
 6066POPC   C2B16280  19.860  39.757   8.253
 6066POPC   C3B16281  19.803  39.799   7.953
 6066POPC   C4B16282  19.873  39.761   7.653
 6067POPC   NC316283  26.080  22.184   9.453
 6067POPC   PO416284  26.035  22.144   9.153
 6067POPC   GL116285  26.002  22.163   8.853
 6067POPC   GL216286  25.919  22.061   8.853
 6067POPC   C1A16287  26.034  22.113   8.553
 6067POPC   D2A16288  26.058  22.184   8.253
 6067POPC   C3A16289  26.002  22.195   7.953
 6067POPC   C4A16290  26.071  22.183   7.653
 6067POPC   C1B16291  25.815  22.050   8.553
 6067POPC   C2B16292  25.864  22.014   8.253
 6067POPC   C3B16293  25.781  22.007   7.953
 6067POPC   C4B16294  25.777  22.053   7.653
 6068POPC   NC316295  11.282  12.806   9.453
 6068POPC   PO416296  11.297  12.803   9.153
 6068POPC   GL116297  11.291  12.827   8.853
 6068POPC   GL216298  11.178  12.870   8.853
 6068POPC   C1A16299  11.271  12.833   8.553
 6068POPC   D2A16300  11.266  12.829   8.253
 6068POPC   C3A16301  11.349  12.846   7.953
 6068POPC   C4A16302  11.253  12.885   7.653
 6068POPC   C1B16303  11.112  13.015   8.553
 6068POPC   C2B16304  11.062  13.005   8.253
 6068POPC   C3B16305  11.097  13.003   7.953
 6068POPC   C4B16306  11.126  13.009   7.653
 6069POPC   NC316307   6.622  24.440   9.453
 6069POPC   PO416308   6.693  24.533   9.153
 6069POPC   GL116309   6.613  24.522   8.853
 6069POPC   GL216310   6.700  24.569   8.853
 6069POPC   C1A16311   6.600  24.454   8.553
 6069POPC   D2A16312   6.675  24.531   8.253
 6069POPC   C3A16313   6.656  24.506   7.953
 6069POPC   C4A16314   6.596  24.539   7.653
 6069POPC   C1B16315   6.677  24.767   8.553
 6069POPC   C2B16316   6.689  24.689   8.253
 6069POPC   C3B16317   6.712  24.701   7.953
 6069POPC   C4B16318   6.700  24.702   7.653
 6070POPC   NC316319  40.832  26.786   9.453
 6070POPC   PO416320  40.785  26.824   9.153
 6070POPC   GL116321  40.808  26.845   8.853
 6070POPC   GL216322  40.669  26.805   8.853
 6070POPC   C1A16323  40.740  26.810   8.553
 6070POPC   D2A16324  40.761  26.827   8.253
 6070POPC   C3A16325  40.787  26.785   7.953
 6070POPC   C4A16326  40.796  26.768   7.653
 6070POPC   C1B16327  40.537  26.840   8.553
 6070POPC   C2B16328  40.552  26.791   8.253
 6070POPC   C3B16329  40.495  26.851   7.953
 6070POPC   C4B16330  40.579  26.812   7.653
 6071POPC   NC316331  44.699  42.325   9.453
 6071POPC   PO416332  44.683  42.305   9.153
 6071POPC   GL116333  44.617  42.363   8.853
 6071POPC   GL216334  44.687  42.230   8.853
 6071POPC   C1A16335  44.681  42.360   8.553
 6071POPC   D2A16336  44.651  42.295   8.253
 6071POPC   C3A16337  44.618  42.304   7.953
 6071POPC   C4A16338  44.695  42.287   7.653
 6071POPC   C1B16339  44.663  42.078   8.553
 6071POPC   C2B16340  44.680  42.079   8.253
 6071POPC   C3B16341  44.684  42.079   7.953
 6071POPC   C4B16342  44.611  42.094   7.653
 6072POPC   NC316343  12.838  29.177   9.453
 6072POPC   PO416344  12.871  29.158   9.153
 6072POPC   GL116345  12.829  29.194   8.853
 6072POPC   GL216346  12.771  29.185   8.853
 6072POPC   C1A16347  12.875  29.146   8.553
 6072POPC   D2A16348  12.840  29.182   8.253
 6072POPC   C3A16349  12.880  29.128   7.953
 6072POPC   C4A16350  12.882  29.151   7.653
 6072POPC   C1B16351  12.631  29.273   8.553
 6072POPC   C2B16352  12.656  29.276   8.253
 6072POPC   C3B16353  12.660  29.266   7.953
 6072POPC   C4B16354  12.673  29.239   7.653
 6073POPC   NC316355  19.801  13.662   9.453
 6073POPC   PO416356  19.849  13.631   9.153
 6073POPC   GL116357  19.802  13.649   8.853
 6073POPC   GL216358  19.821  13.467   8.853
 6073POPC   C1A16359  19.875  13.668   8.553
 6073POPC   D2A16360  19.811  13.586   8.253
 6073POPC   C3A16361  19.795  13.615   7.953
 6073POPC   C4A16362  19.861  13.609   7.653
 6073POPC   C1B16363  19.779  13.370   8.553
 6073POPC   C2B16364  19.791  13.414   8.253
 6073POPC   C3B16365  19.773  13.384   7.953
 6073POPC   C4B16366  19.767  13.417   7.653
 6074POPC   NC316367  19.876  24.455   9.453
 6074POPC   PO416368  19.855  24.457   9.153
 6074POPC   GL116369  19.795  24.527   8.853
 6074POPC   GL216370  19.766  24.598   8.853
 6074POPC   C1A16371  19.804  24.502   8.553
 6074POPC   D2A16372  19.849  24.457   8.253
 6074POPC   C3A16373  19.802  24.520   7.953
 6074POPC   C4A16374  19.827  24.464   7.653
 6074POPC   C1B16375  19.712  24.675   8.553
 6074POPC   C2B16376  19.752  24.755   8.253
 6074POPC   C3B16377  19.745  24.748   7.953
 6074POPC   C4B16378  19.759  24.764   7.653
 6075POPC   NC316379  43.135  12.039   9.453
 6075POPC   PO416380  43.091  12.081   9.153
 6075POPC   GL116381  43.126  12.053   8.853
 6075POPC   GL216382  43.240  11.985   8.853
 6075POPC   C1A16383  43.151  12.038   8.553
 6075POPC   D2A16384  43.092  12.060   8.253
 6075POPC   C3A16385  43.135  12.092   7.953
 6075POPC   C4A16386  43.100  12.114   7.653
 6075POPC   C1B16387  43.296  11.953   8.553
 6075POPC   C2B16388  43.303  11.979   8.253
 6075POPC   C3B16389  43.285  11.963   7.953
 6075POPC   C4B16390  43.330  11.912   7.653
 6076POPC   NC316391  27.601  16.779   9.453
 6076POPC   PO416392  27.620  16.718   9.153
 6076POPC   GL116393  27.609  16.751   8.853
 6076POPC   GL216394  27.506  16.707   8.853
 6076POPC   C1A16395  27.555  16.689   8.553
 6076POPC   D2A16396  27.609  16.769   8.253
 6076POPC   C3A16397  27.573  16.738   7.953
 6076POPC   C4A16398  27.628  16.686   7.653
 6076POPC   C1B16399  27.410  16.672   8.553
 6076POPC   C2B16400  27.409  16.666   8.253
 6076POPC   C3B16401  27.364  16.611   7.953
 6076POPC   C4B16402  27.382  16.659   7.653
 6077POPC   NC316403   5.850  40.776   9.453
 6077POPC   PO416404   5.899  40.735   9.153
 6077POPC   GL116405   5.887  40.736   8.853
 6077POPC   GL216406   5.883  40.689   8.853
 6077POPC   C1A16407   5.857  40.804   8.553
 6077POPC   D2A16408   5.915  40.734   8.253
 6077POPC   C3A16409   5.881  40.744   7.953
 6077POPC   C4A16410   5.856  40.743   7.653
 6077POPC   C1B16411   5.886  40.489   8.553
 6077POPC   C2B16412   5.798  40.552   8.253
 6077POPC   C3B16413   5.844  40.501   7.953
 6077POPC   C4B16414   5.805  40.502   7.653
 6078POPC   NC316415  35.351  16.729   9.453
 6078POPC   PO416416  35.341  16.709   9.153
 6078POPC   GL116417  35.316  16.776   8.853
 6078POPC   GL216418  35.480  16.654   8.853
 6078POPC   C1A16419  35.337  16.743   8.553
 6078POPC   D2A16420  35.332  16.682   8.253
 6078POPC   C3A16421  35.357  16.759   7.953
 6078POPC   C4A16422  35.329  16.706   7.653
 6078POPC   C1B16423  35.575  16.603   8.553
 6078POPC   C2B16424  35.488  16.600   8.253
 6078POPC   C3B16425  35.560  16.514   7.953
 6078POPC   C4B16426  35.532  16.537   7.653
 6079POPC   NC316427  20.644   7.454   9.453
 6079POPC   PO416428  20.660   7.393   9.153
 6079POPC   GL116429  20.647   7.373   8.853
 6079POPC   GL216430  20.666   7.318   8.853
 6079POPC   C1A16431  20.562   7.462   8.553
 6079POPC   D2A16432  20.623   7.460   8.253
 6079POPC   C3A16433  20.642   7.380   7.953
 6079POPC   C4A16434  20.639   7.415   7.653
 6079POPC   C1B16435  20.644   7.123   8.553
 6079POPC   C2B16436  20.589   7.173   8.253
 6079POPC   C3B16437  20.652   7.220   7.953
 6079POPC   C4B16438  20.670   7.197   7.653
 6080POPC   NC316439   2.006  36.175   9.453
 6080POPC   PO416440   2.013  36.090   9.153
 6080POPC   GL116441   2.018  36.177   8.853
 6080POPC   GL216442   1.878  36.197   8.853
 6080POPC   C1A16443   1.948  36.136   8.553
 6080POPC   D2A16444   1.949  36.108   8.253
 6080POPC   C3A16445   1.978  36.095   7.953
 6080POPC   C4A16446   1.957  36.110   7.653
 6080POPC   C1B16447   1.758  36.267   8.553
 6080POPC   C2B16448   1.828  36.248   8.253
 6080POPC   C3B16449   1.826  36.249   7.953
 6080POPC   C4B16450   1.813  36.283   7.653
 6081POPC   NC316451  33.798  10.477   9.453
 6081POPC   PO416452  33.816  10.548   9.153
 6081POPC   GL116453  33.751  10.528   8.853
 6081POPC   GL216454  33.768  10.626   8.853
 6081POPC   C1A16455  33.847  10.543   8.553
 6081POPC   D2A16456  33.765  10.566   8.253
 6081POPC   C3A16457  33.772  10.533   7.953
 6081POPC   C4A16458  33.833  10.549   7.653
 6081POPC   C1B16459  33.656  10.786   8.553
 6081POPC   C2B16460  33.649  10.766   8.253
 6081POPC   C3B16461  33.744  10.739   7.953
 6081POPC   C4B16462  33.717  10.731   7.653
 6082POPC   NC316463  10.526  27.559   9.453
 6082POPC   PO416464  10.537  27.570   9.153
 6082POPC   GL116465  10.529  27.568   8.853
 6082POPC   GL216466  10.449  27.706   8.853
 6082POPC   C1A16467  10.534  27.584   8.553
 6082POPC   D2A16468  10.506  27.593   8.253
 6082POPC   C3A16469  10.487  27.578   7.953
 6082POPC   C4A16470  10.518  27.630   7.653
 6082POPC   C1B16471  10.406  27.832   8.553
 6082POPC   C2B16472  10.360  27.789   8.253
 6082POPC   C3B16473  10.439  27.803   7.953
 6082POPC   C4B16474  10.443  27.813   7.653
 6083POPC   NC316475  39.224   1.237   9.453
 6083POPC   PO416476  39.223   1.195   9.153
 6083POPC   GL116477  39.212   1.236   8.853
 6083POPC   GL216478  39.298   1.093   8.853
 6083POPC   C1A16479  39.241   1.177   8.553
 6083POPC   D2A16480  39.239   1.249   8.253
 6083POPC   C3A16481  39.237   1.219   7.953
 6083POPC   C4A16482  39.206   1.181   7.653
 6083POPC   C1B16483  39.308   1.012   8.553
 6083POPC   C2B16484  39.227   0.925   8.253
 6083POPC   C3B16485  39.234   0.987   7.953
 6083POPC   C4B16486  39.306   0.945   7.653
 6084POPC   NC316487   5.078  32.266   9.453
 6084POPC   PO416488   5.065  32.267   9.153
 6084POPC   GL116489   5.091  32.283   8.853
 6084POPC   GL216490   5.015  32.282   8.853
 6084POPC   C1A16491   5.052  32.266   8.553
 6084POPC   D2A16492   5.121  32.217   8.253
 6084POPC   C3A16493   5.139  32.209   7.953
 6084POPC   C4A16494   5.122  32.228   7.653
 6084POPC   C1B16495   4.893  32.334   8.553
 6084POPC   C2B16496   4.907  32.364   8.253
 6084POPC   C3B16497   4.824  32.351   7.953
 6084POPC   C4B16498   4.898  32.315   7.653
 6085POPC   NC316499   8.999  33.042   9.453
 6085POPC   PO416500   8.956  32.978   9.153
 6085POPC   GL116501   8.987  33.050   8.853
 6085POPC   GL216502   8.858  32.980   8.853
 6085POPC   C1A16503   9.020  33.069   8.553
 6085POPC   D2A16504   9.008  32.986   8.253
 6085POPC   C3A16505   8.971  33.019   7.953
 6085POPC   C4A16506   8.951  33.035   7.653
 6085POPC   C1B16507   8.780  32.922   8.553
 6085POPC   C2B16508   8.755  32.845   8.253
 6085POPC   C3B16509   8.812  32.837   7.953
 6085POPC   C4B16510   8.733  32.909   7.653
 6086POPC   NC316511  25.993  13.618   9.453
 6086POPC   PO416512  26.007  13.592   9.153
 6086POPC   GL116513  26.012  13.664   8.853
 6086POPC   GL216514  26.204  13.592   8.853
 6086POPC   C1A16515  26.033  13.611   8.553
 6086POPC   D2A16516  26.020  13.603   8.253
 6086POPC   C3A16517  26.006  13.602   7.953
 6086POPC   C4A16518  26.032  13.618   7.653
 6086POPC   C1B16519  26.280  13.545   8.553
 6086POPC   C2B16520  26.281  13.542   8.253
 6086POPC   C3B16521  26.287  13.599   7.953
 6086POPC   C4B16522  26.300  13.578   7.653
 6087POPC   NC316523  21.402  23.676   9.453
 6087POPC   PO416524  21.367  23.750   9.153
 6087POPC   GL116525  21.378  23.669   8.853
 6087POPC   GL216526  21.491  23.708   8.853
 6087POPC   C1A16527  21.373  23.731   8.553
 6087POPC   D2A16528  21.424  23.675   8.253
 6087POPC   C3A16529  21.366  23.694   7.953
 6087POPC   C4A16530  21.384  23.670   7.653
 6087POPC   C1B16531  21.566  23.599   8.553
 6087POPC   C2B16532  21.655  23.626   8.253
 6087POPC   C3B16533  21.656  23.610   7.953
 6087POPC   C4B16534  21.591  23.624   7.653
 6088POPC   NC316535  36.110  11.304   9.453
 6088POPC   PO416536  36.105  11.348   9.153
 6088POPC   GL116537  36.144  11.322   8.853
 6088POPC   GL216538  36.145  11.423   8.853
 6088POPC   C1A16539  36.171  11.336   8.553
 6088POPC   D2A16540  36.111  11.291   8.253
 6088POPC   C3A16541  36.161  11.258   7.953
 6088POPC   C4A16542  36.098  11.253   7.653
 6088POPC   C1B16543  36.129  11.577   8.553
 6088POPC   C2B16544  36.153  11.553   8.253
 6088POPC   C3B16545  36.163  11.552   7.953
 6088POPC   C4B16546  36.113  11.594   7.653
 6089POPC   NC316547  31.465  12.815   9.453
 6089POPC   PO416548  31.439  12.890   9.153
 6089POPC   GL116549  31.435  12.856   8.853
 6089POPC   GL216550  31.367  12.979   8.853
 6089POPC   C1A16551  31.442  12.849   8.553
 6089POPC   D2A16552  31.428  12.856   8.253
 6089POPC   C3A16553  31.505  12.883   7.953
 6089POPC   C4A16554  31.452  12.820   7.653
 6089POPC   C1B16555  31.270  13.057   8.553
 6089POPC   C2B16556  31.304  12.971   8.253
 6089POPC   C3B16557  31.323  13.046   7.953
 6089POPC   C4B16558  31.307  13.014   7.653
 6090POPC   NC316559   8.973  25.226   9.453
 6090POPC   PO416560   9.010  25.238   9.153
 6090POPC   GL116561   8.982  25.281   8.853
 6090POPC   GL216562   8.863  25.199   8.853
 6090POPC   C1A16563   9.019  25.294   8.553
 6090POPC   D2A16564   8.991  25.230   8.253
 6090POPC   C3A16565   8.964  25.266   7.953
 6090POPC   C4A16566   8.990  25.234   7.653
 6090POPC   C1B16567   8.683  25.251   8.553
 6090POPC   C2B16568   8.697  25.191   8.253
 6090POPC   C3B16569   8.680  25.221   7.953
 6090POPC   C4B16570   8.676  25.215   7.653
 6091POPC   NC316571  22.164  12.107   9.453
 6091POPC   PO416572  22.185  12.086   9.153
 6091POPC   GL116573  22.153  12.076   8.853
 6091POPC   GL216574  22.225  12.233   8.853
 6091POPC   C1A16575  22.188  12.120   8.553
 6091POPC   D2A16576  22.175  12.102   8.253
 6091POPC   C3A16577  22.116  12.104   7.953
 6091POPC   C4A16578  22.139  12.043   7.653
 6091POPC   C1B16579  22.211  12.365   8.553
 6091POPC   C2B16580  22.203  12.351   8.253
 6091POPC   C3B16581  22.165  12.327   7.953
 6091POPC   C4B16582  22.215  12.355   7.653
 6092POPC   NC316583  36.934  11.259   9.453
 6092POPC   PO416584  36.854  11.289   9.153
 6092POPC   GL116585  36.857  11.338   8.853
 6092POPC   GL216586  36.892  11.426   8.853
 6092POPC   C1A16587  36.882  11.298   8.553
 6092POPC   D2A16588  36.949  11.322   8.253
 6092POPC   C3A16589  36.855  11.282   7.953
 6092POPC   C4A16590  36.872  11.273   7.653
 6092POPC   C1B16591  36.864  11.530   8.553
 6092POPC   C2B16592  36.920  11.576   8.253
 6092POPC   C3B16593  36.933  11.590   7.953
 6092POPC   C4B16594  36.885  11.581   7.653
 6093POPC   NC316595   3.506  31.507   9.453
 6093POPC   PO416596   3.590  31.479   9.153
 6093POPC   GL116597   3.553  31.514   8.853
 6093POPC   GL216598   3.590  31.563   8.853
 6093POPC   C1A16599   3.497  31.462   8.553
 6093POPC   D2A16600   3.588  31.481   8.253
 6093POPC   C3A16601   3.510  31.510   7.953
 6093POPC   C4A16602   3.577  31.493   7.653
 6093POPC   C1B16603   3.555  31.739   8.553
 6093POPC   C2B16604   3.625  31.723   8.253
 6093POPC   C3B16605   3.588  31.705   7.953
 6093POPC   C4B16606   3.619  31.761   7.653
 6094POPC   NC316607  43.089  26.035   9.453
 6094POPC   PO416608  43.070  26.024   9.153
 6094POPC   GL116609  43.117  26.028   8.853
 6094POPC   GL216610  43.069  25.982   8.853
 6094POPC   C1A16611  43.070  26.083   8.553
 6094POPC   D2A16612  43.110  26.020   8.253
 6094POPC   C3A16613  43.145  26.055   7.953
 6094POPC   C4A16614  43.128  26.040   7.653
 6094POPC   C1B16615  42.936  25.874   8.553
 6094POPC   C2B16616  42.980  25.856   8.253
 6094POPC   C3B16617  42.919  25.824   7.953
 6094POPC   C4B16618  42.947  25.886   7.653
 6095POPC   NC316619  44.656  34.556   9.453
 6095POPC   PO416620  44.637  34.535   9.153
 6095POPC   GL116621  44.643  34.599   8.853
 6095POPC   GL216622  44.622  34.729   8.853
 6095POPC   C1A16623  44.618  34.577   8.553
 6095POPC   D2A16624  44.653  34.579   8.253
 6095POPC   C3A16625  44.623  34.536   7.953
 6095POPC   C4A16626  44.639  34.549   7.653
 6095POPC   C1B16627  44.588  34.865   8.553
 6095POPC   C2B16628  44.583  34.816   8.253
 6095POPC   C3B16629  44.604  34.856   7.953
 6095POPC   C4B16630  44.624  34.809   7.653
 6096POPC   NC316631  15.988  38.440   9.453
 6096POPC   PO416632  15.951  38.484   9.153
 6096POPC   GL116633  16.004  38.431   8.853
 6096POPC   GL216634  16.085  38.384   8.853
 6096POPC   C1A16635  15.907  38.420   8.553
 6096POPC   D2A16636  15.968  38.451   8.253
 6096POPC   C3A16637  15.967  38.441   7.953
 6096POPC   C4A16638  15.969  38.451   7.653
 6096POPC   C1B16639  16.168  38.303   8.553
 6096POPC   C2B16640  16.173  38.391   8.253
 6096POPC   C3B16641  16.202  38.338   7.953
 6096POPC   C4B16642  16.222  38.388   7.653
 6097POPC   NC316643  15.191  40.044   9.453
 6097POPC   PO416644  15.143  40.011   9.153
 6097POPC   GL116645  15.152  40.035   8.853
 6097POPC   GL216646  15.045  39.940   8.853
 6097POPC   C1A16647  15.175  39.991   8.553
 6097POPC   D2A16648  15.173  39.966   8.253
 6097POPC   C3A16649  15.203  40.039   7.953
 6097POPC   C4A16650  15.181  40.006   7.653
 6097POPC   C1B16651  14.957  39.946   8.553
 6097POPC   C2B16652  14.964  40.002   8.253
 6097POPC   C3B16653  14.973  39.913   7.953
 6097POPC   C4B16654  14.927  39.921   7.653
 6098POPC   NC316655  16.751  44.621   9.453
 6098POPC   PO416656  16.720  44.691   9.153
 6098POPC   GL116657  16.728  44.706   8.853
 6098POPC   GL216658  16.625  44.621   8.853
 6098POPC   C1A16659  16.722  44.687   8.553
 6098POPC   D2A16660  16.685  44.649   8.253
 6098POPC   C3A16661  16.686  44.670   7.953
 6098POPC   C4A16662  16.764  44.641   7.653
 6098POPC   C1B16663  16.454  44.569   8.553
 6098POPC   C2B16664  16.473  44.593   8.253
 6098POPC   C3B16665  16.464  44.572   7.953
 6098POPC   C4B16666  16.474  44.545   7.653
 6099POPC   NC316667  43.910   9.785   9.453
 6099POPC   PO416668  43.916   9.699   9.153
 6099POPC   GL116669  43.934   9.703   8.853
 6099POPC   GL216670  43.785   9.828   8.853
 6099POPC   C1A16671  43.928   9.740   8.553
 6099POPC   D2A16672  43.872   9.726   8.253
 6099POPC   C3A16673  43.860   9.755   7.953
 6099POPC   C4A16674  43.927   9.731   7.653
 6099POPC   C1B16675  43.623   9.816   8.553
 6099POPC   C2B16676  43.666   9.834   8.253
 6099POPC   C3B16677  43.637   9.837   7.953
 6099POPC   C4B16678  43.655   9.769   7.653
 6100POPC   NC316679  39.251  20.568   9.453
 6100POPC   PO416680  39.195  20.609   9.153
 6100POPC   GL116681  39.214  20.573   8.853
 6100POPC   GL216682  39.194  20.652   8.853
 6100POPC   C1A16683  39.258  20.569   8.553
 6100POPC   D2A16684  39.206  20.650   8.253
 6100POPC   C3A16685  39.184  20.576   7.953
 6100POPC   C4A16686  39.188  20.574   7.653
 6100POPC   C1B16687  39.039  20.799   8.553
 6100POPC   C2B16688  39.049  20.755   8.253
 6100POPC   C3B16689  39.044  20.758   7.953
 6100POPC   C4B16690  39.070  20.801   7.653
 6101POPC   NC316691  13.611   1.995   9.453
 6101POPC   PO416692  13.669   1.960   9.153
 6101POPC   GL116693  13.620   2.027   8.853
 6101POPC   GL216694  13.720   2.091   8.853
 6101POPC   C1A16695  13.583   2.038   8.553
 6101POPC   D2A16696  13.617   1.963   8.253
 6101POPC   C3A16697  13.599   1.949   7.953
 6101POPC   C4A16698  13.579   1.963   7.653
 6101POPC   C1B16699  13.878   2.148   8.553
 6101POPC   C2B16700  13.845   2.116   8.253
 6101POPC   C3B16701  13.809   2.108   7.953
 6101POPC   C4B16702  13.819   2.107   7.653
 6102POPC   NC316703  10.504   8.962   9.453
 6102POPC   PO416704  10.497   8.936   9.153
 6102POPC   GL116705  10.570   8.937   8.853
 6102POPC   GL216706  10.361   8.979   8.853
 6102POPC   C1A16707  10.503   8.983   8.553
 6102POPC   D2A16708  10.525   8.966   8.253
 6102POPC   C3A16709  10.543   8.952   7.953
 6102POPC   C4A16710  10.531   8.944   7.653
 6102POPC   C1B16711  10.235   9.066   8.553
 6102POPC   C2B16712  10.325   9.004   8.253
 6102POPC   C3B16713  10.237   9.024   7.953
 6102POPC   C4B16714  10.239   8.994   7.653
 6103POPC   NC316715  40.011  18.282   9.453
 6103POPC   PO416716  39.970  18.237   9.153
 6103POPC   GL116717  40.024  18.277   8.853
 6103POPC   GL216718  39.863  18.362   8.853
 6103POPC   C1A16719  40.043  18.317   8.553
 6103POPC   D2A16720  39.974  18.288   8.253
 6103POPC   C3A16721  39.958  18.291   7.953
 6103POPC   C4A16722  40.005  18.301   7.653
 6103POPC   C1B16723  39.821  18.481   8.553
 6103POPC   C2B16724  39.833  18.495   8.253
 6103POPC   C3B16725  39.780  18.472   7.953
 6103POPC   C4B16726  39.775  18.476   7.653
 6104POPC   NC316727  31.451  27.631   9.453
 6104POPC   PO416728  31.426  27.597   9.153
 6104POPC   GL116729  31.471  27.628   8.853
 6104POPC   GL216730  31.408  27.731   8.853
 6104POPC   C1A16731  31.451  27.543   8.553
 6104POPC   D2A16732  31.446  27.636   8.253
 6104POPC   C3A16733  31.433  27.582   7.953
 6104POPC   C4A16734  31.495  27.555   7.653
 6104POPC   C1B16735  31.367  27.802   8.553
 6104POPC   C2B16736  31.317  27.861   8.253
 6104POPC   C3B16737  31.374  27.816   7.953
 6104POPC   C4B16738  31.379  27.829   7.653
 6105POPC   NC316739  37.674  31.508   9.453
 6105POPC   PO416740  37.726  31.447   9.153
 6105POPC   GL116741  37.699  31.488   8.853
 6105POPC   GL216742  37.769  31.424   8.853
 6105POPC   C1A16743  37.687  31.464   8.553
 6105POPC   D2A16744  37.658  31.465   8.253
 6105POPC   C3A16745  37.673  31.434   7.953
 6105POPC   C4A16746  37.669  31.485   7.653
 6105POPC   C1B16747  37.827  31.306   8.553
 6105POPC   C2B16748  37.900  31.312   8.253
 6105POPC   C3B16749  37.914  31.339   7.953
 6105POPC   C4B16750  37.859  31.318   7.653
 6106POPC   NC316751  21.374  13.664   9.453
 6106POPC   PO416752  21.416  13.585   9.153
 6106POPC   GL116753  21.396  13.610   8.853
 6106POPC   GL216754  21.430  13.543   8.853
 6106POPC   C1A16755  21.368  13.579   8.553
 6106POPC   D2A16756  21.419  13.624   8.253
 6106POPC   C3A16757  21.396  13.646   7.953
 6106POPC   C4A16758  21.342  13.639   7.653
 6106POPC   C1B16759  21.403  13.361   8.553
 6106POPC   C2B16760  21.441  13.379   8.253
 6106POPC   C3B16761  21.475  13.401   7.953
 6106POPC   C4B16762  21.477  13.409   7.653
 6107POPC   NC316763  14.389  19.870   9.453
 6107POPC   PO416764  14.428  19.831   9.153
 6107POPC   GL116765  14.442  19.881   8.853
 6107POPC   GL216766  14.261  19.820   8.853
 6107POPC   C1A16767  14.377  19.833   8.553
 6107POPC   D2A16768  14.443  19.849   8.253
 6107POPC   C3A16769  14.394  19.793   7.953
 6107POPC   C4A16770  14.403  19.789   7.653
 6107POPC   C1B16771  14.169  19.892   8.553
 6107POPC   C2B16772  14.129  19.895   8.253
 6107POPC   C3B16773  14.149  19.914   7.953
 6107POPC   C4B16774  14.169  19.923   7.653
 6108POPC   NC316775  15.147   2.743   9.453
 6108POPC   PO416776  15.219   2.780   9.153
 6108POPC   GL116777  15.140   2.723   8.853
 6108POPC   GL216778  15.295   2.846   8.853
 6108POPC   C1A16779  15.140   2.795   8.553
 6108POPC   D2A16780  15.148   2.797   8.253
 6108POPC   C3A16781  15.136   2.789   7.953
 6108POPC   C4A16782  15.217   2.798   7.653
 6108POPC   C1B16783  15.360   2.942   8.553
 6108POPC   C2B16784  15.387   2.930   8.253
 6108POPC   C3B16785  15.317   2.907   7.953
 6108POPC   C4B16786  15.330   2.892   7.653
 6109POPC   NC316787   2.778  26.051   9.453
 6109POPC   PO416788   2.729  26.026   9.153
 6109POPC   GL116789   2.758  26.074   8.853
 6109POPC   GL216790   2.855  26.049   8.853
 6109POPC   C1A16791   2.806  26.004   8.553
 6109POPC   D2A16792   2.747  26.049   8.253
 6109POPC   C3A16793   2.775  26.033   7.953
 6109POPC   C4A16794   2.809  26.029   7.653
 6109POPC   C1B16795   3.048  26.069   8.553
 6109POPC   C2B16796   2.970  26.082   8.253
 6109POPC   C3B16797   3.010  26.080   7.953
 6109POPC   C4B16798   2.990  26.020   7.653
 6110POPC   NC316799  17.515  21.367   9.453
 6110POPC   PO416800  17.507  21.368   9.153
 6110POPC   GL116801  17.474  21.426   8.853
 6110POPC   GL216802  17.438  21.507   8.853
 6110POPC   C1A16803  17.517  21.382   8.553
 6110POPC   D2A16804  17.543  21.350   8.253
 6110POPC   C3A16805  17.469  21.373   7.953
 6110POPC   C4A16806  17.518  21.429   7.653
 6110POPC   C1B16807  17.465  21.678   8.553
 6110POPC   C2B16808  17.458  21.590   8.253
 6110POPC   C3B16809  17.466  21.611   7.953
 6110POPC   C4B16810  17.440  21.658   7.653
 6111POPC   NC316811   8.190  12.836   9.453
 6111POPC   PO416812   8.238  12.859   9.153
 6111POPC   GL116813   8.147  12.891   8.853
 6111POPC   GL216814   8.307  12.795   8.853
 6111POPC   C1A16815   8.245  12.881   8.553
 6111POPC   D2A16816   8.226  12.850   8.253
 6111POPC   C3A16817   8.200  12.824   7.953
 6111POPC   C4A16818   8.169  12.811   7.653
 6111POPC   C1B16819   8.418  12.720   8.553
 6111POPC   C2B16820   8.402  12.715   8.253
 6111POPC   C3B16821   8.420  12.717   7.953
 6111POPC   C4B16822   8.398  12.743   7.653
 6112POPC   NC316823  24.499  43.066   9.453
 6112POPC   PO416824  24.497  43.068   9.153
 6112POPC   GL116825  24.468  43.147   8.853
 6112POPC   GL216826  24.561  43.179   8.853
 6112POPC   C1A16827  24.501  43.060   8.553
 6112POPC   D2A16828  24.487  43.121   8.253
 6112POPC   C3A16829  24.450  43.086   7.953
 6112POPC   C4A16830  24.532  43.099   7.653
 6112POPC   C1B16831  24.661  43.303   8.553
 6112POPC   C2B16832  24.660  43.252   8.253
 6112POPC   C3B16833  24.649  43.299   7.953
 6112POPC   C4B16834  24.645  43.227   7.653
 6113POPC   NC316835  23.753  30.704   9.453
 6113POPC   PO416836  23.728  30.665   9.153
 6113POPC   GL116837  23.691  30.713   8.853
 6113POPC   GL216838  23.694  30.548   8.853
 6113POPC   C1A16839  23.751  30.730   8.553
 6113POPC   D2A16840  23.696  30.739   8.253
 6113POPC   C3A16841  23.678  30.712   7.953
 6113POPC   C4A16842  23.749  30.708   7.653
 6113POPC   C1B16843  23.670  30.469   8.553
 6113POPC   C2B16844  23.676  30.445   8.253
 6113POPC   C3B16845  23.676  30.496   7.953
 6113POPC   C4B16846  23.631  30.473   7.653
 6114POPC   NC316847  15.939   6.618   9.453
 6114POPC   PO416848  15.927   6.601   9.153
 6114POPC   GL116849  15.975   6.661   8.853
 6114POPC   GL216850  15.892   6.557   8.853
 6114POPC   C1A16851  15.973   6.597   8.553
 6114POPC   D2A16852  15.963   6.634   8.253
 6114POPC   C3A16853  15.913   6.649   7.953
 6114POPC   C4A16854  15.946   6.626   7.653
 6114POPC   C1B16855  15.907   6.383   8.553
 6114POPC   C2B16856  15.889   6.417   8.253
 6114POPC   C3B16857  15.829   6.397   7.953
 6114POPC   C4B16858  15.857   6.423   7.653
 6115POPC   NC316859  39.213  19.791   9.453
 6115POPC   PO416860  39.190  19.812   9.153
 6115POPC   GL116861  39.222  19.857   8.853
 6115POPC   GL216862  39.335  19.889   8.853
 6115POPC   C1A16863  39.203  19.787   8.553
 6115POPC   D2A16864  39.264  19.854   8.253
 6115POPC   C3A16865  39.273  19.839   7.953
 6115POPC   C4A16866  39.224  19.877   7.653
 6115POPC   C1B16867  39.449  19.882   8.553
 6115POPC   C2B16868  39.465  19.859   8.253
 6115POPC   C3B16869  39.462  19.882   7.953
 6115POPC   C4B16870  39.518  19.858   7.653
 6116POPC   NC316871  25.233  17.543   9.453
 6116POPC   PO416872  25.226  17.481   9.153
 6116POPC   GL116873  25.229  17.503   8.853
 6116POPC   GL216874  25.215  17.569   8.853
 6116POPC   C1A16875  25.267  17.555   8.553
 6116POPC   D2A16876  25.310  17.488   8.253
 6116POPC   C3A16877  25.249  17.457   7.953
 6116POPC   C4A16878  25.255  17.498   7.653
 6116POPC   C1B16879  25.054  17.653   8.553
 6116POPC   C2B16880  25.104  17.678   8.253
 6116POPC   C3B16881  25.096  17.701   7.953
 6116POPC   C4B16882  25.052  17.707   7.653
 6117POPC   NC316883  40.736  21.412   9.453
 6117POPC   PO416884  40.738  21.382   9.153
 6117POPC   GL116885  40.801  21.406   8.853
 6117POPC   GL216886  40.786  21.299   8.853
 6117POPC   C1A16887  40.780  21.363   8.553
 6117POPC   D2A16888  40.783  21.434   8.253
 6117POPC   C3A16889  40.781  21.373   7.953
 6117POPC   C4A16890  40.776  21.338   7.653
 6117POPC   C1B16891  40.841  21.167   8.553
 6117POPC   C2B16892  40.925  21.182   8.253
 6117POPC   C3B16893  40.855  21.177   7.953
 6117POPC   C4B16894  40.848  21.155   7.653
 6118POPC   NC316895  15.139   1.961   9.453
 6118POPC   PO416896  15.183   1.975   9.153
 6118POPC   GL116897  15.187   2.021   8.853
 6118POPC   GL216898  15.117   1.909   8.853
 6118POPC   C1A16899  15.190   2.002   8.553
 6118POPC   D2A16900  15.176   2.012   8.253
 6118POPC   C3A16901  15.203   1.972   7.953
 6118POPC   C4A16902  15.181   1.972   7.653
 6118POPC   C1B16903  15.067   1.788   8.553
 6118POPC   C2B16904  15.096   1.797   8.253
 6118POPC   C3B16905  15.040   1.723   7.953
 6118POPC   C4B16906  15.043   1.775   7.653
 6119POPC   NC316907  19.045  22.137   9.453
 6119POPC   PO416908  19.086  22.211   9.153
 6119POPC   GL116909  19.031  22.188   8.853
 6119POPC   GL216910  19.021  22.001   8.853
 6119POPC   C1A16911  19.041  22.195   8.553
 6119POPC   D2A16912  19.035  22.145   8.253
 6119POPC   C3A16913  19.104  22.190   7.953
 6119POPC   C4A16914  19.031  22.184   7.653
 6119POPC   C1B16915  19.029  21.874   8.553
 6119POPC   C2B16916  19.048  21.941   8.253
 6119POPC   C3B16917  19.034  21.908   7.953
 6119POPC   C4B16918  19.038  21.890   7.653
 6120POPC   NC316919   5.080  22.935   9.453
 6120POPC   PO416920   5.071  22.895   9.153
 6120POPC   GL116921   5.053  22.952   8.853
 6120POPC   GL216922   5.229  23.070   8.853
 6120POPC   C1A16923   5.044  22.959   8.553
 6120POPC   D2A16924   5.116  22.959   8.253
 6120POPC   C3A16925   5.110  22.943   7.953
 6120POPC   C4A16926   5.089  22.952   7.653
 6120POPC   C1B16927   5.238  23.073   8.553
 6120POPC   C2B16928   5.240  23.152   8.253
 6120POPC   C3B16929   5.300  23.126   7.953
 6120POPC   C4B16930   5.276  23.121   7.653
 6121POPC   NC316931  14.366  21.396   9.453
 6121POPC   PO416932  14.362  21.434   9.153
 6121POPC   GL116933  14.363  21.380   8.853
 6121POPC   GL216934  14.244  21.307   8.853
 6121POPC   C1A16935  14.423  21.432   8.553
 6121POPC   D2A16936  14.399  21.380   8.253
 6121POPC   C3A16937  14.409  21.382   7.953
 6121POPC   C4A16938  14.385  21.337   7.653
 6121POPC   C1B16939  14.209  21.292   8.553
 6121POPC   C2B16940  14.202  21.282   8.253
 6121POPC   C3B16941  14.211  21.315   7.953
 6121POPC   C4B16942  14.135  21.339   7.653
 6122POPC   NC316943  17.552  22.971   9.453
 6122POPC   PO416944  17.536  22.910   9.153
 6122POPC   GL116945  17.464  22.915   8.853
 6122POPC   GL216946  17.363  23.048   8.853
 6122POPC   C1A16947  17.467  22.966   8.553
 6122POPC   D2A16948  17.539  22.976   8.253
 6122POPC   C3A16949  17.470  22.933   7.953
 6122POPC   C4A16950  17.475  22.914   7.653
 6122POPC   C1B16951  17.273  23.035   8.553
 6122POPC   C2B16952  17.330  23.111   8.253
 6122POPC   C3B16953  17.350  23.093   7.953
 6122POPC   C4B16954  17.340  23.097   7.653
 6123POPC   NC316955  17.483  28.377   9.453
 6123POPC   PO416956  17.477  28.373   9.153
 6123POPC   GL116957  17.464  28.327   8.853
 6123POPC   GL216958  17.458  28.302   8.853
 6123POPC   C1A16959  17.474  28.330   8.553
 6123POPC   D2A16960  17.472  28.336   8.253
 6123POPC   C3A16961  17.479  28.378   7.953
 6123POPC   C4A16962  17.471  28.383   7.653
 6123POPC   C1B16963  17.336  28.237   8.553
 6123POPC   C2B16964  17.315  28.196   8.253
 6123POPC   C3B16965  17.333  28.197   7.953
 6123POPC   C4B16966  17.353  28.155   7.653
 6124POPC   NC316967  12.115  30.700   9.453
 6124POPC   PO416968  12.093  30.726   9.153
 6124POPC   GL116969  12.066  30.659   8.853
 6124POPC   GL216970  12.193  30.742   8.853
 6124POPC   C1A16971  12.106  30.695   8.553
 6124POPC   D2A16972  12.088  30.671   8.253
 6124POPC   C3A16973  12.089  30.732   7.953
 6124POPC   C4A16974  12.101  30.665   7.653
 6124POPC   C1B16975  12.313  30.809   8.553
 6124POPC   C2B16976  12.354  30.720   8.253
 6124POPC   C3B16977  12.268  30.736   7.953
 6124POPC   C4B16978  12.288  30.801   7.653
 6125POPC   NC316979  40.824  12.814   9.453
 6125POPC   PO416980  40.782  12.898   9.153
 6125POPC   GL116981  40.768  12.845   8.853
 6125POPC   GL216982  40.859  12.910   8.853
 6125POPC   C1A16983  40.816  12.822   8.553
 6125POPC   D2A16984  40.751  12.871   8.253
 6125POPC   C3A16985  40.762  12.811   7.953
 6125POPC   C4A16986  40.801  12.804   7.653
 6125POPC   C1B16987  40.960  12.984   8.553
 6125POPC   C2B16988  40.981  12.980   8.253
 6125POPC   C3B16989  41.019  13.001   7.953
 6125POPC   C4B16990  40.987  12.946   7.653
 6126POPC   NC316991  31.454   3.571   9.453
 6126POPC   PO416992  31.432   3.544   9.153
 6126POPC   GL116993  31.513   3.515   8.853
 6126POPC   GL216994  31.608   3.479   8.853
 6126POPC   C1A16995  31.444   3.499   8.553
 6126POPC   D2A16996  31.489   3.569   8.253
 6126POPC   C3A16997  31.491   3.498   7.953
 6126POPC   C4A16998  31.423   3.553   7.653
 6126POPC   C1B16999  31.607   3.366   8.553
 6126POPC   C2B17000  31.704   3.322   8.253
 6126POPC   C3B17001  31.685   3.366   7.953
 6126POPC   C4B17002  31.641   3.407   7.653
 6127POPC   NC317003   3.493  21.429   9.453
 6127POPC   PO417004   3.566  21.378   9.153
 6127POPC   GL117005   3.507  21.433   8.853
 6127POPC   GL217006   3.380  21.391   8.853
 6127POPC   C1A17007   3.525  21.389   8.553
 6127POPC   D2A17008   3.513  21.411   8.253
 6127POPC   C3A17009   3.575  21.387   7.953
 6127POPC   C4A17010   3.559  21.423   7.653
 6127POPC   C1B17011   3.313  21.378   8.553
 6127POPC   C2B17012   3.269  21.328   8.253
 6127POPC   C3B17013   3.342  21.343   7.953
 6127POPC   C4B17014   3.313  21.395   7.653
 6128POPC   NC317015   8.242  42.314   9.453
 6128POPC   PO417016   8.216  42.321   9.153
 6128POPC   GL117017   8.181  42.339   8.853
 6128POPC   GL217018   8.148  42.478   8.853
 6128POPC   C1A17019   8.211  42.363   8.553
 6128POPC   D2A17020   8.238  42.352   8.253
 6128POPC   C3A17021   8.238  42.358   7.953
 6128POPC   C4A17022   8.227  42.338   7.653
 6128POPC   C1B17023   8.042  42.509   8.553
 6128POPC   C2B17024   8.095  42.582   8.253
 6128POPC   C3B17025   8.057  42.545   7.953
 6128POPC   C4B17026   8.077  42.525   7.653
 6129POPC   NC317027  33.793   8.182   9.453
 6129POPC   PO417028  33.805   8.153   9.153
 6129POPC   GL117029  33.808   8.202   8.853
 6129POPC   GL217030  33.948   8.120   8.853
 6129POPC   C1A17031  33.804   8.234   8.553
 6129POPC   D2A17032  33.848   8.202   8.253
 6129POPC   C3A17033  33.755   8.225   7.953
 6129POPC   C4A17034  33.811   8.174   7.653
 6129POPC   C1B17035  34.013   8.072   8.553
 6129POPC   C2B17036  34.061   8.089   8.253
 6129POPC   C3B17037  33.985   8.085   7.953
 6129POPC   C4B17038  34.032   8.074   7.653
 6130POPC   NC317039  38.448  13.647   9.453
 6130POPC   PO417040  38.495  13.641   9.153
 6130POPC   GL117041  38.413  13.662   8.853
 6130POPC   GL217042  38.390  13.521   8.853
 6130POPC   C1A17043  38.460  13.598   8.553
 6130POPC   D2A17044  38.440  13.609   8.253
 6130POPC   C3A17045  38.500  13.581   7.953
 6130POPC   C4A17046  38.500  13.643   7.653
 6130POPC   C1B17047  38.392  13.417   8.553
 6130POPC   C2B17048  38.392  13.349   8.253
 6130POPC   C3B17049  38.408  13.399   7.953
 6130POPC   C4B17050  38.405  13.410   7.653
 6131POPC   NC317051  40.816   8.991   9.453
 6131POPC   PO417052  40.763   9.007   9.153
 6131POPC   GL117053  40.800   9.015   8.853
 6131POPC   GL217054  40.829   8.840   8.853
 6131POPC   C1A17055  40.792   8.949   8.553
 6131POPC   D2A17056  40.823   8.964   8.253
 6131POPC   C3A17057  40.753   8.946   7.953
 6131POPC   C4A17058  40.816   8.996   7.653
 6131POPC   C1B17059  40.925   8.718   8.553
 6131POPC   C2B17060  40.900   8.747   8.253
 6131POPC   C3B17061  40.922   8.792   7.953
 6131POPC   C4B17062  40.953   8.721   7.653
 6132POPC   NC317063  33.034  44.710   9.453
 6132POPC   PO417064  32.975  44.668   9.153
 6132POPC   GL117065  33.040  44.685   8.853
 6132POPC   GL217066  32.873  44.671   8.853
 6132POPC   C1A17067  33.005  44.651   8.553
 6132POPC   D2A17068  33.064  44.700   8.253
 6132POPC   C3A17069  33.001  44.665   7.953
 6132POPC   C4A17070  32.994  44.667   7.653
 6132POPC   C1B17071  32.818  44.663   8.553
 6132POPC   C2B17072  32.731  44.644   8.253
 6132POPC   C3B17073  32.811  44.631   7.953
 6132POPC   C4B17074  32.810  44.636   7.653
 6133POPC   NC317075  10.573  25.261   9.453
 6133POPC   PO417076  10.521  25.219   9.153
 6133POPC   GL117077  10.549  25.255   8.853
 6133POPC   GL217078  10.382  25.282   8.853
 6133POPC   C1A17079  10.505  25.241   8.553
 6133POPC   D2A17080  10.546  25.239   8.253
 6133POPC   C3A17081  10.517  25.255   7.953
 6133POPC   C4A17082  10.516  25.286   7.653
 6133POPC   C1B17083  10.265  25.297   8.553
 6133POPC   C2B17084  10.326  25.339   8.253
 6133POPC   C3B17085  10.285  25.285   7.953
 6133POPC   C4B17086  10.321  25.259   7.653
 6134POPC   NC317087  19.058  11.308   9.453
 6134POPC   PO417088  19.027  11.320   9.153
 6134POPC   GL117089  19.096  11.250   8.853
 6134POPC   GL217090  19.212  11.235   8.853
 6134POPC   C1A17091  19.066  11.349   8.553
 6134POPC   D2A17092  19.042  11.262   8.253
 6134POPC   C3A17093  19.020  11.293   7.953
 6134POPC   C4A17094  19.051  11.320   7.653
 6134POPC   C1B17095  19.297  11.188   8.553
 6134POPC   C2B17096  19.256  11.147   8.253
 6134POPC   C3B17097  19.318  11.197   7.953
 6134POPC   C4B17098  19.295  11.163   7.653
 6135POPC   NC317099  26.775  44.702   9.453
 6135POPC   PO417100  26.788  44.664   9.153
 6135POPC   GL117101  26.834  44.612   8.853
 6135POPC   GL217102  26.807  44.535   8.853
 6135POPC   C1A17103  26.839  44.642   8.553
 6135POPC   D2A17104  26.784  44.618   8.253
 6135POPC   C3A17105  26.849  44.655   7.953
 6135POPC   C4A17106  26.843  44.694   7.653
 6135POPC   C1B17107  26.810  44.391   8.553
 6135POPC   C2B17108  26.782  44.404   8.253
 6135POPC   C3B17109  26.799  44.461   7.953
 6135POPC   C4B17110  26.865  44.379   7.653
 6136POPC   NC317111   4.325  25.311   9.453
 6136POPC   PO417112   4.326  25.249   9.153
 6136POPC   GL117113   4.349  25.248   8.853
 6136POPC   GL217114   4.433  25.138   8.853
 6136POPC   C1A17115   4.313  25.281   8.553
 6136POPC   D2A17116   4.336  25.312   8.253
 6136POPC   C3A17117   4.323  25.264   7.953
 6136POPC   C4A17118   4.294  25.307   7.653
 6136POPC   C1B17119   4.503  25.145   8.553
 6136POPC   C2B17120   4.501  25.109   8.253
 6136POPC   C3B17121   4.529  25.082   7.953
 6136POPC   C4B17122   4.521  25.094   7.653
 6137POPC   NC317123  33.008  27.573   9.453
 6137POPC   PO417124  33.032  27.591   9.153
 6137POPC   GL117125  33.029  27.620   8.853
 6137POPC   GL217126  33.155  27.662   8.853
 6137POPC   C1A17127  32.990  27.575   8.553
 6137POPC   D2A17128  32.994  27.628   8.253
 6137POPC   C3A17129  32.989  27.566   7.953
 6137POPC   C4A17130  32.998  27.571   7.653
 6137POPC   C1B17131  33.214  27.795   8.553
 6137POPC   C2B17132  33.188  27.727   8.253
 6137POPC   C3B17133  33.203  27.782   7.953
 6137POPC   C4B17134  33.194  27.741   7.653
 6138POPC   NC317135  39.233  39.211   9.453
 6138POPC   PO417136  39.277  39.256   9.153
 6138POPC   GL117137  39.185  39.227   8.853
 6138POPC   GL217138  39.109  39.308   8.853
 6138POPC   C1A17139  39.251  39.231   8.553
 6138POPC   D2A17140  39.271  39.192   8.253
 6138POPC   C3A17141  39.217  39.251   7.953
 6138POPC   C4A17142  39.207  39.211   7.653
 6138POPC   C1B17143  39.114  39.431   8.553
 6138POPC   C2B17144  39.104  39.444   8.253
 6138POPC   C3B17145  39.086  39.423   7.953
 6138POPC   C4B17146  39.053  39.410   7.653
 6139POPC   NC317147  30.665  32.293   9.453
 6139POPC   PO417148  30.730  32.232   9.153
 6139POPC   GL117149  30.718  32.274   8.853
 6139POPC   GL217150  30.805  32.230   8.853
 6139POPC   C1A17151  30.695  32.249   8.553
 6139POPC   D2A17152  30.672  32.198   8.253
 6139POPC   C3A17153  30.745  32.221   7.953
 6139POPC   C4A17154  30.713  32.242   7.653
 6139POPC   C1B17155  30.951  32.297   8.553
 6139POPC   C2B17156  30.924  32.283   8.253
 6139POPC   C3B17157  30.990  32.283   7.953
 6139POPC   C4B17158  30.950  32.254   7.653
 6140POPC   NC317159  38.484  17.484   9.453
 6140POPC   PO417160  38.475  17.463   9.153
 6140POPC   GL117161  38.428  17.488   8.853
 6140POPC   GL217162  38.534  17.586   8.853
 6140POPC   C1A17163  38.471  17.554   8.553
 6140POPC   D2A17164  38.455  17.463   8.253
 6140POPC   C3A17165  38.432  17.526   7.953
 6140POPC   C4A17166  38.445  17.531   7.653
 6140POPC   C1B17167  38.631  17.666   8.553
 6140POPC   C2B17168  38.633  17.649   8.253
 6140POPC   C3B17169  38.636  17.624   7.953
 6140POPC   C4B17170  38.642  17.625   7.653
 6141POPC   NC317171  15.960  36.888   9.453
 6141POPC   PO417172  15.969  36.877   9.153
 6141POPC   GL117173  15.927  36.866   8.853
 6141POPC   GL217174  15.882  36.855   8.853
 6141POPC   C1A17175  15.961  36.888   8.553
 6141POPC   D2A17176  15.993  36.900   8.253
 6141POPC   C3A17177  15.947  36.940   7.953
 6141POPC   C4A17178  15.963  36.926   7.653
 6141POPC   C1B17179  15.737  36.749   8.553
 6141POPC   C2B17180  15.748  36.679   8.253
 6141POPC   C3B17181  15.804  36.745   7.953
 6141POPC   C4B17182  15.785  36.730   7.653
 6142POPC   NC317183  20.624  18.240   9.453
 6142POPC   PO417184  20.576  18.280   9.153
 6142POPC   GL117185  20.618  18.266   8.853
 6142POPC   GL217186  20.587  18.152   8.853
 6142POPC   C1A17187  20.601  18.332   8.553
 6142POPC   D2A17188  20.648  18.317   8.253
 6142POPC   C3A17189  20.626  18.298   7.953
 6142POPC   C4A17190  20.577  18.299   7.653
 6142POPC   C1B17191  20.485  18.077   8.553
 6142POPC   C2B17192  20.514  18.092   8.253
 6142POPC   C3B17193  20.494  18.060   7.953
 6142POPC   C4B17194  20.502  18.038   7.653
 6143POPC   NC317195  19.829  39.278   9.453
 6143POPC   PO417196  19.853  39.257   9.153
 6143POPC   GL117197  19.834  39.281   8.853
 6143POPC   GL217198  19.798  39.384   8.853
 6143POPC   C1A17199  19.853  39.187   8.553
 6143POPC   D2A17200  19.813  39.212   8.253
 6143POPC   C3A17201  19.883  39.264   7.953
 6143POPC   C4A17202  19.866  39.277   7.653
 6143POPC   C1B17203  19.769  39.480   8.553
 6143POPC   C2B17204  19.779  39.433   8.253
 6143POPC   C3B17205  19.740  39.435   7.953
 6143POPC   C4B17206  19.744  39.489   7.653
 6144POPC   NC317207  37.662  27.581   9.453
 6144POPC   PO417208  37.712  27.635   9.153
 6144POPC   GL117209  37.689  27.583   8.853
 6144POPC   GL217210  37.538  27.641   8.853
 6144POPC   C1A17211  37.727  27.641   8.553
 6144POPC   D2A17212  37.637  27.605   8.253
 6144POPC   C3A17213  37.686  27.643   7.953
 6144POPC   C4A17214  37.667  27.572   7.653
 6144POPC   C1B17215  37.419  27.671   8.553
 6144POPC   C2B17216  37.473  27.657   8.253
 6144POPC   C3B17217  37.410  27.630   7.953
 6144POPC   C4B17218  37.395  27.710   7.653
 6145POPC   NC317219  35.302   9.019   9.453
 6145POPC   PO417220  35.343   9.000   9.153
 6145POPC   GL117221  35.361   8.929   8.853
 6145POPC   GL217222  35.447   9.050   8.853
 6145POPC   C1A17223  35.375   8.976   8.553
 6145POPC   D2A17224  35.316   8.979   8.253
 6145POPC   C3A17225  35.312   8.931   7.953
 6145POPC   C4A17226  35.389   8.970   7.653
 6145POPC   C1B17227  35.593   9.115   8.553
 6145POPC   C2B17228  35.549   9.155   8.253
 6145POPC   C3B17229  35.525   9.137   7.953
 6145POPC   C4B17230  35.562   9.121   7.653
 6146POPC   NC317231  43.900   5.896   9.453
 6146POPC   PO417232  43.899   5.876   9.153
 6146POPC   GL117233  43.922   5.823   8.853
 6146POPC   GL217234  43.822   5.785   8.853
 6146POPC   C1A17235  43.935   5.894   8.553
 6146POPC   D2A17236  43.872   5.849   8.253
 6146POPC   C3A17237  43.917   5.824   7.953
 6146POPC   C4A17238  43.871   5.916   7.653
 6146POPC   C1B17239  43.729   5.689   8.553
 6146POPC   C2B17240  43.674   5.713   8.253
 6146POPC   C3B17241  43.730   5.725   7.953
 6146POPC   C4B17242  43.744   5.651   7.653
 6147POPC   NC317243  20.657  36.913   9.453
 6147POPC   PO417244  20.650  36.901   9.153
 6147POPC   GL117245  20.612  36.923   8.853
 6147POPC   GL217246  20.637  36.815   8.853
 6147POPC   C1A17247  20.599  36.896   8.553
 6147POPC   D2A17248  20.628  36.895   8.253
 6147POPC   C3A17249  20.577  36.879   7.953
 6147POPC   C4A17250  20.605  36.882   7.653
 6147POPC   C1B17251  20.704  36.701   8.553
 6147POPC   C2B17252  20.730  36.699   8.253
 6147POPC   C3B17253  20.703  36.694   7.953
 6147POPC   C4B17254  20.659  36.706   7.653
 6148POPC   NC317255  31.516  34.556   9.453
 6148POPC   PO417256  31.472  34.536   9.153
 6148POPC   GL117257  31.442  34.613   8.853
 6148POPC   GL217258  31.470  34.445   8.853
 6148POPC   C1A17259  31.508  34.604   8.553
 6148POPC   D2A17260  31.455  34.614   8.253
 6148POPC   C3A17261  31.480  34.553   7.953
 6148POPC   C4A17262  31.491  34.587   7.653
 6148POPC   C1B17263  31.419  34.310   8.553
 6148POPC   C2B17264  31.361  34.299   8.253
 6148POPC   C3B17265  31.395  34.364   7.953
 6148POPC   C4B17266  31.385  34.376   7.653
 6149POPC   NC317267  40.793  38.423   9.453
 6149POPC   PO417268  40.765  38.492   9.153
 6149POPC   GL117269  40.831  38.440   8.853
 6149POPC   GL217270  40.882  38.447   8.853
 6149POPC   C1A17271  40.751  38.458   8.553
 6149POPC   D2A17272  40.824  38.450   8.253
 6149POPC   C3A17273  40.825  38.481   7.953
 6149POPC   C4A17274  40.759  38.426   7.653
 6149POPC   C1B17275  41.033  38.323   8.553
 6149POPC   C2B17276  41.042  38.305   8.253
 6149POPC   C3B17277  41.053  38.363   7.953
 6149POPC   C4B17278  41.013  38.338   7.653
 6150POPC   NC317279  37.695   2.716   9.453
 6150POPC   PO417280  37.706   2.789   9.153
 6150POPC   GL117281  37.721   2.800   8.853
 6150POPC   GL217282  37.563   2.716   8.853
 6150POPC   C1A17283  37.652   2.726   8.553
 6150POPC   D2A17284  37.714   2.768   8.253
 6150POPC   C3A17285  37.723   2.746   7.953
 6150POPC   C4A17286  37.671   2.756   7.653
 6150POPC   C1B17287  37.412   2.646   8.553
 6150POPC   C2B17288  37.479   2.629   8.253
 6150POPC   C3B17289  37.490   2.633   7.953
 6150POPC   C4B17290  37.454   2.640   7.653
 6151POPC   NC317291   8.183   1.169   9.453
 6151POPC   PO417292   8.175   1.171   9.153
 6151POPC   GL117293   8.200   1.249   8.853
 6151POPC   GL217294   8.058   1.319   8.853
 6151POPC   C1A17295   8.159   1.258   8.553
 6151POPC   D2A17296   8.244   1.191   8.253
 6151POPC   C3A17297   8.147   1.257   7.953
 6151POPC   C4A17298   8.147   1.257   7.653
 6151POPC   C1B17299   7.984   1.370   8.553
 6151POPC   C2B17300   7.965   1.389   8.253
 6151POPC   C3B17301   7.948   1.381   7.953
 6151POPC   C4B17302   7.991   1.394   7.653
 6152POPC   NC317303  21.375   7.394   9.453
 6152POPC   PO417304  21.353   7.419   9.153
 6152POPC   GL117305  21.411   7.371   8.853
 6152POPC   GL217306  21.219   7.455   8.853
 6152POPC   C1A17307  21.375   7.415   8.553
 6152POPC   D2A17308  21.382   7.466   8.253
 6152POPC   C3A17309  21.386   7.427   7.953
 6152POPC   C4A17310  21.419   7.382   7.653
 6152POPC   C1B17311  21.126   7.505   8.553
 6152POPC   C2B17312  21.113   7.436   8.253
 6152POPC   C3B17313  21.188   7.453   7.953
 6152POPC   C4B17314  21.126   7.463   7.653
 6153POPC   NC317315  42.295   9.014   9.453
 6153POPC   PO417316  42.381   8.983   9.153
 6153POPC   GL117317  42.377   8.991   8.853
 6153POPC   GL217318  42.320   8.819   8.853
 6153POPC   C1A17319  42.304   8.951   8.553
 6153POPC   D2A17320  42.328   9.014   8.253
 6153POPC   C3A17321  42.309   8.949   7.953
 6153POPC   C4A17322  42.313   8.955   7.653
 6153POPC   C1B17323  42.351   8.769   8.553
 6153POPC   C2B17324  42.309   8.725   8.253
 6153POPC   C3B17325  42.289   8.697   7.953
 6153POPC   C4B17326  42.343   8.708   7.653
 6154POPC   NC317327   7.420  38.419   9.453
 6154POPC   PO417328   7.398  38.418   9.153
 6154POPC   GL117329   7.415  38.457   8.853
 6154POPC   GL217330   7.471  38.397   8.853
 6154POPC   C1A17331   7.416  38.487   8.553
 6154POPC   D2A17332   7.374  38.416   8.253
 6154POPC   C3A17333   7.409  38.480   7.953
 6154POPC   C4A17334   7.443  38.480   7.653
 6154POPC   C1B17335   7.592  38.314   8.553
 6154POPC   C2B17336   7.599  38.279   8.253
 6154POPC   C3B17337   7.580  38.324   7.953
 6154POPC   C4B17338   7.624  38.258   7.653
 6155POPC   NC317339  34.586   5.078   9.453
 6155POPC   PO417340  34.566   5.124   9.153
 6155POPC   GL117341  34.576   5.056   8.853
 6155POPC   GL217342  34.659   5.149   8.853
 6155POPC   C1A17343  34.568   5.139   8.553
 6155POPC   D2A17344  34.603   5.091   8.253
 6155POPC   C3A17345  34.613   5.054   7.953
 6155POPC   C4A17346  34.597   5.129   7.653
 6155POPC   C1B17347  34.782   5.135   8.553
 6155POPC   C2B17348  34.782   5.135   8.253
 6155POPC   C3B17349  34.778   5.090   7.953
 6155POPC   C4B17350  34.803   5.159   7.653
 6156POPC   NC317351   6.677  35.397   9.453
 6156POPC   PO417352   6.641  35.334   9.153
 6156POPC   GL117353   6.666  35.389   8.853
 6156POPC   GL217354   6.742  35.225   8.853
 6156POPC   C1A17355   6.620  35.303   8.553
 6156POPC   D2A17356   6.662  35.345   8.253
 6156POPC   C3A17357   6.657  35.377   7.953
 6156POPC   C4A17358   6.625  35.310   7.653
 6156POPC   C1B17359   6.749  35.155   8.553
 6156POPC   C2B17360   6.810  35.116   8.253
 6156POPC   C3B17361   6.789  35.098   7.953
 6156POPC   C4B17362   6.810  35.105   7.653
 6157POPC   NC317363  42.342  33.003   9.453
 6157POPC   PO417364  42.377  32.986   9.153
 6157POPC   GL117365  42.349  33.012   8.853
 6157POPC   GL217366  42.266  32.919   8.853
 6157POPC   C1A17367  42.326  33.073   8.553
 6157POPC   D2A17368  42.378  33.015   8.253
 6157POPC   C3A17369  42.322  32.985   7.953
 6157POPC   C4A17370  42.335  33.069   7.653
 6157POPC   C1B17371  42.249  32.781   8.553
 6157POPC   C2B17372  42.285  32.803   8.253
 6157POPC   C3B17373  42.255  32.807   7.953
 6157POPC   C4B17374  42.315  32.822   7.653
 6158POPC   NC317375  23.717  19.873   9.453
 6158POPC   PO417376  23.709  19.795   9.153
 6158POPC   GL117377  23.751  19.826   8.853
 6158POPC   GL217378  23.585  19.883   8.853
 6158POPC   C1A17379  23.728  19.824   8.553
 6158POPC   D2A17380  23.699  19.877   8.253
 6158POPC   C3A17381  23.680  19.849   7.953
 6158POPC   C4A17382  23.721  19.799   7.653
 6158POPC   C1B17383  23.496  19.833   8.553
 6158POPC   C2B17384  23.470  19.896   8.253
 6158POPC   C3B17385  23.435  19.899   7.953
 6158POPC   C4B17386  23.434  19.899   7.653
 6159POPC   NC317387  20.586   1.230   9.453
 6159POPC   PO417388  20.633   1.197   9.153
 6159POPC   GL117389  20.591   1.258   8.853
 6159POPC   GL217390  20.756   1.251   8.853
 6159POPC   C1A17391  20.612   1.261   8.553
 6159POPC   D2A17392  20.641   1.199   8.253
 6159POPC   C3A17393  20.636   1.178   7.953
 6159POPC   C4A17394  20.592   1.235   7.653
 6159POPC   C1B17395  20.856   1.325   8.553
 6159POPC   C2B17396  20.879   1.316   8.253
 6159POPC   C3B17397  20.823   1.326   7.953
 6159POPC   C4B17398  20.828   1.332   7.653
 6160POPC   NC317399   5.846   8.156   9.453
 6160POPC   PO417400   5.838   8.214   9.153
 6160POPC   GL117401   5.911   8.160   8.853
 6160POPC   GL217402   5.754   8.221   8.853
 6160POPC   C1A17403   5.827   8.169   8.553
 6160POPC   D2A17404   5.855   8.208   8.253
 6160POPC   C3A17405   5.874   8.246   7.953
 6160POPC   C4A17406   5.857   8.165   7.653
 6160POPC   C1B17407   5.637   8.275   8.553
 6160POPC   C2B17408   5.619   8.266   8.253
 6160POPC   C3B17409   5.625   8.215   7.953
 6160POPC   C4B17410   5.597   8.228   7.653
 6161POPC   NC317411  28.416  36.952   9.453
 6161POPC   PO417412  28.405  36.929   9.153
 6161POPC   GL117413  28.414  36.897   8.853
 6161POPC   GL217414  28.280  37.030   8.853
 6161POPC   C1A17415  28.342  36.886   8.553
 6161POPC   D2A17416  28.341  36.947   8.253
 6161POPC   C3A17417  28.386  36.896   7.953
 6161POPC   C4A17418  28.334  36.927   7.653
 6161POPC   C1B17419  28.150  37.118   8.553
 6161POPC   C2B17420  28.140  37.061   8.253
 6161POPC   C3B17421  28.228  37.092   7.953
 6161POPC   C4B17422  28.186  37.046   7.653
 6162POPC   NC317423  14.389  29.118   9.453
 6162POPC   PO417424  14.412  29.106   9.153
 6162POPC   GL117425  14.394  29.156   8.853
 6162POPC   GL217426  14.529  29.083   8.853
 6162POPC   C1A17427  14.438  29.147   8.553
 6162POPC   D2A17428  14.393  29.113   8.253
 6162POPC   C3A17429  14.399  29.108   7.953
 6162POPC   C4A17430  14.451  29.108   7.653
 6162POPC   C1B17431  14.515  28.906   8.553
 6162POPC   C2B17432  14.591  28.948   8.253
 6162POPC   C3B17433  14.595  28.917   7.953
 6162POPC   C4B17434  14.580  28.923   7.653
 6163POPC   NC317435  17.533  20.563   9.453
 6163POPC   PO417436  17.500  20.607   9.153
 6163POPC   GL117437  17.485  20.657   8.853
 6163POPC   GL217438  17.421  20.526   8.853
 6163POPC   C1A17439  17.464  20.593   8.553
 6163POPC   D2A17440  17.495  20.598   8.253
 6163POPC   C3A17441  17.528  20.579   7.953
 6163POPC   C4A17442  17.530  20.635   7.653
 6163POPC   C1B17443  17.319  20.394   8.553
 6163POPC   C2B17444  17.365  20.463   8.253
 6163POPC   C3B17445  17.291  20.381   7.953
 6163POPC   C4B17446  17.373  20.417   7.653
 6164POPC   NC317447  27.580  23.718   9.453
 6164POPC   PO417448  27.553  23.752   9.153
 6164POPC   GL117449  27.620  23.706   8.853
 6164POPC   GL217450  27.498  23.745   8.853
 6164POPC   C1A17451  27.572  23.716   8.553
 6164POPC   D2A17452  27.574  23.686   8.253
 6164POPC   C3A17453  27.624  23.672   7.953
 6164POPC   C4A17454  27.604  23.712   7.653
 6164POPC   C1B17455  27.296  23.655   8.553
 6164POPC   C2B17456  27.319  23.728   8.253
 6164POPC   C3B17457  27.352  23.662   7.953
 6164POPC   C4B17458  27.381  23.671   7.653
 6165POPC   NC317459  12.855  41.568   9.453
 6165POPC   PO417460  12.852  41.513   9.153
 6165POPC   GL117461  12.857  41.578   8.853
 6165POPC   GL217462  12.998  41.635   8.853
 6165POPC   C1A17463  12.814  41.570   8.553
 6165POPC   D2A17464  12.892  41.598   8.253
 6165POPC   C3A17465  12.889  41.540   7.953
 6165POPC   C4A17466  12.881  41.511   7.653
 6165POPC   C1B17467  13.070  41.751   8.553
 6165POPC   C2B17468  13.029  41.708   8.253
 6165POPC   C3B17469  13.029  41.668   7.953
 6165POPC   C4B17470  13.047  41.677   7.653
 6166POPC   NC317471  11.294  42.317   9.453
 6166POPC   PO417472  11.263  42.329   9.153
 6166POPC   GL117473  11.346  42.377   8.853
 6166POPC   GL217474  11.162  42.333   8.853
 6166POPC   C1A17475  11.342  42.329   8.553
 6166POPC   D2A17476  11.257  42.379   8.253
 6166POPC   C3A17477  11.324  42.347   7.953
 6166POPC   C4A17478  11.301  42.342   7.653
 6166POPC   C1B17479  11.085  42.267   8.553
 6166POPC   C2B17480  11.087  42.269   8.253
 6166POPC   C3B17481  11.096  42.224   7.953
 6166POPC   C4B17482  11.075  42.283   7.653
 6167POPC   NC317483  39.238  35.355   9.453
 6167POPC   PO417484  39.199  35.309   9.153
 6167POPC   GL117485  39.230  35.309   8.853
 6167POPC   GL217486  39.230  35.460   8.853
 6167POPC   C1A17487  39.270  35.309   8.553
 6167POPC   D2A17488  39.232  35.340   8.253
 6167POPC   C3A17489  39.257  35.388   7.953
 6167POPC   C4A17490  39.219  35.373   7.653
 6167POPC   C1B17491  39.236  35.571   8.553
 6167POPC   C2B17492  39.243  35.565   8.253
 6167POPC   C3B17493  39.214  35.613   7.953
 6167POPC   C4B17494  39.201  35.563   7.653
 6168POPC   NC317495   8.232  19.044   9.453
 6168POPC   PO417496   8.245  19.108   9.153
 6168POPC   GL117497   8.168  19.021   8.853
 6168POPC   GL217498   8.214  19.160   8.853
 6168POPC   C1A17499   8.196  19.036   8.553
 6168POPC   D2A17500   8.218  19.021   8.253
 6168POPC   C3A17501   8.211  19.081   7.953
 6168POPC   C4A17502   8.209  19.085   7.653
 6168POPC   C1B17503   8.224  19.326   8.553
 6168POPC   C2B17504   8.228  19.296   8.253
 6168POPC   C3B17505   8.241  19.349   7.953
 6168POPC   C4B17506   8.241  19.316   7.653
 6169POPC   NC317507  18.235  40.825   9.453
 6169POPC   PO417508  18.302  40.811   9.153
 6169POPC   GL117509  18.241  40.801   8.853
 6169POPC   GL217510  18.304  40.693   8.853
 6169POPC   C1A17511  18.327  40.758   8.553
 6169POPC   D2A17512  18.246  40.824   8.253
 6169POPC   C3A17513  18.311  40.754   7.953
 6169POPC   C4A17514  18.295  40.743   7.653
 6169POPC   C1B17515  18.319  40.577   8.553
 6169POPC   C2B17516  18.324  40.499   8.253
 6169POPC   C3B17517  18.358  40.541   7.953
 6169POPC   C4B17518  18.352  40.550   7.653
 6170POPC   NC317519  41.518  43.925   9.453
 6170POPC   PO417520  41.597  43.838   9.153
 6170POPC   GL117521  41.580  43.919   8.853
 6170POPC   GL217522  41.396  43.903   8.853
 6170POPC   C1A17523  41.554  43.879   8.553
 6170POPC   D2A17524  41.519  43.840   8.253
 6170POPC   C3A17525  41.599  43.885   7.953
 6170POPC   C4A17526  41.568  43.876   7.653
 6170POPC   C1B17527  41.284  43.956   8.553
 6170POPC   C2B17528  41.346  43.884   8.253
 6170POPC   C3B17529  41.280  43.900   7.953
 6170POPC   C4B17530  41.303  43.941   7.653
 6171POPC   NC317531  21.409  12.037   9.453
 6171POPC   PO417532  21.370  12.104   9.153
 6171POPC   GL117533  21.373  12.120   8.853
 6171POPC   GL217534  21.473  12.186   8.853
 6171POPC   C1A17535  21.418  12.094   8.553
 6171POPC   D2A17536  21.372  12.035   8.253
 6171POPC   C3A17537  21.347  12.046   7.953
 6171POPC   C4A17538  21.339  12.094   7.653
 6171POPC   C1B17539  21.584  12.278   8.553
 6171POPC   C2B17540  21.581  12.200   8.253
 6171POPC   C3B17541  21.536  12.205   7.953
 6171POPC   C4B17542  21.633  12.277   7.653
 6172POPC   NC317543   2.012  35.331   9.453
 6172POPC   PO417544   1.953  35.391   9.153
 6172POPC   GL117545   1.984  35.321   8.853
 6172POPC   GL217546   1.854  35.379   8.853
 6172POPC   C1A17547   1.997  35.304   8.553
 6172POPC   D2A17548   1.979  35.311   8.253
 6172POPC   C3A17549   2.029  35.357   7.953
 6172POPC   C4A17550   2.015  35.376   7.653
 6172POPC   C1B17551   1.775  35.266   8.553
 6172POPC   C2B17552   1.700  35.349   8.253
 6172POPC   C3B17553   1.775  35.316   7.953
 6172POPC   C4B17554   1.743  35.320   7.653
 6173POPC   NC317555  16.756  30.707   9.453
 6173POPC   PO417556  16.693  30.673   9.153
 6173POPC   GL117557  16.691  30.678   8.853
 6173POPC   GL217558  16.830  30.635   8.853
 6173POPC   C1A17559  16.707  30.746   8.553
 6173POPC   D2A17560  16.703  30.741   8.253
 6173POPC   C3A17561  16.715  30.719   7.953
 6173POPC   C4A17562  16.738  30.744   7.653
 6173POPC   C1B17563  16.942  30.641   8.553
 6173POPC   C2B17564  16.985  30.646   8.253
 6173POPC   C3B17565  17.018  30.617   7.953
 6173POPC   C4B17566  16.974  30.605   7.653
 6174POPC   NC317567  18.285  26.018   9.453
 6174POPC   PO417568  18.239  26.056   9.153
 6174POPC   GL117569  18.264  26.075   8.853
 6174POPC   GL217570  18.387  25.899   8.853
 6174POPC   C1A17571  18.330  26.056   8.553
 6174POPC   D2A17572  18.312  26.012   8.253
 6174POPC   C3A17573  18.285  26.015   7.953
 6174POPC   C4A17574  18.287  25.992   7.653
 6174POPC   C1B17575  18.405  25.846   8.553
 6174POPC   C2B17576  18.423  25.794   8.253
 6174POPC   C3B17577  18.412  25.883   7.953
 6174POPC   C4B17578  18.438  25.793   7.653
 6175POPC   NC317579   7.443  22.931   9.453
 6175POPC   PO417580   7.405  22.900   9.153
 6175POPC   GL117581   7.380  22.918   8.853
 6175POPC   GL217582   7.419  22.825   8.853
 6175POPC   C1A17583   7.389  22.906   8.553
 6175POPC   D2A17584   7.372  22.919   8.253
 6175POPC   C3A17585   7.392  22.933   7.953
 6175POPC   C4A17586   7.454  22.938   7.653
 6175POPC   C1B17587   7.345  22.684   8.553
 6175POPC   C2B17588   7.374  22.695   8.253
 6175POPC   C3B17589   7.355  22.672   7.953
 6175POPC   C4B17590   7.432  22.677   7.653
 6176POPC   NC317591  26.837  14.423   9.453
 6176POPC   PO417592  26.801  14.387   9.153
 6176POPC   GL117593  26.833  14.356   8.853
 6176POPC   GL217594  26.673  14.362   8.853
 6176POPC   C1A17595  26.831  14.447   8.553
 6176POPC   D2A17596  26.786  14.444   8.253
 6176POPC   C3A17597  26.780  14.365   7.953
 6176POPC   C4A17598  26.786  14.399   7.653
 6176POPC   C1B17599  26.577  14.366   8.553
 6176POPC   C2B17600  26.582  14.378   8.253
 6176POPC   C3B17601  26.622  14.379   7.953
 6176POPC   C4B17602  26.606  14.347   7.653
 6177POPC   NC317603   1.981  19.080   9.453
 6177POPC   PO417604   2.036  19.108   9.153
 6177POPC   GL117605   1.976  19.010   8.853
 6177POPC   GL217606   1.893  18.945   8.853
 6177POPC   C1A17607   1.947  19.097   8.553
 6177POPC   D2A17608   1.976  19.099   8.253
 6177POPC   C3A17609   1.941  19.027   7.953
 6177POPC   C4A17610   1.984  19.011   7.653
 6177POPC   C1B17611   1.828  18.878   8.553
 6177POPC   C2B17612   1.821  18.858   8.253
 6177POPC   C3B17613   1.876  18.803   7.953
 6177POPC   C4B17614   1.837  18.856   7.653
 6178POPC   NC317615   1.183  16.754   9.453
 6178POPC   PO417616   1.230  16.753   9.153
 6178POPC   GL117617   1.181  16.710   8.853
 6178POPC   GL217618   1.279  16.574   8.853
 6178POPC   C1A17619   1.190  16.745   8.553
 6178POPC   D2A17620   1.253  16.780   8.253
 6178POPC   C3A17621   1.212  16.693   7.953
 6178POPC   C4A17622   1.237  16.762   7.653
 6178POPC   C1B17623   1.321  16.536   8.553
 6178POPC   C2B17624   1.234  16.517   8.253
 6178POPC   C3B17625   1.300  16.443   7.953
 6178POPC   C4B17626   1.315  16.448   7.653
 6179POPC   NC317627   0.439  35.366   9.453
 6179POPC   PO417628   0.400  35.314   9.153
 6179POPC   GL117629   0.471  35.308   8.853
 6179POPC   GL217630   0.474  35.459   8.853
 6179POPC   C1A17631   0.396  35.372   8.553
 6179POPC   D2A17632   0.463  35.349   8.253
 6179POPC   C3A17633   0.467  35.368   7.953
 6179POPC   C4A17634   0.453  35.347   7.653
 6179POPC   C1B17635   0.611  35.513   8.553
 6179POPC   C2B17636   0.598  35.538   8.253
 6179POPC   C3B17637   0.617  35.581   7.953
 6179POPC   C4B17638   0.618  35.525   7.653
 6180POPC   NC317639   2.731  15.910   9.453
 6180POPC   PO417640   2.809  15.953   9.153
 6180POPC   GL117641   2.755  15.955   8.853
 6180POPC   GL217642   2.809  15.877   8.853
 6180POPC   C1A17643   2.765  15.916   8.553
 6180POPC   D2A17644   2.745  16.002   8.253
 6180POPC   C3A17645   2.734  15.991   7.953
 6180POPC   C4A17646   2.722  15.997   7.653
 6180POPC   C1B17647   2.959  15.765   8.553
 6180POPC   C2B17648   2.903  15.790   8.253
 6180POPC   C3B17649   2.945  15.720   7.953
 6180POPC   C4B17650   2.940  15.780   7.653
 6181POPC   NC317651   2.728   9.786   9.453
 6181POPC   PO417652   2.794   9.766   9.153
 6181POPC   GL117653   2.740   9.797   8.853
 6181POPC   GL217654   2.726   9.885   8.853
 6181POPC   C1A17655   2.814   9.756   8.553
 6181POPC   D2A17656   2.812   9.723   8.253
 6181POPC   C3A17657   2.725   9.711   7.953
 6181POPC   C4A17658   2.792   9.772   7.653
 6181POPC   C1B17659   2.706  10.047   8.553
 6181POPC   C2B17660   2.788   9.984   8.253
 6181POPC   C3B17661   2.700  10.021   7.953
 6181POPC   C4B17662   2.787   9.993   7.653
 6182POPC   NC317663  11.348  28.347   9.453
 6182POPC   PO417664  11.297  28.342   9.153
 6182POPC   GL117665  11.301  28.385   8.853
 6182POPC   GL217666  11.378  28.236   8.853
 6182POPC   C1A17667  11.345  28.356   8.553
 6182POPC   D2A17668  11.308  28.340   8.253
 6182POPC   C3A17669  11.262  28.390   7.953
 6182POPC   C4A17670  11.302  28.406   7.653
 6182POPC   C1B17671  11.479  28.214   8.553
 6182POPC   C2B17672  11.510  28.187   8.253
 6182POPC   C3B17673  11.454  28.225   7.953
 6182POPC   C4B17674  11.510  28.180   7.653
 6183POPC   NC317675  43.099  30.666   9.453
 6183POPC   PO417676  43.107  30.716   9.153
 6183POPC   GL117677  43.071  30.667   8.853
 6183POPC   GL217678  42.953  30.716   8.853
 6183POPC   C1A17679  43.133  30.737   8.553
 6183POPC   D2A17680  43.129  30.697   8.253
 6183POPC   C3A17681  43.113  30.721   7.953
 6183POPC   C4A17682  43.073  30.683   7.653
 6183POPC   C1B17683  42.877  30.724   8.553
 6183POPC   C2B17684  42.909  30.662   8.253
 6183POPC   C3B17685  42.829  30.678   7.953
 6183POPC   C4B17686  42.811  30.718   7.653
 6184POPC   NC317687  17.502  29.149   9.453
 6184POPC   PO417688  17.478  29.154   9.153
 6184POPC   GL117689  17.534  29.102   8.853
 6184POPC   GL217690  17.613  29.281   8.853
 6184POPC   C1A17691  17.499  29.178   8.553
 6184POPC   D2A17692  17.480  29.105   8.253
 6184POPC   C3A17693  17.471  29.176   7.953
 6184POPC   C4A17694  17.475  29.115   7.653
 6184POPC   C1B17695  17.726  29.289   8.553
 6184POPC   C2B17696  17.692  29.347   8.253
 6184POPC   C3B17697  17.679  29.333   7.953
 6184POPC   C4B17698  17.637  29.349   7.653
 6185POPC   NC317699  26.030  23.674   9.453
 6185POPC   PO417700  26.027  23.758   9.153
 6185POPC   GL117701  26.058  23.710   8.853
 6185POPC   GL217702  25.968  23.675   8.853
 6185POPC   C1A17703  26.018  23.721   8.553
 6185POPC   D2A17704  26.023  23.676   8.253
 6185POPC   C3A17705  25.995  23.691   7.953
 6185POPC   C4A17706  26.039  23.722   7.653
 6185POPC   C1B17707  25.832  23.627   8.553
 6185POPC   C2B17708  25.815  23.647   8.253
 6185POPC   C3B17709  25.764  23.673   7.953
 6185POPC   C4B17710  25.766  23.695   7.653
 6186POPC   NC317711  25.275   8.179   9.453
 6186POPC   PO417712  25.256   8.209   9.153
 6186POPC   GL117713  25.271   8.168   8.853
 6186POPC   GL217714  25.406   8.306   8.853
 6186POPC   C1A17715  25.236   8.172   8.553
 6186POPC   D2A17716  25.272   8.156   8.253
 6186POPC   C3A17717  25.289   8.165   7.953
 6186POPC   C4A17718  25.246   8.215   7.653
 6186POPC   C1B17719  25.455   8.350   8.553
 6186POPC   C2B17720  25.477   8.350   8.253
 6186POPC   C3B17721  25.441   8.271   7.953
 6186POPC   C4B17722  25.494   8.366   7.653
 6187POPC   NC317723  28.329  23.684   9.453
 6187POPC   PO417724  28.397  23.667   9.153
 6187POPC   GL117725  28.345  23.705   8.853
 6187POPC   GL217726  28.274  23.793   8.853
 6187POPC   C1A17727  28.351  23.701   8.553
 6187POPC   D2A17728  28.356  23.737   8.253
 6187POPC   C3A17729  28.413  23.752   7.953
 6187POPC   C4A17730  28.377  23.707   7.653
 6187POPC   C1B17731  28.173  23.832   8.553
 6187POPC   C2B17732  28.147  23.904   8.253
 6187POPC   C3B17733  28.144  23.863   7.953
 6187POPC   C4B17734  28.197  23.874   7.653
 6188POPC   NC317735  12.880  43.927   9.453
 6188POPC   PO417736  12.819  43.846   9.153
 6188POPC   GL117737  12.859  43.893   8.853
 6188POPC   GL217738  12.815  43.726   8.853
 6188POPC   C1A17739  12.838  43.917   8.553
 6188POPC   D2A17740  12.813  43.923   8.253
 6188POPC   C3A17741  12.848  43.842   7.953
 6188POPC   C4A17742  12.897  43.893   7.653
 6188POPC   C1B17743  12.836  43.675   8.553
 6188POPC   C2B17744  12.859  43.631   8.253
 6188POPC   C3B17745  12.825  43.606   7.953
 6188POPC   C4B17746  12.799  43.633   7.653
 6189POPC   NC317747  19.821  37.708   9.453
 6189POPC   PO417748  19.834  37.726   9.153
 6189POPC   GL117749  19.804  37.684   8.853
 6189POPC   GL217750  19.768  37.608   8.853
 6189POPC   C1A17751  19.830  37.719   8.553
 6189POPC   D2A17752  19.792  37.652   8.253
 6189POPC   C3A17753  19.812  37.698   7.953
 6189POPC   C4A17754  19.878  37.669   7.653
 6189POPC   C1B17755  19.673  37.441   8.553
 6189POPC   C2B17756  19.651  37.460   8.253
 6189POPC   C3B17757  19.712  37.440   7.953
 6189POPC   C4B17758  19.730  37.516   7.653
 6190POPC   NC317759  39.994  10.516   9.453
 6190POPC   PO417760  40.004  10.555   9.153
 6190POPC   GL117761  39.986  10.526   8.853
 6190POPC   GL217762  40.069  10.636   8.853
 6190POPC   C1A17763  40.052  10.512   8.553
 6190POPC   D2A17764  39.984  10.505   8.253
 6190POPC   C3A17765  39.989  10.529   7.953
 6190POPC   C4A17766  39.991  10.534   7.653
 6190POPC   C1B17767  40.199  10.668   8.553
 6190POPC   C2B17768  40.143  10.684   8.253
 6190POPC   C3B17769  40.206  10.701   7.953
 6190POPC   C4B17770  40.176  10.681   7.653
 6191POPC   NC317771  28.388  24.519   9.453
 6191POPC   PO417772  28.400  24.520   9.153
 6191POPC   GL117773  28.379  24.501   8.853
 6191POPC   GL217774  28.287  24.580   8.853
 6191POPC   C1A17775  28.384  24.535   8.553
 6191POPC   D2A17776  28.384  24.530   8.253
 6191POPC   C3A17777  28.376  24.463   7.953
 6191POPC   C4A17778  28.326  24.533   7.653
 6191POPC   C1B17779  28.175  24.643   8.553
 6191POPC   C2B17780  28.108  24.600   8.253
 6191POPC   C3B17781  28.182  24.552   7.953
 6191POPC   C4B17782  28.177  24.580   7.653
 6192POPC   NC317783   7.459  36.151   9.453
 6192POPC   PO417784   7.416  36.147   9.153
 6192POPC   GL117785   7.420  36.089   8.853
 6192POPC   GL217786   7.376  36.208   8.853
 6192POPC   C1A17787   7.398  36.094   8.553
 6192POPC   D2A17788   7.377  36.158   8.253
 6192POPC   C3A17789   7.386  36.088   7.953
 6192POPC   C4A17790   7.388  36.097   7.653
 6192POPC   C1B17791   7.246  36.344   8.553
 6192POPC   C2B17792   7.190  36.311   8.253
 6192POPC   C3B17793   7.256  36.318   7.953
 6192POPC   C4B17794   7.217  36.278   7.653
 6193POPC   NC317795  15.215   5.842   9.453
 6193POPC   PO417796  15.179   5.844   9.153
 6193POPC   GL117797  15.134   5.881   8.853
 6193POPC   GL217798  15.245   5.921   8.853
 6193POPC   C1A17799  15.224   5.904   8.553
 6193POPC   D2A17800  15.148   5.852   8.253
 6193POPC   C3A17801  15.213   5.902   7.953
 6193POPC   C4A17802  15.198   5.833   7.653
 6193POPC   C1B17803  15.396   5.962   8.553
 6193POPC   C2B17804  15.409   6.003   8.253
 6193POPC   C3B17805  15.443   5.922   7.953
 6193POPC   C4B17806  15.440   5.934   7.653
 6194POPC   NC317807  17.491  22.204   9.453
 6194POPC   PO417808  17.484  22.168   9.153
 6194POPC   GL117809  17.537  22.170   8.853
 6194POPC   GL217810  17.456  22.310   8.853
 6194POPC   C1A17811  17.512  22.192   8.553
 6194POPC   D2A17812  17.526  22.168   8.253
 6194POPC   C3A17813  17.464  22.208   7.953
 6194POPC   C4A17814  17.528  22.115   7.653
 6194POPC   C1B17815  17.445  22.445   8.553
 6194POPC   C2B17816  17.417  22.431   8.253
 6194POPC   C3B17817  17.393  22.413   7.953
 6194POPC   C4B17818  17.397  22.358   7.653
 6195POPC   NC317819  17.485   7.465   9.453
 6195POPC   PO417820  17.511   7.441   9.153
 6195POPC   GL117821  17.466   7.442   8.853
 6195POPC   GL217822  17.412   7.367   8.853
 6195POPC   C1A17823  17.499   7.430   8.553
 6195POPC   D2A17824  17.467   7.471   8.253
 6195POPC   C3A17825  17.553   7.447   7.953
 6195POPC   C4A17826  17.458   7.426   7.653
 6195POPC   C1B17827  17.277   7.283   8.553
 6195POPC   C2B17828  17.247   7.342   8.253
 6195POPC   C3B17829  17.316   7.344   7.953
 6195POPC   C4B17830  17.253   7.261   7.653
 6196POPC   NC317831  40.789   4.300   9.453
 6196POPC   PO417832  40.741   4.332   9.153
 6196POPC   GL117833  40.817   4.366   8.853
 6196POPC   GL217834  40.711   4.458   8.853
 6196POPC   C1A17835  40.816   4.276   8.553
 6196POPC   D2A17836  40.737   4.360   8.253
 6196POPC   C3A17837  40.771   4.301   7.953
 6196POPC   C4A17838  40.826   4.343   7.653
 6196POPC   C1B17839  40.692   4.497   8.553
 6196POPC   C2B17840  40.623   4.482   8.253
 6196POPC   C3B17841  40.684   4.567   7.953
 6196POPC   C4B17842  40.649   4.488   7.653
 6197POPC   NC317843  19.813   9.711   9.453
 6197POPC   PO417844  19.797   9.774   9.153
 6197POPC   GL117845  19.821   9.732   8.853
 6197POPC   GL217846  19.955   9.810   8.853
 6197POPC   C1A17847  19.846   9.763   8.553
 6197POPC   D2A17848  19.872   9.713   8.253
 6197POPC   C3A17849  19.871   9.701   7.953
 6197POPC   C4A17850  19.823   9.716   7.653
 6197POPC   C1B17851  20.036   9.874   8.553
 6197POPC   C2B17852  20.088   9.879   8.253
 6197POPC   C3B17853  20.044   9.869   7.953
 6197POPC   C4B17854  20.056   9.875   7.653
 6198POPC   NC317855  43.079  25.216   9.453
 6198POPC   PO417856  43.081  25.222   9.153
 6198POPC   GL117857  43.092  25.232   8.853
 6198POPC   GL217858  43.238  25.172   8.853
 6198POPC   C1A17859  43.127  25.222   8.553
 6198POPC   D2A17860  43.121  25.281   8.253
 6198POPC   C3A17861  43.159  25.282   7.953
 6198POPC   C4A17862  43.146  25.222   7.653
 6198POPC   C1B17863  43.309  25.166   8.553
 6198POPC   C2B17864  43.298  25.132   8.253
 6198POPC   C3B17865  43.287  25.148   7.953
 6198POPC   C4B17866  43.332  25.113   7.653
 6199POPC   NC317867  21.358  15.215   9.453
 6199POPC   PO417868  21.369  15.131   9.153
 6199POPC   GL117869  21.350  15.178   8.853
 6199POPC   GL217870  21.324  15.092   8.853
 6199POPC   C1A17871  21.369  15.192   8.553
 6199POPC   D2A17872  21.381  15.165   8.253
 6199POPC   C3A17873  21.339  15.168   7.953
 6199POPC   C4A17874  21.378  15.195   7.653
 6199POPC   C1B17875  21.289  14.932   8.553
 6199POPC   C2B17876  21.284  14.957   8.253
 6199POPC   C3B17877  21.294  14.989   7.953
 6199POPC   C4B17878  21.282  14.996   7.653
 6200POPC   NC317879  18.250  12.091   9.453
 6200POPC   PO417880  18.241  12.123   9.153
 6200POPC   GL117881  18.287  12.080   8.853
 6200POPC   GL217882  18.422  12.111   8.853
 6200POPC   C1A17883  18.305  12.085   8.553
 6200POPC   D2A17884  18.307  12.085   8.253
 6200POPC   C3A17885  18.319  12.033   7.953
 6200POPC   C4A17886  18.266  12.086   7.653
 6200POPC   C1B17887  18.489  12.147   8.553
 6200POPC   C2B17888  18.493  12.096   8.253
 6200POPC   C3B17889  18.525  12.083   7.953
 6200POPC   C4B17890  18.495  12.164   7.653
 6201POPC   NC317891  18.267  33.069   9.453
 6201POPC   PO417892  18.244  33.063   9.153
 6201POPC   GL117893  18.252  33.032   8.853
 6201POPC   GL217894  18.381  32.886   8.853
 6201POPC   C1A17895  18.284  33.014   8.553
 6201POPC   D2A17896  18.284  32.989   8.253
 6201POPC   C3A17897  18.239  33.026   7.953
 6201POPC   C4A17898  18.304  33.047   7.653
 6201POPC   C1B17899  18.484  32.824   8.553
 6201POPC   C2B17900  18.441  32.833   8.253
 6201POPC   C3B17901  18.444  32.849   7.953
 6201POPC   C4B17902  18.505  32.864   7.653
 6202POPC   NC317903  26.861  36.105   9.453
 6202POPC   PO417904  26.769  36.104   9.153
 6202POPC   GL117905  26.838  36.107   8.853
 6202POPC   GL217906  26.837  36.002   8.853
 6202POPC   C1A17907  26.859  36.151   8.553
 6202POPC   D2A17908  26.861  36.131   8.253
 6202POPC   C3A17909  26.820  36.153   7.953
 6202POPC   C4A17910  26.838  36.140   7.653
 6202POPC   C1B17911  26.912  35.955   8.553
 6202POPC   C2B17912  26.958  35.896   8.253
 6202POPC   C3B17913  26.981  35.938   7.953
 6202POPC   C4B17914  26.995  35.924   7.653
 6203POPC   NC317915  43.124  20.655   9.453
 6203POPC   PO417916  43.138  20.624   9.153
 6203POPC   GL117917  43.064  20.597   8.853
 6203POPC   GL217918  43.237  20.685   8.853
 6203POPC   C1A17919  43.135  20.640   8.553
 6203POPC   D2A17920  43.070  20.647   8.253
 6203POPC   C3A17921  43.079  20.571   7.953
 6203POPC   C4A17922  43.077  20.570   7.653
 6203POPC   C1B17923  43.262  20.779   8.553
 6203POPC   C2B17924  43.235  20.776   8.253
 6203POPC   C3B17925  43.248  20.809   7.953
 6203POPC   C4B17926  43.276  20.758   7.653
 6204POPC   NC317927  37.685  29.880   9.453
 6204POPC   PO417928  37.703  29.903   9.153
 6204POPC   GL117929  37.701  29.952   8.853
 6204POPC   GL217930  37.767  30.025   8.853
 6204POPC   C1A17931  37.639  29.896   8.553
 6204POPC   D2A17932  37.653  29.951   8.253
 6204POPC   C3A17933  37.693  29.937   7.953
 6204POPC   C4A17934  37.654  29.917   7.653
 6204POPC   C1B17935  37.807  30.125   8.553
 6204POPC   C2B17936  37.805  30.133   8.253
 6204POPC   C3B17937  37.745  30.139   7.953
 6204POPC   C4B17938  37.789  30.181   7.653
 6205POPC   NC317939  14.433   9.018   9.453
 6205POPC   PO417940  14.374   9.001   9.153
 6205POPC   GL117941  14.420   9.007   8.853
 6205POPC   GL217942  14.441   8.830   8.853
 6205POPC   C1A17943  14.451   8.981   8.553
 6205POPC   D2A17944  14.361   9.008   8.253
 6205POPC   C3A17945  14.408   9.002   7.953
 6205POPC   C4A17946  14.439   9.020   7.653
 6205POPC   C1B17947  14.527   8.771   8.553
 6205POPC   C2B17948  14.482   8.743   8.253
 6205POPC   C3B17949  14.509   8.774   7.953
 6205POPC   C4B17950  14.500   8.702   7.653
 6206POPC   NC317951  43.064  32.294   9.453
 6206POPC   PO417952  43.101  32.274   9.153
 6206POPC   GL117953  43.137  32.248   8.853
 6206POPC   GL217954  43.245  32.236   8.853
 6206POPC   C1A17955  43.159  32.276   8.553
 6206POPC   D2A17956  43.129  32.250   8.253
 6206POPC   C3A17957  43.086  32.295   7.953
 6206POPC   C4A17958  43.128  32.277   7.653
 6206POPC   C1B17959  43.345  32.164   8.553
 6206POPC   C2B17960  43.333  32.188   8.253
 6206POPC   C3B17961  43.386  32.212   7.953
 6206POPC   C4B17962  43.314  32.224   7.653
 6207POPC   NC317963  36.880   9.716   9.453
 6207POPC   PO417964  36.873   9.730   9.153
 6207POPC   GL117965  36.897   9.745   8.853
 6207POPC   GL217966  36.968   9.831   8.853
 6207POPC   C1A17967  36.897   9.777   8.553
 6207POPC   D2A17968  36.869   9.779   8.253
 6207POPC   C3A17969  36.865   9.699   7.953
 6207POPC   C4A17970  36.914   9.797   7.653
 6207POPC   C1B17971  37.157   9.860   8.553
 6207POPC   C2B17972  37.077   9.843   8.253
 6207POPC   C3B17973  37.075   9.911   7.953
 6207POPC   C4B17974  37.149   9.840   7.653
 6208POPC   NC317975  13.602   9.790   9.453
 6208POPC   PO417976  13.604   9.758   9.153
 6208POPC   GL117977  13.610   9.754   8.853
 6208POPC   GL217978  13.639   9.622   8.853
 6208POPC   C1A17979  13.667   9.768   8.553
 6208POPC   D2A17980  13.604   9.757   8.253
 6208POPC   C3A17981  13.637   9.771   7.953
 6208POPC   C4A17982  13.612   9.743   7.653
 6208POPC   C1B17983  13.726   9.499   8.553
 6208POPC   C2B17984  13.693   9.522   8.253
 6208POPC   C3B17985  13.702   9.464   7.953
 6208POPC   C4B17986  13.674   9.471   7.653
 6209POPC   NC317987  42.325   6.606   9.453
 6209POPC   PO417988  42.291   6.672   9.153
 6209POPC   GL117989  42.342   6.691   8.853
 6209POPC   GL217990  42.259   6.701   8.853
 6209POPC   C1A17991  42.318   6.635   8.553
 6209POPC   D2A17992  42.304   6.621   8.253
 6209POPC   C3A17993  42.365   6.613   7.953
 6209POPC   C4A17994  42.330   6.607   7.653
 6209POPC   C1B17995  42.088   6.706   8.553
 6209POPC   C2B17996  42.147   6.793   8.253
 6209POPC   C3B17997  42.066   6.768   7.953
 6209POPC   C4B17998  42.149   6.743   7.653
 6210POPC   NC317999  43.141  17.489   9.453
 6210POPC   PO418000  43.089  17.544   9.153
 6210POPC   GL118001  43.096  17.487   8.853
 6210POPC   GL218002  43.214  17.486   8.853
 6210POPC   C1A18003  43.060  17.553   8.553
 6210POPC   D2A18004  43.140  17.524   8.253
 6210POPC   C3A18005  43.105  17.528   7.953
 6210POPC   C4A18006  43.103  17.519   7.653
 6210POPC   C1B18007  43.334  17.458   8.553
 6210POPC   C2B18008  43.388  17.419   8.253
 6210POPC   C3B18009  43.371  17.418   7.953
 6210POPC   C4B18010  43.324  17.440   7.653
 6211POPC   NC318011  31.512  15.201   9.453
 6211POPC   PO418012  31.450  15.216   9.153
 6211POPC   GL118013  31.515  15.208   8.853
 6211POPC   GL218014  31.412  15.292   8.853
 6211POPC   C1A18015  31.503  15.175   8.553
 6211POPC   D2A18016  31.497  15.190   8.253
 6211POPC   C3A18017  31.514  15.184   7.953
 6211POPC   C4A18018  31.451  15.221   7.653
 6211POPC   C1B18019  31.311  15.401   8.553
 6211POPC   C2B18020  31.348  15.325   8.253
 6211POPC   C3B18021  31.317  15.335   7.953
 6211POPC   C4B18022  31.326  15.326   7.653
 6212POPC   NC318023  44.647  33.821   9.453
 6212POPC   PO418024  44.671  33.787   9.153
 6212POPC   GL118025  44.706  33.821   8.853
 6212POPC   GL218026  44.635  33.638   8.853
 6212POPC   C1A18027  44.666  33.759   8.553
 6212POPC   D2A18028  44.652  33.767   8.253
 6212POPC   C3A18029  44.685  33.823   7.953
 6212POPC   C4A18030  44.647  33.835   7.653
 6212POPC   C1B18031  44.651  33.523   8.553
 6212POPC   C2B18032  44.619  33.602   8.253
 6212POPC   C3B18033  44.576  33.582   7.953
 6212POPC   C4B18034  44.601  33.545   7.653
 6213POPC   NC318035  33.016  15.908   9.453
 6213POPC   PO418036  33.018  15.958   9.153
 6213POPC   GL118037  33.048  15.952   8.853
 6213POPC   GL218038  33.024  16.115   8.853
 6213POPC   C1A18039  33.053  15.998   8.553
 6213POPC   D2A18040  33.072  15.954   8.253
 6213POPC   C3A18041  32.984  15.946   7.953
 6213POPC   C4A18042  33.061  15.936   7.653
 6213POPC   C1B18043  33.043  16.249   8.553
 6213POPC   C2B18044  33.026  16.210   8.253
 6213POPC   C3B18045  32.995  16.209   7.953
 6213POPC   C4B18046  33.037  16.234   7.653
 6214POPC   NC318047  27.621  12.104   9.453
 6214POPC   PO418048  27.592  12.027   9.153
 6214POPC   GL118049  27.615  12.093   8.853
 6214POPC   GL218050  27.624  12.002   8.853
 6214POPC   C1A18051  27.594  12.062   8.553
 6214POPC   D2A18052  27.563  12.039   8.253
 6214POPC   C3A18053  27.589  12.031   7.953
 6214POPC   C4A18054  27.583  12.091   7.653
 6214POPC   C1B18055  27.660  11.837   8.553
 6214POPC   C2B18056  27.728  11.878   8.253
 6214POPC   C3B18057  27.750  11.860   7.953
 6214POPC   C4B18058  27.738  11.814   7.653
 6215POPC   NC318059   3.499  22.907   9.453
 6215POPC   PO418060   3.513  22.952   9.153
 6215POPC   GL118061   3.545  22.979   8.853
 6215POPC   GL218062   3.558  23.011   8.853
 6215POPC   C1A18063   3.534  22.973   8.553
 6215POPC   D2A18064   3.503  22.958   8.253
 6215POPC   C3A18065   3.494  22.922   7.953
 6215POPC   C4A18066   3.562  22.892   7.653
 6215POPC   C1B18067   3.601  23.192   8.553
 6215POPC   C2B18068   3.608  23.148   8.253
 6215POPC   C3B18069   3.597  23.167   7.953
 6215POPC   C4B18070   3.650  23.167   7.653
 6216POPC   NC318071  43.135  43.896   9.453
 6216POPC   PO418072  43.157  43.924   9.153
 6216POPC   GL118073  43.126  43.927   8.853
 6216POPC   GL218074  43.014  43.953   8.853
 6216POPC   C1A18075  43.128  43.871   8.553
 6216POPC   D2A18076  43.111  43.895   8.253
 6216POPC   C3A18077  43.064  43.915   7.953
 6216POPC   C4A18078  43.152  43.890   7.653
 6216POPC   C1B18079  42.875  44.076   8.553
 6216POPC   C2B18080  42.903  44.029   8.253
 6216POPC   C3B18081  42.924  44.031   7.953
 6216POPC   C4B18082  42.892  44.023   7.653
 6217POPC   NC318083  32.264   5.108   9.453
 6217POPC   PO418084  32.236   5.082   9.153
 6217POPC   GL118085  32.265   5.108   8.853
 6217POPC   GL218086  32.405   5.095   8.853
 6217POPC   C1A18087  32.293   5.119   8.553
 6217POPC   D2A18088  32.204   5.137   8.253
 6217POPC   C3A18089  32.249   5.045   7.953
 6217POPC   C4A18090  32.239   5.076   7.653
 6217POPC   C1B18091  32.487   5.145   8.553
 6217POPC   C2B18092  32.499   5.121   8.253
 6217POPC   C3B18093  32.525   5.178   7.953
 6217POPC   C4B18094  32.509   5.095   7.653
 6218POPC   NC318095  32.250   9.731   9.453
 6218POPC   PO418096  32.291   9.724   9.153
 6218POPC   GL118097  32.269   9.729   8.853
 6218POPC   GL218098  32.355   9.728   8.853
 6218POPC   C1A18099  32.243   9.777   8.553
 6218POPC   D2A18100  32.248   9.744   8.253
 6218POPC   C3A18101  32.237   9.739   7.953
 6218POPC   C4A18102  32.269   9.780   7.653
 6218POPC   C1B18103  32.548   9.747   8.553
 6218POPC   C2B18104  32.548   9.788   8.253
 6218POPC   C3B18105  32.511   9.727   7.953
 6218POPC   C4B18106  32.469   9.791   7.653
 6219POPC   NC318107  18.240   9.706   9.453
 6219POPC   PO418108  18.266   9.778   9.153
 6219POPC   GL118109  18.254   9.715   8.853
 6219POPC   GL218110  18.194   9.887   8.853
 6219POPC   C1A18111  18.319   9.733   8.553
 6219POPC   D2A18112  18.328   9.798   8.253
 6219POPC   C3A18113  18.327   9.700   7.953
 6219POPC   C4A18114  18.320   9.723   7.653
 6219POPC   C1B18115  18.214  10.021   8.553
 6219POPC   C2B18116  18.207   9.990   8.253
 6219POPC   C3B18117  18.195   9.943   7.953
 6219POPC   C4B18118  18.222  10.018   7.653
 6220POPC   NC318119  19.795  19.027   9.453
 6220POPC   PO418120  19.809  19.103   9.153
 6220POPC   GL118121  19.826  19.042   8.853
 6220POPC   GL218122  19.898  19.163   8.853
 6220POPC   C1A18123  19.843  19.056   8.553
 6220POPC   D2A18124  19.805  19.049   8.253
 6220POPC   C3A18125  19.853  19.059   7.953
 6220POPC   C4A18126  19.855  19.048   7.653
 6220POPC   C1B18127  19.973  19.245   8.553
 6220POPC   C2B18128  20.056  19.228   8.253
 6220POPC   C3B18129  19.974  19.208   7.953
 6220POPC   C4B18130  19.970  19.207   7.653
 6221POPC   NC318131  40.769  29.153   9.453
 6221POPC   PO418132  40.771  29.102   9.153
 6221POPC   GL118133  40.779  29.180   8.853
 6221POPC   GL218134  40.818  29.024   8.853
 6221POPC   C1A18135  40.820  29.152   8.553
 6221POPC   D2A18136  40.772  29.172   8.253
 6221POPC   C3A18137  40.745  29.118   7.953
 6221POPC   C4A18138  40.767  29.177   7.653
 6221POPC   C1B18139  40.882  28.928   8.553
 6221POPC   C2B18140  40.874  28.945   8.253
 6221POPC   C3B18141  40.919  28.967   7.953
 6221POPC   C4B18142  40.956  28.939   7.653
 6222POPC   NC318143   8.998  26.069   9.453
 6222POPC   PO418144   8.946  26.049   9.153
 6222POPC   GL118145   8.956  26.000   8.853
 6222POPC   GL218146   8.929  26.204   8.853
 6222POPC   C1A18147   8.959  26.052   8.553
 6222POPC   D2A18148   8.965  25.992   8.253
 6222POPC   C3A18149   8.998  26.030   7.953
 6222POPC   C4A18150   8.929  26.060   7.653
 6222POPC   C1B18151   8.837  26.312   8.553
 6222POPC   C2B18152   8.897  26.305   8.253
 6222POPC   C3B18153   8.841  26.305   7.953
 6222POPC   C4B18154   8.872  26.247   7.653
 6223POPC   NC318155  43.900  25.310   9.453
 6223POPC   PO418156  43.865  25.294   9.153
 6223POPC   GL118157  43.921  25.234   8.853
 6223POPC   GL218158  43.779  25.178   8.853
 6223POPC   C1A18159  43.895  25.286   8.553
 6223POPC   D2A18160  43.887  25.264   8.253
 6223POPC   C3A18161  43.901  25.286   7.953
 6223POPC   C4A18162  43.840  25.281   7.653
 6223POPC   C1B18163  43.680  25.103   8.553
 6223POPC   C2B18164  43.639  25.109   8.253
 6223POPC   C3B18165  43.629  25.130   7.953
 6223POPC   C4B18166  43.704  25.118   7.653
 6224POPC   NC318167  34.614  19.104   9.453
 6224POPC   PO418168  34.617  19.024   9.153
 6224POPC   GL118169  34.552  19.095   8.853
 6224POPC   GL218170  34.642  18.940   8.853
 6224POPC   C1A18171  34.621  19.100   8.553
 6224POPC   D2A18172  34.571  19.016   8.253
 6224POPC   C3A18173  34.614  19.023   7.953
 6224POPC   C4A18174  34.601  19.047   7.653
 6224POPC   C1B18175  34.724  18.847   8.553
 6224POPC   C2B18176  34.728  18.865   8.253
 6224POPC   C3B18177  34.738  18.800   7.953
 6224POPC   C4B18178  34.718  18.794   7.653
 6225POPC   NC318179  29.882  36.177   9.453
 6225POPC   PO418180  29.961  36.135   9.153
 6225POPC   GL118181  29.904  36.099   8.853
 6225POPC   GL218182  29.902  36.278   8.853
 6225POPC   C1A18183  29.937  36.091   8.553
 6225POPC   D2A18184  29.948  36.100   8.253
 6225POPC   C3A18185  29.915  36.088   7.953
 6225POPC   C4A18186  29.925  36.146   7.653
 6225POPC   C1B18187  29.840  36.371   8.553
 6225POPC   C2B18188  29.768  36.315   8.253
 6225POPC   C3B18189  29.796  36.332   7.953
 6225POPC   C4B18190  29.814  36.340   7.653
 6226POPC   NC318191   5.871  42.341   9.453
 6226POPC   PO418192   5.882  42.352   9.153
 6226POPC   GL118193   5.857  42.332   8.853
 6226POPC   GL218194   5.833  42.180   8.853
 6226POPC   C1A18195   5.885  42.366   8.553
 6226POPC   D2A18196   5.905  42.350   8.253
 6226POPC   C3A18197   5.863  42.348   7.953
 6226POPC   C4A18198   5.890  42.342   7.653
 6226POPC   C1B18199   5.714  42.104   8.553
 6226POPC   C2B18200   5.766  42.101   8.253
 6226POPC   C3B18201   5.714  42.106   7.953
 6226POPC   C4B18202   5.713  42.103   7.653
 6227POPC   NC318203   8.947   3.554   9.453
 6227POPC   PO418204   8.999   3.587   9.153
 6227POPC   GL118205   9.000   3.493   8.853
 6227POPC   GL218206   9.028   3.398   8.853
 6227POPC   C1A18207   9.016   3.544   8.553
 6227POPC   D2A18208   8.925   3.526   8.253
 6227POPC   C3A18209   8.969   3.500   7.953
 6227POPC   C4A18210   8.966   3.501   7.653
 6227POPC   C1B18211   9.069   3.360   8.553
 6227POPC   C2B18212   9.076   3.290   8.253
 6227POPC   C3B18213   9.097   3.378   7.953
 6227POPC   C4B18214   9.095   3.330   7.653
 6228POPC   NC318215  10.548  29.925   9.453
 6228POPC   PO418216  10.533  29.909   9.153
 6228POPC   GL118217  10.560  29.951   8.853
 6228POPC   GL218218  10.602  29.798   8.853
 6228POPC   C1A18219  10.550  29.886   8.553
 6228POPC   D2A18220  10.573  29.912   8.253
 6228POPC   C3A18221  10.486  29.967   7.953
 6228POPC   C4A18222  10.554  29.934   7.653
 6228POPC   C1B18223  10.754  29.738   8.553
 6228POPC   C2B18224  10.682  29.784   8.253
 6228POPC   C3B18225  10.757  29.814   7.953
 6228POPC   C4B18226  10.749  29.731   7.653
 6229POPC   NC318227  15.969  28.400   9.453
 6229POPC   PO418228  15.944  28.331   9.153
 6229POPC   GL118229  15.972  28.410   8.853
 6229POPC   GL218230  15.857  28.440   8.853
 6229POPC   C1A18231  15.921  28.330   8.553
 6229POPC   D2A18232  15.990  28.340   8.253
 6229POPC   C3A18233  15.941  28.401   7.953
 6229POPC   C4A18234  15.963  28.363   7.653
 6229POPC   C1B18235  15.770  28.503   8.553
 6229POPC   C2B18236  15.726  28.558   8.253
 6229POPC   C3B18237  15.757  28.495   7.953
 6229POPC   C4B18238  15.807  28.535   7.653
 6230POPC   NC318239   1.977  33.048   9.453
 6230POPC   PO418240   1.982  32.995   9.153
 6230POPC   GL118241   1.987  32.982   8.853
 6230POPC   GL218242   2.108  33.018   8.853
 6230POPC   C1A18243   1.989  33.041   8.553
 6230POPC   D2A18244   2.012  33.013   8.253
 6230POPC   C3A18245   1.953  33.002   7.953
 6230POPC   C4A18246   1.942  33.014   7.653
 6230POPC   C1B18247   2.276  32.983   8.553
 6230POPC   C2B18248   2.210  33.050   8.253
 6230POPC   C3B18249   2.257  32.987   7.953
 6230POPC   C4B18250   2.255  32.990   7.653
 6231POPC   NC318251   5.827  29.937   9.453
 6231POPC   PO418252   5.841  29.958   9.153
 6231POPC   GL118253   5.877  29.950   8.853
 6231POPC   GL218254   5.722  29.824   8.853
 6231POPC   C1A18255   5.832  29.904   8.553
 6231POPC   D2A18256   5.892  29.921   8.253
 6231POPC   C3A18257   5.828  29.891   7.953
 6231POPC   C4A18258   5.892  29.874   7.653
 6231POPC   C1B18259   5.620  29.798   8.553
 6231POPC   C2B18260   5.607  29.794   8.253
 6231POPC   C3B18261   5.642  29.849   7.953
 6231POPC   C4B18262   5.619  29.870   7.653
 6232POPC   NC318263  41.540  32.991   9.453
 6232POPC   PO418264  41.511  33.043   9.153
 6232POPC   GL118265  41.577  33.012   8.853
 6232POPC   GL218266  41.627  32.912   8.853
 6232POPC   C1A18267  41.552  33.061   8.553
 6232POPC   D2A18268  41.606  33.008   8.253
 6232POPC   C3A18269  41.515  32.984   7.953
 6232POPC   C4A18270  41.534  33.048   7.653
 6232POPC   C1B18271  41.663  32.779   8.553
 6232POPC   C2B18272  41.748  32.838   8.253
 6232POPC   C3B18273  41.756  32.849   7.953
 6232POPC   C4B18274  41.675  32.784   7.653
 6233POPC   NC318275  40.751   7.445   9.453
 6233POPC   PO418276  40.807   7.395   9.153
 6233POPC   GL118277  40.827   7.374   8.853
 6233POPC   GL218278  40.830   7.481   8.853
 6233POPC   C1A18279  40.829   7.446   8.553
 6233POPC   D2A18280  40.792   7.397   8.253
 6233POPC   C3A18281  40.778   7.404   7.953
 6233POPC   C4A18282  40.743   7.404   7.653
 6233POPC   C1B18283  40.946   7.545   8.553
 6233POPC   C2B18284  40.970   7.563   8.253
 6233POPC   C3B18285  41.015   7.622   7.953
 6233POPC   C4B18286  40.985   7.604   7.653
 6234POPC   NC318287  41.537   5.116   9.453
 6234POPC   PO418288  41.589   5.060   9.153
 6234POPC   GL118289  41.533   5.061   8.853
 6234POPC   GL218290  41.667   5.150   8.853
 6234POPC   C1A18291  41.539   5.115   8.553
 6234POPC   D2A18292  41.546   5.111   8.253
 6234POPC   C3A18293  41.538   5.139   7.953
 6234POPC   C4A18294  41.596   5.073   7.653
 6234POPC   C1B18295  41.731   5.250   8.553
 6234POPC   C2B18296  41.695   5.325   8.253
 6234POPC   C3B18297  41.675   5.256   7.953
 6234POPC   C4B18298  41.701   5.282   7.653
 6235POPC   NC318299   0.395  43.923   9.453
 6235POPC   PO418300   0.432  43.866   9.153
 6235POPC   GL118301   0.455  43.876   8.853
 6235POPC   GL218302   0.494  43.726   8.853
 6235POPC   C1A18303   0.402  43.871   8.553
 6235POPC   D2A18304   0.467  43.878   8.253
 6235POPC   C3A18305   0.474  43.905   7.953
 6235POPC   C4A18306   0.393  43.897   7.653
 6235POPC   C1B18307   0.486  43.597   8.553
 6235POPC   C2B18308   0.418  43.677   8.253
 6235POPC   C3B18309   0.412  43.590   7.953
 6235POPC   C4B18310   0.493  43.624   7.653
 6236POPC   NC318311   9.766  12.030   9.453
 6236POPC   PO418312   9.754  12.031   9.153
 6236POPC   GL118313   9.767  12.059   8.853
 6236POPC   GL218314   9.826  12.161   8.853
 6236POPC   C1A18315   9.791  12.076   8.553
 6236POPC   D2A18316   9.725  12.061   8.253
 6236POPC   C3A18317   9.760  12.093   7.953
 6236POPC   C4A18318   9.722  12.063   7.653
 6236POPC   C1B18319   9.844  12.334   8.553
 6236POPC   C2B18320   9.853  12.268   8.253
 6236POPC   C3B18321   9.865  12.299   7.953
 6236POPC   C4B18322   9.793  12.289   7.653
 6237POPC   NC318323   7.447   0.454   9.453
 6237POPC   PO418324   7.443   0.444   9.153
 6237POPC   GL118325   7.413   0.395   8.853
 6237POPC   GL218326   7.260   0.466   8.853
 6237POPC   C1A18327   7.452   0.485   8.553
 6237POPC   D2A18328   7.465   0.428   8.253
 6237POPC   C3A18329   7.414   0.455   7.953
 6237POPC   C4A18330   7.450   0.430   7.653
 6237POPC   C1B18331   7.212   0.417   8.553
 6237POPC   C2B18332   7.200   0.475   8.253
 6237POPC   C3B18333   7.145   0.507   7.953
 6237POPC   C4B18334   7.203   0.479   7.653
 6238POPC   NC318335  36.132  27.546   9.453
 6238POPC   PO418336  36.168  27.593   9.153
 6238POPC   GL118337  36.090  27.577   8.853
 6238POPC   GL218338  36.037  27.586   8.853
 6238POPC   C1A18339  36.121  27.576   8.553
 6238POPC   D2A18340  36.105  27.619   8.253
 6238POPC   C3A18341  36.166  27.585   7.953
 6238POPC   C4A18342  36.081  27.586   7.653
 6238POPC   C1B18343  35.943  27.534   8.553
 6238POPC   C2B18344  35.855  27.498   8.253
 6238POPC   C3B18345  35.889  27.539   7.953
 6238POPC   C4B18346  35.890  27.481   7.653
 6239POPC   NC318347   7.391  33.066   9.453
 6239POPC   PO418348   7.444  33.003   9.153
 6239POPC   GL118349   7.403  33.035   8.853
 6239POPC   GL218350   7.539  32.897   8.853
 6239POPC   C1A18351   7.383  32.989   8.553
 6239POPC   D2A18352   7.447  33.066   8.253
 6239POPC   C3A18353   7.425  33.054   7.953
 6239POPC   C4A18354   7.431  32.986   7.653
 6239POPC   C1B18355   7.584  32.871   8.553
 6239POPC   C2B18356   7.564  32.889   8.253
 6239POPC   C3B18357   7.605  32.895   7.953
 6239POPC   C4B18358   7.606  32.845   7.653
 6240POPC   NC318359   5.107  31.459   9.453
 6240POPC   PO418360   5.070  31.491   9.153
 6240POPC   GL118361   5.099  31.485   8.853
 6240POPC   GL218362   5.228  31.410   8.853
 6240POPC   C1A18363   5.142  31.511   8.553
 6240POPC   D2A18364   5.133  31.493   8.253
 6240POPC   C3A18365   5.135  31.466   7.953
 6240POPC   C4A18366   5.093  31.431   7.653
 6240POPC   C1B18367   5.246  31.307   8.553
 6240POPC   C2B18368   5.309  31.303   8.253
 6240POPC   C3B18369   5.302  31.320   7.953
 6240POPC   C4B18370   5.276  31.340   7.653
 6241POPC   NC318371  28.377   3.513   9.453
 6241POPC   PO418372  28.379   3.497   9.153
 6241POPC   GL118373  28.369   3.579   8.853
 6241POPC   GL218374  28.330   3.469   8.853
 6241POPC   C1A18375  28.327   3.589   8.553
 6241POPC   D2A18376  28.332   3.570   8.253
 6241POPC   C3A18377  28.336   3.521   7.953
 6241POPC   C4A18378  28.365   3.513   7.653
 6241POPC   C1B18379  28.347   3.303   8.553
 6241POPC   C2B18380  28.259   3.307   8.253
 6241POPC   C3B18381  28.353   3.267   7.953
 6241POPC   C4B18382  28.271   3.291   7.653
 6242POPC   NC318383  22.940  37.728   9.453
 6242POPC   PO418384  22.924  37.653   9.153
 6242POPC   GL118385  22.968  37.705   8.853
 6242POPC   GL218386  23.042  37.700   8.853
 6242POPC   C1A18387  22.946  37.711   8.553
 6242POPC   D2A18388  22.916  37.661   8.253
 6242POPC   C3A18389  22.949  37.699   7.953
 6242POPC   C4A18390  22.924  37.665   7.653
 6242POPC   C1B18391  23.130  37.776   8.553
 6242POPC   C2B18392  23.173  37.836   8.253
 6242POPC   C3B18393  23.177  37.828   7.953
 6242POPC   C4B18394  23.205  37.825   7.653
 6243POPC   NC318395  39.257  13.654   9.453
 6243POPC   PO418396  39.248  13.628   9.153
 6243POPC   GL118397  39.239  13.596   8.853
 6243POPC   GL218398  39.310  13.796   8.853
 6243POPC   C1A18399  39.251  13.659   8.553
 6243POPC   D2A18400  39.225  13.594   8.253
 6243POPC   C3A18401  39.229  13.598   7.953
 6243POPC   C4A18402  39.200  13.597   7.653
 6243POPC   C1B18403  39.336  13.881   8.553
 6243POPC   C2B18404  39.257  13.872   8.253
 6243POPC   C3B18405  39.321  13.890   7.953
 6243POPC   C4B18406  39.318  13.878   7.653
 6244POPC   NC318407  43.901  14.364   9.453
 6244POPC   PO418408  43.913  14.450   9.153
 6244POPC   GL118409  43.925  14.354   8.853
 6244POPC   GL218410  43.897  14.513   8.853
 6244POPC   C1A18411  43.933  14.438   8.553
 6244POPC   D2A18412  43.890  14.354   8.253
 6244POPC   C3A18413  43.908  14.395   7.953
 6244POPC   C4A18414  43.905  14.393   7.653
 6244POPC   C1B18415  43.882  14.615   8.553
 6244POPC   C2B18416  43.872  14.632   8.253
 6244POPC   C3B18417  43.882  14.667   7.953
 6244POPC   C4B18418  43.831  14.618   7.653
 6245POPC   NC318419  34.596  22.114   9.453
 6245POPC   PO418420  34.556  22.182   9.153
 6245POPC   GL118421  34.583  22.193   8.853
 6245POPC   GL218422  34.479  22.207   8.853
 6245POPC   C1A18423  34.584  22.183   8.553
 6245POPC   D2A18424  34.622  22.171   8.253
 6245POPC   C3A18425  34.607  22.173   7.953
 6245POPC   C4A18426  34.570  22.195   7.653
 6245POPC   C1B18427  34.403  22.266   8.553
 6245POPC   C2B18428  34.328  22.321   8.253
 6245POPC   C3B18429  34.395  22.338   7.953
 6245POPC   C4B18430  34.361  22.269   7.653
 6246POPC   NC318431  37.668   8.158   9.453
 6246POPC   PO418432  37.671   8.225   9.153
 6246POPC   GL118433  37.699   8.187   8.853
 6246POPC   GL218434  37.562   8.236   8.853
 6246POPC   C1A18435  37.689   8.246   8.553
 6246POPC   D2A18436  37.644   8.211   8.253
 6246POPC   C3A18437  37.653   8.241   7.953
 6246POPC   C4A18438  37.638   8.164   7.653
 6246POPC   C1B18439  37.446   8.292   8.553
 6246POPC   C2B18440  37.468   8.329   8.253
 6246POPC   C3B18441  37.498   8.323   7.953
 6246POPC   C4B18442  37.436   8.289   7.653
 6247POPC   NC318443  37.707  22.194   9.453
 6247POPC   PO418444  37.674  22.134   9.153
 6247POPC   GL118445  37.705  22.159   8.853
 6247POPC   GL218446  37.570  22.225   8.853
 6247POPC   C1A18447  37.703  22.149   8.553
 6247POPC   D2A18448  37.694  22.172   8.253
 6247POPC   C3A18449  37.699  22.194   7.953
 6247POPC   C4A18450  37.664  22.146   7.653
 6247POPC   C1B18451  37.445  22.315   8.553
 6247POPC   C2B18452  37.527  22.351   8.253
 6247POPC   C3B18453  37.526  22.294   7.953
 6247POPC   C4B18454  37.503  22.298   7.653
 6248POPC   NC318455   5.076  18.279   9.453
 6248POPC   PO418456   5.046  18.265   9.153
 6248POPC   GL118457   5.127  18.322   8.853
 6248POPC   GL218458   5.014  18.317   8.853
 6248POPC   C1A18459   5.094  18.239   8.553
 6248POPC   D2A18460   5.132  18.297   8.253
 6248POPC   C3A18461   5.075  18.292   7.953
 6248POPC   C4A18462   5.137  18.271   7.653
 6248POPC   C1B18463   4.866  18.376   8.553
 6248POPC   C2B18464   4.866  18.399   8.253
 6248POPC   C3B18465   4.824  18.370   7.953
 6248POPC   C4B18466   4.917  18.371   7.653
 6249POPC   NC318467  43.095  19.046   9.453
 6249POPC   PO418468  43.117  19.012   9.153
 6249POPC   GL118469  43.102  19.010   8.853
 6249POPC   GL218470  43.024  19.156   8.853
 6249POPC   C1A18471  43.143  19.012   8.553
 6249POPC   D2A18472  43.105  19.040   8.253
 6249POPC   C3A18473  43.152  19.052   7.953
 6249POPC   C4A18474  43.128  19.066   7.653
 6249POPC   C1B18475  42.980  19.252   8.553
 6249POPC   C2B18476  42.932  19.282   8.253
 6249POPC   C3B18477  42.983  19.194   7.953
 6249POPC   C4B18478  42.976  19.273   7.653
 6250POPC   NC318479  28.342   2.730   9.453
 6250POPC   PO418480  28.395   2.768   9.153
 6250POPC   GL118481  28.344   2.727   8.853
 6250POPC   GL218482  28.250   2.761   8.853
 6250POPC   C1A18483  28.364   2.806   8.553
 6250POPC   D2A18484  28.347   2.768   8.253
 6250POPC   C3A18485  28.360   2.807   7.953
 6250POPC   C4A18486  28.331   2.787   7.653
 6250POPC   C1B18487  28.135   2.662   8.553
 6250POPC   C2B18488  28.098   2.688   8.253
 6250POPC   C3B18489  28.112   2.646   7.953
 6250POPC   C4B18490  28.085   2.704   7.653
 6251POPC   NC318491   5.867  41.606   9.453
 6251POPC   PO418492   5.881  41.522   9.153
 6251POPC   GL118493   5.868  41.520   8.853
 6251POPC   GL218494   5.968  41.664   8.853
 6251POPC   C1A18495   5.843  41.566   8.553
 6251POPC   D2A18496   5.827  41.592   8.253
 6251POPC   C3A18497   5.919  41.536   7.953
 6251POPC   C4A18498   5.866  41.526   7.653
 6251POPC   C1B18499   6.085  41.709   8.553
 6251POPC   C2B18500   6.093  41.736   8.253
 6251POPC   C3B18501   6.080  41.700   7.953
 6251POPC   C4B18502   6.039  41.724   7.653
 6252POPC   NC318503  19.879  17.554   9.453
 6252POPC   PO418504  19.794  17.465   9.153
 6252POPC   GL118505  19.800  17.507   8.853
 6252POPC   GL218506  19.713  17.400   8.853
 6252POPC   C1A18507  19.841  17.551   8.553
 6252POPC   D2A18508  19.808  17.458   8.253
 6252POPC   C3A18509  19.824  17.494   7.953
 6252POPC   C4A18510  19.792  17.538   7.653
 6252POPC   C1B18511  19.625  17.415   8.553
 6252POPC   C2B18512  19.662  17.324   8.253
 6252POPC   C3B18513  19.608  17.343   7.953
 6252POPC   C4B18514  19.646  17.395   7.653
 6253POPC   NC318515  26.030  44.653   9.453
 6253POPC   PO418516  26.011  44.680   9.153
 6253POPC   GL118517  26.018  44.663   8.853
 6253POPC   GL218518  26.089  44.529   8.853
 6253POPC   C1A18519  26.029  44.642   8.553
 6253POPC   D2A18520  26.055  44.701   8.253
 6253POPC   C3A18521  26.009  44.708   7.953
 6253POPC   C4A18522  26.021  44.709   7.653
 6253POPC   C1B18523  26.228  44.411   8.553
 6253POPC   C2B18524  26.200  44.496   8.253
 6253POPC   C3B18525  26.193  44.495   7.953
 6253POPC   C4B18526  26.168  44.460   7.653
 6254POPC   NC318527   1.957  22.166   9.453
 6254POPC   PO418528   2.018  22.207   9.153
 6254POPC   GL118529   1.997  22.112   8.853
 6254POPC   GL218530   1.946  22.217   8.853
 6254POPC   C1A18531   2.034  22.151   8.553
 6254POPC   D2A18532   1.967  22.197   8.253
 6254POPC   C3A18533   2.020  22.148   7.953
 6254POPC   C4A18534   2.030  22.113   7.653
 6254POPC   C1B18535   1.866  22.384   8.553
 6254POPC   C2B18536   1.841  22.412   8.253
 6254POPC   C3B18537   1.817  22.403   7.953
 6254POPC   C4B18538   1.875  22.375   7.653
 6255POPC   NC318539  32.214   8.988   9.453
 6255POPC   PO418540  32.203   8.923   9.153
 6255POPC   GL118541  32.247   8.999   8.853
 6255POPC   GL218542  32.254   9.136   8.853
 6255POPC   C1A18543  32.286   8.943   8.553
 6255POPC   D2A18544  32.266   8.998   8.253
 6255POPC   C3A18545  32.281   9.007   7.953
 6255POPC   C4A18546  32.213   8.923   7.653
 6255POPC   C1B18547  32.286   9.185   8.553
 6255POPC   C2B18548  32.267   9.180   8.253
 6255POPC   C3B18549  32.250   9.252   7.953
 6255POPC   C4B18550  32.307   9.235   7.653
 6256POPC   NC318551  39.269  30.674   9.453
 6256POPC   PO418552  39.268  30.712   9.153
 6256POPC   GL118553  39.191  30.710   8.853
 6256POPC   GL218554  39.096  30.741   8.853
 6256POPC   C1A18555  39.240  30.710   8.553
 6256POPC   D2A18556  39.227  30.673   8.253
 6256POPC   C3A18557  39.240  30.680   7.953
 6256POPC   C4A18558  39.280  30.711   7.653
 6256POPC   C1B18559  38.981  30.749   8.553
 6256POPC   C2B18560  38.990  30.789   8.253
 6256POPC   C3B18561  38.989  30.746   7.953
 6256POPC   C4B18562  38.956  30.815   7.653
 6257POPC   NC318563  30.713   1.976   9.453
 6257POPC   PO418564  30.658   1.951   9.153
 6257POPC   GL118565  30.725   2.014   8.853
 6257POPC   GL218566  30.818   1.982   8.853
 6257POPC   C1A18567  30.694   2.033   8.553
 6257POPC   D2A18568  30.697   1.982   8.253
 6257POPC   C3A18569  30.719   2.008   7.953
 6257POPC   C4A18570  30.648   1.949   7.653
 6257POPC   C1B18571  30.919   1.957   8.553
 6257POPC   C2B18572  30.959   1.991   8.253
 6257POPC   C3B18573  30.944   1.962   7.953
 6257POPC   C4B18574  30.965   1.983   7.653
 6258POPC   NC318575  31.476   5.855   9.453
 6258POPC   PO418576  31.432   5.874   9.153
 6258POPC   GL118577  31.443   5.897   8.853
 6258POPC   GL218578  31.307   5.885   8.853
 6258POPC   C1A18579  31.433   5.868   8.553
 6258POPC   D2A18580  31.469   5.871   8.253
 6258POPC   C3A18581  31.504   5.908   7.953
 6258POPC   C4A18582  31.464   5.909   7.653
 6258POPC   C1B18583  31.196   5.851   8.553
 6258POPC   C2B18584  31.187   5.805   8.253
 6258POPC   C3B18585  31.205   5.848   7.953
 6258POPC   C4B18586  31.192   5.767   7.653
 6259POPC   NC318587   1.993  17.505   9.453
 6259POPC   PO418588   1.962  17.484   9.153
 6259POPC   GL118589   2.029  17.479   8.853
 6259POPC   GL218590   1.994  17.625   8.853
 6259POPC   C1A18591   1.988  17.556   8.553
 6259POPC   D2A18592   1.991  17.498   8.253
 6259POPC   C3A18593   1.961  17.475   7.953
 6259POPC   C4A18594   1.990  17.556   7.653
 6259POPC   C1B18595   2.028  17.735   8.553
 6259POPC   C2B18596   1.987  17.789   8.253
 6259POPC   C3B18597   1.972  17.794   7.953
 6259POPC   C4B18598   2.014  17.742   7.653
 6260POPC   NC318599  32.248  31.435   9.453
 6260POPC   PO418600  32.286  31.467   9.153
 6260POPC   GL118601  32.242  31.508   8.853
 6260POPC   GL218602  32.117  31.501   8.853
 6260POPC   C1A18603  32.282  31.439   8.553
 6260POPC   D2A18604  32.295  31.453   8.253
 6260POPC   C3A18605  32.276  31.455   7.953
 6260POPC   C4A18606  32.220  31.488   7.653
 6260POPC   C1B18607  32.071  31.613   8.553
 6260POPC   C2B18608  32.019  31.579   8.253
 6260POPC   C3B18609  32.078  31.638   7.953
 6260POPC   C4B18610  32.052  31.651   7.653
 6261POPC   NC318611  43.880  13.658   9.453
 6261POPC   PO418612  43.880  13.643   9.153
 6261POPC   GL118613  43.840  13.633   8.853
 6261POPC   GL218614  43.971  13.623   8.853
 6261POPC   C1A18615  43.919  13.632   8.553
 6261POPC   D2A18616  43.853  13.645   8.253
 6261POPC   C3A18617  43.931  13.604   7.953
 6261POPC   C4A18618  43.873  13.585   7.653
 6261POPC   C1B18619  44.093  13.620   8.553
 6261POPC   C2B18620  44.106  13.676   8.253
 6261POPC   C3B18621  44.150  13.644   7.953
 6261POPC   C4B18622  44.148  13.591   7.653
 6262POPC   NC318623  42.328  37.705   9.453
 6262POPC   PO418624  42.343  37.713   9.153
 6262POPC   GL118625  42.363  37.720   8.853
 6262POPC   GL218626  42.444  37.566   8.853
 6262POPC   C1A18627  42.312  37.633   8.553
 6262POPC   D2A18628  42.294  37.708   8.253
 6262POPC   C3A18629  42.308  37.695   7.953
 6262POPC   C4A18630  42.304  37.667   7.653
 6262POPC   C1B18631  42.437  37.434   8.553
 6262POPC   C2B18632  42.458  37.484   8.253
 6262POPC   C3B18633  42.435  37.497   7.953
 6262POPC   C4B18634  42.478  37.426   7.653
 6263POPC   NC318635  28.381   5.883   9.453
 6263POPC   PO418636  28.351   5.911   9.153
 6263POPC   GL118637  28.360   5.914   8.853
 6263POPC   GL218638  28.445   5.769   8.853
 6263POPC   C1A18639  28.320   5.857   8.553
 6263POPC   D2A18640  28.368   5.880   8.253
 6263POPC   C3A18641  28.405   5.859   7.953
 6263POPC   C4A18642  28.403   5.916   7.653
 6263POPC   C1B18643  28.487   5.638   8.553
 6263POPC   C2B18644  28.532   5.694   8.253
 6263POPC   C3B18645  28.542   5.725   7.953
 6263POPC   C4B18646  28.568   5.699   7.653
 6264POPC   NC318647  36.128  44.697   9.453
 6264POPC   PO418648  36.114  44.638   9.153
 6264POPC   GL118649  36.095  44.673   8.853
 6264POPC   GL218650  36.148  44.489   8.853
 6264POPC   C1A18651  36.167  44.615   8.553
 6264POPC   D2A18652  36.123  44.695   8.253
 6264POPC   C3A18653  36.135  44.690   7.953
 6264POPC   C4A18654  36.105  44.687   7.653
 6264POPC   C1B18655  36.164  44.410   8.553
 6264POPC   C2B18656  36.096  44.376   8.253
 6264POPC   C3B18657  36.165  44.367   7.953
 6264POPC   C4B18658  36.137  44.389   7.653
 6265POPC   NC318659  15.218  22.140   9.453
 6265POPC   PO418660  15.194  22.126   9.153
 6265POPC   GL118661  15.161  22.181   8.853
 6265POPC   GL218662  15.090  22.074   8.853
 6265POPC   C1A18663  15.187  22.170   8.553
 6265POPC   D2A18664  15.134  22.177   8.253
 6265POPC   C3A18665  15.147  22.155   7.953
 6265POPC   C4A18666  15.212  22.138   7.653
 6265POPC   C1B18667  14.951  21.972   8.553
 6265POPC   C2B18668  14.980  21.984   8.253
 6265POPC   C3B18669  14.964  22.016   7.953
 6265POPC   C4B18670  15.021  21.952   7.653
 6266POPC   NC318671  28.405  43.064   9.453
 6266POPC   PO418672  28.416  43.086   9.153
 6266POPC   GL118673  28.411  43.110   8.853
 6266POPC   GL218674  28.413  43.026   8.853
 6266POPC   C1A18675  28.374  43.114   8.553
 6266POPC   D2A18676  28.377  43.150   8.253
 6266POPC   C3A18677  28.406  43.125   7.953
 6266POPC   C4A18678  28.331  43.134   7.653
 6266POPC   C1B18679  28.467  42.870   8.553
 6266POPC   C2B18680  28.495  42.917   8.253
 6266POPC   C3B18681  28.443  42.867   7.953
 6266POPC   C4B18682  28.442  42.905   7.653
 6267POPC   NC318683  20.577  15.177   9.453
 6267POPC   PO418684  20.581  15.182   9.153
 6267POPC   GL118685  20.636  15.210   8.853
 6267POPC   GL218686  20.536  15.285   8.853
 6267POPC   C1A18687  20.659  15.188   8.553
 6267POPC   D2A18688  20.593  15.207   8.253
 6267POPC   C3A18689  20.622  15.149   7.953
 6267POPC   C4A18690  20.635  15.193   7.653
 6267POPC   C1B18691  20.407  15.308   8.553
 6267POPC   C2B18692  20.418  15.301   8.253
 6267POPC   C3B18693  20.371  15.279   7.953
 6267POPC   C4B18694  20.414  15.284   7.653
 6268POPC   NC318695  36.948   5.898   9.453
 6268POPC   PO418696  36.894   5.819   9.153
 6268POPC   GL118697  36.947   5.911   8.853
 6268POPC   GL218698  36.744   5.855   8.853
 6268POPC   C1A18699  36.864   5.835   8.553
 6268POPC   D2A18700  36.877   5.879   8.253
 6268POPC   C3A18701  36.869   5.876   7.953
 6268POPC   C4A18702  36.857   5.835   7.653
 6268POPC   C1B18703  36.684   5.946   8.553
 6268POPC   C2B18704  36.672   5.929   8.253
 6268POPC   C3B18705  36.611   5.945   7.953
 6268POPC   C4B18706  36.618   5.881   7.653
 6269POPC   NC318707  26.081  11.336   9.453
 6269POPC   PO418708  26.036  11.289   9.153
 6269POPC   GL118709  26.080  11.284   8.853
 6269POPC   GL218710  26.051  11.455   8.853
 6269POPC   C1A18711  26.008  11.282   8.553
 6269POPC   D2A18712  26.060  11.253   8.253
 6269POPC   C3A18713  26.039  11.342   7.953
 6269POPC   C4A18714  26.091  11.282   7.653
 6269POPC   C1B18715  25.974  11.567   8.553
 6269POPC   C2B18716  25.945  11.529   8.253
 6269POPC   C3B18717  25.952  11.538   7.953
 6269POPC   C4B18718  25.980  11.498   7.653
 6270POPC   NC318719  44.708  12.045   9.453
 6270POPC   PO418720  44.665  12.069   9.153
 6270POPC   GL118721  44.689  12.027   8.853
 6270POPC   GL218722  44.532  12.054   8.853
 6270POPC   C1A18723  44.676  12.060   8.553
 6270POPC   D2A18724  44.649  12.052   8.253
 6270POPC   C3A18725  44.705  12.042   7.953
 6270POPC   C4A18726  44.636  12.071   7.653
 6270POPC   C1B18727  44.470  11.982   8.553
 6270POPC   C2B18728  44.409  12.033   8.253
 6270POPC   C3B18729  44.429  12.003   7.953
 6270POPC   C4B18730  44.440  11.973   7.653
 6271POPC   NC318731  18.327  10.564   9.453
 6271POPC   PO418732  18.290  10.523   9.153
 6271POPC   GL118733  18.279  10.540   8.853
 6271POPC   GL218734  18.121  10.603   8.853
 6271POPC   C1A18735  18.245  10.516   8.553
 6271POPC   D2A18736  18.293  10.535   8.253
 6271POPC   C3A18737  18.276  10.487   7.953
 6271POPC   C4A18738  18.289  10.509   7.653
 6271POPC   C1B18739  18.068  10.576   8.553
 6271POPC   C2B18740  18.062  10.574   8.253
 6271POPC   C3B18741  18.061  10.574   7.953
 6271POPC   C4B18742  18.023  10.547   7.653
 6272POPC   NC318743  12.843  22.910   9.453
 6272POPC   PO418744  12.817  22.960   9.153
 6272POPC   GL118745  12.844  22.921   8.853
 6272POPC   GL218746  12.822  23.066   8.853
 6272POPC   C1A18747  12.837  22.921   8.553
 6272POPC   D2A18748  12.846  22.892   8.253
 6272POPC   C3A18749  12.863  22.960   7.953
 6272POPC   C4A18750  12.874  22.941   7.653
 6272POPC   C1B18751  12.731  23.106   8.553
 6272POPC   C2B18752  12.753  23.132   8.253
 6272POPC   C3B18753  12.716  23.131   7.953
 6272POPC   C4B18754  12.746  23.110   7.653
 6273POPC   NC318755   8.941  11.263   9.453
 6273POPC   PO418756   8.977  11.255   9.153
 6273POPC   GL118757   8.988  11.299   8.853
 6273POPC   GL218758   9.085  11.365   8.853
 6273POPC   C1A18759   9.007  11.271   8.553
 6273POPC   D2A18760   8.994  11.293   8.253
 6273POPC   C3A18761   9.006  11.264   7.953
 6273POPC   C4A18762   8.969  11.325   7.653
 6273POPC   C1B18763   9.122  11.477   8.553
 6273POPC   C2B18764   9.101  11.462   8.253
 6273POPC   C3B18765   9.165  11.475   7.953
 6273POPC   C4B18766   9.120  11.480   7.653
 6274POPC   NC318767  20.585  25.233   9.453
 6274POPC   PO418768  20.583  25.233   9.153
 6274POPC   GL118769  20.563  25.314   8.853
 6274POPC   GL218770  20.509  25.317   8.853
 6274POPC   C1A18771  20.606  25.291   8.553
 6274POPC   D2A18772  20.570  25.228   8.253
 6274POPC   C3A18773  20.568  25.221   7.953
 6274POPC   C4A18774  20.649  25.269   7.653
 6274POPC   C1B18775  20.439  25.387   8.553
 6274POPC   C2B18776  20.439  25.461   8.253
 6274POPC   C3B18777  20.407  25.400   7.953
 6274POPC   C4B18778  20.422  25.417   7.653
 6275POPC   NC318779   5.072  11.320   9.453
 6275POPC   PO418780   5.095  11.345   9.153
 6275POPC   GL118781   5.129  11.289   8.853
 6275POPC   GL218782   4.980  11.210   8.853
 6275POPC   C1A18783   5.081  11.288   8.553
 6275POPC   D2A18784   5.082  11.316   8.253
 6275POPC   C3A18785   5.101  11.306   7.953
 6275POPC   C4A18786   5.088  11.263   7.653
 6275POPC   C1B18787   4.927  11.106   8.553
 6275POPC   C2B18788   4.848  11.146   8.253
 6275POPC   C3B18789   4.896  11.148   7.953
 6275POPC   C4B18790   4.908  11.189   7.653
 6276POPC   NC318791  17.514  30.682   9.453
 6276POPC   PO418792  17.538  30.659   9.153
 6276POPC   GL118793  17.500  30.745   8.853
 6276POPC   GL218794  17.398  30.718   8.853
 6276POPC   C1A18795  17.499  30.668   8.553
 6276POPC   D2A18796  17.503  30.694   8.253
 6276POPC   C3A18797  17.537  30.655   7.953
 6276POPC   C4A18798  17.460  30.648   7.653
 6276POPC   C1B18799  17.235  30.704   8.553
 6276POPC   C2B18800  17.216  30.693   8.253
 6276POPC   C3B18801  17.252  30.702   7.953
 6276POPC   C4B18802  17.304  30.664   7.653
 6277POPC   NC318803  13.637  26.027   9.453
 6277POPC   PO418804  13.603  26.062   9.153
 6277POPC   GL118805  13.591  26.065   8.853
 6277POPC   GL218806  13.560  26.128   8.853
 6277POPC   C1A18807  13.580  26.005   8.553
 6277POPC   D2A18808  13.639  26.021   8.253
 6277POPC   C3A18809  13.660  26.066   7.953
 6277POPC   C4A18810  13.609  26.089   7.653
 6277POPC   C1B18811  13.423  26.170   8.553
 6277POPC   C2B18812  13.408  26.142   8.253
 6277POPC   C3B18813  13.422  26.103   7.953
 6277POPC   C4B18814  13.383  26.154   7.653
 6278POPC   NC318815  40.815  18.242   9.453
 6278POPC   PO418816  40.764  18.238   9.153
 6278POPC   GL118817  40.815  18.270   8.853
 6278POPC   GL218818  40.754  18.409   8.853
 6278POPC   C1A18819  40.766  18.332   8.553
 6278POPC   D2A18820  40.758  18.289   8.253
 6278POPC   C3A18821  40.775  18.259   7.953
 6278POPC   C4A18822  40.800  18.265   7.653
 6278POPC   C1B18823  40.718  18.511   8.553
 6278POPC   C2B18824  40.709  18.468   8.253
 6278POPC   C3B18825  40.679  18.527   7.953
 6278POPC   C4B18826  40.660  18.558   7.653
 6279POPC   NC318827   5.066  41.512   9.453
 6279POPC   PO418828   5.085  41.583   9.153
 6279POPC   GL118829   5.048  41.552   8.853
 6279POPC   GL218830   5.184  41.505   8.853
 6279POPC   C1A18831   5.113  41.547   8.553
 6279POPC   D2A18832   5.053  41.511   8.253
 6279POPC   C3A18833   5.061  41.587   7.953
 6279POPC   C4A18834   5.046  41.596   7.653
 6279POPC   C1B18835   5.371  41.487   8.553
 6279POPC   C2B18836   5.352  41.448   8.253
 6279POPC   C3B18837   5.300  41.493   7.953
 6279POPC   C4B18838   5.315  41.463   7.653
 6280POPC   NC318839   6.656  28.340   9.453
 6280POPC   PO418840   6.649  28.399   9.153
 6280POPC   GL118841   6.629  28.390   8.853
 6280POPC   GL218842   6.733  28.433   8.853
 6280POPC   C1A18843   6.636  28.343   8.553
 6280POPC   D2A18844   6.673  28.412   8.253
 6280POPC   C3A18845   6.645  28.401   7.953
 6280POPC   C4A18846   6.601  28.375   7.653
 6280POPC   C1B18847   6.838  28.538   8.553
 6280POPC   C2B18848   6.833  28.565   8.253
 6280POPC   C3B18849   6.883  28.482   7.953
 6280POPC   C4B18850   6.825  28.564   7.653
 6281POPC   NC318851  39.271   7.407   9.453
 6281POPC   PO418852  39.231   7.374   9.153
 6281POPC   GL118853  39.277   7.390   8.853
 6281POPC   GL218854  39.123   7.310   8.853
 6281POPC   C1A18855  39.216   7.463   8.553
 6281POPC   D2A18856  39.225   7.395   8.253
 6281POPC   C3A18857  39.203   7.406   7.953
 6281POPC   C4A18858  39.268   7.429   7.653
 6281POPC   C1B18859  39.033   7.269   8.553
 6281POPC   C2B18860  39.039   7.287   8.253
 6281POPC   C3B18861  39.028   7.314   7.953
 6281POPC   C4B18862  39.039   7.332   7.653
 6282POPC   NC318863  13.676  23.675   9.453
 6282POPC   PO418864  13.622  23.714   9.153
 6282POPC   GL118865  13.579  23.679   8.853
 6282POPC   GL218866  13.631  23.577   8.853
 6282POPC   C1A18867  13.616  23.731   8.553
 6282POPC   D2A18868  13.615  23.714   8.253
 6282POPC   C3A18869  13.638  23.671   7.953
 6282POPC   C4A18870  13.592  23.682   7.653
 6282POPC   C1B18871  13.545  23.504   8.553
 6282POPC   C2B18872  13.607  23.439   8.253
 6282POPC   C3B18873  13.624  23.515   7.953
 6282POPC   C4B18874  13.542  23.421   7.653
 6283POPC   NC318875  38.422  18.269   9.453
 6283POPC   PO418876  38.434  18.316   9.153
 6283POPC   GL118877  38.503  18.252   8.853
 6283POPC   GL218878  38.419  18.134   8.853
 6283POPC   C1A18879  38.420  18.285   8.553
 6283POPC   D2A18880  38.475  18.283   8.253
 6283POPC   C3A18881  38.440  18.292   7.953
 6283POPC   C4A18882  38.495  18.267   7.653
 6283POPC   C1B18883  38.404  18.001   8.553
 6283POPC   C2B18884  38.429  18.032   8.253
 6283POPC   C3B18885  38.454  17.993   7.953
 6283POPC   C4B18886  38.470  18.038   7.653
 6284POPC   NC318887  29.158   5.917   9.453
 6284POPC   PO418888  29.121   5.834   9.153
 6284POPC   GL118889  29.144   5.877   8.853
 6284POPC   GL218890  29.059   5.849   8.853
 6284POPC   C1A18891  29.150   5.838   8.553
 6284POPC   D2A18892  29.156   5.837   8.253
 6284POPC   C3A18893  29.142   5.827   7.953
 6284POPC   C4A18894  29.173   5.911   7.653
 6284POPC   C1B18895  28.922   5.686   8.553
 6284POPC   C2B18896  28.983   5.771   8.253
 6284POPC   C3B18897  28.947   5.741   7.953
 6284POPC   C4B18898  28.962   5.755   7.653
 6285POPC   NC318899   1.251  39.966   9.453
 6285POPC   PO418900   1.180  40.024   9.153
 6285POPC   GL118901   1.201  39.975   8.853
 6285POPC   GL218902   1.318  40.148   8.853
 6285POPC   C1A18903   1.213  39.992   8.553
 6285POPC   D2A18904   1.202  40.032   8.253
 6285POPC   C3A18905   1.176  40.050   7.953
 6285POPC   C4A18906   1.198  40.032   7.653
 6285POPC   C1B18907   1.331  40.238   8.553
 6285POPC   C2B18908   1.420  40.158   8.253
 6285POPC   C3B18909   1.354  40.214   7.953
 6285POPC   C4B18910   1.337  40.210   7.653
 6286POPC   NC318911  16.767  26.786   9.453
 6286POPC   PO418912  16.694  26.813   9.153
 6286POPC   GL118913  16.768  26.780   8.853
 6286POPC   GL218914  16.860  26.717   8.853
 6286POPC   C1A18915  16.777  26.776   8.553
 6286POPC   D2A18916  16.712  26.848   8.253
 6286POPC   C3A18917  16.777  26.786   7.953
 6286POPC   C4A18918  16.745  26.836   7.653
 6286POPC   C1B18919  16.915  26.714   8.553
 6286POPC   C2B18920  16.975  26.711   8.253
 6286POPC   C3B18921  16.897  26.659   7.953
 6286POPC   C4B18922  16.903  26.625   7.653
 6287POPC   NC318923   7.439  25.260   9.453
 6287POPC   PO418924   7.469  25.313   9.153
 6287POPC   GL118925   7.448  25.257   8.853
 6287POPC   GL218926   7.349  25.187   8.853
 6287POPC   C1A18927   7.448  25.268   8.553
 6287POPC   D2A18928   7.385  25.261   8.253
 6287POPC   C3A18929   7.423  25.261   7.953
 6287POPC   C4A18930   7.434  25.244   7.653
 6287POPC   C1B18931   7.220  25.130   8.553
 6287POPC   C2B18932   7.260  25.087   8.253
 6287POPC   C3B18933   7.235  25.082   7.953
 6287POPC   C4B18934   7.194  25.123   7.653
 6288POPC   NC318935  38.464  43.076   9.453
 6288POPC   PO418936  38.456  43.120   9.153
 6288POPC   GL118937  38.491  43.155   8.853
 6288POPC   GL218938  38.346  43.202   8.853
 6288POPC   C1A18939  38.468  43.116   8.553
 6288POPC   D2A18940  38.499  43.062   8.253
 6288POPC   C3A18941  38.503  43.123   7.953
 6288POPC   C4A18942  38.415  43.074   7.653
 6288POPC   C1B18943  38.227  43.190   8.553
 6288POPC   C2B18944  38.246  43.215   8.253
 6288POPC   C3B18945  38.200  43.212   7.953
 6288POPC   C4B18946  38.190  43.256   7.653
 6289POPC   NC318947  10.539  25.992   9.453
 6289POPC   PO418948  10.556  26.090   9.153
 6289POPC   GL118949  10.484  26.074   8.853
 6289POPC   GL218950  10.602  26.164   8.853
 6289POPC   C1A18951  10.515  26.024   8.553
 6289POPC   D2A18952  10.487  26.012   8.253
 6289POPC   C3A18953  10.562  26.080   7.953
 6289POPC   C4A18954  10.474  26.005   7.653
 6289POPC   C1B18955  10.649  26.210   8.553
 6289POPC   C2B18956  10.664  26.218   8.253
 6289POPC   C3B18957  10.639  26.239   7.953
 6289POPC   C4B18958  10.675  26.272   7.653
 6290POPC   NC318959  26.076  37.643   9.453
 6290POPC   PO418960  26.070  37.670   9.153
 6290POPC   GL118961  26.083  37.665   8.853
 6290POPC   GL218962  26.197  37.654   8.853
 6290POPC   C1A18963  25.996  37.650   8.553
 6290POPC   D2A18964  26.074  37.683   8.253
 6290POPC   C3A18965  26.058  37.727   7.953
 6290POPC   C4A18966  26.080  37.673   7.653
 6290POPC   C1B18967  26.275  37.638   8.553
 6290POPC   C2B18968  26.252  37.608   8.253
 6290POPC   C3B18969  26.265  37.554   7.953
 6290POPC   C4B18970  26.312  37.593   7.653
 6291POPC   NC318971  44.705   5.873   9.453
 6291POPC   PO418972  44.682   5.849   9.153
 6291POPC   GL118973  44.710   5.909   8.853
 6291POPC   GL218974  44.755   5.844   8.853
 6291POPC   C1A18975  44.620   5.877   8.553
 6291POPC   D2A18976  44.654   5.903   8.253
 6291POPC   C3A18977  44.665   5.820   7.953
 6291POPC   C4A18978  44.645   5.863   7.653
 6291POPC   C1B18979  44.867   5.774   8.553
 6291POPC   C2B18980  44.913   5.767   8.253
 6291POPC   C3B18981  44.942   5.831   7.953
 6291POPC   C4B18982  44.882   5.815   7.653
 6292POPC   NC318983   3.517  19.063   9.453
 6292POPC   PO418984   3.572  19.043   9.153
 6292POPC   GL118985   3.501  19.027   8.853
 6292POPC   GL218986   3.696  19.171   8.853
 6292POPC   C1A18987   3.584  19.011   8.553
 6292POPC   D2A18988   3.551  19.074   8.253
 6292POPC   C3A18989   3.538  19.091   7.953
 6292POPC   C4A18990   3.569  19.026   7.653
 6292POPC   C1B18991   3.766  19.200   8.553
 6292POPC   C2B18992   3.765  19.234   8.253
 6292POPC   C3B18993   3.764  19.141   7.953
 6292POPC   C4B18994   3.795  19.175   7.653
 6293POPC   NC318995  18.287  30.655   9.453
 6293POPC   PO418996  18.247  30.659   9.153
 6293POPC   GL118997  18.249  30.732   8.853
 6293POPC   GL218998  18.261  30.597   8.853
 6293POPC   C1A18999  18.245  30.722   8.553
 6293POPC   D2A19000  18.255  30.729   8.253
 6293POPC   C3A19001  18.267  30.701   7.953
 6293POPC   C4A19002  18.301  30.735   7.653
 6293POPC   C1B19003  18.332  30.447   8.553
 6293POPC   C2B19004  18.321  30.469   8.253
 6293POPC   C3B19005  18.293  30.405   7.953
 6293POPC   C4B19006  18.280  30.443   7.653
 6294POPC   NC319007  33.845   1.186   9.453
 6294POPC   PO419008  33.754   1.169   9.153
 6294POPC   GL119009  33.812   1.255   8.853
 6294POPC   GL219010  33.696   1.298   8.853
 6294POPC   C1A19011  33.789   1.210   8.553
 6294POPC   D2A19012  33.775   1.213   8.253
 6294POPC   C3A19013  33.758   1.258   7.953
 6294POPC   C4A19014  33.827   1.184   7.653
 6294POPC   C1B19015  33.629   1.382   8.553
 6294POPC   C2B19016  33.562   1.382   8.253
 6294POPC   C3B19017  33.610   1.303   7.953
 6294POPC   C4B19018  33.575   1.373   7.653
 6295POPC   NC319019  24.442  12.806   9.453
 6295POPC   PO419020  24.479  12.872   9.153
 6295POPC   GL119021  24.441  12.898   8.853
 6295POPC   GL219022  24.573  12.916   8.853
 6295POPC   C1A19023  24.504  12.882   8.553
 6295POPC   D2A19024  24.477  12.822   8.253
 6295POPC   C3A19025  24.477  12.862   7.953
 6295POPC   C4A19026  24.533  12.853   7.653
 6295POPC   C1B19027  24.741  12.975   8.553
 6295POPC   C2B19028  24.674  12.919   8.253
 6295POPC   C3B19029  24.752  12.919   7.953
 6295POPC   C4B19030  24.727  12.987   7.653
 6296POPC   NC319031  20.618   0.481   9.453
 6296POPC   PO419032  20.592   0.419   9.153
 6296POPC   GL119033  20.646   0.448   8.853
 6296POPC   GL219034  20.713   0.488   8.853
 6296POPC   C1A19035  20.565   0.398   8.553
 6296POPC   D2A19036  20.586   0.393   8.253
 6296POPC   C3A19037  20.607   0.457   7.953
 6296POPC   C4A19038  20.634   0.397   7.653
 6296POPC   C1B19039  20.890   0.485   8.553
 6296POPC   C2B19040  20.886   0.460   8.253
 6296POPC   C3B19041  20.807   0.473   7.953
 6296POPC   C4B19042  20.832   0.459   7.653
 6297POPC   NC319043  35.341  12.879   9.453
 6297POPC   PO419044  35.376  12.844   9.153
 6297POPC   GL119045  35.350  12.890   8.853
 6297POPC   GL219046  35.379  12.753   8.853
 6297POPC   C1A19047  35.378  12.883   8.553
 6297POPC   D2A19048  35.346  12.824   8.253
 6297POPC   C3A19049  35.318  12.824   7.953
 6297POPC   C4A19050  35.329  12.882   7.653
 6297POPC   C1B19051  35.459  12.668   8.553
 6297POPC   C2B19052  35.442  12.610   8.253
 6297POPC   C3B19053  35.416  12.612   7.953
 6297POPC   C4B19054  35.441  12.601   7.653
 6298POPC   NC319055  12.102  44.692   9.453
 6298POPC   PO419056  12.064  44.694   9.153
 6298POPC   GL119057  12.122  44.684   8.853
 6298POPC   GL219058  11.980  44.585   8.853
 6298POPC   C1A19059  12.050  44.622   8.553
 6298POPC   D2A19060  12.050  44.707   8.253
 6298POPC   C3A19061  12.125  44.613   7.953
 6298POPC   C4A19062  12.085  44.658   7.653
 6298POPC   C1B19063  11.856  44.525   8.553
 6298POPC   C2B19064  11.931  44.436   8.253
 6298POPC   C3B19065  11.868  44.456   7.953
 6298POPC   C4B19066  11.877  44.489   7.653
 6299POPC   NC319067   2.731  22.178   9.453
 6299POPC   PO419068   2.751  22.206   9.153
 6299POPC   GL119069   2.736  22.180   8.853
 6299POPC   GL219070   2.869  22.210   8.853
 6299POPC   C1A19071   2.810  22.156   8.553
 6299POPC   D2A19072   2.773  22.142   8.253
 6299POPC   C3A19073   2.777  22.162   7.953
 6299POPC   C4A19074   2.795  22.207   7.653
 6299POPC   C1B19075   3.000  22.304   8.553
 6299POPC   C2B19076   2.939  22.315   8.253
 6299POPC   C3B19077   2.964  22.241   7.953
 6299POPC   C4B19078   2.990  22.319   7.653
 6300POPC   NC319079   8.157  40.768   9.453
 6300POPC   PO419080   8.246  40.748   9.153
 6300POPC   GL119081   8.164  40.778   8.853
 6300POPC   GL219082   8.076  40.762   8.853
 6300POPC   C1A19083   8.245  40.809   8.553
 6300POPC   D2A19084   8.204  40.771   8.253
 6300POPC   C3A19085   8.159  40.781   7.953
 6300POPC   C4A19086   8.192  40.802   7.653
 6300POPC   C1B19087   7.912  40.725   8.553
 6300POPC   C2B19088   7.940  40.732   8.253
 6300POPC   C3B19089   7.938  40.715   7.953
 6300POPC   C4B19090   7.978  40.772   7.653
 6301POPC   NC319091  43.072   8.948   9.453
 6301POPC   PO419092  43.108   8.983   9.153
 6301POPC   GL119093  43.114   8.974   8.853
 6301POPC   GL219094  43.018   8.994   8.853
 6301POPC   C1A19095  43.151   8.924   8.553
 6301POPC   D2A19096  43.152   8.960   8.253
 6301POPC   C3A19097  43.076   8.993   7.953
 6301POPC   C4A19098  43.107   8.992   7.653
 6301POPC   C1B19099  42.910   9.021   8.553
 6301POPC   C2B19100  42.870   9.026   8.253
 6301POPC   C3B19101  42.828   9.064   7.953
 6301POPC   C4B19102  42.902   9.057   7.653
 6302POPC   NC319103   9.716  29.115   9.453
 6302POPC   PO419104   9.720  29.118   9.153
 6302POPC   GL119105   9.700  29.185   8.853
 6302POPC   GL219106   9.843  29.085   8.853
 6302POPC   C1A19107   9.729  29.144   8.553
 6302POPC   D2A19108   9.762  29.119   8.253
 6302POPC   C3A19109   9.743  29.153   7.953
 6302POPC   C4A19110   9.724  29.188   7.653
 6302POPC   C1B19111   9.991  29.051   8.553
 6302POPC   C2B19112   9.944  28.971   8.253
 6302POPC   C3B19113   9.989  28.970   7.953
 6302POPC   C4B19114   9.944  28.995   7.653
 6303POPC   NC319115   5.047  29.919   9.453
 6303POPC   PO419116   5.135  29.876   9.153
 6303POPC   GL119117   5.052  29.892   8.853
 6303POPC   GL219118   5.189  29.935   8.853
 6303POPC   C1A19119   5.137  29.965   8.553
 6303POPC   D2A19120   5.060  29.921   8.253
 6303POPC   C3A19121   5.139  29.921   7.953
 6303POPC   C4A19122   5.055  29.957   7.653
 6303POPC   C1B19123   5.329  29.912   8.553
 6303POPC   C2B19124   5.313  29.901   8.253
 6303POPC   C3B19125   5.359  29.895   7.953
 6303POPC   C4B19126   5.337  29.841   7.653
 6304POPC   NC319127  27.557   8.162   9.453
 6304POPC   PO419128  27.562   8.209   9.153
 6304POPC   GL119129  27.588   8.198   8.853
 6304POPC   GL219130  27.624   8.099   8.853
 6304POPC   C1A19131  27.592   8.236   8.553
 6304POPC   D2A19132  27.574   8.226   8.253
 6304POPC   C3A19133  27.587   8.179   7.953
 6304POPC   C4A19134  27.550   8.157   7.653
 6304POPC   C1B19135  27.539   7.921   8.553
 6304POPC   C2B19136  27.534   7.908   8.253
 6304POPC   C3B19137  27.630   7.961   7.953
 6304POPC   C4B19138  27.576   7.925   7.653
 6305POPC   NC319139   5.897  35.395   9.453
 6305POPC   PO419140   5.874  35.389   9.153
 6305POPC   GL119141   5.899  35.341   8.853
 6305POPC   GL219142   5.764  35.233   8.853
 6305POPC   C1A19143   5.888  35.374   8.553
 6305POPC   D2A19144   5.837  35.340   8.253
 6305POPC   C3A19145   5.823  35.371   7.953
 6305POPC   C4A19146   5.871  35.362   7.653
 6305POPC   C1B19147   5.697  35.244   8.553
 6305POPC   C2B19148   5.623  35.203   8.253
 6305POPC   C3B19149   5.666  35.198   7.953
 6305POPC   C4B19150   5.684  35.221   7.653
 6306POPC   NC319151  33.039  36.904   9.453
 6306POPC   PO419152  33.028  36.905   9.153
 6306POPC   GL119153  32.983  36.899   8.853
 6306POPC   GL219154  33.176  36.862   8.853
 6306POPC   C1A19155  33.024  36.857   8.553
 6306POPC   D2A19156  33.008  36.905   8.253
 6306POPC   C3A19157  33.002  36.929   7.953
 6306POPC   C4A19158  33.060  36.876   7.653
 6306POPC   C1B19159  33.219  36.868   8.553
 6306POPC   C2B19160  33.299  36.871   8.253
 6306POPC   C3B19161  33.260  36.853   7.953
 6306POPC   C4B19162  33.244  36.837   7.653
 6307POPC   NC319163  43.863  17.535   9.453
 6307POPC   PO419164  43.912  17.503   9.153
 6307POPC   GL119165  43.850  17.494   8.853
 6307POPC   GL219166  43.984  17.416   8.853
 6307POPC   C1A19167  43.876  17.513   8.553
 6307POPC   D2A19168  43.914  17.482   8.253
 6307POPC   C3A19169  43.925  17.468   7.953
 6307POPC   C4A19170  43.877  17.489   7.653
 6307POPC   C1B19171  43.979  17.245   8.553
 6307POPC   C2B19172  44.023  17.253   8.253
 6307POPC   C3B19173  44.024  17.235   7.953
 6307POPC   C4B19174  43.999  17.304   7.653
 6308POPC   NC319175  22.147  43.086   9.453
 6308POPC   PO419176  22.162  43.094   9.153
 6308POPC   GL119177  22.201  43.076   8.853
 6308POPC   GL219178  22.298  43.158   8.853
 6308POPC   C1A19179  22.192  43.088   8.553
 6308POPC   D2A19180  22.133  43.076   8.253
 6308POPC   C3A19181  22.200  43.104   7.953
 6308POPC   C4A19182  22.166  43.141   7.653
 6308POPC   C1B19183  22.398  43.159   8.553
 6308POPC   C2B19184  22.453  43.127   8.253
 6308POPC   C3B19185  22.369  43.086   7.953
 6308POPC   C4B19186  22.396  43.151   7.653
 6309POPC   NC319187  23.750  13.616   9.453
 6309POPC   PO419188  23.722  13.655   9.153
 6309POPC   GL119189  23.743  13.670   8.853
 6309POPC   GL219190  23.667  13.712   8.853
 6309POPC   C1A19191  23.687  13.607   8.553
 6309POPC   D2A19192  23.699  13.596   8.253
 6309POPC   C3A19193  23.695  13.618   7.953
 6309POPC   C4A19194  23.682  13.615   7.653
 6309POPC   C1B19195  23.619  13.851   8.553
 6309POPC   C2B19196  23.572  13.857   8.253
 6309POPC   C3B19197  23.560  13.812   7.953
 6309POPC   C4B19198  23.573  13.836   7.653
 6310POPC   NC319199  43.840  41.535   9.453
 6310POPC   PO419200  43.874  41.552   9.153
 6310POPC   GL119201  43.891  41.595   8.853
 6310POPC   GL219202  43.712  41.531   8.853
 6310POPC   C1A19203  43.869  41.537   8.553
 6310POPC   D2A19204  43.866  41.529   8.253
 6310POPC   C3A19205  43.888  41.573   7.953
 6310POPC   C4A19206  43.870  41.528   7.653
 6310POPC   C1B19207  43.625  41.596   8.553
 6310POPC   C2B19208  43.632  41.574   8.253
 6310POPC   C3B19209  43.593  41.539   7.953
 6310POPC   C4B19210  43.678  41.551   7.653
 6311POPC   NC319211  26.052   7.462   9.453
 6311POPC   PO419212  26.090   7.419   9.153
 6311POPC   GL119213  26.012   7.417   8.853
 6311POPC   GL219214  26.113   7.479   8.853
 6311POPC   C1A19215  26.056   7.376   8.553
 6311POPC   D2A19216  26.011   7.449   8.253
 6311POPC   C3A19217  26.008   7.425   7.953
 6311POPC   C4A19218  26.011   7.408   7.653
 6311POPC   C1B19219  26.299   7.549   8.553
 6311POPC   C2B19220  26.225   7.525   8.253
 6311POPC   C3B19221  26.220   7.547   7.953
 6311POPC   C4B19222  26.257   7.506   7.653
 6312POPC   NC319223  21.362  14.411   9.453
 6312POPC   PO419224  21.408  14.428   9.153
 6312POPC   GL119225  21.393  14.377   8.853
 6312POPC   GL219226  21.241  14.373   8.853
 6312POPC   C1A19227  21.430  14.371   8.553
 6312POPC   D2A19228  21.378  14.412   8.253
 6312POPC   C3A19229  21.428  14.403   7.953
 6312POPC   C4A19230  21.369  14.418   7.653
 6312POPC   C1B19231  21.178  14.380   8.553
 6312POPC   C2B19232  21.110  14.388   8.253
 6312POPC   C3B19233  21.146  14.395   7.953
 6312POPC   C4B19234  21.107  14.337   7.653
 6313POPC   NC319235  37.690   9.765   9.453
 6313POPC   PO419236  37.635   9.713   9.153
 6313POPC   GL119237  37.687   9.761   8.853
 6313POPC   GL219238  37.705   9.834   8.853
 6313POPC   C1A19239  37.710   9.722   8.553
 6313POPC   D2A19240  37.635   9.764   8.253
 6313POPC   C3A19241  37.646   9.699   7.953
 6313POPC   C4A19242  37.677   9.762   7.653
 6313POPC   C1B19243  37.638  10.026   8.553
 6313POPC   C2B19244  37.724   9.982   8.253
 6313POPC   C3B19245  37.640  10.041   7.953
 6313POPC   C4B19246  37.654  10.033   7.653
 6314POPC   NC319247  42.336  12.090   9.453
 6314POPC   PO419248  42.376  12.083   9.153
 6314POPC   GL119249  42.356  12.090   8.853
 6314POPC   GL219250  42.412  12.051   8.853
 6314POPC   C1A19251  42.291  12.061   8.553
 6314POPC   D2A19252  42.354  12.043   8.253
 6314POPC   C3A19253  42.359  12.109   7.953
 6314POPC   C4A19254  42.307  12.114   7.653
 6314POPC   C1B19255  42.572  11.912   8.553
 6314POPC   C2B19256  42.532  11.983   8.253
 6314POPC   C3B19257  42.527  11.912   7.953
 6314POPC   C4B19258  42.589  11.940   7.653
 6315POPC   NC319259  35.309  27.620   9.453
 6315POPC   PO419260  35.316  27.544   9.153
 6315POPC   GL119261  35.347  27.609   8.853
 6315POPC   GL219262  35.432  27.731   8.853
 6315POPC   C1A19263  35.382  27.639   8.553
 6315POPC   D2A19264  35.389  27.565   8.253
 6315POPC   C3A19265  35.342  27.638   7.953
 6315POPC   C4A19266  35.309  27.609   7.653
 6315POPC   C1B19267  35.535  27.834   8.553
 6315POPC   C2B19268  35.539  27.830   8.253
 6315POPC   C3B19269  35.506  27.830   7.953
 6315POPC   C4B19270  35.539  27.769   7.653
 6316POPC   NC319271   4.366   0.412   9.453
 6316POPC   PO419272   4.300   0.427   9.153
 6316POPC   GL119273   4.343   0.446   8.853
 6316POPC   GL219274   4.325   0.276   8.853
 6316POPC   C1A19275   4.268   0.421   8.553
 6316POPC   D2A19276   4.358   0.406   8.253
 6316POPC   C3A19277   4.283   0.419   7.953
 6316POPC   C4A19278   4.325   0.455   7.653
 6316POPC   C1B19279   4.332   0.166   8.553
 6316POPC   C2B19280   4.344   0.228   8.253
 6316POPC   C3B19281   4.417   0.232   7.953
 6316POPC   C4B19282   4.326   0.220   7.653
 6317POPC   NC319283  39.255  28.355   9.453
 6317POPC   PO419284  39.276  28.331   9.153
 6317POPC   GL119285  39.231  28.356   8.853
 6317POPC   GL219286  39.254  28.498   8.853
 6317POPC   C1A19287  39.269  28.414   8.553
 6317POPC   D2A19288  39.268  28.363   8.253
 6317POPC   C3A19289  39.239  28.323   7.953
 6317POPC   C4A19290  39.202  28.402   7.653
 6317POPC   C1B19291  39.180  28.619   8.553
 6317POPC   C2B19292  39.196  28.596   8.253
 6317POPC   C3B19293  39.208  28.598   7.953
 6317POPC   C4B19294  39.165  28.571   7.653
 6318POPC   NC319295  26.004  21.418   9.453
 6318POPC   PO419296  26.007  21.337   9.153
 6318POPC   GL119297  26.011  21.379   8.853
 6318POPC   GL219298  26.026  21.213   8.853
 6318POPC   C1A19299  26.078  21.407   8.553
 6318POPC   D2A19300  26.010  21.344   8.253
 6318POPC   C3A19301  26.000  21.393   7.953
 6318POPC   C4A19302  26.019  21.379   7.653
 6318POPC   C1B19303  26.069  21.156   8.553
 6318POPC   C2B19304  26.080  21.169   8.253
 6318POPC   C3B19305  26.108  21.139   7.953
 6318POPC   C4B19306  26.054  21.143   7.653
 6319POPC   NC319307  12.866  24.450   9.453
 6319POPC   PO419308  12.893  24.510   9.153
 6319POPC   GL119309  12.828  24.480   8.853
 6319POPC   GL219310  12.853  24.637   8.853
 6319POPC   C1A19311  12.898  24.451   8.553
 6319POPC   D2A19312  12.836  24.500   8.253
 6319POPC   C3A19313  12.837  24.494   7.953
 6319POPC   C4A19314  12.839  24.529   7.653
 6319POPC   C1B19315  12.904  24.771   8.553
 6319POPC   C2B19316  12.919  24.786   8.253
 6319POPC   C3B19317  12.857  24.693   7.953
 6319POPC   C4B19318  12.884  24.701   7.653
 6320POPC   NC319319  37.718  11.295   9.453
 6320POPC   PO419320  37.664  11.263   9.153
 6320POPC   GL119321  37.637  11.305   8.853
 6320POPC   GL219322  37.693  11.178   8.853
 6320POPC   C1A19323  37.637  11.291   8.553
 6320POPC   D2A19324  37.672  11.304   8.253
 6320POPC   C3A19325  37.699  11.349   7.953
 6320POPC   C4A19326  37.661  11.266   7.653
 6320POPC   C1B19327  37.721  11.108   8.553
 6320POPC   C2B19328  37.781  11.104   8.253
 6320POPC   C3B19329  37.743  11.088   7.953
 6320POPC   C4B19330  37.736  11.043   7.653
 6321POPC   NC319331  42.329  23.736   9.453
 6321POPC   PO419332  42.374  23.740   9.153
 6321POPC   GL119333  42.315  23.716   8.853
 6321POPC   GL219334  42.327  23.846   8.853
 6321POPC   C1A19335  42.365  23.668   8.553
 6321POPC   D2A19336  42.314  23.743   8.253
 6321POPC   C3A19337  42.294  23.715   7.953
 6321POPC   C4A19338  42.330  23.707   7.653
 6321POPC   C1B19339  42.270  23.999   8.553
 6321POPC   C2B19340  42.262  23.918   8.253
 6321POPC   C3B19341  42.278  23.967   7.953
 6321POPC   C4B19342  42.313  23.982   7.653
 6322POPC   NC319343  14.398   2.030   9.453
 6322POPC   PO419344  14.442   1.993   9.153
 6322POPC   GL119345  14.406   1.966   8.853
 6322POPC   GL219346  14.401   2.076   8.853
 6322POPC   C1A19347  14.452   1.955   8.553
 6322POPC   D2A19348  14.376   2.023   8.253
 6322POPC   C3A19349  14.425   2.019   7.953
 6322POPC   C4A19350  14.422   1.988   7.653
 6322POPC   C1B19351  14.428   2.278   8.553
 6322POPC   C2B19352  14.479   2.230   8.253
 6322POPC   C3B19353  14.475   2.282   7.953
 6322POPC   C4B19354  14.442   2.245   7.653
 6323POPC   NC319355  17.538  33.008   9.453
 6323POPC   PO419356  17.552  33.045   9.153
 6323POPC   GL119357  17.546  33.062   8.853
 6323POPC   GL219358  17.636  32.972   8.853
 6323POPC   C1A19359  17.496  33.051   8.553
 6323POPC   D2A19360  17.515  32.994   8.253
 6323POPC   C3A19361  17.512  33.055   7.953
 6323POPC   C4A19362  17.503  33.064   7.653
 6323POPC   C1B19363  17.723  32.871   8.553
 6323POPC   C2B19364  17.703  32.801   8.253
 6323POPC   C3B19365  17.694  32.802   7.953
 6323POPC   C4B19366  17.656  32.828   7.653
 6324POPC   NC319367  15.953  27.592   9.453
 6324POPC   PO419368  15.916  27.618   9.153
 6324POPC   GL119369  15.980  27.556   8.853
 6324POPC   GL219370  16.047  27.471   8.853
 6324POPC   C1A19371  15.949  27.643   8.553
 6324POPC   D2A19372  16.004  27.560   8.253
 6324POPC   C3A19373  15.933  27.563   7.953
 6324POPC   C4A19374  16.004  27.640   7.653
 6324POPC   C1B19375  16.122  27.330   8.553
 6324POPC   C2B19376  16.084  27.416   8.253
 6324POPC   C3B19377  16.044  27.360   7.953
 6324POPC   C4B19378  16.111  27.416   7.653
 6325POPC   NC319379  12.120  24.482   9.453
 6325POPC   PO419380  12.125  24.463   9.153
 6325POPC   GL119381  12.037  24.494   8.853
 6325POPC   GL219382  12.019  24.340   8.853
 6325POPC   C1A19383  12.108  24.496   8.553
 6325POPC   D2A19384  12.089  24.442   8.253
 6325POPC   C3A19385  12.036  24.452   7.953
 6325POPC   C4A19386  12.050  24.470   7.653
 6325POPC   C1B19387  12.004  24.308   8.553
 6325POPC   C2B19388  11.926  24.273   8.253
 6325POPC   C3B19389  11.920  24.230   7.953
 6325POPC   C4B19390  11.978  24.267   7.653
 6326POPC   NC319391   9.782   2.753   9.453
 6326POPC   PO419392   9.794   2.781   9.153
 6326POPC   GL119393   9.718   2.753   8.853
 6326POPC   GL219394   9.817   2.911   8.853
 6326POPC   C1A19395   9.742   2.745   8.553
 6326POPC   D2A19396   9.759   2.815   8.253
 6326POPC   C3A19397   9.770   2.795   7.953
 6326POPC   C4A19398   9.708   2.815   7.653
 6326POPC   C1B19399   9.864   3.019   8.553
 6326POPC   C2B19400   9.811   2.994   8.253
 6326POPC   C3B19401   9.881   3.021   7.953
 6326POPC   C4B19402   9.901   2.979   7.653
 6327POPC   NC319403  38.496  22.952   9.453
 6327POPC   PO419404  38.484  22.928   9.153
 6327POPC   GL119405  38.490  22.962   8.853
 6327POPC   GL219406  38.301  22.916   8.853
 6327POPC   C1A19407  38.495  22.936   8.553
 6327POPC   D2A19408  38.494  22.937   8.253
 6327POPC   C3A19409  38.439  22.917   7.953
 6327POPC   C4A19410  38.448  22.895   7.653
 6327POPC   C1B19411  38.166  22.934   8.553
 6327POPC   C2B19412  38.227  22.961   8.253
 6327POPC   C3B19413  38.209  22.984   7.953
 6327POPC   C4B19414  38.172  22.953   7.653
 6328POPC   NC319415   6.663  36.886   9.453
 6328POPC   PO419416   6.671  36.922   9.153
 6328POPC   GL119417   6.599  36.903   8.853
 6328POPC   GL219418   6.786  36.904   8.853
 6328POPC   C1A19419   6.689  36.945   8.553
 6328POPC   D2A19420   6.598  36.929   8.253
 6328POPC   C3A19421   6.692  36.898   7.953
 6328POPC   C4A19422   6.626  36.870   7.653
 6328POPC   C1B19423   6.882  36.844   8.553
 6328POPC   C2B19424   6.895  36.863   8.253
 6328POPC   C3B19425   6.906  36.836   7.953
 6328POPC   C4B19426   6.902  36.780   7.653
 6329POPC   NC319427  42.384  29.912   9.453
 6329POPC   PO419428  42.356  29.966   9.153
 6329POPC   GL119429  42.321  29.915   8.853
 6329POPC   GL219430  42.330  29.850   8.853
 6329POPC   C1A19431  42.330  29.967   8.553
 6329POPC   D2A19432  42.291  29.913   8.253
 6329POPC   C3A19433  42.338  29.891   7.953
 6329POPC   C4A19434  42.379  29.967   7.653
 6329POPC   C1B19435  42.308  29.639   8.553
 6329POPC   C2B19436  42.219  29.650   8.253
 6329POPC   C3B19437  42.235  29.667   7.953
 6329POPC   C4B19438  42.245  29.648   7.653
 6330POPC   NC319439  34.602   8.168   9.453
 6330POPC   PO419440  34.550   8.226   9.153
 6330POPC   GL119441  34.579   8.209   8.853
 6330POPC   GL219442  34.614   8.316   8.853
 6330POPC   C1A19443  34.527   8.167   8.553
 6330POPC   D2A19444  34.542   8.193   8.253
 6330POPC   C3A19445  34.531   8.225   7.953
 6330POPC   C4A19446  34.609   8.245   7.653
 6330POPC   C1B19447  34.716   8.419   8.553
 6330POPC   C2B19448  34.691   8.379   8.253
 6330POPC   C3B19449  34.725   8.426   7.953
 6330POPC   C4B19450  34.716   8.409   7.653
 6331POPC   NC319451  36.870  20.575   9.453
 6331POPC   PO419452  36.939  20.625   9.153
 6331POPC   GL119453  36.916  20.619   8.853
 6331POPC   GL219454  36.808  20.716   8.853
 6331POPC   C1A19455  36.914  20.588   8.553
 6331POPC   D2A19456  36.915  20.647   8.253
 6331POPC   C3A19457  36.859  20.578   7.953
 6331POPC   C4A19458  36.928  20.611   7.653
 6331POPC   C1B19459  36.747  20.783   8.553
 6331POPC   C2B19460  36.763  20.831   8.253
 6331POPC   C3B19461  36.711  20.816   7.953
 6331POPC   C4B19462  36.762  20.764   7.653
 6332POPC   NC319463  37.682  44.693   9.453
 6332POPC   PO419464  37.694  44.631   9.153
 6332POPC   GL119465  37.673  44.634   8.853
 6332POPC   GL219466  37.731  44.732   8.853
 6332POPC   C1A19467  37.662  44.692   8.553
 6332POPC   D2A19468  37.694  44.654   8.253
 6332POPC   C3A19469  37.643  44.709   7.953
 6332POPC   C4A19470  37.635  44.649   7.653
 6332POPC   C1B19471  37.775  44.925   8.553
 6332POPC   C2B19472  37.727  44.936   8.253
 6332POPC   C3B19473  37.730  44.917   7.953
 6332POPC   C4B19474  37.727  44.878   7.653
 6333POPC   NC319475  22.177  25.995   9.453
 6333POPC   PO419476  22.211  25.993   9.153
 6333POPC   GL119477  22.180  26.087   8.853
 6333POPC   GL219478  22.256  26.087   8.853
 6333POPC   C1A19479  22.122  26.046   8.553
 6333POPC   D2A19480  22.155  26.061   8.253
 6333POPC   C3A19481  22.133  26.000   7.953
 6333POPC   C4A19482  22.194  26.012   7.653
 6333POPC   C1B19483  22.452  26.048   8.553
 6333POPC   C2B19484  22.410  26.057   8.253
 6333POPC   C3B19485  22.378  26.055   7.953
 6333POPC   C4B19486  22.421  25.988   7.653
 6334POPC   NC319487   5.092  22.198   9.453
 6334POPC   PO419488   5.078  22.188   9.153
 6334POPC   GL119489   5.068  22.131   8.853
 6334POPC   GL219490   5.011  22.306   8.853
 6334POPC   C1A19491   5.121  22.143   8.553
 6334POPC   D2A19492   5.083  22.197   8.253
 6334POPC   C3A19493   5.070  22.158   7.953
 6334POPC   C4A19494   5.129  22.207   7.653
 6334POPC   C1B19495   4.904  22.323   8.553
 6334POPC   C2B19496   4.972  22.394   8.253
 6334POPC   C3B19497   4.955  22.347   7.953
 6334POPC   C4B19498   4.892  22.379   7.653
 6335POPC   NC319499  40.056  37.702   9.453
 6335POPC   PO419500  40.006  37.701   9.153
 6335POPC   GL119501  40.000  37.662   8.853
 6335POPC   GL219502  40.147  37.694   8.853
 6335POPC   C1A19503  39.959  37.713   8.553
 6335POPC   D2A19504  39.959  37.643   8.253
 6335POPC   C3A19505  39.976  37.703   7.953
 6335POPC   C4A19506  40.037  37.656   7.653
 6335POPC   C1B19507  40.205  37.603   8.553
 6335POPC   C2B19508  40.288  37.593   8.253
 6335POPC   C3B19509  40.260  37.665   7.953
 6335POPC   C4B19510  40.295  37.644   7.653
 6336POPC   NC319511  11.349  22.134   9.453
 6336POPC   PO419512  11.331  22.208   9.153
 6336POPC   GL119513  11.251  22.201   8.853
 6336POPC   GL219514  11.372  22.236   8.853
 6336POPC   C1A19515  11.284  22.193   8.553
 6336POPC   D2A19516  11.317  22.112   8.253
 6336POPC   C3A19517  11.260  22.207   7.953
 6336POPC   C4A19518  11.261  22.126   7.653
 6336POPC   C1B19519  11.502  22.292   8.553
 6336POPC   C2B19520  11.505  22.349   8.253
 6336POPC   C3B19521  11.528  22.304   7.953
 6336POPC   C4B19522  11.487  22.342   7.653
 6337POPC   NC319523  39.194  16.726   9.453
 6337POPC   PO419524  39.219  16.769   9.153
 6337POPC   GL119525  39.187  16.766   8.853
 6337POPC   GL219526  39.148  16.685   8.853
 6337POPC   C1A19527  39.224  16.681   8.553
 6337POPC   D2A19528  39.223  16.710   8.253
 6337POPC   C3A19529  39.219  16.735   7.953
 6337POPC   C4A19530  39.239  16.754   7.653
 6337POPC   C1B19531  39.008  16.664   8.553
 6337POPC   C2B19532  39.030  16.615   8.253
 6337POPC   C3B19533  39.003  16.607   7.953
 6337POPC   C4B19534  38.954  16.608   7.653
 6338POPC   NC319535  12.055   8.972   9.453
 6338POPC   PO419536  12.054   8.951   9.153
 6338POPC   GL119537  12.097   8.988   8.853
 6338POPC   GL219538  11.924   9.076   8.853
 6338POPC   C1A19539  12.055   9.012   8.553
 6338POPC   D2A19540  12.119   9.007   8.253
 6338POPC   C3A19541  12.047   8.979   7.953
 6338POPC   C4A19542  12.059   8.943   7.653
 6338POPC   C1B19543  11.896   9.133   8.553
 6338POPC   C2B19544  11.910   9.084   8.253
 6338POPC   C3B19545  11.871   9.124   7.953
 6338POPC   C4B19546  11.877   9.115   7.653
 6339POPC   NC319547   1.943  44.645   9.453
 6339POPC   PO419548   1.980  44.688   9.153
 6339POPC   GL119549   1.956  44.675   8.853
 6339POPC   GL219550   2.085  44.622   8.853
 6339POPC   C1A19551   1.941  44.673   8.553
 6339POPC   D2A19552   2.024  44.699   8.253
 6339POPC   C3A19553   2.023  44.707   7.953
 6339POPC   C4A19554   1.951  44.706   7.653
 6339POPC   C1B19555   2.196  44.574   8.553
 6339POPC   C2B19556   2.228  44.548   8.253
 6339POPC   C3B19557   2.211  44.547   7.953
 6339POPC   C4B19558   2.249  44.637   7.653
 6340POPC   NC319559  34.597   7.389   9.453
 6340POPC   PO419560  34.555   7.421   9.153
 6340POPC   GL119561  34.538   7.423   8.853
 6340POPC   GL219562  34.668   7.367   8.853
 6340POPC   C1A19563  34.622   7.389   8.553
 6340POPC   D2A19564  34.545   7.386   8.253
 6340POPC   C3A19565  34.536   7.391   7.953
 6340POPC   C4A19566  34.557   7.416   7.653
 6340POPC   C1B19567  34.787   7.392   8.553
 6340POPC   C2B19568  34.863   7.363   8.253
 6340POPC   C3B19569  34.860   7.402   7.953
 6340POPC   C4B19570  34.779   7.429   7.653
 6341POPC   NC319571  16.731  23.736   9.453
 6341POPC   PO419572  16.760  23.720   9.153
 6341POPC   GL119573  16.734  23.688   8.853
 6341POPC   GL219574  16.777  23.600   8.853
 6341POPC   C1A19575  16.704  23.694   8.553
 6341POPC   D2A19576  16.747  23.701   8.253
 6341POPC   C3A19577  16.694  23.749   7.953
 6341POPC   C4A19578  16.747  23.719   7.653
 6341POPC   C1B19579  16.891  23.563   8.553
 6341POPC   C2B19580  16.911  23.490   8.253
 6341POPC   C3B19581  16.886  23.584   7.953
 6341POPC   C4B19582  16.947  23.537   7.653
 6342POPC   NC319583  23.742  15.921   9.453
 6342POPC   PO419584  23.740  15.963   9.153
 6342POPC   GL119585  23.671  15.975   8.853
 6342POPC   GL219586  23.882  15.919   8.853
 6342POPC   C1A19587  23.700  15.988   8.553
 6342POPC   D2A19588  23.735  15.948   8.253
 6342POPC   C3A19589  23.682  15.989   7.953
 6342POPC   C4A19590  23.750  15.944   7.653
 6342POPC   C1B19591  23.986  15.936   8.553
 6342POPC   C2B19592  23.928  15.932   8.253
 6342POPC   C3B19593  23.965  15.917   7.953
 6342POPC   C4B19594  23.974  15.934   7.653
 6343POPC   NC319595  28.334  41.514   9.453
 6343POPC   PO419596  28.337  41.586   9.153
 6343POPC   GL119597  28.334  41.568   8.853
 6343POPC   GL219598  28.470  41.692   8.853
 6343POPC   C1A19599  28.356  41.580   8.553
 6343POPC   D2A19600  28.320  41.531   8.253
 6343POPC   C3A19601  28.380  41.563   7.953
 6343POPC   C4A19602  28.381  41.568   7.653
 6343POPC   C1B19603  28.492  41.789   8.553
 6343POPC   C2B19604  28.472  41.825   8.253
 6343POPC   C3B19605  28.446  41.834   7.953
 6343POPC   C4B19606  28.437  41.753   7.653
 6344POPC   NC319607   9.795  22.152   9.453
 6344POPC   PO419608   9.740  22.135   9.153
 6344POPC   GL119609   9.739  22.150   8.853
 6344POPC   GL219610   9.864  22.168   8.853
 6344POPC   C1A19611   9.798  22.196   8.553
 6344POPC   D2A19612   9.783  22.189   8.253
 6344POPC   C3A19613   9.791  22.166   7.953
 6344POPC   C4A19614   9.714  22.171   7.653
 6344POPC   C1B19615  10.025  22.119   8.553
 6344POPC   C2B19616   9.987  22.143   8.253
 6344POPC   C3B19617  10.006  22.122   7.953
 6344POPC   C4B19618   9.996  22.153   7.653
 6345POPC   NC319619  15.921  40.813   9.453
 6345POPC   PO419620  15.947  40.744   9.153
 6345POPC   GL119621  15.986  40.746   8.853
 6345POPC   GL219622  15.861  40.822   8.853
 6345POPC   C1A19623  15.918  40.794   8.553
 6345POPC   D2A19624  15.916  40.773   8.253
 6345POPC   C3A19625  15.915  40.761   7.953
 6345POPC   C4A19626  15.961  40.788   7.653
 6345POPC   C1B19627  15.731  40.825   8.553
 6345POPC   C2B19628  15.688  40.849   8.253
 6345POPC   C3B19629  15.671  40.795   7.953
 6345POPC   C4B19630  15.697  40.781   7.653
 6346POPC   NC319631  39.188  38.440   9.453
 6346POPC   PO419632  39.242  38.436   9.153
 6346POPC   GL119633  39.224  38.456   8.853
 6346POPC   GL219634  39.262  38.361   8.853
 6346POPC   C1A19635  39.220  38.485   8.553
 6346POPC   D2A19636  39.244  38.458   8.253
 6346POPC   C3A19637  39.259  38.426   7.953
 6346POPC   C4A19638  39.217  38.487   7.653
 6346POPC   C1B19639  39.246  38.248   8.553
 6346POPC   C2B19640  39.276  38.256   8.253
 6346POPC   C3B19641  39.239  38.243   7.953
 6346POPC   C4B19642  39.219  38.162   7.653
 6347POPC   NC319643  35.313  29.923   9.453
 6347POPC   PO419644  35.361  29.905   9.153
 6347POPC   GL119645  35.350  29.887   8.853
 6347POPC   GL219646  35.429  30.033   8.853
 6347POPC   C1A19647  35.353  29.928   8.553
 6347POPC   D2A19648  35.359  29.960   8.253
 6347POPC   C3A19649  35.361  29.904   7.953
 6347POPC   C4A19650  35.401  29.881   7.653
 6347POPC   C1B19651  35.525  30.099   8.553
 6347POPC   C2B19652  35.517  30.097   8.253
 6347POPC   C3B19653  35.541  30.098   7.953
 6347POPC   C4B19654  35.474  30.140   7.653
 6348POPC   NC319655  42.362  43.150   9.453
 6348POPC   PO419656  42.299  43.115   9.153
 6348POPC   GL119657  42.350  43.074   8.853
 6348POPC   GL219658  42.206  43.247   8.853
 6348POPC   C1A19659  42.343  43.128   8.553
 6348POPC   D2A19660  42.369  43.092   8.253
 6348POPC   C3A19661  42.380  43.149   7.953
 6348POPC   C4A19662  42.351  43.119   7.653
 6348POPC   C1B19663  42.151  43.309   8.553
 6348POPC   C2B19664  42.134  43.316   8.253
 6348POPC   C3B19665  42.172  43.306   7.953
 6348POPC   C4B19666  42.128  43.313   7.653
 6349POPC   NC319667  42.299  38.503   9.453
 6349POPC   PO419668  42.372  38.409   9.153
 6349POPC   GL119669  42.306  38.416   8.853
 6349POPC   GL219670  42.339  38.332   8.853
 6349POPC   C1A19671  42.365  38.450   8.553
 6349POPC   D2A19672  42.374  38.438   8.253
 6349POPC   C3A19673  42.302  38.468   7.953
 6349POPC   C4A19674  42.345  38.412   7.653
 6349POPC   C1B19675  42.285  38.200   8.553
 6349POPC   C2B19676  42.250  38.229   8.253
 6349POPC   C3B19677  42.303  38.163   7.953
 6349POPC   C4B19678  42.309  38.223   7.653
 6350POPC   NC319679  42.347  30.718   9.453
 6350POPC   PO419680  42.293  30.695   9.153
 6350POPC   GL119681  42.297  30.744   8.853
 6350POPC   GL219682  42.265  30.582   8.853
 6350POPC   C1A19683  42.312  30.716   8.553
 6350POPC   D2A19684  42.302  30.661   8.253
 6350POPC   C3A19685  42.296  30.682   7.953
 6350POPC   C4A19686  42.376  30.647   7.653
 6350POPC   C1B19687  42.242  30.484   8.553
 6350POPC   C2B19688  42.286  30.494   8.253
 6350POPC   C3B19689  42.251  30.442   7.953
 6350POPC   C4B19690  42.270  30.450   7.653
 6351POPC   NC319691   8.232  26.079   9.453
 6351POPC   PO419692   8.178  26.048   9.153
 6351POPC   GL119693   8.181  26.028   8.853
 6351POPC   GL219694   8.140  26.108   8.853
 6351POPC   C1A19695   8.225  26.072   8.553
 6351POPC   D2A19696   8.188  26.023   8.253
 6351POPC   C3A19697   8.237  26.087   7.953
 6351POPC   C4A19698   8.166  26.067   7.653
 6351POPC   C1B19699   8.045  26.224   8.553
 6351POPC   C2B19700   8.005  26.219   8.253
 6351POPC   C3B19701   8.020  26.210   7.953
 6351POPC   C4B19702   8.075  26.248   7.653
 6352POPC   NC319703   4.321  19.090   9.453
 6352POPC   PO419704   4.287  19.024   9.153
 6352POPC   GL119705   4.272  19.025   8.853
 6352POPC   GL219706   4.303  19.204   8.853
 6352POPC   C1A19707   4.301  19.098   8.553
 6352POPC   D2A19708   4.337  19.055   8.253
 6352POPC   C3A19709   4.342  19.026   7.953
 6352POPC   C4A19710   4.312  19.066   7.653
 6352POPC   C1B19711   4.242  19.313   8.553
 6352POPC   C2B19712   4.248  19.246   8.253
 6352POPC   C3B19713   4.216  19.250   7.953
 6352POPC   C4B19714   4.219  19.267   7.653
 6353POPC   NC319715  28.350  35.338   9.453
 6353POPC   PO419716  28.413  35.354   9.153
 6353POPC   GL119717  28.341  35.374   8.853
 6353POPC   GL219718  28.400  35.447   8.853
 6353POPC   C1A19719  28.398  35.317   8.553
 6353POPC   D2A19720  28.377  35.331   8.253
 6353POPC   C3A19721  28.354  35.381   7.953
 6353POPC   C4A19722  28.411  35.340   7.653
 6353POPC   C1B19723  28.379  35.628   8.553
 6353POPC   C2B19724  28.390  35.589   8.253
 6353POPC   C3B19725  28.344  35.604   7.953
 6353POPC   C4B19726  28.399  35.583   7.653
 6354POPC   NC319727  22.928  25.266   9.453
 6354POPC   PO419728  22.935  25.304   9.153
 6354POPC   GL119729  22.953  25.277   8.853
 6354POPC   GL219730  22.951  25.342   8.853
 6354POPC   C1A19731  22.953  25.256   8.553
 6354POPC   D2A19732  22.978  25.240   8.253
 6354POPC   C3A19733  22.906  25.271   7.953
 6354POPC   C4A19734  22.971  25.314   7.653
 6354POPC   C1B19735  22.982  25.483   8.553
 6354POPC   C2B19736  22.954  25.519   8.253
 6354POPC   C3B19737  22.920  25.557   7.953
 6354POPC   C4B19738  22.916  25.472   7.653
 6355POPC   NC319739  40.021   7.423   9.453
 6355POPC   PO419740  40.057   7.470   9.153
 6355POPC   GL119741  40.009   7.400   8.853
 6355POPC   GL219742  39.927   7.445   8.853
 6355POPC   C1A19743  39.996   7.438   8.553
 6355POPC   D2A19744  39.995   7.421   8.253
 6355POPC   C3A19745  40.023   7.396   7.953
 6355POPC   C4A19746  39.983   7.406   7.653
 6355POPC   C1B19747  39.779   7.450   8.553
 6355POPC   C2B19748  39.778   7.392   8.253
 6355POPC   C3B19749  39.757   7.359   7.953
 6355POPC   C4B19750  39.710   7.409   7.653
 6356POPC   NC319751  22.947   8.962   9.453
 6356POPC   PO419752  22.927   9.021   9.153
 6356POPC   GL119753  22.930   8.985   8.853
 6356POPC   GL219754  23.033   9.053   8.853
 6356POPC   C1A19755  22.900   8.940   8.553
 6356POPC   D2A19756  22.975   8.928   8.253
 6356POPC   C3A19757  22.906   9.007   7.953
 6356POPC   C4A19758  22.906   9.006   7.653
 6356POPC   C1B19759  23.165   9.065   8.553
 6356POPC   C2B19760  23.163   9.064   8.253
 6356POPC   C3B19761  23.196   9.076   7.953
 6356POPC   C4B19762  23.226   9.016   7.653
 6357POPC   NC319763  15.939   2.033   9.453
 6357POPC   PO419764  15.921   1.940   9.153
 6357POPC   GL119765  15.984   2.018   8.853
 6357POPC   GL219766  15.904   2.143   8.853
 6357POPC   C1A19767  15.909   1.989   8.553
 6357POPC   D2A19768  15.991   1.945   8.253
 6357POPC   C3A19769  15.948   2.011   7.953
 6357POPC   C4A19770  15.989   2.001   7.653
 6357POPC   C1B19771  15.897   2.184   8.553
 6357POPC   C2B19772  15.833   2.225   8.253
 6357POPC   C3B19773  15.839   2.263   7.953
 6357POPC   C4B19774  15.836   2.193   7.653
 6358POPC   NC319775  33.819  14.390   9.453
 6358POPC   PO419776  33.760  14.447   9.153
 6358POPC   GL119777  33.781  14.429   8.853
 6358POPC   GL219778  33.652  14.468   8.853
 6358POPC   C1A19779  33.839  14.379   8.553
 6358POPC   D2A19780  33.803  14.354   8.253
 6358POPC   C3A19781  33.807  14.417   7.953
 6358POPC   C4A19782  33.832  14.417   7.653
 6358POPC   C1B19783  33.585  14.474   8.553
 6358POPC   C2B19784  33.560  14.442   8.253
 6358POPC   C3B19785  33.535  14.497   7.953
 6358POPC   C4B19786  33.562  14.467   7.653
 6359POPC   NC319787  40.818   1.982   9.453
 6359POPC   PO419788  40.797   1.982   9.153
 6359POPC   GL119789  40.762   1.965   8.853
 6359POPC   GL219790  40.659   2.100   8.853
 6359POPC   C1A19791  40.816   1.941   8.553
 6359POPC   D2A19792  40.809   1.941   8.253
 6359POPC   C3A19793  40.753   1.986   7.953
 6359POPC   C4A19794  40.823   2.019   7.653
 6359POPC   C1B19795  40.601   2.089   8.553
 6359POPC   C2B19796  40.592   2.139   8.253
 6359POPC   C3B19797  40.564   2.181   7.953
 6359POPC   C4B19798  40.625   2.125   7.653
 6360POPC   NC319799   9.792  35.348   9.453
 6360POPC   PO419800   9.744  35.387   9.153
 6360POPC   GL119801   9.762  35.402   8.853
 6360POPC   GL219802   9.772  35.183   8.853
 6360POPC   C1A19803   9.744  35.341   8.553
 6360POPC   D2A19804   9.739  35.306   8.253
 6360POPC   C3A19805   9.753  35.345   7.953
 6360POPC   C4A19806   9.759  35.388   7.653
 6360POPC   C1B19807   9.779  35.063   8.553
 6360POPC   C2B19808   9.835  35.109   8.253
 6360POPC   C3B19809   9.847  35.075   7.953
 6360POPC   C4B19810   9.767  35.058   7.653
 6361POPC   NC319811   1.972  16.686   9.453
 6361POPC   PO419812   1.962  16.723   9.153
 6361POPC   GL119813   1.943  16.764   8.853
 6361POPC   GL219814   1.836  16.702   8.853
 6361POPC   C1A19815   1.996  16.754   8.553
 6361POPC   D2A19816   1.984  16.701   8.253
 6361POPC   C3A19817   1.972  16.715   7.953
 6361POPC   C4A19818   1.969  16.713   7.653
 6361POPC   C1B19819   1.786  16.669   8.553
 6361POPC   C2B19820   1.788  16.694   8.253
 6361POPC   C3B19821   1.712  16.706   7.953
 6361POPC   C4B19822   1.703  16.653   7.653
 6362POPC   NC319823   6.665  39.957   9.453
 6362POPC   PO419824   6.672  39.987   9.153
 6362POPC   GL119825   6.626  40.033   8.853
 6362POPC   GL219826   6.542  39.863   8.853
 6362POPC   C1A19827   6.661  40.005   8.553
 6362POPC   D2A19828   6.628  40.012   8.253
 6362POPC   C3A19829   6.601  40.044   7.953
 6362POPC   C4A19830   6.684  39.993   7.653
 6362POPC   C1B19831   6.513  39.828   8.553
 6362POPC   C2B19832   6.450  39.845   8.253
 6362POPC   C3B19833   6.453  39.833   7.953
 6362POPC   C4B19834   6.481  39.858   7.653
 6363POPC   NC319835  32.253  10.535   9.453
 6363POPC   PO419836  32.298  10.491   9.153
 6363POPC   GL119837  32.246  10.554   8.853
 6363POPC   GL219838  32.113  10.588   8.853
 6363POPC   C1A19839  32.247  10.570   8.553
 6363POPC   D2A19840  32.265  10.489   8.253
 6363POPC   C3A19841  32.260  10.570   7.953
 6363POPC   C4A19842  32.239  10.545   7.653
 6363POPC   C1B19843  32.066  10.617   8.553
 6363POPC   C2B19844  32.005  10.709   8.253
 6363POPC   C3B19845  31.999  10.654   7.953
 6363POPC   C4B19846  32.074  10.623   7.653
 6364POPC   NC319847  43.896   1.168   9.453
 6364POPC   PO419848  43.842   1.261   9.153
 6364POPC   GL119849  43.897   1.216   8.853
 6364POPC   GL219850  43.804   1.290   8.853
 6364POPC   C1A19851  43.847   1.234   8.553
 6364POPC   D2A19852  43.840   1.242   8.253
 6364POPC   C3A19853  43.896   1.233   7.953
 6364POPC   C4A19854  43.892   1.219   7.653
 6364POPC   C1B19855  43.652   1.349   8.553
 6364POPC   C2B19856  43.727   1.382   8.253
 6364POPC   C3B19857  43.723   1.357   7.953
 6364POPC   C4B19858  43.690   1.334   7.653
 6365POPC   NC319859  25.285  42.293   9.453
 6365POPC   PO419860  25.290  42.335   9.153
 6365POPC   GL119861  25.295  42.363   8.853
 6365POPC   GL219862  25.109  42.378   8.853
 6365POPC   C1A19863  25.274  42.304   8.553
 6365POPC   D2A19864  25.222  42.357   8.253
 6365POPC   C3A19865  25.252  42.330   7.953
 6365POPC   C4A19866  25.260  42.305   7.653
 6365POPC   C1B19867  25.022  42.372   8.553
 6365POPC   C2B19868  25.008  42.365   8.253
 6365POPC   C3B19869  25.044  42.351   7.953
 6365POPC   C4B19870  25.007  42.383   7.653
 6366POPC   NC319871  25.278  19.854   9.453
 6366POPC   PO419872  25.313  19.873   9.153
 6366POPC   GL119873  25.230  19.811   8.853
 6366POPC   GL219874  25.231  19.714   8.853
 6366POPC   C1A19875  25.268  19.884   8.553
 6366POPC   D2A19876  25.282  19.846   8.253
 6366POPC   C3A19877  25.235  19.795   7.953
 6366POPC   C4A19878  25.250  19.883   7.653
 6366POPC   C1B19879  25.210  19.550   8.553
 6366POPC   C2B19880  25.210  19.539   8.253
 6366POPC   C3B19881  25.240  19.607   7.953
 6366POPC   C4B19882  25.244  19.594   7.653
 6367POPC   NC319883  18.316  22.889   9.453
 6367POPC   PO419884  18.268  22.910   9.153
 6367POPC   GL119885  18.279  22.968   8.853
 6367POPC   GL219886  18.314  23.065   8.853
 6367POPC   C1A19887  18.243  22.918   8.553
 6367POPC   D2A19888  18.277  22.905   8.253
 6367POPC   C3A19889  18.245  22.973   7.953
 6367POPC   C4A19890  18.304  22.985   7.653
 6367POPC   C1B19891  18.415  23.139   8.553
 6367POPC   C2B19892  18.389  23.123   8.253
 6367POPC   C3B19893  18.462  23.148   7.953
 6367POPC   C4B19894  18.422  23.151   7.653
 6368POPC   NC319895   4.279  19.815   9.453
 6368POPC   PO419896   4.309  19.806   9.153
 6368POPC   GL119897   4.325  19.865   8.853
 6368POPC   GL219898   4.312  19.920   8.853
 6368POPC   C1A19899   4.366  19.839   8.553
 6368POPC   D2A19900   4.320  19.831   8.253
 6368POPC   C3A19901   4.314  19.844   7.953
 6368POPC   C4A19902   4.314  19.874   7.653
 6368POPC   C1B19903   4.350  20.124   8.553
 6368POPC   C2B19904   4.343  20.115   8.253
 6368POPC   C3B19905   4.331  20.125   7.953
 6368POPC   C4B19906   4.335  20.066   7.653
 6369POPC   NC319907  12.124  18.277   9.453
 6369POPC   PO419908  12.070  18.268   9.153
 6369POPC   GL119909  12.093  18.253   8.853
 6369POPC   GL219910  12.121  18.349   8.853
 6369POPC   C1A19911  12.061  18.282   8.553
 6369POPC   D2A19912  12.078  18.242   8.253
 6369POPC   C3A19913  12.048  18.283   7.953
 6369POPC   C4A19914  12.109  18.245   7.653
 6369POPC   C1B19915  12.206  18.471   8.553
 6369POPC   C2B19916  12.200  18.560   8.253
 6369POPC   C3B19917  12.166  18.558   7.953
 6369POPC   C4B19918  12.161  18.509   7.653
 6370POPC   NC319919   5.083   9.700   9.453
 6370POPC   PO419920   5.125   9.705   9.153
 6370POPC   GL119921   5.110   9.739   8.853
 6370POPC   GL219922   5.191   9.607   8.853
 6370POPC   C1A19923   5.098   9.798   8.553
 6370POPC   D2A19924   5.058   9.703   8.253
 6370POPC   C3A19925   5.085   9.706   7.953
 6370POPC   C4A19926   5.124   9.761   7.653
 6370POPC   C1B19927   5.253   9.526   8.553
 6370POPC   C2B19928   5.190   9.555   8.253
 6370POPC   C3B19929   5.168   9.553   7.953
 6370POPC   C4B19930   5.249   9.545   7.653
 6371POPC   NC319931  22.132  15.971   9.453
 6371POPC   PO419932  22.167  15.934   9.153
 6371POPC   GL119933  22.130  15.939   8.853
 6371POPC   GL219934  22.278  15.875   8.853
 6371POPC   C1A19935  22.177  15.982   8.553
 6371POPC   D2A19936  22.158  15.949   8.253
 6371POPC   C3A19937  22.194  15.998   7.953
 6371POPC   C4A19938  22.123  15.988   7.653
 6371POPC   C1B19939  22.408  15.843   8.553
 6371POPC   C2B19940  22.377  15.849   8.253
 6371POPC   C3B19941  22.383  15.807   7.953
 6371POPC   C4B19942  22.343  15.783   7.653
 6372POPC   NC319943  35.375   0.450   9.453
 6372POPC   PO419944  35.362   0.417   9.153
 6372POPC   GL119945  35.345   0.433   8.853
 6372POPC   GL219946  35.303   0.567   8.853
 6372POPC   C1A19947  35.377   0.476   8.553
 6372POPC   D2A19948  35.370   0.438   8.253
 6372POPC   C3A19949  35.310   0.412   7.953
 6372POPC   C4A19950  35.346   0.415   7.653
 6372POPC   C1B19951  35.155   0.626   8.553
 6372POPC   C2B19952  35.169   0.635   8.253
 6372POPC   C3B19953  35.157   0.664   7.953
 6372POPC   C4B19954  35.192   0.584   7.653
 6373POPC   NC319955  34.624  12.065   9.453
 6373POPC   PO419956  34.563  12.118   9.153
 6373POPC   GL119957  34.562  12.117   8.853
 6373POPC   GL219958  34.704  11.997   8.853
 6373POPC   C1A19959  34.584  12.119   8.553
 6373POPC   D2A19960  34.573  12.123   8.253
 6373POPC   C3A19961  34.598  12.080   7.953
 6373POPC   C4A19962  34.607  12.063   7.653
 6373POPC   C1B19963  34.801  12.018   8.553
 6373POPC   C2B19964  34.784  12.032   8.253
 6373POPC   C3B19965  34.846  11.943   7.953
 6373POPC   C4B19966  34.807  11.984   7.653
 6374POPC   NC319967   7.371  29.945   9.453
 6374POPC   PO419968   7.462  29.879   9.153
 6374POPC   GL119969   7.403  29.966   8.853
 6374POPC   GL219970   7.365  29.818   8.853
 6374POPC   C1A19971   7.417  29.955   8.553
 6374POPC   D2A19972   7.403  29.968   8.253
 6374POPC   C3A19973   7.462  29.910   7.953
 6374POPC   C4A19974   7.417  29.889   7.653
 6374POPC   C1B19975   7.289  29.666   8.553
 6374POPC   C2B19976   7.334  29.662   8.253
 6374POPC   C3B19977   7.311  29.694   7.953
 6374POPC   C4B19978   7.359  29.673   7.653
 6375POPC   NC319979   5.823  26.083   9.453
 6375POPC   PO419980   5.879  26.023   9.153
 6375POPC   GL119981   5.847  26.068   8.853
 6375POPC   GL219982   5.979  26.043   8.853
 6375POPC   C1A19983   5.831  25.993   8.553
 6375POPC   D2A19984   5.847  26.058   8.253
 6375POPC   C3A19985   5.826  26.067   7.953
 6375POPC   C4A19986   5.854  26.073   7.653
 6375POPC   C1B19987   6.128  25.977   8.553
 6375POPC   C2B19988   6.100  26.006   8.253
 6375POPC   C3B19989   6.104  26.015   7.953
 6375POPC   C4B19990   6.086  26.018   7.653
 6376POPC   NC319991   8.195  35.386   9.453
 6376POPC   PO419992   8.163  35.317   9.153
 6376POPC   GL119993   8.242  35.333   8.853
 6376POPC   GL219994   8.226  35.424   8.853
 6376POPC   C1A19995   8.197  35.314   8.553
 6376POPC   D2A19996   8.200  35.382   8.253
 6376POPC   C3A19997   8.160  35.393   7.953
 6376POPC   C4A19998   8.229  35.332   7.653
 6376POPC   C1B19999   8.302  35.598   8.553
 6376POPC   C2B20000   8.302  35.560   8.253
 6376POPC   C3B20001   8.218  35.553   7.953
 6376POPC   C4B20002   8.239  35.583   7.653
 6377POPC   NC320003  19.043   1.195   9.453
 6377POPC   PO420004  19.100   1.168   9.153
 6377POPC   GL120005  19.052   1.243   8.853
 6377POPC   GL220006  19.063   1.308   8.853
 6377POPC   C1A20007  19.048   1.254   8.553
 6377POPC   D2A20008  19.033   1.173   8.253
 6377POPC   C3A20009  19.080   1.202   7.953
 6377POPC   C4A20010  19.041   1.194   7.653
 6377POPC   C1B20011  18.953   1.504   8.553
 6377POPC   C2B20012  18.961   1.503   8.253
 6377POPC   C3B20013  19.022   1.499   7.953
 6377POPC   C4B20014  18.966   1.452   7.653
 6378POPC   NC320015  41.590   2.029   9.453
 6378POPC   PO420016  41.598   1.949   9.153
 6378POPC   GL120017  41.544   2.023   8.853
 6378POPC   GL220018  41.507   2.077   8.853
 6378POPC   C1A20019  41.561   1.977   8.553
 6378POPC   D2A20020  41.555   2.030   8.253
 6378POPC   C3A20021  41.531   1.992   7.953
 6378POPC   C4A20022  41.600   1.971   7.653
 6378POPC   C1B20023  41.390   2.178   8.553
 6378POPC   C2B20024  41.371   2.138   8.253
 6378POPC   C3B20025  41.359   2.120   7.953
 6378POPC   C4B20026  41.372   2.161   7.653
 6379POPC   NC320027  29.874   1.229   9.453
 6379POPC   PO420028  29.929   1.245   9.153
 6379POPC   GL120029  29.964   1.257   8.853
 6379POPC   GL220030  29.844   1.158   8.853
 6379POPC   C1A20031  29.971   1.227   8.553
 6379POPC   D2A20032  29.871   1.175   8.253
 6379POPC   C3A20033  29.946   1.229   7.953
 6379POPC   C4A20034  29.947   1.181   7.653
 6379POPC   C1B20035  29.791   1.056   8.553
 6379POPC   C2B20036  29.787   1.050   8.253
 6379POPC   C3B20037  29.788   1.051   7.953
 6379POPC   C4B20038  29.784   0.999   7.653
 6380POPC   NC320039  26.842  15.920   9.453
 6380POPC   PO420040  26.770  15.948   9.153
 6380POPC   GL120041  26.846  15.939   8.853
 6380POPC   GL220042  26.718  16.074   8.853
 6380POPC   C1A20043  26.800  15.967   8.553
 6380POPC   D2A20044  26.812  15.985   8.253
 6380POPC   C3A20045  26.788  15.989   7.953
 6380POPC   C4A20046  26.794  15.940   7.653
 6380POPC   C1B20047  26.693  16.126   8.553
 6380POPC   C2B20048  26.710  16.109   8.253
 6380POPC   C3B20049  26.627  16.167   7.953
 6380POPC   C4B20050  26.640  16.127   7.653
 6381POPC   NC320051  27.554  35.350   9.453
 6381POPC   PO420052  27.595  35.328   9.153
 6381POPC   GL120053  27.544  35.319   8.853
 6381POPC   GL220054  27.571  35.517   8.853
 6381POPC   C1A20055  27.611  35.355   8.553
 6381POPC   D2A20056  27.580  35.335   8.253
 6381POPC   C3A20057  27.585  35.308   7.953
 6381POPC   C4A20058  27.548  35.392   7.653
 6381POPC   C1B20059  27.551  35.592   8.553
 6381POPC   C2B20060  27.553  35.566   8.253
 6381POPC   C3B20061  27.526  35.627   7.953
 6381POPC   C4B20062  27.481  35.620   7.653
 6382POPC   NC320063   8.972  38.443   9.453
 6382POPC   PO420064   8.987  38.456   9.153
 6382POPC   GL120065   9.017  38.434   8.853
 6382POPC   GL220066   8.827  38.450   8.853
 6382POPC   C1A20067   8.977  38.486   8.553
 6382POPC   D2A20068   9.002  38.437   8.253
 6382POPC   C3A20069   8.953  38.471   7.953
 6382POPC   C4A20070   8.925  38.412   7.653
 6382POPC   C1B20071   8.718  38.497   8.553
 6382POPC   C2B20072   8.712  38.552   8.253
 6382POPC   C3B20073   8.730  38.565   7.953
 6382POPC   C4B20074   8.741  38.534   7.653
 6383POPC   NC320075  36.929  29.127   9.453
 6383POPC   PO420076  36.941  29.114   9.153
 6383POPC   GL120077  36.936  29.117   8.853
 6383POPC   GL220078  36.823  28.993   8.853
 6383POPC   C1A20079  36.877  29.124   8.553
 6383POPC   D2A20080  36.930  29.131   8.253
 6383POPC   C3A20081  36.926  29.173   7.953
 6383POPC   C4A20082  36.929  29.148   7.653
 6383POPC   C1B20083  36.790  28.896   8.553
 6383POPC   C2B20084  36.786  28.900   8.253
 6383POPC   C3B20085  36.870  28.869   7.953
 6383POPC   C4B20086  36.873  28.937   7.653
 6384POPC   NC320087  18.234   8.964   9.453
 6384POPC   PO420088  18.251   9.018   9.153
 6384POPC   GL120089  18.235   8.987   8.853
 6384POPC   GL220090  18.417   8.916   8.853
 6384POPC   C1A20091  18.271   8.931   8.553
 6384POPC   D2A20092  18.268   8.985   8.253
 6384POPC   C3A20093  18.325   8.932   7.953
 6384POPC   C4A20094  18.329   9.011   7.653
 6384POPC   C1B20095  18.481   8.943   8.553
 6384POPC   C2B20096  18.522   8.923   8.253
 6384POPC   C3B20097  18.553   8.961   7.953
 6384POPC   C4B20098  18.555   8.946   7.653
 6385POPC   NC320099  38.450  20.573   9.453
 6385POPC   PO420100  38.473  20.588   9.153
 6385POPC   GL120101  38.496  20.599   8.853
 6385POPC   GL220102  38.391  20.729   8.853
 6385POPC   C1A20103  38.437  20.590   8.553
 6385POPC   D2A20104  38.475  20.593   8.253
 6385POPC   C3A20105  38.460  20.641   7.953
 6385POPC   C4A20106  38.499  20.622   7.653
 6385POPC   C1B20107  38.267  20.784   8.553
 6385POPC   C2B20108  38.254  20.723   8.253
 6385POPC   C3B20109  38.214  20.803   7.953
 6385POPC   C4B20110  38.251  20.773   7.653
 6386POPC   NC320111  43.110  41.603   9.453
 6386POPC   PO420112  43.109  41.554   9.153
 6386POPC   GL120113  43.153  41.531   8.853
 6386POPC   GL220114  43.072  41.413   8.853
 6386POPC   C1A20115  43.133  41.587   8.553
 6386POPC   D2A20116  43.143  41.576   8.253
 6386POPC   C3A20117  43.124  41.592   7.953
 6386POPC   C4A20118  43.135  41.556   7.653
 6386POPC   C1B20119  43.093  41.356   8.553
 6386POPC   C2B20120  43.094  41.324   8.253
 6386POPC   C3B20121  43.111  41.316   7.953
 6386POPC   C4B20122  43.100  41.280   7.653
 6387POPC   NC320123  12.896  36.899   9.453
 6387POPC   PO420124  12.855  36.923   9.153
 6387POPC   GL120125  12.845  36.873   8.853
 6387POPC   GL220126  12.887  36.731   8.853
 6387POPC   C1A20127  12.884  36.858   8.553
 6387POPC   D2A20128  12.883  36.870   8.253
 6387POPC   C3A20129  12.863  36.904   7.953
 6387POPC   C4A20130  12.851  36.869   7.653
 6387POPC   C1B20131  12.898  36.611   8.553
 6387POPC   C2B20132  12.855  36.618   8.253
 6387POPC   C3B20133  12.841  36.674   7.953
 6387POPC   C4B20134  12.855  36.616   7.653
 6388POPC   NC320135  12.823  43.160   9.453
 6388POPC   PO420136  12.859  43.158   9.153
 6388POPC   GL120137  12.857  43.098   8.853
 6388POPC   GL220138  12.931  43.191   8.853
 6388POPC   C1A20139  12.873  43.086   8.553
 6388POPC   D2A20140  12.806  43.137   8.253
 6388POPC   C3A20141  12.870  43.073   7.953
 6388POPC   C4A20142  12.852  43.120   7.653
 6388POPC   C1B20143  13.059  43.197   8.553
 6388POPC   C2B20144  13.087  43.212   8.253
 6388POPC   C3B20145  13.099  43.271   7.953
 6388POPC   C4B20146  13.088  43.235   7.653
 6389POPC   NC320147  25.251  11.318   9.453
 6389POPC   PO420148  25.243  11.276   9.153
 6389POPC   GL120149  25.301  11.273   8.853
 6389POPC   GL220150  25.287  11.392   8.853
 6389POPC   C1A20151  25.266  11.299   8.553
 6389POPC   D2A20152  25.261  11.286   8.253
 6389POPC   C3A20153  25.278  11.274   7.953
 6389POPC   C4A20154  25.290  11.277   7.653
 6389POPC   C1B20155  25.214  11.530   8.553
 6389POPC   C2B20156  25.175  11.519   8.253
 6389POPC   C3B20157  25.198  11.524   7.953
 6389POPC   C4B20158  25.216  11.540   7.653
 6390POPC   NC320159  21.398  26.027   9.453
 6390POPC   PO420160  21.347  26.055   9.153
 6390POPC   GL120161  21.414  26.009   8.853
 6390POPC   GL220162  21.471  26.024   8.853
 6390POPC   C1A20163  21.411  26.007   8.553
 6390POPC   D2A20164  21.413  26.039   8.253
 6390POPC   C3A20165  21.369  26.080   7.953
 6390POPC   C4A20166  21.414  26.055   7.653
 6390POPC   C1B20167  21.652  25.989   8.553
 6390POPC   C2B20168  21.606  25.974   8.253
 6390POPC   C3B20169  21.656  25.926   7.953
 6390POPC   C4B20170  21.656  25.950   7.653
 6391POPC   NC320171   9.748  16.727   9.453
 6391POPC   PO420172   9.733  16.775   9.153
 6391POPC   GL120173   9.726  16.732   8.853
 6391POPC   GL220174   9.897  16.673   8.853
 6391POPC   C1A20175   9.792  16.772   8.553
 6391POPC   D2A20176   9.718  16.781   8.253
 6391POPC   C3A20177   9.700  16.736   7.953
 6391POPC   C4A20178   9.735  16.740   7.653
 6391POPC   C1B20179  10.033  16.702   8.553
 6391POPC   C2B20180   9.988  16.741   8.253
 6391POPC   C3B20181  10.047  16.757   7.953
 6391POPC   C4B20182  10.011  16.750   7.653
 6392POPC   NC320183  36.892  35.366   9.453
 6392POPC   PO420184  36.894  35.313   9.153
 6392POPC   GL120185  36.893  35.305   8.853
 6392POPC   GL220186  36.855  35.241   8.853
 6392POPC   C1A20187  36.912  35.351   8.553
 6392POPC   D2A20188  36.911  35.358   8.253
 6392POPC   C3A20189  36.934  35.308   7.953
 6392POPC   C4A20190  36.929  35.331   7.653
 6392POPC   C1B20191  36.798  35.079   8.553
 6392POPC   C2B20192  36.792  35.076   8.253
 6392POPC   C3B20193  36.819  35.064   7.953
 6392POPC   C4B20194  36.863  35.103   7.653
 6393POPC   NC320195  36.101  19.050   9.453
 6393POPC   PO420196  36.085  19.092   9.153
 6393POPC   GL120197  36.107  19.046   8.853
 6393POPC   GL220198  36.119  18.982   8.853
 6393POPC   C1A20199  36.084  19.031   8.553
 6393POPC   D2A20200  36.156  19.079   8.253
 6393POPC   C3A20201  36.093  19.053   7.953
 6393POPC   C4A20202  36.176  19.063   7.653
 6393POPC   C1B20203  36.168  18.839   8.553
 6393POPC   C2B20204  36.120  18.810   8.253
 6393POPC   C3B20205  36.122  18.792   7.953
 6393POPC   C4B20206  36.138  18.846   7.653
 6394POPC   NC320207  30.693   6.667   9.453
 6394POPC   PO420208  30.712   6.690   9.153
 6394POPC   GL120209  30.681   6.650   8.853
 6394POPC   GL220210  30.666   6.493   8.853
 6394POPC   C1A20211  30.721   6.691   8.553
 6394POPC   D2A20212  30.665   6.599   8.253
 6394POPC   C3A20213  30.696   6.624   7.953
 6394POPC   C4A20214  30.710   6.597   7.653
 6394POPC   C1B20215  30.586   6.410   8.553
 6394POPC   C2B20216  30.604   6.406   8.253
 6394POPC   C3B20217  30.554   6.417   7.953
 6394POPC   C4B20218  30.628   6.370   7.653
 6395POPC   NC320219  22.935  19.862   9.453
 6395POPC   PO420220  22.967  19.868   9.153
 6395POPC   GL120221  22.895  19.868   8.853
 6395POPC   GL220222  22.804  19.727   8.853
 6395POPC   C1A20223  22.944  19.818   8.553
 6395POPC   D2A20224  22.932  19.827   8.253
 6395POPC   C3A20225  22.966  19.825   7.953
 6395POPC   C4A20226  22.955  19.817   7.653
 6395POPC   C1B20227  22.777  19.700   8.553
 6395POPC   C2B20228  22.800  19.680   8.253
 6395POPC   C3B20229  22.768  19.662   7.953
 6395POPC   C4B20230  22.787  19.662   7.653
 6396POPC   NC320231   0.473  36.163   9.453
 6396POPC   PO420232   0.452  36.157   9.153
 6396POPC   GL120233   0.439  36.132   8.853
 6396POPC   GL220234   0.358  36.254   8.853
 6396POPC   C1A20235   0.393  36.099   8.553
 6396POPC   D2A20236   0.403  36.163   8.253
 6396POPC   C3A20237   0.401  36.165   7.953
 6396POPC   C4A20238   0.419  36.124   7.653
 6396POPC   C1B20239   0.338  36.316   8.553
 6396POPC   C2B20240   0.330  36.337   8.253
 6396POPC   C3B20241   0.285  36.369   7.953
 6396POPC   C4B20242   0.305  36.355   7.653
 6397POPC   NC320243  33.071  10.501   9.453
 6397POPC   PO420244  32.976  10.501   9.153
 6397POPC   GL120245  32.997  10.550   8.853
 6397POPC   GL220246  33.062  10.443   8.853
 6397POPC   C1A20247  33.071  10.488   8.553
 6397POPC   D2A20248  33.024  10.568   8.253
 6397POPC   C3A20249  32.994  10.515   7.953
 6397POPC   C4A20250  33.059  10.475   7.653
 6397POPC   C1B20251  33.110  10.327   8.553
 6397POPC   C2B20252  33.068  10.320   8.253
 6397POPC   C3B20253  33.081  10.242   7.953
 6397POPC   C4B20254  33.061  10.295   7.653
 6398POPC   NC320255  17.487  38.442   9.453
 6398POPC   PO420256  17.475  38.417   9.153
 6398POPC   GL120257  17.510  38.459   8.853
 6398POPC   GL220258  17.482  38.316   8.853
 6398POPC   C1A20259  17.479  38.409   8.553
 6398POPC   D2A20260  17.521  38.449   8.253
 6398POPC   C3A20261  17.541  38.477   7.953
 6398POPC   C4A20262  17.529  38.437   7.653
 6398POPC   C1B20263  17.385  38.202   8.553
 6398POPC   C2B20264  17.410  38.172   8.253
 6398POPC   C3B20265  17.447  38.266   7.953
 6398POPC   C4B20266  17.442  38.179   7.653
 6399POPC   NC320267  29.128   9.797   9.453
 6399POPC   PO420268  29.181   9.777   9.153
 6399POPC   GL120269  29.155   9.708   8.853
 6399POPC   GL220270  29.147   9.624   8.853
 6399POPC   C1A20271  29.190   9.754   8.553
 6399POPC   D2A20272  29.137   9.734   8.253
 6399POPC   C3A20273  29.127   9.767   7.953
 6399POPC   C4A20274  29.136   9.752   7.653
 6399POPC   C1B20275  29.173   9.480   8.553
 6399POPC   C2B20276  29.148   9.537   8.253
 6399POPC   C3B20277  29.153   9.478   7.953
 6399POPC   C4B20278  29.204   9.504   7.653
 6400POPC   NC320279  37.706  38.463   9.453
 6400POPC   PO420280  37.668  38.499   9.153
 6400POPC   GL120281  37.719  38.475   8.853
 6400POPC   GL220282  37.534  38.468   8.853
 6400POPC   C1A20283  37.696  38.475   8.553
 6400POPC   D2A20284  37.646  38.422   8.253
 6400POPC   C3A20285  37.658  38.443   7.953
 6400POPC   C4A20286  37.682  38.430   7.653
 6400POPC   C1B20287  37.436  38.362   8.553
 6400POPC   C2B20288  37.419  38.383   8.253
 6400POPC   C3B20289  37.435  38.362   7.953
 6400POPC   C4B20290  37.463  38.407   7.653
 6401POPC   NC320291  22.951  19.063   9.453
 6401POPC   PO420292  22.945  19.090   9.153
 6401POPC   GL120293  22.912  19.026   8.853
 6401POPC   GL220294  23.011  18.970   8.853
 6401POPC   C1A20295  22.958  19.056   8.553
 6401POPC   D2A20296  22.974  19.023   8.253
 6401POPC   C3A20297  22.936  19.046   7.953
 6401POPC   C4A20298  22.934  19.080   7.653
 6401POPC   C1B20299  23.120  18.977   8.553
 6401POPC   C2B20300  23.174  18.916   8.253
 6401POPC   C3B20301  23.204  18.916   7.953
 6401POPC   C4B20302  23.127  18.951   7.653
 6402POPC   NC320303  41.517  12.036   9.453
 6402POPC   PO420304  41.606  12.052   9.153
 6402POPC   GL120305  41.594  12.034   8.853
 6402POPC   GL220306  41.596  12.236   8.853
 6402POPC   C1A20307  41.551  12.041   8.553
 6402POPC   D2A20308  41.585  12.107   8.253
 6402POPC   C3A20309  41.544  12.040   7.953
 6402POPC   C4A20310  41.543  12.123   7.653
 6402POPC   C1B20311  41.653  12.318   8.553
 6402POPC   C2B20312  41.630  12.255   8.253
 6402POPC   C3B20313  41.709  12.265   7.953
 6402POPC   C4B20314  41.662  12.325   7.653
 6403POPC   NC320315  21.369  24.479   9.453
 6403POPC   PO420316  21.361  24.534   9.153
 6403POPC   GL120317  21.342  24.468   8.853
 6403POPC   GL220318  21.345  24.350   8.853
 6403POPC   C1A20319  21.432  24.467   8.553
 6403POPC   D2A20320  21.416  24.507   8.253
 6403POPC   C3A20321  21.376  24.495   7.953
 6403POPC   C4A20322  21.406  24.451   7.653
 6403POPC   C1B20323  21.238  24.266   8.553
 6403POPC   C2B20324  21.250  24.229   8.253
 6403POPC   C3B20325  21.239  24.274   7.953
 6403POPC   C4B20326  21.306  24.310   7.653
 6404POPC   NC320327  43.083  33.074   9.453
 6404POPC   PO420328  43.115  33.000   9.153
 6404POPC   GL120329  43.146  32.998   8.853
 6404POPC   GL220330  43.240  33.031   8.853
 6404POPC   C1A20331  43.111  33.000   8.553
 6404POPC   D2A20332  43.084  32.983   8.253
 6404POPC   C3A20333  43.094  32.995   7.953
 6404POPC   C4A20334  43.136  33.021   7.653
 6404POPC   C1B20335  43.323  33.072   8.553
 6404POPC   C2B20336  43.333  33.065   8.253
 6404POPC   C3B20337  43.355  33.046   7.953
 6404POPC   C4B20338  43.343  33.059   7.653
 6405POPC   NC320339  17.505   8.187   9.453
 6405POPC   PO420340  17.466   8.216   9.153
 6405POPC   GL120341  17.499   8.148   8.853
 6405POPC   GL220342  17.419   8.289   8.853
 6405POPC   C1A20343  17.532   8.227   8.553
 6405POPC   D2A20344  17.475   8.217   8.253
 6405POPC   C3A20345  17.549   8.169   7.953
 6405POPC   C4A20346  17.477   8.176   7.653
 6405POPC   C1B20347  17.372   8.453   8.553
 6405POPC   C2B20348  17.370   8.415   8.253
 6405POPC   C3B20349  17.383   8.402   7.953
 6405POPC   C4B20350  17.368   8.438   7.653
 6406POPC   NC320351  11.327   0.470   9.453
 6406POPC   PO420352  11.277   0.449   9.153
 6406POPC   GL120353  11.273   0.460   8.853
 6406POPC   GL220354  11.165   0.518   8.853
 6406POPC   C1A20355  11.292   0.454   8.553
 6406POPC   D2A20356  11.331   0.423   8.253
 6406POPC   C3A20357  11.318   0.443   7.953
 6406POPC   C4A20358  11.324   0.471   7.653
 6406POPC   C1B20359  11.031   0.482   8.553
 6406POPC   C2B20360  11.086   0.534   8.253
 6406POPC   C3B20361  11.051   0.514   7.953
 6406POPC   C4B20362  11.057   0.563   7.653
 6407POPC   NC320363  10.550  17.458   9.453
 6407POPC   PO420364  10.501  17.483   9.153
 6407POPC   GL120365  10.561  17.541   8.853
 6407POPC   GL220366  10.612  17.445   8.853
 6407POPC   C1A20367  10.550  17.544   8.553
 6407POPC   D2A20368  10.559  17.464   8.253
 6407POPC   C3A20369  10.537  17.469   7.953
 6407POPC   C4A20370  10.571  17.521   7.653
 6407POPC   C1B20371  10.703  17.336   8.553
 6407POPC   C2B20372  10.752  17.398   8.253
 6407POPC   C3B20373  10.761  17.381   7.953
 6407POPC   C4B20374  10.703  17.324   7.653
 6408POPC   NC320375  38.431  25.294   9.453
 6408POPC   PO420376  38.469  25.284   9.153
 6408POPC   GL120377  38.421  25.242   8.853
 6408POPC   GL220378  38.526  25.371   8.853
 6408POPC   C1A20379  38.409  25.259   8.553
 6408POPC   D2A20380  38.485  25.287   8.253
 6408POPC   C3A20381  38.478  25.299   7.953
 6408POPC   C4A20382  38.436  25.257   7.653
 6408POPC   C1B20383  38.524  25.519   8.553
 6408POPC   C2B20384  38.543  25.495   8.253
 6408POPC   C3B20385  38.477  25.508   7.953
 6408POPC   C4B20386  38.499  25.528   7.653
 6409POPC   NC320387  26.019   1.197   9.453
 6409POPC   PO420388  26.001   1.256   9.153
 6409POPC   GL120389  26.078   1.230   8.853
 6409POPC   GL220390  26.130   1.175   8.853
 6409POPC   C1A20391  26.081   1.250   8.553
 6409POPC   D2A20392  26.057   1.199   8.253
 6409POPC   C3A20393  26.012   1.256   7.953
 6409POPC   C4A20394  26.064   1.169   7.653
 6409POPC   C1B20395  26.220   1.112   8.553
 6409POPC   C2B20396  26.255   1.071   8.253
 6409POPC   C3B20397  26.242   1.128   7.953
 6409POPC   C4B20398  26.319   1.094   7.653
 6410POPC   NC320399  32.992  25.231   9.453
 6410POPC   PO420400  33.046  25.293   9.153
 6410POPC   GL120401  33.029  25.270   8.853
 6410POPC   GL220402  32.941  25.303   8.853
 6410POPC   C1A20403  33.039  25.300   8.553
 6410POPC   D2A20404  33.035  25.240   8.253
 6410POPC   C3A20405  33.034  25.242   7.953
 6410POPC   C4A20406  32.982  25.287   7.653
 6410POPC   C1B20407  32.783  25.293   8.553
 6410POPC   C2B20408  32.736  25.279   8.253
 6410POPC   C3B20409  32.738  25.269   7.953
 6410POPC   C4B20410  32.813  25.271   7.653
 6411POPC   NC320411  42.339  17.549   9.453
 6411POPC   PO420412  42.370  17.493   9.153
 6411POPC   GL120413  42.315  17.491   8.853
 6411POPC   GL220414  42.378  17.606   8.853
 6411POPC   C1A20415  42.383  17.494   8.553
 6411POPC   D2A20416  42.352  17.487   8.253
 6411POPC   C3A20417  42.345  17.556   7.953
 6411POPC   C4A20418  42.297  17.491   7.653
 6411POPC   C1B20419  42.476  17.716   8.553
 6411POPC   C2B20420  42.493  17.674   8.253
 6411POPC   C3B20421  42.537  17.668   7.953
 6411POPC   C4B20422  42.545  17.711   7.653
 6412POPC   NC320423  34.567  11.320   9.453
 6412POPC   PO420424  34.623  11.279   9.153
 6412POPC   GL120425  34.584  11.308   8.853
 6412POPC   GL220426  34.602  11.169   8.853
 6412POPC   C1A20427  34.606  11.269   8.553
 6412POPC   D2A20428  34.571  11.345   8.253
 6412POPC   C3A20429  34.625  11.291   7.953
 6412POPC   C4A20430  34.598  11.296   7.653
 6412POPC   C1B20431  34.709  11.121   8.553
 6412POPC   C2B20432  34.735  11.067   8.253
 6412POPC   C3B20433  34.706  11.108   7.953
 6412POPC   C4B20434  34.761  11.073   7.653
 6413POPC   NC320435  42.334  14.380   9.453
 6413POPC   PO420436  42.372  14.372   9.153
 6413POPC   GL120437  42.368  14.383   8.853
 6413POPC   GL220438  42.287  14.505   8.853
 6413POPC   C1A20439  42.382  14.431   8.553
 6413POPC   D2A20440  42.297  14.444   8.253
 6413POPC   C3A20441  42.311  14.433   7.953
 6413POPC   C4A20442  42.308  14.452   7.653
 6413POPC   C1B20443  42.174  14.612   8.553
 6413POPC   C2B20444  42.255  14.601   8.253
 6413POPC   C3B20445  42.231  14.609   7.953
 6413POPC   C4B20446  42.224  14.598   7.653
 6414POPC   NC320447  29.952  43.922   9.453
 6414POPC   PO420448  29.885  43.909   9.153
 6414POPC   GL120449  29.915  43.908   8.853
 6414POPC   GL220450  29.852  43.852   8.853
 6414POPC   C1A20451  29.892  43.926   8.553
 6414POPC   D2A20452  29.963  43.873   8.253
 6414POPC   C3A20453  29.910  43.872   7.953
 6414POPC   C4A20454  29.881  43.908   7.653
 6414POPC   C1B20455  29.679  43.751   8.553
 6414POPC   C2B20456  29.752  43.732   8.253
 6414POPC   C3B20457  29.754  43.704   7.953
 6414POPC   C4B20458  29.729  43.789   7.653
 6415POPC   NC320459  38.490  34.591   9.453
 6415POPC   PO420460  38.412  34.550   9.153
 6415POPC   GL120461  38.492  34.623   8.853
 6415POPC   GL220462  38.289  34.552   8.853
 6415POPC   C1A20463  38.418  34.620   8.553
 6415POPC   D2A20464  38.427  34.528   8.253
 6415POPC   C3A20465  38.461  34.606   7.953
 6415POPC   C4A20466  38.421  34.561   7.653
 6415POPC   C1B20467  38.250  34.601   8.553
 6415POPC   C2B20468  38.199  34.653   8.253
 6415POPC   C3B20469  38.182  34.654   7.953
 6415POPC   C4B20470  38.175  34.590   7.653
 6416POPC   NC320471   8.925  36.927   9.453
 6416POPC   PO420472   8.952  36.941   9.153
 6416POPC   GL120473   9.004  36.888   8.853
 6416POPC   GL220474   9.007  36.985   8.853
 6416POPC   C1A20475   9.006  36.856   8.553
 6416POPC   D2A20476   8.975  36.880   8.253
 6416POPC   C3A20477   8.946  36.924   7.953
 6416POPC   C4A20478   9.022  36.883   7.653
 6416POPC   C1B20479   9.087  37.106   8.553
 6416POPC   C2B20480   9.076  37.087   8.253
 6416POPC   C3B20481   9.124  37.136   7.953
 6416POPC   C4B20482   9.139  37.106   7.653
 6417POPC   NC320483  36.869  43.868   9.453
 6417POPC   PO420484  36.855  43.923   9.153
 6417POPC   GL120485  36.949  43.898   8.853
 6417POPC   GL220486  36.733  43.840   8.853
 6417POPC   C1A20487  36.877  43.843   8.553
 6417POPC   D2A20488  36.870  43.882   8.253
 6417POPC   C3A20489  36.874  43.935   7.953
 6417POPC   C4A20490  36.943  43.860   7.653
 6417POPC   C1B20491  36.629  43.876   8.553
 6417POPC   C2B20492  36.654  43.839   8.253
 6417POPC   C3B20493  36.658  43.896   7.953
 6417POPC   C4B20494  36.656  43.852   7.653
 6418POPC   NC320495   8.942  15.949   9.453
 6418POPC   PO420496   8.925  16.003   9.153
 6418POPC   GL120497   8.983  15.958   8.853
 6418POPC   GL220498   8.922  16.080   8.853
 6418POPC   C1A20499   8.992  16.002   8.553
 6418POPC   D2A20500   8.954  15.977   8.253
 6418POPC   C3A20501   8.932  16.003   7.953
 6418POPC   C4A20502   9.013  15.921   7.653
 6418POPC   C1B20503   8.945  16.159   8.553
 6418POPC   C2B20504   8.938  16.223   8.253
 6418POPC   C3B20505   8.911  16.155   7.953
 6418POPC   C4B20506   8.970  16.181   7.653
 6419POPC   NC320507  15.132  43.840   9.453
 6419POPC   PO420508  15.180  43.898   9.153
 6419POPC   GL120509  15.136  43.864   8.853
 6419POPC   GL220510  15.175  43.977   8.853
 6419POPC   C1A20511  15.162  43.884   8.553
 6419POPC   D2A20512  15.134  43.924   8.253
 6419POPC   C3A20513  15.228  43.923   7.953
 6419POPC   C4A20514  15.212  43.923   7.653
 6419POPC   C1B20515  15.209  44.122   8.553
 6419POPC   C2B20516  15.273  44.093   8.253
 6419POPC   C3B20517  15.261  44.103   7.953
 6419POPC   C4B20518  15.215  44.100   7.653
 6420POPC   NC320519  43.848  40.014   9.453
 6420POPC   PO420520  43.839  40.035   9.153
 6420POPC   GL120521  43.884  40.001   8.853
 6420POPC   GL220522  43.765  40.079   8.853
 6420POPC   C1A20523  43.865  40.015   8.553
 6420POPC   D2A20524  43.874  40.045   8.253
 6420POPC   C3A20525  43.890  40.047   7.953
 6420POPC   C4A20526  43.913  40.007   7.653
 6420POPC   C1B20527  43.759  40.152   8.553
 6420POPC   C2B20528  43.752  40.205   8.253
 6420POPC   C3B20529  43.752  40.164   7.953
 6420POPC   C4B20530  43.737  40.150   7.653
 6421POPC   NC320531  39.250  21.410   9.453
 6421POPC   PO420532  39.193  21.403   9.153
 6421POPC   GL120533  39.279  21.408   8.853
 6421POPC   GL220534  39.294  21.530   8.853
 6421POPC   C1A20535  39.274  21.382   8.553
 6421POPC   D2A20536  39.208  21.405   8.253
 6421POPC   C3A20537  39.202  21.359   7.953
 6421POPC   C4A20538  39.204  21.359   7.653
 6421POPC   C1B20539  39.330  21.580   8.553
 6421POPC   C2B20540  39.330  21.621   8.253
 6421POPC   C3B20541  39.308  21.584   7.953
 6421POPC   C4B20542  39.385  21.573   7.653
 6422POPC   NC320543  20.646  12.050   9.453
 6422POPC   PO420544  20.617  12.102   9.153
 6422POPC   GL120545  20.626  12.086   8.853
 6422POPC   GL220546  20.561  12.162   8.853
 6422POPC   C1A20547  20.627  12.048   8.553
 6422POPC   D2A20548  20.566  12.050   8.253
 6422POPC   C3A20549  20.621  12.089   7.953
 6422POPC   C4A20550  20.590  12.071   7.653
 6422POPC   C1B20551  20.373  12.232   8.553
 6422POPC   C2B20552  20.454  12.221   8.253
 6422POPC   C3B20553  20.376  12.189   7.953
 6422POPC   C4B20554  20.367  12.249   7.653
 6423POPC   NC320555  21.364  41.583   9.453
 6423POPC   PO420556  21.366  41.573   9.153
 6423POPC   GL120557  21.388  41.584   8.853
 6423POPC   GL220558  21.306  41.663   8.853
 6423POPC   C1A20559  21.347  41.534   8.553
 6423POPC   D2A20560  21.380  41.516   8.253
 6423POPC   C3A20561  21.354  41.520   7.953
 6423POPC   C4A20562  21.395  41.600   7.653
 6423POPC   C1B20563  21.274  41.812   8.553
 6423POPC   C2B20564  21.221  41.771   8.253
 6423POPC   C3B20565  21.210  41.718   7.953
 6423POPC   C4B20566  21.272  41.732   7.653
 6424POPC   NC320567  23.757  44.689   9.453
 6424POPC   PO420568  23.720  44.682   9.153
 6424POPC   GL120569  23.701  44.680   8.853
 6424POPC   GL220570  23.618  44.682   8.853
 6424POPC   C1A20571  23.666  44.654   8.553
 6424POPC   D2A20572  23.706  44.642   8.253
 6424POPC   C3A20573  23.754  44.617   7.953
 6424POPC   C4A20574  23.744  44.639   7.653
 6424POPC   C1B20575  23.432  44.631   8.553
 6424POPC   C2B20576  23.493  44.621   8.253
 6424POPC   C3B20577  23.448  44.658   7.953
 6424POPC   C4B20578  23.417  44.686   7.653
 6425POPC   NC320579   6.658  11.301   9.453
 6425POPC   PO420580   6.670  11.254   9.153
 6425POPC   GL120581   6.647  11.298   8.853
 6425POPC   GL220582   6.541  11.190   8.853
 6425POPC   C1A20583   6.607  11.315   8.553
 6425POPC   D2A20584   6.640  11.345   8.253
 6425POPC   C3A20585   6.596  11.307   7.953
 6425POPC   C4A20586   6.629  11.285   7.653
 6425POPC   C1B20587   6.515  11.133   8.553
 6425POPC   C2B20588   6.510  11.105   8.253
 6425POPC   C3B20589   6.486  11.104   7.953
 6425POPC   C4B20590   6.537  11.118   7.653
 6426POPC   NC320591  21.411  29.933   9.453
 6426POPC   PO420592  21.384  29.872   9.153
 6426POPC   GL120593  21.339  29.895   8.853
 6426POPC   GL220594  21.275  29.827   8.853
 6426POPC   C1A20595  21.436  29.931   8.553
 6426POPC   D2A20596  21.387  29.903   8.253
 6426POPC   C3A20597  21.412  29.952   7.953
 6426POPC   C4A20598  21.404  29.959   7.653
 6426POPC   C1B20599  21.270  29.709   8.553
 6426POPC   C2B20600  21.233  29.737   8.253
 6426POPC   C3B20601  21.255  29.667   7.953
 6426POPC   C4B20602  21.274  29.719   7.653
 6427POPC   NC320603   3.551  32.214   9.453
 6427POPC   PO420604   3.586  32.205   9.153
 6427POPC   GL120605   3.518  32.218   8.853
 6427POPC   GL220606   3.469  32.129   8.853
 6427POPC   C1A20607   3.512  32.280   8.553
 6427POPC   D2A20608   3.544  32.230   8.253
 6427POPC   C3A20609   3.576  32.252   7.953
 6427POPC   C4A20610   3.530  32.238   7.653
 6427POPC   C1B20611   3.358  32.067   8.553
 6427POPC   C2B20612   3.403  32.108   8.253
 6427POPC   C3B20613   3.397  32.062   7.953
 6427POPC   C4B20614   3.395  32.115   7.653
 6428POPC   NC320615  15.190   7.415   9.453
 6428POPC   PO420616  15.195   7.454   9.153
 6428POPC   GL120617  15.184   7.459   8.853
 6428POPC   GL220618  15.280   7.467   8.853
 6428POPC   C1A20619  15.211   7.416   8.553
 6428POPC   D2A20620  15.227   7.431   8.253
 6428POPC   C3A20621  15.156   7.424   7.953
 6428POPC   C4A20622  15.204   7.387   7.653
 6428POPC   C1B20623  15.479   7.425   8.553
 6428POPC   C2B20624  15.466   7.460   8.253
 6428POPC   C3B20625  15.402   7.461   7.953
 6428POPC   C4B20626  15.423   7.407   7.653
 6429POPC   NC320627  29.888  12.856   9.453
 6429POPC   PO420628  29.884  12.832   9.153
 6429POPC   GL120629  29.929  12.888   8.853
 6429POPC   GL220630  29.873  12.734   8.853
 6429POPC   C1A20631  29.872  12.832   8.553
 6429POPC   D2A20632  29.961  12.882   8.253
 6429POPC   C3A20633  29.900  12.822   7.953
 6429POPC   C4A20634  29.944  12.816   7.653
 6429POPC   C1B20635  29.842  12.631   8.553
 6429POPC   C2B20636  29.792  12.579   8.253
 6429POPC   C3B20637  29.778  12.672   7.953
 6429POPC   C4B20638  29.819  12.593   7.653
 6430POPC   NC320639  25.300  34.620   9.453
 6430POPC   PO420640  25.302  34.567   9.153
 6430POPC   GL120641  25.257  34.620   8.853
 6430POPC   GL220642  25.204  34.522   8.853
 6430POPC   C1A20643  25.244  34.583   8.553
 6430POPC   D2A20644  25.288  34.560   8.253
 6430POPC   C3A20645  25.293  34.558   7.953
 6430POPC   C4A20646  25.228  34.613   7.653
 6430POPC   C1B20647  25.108  34.475   8.553
 6430POPC   C2B20648  25.044  34.403   8.253
 6430POPC   C3B20649  25.026  34.431   7.953
 6430POPC   C4B20650  25.035  34.426   7.653
 6431POPC   NC320651  12.111  25.232   9.453
 6431POPC   PO420652  12.039  25.310   9.153
 6431POPC   GL120653  12.078  25.225   8.853
 6431POPC   GL220654  12.087  25.110   8.853
 6431POPC   C1A20655  12.117  25.238   8.553
 6431POPC   D2A20656  12.100  25.254   8.253
 6431POPC   C3A20657  12.083  25.280   7.953
 6431POPC   C4A20658  12.060  25.226   7.653
 6431POPC   C1B20659  12.078  25.022   8.553
 6431POPC   C2B20660  12.069  25.005   8.253
 6431POPC   C3B20661  12.125  24.979   7.953
 6431POPC   C4B20662  12.096  25.018   7.653
 6432POPC   NC320663  42.332  16.686   9.453
 6432POPC   PO420664  42.360  16.705   9.153
 6432POPC   GL120665  42.328  16.745   8.853
 6432POPC   GL220666  42.220  16.786   8.853
 6432POPC   C1A20667  42.369  16.726   8.553
 6432POPC   D2A20668  42.370  16.707   8.253
 6432POPC   C3A20669  42.308  16.706   7.953
 6432POPC   C4A20670  42.353  16.722   7.653
 6432POPC   C1B20671  42.098  16.831   8.553
 6432POPC   C2B20672  42.114  16.864   8.253
 6432POPC   C3B20673  42.147  16.829   7.953
 6432POPC   C4B20674  42.132  16.861   7.653
 6433POPC   NC320675  29.138  40.029   9.453
 6433POPC   PO420676  29.171  40.054   9.153
 6433POPC   GL120677  29.111  40.044   8.853
 6433POPC   GL220678  29.065  40.131   8.853
 6433POPC   C1A20679  29.120  40.026   8.553
 6433POPC   D2A20680  29.149  40.004   8.253
 6433POPC   C3A20681  29.137  40.049   7.953
 6433POPC   C4A20682  29.146  39.993   7.653
 6433POPC   C1B20683  28.908  40.129   8.553
 6433POPC   C2B20684  28.952  40.200   8.253
 6433POPC   C3B20685  28.918  40.190   7.953
 6433POPC   C4B20686  28.935  40.173   7.653
 6434POPC   NC320687  14.418  40.786   9.453
 6434POPC   PO420688  14.446  40.810   9.153
 6434POPC   GL120689  14.383  40.817   8.853
 6434POPC   GL220690  14.477  40.875   8.853
 6434POPC   C1A20691  14.408  40.813   8.553
 6434POPC   D2A20692  14.437  40.751   8.253
 6434POPC   C3A20693  14.429  40.806   7.953
 6434POPC   C4A20694  14.441  40.761   7.653
 6434POPC   C1B20695  14.505  41.007   8.553
 6434POPC   C2B20696  14.473  41.024   8.253
 6434POPC   C3B20697  14.502  41.022   7.953
 6434POPC   C4B20698  14.548  41.003   7.653
 6435POPC   NC320699  19.871  38.463   9.453
 6435POPC   PO420700  19.861  38.446   9.153
 6435POPC   GL120701  19.806  38.431   8.853
 6435POPC   GL220702  19.775  38.337   8.853
 6435POPC   C1A20703  19.821  38.420   8.553
 6435POPC   D2A20704  19.796  38.455   8.253
 6435POPC   C3A20705  19.857  38.420   7.953
 6435POPC   C4A20706  19.871  38.458   7.653
 6435POPC   C1B20707  19.764  38.276   8.553
 6435POPC   C2B20708  19.761  38.267   8.253
 6435POPC   C3B20709  19.701  38.215   7.953
 6435POPC   C4B20710  19.731  38.250   7.653
 6436POPC   NC320711  36.936   1.207   9.453
 6436POPC   PO420712  36.891   1.212   9.153
 6436POPC   GL120713  36.938   1.187   8.853
 6436POPC   GL220714  36.828   1.272   8.853
 6436POPC   C1A20715  36.859   1.249   8.553
 6436POPC   D2A20716  36.910   1.222   8.253
 6436POPC   C3A20717  36.944   1.208   7.953
 6436POPC   C4A20718  36.876   1.173   7.653
 6436POPC   C1B20719  36.690   1.284   8.553
 6436POPC   C2B20720  36.684   1.327   8.253
 6436POPC   C3B20721  36.628   1.256   7.953
 6436POPC   C4B20722  36.707   1.268   7.653
 6437POPC   NC320723  16.775  42.337   9.453
 6437POPC   PO420724  16.767  42.297   9.153
 6437POPC   GL120725  16.768  42.304   8.853
 6437POPC   GL220726  16.566  42.304   8.853
 6437POPC   C1A20727  16.697  42.306   8.553
 6437POPC   D2A20728  16.736  42.356   8.253
 6437POPC   C3A20729  16.715  42.374   7.953
 6437POPC   C4A20730  16.746  42.286   7.653
 6437POPC   C1B20731  16.447  42.326   8.553
 6437POPC   C2B20732  16.441  42.360   8.253
 6437POPC   C3B20733  16.434  42.303   7.953
 6437POPC   C4B20734  16.469  42.356   7.653
 6438POPC   NC320735  14.417  39.274   9.453
 6438POPC   PO420736  14.414  39.271   9.153
 6438POPC   GL120737  14.386  39.273   8.853
 6438POPC   GL220738  14.341  39.140   8.853
 6438POPC   C1A20739  14.381  39.281   8.553
 6438POPC   D2A20740  14.443  39.252   8.253
 6438POPC   C3A20741  14.364  39.182   7.953
 6438POPC   C4A20742  14.424  39.217   7.653
 6438POPC   C1B20743  14.391  39.025   8.553
 6438POPC   C2B20744  14.321  38.986   8.253
 6438POPC   C3B20745  14.387  38.969   7.953
 6438POPC   C4B20746  14.357  38.975   7.653
 6439POPC   NC320747  15.952  41.542   9.453
 6439POPC   PO420748  15.950  41.602   9.153
 6439POPC   GL120749  15.909  41.559   8.853
 6439POPC   GL220750  15.858  41.468   8.853
 6439POPC   C1A20751  15.953  41.604   8.553
 6439POPC   D2A20752  15.917  41.590   8.253
 6439POPC   C3A20753  15.964  41.526   7.953
 6439POPC   C4A20754  15.965  41.585   7.653
 6439POPC   C1B20755  15.751  41.399   8.553
 6439POPC   C2B20756  15.805  41.407   8.253
 6439POPC   C3B20757  15.788  41.377   7.953
 6439POPC   C4B20758  15.772  41.328   7.653
 6440POPC   NC320759  11.322  27.573   9.453
 6440POPC   PO420760  11.340  27.632   9.153
 6440POPC   GL120761  11.299  27.637   8.853
 6440POPC   GL220762  11.238  27.657   8.853
 6440POPC   C1A20763  11.286  27.572   8.553
 6440POPC   D2A20764  11.319  27.613   8.253
 6440POPC   C3A20765  11.275  27.636   7.953
 6440POPC   C4A20766  11.297  27.572   7.653
 6440POPC   C1B20767  11.157  27.788   8.553
 6440POPC   C2B20768  11.142  27.775   8.253
 6440POPC   C3B20769  11.104  27.760   7.953
 6440POPC   C4B20770  11.100  27.772   7.653
 6441POPC   NC320771  29.130  12.874   9.453
 6441POPC   PO420772  29.102  12.806   9.153
 6441POPC   GL120773  29.115  12.857   8.853
 6441POPC   GL220774  29.260  12.775   8.853
 6441POPC   C1A20775  29.110  12.843   8.553
 6441POPC   D2A20776  29.190  12.804   8.253
 6441POPC   C3A20777  29.125  12.881   7.953
 6441POPC   C4A20778  29.184  12.873   7.653
 6441POPC   C1B20779  29.376  12.689   8.553
 6441POPC   C2B20780  29.340  12.664   8.253
 6441POPC   C3B20781  29.361  12.744   7.953
 6441POPC   C4B20782  29.354  12.725   7.653
 6442POPC   NC320783  31.475   4.268   9.453
 6442POPC   PO420784  31.459   4.341   9.153
 6442POPC   GL120785  31.435   4.356   8.853
 6442POPC   GL220786  31.603   4.362   8.853
 6442POPC   C1A20787  31.432   4.270   8.553
 6442POPC   D2A20788  31.463   4.307   8.253
 6442POPC   C3A20789  31.430   4.291   7.953
 6442POPC   C4A20790  31.494   4.286   7.653
 6442POPC   C1B20791  31.647   4.452   8.553
 6442POPC   C2B20792  31.656   4.486   8.253
 6442POPC   C3B20793  31.684   4.484   7.953
 6442POPC   C4B20794  31.631   4.503   7.653
 6443POPC   NC320795  12.106   2.024   9.453
 6443POPC   PO420796  12.101   2.017   9.153
 6443POPC   GL120797  12.035   2.010   8.853
 6443POPC   GL220798  12.192   1.866   8.853
 6443POPC   C1A20799  12.081   1.972   8.553
 6443POPC   D2A20800  12.072   1.958   8.253
 6443POPC   C3A20801  12.100   2.021   7.953
 6443POPC   C4A20802  12.117   2.010   7.653
 6443POPC   C1B20803  12.280   1.807   8.553
 6443POPC   C2B20804  12.203   1.830   8.253
 6443POPC   C3B20805  12.241   1.760   7.953
 6443POPC   C4B20806  12.215   1.820   7.653
 6444POPC   NC320807  39.965  36.859   9.453
 6444POPC   PO420808  40.040  36.919   9.153
 6444POPC   GL120809  39.988  36.898   8.853
 6444POPC   GL220810  40.024  36.747   8.853
 6444POPC   C1A20811  40.038  36.942   8.553
 6444POPC   D2A20812  39.995  36.919   8.253
 6444POPC   C3A20813  40.015  36.943   7.953
 6444POPC   C4A20814  40.016  36.860   7.653
 6444POPC   C1B20815  39.926  36.687   8.553
 6444POPC   C2B20816  39.930  36.626   8.253
 6444POPC   C3B20817  39.936  36.686   7.953
 6444POPC   C4B20818  39.987  36.644   7.653
 6445POPC   NC320819   1.995  42.374   9.453
 6445POPC   PO420820   1.950  42.360   9.153
 6445POPC   GL120821   2.029  42.345   8.853
 6445POPC   GL220822   2.026  42.460   8.853
 6445POPC   C1A20823   1.970  42.382   8.553
 6445POPC   D2A20824   1.947  42.289   8.253
 6445POPC   C3A20825   1.950  42.321   7.953
 6445POPC   C4A20826   2.018  42.321   7.653
 6445POPC   C1B20827   1.990  42.578   8.553
 6445POPC   C2B20828   1.969  42.601   8.253
 6445POPC   C3B20829   1.936  42.581   7.953
 6445POPC   C4B20830   2.018  42.554   7.653
 6446POPC   NC320831   4.346   1.198   9.453
 6446POPC   PO420832   4.298   1.243   9.153
 6446POPC   GL120833   4.306   1.196   8.853
 6446POPC   GL220834   4.394   1.166   8.853
 6446POPC   C1A20835   4.283   1.222   8.553
 6446POPC   D2A20836   4.312   1.261   8.253
 6446POPC   C3A20837   4.281   1.242   7.953
 6446POPC   C4A20838   4.328   1.193   7.653
 6446POPC   C1B20839   4.489   1.021   8.553
 6446POPC   C2B20840   4.526   1.072   8.253
 6446POPC   C3B20841   4.541   1.017   7.953
 6446POPC   C4B20842   4.482   1.036   7.653
 6447POPC   NC320843  26.058  32.256   9.453
 6447POPC   PO420844  26.034  32.240   9.153
 6447POPC   GL120845  26.014  32.238   8.853
 6447POPC   GL220846  26.201  32.318   8.853
 6447POPC   C1A20847  26.003  32.279   8.553
 6447POPC   D2A20848  26.073  32.223   8.253
 6447POPC   C3A20849  26.068  32.265   7.953
 6447POPC   C4A20850  26.081  32.278   7.653
 6447POPC   C1B20851  26.246  32.304   8.553
 6447POPC   C2B20852  26.304  32.284   8.253
 6447POPC   C3B20853  26.278  32.344   7.953
 6447POPC   C4B20854  26.269  32.281   7.653
 6448POPC   NC320855  18.328  38.460   9.453
 6448POPC   PO420856  18.313  38.471   9.153
 6448POPC   GL120857  18.331  38.462   8.853
 6448POPC   GL220858  18.188  38.442   8.853
 6448POPC   C1A20859  18.290  38.498   8.553
 6448POPC   D2A20860  18.332  38.466   8.253
 6448POPC   C3A20861  18.304  38.480   7.953
 6448POPC   C4A20862  18.235  38.454   7.653
 6448POPC   C1B20863  18.082  38.414   8.553
 6448POPC   C2B20864  18.038  38.423   8.253
 6448POPC   C3B20865  18.009  38.445   7.953
 6448POPC   C4B20866  18.070  38.459   7.653
 6449POPC   NC320867   6.672  43.157   9.453
 6449POPC   PO420868   6.599  43.141   9.153
 6449POPC   GL120869   6.660  43.150   8.853
 6449POPC   GL220870   6.662  42.942   8.853
 6449POPC   C1A20871   6.687  43.134   8.553
 6449POPC   D2A20872   6.601  43.126   8.253
 6449POPC   C3A20873   6.599  43.082   7.953
 6449POPC   C4A20874   6.616  43.066   7.653
 6449POPC   C1B20875   6.650  42.853   8.553
 6449POPC   C2B20876   6.637  42.858   8.253
 6449POPC   C3B20877   6.660  42.893   7.953
 6449POPC   C4B20878   6.654  42.910   7.653
 6450POPC   NC320879  29.117   0.437   9.453
 6450POPC   PO420880  29.166   0.467   9.153
 6450POPC   GL120881  29.130   0.487   8.853
 6450POPC   GL220882  29.039   0.473   8.853
 6450POPC   C1A20883  29.137   0.418   8.553
 6450POPC   D2A20884  29.102   0.413   8.253
 6450POPC   C3A20885  29.151   0.396   7.953
 6450POPC   C4A20886  29.127   0.458   7.653
 6450POPC   C1B20887  28.904   0.451   8.553
 6450POPC   C2B20888  28.874   0.470   8.253
 6450POPC   C3B20889  28.857   0.461   7.953
 6450POPC   C4B20890  28.919   0.443   7.653
 6451POPC   NC320891   0.446  22.169   9.453
 6451POPC   PO420892   0.422  22.157   9.153
 6451POPC   GL120893   0.485  22.124   8.853
 6451POPC   GL220894   0.464  22.272   8.853
 6451POPC   C1A20895   0.483  22.140   8.553
 6451POPC   D2A20896   0.417  22.180   8.253
 6451POPC   C3A20897   0.462  22.115   7.953
 6451POPC   C4A20898   0.445  22.194   7.653
 6451POPC   C1B20899   0.502  22.388   8.553
 6451POPC   C2B20900   0.469  22.360   8.253
 6451POPC   C3B20901   0.516  22.386   7.953
 6451POPC   C4B20902   0.506  22.446   7.653
 6452POPC   NC320903  44.683   5.076   9.453
 6452POPC   PO420904  44.689   5.067   9.153
 6452POPC   GL120905  44.694   5.142   8.853
 6452POPC   GL220906  44.619   4.976   8.853
 6452POPC   C1A20907  44.662   5.081   8.553
 6452POPC   D2A20908  44.698   5.117   8.253
 6452POPC   C3A20909  44.639   5.129   7.953
 6452POPC   C4A20910  44.689   5.068   7.653
 6452POPC   C1B20911  44.580   4.880   8.553
 6452POPC   C2B20912  44.503   4.883   8.253
 6452POPC   C3B20913  44.534   4.835   7.953
 6452POPC   C4B20914  44.498   4.854   7.653
 6453POPC   NC320915  19.880  42.351   9.453
 6453POPC   PO420916  19.859  42.330   9.153
 6453POPC   GL120917  19.810  42.335   8.853
 6453POPC   GL220918  19.933  42.347   8.853
 6453POPC   C1A20919  19.797  42.348   8.553
 6453POPC   D2A20920  19.826  42.333   8.253
 6453POPC   C3A20921  19.807  42.368   7.953
 6453POPC   C4A20922  19.884  42.330   7.653
 6453POPC   C1B20923  20.110  42.302   8.553
 6453POPC   C2B20924  20.064  42.273   8.253
 6453POPC   C3B20925  20.072  42.269   7.953
 6453POPC   C4B20926  20.075  42.311   7.653
 6454POPC   NC320927  15.171  42.306   9.453
 6454POPC   PO420928  15.151  42.346   9.153
 6454POPC   GL120929  15.201  42.287   8.853
 6454POPC   GL220930  15.350  42.311   8.853
 6454POPC   C1A20931  15.166  42.353   8.553
 6454POPC   D2A20932  15.196  42.292   8.253
 6454POPC   C3A20933  15.189  42.318   7.953
 6454POPC   C4A20934  15.197  42.321   7.653
 6454POPC   C1B20935  15.446  42.301   8.553
 6454POPC   C2B20936  15.459  42.296   8.253
 6454POPC   C3B20937  15.401  42.267   7.953
 6454POPC   C4B20938  15.401  42.313   7.653
 6455POPC   NC320939   0.482  12.055   9.453
 6455POPC   PO420940   0.444  12.056   9.153
 6455POPC   GL120941   0.450  12.036   8.853
 6455POPC   GL220942   0.300  12.079   8.853
 6455POPC   C1A20943   0.473  12.095   8.553
 6455POPC   D2A20944   0.472  12.115   8.253
 6455POPC   C3A20945   0.410  12.115   7.953
 6455POPC   C4A20946   0.480  12.084   7.653
 6455POPC   C1B20947   0.213  12.006   8.553
 6455POPC   C2B20948   0.230  12.031   8.253
 6455POPC   C3B20949   0.218  11.997   7.953
 6455POPC   C4B20950   0.205  12.011   7.653
 6456POPC   NC320951  27.628  13.670   9.453
 6456POPC   PO420952  27.553  13.617   9.153
 6456POPC   GL120953  27.603  13.588   8.853
 6456POPC   GL220954  27.670  13.542   8.853
 6456POPC   C1A20955  27.610  13.649   8.553
 6456POPC   D2A20956  27.553  13.628   8.253
 6456POPC   C3A20957  27.553  13.606   7.953
 6456POPC   C4A20958  27.586  13.595   7.653
 6456POPC   C1B20959  27.689  13.445   8.553
 6456POPC   C2B20960  27.685  13.429   8.253
 6456POPC   C3B20961  27.740  13.356   7.953
 6456POPC   C4B20962  27.685  13.402   7.653
 6457POPC   NC320963   2.725  21.351   9.453
 6457POPC   PO420964   2.769  21.411   9.153
 6457POPC   GL120965   2.740  21.399   8.853
 6457POPC   GL220966   2.784  21.448   8.853
 6457POPC   C1A20967   2.746  21.425   8.553
 6457POPC   D2A20968   2.732  21.397   8.253
 6457POPC   C3A20969   2.747  21.374   7.953
 6457POPC   C4A20970   2.747  21.372   7.653
 6457POPC   C1B20971   2.854  21.551   8.553
 6457POPC   C2B20972   2.936  21.607   8.253
 6457POPC   C3B20973   2.918  21.615   7.953
 6457POPC   C4B20974   2.904  21.645   7.653
 6458POPC   NC320975   2.006  12.836   9.453
 6458POPC   PO420976   2.019  12.856   9.153
 6458POPC   GL120977   1.955  12.830   8.853
 6458POPC   GL220978   1.876  12.709   8.853
 6458POPC   C1A20979   2.025  12.844   8.553
 6458POPC   D2A20980   1.949  12.870   8.253
 6458POPC   C3A20981   1.977  12.888   7.953
 6458POPC   C4A20982   1.942  12.840   7.653
 6458POPC   C1B20983   1.887  12.696   8.553
 6458POPC   C2B20984   1.841  12.653   8.253
 6458POPC   C3B20985   1.807  12.678   7.953
 6458POPC   C4B20986   1.796  12.658   7.653
 6459POPC   NC320987   0.430  42.381   9.453
 6459POPC   PO420988   0.408  42.362   9.153
 6459POPC   GL120989   0.422  42.366   8.853
 6459POPC   GL220990   0.419  42.242   8.853
 6459POPC   C1A20991   0.454  42.321   8.553
 6459POPC   D2A20992   0.424  42.331   8.253
 6459POPC   C3A20993   0.403  42.381   7.953
 6459POPC   C4A20994   0.394  42.287   7.653
 6459POPC   C1B20995   0.302  42.111   8.553
 6459POPC   C2B20996   0.390  42.141   8.253
 6459POPC   C3B20997   0.320  42.126   7.953
 6459POPC   C4B20998   0.387  42.152   7.653
 6460POPC   NC320999  31.432  36.167   9.453
 6460POPC   PO421000  31.443  36.143   9.153
 6460POPC   GL121001  31.489  36.079   8.853
 6460POPC   GL221002  31.423  36.046   8.853
 6460POPC   C1A21003  31.467  36.087   8.553
 6460POPC   D2A21004  31.447  36.131   8.253
 6460POPC   C3A21005  31.487  36.114   7.953
 6460POPC   C4A21006  31.519  36.122   7.653
 6460POPC   C1B21007  31.437  35.917   8.553
 6460POPC   C2B21008  31.368  35.888   8.253
 6460POPC   C3B21009  31.400  35.870   7.953
 6460POPC   C4B21010  31.419  35.915   7.653
 6461POPC   NC321011  36.115  28.342   9.453
 6461POPC   PO421012  36.079  28.362   9.153
 6461POPC   GL121013  36.135  28.387   8.853
 6461POPC   GL221014  36.069  28.264   8.853
 6461POPC   C1A21015  36.092  28.417   8.553
 6461POPC   D2A21016  36.140  28.399   8.253
 6461POPC   C3A21017  36.080  28.392   7.953
 6461POPC   C4A21018  36.149  28.325   7.653
 6461POPC   C1B21019  35.999  28.193   8.553
 6461POPC   C2B21020  35.949  28.133   8.253
 6461POPC   C3B21021  35.943  28.209   7.953
 6461POPC   C4B21022  35.950  28.133   7.653
 6462POPC   NC321023  17.541  43.123   9.453
 6462POPC   PO421024  17.530  43.068   9.153
 6462POPC   GL121025  17.483  43.098   8.853
 6462POPC   GL221026  17.481  43.231   8.853
 6462POPC   C1A21027  17.491  43.139   8.553
 6462POPC   D2A21028  17.478  43.156   8.253
 6462POPC   C3A21029  17.466  43.092   7.953
 6462POPC   C4A21030  17.501  43.154   7.653
 6462POPC   C1B21031  17.420  43.379   8.553
 6462POPC   C2B21032  17.380  43.326   8.253
 6462POPC   C3B21033  17.458  43.331   7.953
 6462POPC   C4B21034  17.397  43.335   7.653
 6463POPC   NC321035  16.717  11.318   9.453
 6463POPC   PO421036  16.726  11.303   9.153
 6463POPC   GL121037  16.697  11.275   8.853
 6463POPC   GL221038  16.670  11.229   8.853
 6463POPC   C1A21039  16.741  11.299   8.553
 6463POPC   D2A21040  16.685  11.330   8.253
 6463POPC   C3A21041  16.732  11.262   7.953
 6463POPC   C4A21042  16.707  11.294   7.653
 6463POPC   C1B21043  16.499  11.137   8.553
 6463POPC   C2B21044  16.562  11.087   8.253
 6463POPC   C3B21045  16.591  11.135   7.953
 6463POPC   C4B21046  16.528  11.172   7.653
 6464POPC   NC321047   3.575  39.996   9.453
 6464POPC   PO421048   3.518  39.992   9.153
 6464POPC   GL121049   3.499  40.044   8.853
 6464POPC   GL221050   3.402  39.951   8.853
 6464POPC   C1A21051   3.564  39.988   8.553
 6464POPC   D2A21052   3.525  40.006   8.253
 6464POPC   C3A21053   3.505  40.020   7.953
 6464POPC   C4A21054   3.585  40.018   7.653
 6464POPC   C1B21055   3.278  39.845   8.553
 6464POPC   C2B21056   3.301  39.889   8.253
 6464POPC   C3B21057   3.289  39.857   7.953
 6464POPC   C4B21058   3.309  39.842   7.653
 6465POPC   NC321059  38.425  44.670   9.453
 6465POPC   PO421060  38.408  44.628   9.153
 6465POPC   GL121061  38.443  44.664   8.853
 6465POPC   GL221062  38.479  44.744   8.853
 6465POPC   C1A21063  38.502  44.663   8.553
 6465POPC   D2A21064  38.494  44.619   8.253
 6465POPC   C3A21065  38.428  44.638   7.953
 6465POPC   C4A21066  38.503  44.626   7.653
 6465POPC   C1B21067  38.567  44.905   8.553
 6465POPC   C2B21068  38.592  44.832   8.253
 6465POPC   C3B21069  38.621  44.896   7.953
 6465POPC   C4B21070  38.561  44.867   7.653
 6466POPC   NC321071   1.952  39.190   9.453
 6466POPC   PO421072   1.943  39.208   9.153
 6466POPC   GL121073   2.003  39.236   8.853
 6466POPC   GL221074   2.100  39.157   8.853
 6466POPC   C1A21075   2.029  39.231   8.553
 6466POPC   D2A21076   2.015  39.196   8.253
 6466POPC   C3A21077   2.012  39.264   7.953
 6466POPC   C4A21078   1.944  39.216   7.653
 6466POPC   C1B21079   2.259  39.115   8.553
 6466POPC   C2B21080   2.233  39.148   8.253
 6466POPC   C3B21081   2.205  39.152   7.953
 6466POPC   C4B21082   2.242  39.147   7.653
 6467POPC   NC321083  30.724  29.101   9.453
 6467POPC   PO421084  30.649  29.133   9.153
 6467POPC   GL121085  30.647  29.127   8.853
 6467POPC   GL221086  30.632  29.201   8.853
 6467POPC   C1A21087  30.736  29.175   8.553
 6467POPC   D2A21088  30.729  29.104   8.253
 6467POPC   C3A21089  30.718  29.131   7.953
 6467POPC   C4A21090  30.669  29.180   7.653
 6467POPC   C1B21091  30.480  29.367   8.553
 6467POPC   C2B21092  30.520  29.292   8.253
 6467POPC   C3B21093  30.518  29.334   7.953
 6467POPC   C4B21094  30.519  29.281   7.653
 6468POPC   NC321095  41.519  25.293   9.453
 6468POPC   PO421096  41.602  25.262   9.153
 6468POPC   GL121097  41.561  25.256   8.853
 6468POPC   GL221098  41.650  25.400   8.853
 6468POPC   C1A21099  41.509  25.230   8.553
 6468POPC   D2A21100  41.602  25.310   8.253
 6468POPC   C3A21101  41.510  25.248   7.953
 6468POPC   C4A21102  41.584  25.289   7.653
 6468POPC   C1B21103  41.743  25.476   8.553
 6468POPC   C2B21104  41.735  25.444   8.253
 6468POPC   C3B21105  41.761  25.415   7.953
 6468POPC   C4B21106  41.696  25.451   7.653
 6469POPC   NC321107  26.067   8.954   9.453
 6469POPC   PO421108  26.061   8.986   9.153
 6469POPC   GL121109  26.043   8.923   8.853
 6469POPC   GL221110  26.085   8.911   8.853
 6469POPC   C1A21111  26.037   9.010   8.553
 6469POPC   D2A21112  26.091   8.977   8.253
 6469POPC   C3A21113  26.011   8.976   7.953
 6469POPC   C4A21114  26.040   8.989   7.653
 6469POPC   C1B21115  26.228   8.774   8.553
 6469POPC   C2B21116  26.221   8.814   8.253
 6469POPC   C3B21117  26.165   8.795   7.953
 6469POPC   C4B21118  26.183   8.805   7.653
 6470POPC   NC321119   6.626  32.994   9.453
 6470POPC   PO421120   6.606  33.050   9.153
 6470POPC   GL121121   6.677  33.036   8.853
 6470POPC   GL221122   6.661  33.112   8.853
 6470POPC   C1A21123   6.602  32.994   8.553
 6470POPC   D2A21124   6.676  32.997   8.253
 6470POPC   C3A21125   6.687  33.050   7.953
 6470POPC   C4A21126   6.629  33.017   7.653
 6470POPC   C1B21127   6.784  33.235   8.553
 6470POPC   C2B21128   6.795  33.283   8.253
 6470POPC   C3B21129   6.775  33.214   7.953
 6470POPC   C4B21130   6.712  33.258   7.653
 6471POPC   NC321131  21.379  19.878   9.453
 6471POPC   PO421132  21.341  19.801   9.153
 6471POPC   GL121133  21.434  19.820   8.853
 6471POPC   GL221134  21.339  19.690   8.853
 6471POPC   C1A21135  21.377  19.805   8.553
 6471POPC   D2A21136  21.345  19.869   8.253
 6471POPC   C3A21137  21.428  19.813   7.953
 6471POPC   C4A21138  21.378  19.800   7.653
 6471POPC   C1B21139  21.305  19.567   8.553
 6471POPC   C2B21140  21.316  19.559   8.253
 6471POPC   C3B21141  21.359  19.553   7.953
 6471POPC   C4B21142  21.384  19.598   7.653
 6472POPC   NC321143   5.875  26.786   9.453
 6472POPC   PO421144   5.829  26.829   9.153
 6472POPC   GL121145   5.896  26.781   8.853
 6472POPC   GL221146   5.922  26.903   8.853
 6472POPC   C1A21147   5.846  26.787   8.553
 6472POPC   D2A21148   5.876  26.829   8.253
 6472POPC   C3A21149   5.850  26.785   7.953
 6472POPC   C4A21150   5.917  26.839   7.653
 6472POPC   C1B21151   5.906  27.076   8.553
 6472POPC   C2B21152   5.937  27.064   8.253
 6472POPC   C3B21153   5.936  27.045   7.953
 6472POPC   C4B21154   5.847  27.074   7.653
 6473POPC   NC321155  26.039  30.706   9.453
 6473POPC   PO421156  26.000  30.670   9.153
 6473POPC   GL121157  26.064  30.727   8.853
 6473POPC   GL221158  25.883  30.661   8.853
 6473POPC   C1A21159  26.052  30.694   8.553
 6473POPC   D2A21160  25.999  30.680   8.253
 6473POPC   C3A21161  26.077  30.738   7.953
 6473POPC   C4A21162  26.022  30.728   7.653
 6473POPC   C1B21163  25.747  30.681   8.553
 6473POPC   C2B21164  25.747  30.667   8.253
 6473POPC   C3B21165  25.828  30.647   7.953
 6473POPC   C4B21166  25.761  30.635   7.653
 6474POPC   NC321167   2.015   0.428   9.453
 6474POPC   PO421168   1.943   0.423   9.153
 6474POPC   GL121169   1.975   0.399   8.853
 6474POPC   GL221170   1.887   0.477   8.853
 6474POPC   C1A21171   1.970   0.415   8.553
 6474POPC   D2A21172   2.038   0.412   8.253
 6474POPC   C3A21173   2.028   0.406   7.953
 6474POPC   C4A21174   1.969   0.391   7.653
 6474POPC   C1B21175   1.798   0.509   8.553
 6474POPC   C2B21176   1.738   0.533   8.253
 6474POPC   C3B21177   1.724   0.541   7.953
 6474POPC   C4B21178   1.791   0.467   7.653
 6475POPC   NC321179  14.400  22.971   9.453
 6475POPC   PO421180  14.411  22.936   9.153
 6475POPC   GL121181  14.397  22.914   8.853
 6475POPC   GL221182  14.477  23.024   8.853
 6475POPC   C1A21183  14.413  22.942   8.553
 6475POPC   D2A21184  14.368  22.893   8.253
 6475POPC   C3A21185  14.438  22.947   7.953
 6475POPC   C4A21186  14.376  22.918   7.653
 6475POPC   C1B21187  14.581  23.118   8.553
 6475POPC   C2B21188  14.499  23.130   8.253
 6475POPC   C3B21189  14.507  23.128   7.953
 6475POPC   C4B21190  14.535  23.129   7.653
 6476POPC   NC321191  29.142  34.553   9.453
 6476POPC   PO421192  29.112  34.552   9.153
 6476POPC   GL121193  29.106  34.617   8.853
 6476POPC   GL221194  29.078  34.423   8.853
 6476POPC   C1A21195  29.154  34.598   8.553
 6476POPC   D2A21196  29.185  34.598   8.253
 6476POPC   C3A21197  29.181  34.563   7.953
 6476POPC   C4A21198  29.193  34.578   7.653
 6476POPC   C1B21199  29.078  34.301   8.553
 6476POPC   C2B21200  29.016  34.383   8.253
 6476POPC   C3B21201  29.033  34.388   7.953
 6476POPC   C4B21202  29.057  34.391   7.653
 6477POPC   NC321203   2.804  36.913   9.453
 6477POPC   PO421204   2.751  36.916   9.153
 6477POPC   GL121205   2.761  36.939   8.853
 6477POPC   GL221206   2.660  36.784   8.853
 6477POPC   C1A21207   2.755  36.891   8.553
 6477POPC   D2A21208   2.737  36.908   8.253
 6477POPC   C3A21209   2.804  36.947   7.953
 6477POPC   C4A21210   2.798  36.953   7.653
 6477POPC   C1B21211   2.671  36.699   8.553
 6477POPC   C2B21212   2.644  36.689   8.253
 6477POPC   C3B21213   2.671  36.710   7.953
 6477POPC   C4B21214   2.692  36.632   7.653
 6478POPC   NC321215  33.819  27.563   9.453
 6478POPC   PO421216  33.756  27.589   9.153
 6478POPC   GL121217  33.814  27.562   8.853
 6478POPC   GL221218  33.776  27.684   8.853
 6478POPC   C1A21219  33.752  27.587   8.553
 6478POPC   D2A21220  33.765  27.567   8.253
 6478POPC   C3A21221  33.752  27.575   7.953
 6478POPC   C4A21222  33.832  27.642   7.653
 6478POPC   C1B21223  33.840  27.827   8.553
 6478POPC   C2B21224  33.806  27.795   8.253
 6478POPC   C3B21225  33.851  27.797   7.953
 6478POPC   C4B21226  33.841  27.889   7.653
 6479POPC   NC321227  17.502  27.624   9.453
 6479POPC   PO421228  17.503  27.584   9.153
 6479POPC   GL121229  17.531  27.577   8.853
 6479POPC   GL221230  17.657  27.567   8.853
 6479POPC   C1A21231  17.539  27.609   8.553
 6479POPC   D2A21232  17.529  27.639   8.253
 6479POPC   C3A21233  17.524  27.581   7.953
 6479POPC   C4A21234  17.485  27.633   7.653
 6479POPC   C1B21235  17.746  27.586   8.553
 6479POPC   C2B21236  17.753  27.563   8.253
 6479POPC   C3B21237  17.726  27.506   7.953
 6479POPC   C4B21238  17.789  27.576   7.653
 6480POPC   NC321239   8.180  33.835   9.453
 6480POPC   PO421240   8.198  33.848   9.153
 6480POPC   GL121241   8.246  33.847   8.853
 6480POPC   GL221242   8.090  33.804   8.853
 6480POPC   C1A21243   8.190  33.752   8.553
 6480POPC   D2A21244   8.204  33.778   8.253
 6480POPC   C3A21245   8.211  33.841   7.953
 6480POPC   C4A21246   8.152  33.814   7.653
 6480POPC   C1B21247   7.978  33.841   8.553
 6480POPC   C2B21248   7.957  33.796   8.253
 6480POPC   C3B21249   7.939  33.810   7.953
 6480POPC   C4B21250   7.904  33.846   7.653
 6481POPC   NC321251  34.607  30.674   9.453
 6481POPC   PO421252  34.609  30.701   9.153
 6481POPC   GL121253  34.536  30.674   8.853
 6481POPC   GL221254  34.727  30.760   8.853
 6481POPC   C1A21255  34.574  30.666   8.553
 6481POPC   D2A21256  34.617  30.672   8.253
 6481POPC   C3A21257  34.594  30.654   7.953
 6481POPC   C4A21258  34.540  30.742   7.653
 6481POPC   C1B21259  34.743  30.809   8.553
 6481POPC   C2B21260  34.828  30.794   8.253
 6481POPC   C3B21261  34.754  30.790   7.953
 6481POPC   C4B21262  34.781  30.810   7.653
 6482POPC   NC321263  42.327  20.618   9.453
 6482POPC   PO421264  42.318  20.567   9.153
 6482POPC   GL121265  42.373  20.625   8.853
 6482POPC   GL221266  42.361  20.520   8.853
 6482POPC   C1A21267  42.350  20.563   8.553
 6482POPC   D2A21268  42.294  20.606   8.253
 6482POPC   C3A21269  42.311  20.573   7.953
 6482POPC   C4A21270  42.303  20.610   7.653
 6482POPC   C1B21271  42.342  20.345   8.553
 6482POPC   C2B21272  42.367  20.326   8.253
 6482POPC   C3B21273  42.339  20.326   7.953
 6482POPC   C4B21274  42.380  20.317   7.653
 6483POPC   NC321275  24.526  37.680   9.453
 6483POPC   PO421276  24.455  37.715   9.153
 6483POPC   GL121277  24.453  37.631   8.853
 6483POPC   GL221278  24.409  37.816   8.853
 6483POPC   C1A21279  24.519  37.726   8.553
 6483POPC   D2A21280  24.511  37.691   8.253
 6483POPC   C3A21281  24.501  37.635   7.953
 6483POPC   C4A21282  24.443  37.669   7.653
 6483POPC   C1B21283  24.342  37.922   8.553
 6483POPC   C2B21284  24.326  37.882   8.253
 6483POPC   C3B21285  24.300  37.915   7.953
 6483POPC   C4B21286  24.361  37.860   7.653
 6484POPC   NC321287  30.725   1.235   9.453
 6484POPC   PO421288  30.742   1.220   9.153
 6484POPC   GL121289  30.657   1.221   8.853
 6484POPC   GL221290  30.704   1.359   8.853
 6484POPC   C1A21291  30.682   1.245   8.553
 6484POPC   D2A21292  30.710   1.188   8.253
 6484POPC   C3A21293  30.736   1.253   7.953
 6484POPC   C4A21294  30.689   1.215   7.653
 6484POPC   C1B21295  30.672   1.447   8.553
 6484POPC   C2B21296  30.702   1.414   8.253
 6484POPC   C3B21297  30.717   1.499   7.953
 6484POPC   C4B21298  30.748   1.502   7.653
 6485POPC   NC321299   1.208  15.131   9.453
 6485POPC   PO421300   1.168  15.133   9.153
 6485POPC   GL121301   1.264  15.171   8.853
 6485POPC   GL221302   1.210  15.292   8.853
 6485POPC   C1A21303   1.174  15.166   8.553
 6485POPC   D2A21304   1.244  15.155   8.253
 6485POPC   C3A21305   1.208  15.135   7.953
 6485POPC   C4A21306   1.208  15.170   7.653
 6485POPC   C1B21307   1.088  15.396   8.553
 6485POPC   C2B21308   1.099  15.399   8.253
 6485POPC   C3B21309   1.167  15.388   7.953
 6485POPC   C4B21310   1.149  15.458   7.653
 6486POPC   NC321311  22.129  15.166   9.453
 6486POPC   PO421312  22.128  15.155   9.153
 6486POPC   GL121313  22.128  15.193   8.853
 6486POPC   GL221314  22.231  15.137   8.853
 6486POPC   C1A21315  22.122  15.132   8.553
 6486POPC   D2A21316  22.156  15.183   8.253
 6486POPC   C3A21317  22.203  15.189   7.953
 6486POPC   C4A21318  22.196  15.202   7.653
 6486POPC   C1B21319  22.327  15.064   8.553
 6486POPC   C2B21320  22.393  15.063   8.253
 6486POPC   C3B21321  22.384  15.032   7.953
 6486POPC   C4B21322  22.360  15.000   7.653
 6487POPC   NC321323  15.920  36.093   9.453
 6487POPC   PO421324  15.957  36.162   9.153
 6487POPC   GL121325  15.942  36.092   8.853
 6487POPC   GL221326  16.093  36.047   8.853
 6487POPC   C1A21327  15.933  36.096   8.553
 6487POPC   D2A21328  15.959  36.150   8.253
 6487POPC   C3A21329  15.999  36.132   7.953
 6487POPC   C4A21330  15.949  36.163   7.653
 6487POPC   C1B21331  16.114  36.000   8.553
 6487POPC   C2B21332  16.190  35.976   8.253
 6487POPC   C3B21333  16.128  35.992   7.953
 6487POPC   C4B21334  16.177  35.988   7.653
 6488POPC   NC321335  23.673  18.267   9.453
 6488POPC   PO421336  23.719  18.272   9.153
 6488POPC   GL121337  23.700  18.261   8.853
 6488POPC   GL221338  23.586  18.392   8.853
 6488POPC   C1A21339  23.725  18.311   8.553
 6488POPC   D2A21340  23.730  18.290   8.253
 6488POPC   C3A21341  23.746  18.304   7.953
 6488POPC   C4A21342  23.688  18.276   7.653
 6488POPC   C1B21343  23.476  18.440   8.553
 6488POPC   C2B21344  23.485  18.393   8.253
 6488POPC   C3B21345  23.460  18.378   7.953
 6488POPC   C4B21346  23.521  18.453   7.653
 6489POPC   NC321347   1.222   0.455   9.453
 6489POPC   PO421348   1.252   0.390   9.153
 6489POPC   GL121349   1.250   0.418   8.853
 6489POPC   GL221350   1.255   0.389   8.853
 6489POPC   C1A21351   1.239   0.486   8.553
 6489POPC   D2A21352   1.170   0.444   8.253
 6489POPC   C3A21353   1.262   0.444   7.953
 6489POPC   C4A21354   1.253   0.402   7.653
 6489POPC   C1B21355   1.324   0.226   8.553
 6489POPC   C2B21356   1.354   0.263   8.253
 6489POPC   C3B21357   1.387   0.286   7.953
 6489POPC   C4B21358   1.369   0.215   7.653
 6490POPC   NC321359   0.408  18.295   9.453
 6490POPC   PO421360   0.442  18.283   9.153
 6490POPC   GL121361   0.393  18.249   8.853
 6490POPC   GL221362   0.380  18.186   8.853
 6490POPC   C1A21363   0.445  18.314   8.553
 6490POPC   D2A21364   0.437  18.270   8.253
 6490POPC   C3A21365   0.417  18.239   7.953
 6490POPC   C4A21366   0.425  18.270   7.653
 6490POPC   C1B21367   0.344  18.048   8.553
 6490POPC   C2B21368   0.323  18.054   8.253
 6490POPC   C3B21369   0.249  18.080   7.953
 6490POPC   C4B21370   0.343  18.060   7.653
 6491POPC   NC321371  37.634  22.935   9.453
 6491POPC   PO421372  37.715  22.961   9.153
 6491POPC   GL121373  37.669  22.928   8.853
 6491POPC   GL221374  37.806  22.980   8.853
 6491POPC   C1A21375  37.713  22.890   8.553
 6491POPC   D2A21376  37.650  22.927   8.253
 6491POPC   C3A21377  37.656  22.963   7.953
 6491POPC   C4A21378  37.666  22.920   7.653
 6491POPC   C1B21379  37.880  23.017   8.553
 6491POPC   C2B21380  37.921  23.022   8.253
 6491POPC   C3B21381  37.925  23.071   7.953
 6491POPC   C4B21382  37.902  23.062   7.653
 6492POPC   NC321383  36.952   5.057   9.453
 6492POPC   PO421384  36.918   5.140   9.153
 6492POPC   GL121385  36.891   5.093   8.853
 6492POPC   GL221386  36.762   5.059   8.853
 6492POPC   C1A21387  36.886   5.117   8.553
 6492POPC   D2A21388  36.906   5.112   8.253
 6492POPC   C3A21389  36.938   5.065   7.953
 6492POPC   C4A21390  36.930   5.137   7.653
 6492POPC   C1B21391  36.663   4.970   8.553
 6492POPC   C2B21392  36.686   4.972   8.253
 6492POPC   C3B21393  36.663   4.960   7.953
 6492POPC   C4B21394  36.696   4.963   7.653
 6493POPC   NC321395  25.263  38.450   9.453
 6493POPC   PO421396  25.296  38.443   9.153
 6493POPC   GL121397  25.286  38.485   8.853
 6493POPC   GL221398  25.371  38.519   8.853
 6493POPC   C1A21399  25.300  38.420   8.553
 6493POPC   D2A21400  25.307  38.441   8.253
 6493POPC   C3A21401  25.237  38.497   7.953
 6493POPC   C4A21402  25.297  38.493   7.653
 6493POPC   C1B21403  25.483  38.539   8.553
 6493POPC   C2B21404  25.457  38.542   8.253
 6493POPC   C3B21405  25.455  38.507   7.953
 6493POPC   C4B21406  25.485  38.586   7.653
 6494POPC   NC321407   9.739  11.332   9.453
 6494POPC   PO421408   9.770  11.320   9.153
 6494POPC   GL121409   9.727  11.253   8.853
 6494POPC   GL221410   9.894  11.344   8.853
 6494POPC   C1A21411   9.797  11.271   8.553
 6494POPC   D2A21412   9.760  11.301   8.253
 6494POPC   C3A21413   9.777  11.277   7.953
 6494POPC   C4A21414   9.781  11.303   7.653
 6494POPC   C1B21415   9.959  11.369   8.553
 6494POPC   C2B21416   9.949  11.332   8.253
 6494POPC   C3B21417   9.936  11.394   7.953
 6494POPC   C4B21418   9.972  11.376   7.653
 6495POPC   NC321419  36.861   7.459   9.453
 6495POPC   PO421420  36.885   7.413   9.153
 6495POPC   GL121421  36.883   7.404   8.853
 6495POPC   GL221422  36.754   7.415   8.853
 6495POPC   C1A21423  36.856   7.407   8.553
 6495POPC   D2A21424  36.922   7.402   8.253
 6495POPC   C3A21425  36.861   7.451   7.953
 6495POPC   C4A21426  36.873   7.383   7.653
 6495POPC   C1B21427  36.630   7.346   8.553
 6495POPC   C2B21428  36.721   7.294   8.253
 6495POPC   C3B21429  36.724   7.266   7.953
 6495POPC   C4B21430  36.656   7.287   7.653
 6496POPC   NC321431  20.622  38.493   9.453
 6496POPC   PO421432  20.645  38.494   9.153
 6496POPC   GL121433  20.629  38.474   8.853
 6496POPC   GL221434  20.558  38.304   8.853
 6496POPC   C1A21435  20.660  38.420   8.553
 6496POPC   D2A21436  20.626  38.464   8.253
 6496POPC   C3A21437  20.599  38.475   7.953
 6496POPC   C4A21438  20.643  38.464   7.653
 6496POPC   C1B21439  20.538  38.242   8.553
 6496POPC   C2B21440  20.586  38.226   8.253
 6496POPC   C3B21441  20.582  38.160   7.953
 6496POPC   C4B21442  20.592  38.228   7.653
 6497POPC   NC321443  19.069   0.393   9.453
 6497POPC   PO421444  19.086   0.434   9.153
 6497POPC   GL121445  19.076   0.433   8.853
 6497POPC   GL221446  19.110   0.579   8.853
 6497POPC   C1A21447  19.082   0.469   8.553
 6497POPC   D2A21448  19.029   0.485   8.253
 6497POPC   C3A21449  19.027   0.422   7.953
 6497POPC   C4A21450  19.076   0.419   7.653
 6497POPC   C1B21451  19.237   0.661   8.553
 6497POPC   C2B21452  19.187   0.586   8.253
 6497POPC   C3B21453  19.190   0.642   7.953
 6497POPC   C4B21454  19.184   0.609   7.653
 6498POPC   NC321455   9.716  26.846   9.453
 6498POPC   PO421456   9.774  26.780   9.153
 6498POPC   GL121457   9.753  26.793   8.853
 6498POPC   GL221458   9.666  26.983   8.853
 6498POPC   C1A21459   9.714  26.848   8.553
 6498POPC   D2A21460   9.712  26.852   8.253
 6498POPC   C3A21461   9.708  26.856   7.953
 6498POPC   C4A21462   9.734  26.819   7.653
 6498POPC   C1B21463   9.671  27.012   8.553
 6498POPC   C2B21464   9.712  27.089   8.253
 6498POPC   C3B21465   9.692  27.068   7.953
 6498POPC   C4B21466   9.692  27.016   7.653
 6499POPC   NC321467   9.733   8.956   9.453
 6499POPC   PO421468   9.765   9.022   9.153
 6499POPC   GL121469   9.777   8.943   8.853
 6499POPC   GL221470   9.673   9.081   8.853
 6499POPC   C1A21471   9.739   8.977   8.553
 6499POPC   D2A21472   9.746   9.004   8.253
 6499POPC   C3A21473   9.722   8.997   7.953
 6499POPC   C4A21474   9.771   8.990   7.653
 6499POPC   C1B21475   9.490   9.059   8.553
 6499POPC   C2B21476   9.489   9.119   8.253
 6499POPC   C3B21477   9.517   9.069   7.953
 6499POPC   C4B21478   9.561   9.108   7.653
 6500POPC   NC321479  10.507  24.493   9.453
 6500POPC   PO421480  10.485  24.526   9.153
 6500POPC   GL121481  10.511  24.457   8.853
 6500POPC   GL221482  10.386  24.431   8.853
 6500POPC   C1A21483  10.565  24.523   8.553
 6500POPC   D2A21484  10.571  24.475   8.253
 6500POPC   C3A21485  10.475  24.475   7.953
 6500POPC   C4A21486  10.482  24.441   7.653
 6500POPC   C1B21487  10.237  24.378   8.553
 6500POPC   C2B21488  10.303  24.404   8.253
 6500POPC   C3B21489  10.294  24.394   7.953
 6500POPC   C4B21490  10.329  24.453   7.653
 6501POPC   NC321491   4.322  34.544   9.453
 6501POPC   PO421492   4.268  34.620   9.153
 6501POPC   GL121493   4.314  34.588   8.853
 6501POPC   GL221494   4.461  34.620   8.853
 6501POPC   C1A21495   4.299  34.608   8.553
 6501POPC   D2A21496   4.323  34.558   8.253
 6501POPC   C3A21497   4.309  34.589   7.953
 6501POPC   C4A21498   4.310  34.553   7.653
 6501POPC   C1B21499   4.530  34.767   8.553
 6501POPC   C2B21500   4.548  34.719   8.253
 6501POPC   C3B21501   4.508  34.782   7.953
 6501POPC   C4B21502   4.532  34.696   7.653
 6502POPC   NC321503  22.136  23.694   9.453
 6502POPC   PO421504  22.129  23.677   9.153
 6502POPC   GL121505  22.160  23.737   8.853
 6502POPC   GL221506  22.100  23.632   8.853
 6502POPC   C1A21507  22.177  23.675   8.553
 6502POPC   D2A21508  22.122  23.718   8.253
 6502POPC   C3A21509  22.126  23.760   7.953
 6502POPC   C4A21510  22.128  23.704   7.653
 6502POPC   C1B21511  22.018  23.475   8.553
 6502POPC   C2B21512  22.017  23.550   8.253
 6502POPC   C3B21513  21.982  23.562   7.953
 6502POPC   C4B21514  22.011  23.506   7.653
 6503POPC   NC321515  29.963  40.021   9.453
 6503POPC   PO421516  29.945  39.997   9.153
 6503POPC   GL121517  29.898  39.964   8.853
 6503POPC   GL221518  29.904  39.868   8.853
 6503POPC   C1A21519  29.914  40.021   8.553
 6503POPC   D2A21520  29.960  39.984   8.253
 6503POPC   C3A21521  29.970  40.032   7.953
 6503POPC   C4A21522  29.955  40.024   7.653
 6503POPC   C1B21523  29.853  39.727   8.553
 6503POPC   C2B21524  29.907  39.779   8.253
 6503POPC   C3B21525  29.811  39.775   7.953
 6503POPC   C4B21526  29.818  39.782   7.653
 6504POPC   NC321527  42.337  42.358   9.453
 6504POPC   PO421528  42.351  42.311   9.153
 6504POPC   GL121529  42.307  42.374   8.853
 6504POPC   GL221530  42.251  42.392   8.853
 6504POPC   C1A21531  42.291  42.383   8.553
 6504POPC   D2A21532  42.291  42.375   8.253
 6504POPC   C3A21533  42.362  42.301   7.953
 6504POPC   C4A21534  42.364  42.300   7.653
 6504POPC   C1B21535  42.202  42.564   8.553
 6504POPC   C2B21536  42.123  42.479   8.253
 6504POPC   C3B21537  42.204  42.513   7.953
 6504POPC   C4B21538  42.179  42.511   7.653
 6505POPC   NC321539  25.312  39.962   9.453
 6505POPC   PO421540  25.256  39.975   9.153
 6505POPC   GL121541  25.219  39.978   8.853
 6505POPC   GL221542  25.291  40.149   8.853
 6505POPC   C1A21543  25.285  40.007   8.553
 6505POPC   D2A21544  25.275  39.974   8.253
 6505POPC   C3A21545  25.239  40.019   7.953
 6505POPC   C4A21546  25.278  40.000   7.653
 6505POPC   C1B21547  25.341  40.246   8.553
 6505POPC   C2B21548  25.345  40.245   8.253
 6505POPC   C3B21549  25.379  40.258   7.953
 6505POPC   C4B21550  25.386  40.231   7.653
 6506POPC   NC321551   4.326  10.511   9.453
 6506POPC   PO421552   4.361  10.508   9.153
 6506POPC   GL121553   4.347  10.501   8.853
 6506POPC   GL221554   4.235  10.422   8.853
 6506POPC   C1A21555   4.320  10.533   8.553
 6506POPC   D2A21556   4.272  10.544   8.253
 6506POPC   C3A21557   4.330  10.542   7.953
 6506POPC   C4A21558   4.292  10.515   7.653
 6506POPC   C1B21559   4.182  10.317   8.553
 6506POPC   C2B21560   4.241  10.270   8.253
 6506POPC   C3B21561   4.221  10.336   7.953
 6506POPC   C4B21562   4.239  10.246   7.653
 6507POPC   NC321563  25.995  43.076   9.453
 6507POPC   PO421564  26.039  43.106   9.153
 6507POPC   GL121565  26.018  43.087   8.853
 6507POPC   GL221566  25.973  43.010   8.853
 6507POPC   C1A21567  26.065  43.065   8.553
 6507POPC   D2A21568  26.048  43.122   8.253
 6507POPC   C3A21569  26.046  43.096   7.953
 6507POPC   C4A21570  26.077  43.090   7.653
 6507POPC   C1B21571  25.964  42.831   8.553
 6507POPC   C2B21572  25.949  42.898   8.253
 6507POPC   C3B21573  25.952  42.912   7.953
 6507POPC   C4B21574  25.913  42.870   7.653
 6508POPC   NC321575  20.578  29.189   9.453
 6508POPC   PO421576  20.570  29.154   9.153
 6508POPC   GL121577  20.637  29.148   8.853
 6508POPC   GL221578  20.497  29.173   8.853
 6508POPC   C1A21579  20.642  29.156   8.553
 6508POPC   D2A21580  20.646  29.169   8.253
 6508POPC   C3A21581  20.601  29.124   7.953
 6508POPC   C4A21582  20.618  29.170   7.653
 6508POPC   C1B21583  20.447  29.306   8.553
 6508POPC   C2B21584  20.395  29.277   8.253
 6508POPC   C3B21585  20.445  29.329   7.953
 6508POPC   C4B21586  20.448  29.254   7.653
 6509POPC   NC321587  19.101   8.154   9.453
 6509POPC   PO421588  19.044   8.201   9.153
 6509POPC   GL121589  19.024   8.164   8.853
 6509POPC   GL221590  19.022   8.352   8.853
 6509POPC   C1A21591  19.015   8.200   8.553
 6509POPC   D2A21592  19.065   8.212   8.253
 6509POPC   C3A21593  19.066   8.213   7.953
 6509POPC   C4A21594  19.047   8.235   7.653
 6509POPC   C1B21595  18.923   8.448   8.553
 6509POPC   C2B21596  19.000   8.457   8.253
 6509POPC   C3B21597  18.926   8.423   7.953
 6509POPC   C4B21598  18.906   8.438   7.653
 6510POPC   NC321599  36.095  22.922   9.453
 6510POPC   PO421600  36.081  22.983   9.153
 6510POPC   GL121601  36.136  22.932   8.853
 6510POPC   GL221602  36.093  23.035   8.853
 6510POPC   C1A21603  36.092  22.975   8.553
 6510POPC   D2A21604  36.175  22.986   8.253
 6510POPC   C3A21605  36.140  22.957   7.953
 6510POPC   C4A21606  36.152  22.892   7.653
 6510POPC   C1B21607  36.124  23.196   8.553
 6510POPC   C2B21608  36.142  23.157   8.253
 6510POPC   C3B21609  36.121  23.216   7.953
 6510POPC   C4B21610  36.153  23.175   7.653
 6511POPC   NC321611   1.985  34.571   9.453
 6511POPC   PO421612   2.018  34.552   9.153
 6511POPC   GL121613   2.018  34.550   8.853
 6511POPC   GL221614   2.088  34.718   8.853
 6511POPC   C1A21615   1.983  34.601   8.553
 6511POPC   D2A21616   2.003  34.577   8.253
 6511POPC   C3A21617   1.994  34.581   7.953
 6511POPC   C4A21618   1.951  34.569   7.653
 6511POPC   C1B21619   2.087  34.815   8.553
 6511POPC   C2B21620   2.091  34.766   8.253
 6511POPC   C3B21621   2.137  34.757   7.953
 6511POPC   C4B21622   2.163  34.765   7.653
 6512POPC   NC321623   1.946  33.761   9.453
 6512POPC   PO421624   1.973  33.824   9.153
 6512POPC   GL121625   1.986  33.797   8.853
 6512POPC   GL221626   1.927  33.706   8.853
 6512POPC   C1A21627   2.003  33.843   8.553
 6512POPC   D2A21628   2.012  33.805   8.253
 6512POPC   C3A21629   1.941  33.760   7.953
 6512POPC   C4A21630   1.986  33.827   7.653
 6512POPC   C1B21631   1.831  33.538   8.553
 6512POPC   C2B21632   1.868  33.572   8.253
 6512POPC   C3B21633   1.923  33.559   7.953
 6512POPC   C4B21634   1.845  33.608   7.653
 6513POPC   NC321635  40.035  43.882   9.453
 6513POPC   PO421636  40.046  43.900   9.153
 6513POPC   GL121637  39.996  43.887   8.853
 6513POPC   GL221638  39.971  43.959   8.853
 6513POPC   C1A21639  39.966  43.915   8.553
 6513POPC   D2A21640  40.046  43.935   8.253
 6513POPC   C3A21641  39.964  43.930   7.953
 6513POPC   C4A21642  40.011  43.903   7.653
 6513POPC   C1B21643  39.942  44.161   8.553
 6513POPC   C2B21644  39.957  44.137   8.253
 6513POPC   C3B21645  39.891  44.155   7.953
 6513POPC   C4B21646  39.929  44.121   7.653
 6514POPC   NC321647  15.985  26.009   9.453
 6514POPC   PO421648  15.970  26.036   9.153
 6514POPC   GL121649  15.959  26.035   8.853
 6514POPC   GL221650  15.876  25.918   8.853
 6514POPC   C1A21651  15.916  26.012   8.553
 6514POPC   D2A21652  15.911  26.020   8.253
 6514POPC   C3A21653  15.925  26.089   7.953
 6514POPC   C4A21654  15.973  26.017   7.653
 6514POPC   C1B21655  15.891  25.848   8.553
 6514POPC   C2B21656  15.920  25.789   8.253
 6514POPC   C3B21657  15.920  25.814   7.953
 6514POPC   C4B21658  15.925  25.812   7.653
 6515POPC   NC321659  35.317   5.847   9.453
 6515POPC   PO421660  35.388   5.829   9.153
 6515POPC   GL121661  35.369   5.837   8.853
 6515POPC   GL221662  35.433   5.788   8.853
 6515POPC   C1A21663  35.303   5.898   8.553
 6515POPC   D2A21664  35.374   5.819   8.253
 6515POPC   C3A21665  35.375   5.820   7.953
 6515POPC   C4A21666  35.326   5.832   7.653
 6515POPC   C1B21667  35.550   5.654   8.553
 6515POPC   C2B21668  35.523   5.660   8.253
 6515POPC   C3B21669  35.507   5.679   7.953
 6515POPC   C4B21670  35.530   5.712   7.653
 6516POPC   NC321671  43.901   5.120   9.453
 6516POPC   PO421672  43.869   5.044   9.153
 6516POPC   GL121673  43.891   5.063   8.853
 6516POPC   GL221674  43.963   5.026   8.853
 6516POPC   C1A21675  43.857   5.113   8.553
 6516POPC   D2A21676  43.840   5.126   8.253
 6516POPC   C3A21677  43.906   5.053   7.953
 6516POPC   C4A21678  43.871   5.105   7.653
 6516POPC   C1B21679  44.144   4.994   8.553
 6516POPC   C2B21680  44.047   5.006   8.253
 6516POPC   C3B21681  44.110   4.978   7.953
 6516POPC   C4B21682  44.106   4.955   7.653
 6517POPC   NC321683   2.730  25.272   9.453
 6517POPC   PO421684   2.797  25.248   9.153
 6517POPC   GL121685   2.751  25.217   8.853
 6517POPC   GL221686   2.821  25.151   8.853
 6517POPC   C1A21687   2.792  25.231   8.553
 6517POPC   D2A21688   2.802  25.237   8.253
 6517POPC   C3A21689   2.775  25.314   7.953
 6517POPC   C4A21690   2.723  25.306   7.653
 6517POPC   C1B21691   2.802  24.970   8.553
 6517POPC   C2B21692   2.809  24.986   8.253
 6517POPC   C3B21693   2.769  25.009   7.953
 6517POPC   C4B21694   2.777  25.000   7.653
 6518POPC   NC321695   9.739   5.899   9.453
 6518POPC   PO421696   9.719   5.876   9.153
 6518POPC   GL121697   9.737   5.857   8.853
 6518POPC   GL221698   9.646   5.894   8.853
 6518POPC   C1A21699   9.706   5.819   8.553
 6518POPC   D2A21700   9.743   5.900   8.253
 6518POPC   C3A21701   9.729   5.820   7.953
 6518POPC   C4A21702   9.727   5.914   7.653
 6518POPC   C1B21703   9.499   6.023   8.553
 6518POPC   C2B21704   9.537   5.979   8.253
 6518POPC   C3B21705   9.533   6.023   7.953
 6518POPC   C4B21706   9.510   6.000   7.653
 6519POPC   NC321707  12.101  26.865   9.453
 6519POPC   PO421708  12.059  26.772   9.153
 6519POPC   GL121709  12.110  26.768   8.853
 6519POPC   GL221710  11.996  26.830   8.853
 6519POPC   C1A21711  12.058  26.823   8.553
 6519POPC   D2A21712  12.086  26.782   8.253
 6519POPC   C3A21713  12.091  26.809   7.953
 6519POPC   C4A21714  12.089  26.840   7.653
 6519POPC   C1B21715  11.802  26.858   8.553
 6519POPC   C2B21716  11.873  26.869   8.253
 6519POPC   C3B21717  11.858  26.938   7.953
 6519POPC   C4B21718  11.832  26.920   7.653
 6520POPC   NC321719   3.550  41.516   9.453
 6520POPC   PO421720   3.545  41.564   9.153
 6520POPC   GL121721   3.582  41.523   8.853
 6520POPC   GL221722   3.652  41.634   8.853
 6520POPC   C1A21723   3.546  41.558   8.553
 6520POPC   D2A21724   3.554  41.558   8.253
 6520POPC   C3A21725   3.569  41.537   7.953
 6520POPC   C4A21726   3.515  41.592   7.653
 6520POPC   C1B21727   3.768  41.718   8.553
 6520POPC   C2B21728   3.717  41.654   8.253
 6520POPC   C3B21729   3.725  41.679   7.953
 6520POPC   C4B21730   3.749  41.665   7.653
 6521POPC   NC321731  40.010  30.734   9.453
 6521POPC   PO421732  40.041  30.679   9.153
 6521POPC   GL121733  39.987  30.702   8.853
 6521POPC   GL221734  40.059  30.810   8.853
 6521POPC   C1A21735  39.997  30.745   8.553
 6521POPC   D2A21736  39.974  30.689   8.253
 6521POPC   C3A21737  40.006  30.660   7.953
 6521POPC   C4A21738  39.987  30.692   7.653
 6521POPC   C1B21739  40.084  30.989   8.553
 6521POPC   C2B21740  40.039  30.917   8.253
 6521POPC   C3B21741  40.072  30.972   7.953
 6521POPC   C4B21742  40.090  30.957   7.653
 6522POPC   NC321743  17.460  40.828   9.453
 6522POPC   PO421744  17.489  40.770   9.153
 6522POPC   GL121745  17.462  40.803   8.853
 6522POPC   GL221746  17.574  40.875   8.853
 6522POPC   C1A21747  17.481  40.771   8.553
 6522POPC   D2A21748  17.550  40.750   8.253
 6522POPC   C3A21749  17.468  40.819   7.953
 6522POPC   C4A21750  17.504  40.774   7.653
 6522POPC   C1B21751  17.607  41.002   8.553
 6522POPC   C2B21752  17.645  41.039   8.253
 6522POPC   C3B21753  17.659  41.033   7.953
 6522POPC   C4B21754  17.676  41.000   7.653
 6523POPC   NC321755  13.648  19.091   9.453
 6523POPC   PO421756  13.646  19.037   9.153
 6523POPC   GL121757  13.649  19.019   8.853
 6523POPC   GL221758  13.625  19.173   8.853
 6523POPC   C1A21759  13.578  19.040   8.553
 6523POPC   D2A21760  13.652  19.065   8.253
 6523POPC   C3A21761  13.613  19.072   7.953
 6523POPC   C4A21762  13.665  19.015   7.653
 6523POPC   C1B21763  13.687  19.330   8.553
 6523POPC   C2B21764  13.748  19.278   8.253
 6523POPC   C3B21765  13.758  19.262   7.953
 6523POPC   C4B21766  13.689  19.315   7.653
 6524POPC   NC321767  43.103  35.326   9.453
 6524POPC   PO421768  43.082  35.356   9.153
 6524POPC   GL121769  43.093  35.303   8.853
 6524POPC   GL221770  43.090  35.426   8.853
 6524POPC   C1A21771  43.157  35.364   8.553
 6524POPC   D2A21772  43.105  35.378   8.253
 6524POPC   C3A21773  43.061  35.362   7.953
 6524POPC   C4A21774  43.139  35.368   7.653
 6524POPC   C1B21775  43.047  35.583   8.553
 6524POPC   C2B21776  43.040  35.625   8.253
 6524POPC   C3B21777  43.065  35.545   7.953
 6524POPC   C4B21778  43.013  35.621   7.653
 6525POPC   NC321779  31.493  29.879   9.453
 6525POPC   PO421780  31.460  29.961   9.153
 6525POPC   GL121781  31.463  29.935   8.853
 6525POPC   GL221782  31.443  29.989   8.853
 6525POPC   C1A21783  31.457  29.883   8.553
 6525POPC   D2A21784  31.442  29.882   8.253
 6525POPC   C3A21785  31.521  29.891   7.953
 6525POPC   C4A21786  31.449  29.970   7.653
 6525POPC   C1B21787  31.389  30.146   8.553
 6525POPC   C2B21788  31.353  30.145   8.253
 6525POPC   C3B21789  31.362  30.116   7.953
 6525POPC   C4B21790  31.326  30.154   7.653
 6526POPC   NC321791  43.096   4.317   9.453
 6526POPC   PO421792  43.117   4.356   9.153
 6526POPC   GL121793  43.113   4.291   8.853
 6526POPC   GL221794  43.183   4.388   8.853
 6526POPC   C1A21795  43.158   4.285   8.553
 6526POPC   D2A21796  43.094   4.359   8.253
 6526POPC   C3A21797  43.074   4.346   7.953
 6526POPC   C4A21798  43.158   4.317   7.653
 6526POPC   C1B21799  43.303   4.411   8.553
 6526POPC   C2B21800  43.372   4.465   8.253
 6526POPC   C3B21801  43.358   4.460   7.953
 6526POPC   C4B21802  43.355   4.402   7.653
 6527POPC   NC321803   1.240   9.713   9.453
 6527POPC   PO421804   1.218   9.711   9.153
 6527POPC   GL121805   1.219   9.758   8.853
 6527POPC   GL221806   1.292   9.769   8.853
 6527POPC   C1A21807   1.214   9.745   8.553
 6527POPC   D2A21808   1.226   9.716   8.253
 6527POPC   C3A21809   1.248   9.779   7.953
 6527POPC   C4A21810   1.229   9.748   7.653
 6527POPC   C1B21811   1.494   9.785   8.553
 6527POPC   C2B21812   1.434   9.733   8.253
 6527POPC   C3B21813   1.431   9.723   7.953
 6527POPC   C4B21814   1.488   9.786   7.653
 6528POPC   NC321815  11.322   4.358   9.453
 6528POPC   PO421816  11.348   4.358   9.153
 6528POPC   GL121817  11.331   4.354   8.853
 6528POPC   GL221818  11.344   4.469   8.853
 6528POPC   C1A21819  11.334   4.349   8.553
 6528POPC   D2A21820  11.328   4.303   8.253
 6528POPC   C3A21821  11.274   4.299   7.953
 6528POPC   C4A21822  11.340   4.322   7.653
 6528POPC   C1B21823  11.323   4.586   8.553
 6528POPC   C2B21824  11.366   4.563   8.253
 6528POPC   C3B21825  11.325   4.526   7.953
 6528POPC   C4B21826  11.340   4.555   7.653
 6529POPC   NC321827  40.025   4.314   9.453
 6529POPC   PO421828  39.997   4.315   9.153
 6529POPC   GL121829  40.003   4.332   8.853
 6529POPC   GL221830  40.033   4.208   8.853
 6529POPC   C1A21831  40.032   4.306   8.553
 6529POPC   D2A21832  40.043   4.342   8.253
 6529POPC   C3A21833  40.052   4.348   7.953
 6529POPC   C4A21834  40.029   4.310   7.653
 6529POPC   C1B21835  40.156   4.108   8.553
 6529POPC   C2B21836  40.191   4.111   8.253
 6529POPC   C3B21837  40.185   4.062   7.953
 6529POPC   C4B21838  40.121   4.123   7.653
 6530POPC   NC321839  34.608   6.642   9.453
 6530POPC   PO421840  34.598   6.627   9.153
 6530POPC   GL121841  34.550   6.629   8.853
 6530POPC   GL221842  34.687   6.719   8.853
 6530POPC   C1A21843  34.576   6.686   8.553
 6530POPC   D2A21844  34.586   6.660   8.253
 6530POPC   C3A21845  34.534   6.625   7.953
 6530POPC   C4A21846  34.615   6.652   7.653
 6530POPC   C1B21847  34.671   6.847   8.553
 6530POPC   C2B21848  34.656   6.882   8.253
 6530POPC   C3B21849  34.754   6.822   7.953
 6530POPC   C4B21850  34.745   6.874   7.653
 6531POPC   NC321851   3.531  22.136   9.453
 6531POPC   PO421852   3.498  22.168   9.153
 6531POPC   GL121853   3.495  22.114   8.853
 6531POPC   GL221854   3.657  22.155   8.853
 6531POPC   C1A21855   3.509  22.128   8.553
 6531POPC   D2A21856   3.508  22.135   8.253
 6531POPC   C3A21857   3.510  22.118   7.953
 6531POPC   C4A21858   3.556  22.186   7.653
 6531POPC   C1B21859   3.774  22.098   8.553
 6531POPC   C2B21860   3.787  22.036   8.253
 6531POPC   C3B21861   3.741  22.108   7.953
 6531POPC   C4B21862   3.750  22.030   7.653
 6532POPC   NC321863  16.712  36.906   9.453
 6532POPC   PO421864  16.714  36.855   9.153
 6532POPC   GL121865  16.780  36.883   8.853
 6532POPC   GL221866  16.849  36.801   8.853
 6532POPC   C1A21867  16.746  36.952   8.553
 6532POPC   D2A21868  16.764  36.916   8.253
 6532POPC   C3A21869  16.706  36.902   7.953
 6532POPC   C4A21870  16.750  36.922   7.653
 6532POPC   C1B21871  16.873  36.705   8.553
 6532POPC   C2B21872  16.911  36.746   8.253
 6532POPC   C3B21873  16.918  36.741   7.953
 6532POPC   C4B21874  16.840  36.711   7.653
 6533POPC   NC321875   7.407   8.971   9.453
 6533POPC   PO421876   7.448   8.947   9.153
 6533POPC   GL121877   7.422   9.021   8.853
 6533POPC   GL221878   7.451   9.059   8.853
 6533POPC   C1A21879   7.438   9.020   8.553
 6533POPC   D2A21880   7.466   8.994   8.253
 6533POPC   C3A21881   7.419   8.997   7.953
 6533POPC   C4A21882   7.376   8.931   7.653
 6533POPC   C1B21883   7.418   9.197   8.553
 6533POPC   C2B21884   7.429   9.269   8.253
 6533POPC   C3B21885   7.408   9.257   7.953
 6533POPC   C4B21886   7.437   9.258   7.653
 6534POPC   NC321887  38.484  38.499   9.453
 6534POPC   PO421888  38.474  38.417   9.153
 6534POPC   GL121889  38.474  38.465   8.853
 6534POPC   GL221890  38.428  38.336   8.853
 6534POPC   C1A21891  38.412  38.446   8.553
 6534POPC   D2A21892  38.474  38.478   8.253
 6534POPC   C3A21893  38.454  38.420   7.953
 6534POPC   C4A21894  38.437  38.452   7.653
 6534POPC   C1B21895  38.378  38.220   8.553
 6534POPC   C2B21896  38.362  38.274   8.253
 6534POPC   C3B21897  38.334  38.184   7.953
 6534POPC   C4B21898  38.320  38.181   7.653
 6535POPC   NC321899  28.392  11.266   9.453
 6535POPC   PO421900  28.344  11.261   9.153
 6535POPC   GL121901  28.384  11.312   8.853
 6535POPC   GL221902  28.265  11.360   8.853
 6535POPC   C1A21903  28.395  11.265   8.553
 6535POPC   D2A21904  28.325  11.290   8.253
 6535POPC   C3A21905  28.413  11.332   7.953
 6535POPC   C4A21906  28.382  11.285   7.653
 6535POPC   C1B21907  28.113  11.363   8.553
 6535POPC   C2B21908  28.092  11.378   8.253
 6535POPC   C3B21909  28.137  11.370   7.953
 6535POPC   C4B21910  28.177  11.411   7.653
 6536POPC   NC321911  33.024  13.581   9.453
 6536POPC   PO421912  32.976  13.619   9.153
 6536POPC   GL121913  32.975  13.655   8.853
 6536POPC   GL221914  33.118  13.590   8.853
 6536POPC   C1A21915  33.062  13.635   8.553
 6536POPC   D2A21916  33.063  13.658   8.253
 6536POPC   C3A21917  32.974  13.672   7.953
 6536POPC   C4A21918  33.063  13.595   7.653
 6536POPC   C1B21919  33.167  13.507   8.553
 6536POPC   C2B21920  33.247  13.469   8.253
 6536POPC   C3B21921  33.163  13.498   7.953
 6536POPC   C4B21922  33.209  13.497   7.653
 6537POPC   NC321923   8.928   8.987   9.453
 6537POPC   PO421924   8.975   8.972   9.153
 6537POPC   GL121925   9.019   8.958   8.853
 6537POPC   GL221926   8.980   8.859   8.853
 6537POPC   C1A21927   9.017   8.965   8.553
 6537POPC   D2A21928   9.003   8.962   8.253
 6537POPC   C3A21929   8.984   8.959   7.953
 6537POPC   C4A21930   8.948   8.979   7.653
 6537POPC   C1B21931   8.997   8.745   8.553
 6537POPC   C2B21932   8.981   8.698   8.253
 6537POPC   C3B21933   9.048   8.772   7.953
 6537POPC   C4B21934   9.017   8.753   7.653
 6538POPC   NC321935  28.352   1.242   9.453
 6538POPC   PO421936  28.369   1.217   9.153
 6538POPC   GL121937  28.348   1.178   8.853
 6538POPC   GL221938  28.351   1.306   8.853
 6538POPC   C1A21939  28.416   1.244   8.553
 6538POPC   D2A21940  28.366   1.207   8.253
 6538POPC   C3A21941  28.323   1.205   7.953
 6538POPC   C4A21942  28.416   1.236   7.653
 6538POPC   C1B21943  28.239   1.438   8.553
 6538POPC   C2B21944  28.246   1.439   8.253
 6538POPC   C3B21945  28.281   1.413   7.953
 6538POPC   C4B21946  28.241   1.457   7.653
 6539POPC   NC321947  19.039  39.276   9.453
 6539POPC   PO421948  19.013  39.199   9.153
 6539POPC   GL121949  19.018  39.268   8.853
 6539POPC   GL221950  18.972  39.303   8.853
 6539POPC   C1A21951  19.106  39.241   8.553
 6539POPC   D2A21952  19.024  39.185   8.253
 6539POPC   C3A21953  19.029  39.226   7.953
 6539POPC   C4A21954  19.054  39.194   7.653
 6539POPC   C1B21955  18.870  39.347   8.553
 6539POPC   C2B21956  18.866  39.384   8.253
 6539POPC   C3B21957  18.859  39.352   7.953
 6539POPC   C4B21958  18.890  39.323   7.653
 6540POPC   NC321959  43.076   3.533   9.453
 6540POPC   PO421960  43.141   3.516   9.153
 6540POPC   GL121961  43.108   3.507   8.853
 6540POPC   GL221962  43.008   3.461   8.853
 6540POPC   C1A21963  43.106   3.564   8.553
 6540POPC   D2A21964  43.132   3.570   8.253
 6540POPC   C3A21965  43.106   3.575   7.953
 6540POPC   C4A21966  43.141   3.591   7.653
 6540POPC   C1B21967  42.838   3.381   8.553
 6540POPC   C2B21968  42.863   3.392   8.253
 6540POPC   C3B21969  42.934   3.388   7.953
 6540POPC   C4B21970  42.895   3.391   7.653
 6541POPC   NC321971  29.931  27.612   9.453
 6541POPC   PO421972  29.879  27.584   9.153
 6541POPC   GL121973  29.901  27.640   8.853
 6541POPC   GL221974  29.845  27.608   8.853
 6541POPC   C1A21975  29.938  27.603   8.553
 6541POPC   D2A21976  29.950  27.634   8.253
 6541POPC   C3A21977  29.885  27.631   7.953
 6541POPC   C4A21978  29.921  27.570   7.653
 6541POPC   C1B21979  29.679  27.550   8.553
 6541POPC   C2B21980  29.630  27.564   8.253
 6541POPC   C3B21981  29.696  27.554   7.953
 6541POPC   C4B21982  29.675  27.544   7.653
 6542POPC   NC321983  16.745   0.478   9.453
 6542POPC   PO421984  16.727   0.441   9.153
 6542POPC   GL121985  16.774   0.466   8.853
 6542POPC   GL221986  16.822   0.321   8.853
 6542POPC   C1A21987  16.694   0.450   8.553
 6542POPC   D2A21988  16.696   0.477   8.253
 6542POPC   C3A21989  16.686   0.418   7.953
 6542POPC   C4A21990  16.711   0.464   7.653
 6542POPC   C1B21991  16.815   0.241   8.553
 6542POPC   C2B21992  16.884   0.267   8.253
 6542POPC   C3B21993  16.869   0.179   7.953
 6542POPC   C4B21994  16.805   0.177   7.653
 6543POPC   NC321995   8.165  27.592   9.453
 6543POPC   PO421996   8.221  27.594   9.153
 6543POPC   GL121997   8.187  27.598   8.853
 6543POPC   GL221998   8.282  27.647   8.853
 6543POPC   C1A21999   8.212  27.626   8.553
 6543POPC   D2A22000   8.178  27.600   8.253
 6543POPC   C3A22001   8.215  27.568   7.953
 6543POPC   C4A22002   8.156  27.563   7.653
 6543POPC   C1B22003   8.305  27.829   8.553
 6543POPC   C2B22004   8.361  27.812   8.253
 6543POPC   C3B22005   8.353  27.824   7.953
 6543POPC   C4B22006   8.322  27.745   7.653
 6544POPC   NC322007  36.159  34.526   9.453
 6544POPC   PO422008  36.120  34.553   9.153
 6544POPC   GL122009  36.113  34.540   8.853
 6544POPC   GL222010  36.034  34.568   8.853
 6544POPC   C1A22011  36.092  34.623   8.553
 6544POPC   D2A22012  36.117  34.539   8.253
 6544POPC   C3A22013  36.169  34.539   7.953
 6544POPC   C4A22014  36.173  34.556   7.653
 6544POPC   C1B22015  35.894  34.685   8.553
 6544POPC   C2B22016  35.880  34.699   8.253
 6544POPC   C3B22017  35.916  34.660   7.953
 6544POPC   C4B22018  35.900  34.638   7.653
 6545POPC   NC322019  33.768  34.542   9.453
 6545POPC   PO422020  33.774  34.574   9.153
 6545POPC   GL122021  33.785  34.610   8.853
 6545POPC   GL222022  33.804  34.654   8.853
 6545POPC   C1A22023  33.838  34.621   8.553
 6545POPC   D2A22024  33.801  34.556   8.253
 6545POPC   C3A22025  33.799  34.528   7.953
 6545POPC   C4A22026  33.755  34.616   7.653
 6545POPC   C1B22027  33.794  34.778   8.553
 6545POPC   C2B22028  33.835  34.862   8.253
 6545POPC   C3B22029  33.813  34.792   7.953
 6545POPC   C4B22030  33.773  34.842   7.653
 6546POPC   NC322031  19.065   4.276   9.453
 6546POPC   PO422032  19.106   4.292   9.153
 6546POPC   GL122033  19.031   4.294   8.853
 6546POPC   GL222034  19.122   4.265   8.853
 6546POPC   C1A22035  19.089   4.338   8.553
 6546POPC   D2A22036  19.045   4.316   8.253
 6546POPC   C3A22037  19.058   4.278   7.953
 6546POPC   C4A22038  19.049   4.325   7.653
 6546POPC   C1B22039  19.238   4.113   8.553
 6546POPC   C2B22040  19.275   4.106   8.253
 6546POPC   C3B22041  19.263   4.134   7.953
 6546POPC   C4B22042  19.251   4.149   7.653
 6547POPC   NC322043  42.383  10.546   9.453
 6547POPC   PO422044  42.317  10.524   9.153
 6547POPC   GL122045  42.356  10.526   8.853
 6547POPC   GL222046  42.238  10.428   8.853
 6547POPC   C1A22047  42.351  10.551   8.553
 6547POPC   D2A22048  42.293  10.483   8.253
 6547POPC   C3A22049  42.311  10.564   7.953
 6547POPC   C4A22050  42.356  10.559   7.653
 6547POPC   C1B22051  42.130  10.328   8.553
 6547POPC   C2B22052  42.141  10.410   8.253
 6547POPC   C3B22053  42.148  10.399   7.953
 6547POPC   C4B22054  42.132  10.323   7.653
 6548POPC   NC322055  29.138  15.973   9.453
 6548POPC   PO422056  29.136  15.950   9.153
 6548POPC   GL122057  29.194  15.953   8.853
 6548POPC   GL222058  29.195  16.084   8.853
 6548POPC   C1A22059  29.161  15.968   8.553
 6548POPC   D2A22060  29.103  15.972   8.253
 6548POPC   C3A22061  29.119  15.950   7.953
 6548POPC   C4A22062  29.147  15.985   7.653
 6548POPC   C1B22063  29.146  16.242   8.553
 6548POPC   C2B22064  29.172  16.236   8.253
 6548POPC   C3B22065  29.226  16.169   7.953
 6548POPC   C4B22066  29.226  16.178   7.653
 6549POPC   NC322067  43.156  13.603   9.453
 6549POPC   PO422068  43.144  13.667   9.153
 6549POPC   GL122069  43.101  13.668   8.853
 6549POPC   GL222070  42.977  13.547   8.853
 6549POPC   C1A22071  43.072  13.659   8.553
 6549POPC   D2A22072  43.110  13.636   8.253
 6549POPC   C3A22073  43.085  13.670   7.953
 6549POPC   C4A22074  43.075  13.653   7.653
 6549POPC   C1B22075  42.914  13.575   8.553
 6549POPC   C2B22076  42.889  13.558   8.253
 6549POPC   C3B22077  42.833  13.551   7.953
 6549POPC   C4B22078  42.909  13.594   7.653
 6550POPC   NC322079  31.427   8.213   9.453
 6550POPC   PO422080  31.436   8.184   9.153
 6550POPC   GL122081  31.451   8.234   8.853
 6550POPC   GL222082  31.567   8.206   8.853
 6550POPC   C1A22083  31.479   8.219   8.553
 6550POPC   D2A22084  31.511   8.243   8.253
 6550POPC   C3A22085  31.479   8.240   7.953
 6550POPC   C4A22086  31.460   8.152   7.653
 6550POPC   C1B22087  31.764   8.183   8.553
 6550POPC   C2B22088  31.674   8.198   8.253
 6550POPC   C3B22089  31.728   8.234   7.953
 6550POPC   C4B22090  31.744   8.166   7.653
 6551POPC   NC322091   2.027  19.835   9.453
 6551POPC   PO422092   1.996  19.815   9.153
 6551POPC   GL122093   1.984  19.851   8.853
 6551POPC   GL222094   1.981  19.944   8.853
 6551POPC   C1A22095   2.025  19.816   8.553
 6551POPC   D2A22096   2.029  19.861   8.253
 6551POPC   C3A22097   2.024  19.866   7.953
 6551POPC   C4A22098   2.034  19.874   7.653
 6551POPC   C1B22099   1.932  20.073   8.553
 6551POPC   C2B22100   1.927  20.112   8.253
 6551POPC   C3B22101   1.979  20.126   7.953
 6551POPC   C4B22102   1.910  20.068   7.653
 6552POPC   NC322103  42.352   7.391   9.453
 6552POPC   PO422104  42.323   7.411   9.153
 6552POPC   GL122105  42.332   7.450   8.853
 6552POPC   GL222106  42.500   7.457   8.853
 6552POPC   C1A22107  42.299   7.417   8.553
 6552POPC   D2A22108  42.363   7.378   8.253
 6552POPC   C3A22109  42.312   7.416   7.953
 6552POPC   C4A22110  42.342   7.430   7.653
 6552POPC   C1B22111  42.549   7.491   8.553
 6552POPC   C2B22112  42.582   7.524   8.253
 6552POPC   C3B22113  42.562   7.542   7.953
 6552POPC   C4B22114  42.589   7.551   7.653
 6553POPC   NC322115  24.442  20.621   9.453
 6553POPC   PO422116  24.462  20.628   9.153
 6553POPC   GL122117  24.445  20.580   8.853
 6553POPC   GL222118  24.581  20.595   8.853
 6553POPC   C1A22119  24.488  20.657   8.553
 6553POPC   D2A22120  24.465  20.565   8.253
 6553POPC   C3A22121  24.471  20.616   7.953
 6553POPC   C4A22122  24.524  20.659   7.653
 6553POPC   C1B22123  24.697  20.611   8.553
 6553POPC   C2B22124  24.782  20.602   8.253
 6553POPC   C3B22125  24.728  20.580   7.953
 6553POPC   C4B22126  24.720  20.641   7.653
 6554POPC   NC322127  11.291  44.645   9.453
 6554POPC   PO422128  11.321  44.621   9.153
 6554POPC   GL122129  11.305  44.661   8.853
 6554POPC   GL222130  11.288  44.532   8.853
 6554POPC   C1A22131  11.350  44.689   8.553
 6554POPC   D2A22132  11.285  44.691   8.253
 6554POPC   C3A22133  11.330  44.703   7.953
 6554POPC   C4A22134  11.335  44.679   7.653
 6554POPC   C1B22135  11.411  44.380   8.553
 6554POPC   C2B22136  11.346  44.458   8.253
 6554POPC   C3B22137  11.363  44.452   7.953
 6554POPC   C4B22138  11.373  44.472   7.653
 6555POPC   NC322139  38.444  37.725   9.453
 6555POPC   PO422140  38.492  37.660   9.153
 6555POPC   GL122141  38.423  37.630   8.853
 6555POPC   GL222142  38.309  37.659   8.853
 6555POPC   C1A22143  38.477  37.634   8.553
 6555POPC   D2A22144  38.467  37.666   8.253
 6555POPC   C3A22145  38.466  37.701   7.953
 6555POPC   C4A22146  38.417  37.719   7.653
 6555POPC   C1B22147  38.187  37.587   8.553
 6555POPC   C2B22148  38.231  37.533   8.253
 6555POPC   C3B22149  38.226  37.530   7.953
 6555POPC   C4B22150  38.271  37.523   7.653
 6556POPC   NC322151  44.696  13.606   9.453
 6556POPC   PO422152  44.645  13.602   9.153
 6556POPC   GL122153  44.629  13.658   8.853
 6556POPC   GL222154  44.617  13.720   8.853
 6556POPC   C1A22155  44.631  13.663   8.553
 6556POPC   D2A22156  44.665  13.634   8.253
 6556POPC   C3A22157  44.680  13.594   7.953
 6556POPC   C4A22158  44.678  13.665   7.653
 6556POPC   C1B22159  44.587  13.819   8.553
 6556POPC   C2B22160  44.526  13.862   8.253
 6556POPC   C3B22161  44.563  13.889   7.953
 6556POPC   C4B22162  44.534  13.837   7.653
 6557POPC   NC322163   7.374   1.191   9.453
 6557POPC   PO422164   7.384   1.165   9.153
 6557POPC   GL122165   7.395   1.168   8.853
 6557POPC   GL222166   7.312   1.191   8.853
 6557POPC   C1A22167   7.376   1.191   8.553
 6557POPC   D2A22168   7.463   1.170   8.253
 6557POPC   C3A22169   7.385   1.225   7.953
 6557POPC   C4A22170   7.427   1.181   7.653
 6557POPC   C1B22171   7.203   1.144   8.553
 6557POPC   C2B22172   7.196   1.143   8.253
 6557POPC   C3B22173   7.135   1.135   7.953
 6557POPC   C4B22174   7.151   1.143   7.653
 6558POPC   NC322175  19.861  30.712   9.453
 6558POPC   PO422176  19.838  30.709   9.153
 6558POPC   GL122177  19.817  30.660   8.853
 6558POPC   GL222178  19.682  30.685   8.853
 6558POPC   C1A22179  19.791  30.713   8.553
 6558POPC   D2A22180  19.800  30.657   8.253
 6558POPC   C3A22181  19.865  30.697   7.953
 6558POPC   C4A22182  19.878  30.652   7.653
 6558POPC   C1B22183  19.590  30.686   8.553
 6558POPC   C2B22184  19.631  30.753   8.253
 6558POPC   C3B22185  19.552  30.701   7.953
 6558POPC   C4B22186  19.575  30.660   7.653
 6559POPC   NC322187   4.357  35.394   9.453
 6559POPC   PO422188   4.309  35.351   9.153
 6559POPC   GL122189   4.309  35.326   8.853
 6559POPC   GL222190   4.366  35.275   8.853
 6559POPC   C1A22191   4.365  35.312   8.553
 6559POPC   D2A22192   4.334  35.400   8.253
 6559POPC   C3A22193   4.340  35.382   7.953
 6559POPC   C4A22194   4.271  35.324   7.653
 6559POPC   C1B22195   4.398  35.165   8.553
 6559POPC   C2B22196   4.354  35.101   8.253
 6559POPC   C3B22197   4.399  35.161   7.953
 6559POPC   C4B22198   4.378  35.113   7.653
 6560POPC   NC322199  43.871  22.952   9.453
 6560POPC   PO422200  43.900  22.966   9.153
 6560POPC   GL122201  43.908  22.896   8.853
 6560POPC   GL222202  43.746  22.876   8.853
 6560POPC   C1A22203  43.863  22.927   8.553
 6560POPC   D2A22204  43.842  22.918   8.253
 6560POPC   C3A22205  43.862  22.944   7.953
 6560POPC   C4A22206  43.881  22.917   7.653
 6560POPC   C1B22207  43.714  22.747   8.553
 6560POPC   C2B22208  43.725  22.775   8.253
 6560POPC   C3B22209  43.692  22.746   7.953
 6560POPC   C4B22210  43.737  22.792   7.653
 6561POPC   NC322211   9.721  33.847   9.453
 6561POPC   PO422212   9.776  33.791   9.153
 6561POPC   GL122213   9.775  33.819   8.853
 6561POPC   GL222214   9.917  33.806   8.853
 6561POPC   C1A22215   9.795  33.787   8.553
 6561POPC   D2A22216   9.701  33.835   8.253
 6561POPC   C3A22217   9.757  33.789   7.953
 6561POPC   C4A22218   9.744  33.759   7.653
 6561POPC   C1B22219   9.976  33.798   8.553
 6561POPC   C2B22220   9.955  33.758   8.253
 6561POPC   C3B22221  10.000  33.758   7.953
 6561POPC   C4B22222   9.958  33.744   7.653
 6562POPC   NC322223   2.719  42.316   9.453
 6562POPC   PO422224   2.733  42.319   9.153
 6562POPC   GL122225   2.746  42.353   8.853
 6562POPC   GL222226   2.640  42.211   8.853
 6562POPC   C1A22227   2.775  42.347   8.553
 6562POPC   D2A22228   2.735  42.345   8.253
 6562POPC   C3A22229   2.815  42.357   7.953
 6562POPC   C4A22230   2.808  42.307   7.653
 6562POPC   C1B22231   2.638  42.146   8.553
 6562POPC   C2B22232   2.589  42.168   8.253
 6562POPC   C3B22233   2.565  42.108   7.953
 6562POPC   C4B22234   2.623  42.151   7.653
 6563POPC   NC322235   1.249   3.529   9.453
 6563POPC   PO422236   1.206   3.529   9.153
 6563POPC   GL122237   1.169   3.505   8.853
 6563POPC   GL222238   1.202   3.368   8.853
 6563POPC   C1A22239   1.223   3.573   8.553
 6563POPC   D2A22240   1.223   3.571   8.253
 6563POPC   C3A22241   1.217   3.554   7.953
 6563POPC   C4A22242   1.235   3.553   7.653
 6563POPC   C1B22243   1.137   3.273   8.553
 6563POPC   C2B22244   1.132   3.290   8.253
 6563POPC   C3B22245   1.204   3.284   7.953
 6563POPC   C4B22246   1.167   3.267   7.653
 6564POPC   NC322247  27.619  18.260   9.453
 6564POPC   PO422248  27.557  18.313   9.153
 6564POPC   GL122249  27.598  18.254   8.853
 6564POPC   GL222250  27.584  18.449   8.853
 6564POPC   C1A22251  27.622  18.279   8.553
 6564POPC   D2A22252  27.590  18.237   8.253
 6564POPC   C3A22253  27.547  18.245   7.953
 6564POPC   C4A22254  27.560  18.300   7.653
 6564POPC   C1B22255  27.716  18.523   8.553
 6564POPC   C2B22256  27.716  18.523   8.253
 6564POPC   C3B22257  27.671  18.531   7.953
 6564POPC   C4B22258  27.710  18.530   7.653
 6565POPC   NC322259   1.178  13.634   9.453
 6565POPC   PO422260   1.165  13.623   9.153
 6565POPC   GL122261   1.257  13.665   8.853
 6565POPC   GL222262   1.099  13.667   8.853
 6565POPC   C1A22263   1.206  13.589   8.553
 6565POPC   D2A22264   1.251  13.654   8.253
 6565POPC   C3A22265   1.241  13.585   7.953
 6565POPC   C4A22266   1.206  13.615   7.653
 6565POPC   C1B22267   0.997  13.658   8.553
 6565POPC   C2B22268   0.921  13.645   8.253
 6565POPC   C3B22269   1.007  13.612   7.953
 6565POPC   C4B22270   0.972  13.612   7.653
 6566POPC   NC322271   8.995  22.210   9.453
 6566POPC   PO422272   9.018  22.183   9.153
 6566POPC   GL122273   8.997  22.124   8.853
 6566POPC   GL222274   8.937  22.007   8.853
 6566POPC   C1A22275   8.969  22.193   8.553
 6566POPC   D2A22276   8.997  22.188   8.253
 6566POPC   C3A22277   8.922  22.117   7.953
 6566POPC   C4A22278   8.976  22.197   7.653
 6566POPC   C1B22279   8.864  21.888   8.553
 6566POPC   C2B22280   8.890  21.886   8.253
 6566POPC   C3B22281   8.890  21.938   7.953
 6566POPC   C4B22282   8.935  21.881   7.653
 6567POPC   NC322283  40.037   5.066   9.453
 6567POPC   PO422284  39.999   5.135   9.153
 6567POPC   GL122285  40.012   5.079   8.853
 6567POPC   GL222286  40.009   5.011   8.853
 6567POPC   C1A22287  40.010   5.073   8.553
 6567POPC   D2A22288  39.963   5.087   8.253
 6567POPC   C3A22289  40.000   5.115   7.953
 6567POPC   C4A22290  40.020   5.103   7.653
 6567POPC   C1B22291  40.117   4.900   8.553
 6567POPC   C2B22292  40.084   4.884   8.253
 6567POPC   C3B22293  40.069   4.874   7.953
 6567POPC   C4B22294  40.128   4.853   7.653
 6568POPC   NC322295  19.022  32.283   9.453
 6568POPC   PO422296  19.068  32.246   9.153
 6568POPC   GL122297  19.092  32.233   8.853
 6568POPC   GL222298  18.933  32.318   8.853
 6568POPC   C1A22299  19.011  32.276   8.553
 6568POPC   D2A22300  19.016  32.289   8.253
 6568POPC   C3A22301  19.103  32.265   7.953
 6568POPC   C4A22302  19.027  32.270   7.653
 6568POPC   C1B22303  18.836  32.331   8.553
 6568POPC   C2B22304  18.847  32.263   8.253
 6568POPC   C3B22305  18.763  32.266   7.953
 6568POPC   C4B22306  18.809  32.259   7.653
 6569POPC   NC322307  15.168   6.690   9.453
 6569POPC   PO422308  15.169   6.596   9.153
 6569POPC   GL122309  15.223   6.643   8.853
 6569POPC   GL222310  15.252   6.644   8.853
 6569POPC   C1A22311  15.142   6.624   8.553
 6569POPC   D2A22312  15.203   6.658   8.253
 6569POPC   C3A22313  15.220   6.608   7.953
 6569POPC   C4A22314  15.155   6.678   7.653
 6569POPC   C1B22315  15.458   6.567   8.553
 6569POPC   C2B22316  15.425   6.620   8.253
 6569POPC   C3B22317  15.470   6.598   7.953
 6569POPC   C4B22318  15.438   6.621   7.653
 6570POPC   NC322319  30.717  44.696   9.453
 6570POPC   PO422320  30.655  44.642   9.153
 6570POPC   GL122321  30.701  44.612   8.853
 6570POPC   GL222322  30.742  44.786   8.853
 6570POPC   C1A22323  30.659  44.666   8.553
 6570POPC   D2A22324  30.668  44.621   8.253
 6570POPC   C3A22325  30.731  44.707   7.953
 6570POPC   C4A22326  30.654  44.650   7.653
 6570POPC   C1B22327  30.790  44.839   8.553
 6570POPC   C2B22328  30.824  44.888   8.253
 6570POPC   C3B22329  30.783  44.880   7.953
 6570POPC   C4B22330  30.857  44.862   7.653
 6571POPC   NC322331   2.020  41.524   9.453
 6571POPC   PO422332   2.015  41.561   9.153
 6571POPC   GL122333   1.987  41.606   8.853
 6571POPC   GL222334   1.909  41.417   8.853
 6571POPC   C1A22335   2.017  41.604   8.553
 6571POPC   D2A22336   1.960  41.565   8.253
 6571POPC   C3A22337   2.003  41.516   7.953
 6571POPC   C4A22338   1.975  41.540   7.653
 6571POPC   C1B22339   1.950  41.291   8.553
 6571POPC   C2B22340   1.903  41.321   8.253
 6571POPC   C3B22341   1.857  41.310   7.953
 6571POPC   C4B22342   1.868  41.361   7.653
 6572POPC   NC322343  13.639  27.567   9.453
 6572POPC   PO422344  13.597  27.552   9.153
 6572POPC   GL122345  13.641  27.567   8.853
 6572POPC   GL222346  13.718  27.689   8.853
 6572POPC   C1A22347  13.652  27.568   8.553
 6572POPC   D2A22348  13.661  27.606   8.253
 6572POPC   C3A22349  13.628  27.589   7.953
 6572POPC   C4A22350  13.581  27.583   7.653
 6572POPC   C1B22351  13.841  27.729   8.553
 6572POPC   C2B22352  13.865  27.718   8.253
 6572POPC   C3B22353  13.867  27.761   7.953
 6572POPC   C4B22354  13.838  27.715   7.653
 6573POPC   NC322355  29.184   5.070   9.453
 6573POPC   PO422356  29.130   5.073   9.153
 6573POPC   GL122357  29.168   5.105   8.853
 6573POPC   GL222358  29.110   4.943   8.853
 6573POPC   C1A22359  29.185   5.134   8.553
 6573POPC   D2A22360  29.124   5.124   8.253
 6573POPC   C3A22361  29.188   5.133   7.953
 6573POPC   C4A22362  29.164   5.137   7.653
 6573POPC   C1B22363  29.095   4.844   8.553
 6573POPC   C2B22364  29.056   4.881   8.253
 6573POPC   C3B22365  29.027   4.820   7.953
 6573POPC   C4B22366  29.114   4.886   7.653
 6574POPC   NC322367  39.990  31.492   9.453
 6574POPC   PO422368  39.974  31.497   9.153
 6574POPC   GL122369  40.017  31.453   8.853
 6574POPC   GL222370  39.916  31.621   8.853
 6574POPC   C1A22371  40.039  31.511   8.553
 6574POPC   D2A22372  40.041  31.439   8.253
 6574POPC   C3A22373  40.009  31.444   7.953
 6574POPC   C4A22374  40.028  31.487   7.653
 6574POPC   C1B22375  39.832  31.724   8.553
 6574POPC   C2B22376  39.853  31.688   8.253
 6574POPC   C3B22377  39.858  31.731   7.953
 6574POPC   C4B22378  39.912  31.647   7.653
 6575POPC   NC322379  39.974  42.365   9.453
 6575POPC   PO422380  39.976  42.313   9.153
 6575POPC   GL122381  40.008  42.322   8.853
 6575POPC   GL222382  40.174  42.336   8.853
 6575POPC   C1A22383  40.030  42.378   8.553
 6575POPC   D2A22384  40.026  42.340   8.253
 6575POPC   C3A22385  40.006  42.362   7.953
 6575POPC   C4A22386  39.984  42.366   7.653
 6575POPC   C1B22387  40.246  42.281   8.553
 6575POPC   C2B22388  40.272  42.325   8.253
 6575POPC   C3B22389  40.239  42.342   7.953
 6575POPC   C4B22390  40.299  42.286   7.653
 6576POPC   NC322391  29.931   0.427   9.453
 6576POPC   PO422392  29.885   0.471   9.153
 6576POPC   GL122393  29.917   0.466   8.853
 6576POPC   GL222394  29.906   0.534   8.853
 6576POPC   C1A22395  29.909   0.428   8.553
 6576POPC   D2A22396  29.914   0.424   8.253
 6576POPC   C3A22397  29.927   0.454   7.953
 6576POPC   C4A22398  29.926   0.458   7.653
 6576POPC   C1B22399  29.972   0.732   8.553
 6576POPC   C2B22400  29.972   0.688   8.253
 6576POPC   C3B22401  29.999   0.698   7.953
 6576POPC   C4B22402  30.007   0.647   7.653
 6577POPC   NC322403  26.009  17.482   9.453
 6577POPC   PO422404  26.080  17.518   9.153
 6577POPC   GL122405  26.064  17.501   8.853
 6577POPC   GL222406  25.924  17.598   8.853
 6577POPC   C1A22407  26.084  17.545   8.553
 6577POPC   D2A22408  26.065  17.532   8.253
 6577POPC   C3A22409  26.039  17.487   7.953
 6577POPC   C4A22410  25.997  17.497   7.653
 6577POPC   C1B22411  25.832  17.668   8.553
 6577POPC   C2B22412  25.838  17.650   8.253
 6577POPC   C3B22413  25.839  17.703   7.953
 6577POPC   C4B22414  25.866  17.659   7.653
 6578POPC   NC322415  15.201  29.111   9.453
 6578POPC   PO422416  15.199  29.102   9.153
 6578POPC   GL122417  15.171  29.133   8.853
 6578POPC   GL222418  15.082  29.044   8.853
 6578POPC   C1A22419  15.161  29.128   8.553
 6578POPC   D2A22420  15.199  29.106   8.253
 6578POPC   C3A22421  15.185  29.173   7.953
 6578POPC   C4A22422  15.180  29.159   7.653
 6578POPC   C1B22423  15.080  28.903   8.553
 6578POPC   C2B22424  15.086  28.884   8.253
 6578POPC   C3B22425  15.093  28.964   7.953
 6578POPC   C4B22426  15.059  28.931   7.653
 6579POPC   NC322427   0.431  33.759   9.453
 6579POPC   PO422428   0.460  33.828   9.153
 6579POPC   GL122429   0.404  33.781   8.853
 6579POPC   GL222430   0.503  33.722   8.853
 6579POPC   C1A22431   0.472  33.849   8.553
 6579POPC   D2A22432   0.460  33.802   8.253
 6579POPC   C3A22433   0.475  33.798   7.953
 6579POPC   C4A22434   0.407  33.840   7.653
 6579POPC   C1B22435   0.483  33.549   8.553
 6579POPC   C2B22436   0.469  33.582   8.253
 6579POPC   C3B22437   0.488  33.580   7.953
 6579POPC   C4B22438   0.454  33.558   7.653
 6580POPC   NC322439  34.572   5.856   9.453
 6580POPC   PO422440  34.622   5.845   9.153
 6580POPC   GL122441  34.540   5.834   8.853
 6580POPC   GL222442  34.410   5.900   8.853
 6580POPC   C1A22443  34.592   5.895   8.553
 6580POPC   D2A22444  34.600   5.831   8.253
 6580POPC   C3A22445  34.609   5.879   7.953
 6580POPC   C4A22446  34.567   5.836   7.653
 6580POPC   C1B22447  34.377   5.870   8.553
 6580POPC   C2B22448  34.333   5.802   8.253
 6580POPC   C3B22449  34.329   5.792   7.953
 6580POPC   C4B22450  34.369   5.864   7.653
 6581POPC   NC322451  22.966  29.925   9.453
 6581POPC   PO422452  22.899  29.896   9.153
 6581POPC   GL122453  22.944  29.966   8.853
 6581POPC   GL222454  23.088  29.916   8.853
 6581POPC   C1A22455  22.959  29.893   8.553
 6581POPC   D2A22456  22.947  29.940   8.253
 6581POPC   C3A22457  22.922  29.946   7.953
 6581POPC   C4A22458  22.943  29.955   7.653
 6581POPC   C1B22459  23.215  29.885   8.553
 6581POPC   C2B22460  23.206  29.910   8.253
 6581POPC   C3B22461  23.165  29.889   7.953
 6581POPC   C4B22462  23.190  29.886   7.653
 6582POPC   NC322463  40.771  25.293   9.453
 6582POPC   PO422464  40.819  25.308   9.153
 6582POPC   GL122465  40.783  25.304   8.853
 6582POPC   GL222466  40.753  25.431   8.853
 6582POPC   C1A22467  40.782  25.293   8.553
 6582POPC   D2A22468  40.792  25.304   8.253
 6582POPC   C3A22469  40.814  25.227   7.953
 6582POPC   C4A22470  40.773  25.218   7.653
 6582POPC   C1B22471  40.825  25.530   8.553
 6582POPC   C2B22472  40.760  25.547   8.253
 6582POPC   C3B22473  40.782  25.491   7.953
 6582POPC   C4B22474  40.764  25.510   7.653
 6583POPC   NC322475  10.493  44.657   9.453
 6583POPC   PO422476  10.549  44.644   9.153
 6583POPC   GL122477  10.553  44.652   8.853
 6583POPC   GL222478  10.379  44.726   8.853
 6583POPC   C1A22479  10.490  44.694   8.553
 6583POPC   D2A22480  10.491  44.694   8.253
 6583POPC   C3A22481  10.484  44.711   7.953
 6583POPC   C4A22482  10.522  44.630   7.653
 6583POPC   C1B22483  10.321  44.752   8.553
 6583POPC   C2B22484  10.350  44.744   8.253
 6583POPC   C3B22485  10.255  44.815   7.953
 6583POPC   C4B22486  10.348  44.766   7.653
 6584POPC   NC322487  33.840   7.434   9.453
 6584POPC   PO422488  33.825   7.449   9.153
 6584POPC   GL122489  33.781   7.395   8.853
 6584POPC   GL222490  33.881   7.392   8.853
 6584POPC   C1A22491  33.829   7.452   8.553
 6584POPC   D2A22492  33.808   7.461   8.253
 6584POPC   C3A22493  33.814   7.377   7.953
 6584POPC   C4A22494  33.810   7.382   7.653
 6584POPC   C1B22495  33.980   7.301   8.553
 6584POPC   C2B22496  33.975   7.316   8.253
 6584POPC   C3B22497  33.965   7.250   7.953
 6584POPC   C4B22498  34.024   7.306   7.653
 6585POPC   NC322499  11.295  12.111   9.453
 6585POPC   PO422500  11.331  12.061   9.153
 6585POPC   GL122501  11.269  12.028   8.853
 6585POPC   GL222502  11.373  12.010   8.853
 6585POPC   C1A22503  11.256  12.026   8.553
 6585POPC   D2A22504  11.271  12.026   8.253
 6585POPC   C3A22505  11.323  12.052   7.953
 6585POPC   C4A22506  11.254  12.099   7.653
 6585POPC   C1B22507  11.466  11.918   8.553
 6585POPC   C2B22508  11.440  11.930   8.253
 6585POPC   C3B22509  11.452  11.871   7.953
 6585POPC   C4B22510  11.518  11.864   7.653
 6586POPC   NC322511  27.584   0.485   9.453
 6586POPC   PO422512  27.561   0.389   9.153
 6586POPC   GL122513  27.634   0.448   8.853
 6586POPC   GL222514  27.535   0.493   8.853
 6586POPC   C1A22515  27.567   0.486   8.553
 6586POPC   D2A22516  27.630   0.475   8.253
 6586POPC   C3A22517  27.605   0.485   7.953
 6586POPC   C4A22518  27.631   0.480   7.653
 6586POPC   C1B22519  27.371   0.620   8.553
 6586POPC   C2B22520  27.388   0.580   8.253
 6586POPC   C3B22521  27.395   0.631   7.953
 6586POPC   C4B22522  27.435   0.635   7.653
 6587POPC   NC322523  26.027  18.329   9.453
 6587POPC   PO422524  25.992  18.257   9.153
 6587POPC   GL122525  26.057  18.312   8.853
 6587POPC   GL222526  26.106  18.193   8.853
 6587POPC   C1A22527  26.024  18.266   8.553
 6587POPC   D2A22528  26.012  18.291   8.253
 6587POPC   C3A22529  26.000  18.308   7.953
 6587POPC   C4A22530  26.090  18.329   7.653
 6587POPC   C1B22531  26.236  18.158   8.553
 6587POPC   C2B22532  26.190  18.091   8.253
 6587POPC   C3B22533  26.199  18.095   7.953
 6587POPC   C4B22534  26.262  18.096   7.653
 6588POPC   NC322535  36.123  32.269   9.453
 6588POPC   PO422536  36.160  32.221   9.153
 6588POPC   GL122537  36.094  32.248   8.853
 6588POPC   GL222538  36.185  32.365   8.853
 6588POPC   C1A22539  36.119  32.234   8.553
 6588POPC   D2A22540  36.095  32.278   8.253
 6588POPC   C3A22541  36.078  32.237   7.953
 6588POPC   C4A22542  36.110  32.206   7.653
 6588POPC   C1B22543  36.331  32.388   8.553
 6588POPC   C2B22544  36.317  32.390   8.253
 6588POPC   C3B22545  36.355  32.361   7.953
 6588POPC   C4B22546  36.342  32.412   7.653
 6589POPC   NC322547  26.834   1.192   9.453
 6589POPC   PO422548  26.858   1.166   9.153
 6589POPC   GL122549  26.803   1.164   8.853
 6589POPC   GL222550  26.903   1.334   8.853
 6589POPC   C1A22551  26.860   1.246   8.553
 6589POPC   D2A22552  26.776   1.186   8.253
 6589POPC   C3A22553  26.849   1.184   7.953
 6589POPC   C4A22554  26.807   1.216   7.653
 6589POPC   C1B22555  26.947   1.408   8.553
 6589POPC   C2B22556  26.980   1.382   8.253
 6589POPC   C3B22557  26.940   1.370   7.953
 6589POPC   C4B22558  26.971   1.450   7.653
 6590POPC   NC322559   4.285  32.297   9.453
 6590POPC   PO422560   4.343  32.222   9.153
 6590POPC   GL122561   4.363  32.289   8.853
 6590POPC   GL222562   4.354  32.135   8.853
 6590POPC   C1A22563   4.359  32.230   8.553
 6590POPC   D2A22564   4.343  32.200   8.253
 6590POPC   C3A22565   4.361  32.278   7.953
 6590POPC   C4A22566   4.293  32.289   7.653
 6590POPC   C1B22567   4.300  32.014   8.553
 6590POPC   C2B22568   4.263  32.036   8.253
 6590POPC   C3B22569   4.315  31.965   7.953
 6590POPC   C4B22570   4.281  31.955   7.653
 6591POPC   NC322571  28.372   9.719   9.453
 6591POPC   PO422572  28.378   9.701   9.153
 6591POPC   GL122573  28.319   9.732   8.853
 6591POPC   GL222574  28.285   9.635   8.853
 6591POPC   C1A22575  28.380   9.783   8.553
 6591POPC   D2A22576  28.399   9.793   8.253
 6591POPC   C3A22577  28.373   9.702   7.953
 6591POPC   C4A22578  28.377   9.701   7.653
 6591POPC   C1B22579  28.185   9.572   8.553
 6591POPC   C2B22580  28.235   9.600   8.253
 6591POPC   C3B22581  28.207   9.605   7.953
 6591POPC   C4B22582  28.150   9.589   7.653
 6592POPC   NC322583  20.574  20.639   9.453
 6592POPC   PO422584  20.627  20.585   9.153
 6592POPC   GL122585  20.606  20.634   8.853
 6592POPC   GL222586  20.720  20.499   8.853
 6592POPC   C1A22587  20.609  20.658   8.553
 6592POPC   D2A22588  20.571  20.648   8.253
 6592POPC   C3A22589  20.657  20.656   7.953
 6592POPC   C4A22590  20.586  20.652   7.653
 6592POPC   C1B22591  20.777  20.403   8.553
 6592POPC   C2B22592  20.795  20.438   8.253
 6592POPC   C3B22593  20.830  20.406   7.953
 6592POPC   C4B22594  20.773  20.390   7.653
 6593POPC   NC322595  12.094   2.744   9.453
 6593POPC   PO422596  12.088   2.739   9.153
 6593POPC   GL122597  12.081   2.753   8.853
 6593POPC   GL222598  11.970   2.697   8.853
 6593POPC   C1A22599  12.105   2.811   8.553
 6593POPC   D2A22600  12.063   2.758   8.253
 6593POPC   C3A22601  12.038   2.725   7.953
 6593POPC   C4A22602  12.098   2.737   7.653
 6593POPC   C1B22603  11.873   2.568   8.553
 6593POPC   C2B22604  11.917   2.634   8.253
 6593POPC   C3B22605  11.865   2.632   7.953
 6593POPC   C4B22606  11.894   2.613   7.653
 6594POPC   NC322607   1.225  21.428   9.453
 6594POPC   PO422608   1.175  21.410   9.153
 6594POPC   GL122609   1.249  21.381   8.853
 6594POPC   GL222610   1.084  21.485   8.853
 6594POPC   C1A22611   1.250  21.420   8.553
 6594POPC   D2A22612   1.166  21.383   8.253
 6594POPC   C3A22613   1.206  21.423   7.953
 6594POPC   C4A22614   1.243  21.433   7.653
 6594POPC   C1B22615   1.022  21.487   8.553
 6594POPC   C2B22616   0.982  21.557   8.253
 6594POPC   C3B22617   1.011  21.534   7.953
 6594POPC   C4B22618   0.978  21.527   7.653
 6595POPC   NC322619  27.569  43.900   9.453
 6595POPC   PO422620  27.639  43.846   9.153
 6595POPC   GL122621  27.546  43.883   8.853
 6595POPC   GL222622  27.703  43.892   8.853
 6595POPC   C1A22623  27.578  43.892   8.553
 6595POPC   D2A22624  27.631  43.927   8.253
 6595POPC   C3A22625  27.608  43.863   7.953
 6595POPC   C4A22626  27.600  43.885   7.653
 6595POPC   C1B22627  27.798  43.898   8.553
 6595POPC   C2B22628  27.871  43.860   8.253
 6595POPC   C3B22629  27.884  43.877   7.953
 6595POPC   C4B22630  27.819  43.866   7.653
 6596POPC   NC322631  29.113   8.954   9.453
 6596POPC   PO422632  29.130   8.956   9.153
 6596POPC   GL122633  29.114   8.942   8.853
 6596POPC   GL222634  29.252   9.008   8.853
 6596POPC   C1A22635  29.192   9.022   8.553
 6596POPC   D2A22636  29.105   8.981   8.253
 6596POPC   C3A22637  29.140   9.007   7.953
 6596POPC   C4A22638  29.164   8.936   7.653
 6596POPC   C1B22639  29.330   9.116   8.553
 6596POPC   C2B22640  29.319   9.115   8.253
 6596POPC   C3B22641  29.400   9.104   7.953
 6596POPC   C4B22642  29.352   9.058   7.653
 6597POPC   NC322643  29.878  11.349   9.453
 6597POPC   PO422644  29.886  11.293   9.153
 6597POPC   GL122645  29.873  11.296   8.853
 6597POPC   GL222646  29.759  11.259   8.853
 6597POPC   C1A22647  29.928  11.271   8.553
 6597POPC   D2A22648  29.878  11.282   8.253
 6597POPC   C3A22649  29.885  11.268   7.953
 6597POPC   C4A22650  29.964  11.271   7.653
 6597POPC   C1B22651  29.669  11.274   8.553
 6597POPC   C2B22652  29.718  11.307   8.253
 6597POPC   C3B22653  29.685  11.257   7.953
 6597POPC   C4B22654  29.655  11.310   7.653
 6598POPC   NC322655  39.969  38.464   9.453
 6598POPC   PO422656  39.991  38.442   9.153
 6598POPC   GL122657  39.962  38.481   8.853
 6598POPC   GL222658  39.956  38.360   8.853
 6598POPC   C1A22659  39.993  38.482   8.553
 6598POPC   D2A22660  40.019  38.421   8.253
 6598POPC   C3A22661  40.044  38.476   7.953
 6598POPC   C4A22662  40.019  38.416   7.653
 6598POPC   C1B22663  39.902  38.268   8.553
 6598POPC   C2B22664  39.829  38.236   8.253
 6598POPC   C3B22665  39.838  38.206   7.953
 6598POPC   C4B22666  39.865  38.266   7.653
 6599POPC   NC322667   1.186  10.518   9.453
 6599POPC   PO422668   1.235  10.565   9.153
 6599POPC   GL122669   1.173  10.493   8.853
 6599POPC   GL222670   1.110  10.544   8.853
 6599POPC   C1A22671   1.197  10.527   8.553
 6599POPC   D2A22672   1.175  10.503   8.253
 6599POPC   C3A22673   1.256  10.573   7.953
 6599POPC   C4A22674   1.232  10.492   7.653
 6599POPC   C1B22675   0.929  10.481   8.553
 6599POPC   C2B22676   0.979  10.558   8.253
 6599POPC   C3B22677   0.937  10.538   7.953
 6599POPC   C4B22678   0.994  10.502   7.653
 6600POPC   NC322679  10.478  12.048   9.453
 6600POPC   PO422680  10.547  12.118   9.153
 6600POPC   GL122681  10.480  12.115   8.853
 6600POPC   GL222682  10.560  11.981   8.853
 6600POPC   C1A22683  10.510  12.056   8.553
 6600POPC   D2A22684  10.492  12.039   8.253
 6600POPC   C3A22685  10.556  12.031   7.953
 6600POPC   C4A22686  10.483  12.026   7.653
 6600POPC   C1B22687  10.669  11.850   8.553
 6600POPC   C2B22688  10.608  11.896   8.253
 6600POPC   C3B22689  10.657  11.807   7.953
 6600POPC   C4B22690  10.585  11.875   7.653
 6601POPC   NC322691   1.236   1.954   9.453
 6601POPC   PO422692   1.174   1.960   9.153
 6601POPC   GL122693   1.209   1.989   8.853
 6601POPC   GL222694   1.266   2.112   8.853
 6601POPC   C1A22695   1.246   1.996   8.553
 6601POPC   D2A22696   1.218   2.036   8.253
 6601POPC   C3A22697   1.202   1.944   7.953
 6601POPC   C4A22698   1.226   2.008   7.653
 6601POPC   C1B22699   1.271   2.247   8.553
 6601POPC   C2B22700   1.270   2.194   8.253
 6601POPC   C3B22701   1.324   2.248   7.953
 6601POPC   C4B22702   1.252   2.190   7.653
 6602POPC   NC322703  27.622  36.884   9.453
 6602POPC   PO422704  27.569  36.878   9.153
 6602POPC   GL122705  27.606  36.882   8.853
 6602POPC   GL222706  27.504  36.863   8.853
 6602POPC   C1A22707  27.579  36.908   8.553
 6602POPC   D2A22708  27.609  36.906   8.253
 6602POPC   C3A22709  27.641  36.923   7.953
 6602POPC   C4A22710  27.586  36.936   7.653
 6602POPC   C1B22711  27.336  36.773   8.553
 6602POPC   C2B22712  27.383  36.765   8.253
 6602POPC   C3B22713  27.315  36.782   7.953
 6602POPC   C4B22714  27.351  36.786   7.653
 6603POPC   NC322715   5.074  20.591   9.453
 6603POPC   PO422716   5.077  20.585   9.153
 6603POPC   GL122717   5.113  20.580   8.853
 6603POPC   GL222718   5.002  20.542   8.853
 6603POPC   C1A22719   5.046  20.634   8.553
 6603POPC   D2A22720   5.082  20.658   8.253
 6603POPC   C3A22721   5.070  20.599   7.953
 6603POPC   C4A22722   5.048  20.562   7.653
 6603POPC   C1B22723   4.951  20.347   8.553
 6603POPC   C2B22724   4.976  20.396   8.253
 6603POPC   C3B22725   4.998  20.426   7.953
 6603POPC   C4B22726   4.939  20.404   7.653
 6604POPC   NC322727  41.553   8.170   9.453
 6604POPC   PO422728  41.525   8.200   9.153
 6604POPC   GL122729  41.607   8.195   8.853
 6604POPC   GL222730  41.447   8.109   8.853
 6604POPC   C1A22731  41.539   8.215   8.553
 6604POPC   D2A22732  41.567   8.238   8.253
 6604POPC   C3A22733  41.550   8.178   7.953
 6604POPC   C4A22734  41.542   8.193   7.653
 6604POPC   C1B22735  41.326   8.143   8.553
 6604POPC   C2B22736  41.276   8.100   8.253
 6604POPC   C3B22737  41.341   8.120   7.953
 6604POPC   C4B22738  41.287   8.101   7.653
 6605POPC   NC322739  19.044   5.074   9.453
 6605POPC   PO422740  19.041   5.127   9.153
 6605POPC   GL122741  19.092   5.061   8.853
 6605POPC   GL222742  18.975   5.010   8.853
 6605POPC   C1A22743  19.107   5.099   8.553
 6605POPC   D2A22744  19.070   5.094   8.253
 6605POPC   C3A22745  19.089   5.079   7.953
 6605POPC   C4A22746  19.094   5.122   7.653
 6605POPC   C1B22747  18.792   4.985   8.553
 6605POPC   C2B22748  18.827   5.054   8.253
 6605POPC   C3B22749  18.813   5.025   7.953
 6605POPC   C4B22750  18.817   5.003   7.653
 6606POPC   NC322751  21.383  29.105   9.453
 6606POPC   PO422752  21.372  29.147   9.153
 6606POPC   GL122753  21.368  29.133   8.853
 6606POPC   GL222754  21.261  29.101   8.853
 6606POPC   C1A22755  21.407  29.166   8.553
 6606POPC   D2A22756  21.419  29.166   8.253
 6606POPC   C3A22757  21.379  29.188   7.953
 6606POPC   C4A22758  21.421  29.146   7.653
 6606POPC   C1B22759  21.160  29.129   8.553
 6606POPC   C2B22760  21.162  29.146   8.253
 6606POPC   C3B22761  21.107  29.146   7.953
 6606POPC   C4B22762  21.141  29.116   7.653
 6607POPC   NC322763   8.228  37.709   9.453
 6607POPC   PO422764   8.177  37.723   9.153
 6607POPC   GL122765   8.221  37.716   8.853
 6607POPC   GL222766   8.134  37.573   8.853
 6607POPC   C1A22767   8.214  37.722   8.553
 6607POPC   D2A22768   8.220  37.715   8.253
 6607POPC   C3A22769   8.149  37.700   7.953
 6607POPC   C4A22770   8.241  37.634   7.653
 6607POPC   C1B22771   8.013  37.524   8.553
 6607POPC   C2B22772   7.944  37.559   8.253
 6607POPC   C3B22773   7.986  37.585   7.953
 6607POPC   C4B22774   7.987  37.605   7.653
 6608POPC   NC322775   9.718  17.481   9.453
 6608POPC   PO422776   9.739  17.484   9.153
 6608POPC   GL122777   9.734  17.531   8.853
 6608POPC   GL222778   9.728  17.619   8.853
 6608POPC   C1A22779   9.770  17.515   8.553
 6608POPC   D2A22780   9.737  17.461   8.253
 6608POPC   C3A22781   9.736  17.488   7.953
 6608POPC   C4A22782   9.780  17.540   7.653
 6608POPC   C1B22783   9.824  17.779   8.553
 6608POPC   C2B22784   9.814  17.783   8.253
 6608POPC   C3B22785   9.834  17.730   7.953
 6608POPC   C4B22786   9.816  17.791   7.653
 6609POPC   NC322787  12.865   5.837   9.453
 6609POPC   PO422788  12.847   5.908   9.153
 6609POPC   GL122789  12.893   5.888   8.853
 6609POPC   GL222790  12.734   5.882   8.853
 6609POPC   C1A22791  12.840   5.889   8.553
 6609POPC   D2A22792  12.841   5.905   8.253
 6609POPC   C3A22793  12.879   5.874   7.953
 6609POPC   C4A22794  12.828   5.905   7.653
 6609POPC   C1B22795  12.621   5.840   8.553
 6609POPC   C2B22796  12.559   5.825   8.253
 6609POPC   C3B22797  12.626   5.789   7.953
 6609POPC   C4B22798  12.582   5.800   7.653
 6610POPC   NC322799  12.808  29.927   9.453
 6610POPC   PO422800  12.897  29.947   9.153
 6610POPC   GL122801  12.884  29.920   8.853
 6610POPC   GL222802  12.931  29.988   8.853
 6610POPC   C1A22803  12.825  29.925   8.553
 6610POPC   D2A22804  12.889  29.896   8.253
 6610POPC   C3A22805  12.862  29.917   7.953
 6610POPC   C4A22806  12.883  29.936   7.653
 6610POPC   C1B22807  13.044  30.058   8.553
 6610POPC   C2B22808  13.103  30.010   8.253
 6610POPC   C3B22809  13.098  29.991   7.953
 6610POPC   C4B22810  13.071  30.051   7.653
 6611POPC   NC322811  38.486  40.833   9.453
 6611POPC   PO422812  38.444  40.772   9.153
 6611POPC   GL122813  38.409  40.757   8.853
 6611POPC   GL222814  38.470  40.872   8.853
 6611POPC   C1A22815  38.487  40.817   8.553
 6611POPC   D2A22816  38.466  40.760   8.253
 6611POPC   C3A22817  38.463  40.816   7.953
 6611POPC   C4A22818  38.446  40.794   7.653
 6611POPC   C1B22819  38.571  40.973   8.553
 6611POPC   C2B22820  38.583  40.992   8.253
 6611POPC   C3B22821  38.537  41.024   7.953
 6611POPC   C4B22822  38.538  41.035   7.653
 6612POPC   NC322823  13.646  35.398   9.453
 6612POPC   PO422824  13.666  35.370   9.153
 6612POPC   GL122825  13.614  35.375   8.853
 6612POPC   GL222826  13.642  35.489   8.853
 6612POPC   C1A22827  13.669  35.358   8.553
 6612POPC   D2A22828  13.666  35.341   8.253
 6612POPC   C3A22829  13.581  35.343   7.953
 6612POPC   C4A22830  13.648  35.361   7.653
 6612POPC   C1B22831  13.573  35.626   8.553
 6612POPC   C2B22832  13.528  35.553   8.253
 6612POPC   C3B22833  13.590  35.614   7.953
 6612POPC   C4B22834  13.542  35.548   7.653
 6613POPC   NC322835  43.094  12.849   9.453
 6613POPC   PO422836  43.146  12.862   9.153
 6613POPC   GL122837  43.118  12.870   8.853
 6613POPC   GL222838  43.094  12.760   8.853
 6613POPC   C1A22839  43.106  12.898   8.553
 6613POPC   D2A22840  43.132  12.819   8.253
 6613POPC   C3A22841  43.129  12.834   7.953
 6613POPC   C4A22842  43.104  12.838   7.653
 6613POPC   C1B22843  42.959  12.591   8.553
 6613POPC   C2B22844  42.986  12.622   8.253
 6613POPC   C3B22845  42.968  12.660   7.953
 6613POPC   C4B22846  42.997  12.577   7.653
 6614POPC   NC322847  26.072   0.447   9.453
 6614POPC   PO422848  26.066   0.396   9.153
 6614POPC   GL122849  26.036   0.422   8.853
 6614POPC   GL222850  25.906   0.332   8.853
 6614POPC   C1A22851  26.040   0.398   8.553
 6614POPC   D2A22852  26.063   0.456   8.253
 6614POPC   C3A22853  26.083   0.475   7.953
 6614POPC   C4A22854  26.014   0.460   7.653
 6614POPC   C1B22855  25.854   0.279   8.553
 6614POPC   C2B22856  25.869   0.296   8.253
 6614POPC   C3B22857  25.781   0.356   7.953
 6614POPC   C4B22858  25.814   0.278   7.653
 6615POPC   NC322859   9.002  37.711   9.453
 6615POPC   PO422860   9.005  37.643   9.153
 6615POPC   GL122861   8.995  37.725   8.853
 6615POPC   GL222862   9.104  37.614   8.853
 6615POPC   C1A22863   8.985  37.718   8.553
 6615POPC   D2A22864   8.995  37.651   8.253
 6615POPC   C3A22865   8.989  37.639   7.953
 6615POPC   C4A22866   8.933  37.630   7.653
 6615POPC   C1B22867   9.162  37.562   8.553
 6615POPC   C2B22868   9.185  37.543   8.253
 6615POPC   C3B22869   9.157  37.481   7.953
 6615POPC   C4B22870   9.121  37.483   7.653
 6616POPC   NC322871   4.346  11.271   9.453
 6616POPC   PO422872   4.280  11.253   9.153
 6616POPC   GL122873   4.273  11.307   8.853
 6616POPC   GL222874   4.433  11.387   8.853
 6616POPC   C1A22875   4.333  11.311   8.553
 6616POPC   D2A22876   4.296  11.301   8.253
 6616POPC   C3A22877   4.319  11.288   7.953
 6616POPC   C4A22878   4.336  11.266   7.653
 6616POPC   C1B22879   4.550  11.475   8.553
 6616POPC   C2B22880   4.569  11.447   8.253
 6616POPC   C3B22881   4.497  11.394   7.953
 6616POPC   C4B22882   4.571  11.468   7.653
 6617POPC   NC322883  26.797  37.711   9.453
 6617POPC   PO422884  26.773  37.677   9.153
 6617POPC   GL122885  26.786  37.665   8.853
 6617POPC   GL222886  26.777  37.784   8.853
 6617POPC   C1A22887  26.797  37.687   8.553
 6617POPC   D2A22888  26.855  37.712   8.253
 6617POPC   C3A22889  26.836  37.713   7.953
 6617POPC   C4A22890  26.812  37.666   7.653
 6617POPC   C1B22891  26.625  37.857   8.553
 6617POPC   C2B22892  26.638  37.870   8.253
 6617POPC   C3B22893  26.653  37.835   7.953
 6617POPC   C4B22894  26.637  37.878   7.653
 6618POPC   NC322895  19.846   5.081   9.453
 6618POPC   PO422896  19.858   5.058   9.153
 6618POPC   GL122897  19.794   5.142   8.853
 6618POPC   GL222898  19.999   5.106   8.853
 6618POPC   C1A22899  19.836   5.052   8.553
 6618POPC   D2A22900  19.838   5.140   8.253
 6618POPC   C3A22901  19.862   5.046   7.953
 6618POPC   C4A22902  19.879   5.096   7.653
 6618POPC   C1B22903  20.078   5.027   8.553
 6618POPC   C2B22904  20.110   5.021   8.253
 6618POPC   C3B22905  20.125   5.019   7.953
 6618POPC   C4B22906  20.071   5.010   7.653
 6619POPC   NC322907  21.362  27.607   9.453
 6619POPC   PO422908  21.349  27.567   9.153
 6619POPC   GL122909  21.378  27.619   8.853
 6619POPC   GL222910  21.222  27.571   8.853
 6619POPC   C1A22911  21.395  27.572   8.553
 6619POPC   D2A22912  21.361  27.615   8.253
 6619POPC   C3A22913  21.419  27.638   7.953
 6619POPC   C4A22914  21.375  27.595   7.653
 6619POPC   C1B22915  21.168  27.637   8.553
 6619POPC   C2B22916  21.174  27.561   8.253
 6619POPC   C3B22917  21.104  27.576   7.953
 6619POPC   C4B22918  21.117  27.618   7.653
 6620POPC   NC322919  12.112  39.246   9.453
 6620POPC   PO422920  12.109  39.193   9.153
 6620POPC   GL122921  12.071  39.235   8.853
 6620POPC   GL222922  12.130  39.150   8.853
 6620POPC   C1A22923  12.026  39.273   8.553
 6620POPC   D2A22924  12.046  39.183   8.253
 6620POPC   C3A22925  12.046  39.268   7.953
 6620POPC   C4A22926  12.061  39.205   7.653
 6620POPC   C1B22927  12.242  39.085   8.553
 6620POPC   C2B22928  12.285  39.063   8.253
 6620POPC   C3B22929  12.296  39.062   7.953
 6620POPC   C4B22930  12.227  39.071   7.653
 6621POPC   NC322931  41.532   1.205   9.453
 6621POPC   PO422932  41.561   1.248   9.153
 6621POPC   GL122933  41.532   1.209   8.853
 6621POPC   GL222934  41.616   1.099   8.853
 6621POPC   C1A22935  41.577   1.211   8.553
 6621POPC   D2A22936  41.561   1.176   8.253
 6621POPC   C3A22937  41.526   1.246   7.953
 6621POPC   C4A22938  41.511   1.251   7.653
 6621POPC   C1B22939  41.782   1.068   8.553
 6621POPC   C2B22940  41.807   1.057   8.253
 6621POPC   C3B22941  41.741   1.070   7.953
 6621POPC   C4B22942  41.762   1.076   7.653
 6622POPC   NC322943   1.227  11.280   9.453
 6622POPC   PO422944   1.190  11.330   9.153
 6622POPC   GL122945   1.225  11.314   8.853
 6622POPC   GL222946   1.150  11.427   8.853
 6622POPC   C1A22947   1.190  11.337   8.553
 6622POPC   D2A22948   1.202  11.345   8.253
 6622POPC   C3A22949   1.192  11.306   7.953
 6622POPC   C4A22950   1.206  11.266   7.653
 6622POPC   C1B22951   1.106  11.499   8.553
 6622POPC   C2B22952   1.076  11.529   8.253
 6622POPC   C3B22953   1.098  11.497   7.953
 6622POPC   C4B22954   1.070  11.495   7.653
 6623POPC   NC322955  31.500  31.478   9.453
 6623POPC   PO422956  31.500  31.486   9.153
 6623POPC   GL122957  31.488  31.430   8.853
 6623POPC   GL222958  31.451  31.574   8.853
 6623POPC   C1A22959  31.485  31.496   8.553
 6623POPC   D2A22960  31.429  31.506   8.253
 6623POPC   C3A22961  31.436  31.436   7.953
 6623POPC   C4A22962  31.445  31.520   7.653
 6623POPC   C1B22963  31.411  31.716   8.553
 6623POPC   C2B22964  31.474  31.669   8.253
 6623POPC   C3B22965  31.415  31.767   7.953
 6623POPC   C4B22966  31.436  31.733   7.653
 6624POPC   NC322967  39.208  22.120   9.453
 6624POPC   PO422968  39.267  22.161   9.153
 6624POPC   GL122969  39.214  22.188   8.853
 6624POPC   GL222970  39.330  22.106   8.853
 6624POPC   C1A22971  39.269  22.178   8.553
 6624POPC   D2A22972  39.234  22.169   8.253
 6624POPC   C3A22973  39.182  22.183   7.953
 6624POPC   C4A22974  39.187  22.205   7.653
 6624POPC   C1B22975  39.457  22.148   8.553
 6624POPC   C2B22976  39.519  22.179   8.253
 6624POPC   C3B22977  39.455  22.105   7.953
 6624POPC   C4B22978  39.505  22.089   7.653
 6625POPC   NC322979  28.333  34.616   9.453
 6625POPC   PO422980  28.325  34.608   9.153
 6625POPC   GL122981  28.373  34.553   8.853
 6625POPC   GL222982  28.466  34.526   8.853
 6625POPC   C1A22983  28.319  34.594   8.553
 6625POPC   D2A22984  28.345  34.565   8.253
 6625POPC   C3A22985  28.377  34.580   7.953
 6625POPC   C4A22986  28.330  34.581   7.653
 6625POPC   C1B22987  28.606  34.477   8.553
 6625POPC   C2B22988  28.598  34.420   8.253
 6625POPC   C3B22989  28.584  34.445   7.953
 6625POPC   C4B22990  28.607  34.454   7.653
 6626POPC   NC322991  39.194  33.802   9.453
 6626POPC   PO422992  39.274  33.819   9.153
 6626POPC   GL122993  39.240  33.848   8.853
 6626POPC   GL222994  39.316  33.698   8.853
 6626POPC   C1A22995  39.274  33.792   8.553
 6626POPC   D2A22996  39.244  33.834   8.253
 6626POPC   C3A22997  39.197  33.758   7.953
 6626POPC   C4A22998  39.279  33.787   7.653
 6626POPC   C1B22999  39.427  33.735   8.553
 6626POPC   C2B23000  39.407  33.731   8.253
 6626POPC   C3B23001  39.439  33.715   7.953
 6626POPC   C4B23002  39.445  33.738   7.653
 6627POPC   NC323003  27.617  15.978   9.453
 6627POPC   PO423004  27.575  15.942   9.153
 6627POPC   GL123005  27.642  15.946   8.853
 6627POPC   GL223006  27.656  15.823   8.853
 6627POPC   C1A23007  27.603  15.999   8.553
 6627POPC   D2A23008  27.586  15.918   8.253
 6627POPC   C3A23009  27.576  15.981   7.953
 6627POPC   C4A23010  27.632  15.968   7.653
 6627POPC   C1B23011  27.801  15.727   8.553
 6627POPC   C2B23012  27.753  15.811   8.253
 6627POPC   C3B23013  27.777  15.801   7.953
 6627POPC   C4B23014  27.805  15.753   7.653
 6628POPC   NC323015   8.165  25.256   9.453
 6628POPC   PO423016   8.206  25.313   9.153
 6628POPC   GL123017   8.159  25.291   8.853
 6628POPC   GL223018   8.109  25.254   8.853
 6628POPC   C1A23019   8.198  25.292   8.553
 6628POPC   D2A23020   8.187  25.256   8.253
 6628POPC   C3A23021   8.192  25.255   7.953
 6628POPC   C4A23022   8.164  25.310   7.653
 6628POPC   C1B23023   7.958  25.158   8.553
 6628POPC   C2B23024   7.923  25.128   8.253
 6628POPC   C3B23025   7.957  25.204   7.953
 6628POPC   C4B23026   7.953  25.173   7.653
 6629POPC   NC323027  10.499  22.966   9.453
 6629POPC   PO423028  10.525  22.894   9.153
 6629POPC   GL123029  10.516  22.915   8.853
 6629POPC   GL223030  10.590  22.994   8.853
 6629POPC   C1A23031  10.531  22.979   8.553
 6629POPC   D2A23032  10.498  22.896   8.253
 6629POPC   C3A23033  10.560  22.971   7.953
 6629POPC   C4A23034  10.544  22.900   7.653
 6629POPC   C1B23035  10.742  23.146   8.553
 6629POPC   C2B23036  10.708  23.058   8.253
 6629POPC   C3B23037  10.727  23.091   7.953
 6629POPC   C4B23038  10.747  23.131   7.653
 6630POPC   NC323039  11.304  15.908   9.453
 6630POPC   PO423040  11.303  15.912   9.153
 6630POPC   GL123041  11.277  15.918   8.853
 6630POPC   GL223042  11.185  16.043   8.853
 6630POPC   C1A23043  11.298  15.929   8.553
 6630POPC   D2A23044  11.254  15.941   8.253
 6630POPC   C3A23045  11.281  15.982   7.953
 6630POPC   C4A23046  11.266  15.980   7.653
 6630POPC   C1B23047  11.181  16.166   8.553
 6630POPC   C2B23048  11.155  16.198   8.253
 6630POPC   C3B23049  11.173  16.174   7.953
 6630POPC   C4B23050  11.184  16.176   7.653
 6631POPC   NC323051  13.675   3.570   9.453
 6631POPC   PO423052  13.641   3.498   9.153
 6631POPC   GL123053  13.669   3.509   8.853
 6631POPC   GL223054  13.483   3.541   8.853
 6631POPC   C1A23055  13.646   3.511   8.553
 6631POPC   D2A23056  13.666   3.541   8.253
 6631POPC   C3A23057  13.661   3.574   7.953
 6631POPC   C4A23058  13.617   3.567   7.653
 6631POPC   C1B23059  13.337   3.547   8.553
 6631POPC   C2B23060  13.378   3.593   8.253
 6631POPC   C3B23061  13.387   3.583   7.953
 6631POPC   C4B23062  13.430   3.620   7.653
 6632POPC   NC323063  26.018  35.322   9.453
 6632POPC   PO423064  26.027  35.364   9.153
 6632POPC   GL123065  26.041  35.367   8.853
 6632POPC   GL223066  26.174  35.398   8.853
 6632POPC   C1A23067  26.002  35.348   8.553
 6632POPC   D2A23068  26.040  35.305   8.253
 6632POPC   C3A23069  26.091  35.401   7.953
 6632POPC   C4A23070  26.078  35.385   7.653
 6632POPC   C1B23071  26.260  35.371   8.553
 6632POPC   C2B23072  26.281  35.434   8.253
 6632POPC   C3B23073  26.314  35.436   7.953
 6632POPC   C4B23074  26.290  35.419   7.653
 6633POPC   NC323075  12.890  27.621   9.453
 6633POPC   PO423076  12.888  27.597   9.153
 6633POPC   GL123077  12.891  27.592   8.853
 6633POPC   GL223078  12.714  27.633   8.853
 6633POPC   C1A23079  12.805  27.568   8.553
 6633POPC   D2A23080  12.825  27.591   8.253
 6633POPC   C3A23081  12.823  27.599   7.953
 6633POPC   C4A23082  12.891  27.574   7.653
 6633POPC   C1B23083  12.572  27.605   8.553
 6633POPC   C2B23084  12.569  27.565   8.253
 6633POPC   C3B23085  12.642  27.563   7.953
 6633POPC   C4B23086  12.595  27.606   7.653
 6634POPC   NC323087  36.156  35.359   9.453
 6634POPC   PO423088  36.116  35.392   9.153
 6634POPC   GL123089  36.092  35.376   8.853
 6634POPC   GL223090  36.041  35.376   8.853
 6634POPC   C1A23091  36.114  35.365   8.553
 6634POPC   D2A23092  36.081  35.336   8.253
 6634POPC   C3A23093  36.095  35.359   7.953
 6634POPC   C4A23094  36.116  35.351   7.653
 6634POPC   C1B23095  35.926  35.430   8.553
 6634POPC   C2B23096  35.946  35.445   8.253
 6634POPC   C3B23097  35.893  35.515   7.953
 6634POPC   C4B23098  35.887  35.491   7.653
 6635POPC   NC323099  22.898  43.159   9.453
 6635POPC   PO423100  22.961  43.139   9.153
 6635POPC   GL123101  22.948  43.116   8.853
 6635POPC   GL223102  22.865  43.187   8.853
 6635POPC   C1A23103  22.910  43.112   8.553
 6635POPC   D2A23104  22.972  43.078   8.253
 6635POPC   C3A23105  22.922  43.115   7.953
 6635POPC   C4A23106  22.950  43.087   7.653
 6635POPC   C1B23107  22.817  43.261   8.553
 6635POPC   C2B23108  22.822  43.342   8.253
 6635POPC   C3B23109  22.757  43.335   7.953
 6635POPC   C4B23110  22.808  43.313   7.653
 6636POPC   NC323111  33.008  30.738   9.453
 6636POPC   PO423112  32.975  30.724   9.153
 6636POPC   GL123113  32.982  30.709   8.853
 6636POPC   GL223114  32.959  30.642   8.853
 6636POPC   C1A23115  33.028  30.666   8.553
 6636POPC   D2A23116  33.045  30.661   8.253
 6636POPC   C3A23117  33.019  30.662   7.953
 6636POPC   C4A23118  33.033  30.674   7.653
 6636POPC   C1B23119  32.868  30.481   8.553
 6636POPC   C2B23120  32.923  30.538   8.253
 6636POPC   C3B23121  32.874  30.453   7.953
 6636POPC   C4B23122  32.849  30.528   7.653
 6637POPC   NC323123  40.809  15.191   9.453
 6637POPC   PO423124  40.773  15.132   9.153
 6637POPC   GL123125  40.830  15.146   8.853
 6637POPC   GL223126  40.824  15.317   8.853
 6637POPC   C1A23127  40.814  15.182   8.553
 6637POPC   D2A23128  40.769  15.219   8.253
 6637POPC   C3A23129  40.738  15.141   7.953
 6637POPC   C4A23130  40.744  15.187   7.653
 6637POPC   C1B23131  40.850  15.411   8.553
 6637POPC   C2B23132  40.872  15.404   8.253
 6637POPC   C3B23133  40.863  15.465   7.953
 6637POPC   C4B23134  40.853  15.444   7.653
 6638POPC   NC323135   1.992   8.211   9.453
 6638POPC   PO423136   2.031   8.219   9.153
 6638POPC   GL123137   1.965   8.232   8.853
 6638POPC   GL223138   1.897   8.047   8.853
 6638POPC   C1A23139   2.004   8.189   8.553
 6638POPC   D2A23140   2.007   8.190   8.253
 6638POPC   C3A23141   1.982   8.196   7.953
 6638POPC   C4A23142   1.978   8.172   7.653
 6638POPC   C1B23143   1.828   8.019   8.553
 6638POPC   C2B23144   1.867   7.930   8.253
 6638POPC   C3B23145   1.867   7.967   7.953
 6638POPC   C4B23146   1.906   7.997   7.653
 6639POPC   NC323147   2.773  40.024   9.453
 6639POPC   PO423148   2.753  39.968   9.153
 6639POPC   GL123149   2.724  40.044   8.853
 6639POPC   GL223150   2.801  40.126   8.853
 6639POPC   C1A23151   2.762  39.999   8.553
 6639POPC   D2A23152   2.739  39.963   8.253
 6639POPC   C3A23153   2.717  40.024   7.953
 6639POPC   C4A23154   2.813  40.025   7.653
 6639POPC   C1B23155   2.901  40.199   8.553
 6639POPC   C2B23156   2.816  40.235   8.253
 6639POPC   C3B23157   2.893  40.217   7.953
 6639POPC   C4B23158   2.899  40.281   7.653
 6640POPC   NC323159  39.211  11.339   9.453
 6640POPC   PO423160  39.226  11.320   9.153
 6640POPC   GL123161  39.260  11.259   8.853
 6640POPC   GL223162  39.139  11.437   8.853
 6640POPC   C1A23163  39.210  11.262   8.553
 6640POPC   D2A23164  39.256  11.339   8.253
 6640POPC   C3A23165  39.205  11.252   7.953
 6640POPC   C4A23166  39.278  11.317   7.653
 6640POPC   C1B23167  39.057  11.486   8.553
 6640POPC   C2B23168  39.064  11.489   8.253
 6640POPC   C3B23169  39.102  11.515   7.953
 6640POPC   C4B23170  39.135  11.467   7.653
 6641POPC   NC323171  36.132  36.097   9.453
 6641POPC   PO423172  36.177  36.157   9.153
 6641POPC   GL123173  36.129  36.127   8.853
 6641POPC   GL223174  36.060  36.019   8.853
 6641POPC   C1A23175  36.123  36.173   8.553
 6641POPC   D2A23176  36.168  36.127   8.253
 6641POPC   C3A23177  36.109  36.109   7.953
 6641POPC   C4A23178  36.109  36.085   7.653
 6641POPC   C1B23179  35.903  35.955   8.553
 6641POPC   C2B23180  35.957  35.973   8.253
 6641POPC   C3B23181  35.917  35.931   7.953
 6641POPC   C4B23182  35.928  35.989   7.653
 6642POPC   NC323183  40.748  35.385   9.453
 6642POPC   PO423184  40.831  35.366   9.153
 6642POPC   GL123185  40.828  35.388   8.853
 6642POPC   GL223186  40.884  35.490   8.853
 6642POPC   C1A23187  40.774  35.364   8.553
 6642POPC   D2A23188  40.738  35.394   8.253
 6642POPC   C3A23189  40.748  35.302   7.953
 6642POPC   C4A23190  40.828  35.317   7.653
 6642POPC   C1B23191  40.884  35.610   8.553
 6642POPC   C2B23192  40.893  35.529   8.253
 6642POPC   C3B23193  40.919  35.530   7.953
 6642POPC   C4B23194  40.904  35.605   7.653
 6643POPC   NC323195   5.064   5.911   9.453
 6643POPC   PO423196   5.087   5.831   9.153
 6643POPC   GL123197   5.142   5.858   8.853
 6643POPC   GL223198   5.161   5.797   8.853
 6643POPC   C1A23199   5.108   5.831   8.553
 6643POPC   D2A23200   5.134   5.868   8.253
 6643POPC   C3A23201   5.131   5.900   7.953
 6643POPC   C4A23202   5.056   5.861   7.653
 6643POPC   C1B23203   5.236   5.667   8.553
 6643POPC   C2B23204   5.198   5.685   8.253
 6643POPC   C3B23205   5.216   5.688   7.953
 6643POPC   C4B23206   5.250   5.688   7.653
 6644POPC   NC323207  31.486  12.041   9.453
 6644POPC   PO423208  31.511  12.055   9.153
 6644POPC   GL123209  31.456  12.103   8.853
 6644POPC   GL223210  31.562  12.220   8.853
 6644POPC   C1A23211  31.501  12.120   8.553
 6644POPC   D2A23212  31.445  12.089   8.253
 6644POPC   C3A23213  31.466  12.058   7.953
 6644POPC   C4A23214  31.520  12.115   7.653
 6644POPC   C1B23215  31.527  12.320   8.553
 6644POPC   C2B23216  31.597  12.277   8.253
 6644POPC   C3B23217  31.603  12.329   7.953
 6644POPC   C4B23218  31.519  12.310   7.653
 6645POPC   NC323219   9.768  40.038   9.453
 6645POPC   PO423220   9.704  40.006   9.153
 6645POPC   GL123221   9.735  40.035   8.853
 6645POPC   GL223222   9.792  40.084   8.853
 6645POPC   C1A23223   9.706  39.967   8.553
 6645POPC   D2A23224   9.731  39.968   8.253
 6645POPC   C3A23225   9.782  40.024   7.953
 6645POPC   C4A23226   9.725  40.004   7.653
 6645POPC   C1B23227   9.834  40.248   8.553
 6645POPC   C2B23228   9.835  40.275   8.253
 6645POPC   C3B23229   9.815  40.231   7.953
 6645POPC   C4B23230   9.862  40.188   7.653
 6646POPC   NC323231  43.093   7.459   9.453
 6646POPC   PO423232  43.085   7.457   9.153
 6646POPC   GL123233  43.064   7.407   8.853
 6646POPC   GL223234  43.233   7.461   8.853
 6646POPC   C1A23235  43.099   7.393   8.553
 6646POPC   D2A23236  43.100   7.374   8.253
 6646POPC   C3A23237  43.113   7.426   7.953
 6646POPC   C4A23238  43.132   7.461   7.653
 6646POPC   C1B23239  43.322   7.592   8.553
 6646POPC   C2B23240  43.267   7.622   8.253
 6646POPC   C3B23241  43.316   7.572   7.953
 6646POPC   C4B23242  43.259   7.592   7.653
 6647POPC   NC323243  36.943  14.371   9.453
 6647POPC   PO423244  36.928  14.450   9.153
 6647POPC   GL123245  36.901  14.408   8.853
 6647POPC   GL223246  36.837  14.335   8.853
 6647POPC   C1A23247  36.916  14.410   8.553
 6647POPC   D2A23248  36.914  14.377   8.253
 6647POPC   C3A23249  36.866  14.447   7.953
 6647POPC   C4A23250  36.928  14.366   7.653
 6647POPC   C1B23251  36.706  14.265   8.553
 6647POPC   C2B23252  36.678  14.318   8.253
 6647POPC   C3B23253  36.674  14.285   7.953
 6647POPC   C4B23254  36.671  14.294   7.653
 6648POPC   NC323255  16.734  26.062   9.453
 6648POPC   PO423256  16.694  26.025   9.153
 6648POPC   GL123257  16.740  26.045   8.853
 6648POPC   GL223258  16.840  25.982   8.853
 6648POPC   C1A23259  16.777  26.042   8.553
 6648POPC   D2A23260  16.729  25.993   8.253
 6648POPC   C3A23261  16.728  26.044   7.953
 6648POPC   C4A23262  16.779  25.994   7.653
 6648POPC   C1B23263  16.897  25.858   8.553
 6648POPC   C2B23264  16.860  25.874   8.253
 6648POPC   C3B23265  16.924  25.823   7.953
 6648POPC   C4B23266  16.891  25.883   7.653
 6649POPC   NC323267   6.651  42.355   9.453
 6649POPC   PO423268   6.662  42.286   9.153
 6649POPC   GL123269   6.680  42.377   8.853
 6649POPC   GL223270   6.685  42.185   8.853
 6649POPC   C1A23271   6.623  42.286   8.553
 6649POPC   D2A23272   6.651  42.347   8.253
 6649POPC   C3A23273   6.601  42.292   7.953
 6649POPC   C4A23274   6.670  42.296   7.653
 6649POPC   C1B23275   6.700  42.132   8.553
 6649POPC   C2B23276   6.705  42.093   8.253
 6649POPC   C3B23277   6.722  42.102   7.953
 6649POPC   C4B23278   6.744  42.108   7.653
 6650POPC   NC323279  31.465   6.634   9.453
 6650POPC   PO423280  31.493   6.640   9.153
 6650POPC   GL123281  31.477   6.662   8.853
 6650POPC   GL223282  31.539   6.747   8.853
 6650POPC   C1A23283  31.441   6.666   8.553
 6650POPC   D2A23284  31.521   6.663   8.253
 6650POPC   C3A23285  31.476   6.671   7.953
 6650POPC   C4A23286  31.461   6.656   7.653
 6650POPC   C1B23287  31.678   6.815   8.553
 6650POPC   C2B23288  31.692   6.760   8.253
 6650POPC   C3B23289  31.718   6.817   7.953
 6650POPC   C4B23290  31.646   6.753   7.653
 6651POPC   NC323291  18.264  44.659   9.453
 6651POPC   PO423292  18.250  44.638   9.153
 6651POPC   GL123293  18.269  44.712   8.853
 6651POPC   GL223294  18.175  44.619   8.853
 6651POPC   C1A23295  18.331  44.700   8.553
 6651POPC   D2A23296  18.245  44.707   8.253
 6651POPC   C3A23297  18.247  44.702   7.953
 6651POPC   C4A23298  18.240  44.712   7.653
 6651POPC   C1B23299  18.068  44.537   8.553
 6651POPC   C2B23300  18.022  44.606   8.253
 6651POPC   C3B23301  18.010  44.542   7.953
 6651POPC   C4B23302  18.015  44.569   7.653
 6652POPC   NC323303   1.951  39.974   9.453
 6652POPC   PO423304   2.026  40.015   9.153
 6652POPC   GL123305   2.034  40.014   8.853
 6652POPC   GL223306   2.009  40.083   8.853
 6652POPC   C1A23307   1.983  40.032   8.553
 6652POPC   D2A23308   2.020  40.011   8.253
 6652POPC   C3A23309   2.032  40.012   7.953
 6652POPC   C4A23310   2.001  40.029   7.653
 6652POPC   C1B23311   2.036  40.272   8.553
 6652POPC   C2B23312   1.982  40.278   8.253
 6652POPC   C3B23313   2.041  40.265   7.953
 6652POPC   C4B23314   2.024  40.279   7.653
 6653POPC   NC323315  11.292  29.129   9.453
 6653POPC   PO423316  11.288  29.181   9.153
 6653POPC   GL123317  11.298  29.107   8.853
 6653POPC   GL223318  11.195  29.219   8.853
 6653POPC   C1A23319  11.252  29.103   8.553
 6653POPC   D2A23320  11.305  29.149   8.253
 6653POPC   C3A23321  11.285  29.154   7.953
 6653POPC   C4A23322  11.304  29.127   7.653
 6653POPC   C1B23323  11.067  29.250   8.553
 6653POPC   C2B23324  11.054  29.275   8.253
 6653POPC   C3B23325  11.022  29.252   7.953
 6653POPC   C4B23326  11.093  29.200   7.653
 6654POPC   NC323327  43.910  43.131   9.453
 6654POPC   PO423328  43.863  43.149   9.153
 6654POPC   GL123329  43.919  43.093   8.853
 6654POPC   GL223330  43.916  42.996   8.853
 6654POPC   C1A23331  43.849  43.066   8.553
 6654POPC   D2A23332  43.880  43.130   8.253
 6654POPC   C3A23333  43.909  43.100   7.953
 6654POPC   C4A23334  43.862  43.158   7.653
 6654POPC   C1B23335  44.000  42.913   8.553
 6654POPC   C2B23336  44.083  42.913   8.253
 6654POPC   C3B23337  44.028  42.954   7.953
 6654POPC   C4B23338  44.075  42.962   7.653
 6655POPC   NC323339  38.441  12.877   9.453
 6655POPC   PO423340  38.454  12.815   9.153
 6655POPC   GL123341  38.474  12.807   8.853
 6655POPC   GL223342  38.519  12.771   8.853
 6655POPC   C1A23343  38.450  12.809   8.553
 6655POPC   D2A23344  38.453  12.898   8.253
 6655POPC   C3A23345  38.432  12.853   7.953
 6655POPC   C4A23346  38.471  12.859   7.653
 6655POPC   C1B23347  38.519  12.662   8.553
 6655POPC   C2B23348  38.530  12.593   8.253
 6655POPC   C3B23349  38.524  12.577   7.953
 6655POPC   C4B23350  38.519  12.644   7.653
 6656POPC   NC323351  28.394  43.912   9.453
 6656POPC   PO423352  28.333  43.846   9.153
 6656POPC   GL123353  28.355  43.836   8.853
 6656POPC   GL223354  28.299  43.830   8.853
 6656POPC   C1A23355  28.384  43.923   8.553
 6656POPC   D2A23356  28.379  43.911   8.253
 6656POPC   C3A23357  28.388  43.864   7.953
 6656POPC   C4A23358  28.346  43.859   7.653
 6656POPC   C1B23359  28.201  43.782   8.553
 6656POPC   C2B23360  28.119  43.711   8.253
 6656POPC   C3B23361  28.145  43.738   7.953
 6656POPC   C4B23362  28.132  43.733   7.653
 6657POPC   NC323363  17.497  23.692   9.453
 6657POPC   PO423364  17.522  23.734   9.153
 6657POPC   GL123365  17.535  23.734   8.853
 6657POPC   GL223366  17.545  23.863   8.853
 6657POPC   C1A23367  17.504  23.689   8.553
 6657POPC   D2A23368  17.548  23.675   8.253
 6657POPC   C3A23369  17.538  23.746   7.953
 6657POPC   C4A23370  17.546  23.712   7.653
 6657POPC   C1B23371  17.566  23.924   8.553
 6657POPC   C2B23372  17.544  24.005   8.253
 6657POPC   C3B23373  17.502  24.003   7.953
 6657POPC   C4B23374  17.564  24.010   7.653
 6658POPC   NC323375   3.567  10.530   9.453
 6658POPC   PO423376   3.534  10.547   9.153
 6658POPC   GL123377   3.519  10.563   8.853
 6658POPC   GL223378   3.646  10.464   8.853
 6658POPC   C1A23379   3.531  10.495   8.553
 6658POPC   D2A23380   3.500  10.573   8.253
 6658POPC   C3A23381   3.539  10.510   7.953
 6658POPC   C4A23382   3.555  10.485   7.653
 6658POPC   C1B23383   3.736  10.321   8.553
 6658POPC   C2B23384   3.660  10.369   8.253
 6658POPC   C3B23385   3.712  10.362   7.953
 6658POPC   C4B23386   3.656  10.318   7.653
 6659POPC   NC323387  40.766  13.630   9.453
 6659POPC   PO423388  40.784  13.612   9.153
 6659POPC   GL123389  40.789  13.579   8.853
 6659POPC   GL223390  40.672  13.521   8.853
 6659POPC   C1A23391  40.743  13.619   8.553
 6659POPC   D2A23392  40.742  13.607   8.253
 6659POPC   C3A23393  40.744  13.582   7.953
 6659POPC   C4A23394  40.809  13.654   7.653
 6659POPC   C1B23395  40.606  13.524   8.553
 6659POPC   C2B23396  40.610  13.499   8.253
 6659POPC   C3B23397  40.565  13.504   7.953
 6659POPC   C4B23398  40.568  13.479   7.653
 6660POPC   NC323399  29.129  13.590   9.453
 6660POPC   PO423400  29.183  13.585   9.153
 6660POPC   GL123401  29.142  13.675   8.853
 6660POPC   GL223402  29.013  13.696   8.853
 6660POPC   C1A23403  29.103  13.652   8.553
 6660POPC   D2A23404  29.172  13.675   8.253
 6660POPC   C3A23405  29.111  13.583   7.953
 6660POPC   C4A23406  29.180  13.646   7.653
 6660POPC   C1B23407  28.942  13.834   8.553
 6660POPC   C2B23408  28.999  13.768   8.253
 6660POPC   C3B23409  28.992  13.780   7.953
 6660POPC   C4B23410  28.989  13.807   7.653
 6661POPC   NC323411  32.207  26.823   9.453
 6661POPC   PO423412  32.226  26.793   9.153
 6661POPC   GL123413  32.246  26.836   8.853
 6661POPC   GL223414  32.334  26.720   8.853
 6661POPC   C1A23415  32.292  26.777   8.553
 6661POPC   D2A23416  32.233  26.855   8.253
 6661POPC   C3A23417  32.213  26.809   7.953
 6661POPC   C4A23418  32.207  26.800   7.653
 6661POPC   C1B23419  32.440  26.699   8.553
 6661POPC   C2B23420  32.491  26.717   8.253
 6661POPC   C3B23421  32.493  26.667   7.953
 6661POPC   C4B23422  32.434  26.638   7.653
 6662POPC   NC323423  40.004  14.407   9.453
 6662POPC   PO423424  40.010  14.402   9.153
 6662POPC   GL123425  39.984  14.364   8.853
 6662POPC   GL223426  39.876  14.449   8.853
 6662POPC   C1A23427  40.019  14.355   8.553
 6662POPC   D2A23428  40.011  14.360   8.253
 6662POPC   C3A23429  39.986  14.428   7.953
 6662POPC   C4A23430  39.997  14.397   7.653
 6662POPC   C1B23431  39.770  14.374   8.553
 6662POPC   C2B23432  39.780  14.435   8.253
 6662POPC   C3B23433  39.775  14.381   7.953
 6662POPC   C4B23434  39.782  14.415   7.653
 6663POPC   NC323435  44.712  44.677   9.453
 6663POPC   PO423436  44.665  44.617   9.153
 6663POPC   GL123437  44.700  44.662   8.853
 6663POPC   GL223438  44.679  44.771   8.853
 6663POPC   C1A23439  44.661  44.706   8.553
 6663POPC   D2A23440  44.644  44.679   8.253
 6663POPC   C3A23441  44.617  44.613   7.953
 6663POPC   C4A23442  44.652  44.690   7.653
 6663POPC   C1B23443  44.824  44.911   8.553
 6663POPC   C2B23444  44.782  44.871   8.253
 6663POPC   C3B23445  44.824  44.898   7.953
 6663POPC   C4B23446  44.746  44.846   7.653
 6664POPC   NC323447  19.833  15.198   9.453
 6664POPC   PO423448  19.816  15.160   9.153
 6664POPC   GL123449  19.821  15.197   8.853
 6664POPC   GL223450  19.911  15.261   8.853
 6664POPC   C1A23451  19.847  15.200   8.553
 6664POPC   D2A23452  19.808  15.217   8.253
 6664POPC   C3A23453  19.827  15.134   7.953
 6664POPC   C4A23454  19.878  15.190   7.653
 6664POPC   C1B23455  19.937  15.382   8.553
 6664POPC   C2B23456  19.953  15.386   8.253
 6664POPC   C3B23457  19.941  15.345   7.953
 6664POPC   C4B23458  19.975  15.426   7.653
 6665POPC   NC323459  22.125  22.963   9.453
 6665POPC   PO423460  22.129  22.891   9.153
 6665POPC   GL123461  22.157  22.957   8.853
 6665POPC   GL223462  22.095  23.014   8.853
 6665POPC   C1A23463  22.133  22.965   8.553
 6665POPC   D2A23464  22.206  22.929   8.253
 6665POPC   C3A23465  22.209  22.959   7.953
 6665POPC   C4A23466  22.174  22.965   7.653
 6665POPC   C1B23467  22.109  23.215   8.553
 6665POPC   C2B23468  22.132  23.192   8.253
 6665POPC   C3B23469  22.067  23.198   7.953
 6665POPC   C4B23470  22.127  23.146   7.653
 6666POPC   NC323471  44.677  35.366   9.453
 6666POPC   PO423472  44.630  35.338   9.153
 6666POPC   GL123473  44.621  35.353   8.853
 6666POPC   GL223474  44.551  35.372   8.853
 6666POPC   C1A23475  44.691  35.398   8.553
 6666POPC   D2A23476  44.633  35.324   8.253
 6666POPC   C3A23477  44.703  35.394   7.953
 6666POPC   C4A23478  44.692  35.311   7.653
 6666POPC   C1B23479  44.453  35.366   8.553
 6666POPC   C2B23480  44.444  35.384   8.253
 6666POPC   C3B23481  44.466  35.411   7.953
 6666POPC   C4B23482  44.381  35.434   7.653
 6667POPC   NC323483  12.885  37.718   9.453
 6667POPC   PO423484  12.810  37.704   9.153
 6667POPC   GL123485  12.877  37.694   8.853
 6667POPC   GL223486  12.942  37.790   8.853
 6667POPC   C1A23487  12.827  37.719   8.553
 6667POPC   D2A23488  12.894  37.661   8.253
 6667POPC   C3A23489  12.856  37.726   7.953
 6667POPC   C4A23490  12.877  37.672   7.653
 6667POPC   C1B23491  13.021  37.791   8.553
 6667POPC   C2B23492  13.094  37.835   8.253
 6667POPC   C3B23493  13.026  37.845   7.953
 6667POPC   C4B23494  13.043  37.808   7.653
 6668POPC   NC323495  36.122  15.949   9.453
 6668POPC   PO423496  36.091  15.940   9.153
 6668POPC   GL123497  36.130  15.957   8.853
 6668POPC   GL223498  36.064  15.818   8.853
 6668POPC   C1A23499  36.150  15.972   8.553
 6668POPC   D2A23500  36.151  15.923   8.253
 6668POPC   C3A23501  36.115  15.915   7.953
 6668POPC   C4A23502  36.089  15.966   7.653
 6668POPC   C1B23503  36.027  15.775   8.553
 6668POPC   C2B23504  36.036  15.737   8.253
 6668POPC   C3B23505  35.983  15.756   7.953
 6668POPC   C4B23506  36.034  15.720   7.653
 6669POPC   NC323507  10.547   5.854   9.453
 6669POPC   PO423508  10.484   5.830   9.153
 6669POPC   GL123509  10.481   5.888   8.853
 6669POPC   GL223510  10.453   5.775   8.853
 6669POPC   C1A23511  10.485   5.828   8.553
 6669POPC   D2A23512  10.548   5.857   8.253
 6669POPC   C3A23513  10.499   5.832   7.953
 6669POPC   C4A23514  10.476   5.820   7.653
 6669POPC   C1B23515  10.309   5.772   8.553
 6669POPC   C2B23516  10.298   5.723   8.253
 6669POPC   C3B23517  10.280   5.773   7.953
 6669POPC   C4B23518  10.337   5.787   7.653
 6670POPC   NC323519  26.085  15.918   9.453
 6670POPC   PO423520  26.039  15.996   9.153
 6670POPC   GL123521  26.029  15.928   8.853
 6670POPC   GL223522  25.970  15.857   8.853
 6670POPC   C1A23523  26.001  15.958   8.553
 6670POPC   D2A23524  26.084  15.916   8.253
 6670POPC   C3A23525  26.048  15.936   7.953
 6670POPC   C4A23526  26.080  15.950   7.653
 6670POPC   C1B23527  25.945  15.748   8.553
 6670POPC   C2B23528  25.880  15.701   8.253
 6670POPC   C3B23529  25.940  15.739   7.953
 6670POPC   C4B23530  25.863  15.774   7.653
 6671POPC   NC323531  12.876  25.301   9.453
 6671POPC   PO423532  12.896  25.257   9.153
 6671POPC   GL123533  12.836  25.270   8.853
 6671POPC   GL223534  12.969  25.200   8.853
 6671POPC   C1A23535  12.835  25.250   8.553
 6671POPC   D2A23536  12.823  25.272   8.253
 6671POPC   C3A23537  12.830  25.273   7.953
 6671POPC   C4A23538  12.852  25.272   7.653
 6671POPC   C1B23539  12.984  25.041   8.553
 6671POPC   C2B23540  13.014  25.065   8.253
 6671POPC   C3B23541  12.988  25.076   7.953
 6671POPC   C4B23542  12.941  25.036   7.653
 6672POPC   NC323543   9.737  34.553   9.453
 6672POPC   PO423544   9.743  34.534   9.153
 6672POPC   GL123545   9.747  34.542   8.853
 6672POPC   GL223546   9.654  34.446   8.853
 6672POPC   C1A23547   9.718  34.569   8.553
 6672POPC   D2A23548   9.755  34.602   8.253
 6672POPC   C3A23549   9.717  34.558   7.953
 6672POPC   C4A23550   9.742  34.546   7.653
 6672POPC   C1B23551   9.565  34.383   8.553
 6672POPC   C2B23552   9.616  34.410   8.253
 6672POPC   C3B23553   9.578  34.442   7.953
 6672POPC   C4B23554   9.555  34.373   7.653
 6673POPC   NC323555  36.939  44.663   9.453
 6673POPC   PO423556  36.938  44.680   9.153
 6673POPC   GL123557  36.930  44.620   8.853
 6673POPC   GL223558  36.979  44.577   8.853
 6673POPC   C1A23559  36.867  44.657   8.553
 6673POPC   D2A23560  36.903  44.710   8.253
 6673POPC   C3A23561  36.948  44.705   7.953
 6673POPC   C4A23562  36.886  44.620   7.653
 6673POPC   C1B23563  37.154  44.537   8.553
 6673POPC   C2B23564  37.117  44.545   8.253
 6673POPC   C3B23565  37.105  44.550   7.953
 6673POPC   C4B23566  37.155  44.547   7.653
 6674POPC   NC323567  43.148  15.952   9.453
 6674POPC   PO423568  43.152  15.995   9.153
 6674POPC   GL123569  43.130  15.980   8.853
 6674POPC   GL223570  43.138  16.085   8.853
 6674POPC   C1A23571  43.118  15.989   8.553
 6674POPC   D2A23572  43.094  15.997   8.253
 6674POPC   C3A23573  43.088  15.948   7.953
 6674POPC   C4A23574  43.109  15.940   7.653
 6674POPC   C1B23575  43.135  16.165   8.553
 6674POPC   C2B23576  43.175  16.201   8.253
 6674POPC   C3B23577  43.180  16.231   7.953
 6674POPC   C4B23578  43.154  16.172   7.653
 6675POPC   NC323579  21.412  12.882   9.453
 6675POPC   PO423580  21.402  12.838   9.153
 6675POPC   GL123581  21.382  12.882   8.853
 6675POPC   GL223582  21.280  12.710   8.853
 6675POPC   C1A23583  21.361  12.870   8.553
 6675POPC   D2A23584  21.434  12.835   8.253
 6675POPC   C3A23585  21.429  12.847   7.953
 6675POPC   C4A23586  21.337  12.804   7.653
 6675POPC   C1B23587  21.297  12.674   8.553
 6675POPC   C2B23588  21.264  12.600   8.253
 6675POPC   C3B23589  21.290  12.657   7.953
 6675POPC   C4B23590  21.238  12.592   7.653
 6676POPC   NC323591  14.430   8.182   9.453
 6676POPC   PO423592  14.428   8.170   9.153
 6676POPC   GL123593  14.437   8.223   8.853
 6676POPC   GL223594  14.509   8.283   8.853
 6676POPC   C1A23595  14.411   8.198   8.553
 6676POPC   D2A23596  14.362   8.154   8.253
 6676POPC   C3A23597  14.414   8.238   7.953
 6676POPC   C4A23598  14.383   8.245   7.653
 6676POPC   C1B23599  14.562   8.343   8.553
 6676POPC   C2B23600  14.572   8.305   8.253
 6676POPC   C3B23601  14.640   8.362   7.953
 6676POPC   C4B23602  14.604   8.359   7.653
 6677POPC   NC323603  39.240  10.532   9.453
 6677POPC   PO423604  39.221  10.515   9.153
 6677POPC   GL123605  39.182  10.555   8.853
 6677POPC   GL223606  39.128  10.659   8.853
 6677POPC   C1A23607  39.229  10.526   8.553
 6677POPC   D2A23608  39.222  10.548   8.253
 6677POPC   C3A23609  39.273  10.567   7.953
 6677POPC   C4A23610  39.230  10.520   7.653
 6677POPC   C1B23611  39.075  10.755   8.553
 6677POPC   C2B23612  39.137  10.707   8.253
 6677POPC   C3B23613  39.067  10.724   7.953
 6677POPC   C4B23614  39.148  10.726   7.653
 6678POPC   NC323615  21.373  26.834   9.453
 6678POPC   PO423616  21.356  26.826   9.153
 6678POPC   GL123617  21.385  26.771   8.853
 6678POPC   GL223618  21.322  26.709   8.853
 6678POPC   C1A23619  21.355  26.787   8.553
 6678POPC   D2A23620  21.351  26.787   8.253
 6678POPC   C3A23621  21.406  26.867   7.953
 6678POPC   C4A23622  21.375  26.859   7.653
 6678POPC   C1B23623  21.184  26.628   8.553
 6678POPC   C2B23624  21.206  26.626   8.253
 6678POPC   C3B23625  21.186  26.637   7.953
 6678POPC   C4B23626  21.157  26.701   7.653
 6679POPC   NC323627  21.418  43.910   9.453
 6679POPC   PO423628  21.430  43.838   9.153
 6679POPC   GL123629  21.341  43.933   8.853
 6679POPC   GL223630  21.258  43.883   8.853
 6679POPC   C1A23631  21.416  43.857   8.553
 6679POPC   D2A23632  21.357  43.909   8.253
 6679POPC   C3A23633  21.387  43.866   7.953
 6679POPC   C4A23634  21.377  43.928   7.653
 6679POPC   C1B23635  21.138  43.854   8.553
 6679POPC   C2B23636  21.117  43.778   8.253
 6679POPC   C3B23637  21.104  43.780   7.953
 6679POPC   C4B23638  21.155  43.783   7.653
 6680POPC   NC323639   8.154  32.976   9.453
 6680POPC   PO423640   8.191  33.062   9.153
 6680POPC   GL123641   8.235  33.007   8.853
 6680POPC   GL223642   8.093  33.055   8.853
 6680POPC   C1A23643   8.226  32.999   8.553
 6680POPC   D2A23644   8.229  33.031   8.253
 6680POPC   C3A23645   8.214  33.015   7.953
 6680POPC   C4A23646   8.150  33.030   7.653
 6680POPC   C1B23647   7.991  33.054   8.553
 6680POPC   C2B23648   7.947  33.094   8.253
 6680POPC   C3B23649   7.952  33.104   7.953
 6680POPC   C4B23650   7.961  33.047   7.653
 6681POPC   NC323651  22.961  13.589   9.453
 6681POPC   PO423652  22.946  13.583   9.153
 6681POPC   GL123653  22.910  13.634   8.853
 6681POPC   GL223654  22.985  13.486   8.853
 6681POPC   C1A23655  22.978  13.620   8.553
 6681POPC   D2A23656  22.968  13.669   8.253
 6681POPC   C3A23657  22.939  13.642   7.953
 6681POPC   C4A23658  22.968  13.675   7.653
 6681POPC   C1B23659  22.981  13.371   8.553
 6681POPC   C2B23660  22.988  13.371   8.253
 6681POPC   C3B23661  22.987  13.365   7.953
 6681POPC   C4B23662  22.934  13.413   7.653
 6682POPC   NC323663  35.329  32.992   9.453
 6682POPC   PO423664  35.351  33.043   9.153
 6682POPC   GL123665  35.397  33.064   8.853
 6682POPC   GL223666  35.274  32.950   8.853
 6682POPC   C1A23667  35.401  32.983   8.553
 6682POPC   D2A23668  35.350  33.072   8.253
 6682POPC   C3A23669  35.357  32.992   7.953
 6682POPC   C4A23670  35.391  33.010   7.653
 6682POPC   C1B23671  35.290  32.801   8.553
 6682POPC   C2B23672  35.284  32.756   8.253
 6682POPC   C3B23673  35.307  32.814   7.953
 6682POPC   C4B23674  35.236  32.781   7.653
 6683POPC   NC323675   0.472   2.773   9.453
 6683POPC   PO423676   0.414   2.778   9.153
 6683POPC   GL123677   0.483   2.727   8.853
 6683POPC   GL223678   0.523   2.620   8.853
 6683POPC   C1A23679   0.396   2.728   8.553
 6683POPC   D2A23680   0.435   2.814   8.253
 6683POPC   C3A23681   0.408   2.804   7.953
 6683POPC   C4A23682   0.438   2.768   7.653
 6683POPC   C1B23683   0.520   2.530   8.553
 6683POPC   C2B23684   0.573   2.529   8.253
 6683POPC   C3B23685   0.595   2.564   7.953
 6683POPC   C4B23686   0.581   2.492   7.653
 6684POPC   NC323687  23.724  28.349   9.453
 6684POPC   PO423688  23.757  28.410   9.153
 6684POPC   GL123689  23.701  28.366   8.853
 6684POPC   GL223690  23.640  28.223   8.853
 6684POPC   C1A23691  23.720  28.365   8.553
 6684POPC   D2A23692  23.725  28.340   8.253
 6684POPC   C3A23693  23.755  28.350   7.953
 6684POPC   C4A23694  23.731  28.413   7.653
 6684POPC   C1B23695  23.665  28.081   8.553
 6684POPC   C2B23696  23.681  28.111   8.253
 6684POPC   C3B23697  23.636  28.169   7.953
 6684POPC   C4B23698  23.639  28.169   7.653
 6685POPC   NC323699  34.557  27.576   9.453
 6685POPC   PO423700  34.541  27.635   9.153
 6685POPC   GL123701  34.559  27.582   8.853
 6685POPC   GL223702  34.508  27.707   8.853
 6685POPC   C1A23703  34.626  27.615   8.553
 6685POPC   D2A23704  34.600  27.558   8.253
 6685POPC   C3A23705  34.551  27.544   7.953
 6685POPC   C4A23706  34.599  27.590   7.653
 6685POPC   C1B23707  34.483  27.771   8.553
 6685POPC   C2B23708  34.477  27.792   8.253
 6685POPC   C3B23709  34.446  27.823   7.953
 6685POPC   C4B23710  34.468  27.795   7.653
 6686POPC   NC323711  12.889   1.993   9.453
 6686POPC   PO423712  12.898   1.999   9.153
 6686POPC   GL123713  12.881   2.000   8.853
 6686POPC   GL223714  12.976   2.077   8.853
 6686POPC   C1A23715  12.822   2.031   8.553
 6686POPC   D2A23716  12.854   1.972   8.253
 6686POPC   C3A23717  12.824   2.001   7.953
 6686POPC   C4A23718  12.867   1.954   7.653
 6686POPC   C1B23719  13.052   2.154   8.553
 6686POPC   C2B23720  13.007   2.168   8.253
 6686POPC   C3B23721  13.007   2.143   7.953
 6686POPC   C4B23722  13.021   2.150   7.653
 6687POPC   NC323723  40.738   6.617   9.453
 6687POPC   PO423724  40.782   6.624   9.153
 6687POPC   GL123725  40.760   6.690   8.853
 6687POPC   GL223726  40.670   6.726   8.853
 6687POPC   C1A23727  40.770   6.670   8.553
 6687POPC   D2A23728  40.742   6.600   8.253
 6687POPC   C3A23729  40.832   6.673   7.953
 6687POPC   C4A23730  40.796   6.604   7.653
 6687POPC   C1B23731  40.627   6.822   8.553
 6687POPC   C2B23732  40.701   6.830   8.253
 6687POPC   C3B23733  40.677   6.851   7.953
 6687POPC   C4B23734  40.706   6.835   7.653
 6688POPC   NC323735  16.688   5.092   9.453
 6688POPC   PO423736  16.731   5.076   9.153
 6688POPC   GL123737  16.748   5.069   8.853
 6688POPC   GL223738  16.662   5.182   8.853
 6688POPC   C1A23739  16.694   5.110   8.553
 6688POPC   D2A23740  16.695   5.080   8.253
 6688POPC   C3A23741  16.708   5.143   7.953
 6688POPC   C4A23742  16.685   5.121   7.653
 6688POPC   C1B23743  16.681   5.319   8.553
 6688POPC   C2B23744  16.619   5.291   8.253
 6688POPC   C3B23745  16.626   5.332   7.953
 6688POPC   C4B23746  16.691   5.353   7.653
 6689POPC   NC323747  40.796  27.581   9.453
 6689POPC   PO423748  40.738  27.569   9.153
 6689POPC   GL123749  40.788  27.591   8.853
 6689POPC   GL223750  40.748  27.727   8.853
 6689POPC   C1A23751  40.813  27.579   8.553
 6689POPC   D2A23752  40.798  27.562   8.253
 6689POPC   C3A23753  40.752  27.573   7.953
 6689POPC   C4A23754  40.742  27.564   7.653
 6689POPC   C1B23755  40.850  27.817   8.553
 6689POPC   C2B23756  40.815  27.818   8.253
 6689POPC   C3B23757  40.820  27.864   7.953
 6689POPC   C4B23758  40.835  27.808   7.653
 6690POPC   NC323759  36.152  17.511   9.453
 6690POPC   PO423760  36.094  17.519   9.153
 6690POPC   GL123761  36.169  17.475   8.853
 6690POPC   GL223762  36.029  17.599   8.853
 6690POPC   C1A23763  36.114  17.517   8.553
 6690POPC   D2A23764  36.142  17.498   8.253
 6690POPC   C3A23765  36.095  17.555   7.953
 6690POPC   C4A23766  36.134  17.499   7.653
 6690POPC   C1B23767  36.022  17.756   8.553
 6690POPC   C2B23768  35.975  17.776   8.253
 6690POPC   C3B23769  36.042  17.711   7.953
 6690POPC   C4B23770  35.974  17.764   7.653
 6691POPC   NC323771  31.464   5.105   9.453
 6691POPC   PO423772  31.470   5.064   9.153
 6691POPC   GL123773  31.461   5.080   8.853
 6691POPC   GL223774  31.436   4.987   8.853
 6691POPC   C1A23775  31.481   5.124   8.553
 6691POPC   D2A23776  31.425   5.107   8.253
 6691POPC   C3A23777  31.470   5.097   7.953
 6691POPC   C4A23778  31.462   5.122   7.653
 6691POPC   C1B23779  31.341   4.937   8.553
 6691POPC   C2B23780  31.371   4.865   8.253
 6691POPC   C3B23781  31.362   4.921   7.953
 6691POPC   C4B23782  31.339   4.916   7.653
 6692POPC   NC323783  38.451  28.413   9.453
 6692POPC   PO423784  38.467  28.417   9.153
 6692POPC   GL123785  38.439  28.325   8.853
 6692POPC   GL223786  38.509  28.494   8.853
 6692POPC   C1A23787  38.441  28.348   8.553
 6692POPC   D2A23788  38.432  28.393   8.253
 6692POPC   C3A23789  38.426  28.381   7.953
 6692POPC   C4A23790  38.438  28.397   7.653
 6692POPC   C1B23791  38.538  28.559   8.553
 6692POPC   C2B23792  38.594  28.627   8.253
 6692POPC   C3B23793  38.526  28.610   7.953
 6692POPC   C4B23794  38.573  28.609   7.653
 6693POPC   NC323795  44.708  22.155   9.453
 6693POPC   PO423796  44.618  22.189   9.153
 6693POPC   GL123797  44.628  22.124   8.853
 6693POPC   GL223798  44.531  22.207   8.853
 6693POPC   C1A23799  44.691  22.176   8.553
 6693POPC   D2A23800  44.684  22.121   8.253
 6693POPC   C3A23801  44.688  22.188   7.953
 6693POPC   C4A23802  44.620  22.152   7.653
 6693POPC   C1B23803  44.436  22.345   8.553
 6693POPC   C2B23804  44.420  22.261   8.253
 6693POPC   C3B23805  44.463  22.280   7.953
 6693POPC   C4B23806  44.437  22.343   7.653
 6694POPC   NC323807  43.907  18.284   9.453
 6694POPC   PO423808  43.905  18.268   9.153
 6694POPC   GL123809  43.903  18.315   8.853
 6694POPC   GL223810  44.020  18.364   8.853
 6694POPC   C1A23811  43.931  18.285   8.553
 6694POPC   D2A23812  43.916  18.286   8.253
 6694POPC   C3A23813  43.844  18.247   7.953
 6694POPC   C4A23814  43.866  18.315   7.653
 6694POPC   C1B23815  44.082  18.365   8.553
 6694POPC   C2B23816  44.073  18.413   8.253
 6694POPC   C3B23817  44.130  18.392   7.953
 6694POPC   C4B23818  44.095  18.368   7.653
 6695POPC   NC323819  22.177  19.048   9.453
 6695POPC   PO423820  22.137  19.093   9.153
 6695POPC   GL123821  22.195  19.047   8.853
 6695POPC   GL223822  22.187  18.954   8.853
 6695POPC   C1A23823  22.115  19.017   8.553
 6695POPC   D2A23824  22.135  19.071   8.253
 6695POPC   C3A23825  22.158  19.063   7.953
 6695POPC   C4A23826  22.178  19.064   7.653
 6695POPC   C1B23827  22.102  18.768   8.553
 6695POPC   C2B23828  22.097  18.815   8.253
 6695POPC   C3B23829  22.103  18.846   7.953
 6695POPC   C4B23830  22.172  18.768   7.653
 6696POPC   NC323831   1.173  22.203   9.453
 6696POPC   PO423832   1.193  22.137   9.153
 6696POPC   GL123833   1.199  22.166   8.853
 6696POPC   GL223834   1.117  22.179   8.853
 6696POPC   C1A23835   1.177  22.158   8.553
 6696POPC   D2A23836   1.261  22.173   8.253
 6696POPC   C3A23837   1.201  22.168   7.953
 6696POPC   C4A23838   1.219  22.165   7.653
 6696POPC   C1B23839   0.940  22.089   8.553
 6696POPC   C2B23840   0.954  22.085   8.253
 6696POPC   C3B23841   0.984  22.084   7.953
 6696POPC   C4B23842   1.007  22.110   7.653
 6697POPC   NC323843   4.304  42.378   9.453
 6697POPC   PO423844   4.323  42.367   9.153
 6697POPC   GL123845   4.286  42.306   8.853
 6697POPC   GL223846   4.371  42.171   8.853
 6697POPC   C1A23847   4.342  42.383   8.553
 6697POPC   D2A23848   4.315  42.350   8.253
 6697POPC   C3A23849   4.354  42.362   7.953
 6697POPC   C4A23850   4.278  42.365   7.653
 6697POPC   C1B23851   4.344  42.062   8.553
 6697POPC   C2B23852   4.374  42.067   8.253
 6697POPC   C3B23853   4.358  42.083   7.953
 6697POPC   C4B23854   4.385  42.100   7.653
 6698POPC   NC323855  11.323  15.175   9.453
 6698POPC   PO423856  11.273  15.196   9.153
 6698POPC   GL123857  11.282  15.206   8.853
 6698POPC   GL223858  11.178  15.275   8.853
 6698POPC   C1A23859  11.335  15.188   8.553
 6698POPC   D2A23860  11.324  15.199   8.253
 6698POPC   C3A23861  11.340  15.185   7.953
 6698POPC   C4A23862  11.263  15.190   7.653
 6698POPC   C1B23863  11.099  15.407   8.553
 6698POPC   C2B23864  11.132  15.396   8.253
 6698POPC   C3B23865  11.096  15.352   7.953
 6698POPC   C4B23866  11.157  15.378   7.653
 6699POPC   NC323867   1.243  17.551   9.453
 6699POPC   PO423868   1.182  17.524   9.153
 6699POPC   GL123869   1.207  17.496   8.853
 6699POPC   GL223870   1.151  17.566   8.853
 6699POPC   C1A23871   1.194  17.501   8.553
 6699POPC   D2A23872   1.191  17.470   8.253
 6699POPC   C3A23873   1.237  17.474   7.953
 6699POPC   C4A23874   1.174  17.502   7.653
 6699POPC   C1B23875   0.983  17.624   8.553
 6699POPC   C2B23876   1.022  17.638   8.253
 6699POPC   C3B23877   1.060  17.679   7.953
 6699POPC   C4B23878   0.974  17.673   7.653
 6700POPC   NC323879  24.527  21.387   9.453
 6700POPC   PO423880  24.466  21.345   9.153
 6700POPC   GL123881  24.463  21.390   8.853
 6700POPC   GL223882  24.536  21.522   8.853
 6700POPC   C1A23883  24.453  21.430   8.553
 6700POPC   D2A23884  24.534  21.379   8.253
 6700POPC   C3A23885  24.522  21.396   7.953
 6700POPC   C4A23886  24.520  21.409   7.653
 6700POPC   C1B23887  24.627  21.636   8.553
 6700POPC   C2B23888  24.662  21.618   8.253
 6700POPC   C3B23889  24.657  21.570   7.953
 6700POPC   C4B23890  24.589  21.636   7.653
 6701POPC   NC323891  11.319  26.004   9.453
 6701POPC   PO423892  11.317  26.046   9.153
 6701POPC   GL123893  11.300  26.089   8.853
 6701POPC   GL223894  11.169  26.084   8.853
 6701POPC   C1A23895  11.305  26.033   8.553
 6701POPC   D2A23896  11.258  26.007   8.253
 6701POPC   C3A23897  11.292  26.055   7.953
 6701POPC   C4A23898  11.309  26.046   7.653
 6701POPC   C1B23899  11.144  26.242   8.553
 6701POPC   C2B23900  11.163  26.207   8.253
 6701POPC   C3B23901  11.085  26.266   7.953
 6701POPC   C4B23902  11.116  26.238   7.653
 6702POPC   NC323903  35.357   1.167   9.453
 6702POPC   PO423904  35.344   1.220   9.153
 6702POPC   GL123905  35.352   1.231   8.853
 6702POPC   GL223906  35.236   1.142   8.853
 6702POPC   C1A23907  35.307   1.176   8.553
 6702POPC   D2A23908  35.351   1.254   8.253
 6702POPC   C3A23909  35.367   1.185   7.953
 6702POPC   C4A23910  35.324   1.211   7.653
 6702POPC   C1B23911  35.121   1.122   8.553
 6702POPC   C2B23912  35.120   1.215   8.253
 6702POPC   C3B23913  35.147   1.143   7.953
 6702POPC   C4B23914  35.100   1.143   7.653
 6703POPC   NC323915  16.750  29.933   9.453
 6703POPC   PO423916  16.728  29.950   9.153
 6703POPC   GL123917  16.756  29.897   8.853
 6703POPC   GL223918  16.690  30.090   8.853
 6703POPC   C1A23919  16.699  29.918   8.553
 6703POPC   D2A23920  16.773  29.917   8.253
 6703POPC   C3A23921  16.683  29.896   7.953
 6703POPC   C4A23922  16.707  29.931   7.653
 6703POPC   C1B23923  16.737  30.160   8.553
 6703POPC   C2B23924  16.723  30.164   8.253
 6703POPC   C3B23925  16.716  30.191   7.953
 6703POPC   C4B23926  16.791  30.185   7.653
 6704POPC   NC323927  33.036   8.957   9.453
 6704POPC   PO423928  33.008   8.945   9.153
 6704POPC   GL123929  33.016   8.979   8.853
 6704POPC   GL223930  33.047   9.075   8.853
 6704POPC   C1A23931  32.981   8.995   8.553
 6704POPC   D2A23932  33.046   8.978   8.253
 6704POPC   C3A23933  33.026   8.949   7.953
 6704POPC   C4A23934  33.007   8.996   7.653
 6704POPC   C1B23935  33.004   9.239   8.553
 6704POPC   C2B23936  33.019   9.259   8.253
 6704POPC   C3B23937  32.929   9.199   7.953
 6704POPC   C4B23938  32.952   9.241   7.653
 6705POPC   NC323939  40.742  26.081   9.453
 6705POPC   PO423940  40.749  26.087   9.153
 6705POPC   GL123941  40.802  26.068   8.853
 6705POPC   GL223942  40.688  25.948   8.853
 6705POPC   C1A23943  40.757  26.000   8.553
 6705POPC   D2A23944  40.741  26.037   8.253
 6705POPC   C3A23945  40.780  25.998   7.953
 6705POPC   C4A23946  40.797  26.001   7.653
 6705POPC   C1B23947  40.557  25.936   8.553
 6705POPC   C2B23948  40.581  25.893   8.253
 6705POPC   C3B23949  40.575  25.906   7.953
 6705POPC   C4B23950  40.553  25.913   7.653
 6706POPC   NC323951  39.223  19.051   9.453
 6706POPC   PO423952  39.248  19.092   9.153
 6706POPC   GL123953  39.184  19.085   8.853
 6706POPC   GL223954  39.174  19.201   8.853
 6706POPC   C1A23955  39.221  19.065   8.553
 6706POPC   D2A23956  39.279  19.101   8.253
 6706POPC   C3A23957  39.225  19.063   7.953
 6706POPC   C4A23958  39.186  19.088   7.653
 6706POPC   C1B23959  39.071  19.227   8.553
 6706POPC   C2B23960  39.064  19.251   8.253
 6706POPC   C3B23961  39.079  19.225   7.953
 6706POPC   C4B23962  39.067  19.255   7.653
 6707POPC   NC323963   4.311  40.827   9.453
 6707POPC   PO423964   4.326  40.807   9.153
 6707POPC   GL123965   4.274  40.790   8.853
 6707POPC   GL223966   4.237  40.857   8.853
 6707POPC   C1A23967   4.302  40.795   8.553
 6707POPC   D2A23968   4.350  40.796   8.253
 6707POPC   C3A23969   4.363  40.800   7.953
 6707POPC   C4A23970   4.283  40.816   7.653
 6707POPC   C1B23971   4.065  40.939   8.553
 6707POPC   C2B23972   4.069  40.876   8.253
 6707POPC   C3B23973   4.061  40.900   7.953
 6707POPC   C4B23974   4.102  40.931   7.653
 6708POPC   NC323975   5.080  24.530   9.453
 6708POPC   PO423976   5.122  24.469   9.153
 6708POPC   GL123977   5.117  24.535   8.853
 6708POPC   GL223978   4.938  24.454   8.853
 6708POPC   C1A23979   5.113  24.448   8.553
 6708POPC   D2A23980   5.085  24.495   8.253
 6708POPC   C3A23981   5.043  24.470   7.953
 6708POPC   C4A23982   5.061  24.499   7.653
 6708POPC   C1B23983   4.897  24.386   8.553
 6708POPC   C2B23984   4.876  24.338   8.253
 6708POPC   C3B23985   4.856  24.339   7.953
 6708POPC   C4B23986   4.863  24.342   7.653
 6709POPC   NC323987   8.936   8.209   9.453
 6709POPC   PO423988   8.985   8.242   9.153
 6709POPC   GL123989   8.952   8.163   8.853
 6709POPC   GL223990   9.037   8.124   8.853
 6709POPC   C1A23991   8.960   8.147   8.553
 6709POPC   D2A23992   8.970   8.217   8.253
 6709POPC   C3A23993   9.017   8.163   7.953
 6709POPC   C4A23994   8.935   8.217   7.653
 6709POPC   C1B23995   9.095   7.959   8.553
 6709POPC   C2B23996   9.096   7.938   8.253
 6709POPC   C3B23997   9.092   7.933   7.953
 6709POPC   C4B23998   9.048   7.957   7.653
 6710POPC   NC323999  16.773   8.165   9.453
 6710POPC   PO424000  16.692   8.161   9.153
 6710POPC   GL124001  16.739   8.174   8.853
 6710POPC   GL224002  16.631   8.221   8.853
 6710POPC   C1A24003  16.684   8.229   8.553
 6710POPC   D2A24004  16.699   8.201   8.253
 6710POPC   C3A24005  16.689   8.214   7.953
 6710POPC   C4A24006  16.700   8.205   7.653
 6710POPC   C1B24007  16.456   8.142   8.553
 6710POPC   C2B24008  16.460   8.195   8.253
 6710POPC   C3B24009  16.527   8.213   7.953
 6710POPC   C4B24010  16.526   8.212   7.653
 6711POPC   NC324011   1.209  20.655   9.453
 6711POPC   PO424012   1.178  20.592   9.153
 6711POPC   GL124013   1.168  20.579   8.853
 6711POPC   GL224014   1.332  20.539   8.853
 6711POPC   C1A24015   1.168  20.629   8.553
 6711POPC   D2A24016   1.223  20.640   8.253
 6711POPC   C3A24017   1.199  20.622   7.953
 6711POPC   C4A24018   1.214  20.657   7.653
 6711POPC   C1B24019   1.400  20.455   8.553
 6711POPC   C2B24020   1.352  20.484   8.253
 6711POPC   C3B24021   1.353  20.396   7.953
 6711POPC   C4B24022   1.366  20.456   7.653
 6712POPC   NC324023  22.951  41.606   9.453
 6712POPC   PO424024  22.984  41.573   9.153
 6712POPC   GL124025  22.892  41.512   8.853
 6712POPC   GL224026  22.822  41.594   8.853
 6712POPC   C1A24027  22.895  41.593   8.553
 6712POPC   D2A24028  22.953  41.582   8.253
 6712POPC   C3A24029  22.924  41.585   7.953
 6712POPC   C4A24030  22.931  41.606   7.653
 6712POPC   C1B24031  22.672  41.569   8.553
 6712POPC   C2B24032  22.667  41.573   8.253
 6712POPC   C3B24033  22.687  41.530   7.953
 6712POPC   C4B24034  22.689  41.587   7.653
 6713POPC   NC324035   8.926  12.896   9.453
 6713POPC   PO424036   9.008  12.869   9.153
 6713POPC   GL124037   8.979  12.854   8.853
 6713POPC   GL224038   8.877  12.812   8.853
 6713POPC   C1A24039   8.946  12.813   8.553
 6713POPC   D2A24040   8.999  12.813   8.253
 6713POPC   C3A24041   8.925  12.865   7.953
 6713POPC   C4A24042   8.983  12.812   7.653
 6713POPC   C1B24043   8.768  12.835   8.553
 6713POPC   C2B24044   8.690  12.861   8.253
 6713POPC   C3B24045   8.750  12.800   7.953
 6713POPC   C4B24046   8.713  12.813   7.653
 6714POPC   NC324047  15.225   8.930   9.453
 6714POPC   PO424048  15.187   8.992   9.153
 6714POPC   GL124049  15.133   9.020   8.853
 6714POPC   GL224050  15.152   8.896   8.853
 6714POPC   C1A24051  15.132   8.924   8.553
 6714POPC   D2A24052  15.185   9.001   8.253
 6714POPC   C3A24053  15.159   8.942   7.953
 6714POPC   C4A24054  15.191   9.003   7.653
 6714POPC   C1B24055  15.027   8.696   8.553
 6714POPC   C2B24056  15.060   8.714   8.253
 6714POPC   C3B24057  15.070   8.733   7.953
 6714POPC   C4B24058  15.084   8.779   7.653
 6715POPC   NC324059  29.906  42.344   9.453
 6715POPC   PO424060  29.883  42.375   9.153
 6715POPC   GL124061  29.912  42.326   8.853
 6715POPC   GL224062  30.065  42.416   8.853
 6715POPC   C1A24063  29.880  42.334   8.553
 6715POPC   D2A24064  29.922  42.368   8.253
 6715POPC   C3A24065  29.912  42.315   7.953
 6715POPC   C4A24066  29.911  42.296   7.653
 6715POPC   C1B24067  30.120  42.368   8.553
 6715POPC   C2B24068  30.172  42.387   8.253
 6715POPC   C3B24069  30.138  42.388   7.953
 6715POPC   C4B24070  30.171  42.387   7.653
 6716POPC   NC324071  42.329  39.232   9.453
 6716POPC   PO424072  42.371  39.221   9.153
 6716POPC   GL124073  42.384  39.222   8.853
 6716POPC   GL224074  42.250  39.139   8.853
 6716POPC   C1A24075  42.287  39.191   8.553
 6716POPC   D2A24076  42.342  39.266   8.253
 6716POPC   C3A24077  42.378  39.191   7.953
 6716POPC   C4A24078  42.350  39.277   7.653
 6716POPC   C1B24079  42.144  39.142   8.553
 6716POPC   C2B24080  42.103  39.119   8.253
 6716POPC   C3B24081  42.104  39.119   7.953
 6716POPC   C4B24082  42.057  39.111   7.653
 6717POPC   NC324083  37.649  33.019   9.453
 6717POPC   PO424084  37.656  33.034   9.153
 6717POPC   GL124085  37.661  33.046   8.853
 6717POPC   GL224086  37.749  32.943   8.853
 6717POPC   C1A24087  37.708  33.052   8.553
 6717POPC   D2A24088  37.701  33.007   8.253
 6717POPC   C3A24089  37.637  32.975   7.953
 6717POPC   C4A24090  37.634  33.060   7.653
 6717POPC   C1B24091  37.917  32.904   8.553
 6717POPC   C2B24092  37.873  32.858   8.253
 6717POPC   C3B24093  37.839  32.865   7.953
 6717POPC   C4B24094  37.882  32.915   7.653
 6718POPC   NC324095   1.202  12.843   9.453
 6718POPC   PO424096   1.221  12.859   9.153
 6718POPC   GL124097   1.196  12.890   8.853
 6718POPC   GL224098   1.319  12.859   8.853
 6718POPC   C1A24099   1.258  12.834   8.553
 6718POPC   D2A24100   1.183  12.821   8.253
 6718POPC   C3A24101   1.164  12.807   7.953
 6718POPC   C4A24102   1.170  12.842   7.653
 6718POPC   C1B24103   1.423  12.920   8.553
 6718POPC   C2B24104   1.412  12.996   8.253
 6718POPC   C3B24105   1.459  12.990   7.953
 6718POPC   C4B24106   1.445  12.920   7.653
 6719POPC   NC324107  12.901  23.672   9.453
 6719POPC   PO424108  12.832  23.672   9.153
 6719POPC   GL124109  12.887  23.686   8.853
 6719POPC   GL224110  12.756  23.669   8.853
 6719POPC   C1A24111  12.836  23.749   8.553
 6719POPC   D2A24112  12.805  23.750   8.253
 6719POPC   C3A24113  12.860  23.730   7.953
 6719POPC   C4A24114  12.821  23.704   7.653
 6719POPC   C1B24115  12.577  23.679   8.553
 6719POPC   C2B24116  12.594  23.665   8.253
 6719POPC   C3B24117  12.628  23.700   7.953
 6719POPC   C4B24118  12.626  23.709   7.653
 6720POPC   NC324119  12.037   1.209   9.453
 6720POPC   PO424120  12.096   1.259   9.153
 6720POPC   GL124121  12.123   1.218   8.853
 6720POPC   GL224122  12.216   1.254   8.853
 6720POPC   C1A24123  12.056   1.181   8.553
 6720POPC   D2A24124  12.089   1.220   8.253
 6720POPC   C3A24125  12.048   1.255   7.953
 6720POPC   C4A24126  12.048   1.190   7.653
 6720POPC   C1B24127  12.265   1.295   8.553
 6720POPC   C2B24128  12.285   1.303   8.253
 6720POPC   C3B24129  12.266   1.280   7.953
 6720POPC   C4B24130  12.346   1.353   7.653
 6721POPC   NC324131  35.310  24.485   9.453
 6721POPC   PO424132  35.310  24.535   9.153
 6721POPC   GL124133  35.315  24.448   8.853
 6721POPC   GL224134  35.289  24.347   8.853
 6721POPC   C1A24135  35.385  24.509   8.553
 6721POPC   D2A24136  35.329  24.516   8.253
 6721POPC   C3A24137  35.349  24.512   7.953
 6721POPC   C4A24138  35.323  24.501   7.653
 6721POPC   C1B24139  35.252  24.293   8.553
 6721POPC   C2B24140  35.226  24.205   8.253
 6721POPC   C3B24141  35.254  24.216   7.953
 6721POPC   C4B24142  35.241  24.226   7.653
 6722POPC   NC324143  22.891  18.313   9.453
 6722POPC   PO424144  22.944  18.316   9.153
 6722POPC   GL124145  22.901  18.307   8.853
 6722POPC   GL224146  22.833  18.369   8.853
 6722POPC   C1A24147  22.981  18.299   8.553
 6722POPC   D2A24148  22.890  18.328   8.253
 6722POPC   C3A24149  22.979  18.244   7.953
 6722POPC   C4A24150  22.914  18.266   7.653
 6722POPC   C1B24151  22.777  18.445   8.553
 6722POPC   C2B24152  22.753  18.430   8.253
 6722POPC   C3B24153  22.720  18.489   7.953
 6722POPC   C4B24154  22.797  18.422   7.653
 6723POPC   NC324155  27.553  38.494   9.453
 6723POPC   PO424156  27.615  38.449   9.153
 6723POPC   GL124157  27.636  38.415   8.853
 6723POPC   GL224158  27.658  38.366   8.853
 6723POPC   C1A24159  27.553  38.443   8.553
 6723POPC   D2A24160  27.581  38.438   8.253
 6723POPC   C3A24161  27.597  38.457   7.953
 6723POPC   C4A24162  27.615  38.490   7.653
 6723POPC   C1B24163  27.718  38.313   8.553
 6723POPC   C2B24164  27.746  38.219   8.253
 6723POPC   C3B24165  27.787  38.278   7.953
 6723POPC   C4B24166  27.768  38.289   7.653
 6724POPC   NC324167  10.572  40.764   9.453
 6724POPC   PO424168  10.514  40.829   9.153
 6724POPC   GL124169  10.532  40.809   8.853
 6724POPC   GL224170  10.407  40.703   8.853
 6724POPC   C1A24171  10.525  40.804   8.553
 6724POPC   D2A24172  10.573  40.739   8.253
 6724POPC   C3A24173  10.542  40.810   7.953
 6724POPC   C4A24174  10.528  40.822   7.653
 6724POPC   C1B24175  10.288  40.682   8.553
 6724POPC   C2B24176  10.286  40.678   8.253
 6724POPC   C3B24177  10.311  40.714   7.953
 6724POPC   C4B24178  10.337  40.703   7.653
 6725POPC   NC324179   1.250  19.022   9.453
 6725POPC   PO424180   1.216  19.056   9.153
 6725POPC   GL124181   1.195  19.054   8.853
 6725POPC   GL224182   1.173  18.954   8.853
 6725POPC   C1A24183   1.177  19.091   8.553
 6725POPC   D2A24184   1.203  19.009   8.253
 6725POPC   C3A24185   1.186  19.048   7.953
 6725POPC   C4A24186   1.185  19.076   7.653
 6725POPC   C1B24187   1.025  18.872   8.553
 6725POPC   C2B24188   1.047  18.849   8.253
 6725POPC   C3B24189   1.030  18.873   7.953
 6725POPC   C4B24190   1.006  18.908   7.653
 6726POPC   NC324191  14.441  37.637   9.453
 6726POPC   PO424192  14.441  37.706   9.153
 6726POPC   GL124193  14.434  37.670   8.853
 6726POPC   GL224194  14.537  37.747   8.853
 6726POPC   C1A24195  14.373  37.707   8.553
 6726POPC   D2A24196  14.369  37.693   8.253
 6726POPC   C3A24197  14.417  37.698   7.953
 6726POPC   C4A24198  14.358  37.642   7.653
 6726POPC   C1B24199  14.619  37.714   8.553
 6726POPC   C2B24200  14.623  37.744   8.253
 6726POPC   C3B24201  14.605  37.712   7.953
 6726POPC   C4B24202  14.674  37.744   7.653
 6727POPC   NC324203  44.665  18.287   9.453
 6727POPC   PO424204  44.693  18.240   9.153
 6727POPC   GL124205  44.663  18.256   8.853
 6727POPC   GL224206  44.754  18.167   8.853
 6727POPC   C1A24207  44.634  18.281   8.553
 6727POPC   D2A24208  44.621  18.272   8.253
 6727POPC   C3A24209  44.683  18.293   7.953
 6727POPC   C4A24210  44.660  18.294   7.653
 6727POPC   C1B24211  44.723  18.040   8.553
 6727POPC   C2B24212  44.762  18.054   8.253
 6727POPC   C3B24213  44.807  18.100   7.953
 6727POPC   C4B24214  44.772  18.070   7.653
 6728POPC   NC324215  33.835  24.500   9.453
 6728POPC   PO424216  33.772  24.524   9.153
 6728POPC   GL124217  33.800  24.539   8.853
 6728POPC   GL224218  33.724  24.634   8.853
 6728POPC   C1A24219  33.843  24.488   8.553
 6728POPC   D2A24220  33.844  24.453   8.253
 6728POPC   C3A24221  33.804  24.511   7.953
 6728POPC   C4A24222  33.840  24.482   7.653
 6728POPC   C1B24223  33.611  24.676   8.553
 6728POPC   C2B24224  33.654  24.715   8.253
 6728POPC   C3B24225  33.633  24.707   7.953
 6728POPC   C4B24226  33.674  24.649   7.653
 6729POPC   NC324227  26.776  42.354   9.453
 6729POPC   PO424228  26.856  42.332   9.153
 6729POPC   GL124229  26.843  42.344   8.853
 6729POPC   GL224230  26.705  42.345   8.853
 6729POPC   C1A24231  26.843  42.350   8.553
 6729POPC   D2A24232  26.798  42.305   8.253
 6729POPC   C3A24233  26.772  42.377   7.953
 6729POPC   C4A24234  26.819  42.359   7.653
 6729POPC   C1B24235  26.587  42.351   8.553
 6729POPC   C2B24236  26.587  42.415   8.253
 6729POPC   C3B24237  26.530  42.419   7.953
 6729POPC   C4B24238  26.527  42.401   7.653
 6730POPC   NC324239   9.010  36.090   9.453
 6730POPC   PO424240   9.016  36.083   9.153
 6730POPC   GL124241   9.007  36.121   8.853
 6730POPC   GL224242   8.913  36.171   8.853
 6730POPC   C1A24243   8.971  36.141   8.553
 6730POPC   D2A24244   9.002  36.099   8.253
 6730POPC   C3A24245   8.932  36.079   7.953
 6730POPC   C4A24246   9.013  36.086   7.653
 6730POPC   C1B24247   8.779  36.281   8.553
 6730POPC   C2B24248   8.732  36.259   8.253
 6730POPC   C3B24249   8.797  36.315   7.953
 6730POPC   C4B24250   8.794  36.249   7.653
 6731POPC   NC324251  27.548  41.608   9.453
 6731POPC   PO424252  27.572  41.542   9.153
 6731POPC   GL124253  27.591  41.539   8.853
 6731POPC   GL224254  27.670  41.430   8.853
 6731POPC   C1A24255  27.583  41.578   8.553
 6731POPC   D2A24256  27.580  41.558   8.253
 6731POPC   C3A24257  27.622  41.572   7.953
 6731POPC   C4A24258  27.596  41.537   7.653
 6731POPC   C1B24259  27.670  41.278   8.553
 6731POPC   C2B24260  27.705  41.346   8.253
 6731POPC   C3B24261  27.722  41.361   7.953
 6731POPC   C4B24262  27.680  41.317   7.653
 6732POPC   NC324263  22.941  20.623   9.453
 6732POPC   PO424264  22.948  20.619   9.153
 6732POPC   GL124265  22.912  20.651   8.853
 6732POPC   GL224266  22.917  20.537   8.853
 6732POPC   C1A24267  22.964  20.597   8.553
 6732POPC   D2A24268  22.965  20.597   8.253
 6732POPC   C3A24269  22.964  20.656   7.953
 6732POPC   C4A24270  22.966  20.637   7.653
 6732POPC   C1B24271  22.864  20.371   8.553
 6732POPC   C2B24272  22.842  20.372   8.253
 6732POPC   C3B24273  22.864  20.401   7.953
 6732POPC   C4B24274  22.882  20.423   7.653
 6733POPC   NC324275  15.985   8.195   9.453
 6733POPC   PO424276  15.914   8.176   9.153
 6733POPC   GL124277  15.911   8.237   8.853
 6733POPC   GL224278  15.844   8.070   8.853
 6733POPC   C1A24279  15.922   8.152   8.553
 6733POPC   D2A24280  15.973   8.189   8.253
 6733POPC   C3A24281  15.911   8.215   7.953
 6733POPC   C4A24282  15.927   8.242   7.653
 6733POPC   C1B24283  15.800   7.950   8.553
 6733POPC   C2B24284  15.820   7.970   8.253
 6733POPC   C3B24285  15.826   7.944   7.953
 6733POPC   C4B24286  15.820   7.994   7.653
 6734POPC   NC324287   6.609   9.015   9.453
 6734POPC   PO424288   6.663   8.959   9.153
 6734POPC   GL124289   6.668   8.962   8.853
 6734POPC   GL224290   6.561   8.870   8.853
 6734POPC   C1A24291   6.602   9.013   8.553
 6734POPC   D2A24292   6.688   8.993   8.253
 6734POPC   C3A24293   6.665   9.008   7.953
 6734POPC   C4A24294   6.643   8.970   7.653
 6734POPC   C1B24295   6.449   8.798   8.553
 6734POPC   C2B24296   6.445   8.773   8.253
 6734POPC   C3B24297   6.452   8.848   7.953
 6734POPC   C4B24298   6.436   8.849   7.653
 6735POPC   NC324299  32.280   3.585   9.453
 6735POPC   PO424300  32.213   3.561   9.153
 6735POPC   GL124301  32.231   3.581   8.853
 6735POPC   GL224302  32.232   3.618   8.853
 6735POPC   C1A24303  32.294   3.548   8.553
 6735POPC   D2A24304  32.221   3.574   8.253
 6735POPC   C3A24305  32.219   3.579   7.953
 6735POPC   C4A24306  32.243   3.563   7.653
 6735POPC   C1B24307  32.307   3.787   8.553
 6735POPC   C2B24308  32.273   3.756   8.253
 6735POPC   C3B24309  32.241   3.793   7.953
 6735POPC   C4B24310  32.284   3.809   7.653
 6736POPC   NC324311   1.988  40.747   9.453
 6736POPC   PO424312   1.958  40.758   9.153
 6736POPC   GL124313   1.992  40.744   8.853
 6736POPC   GL224314   1.918  40.862   8.853
 6736POPC   C1A24315   1.959  40.753   8.553
 6736POPC   D2A24316   1.976  40.789   8.253
 6736POPC   C3A24317   2.029  40.810   7.953
 6736POPC   C4A24318   1.947  40.751   7.653
 6736POPC   C1B24319   1.854  41.057   8.553
 6736POPC   C2B24320   1.927  41.033   8.253
 6736POPC   C3B24321   1.842  41.011   7.953
 6736POPC   C4B24322   1.898  40.970   7.653
 6737POPC   NC324323   9.755   1.196   9.453
 6737POPC   PO424324   9.740   1.210   9.153
 6737POPC   GL124325   9.758   1.262   8.853
 6737POPC   GL224326   9.733   1.289   8.853
 6737POPC   C1A24327   9.738   1.171   8.553
 6737POPC   D2A24328   9.788   1.263   8.253
 6737POPC   C3A24329   9.777   1.208   7.953
 6737POPC   C4A24330   9.773   1.205   7.653
 6737POPC   C1B24331   9.591   1.390   8.553
 6737POPC   C2B24332   9.653   1.469   8.253
 6737POPC   C3B24333   9.633   1.463   7.953
 6737POPC   C4B24334   9.652   1.436   7.653
 6738POPC   NC324335  37.720   3.503   9.453
 6738POPC   PO424336  37.680   3.582   9.153
 6738POPC   GL124337  37.663   3.564   8.853
 6738POPC   GL224338  37.625   3.710   8.853
 6738POPC   C1A24339  37.641   3.560   8.553
 6738POPC   D2A24340  37.666   3.518   8.253
 6738POPC   C3A24341  37.724   3.508   7.953
 6738POPC   C4A24342  37.634   3.506   7.653
 6738POPC   C1B24343  37.601   3.806   8.553
 6738POPC   C2B24344  37.621   3.809   8.253
 6738POPC   C3B24345  37.677   3.825   7.953
 6738POPC   C4B24346  37.670   3.808   7.653
 6739POPC   NC324347  29.927  23.725   9.453
 6739POPC   PO424348  29.887  23.681   9.153
 6739POPC   GL124349  29.914  23.686   8.853
 6739POPC   GL224350  29.799  23.622   8.853
 6739POPC   C1A24351  29.959  23.666   8.553
 6739POPC   D2A24352  29.970  23.698   8.253
 6739POPC   C3A24353  29.921  23.670   7.953
 6739POPC   C4A24354  29.872  23.690   7.653
 6739POPC   C1B24355  29.638  23.656   8.553
 6739POPC   C2B24356  29.714  23.664   8.253
 6739POPC   C3B24357  29.704  23.631   7.953
 6739POPC   C4B24358  29.654  23.645   7.653
 6740POPC   NC324359  29.882   7.383   9.453
 6740POPC   PO424360  29.874   7.466   9.153
 6740POPC   GL124361  29.924   7.427   8.853
 6740POPC   GL224362  29.775   7.376   8.853
 6740POPC   C1A24363  29.926   7.449   8.553
 6740POPC   D2A24364  29.896   7.409   8.253
 6740POPC   C3A24365  29.944   7.432   7.953
 6740POPC   C4A24366  29.906   7.411   7.653
 6740POPC   C1B24367  29.632   7.368   8.553
 6740POPC   C2B24368  29.718   7.383   8.253
 6740POPC   C3B24369  29.675   7.336   7.953
 6740POPC   C4B24370  29.699   7.384   7.653
 6741POPC   NC324371  44.618  39.981   9.453
 6741POPC   PO424372  44.680  40.049   9.153
 6741POPC   GL124373  44.674  39.970   8.853
 6741POPC   GL224374  44.780  39.875   8.853
 6741POPC   C1A24375  44.628  40.001   8.553
 6741POPC   D2A24376  44.666  40.012   8.253
 6741POPC   C3A24377  44.647  39.984   7.953
 6741POPC   C4A24378  44.680  40.018   7.653
 6741POPC   C1B24379  44.849  39.865   8.553
 6741POPC   C2B24380  44.845  39.773   8.253
 6741POPC   C3B24381  44.823  39.834   7.953
 6741POPC   C4B24382  44.782  39.861   7.653
 6742POPC   NC324383  17.515  18.277   9.453
 6742POPC   PO424384  17.514  18.265   9.153
 6742POPC   GL124385  17.481  18.331   8.853
 6742POPC   GL224386  17.456  18.385   8.853
 6742POPC   C1A24387  17.469  18.321   8.553
 6742POPC   D2A24388  17.469  18.323   8.253
 6742POPC   C3A24389  17.480  18.254   7.953
 6742POPC   C4A24390  17.556  18.303   7.653
 6742POPC   C1B24391  17.398  18.473   8.553
 6742POPC   C2B24392  17.377  18.501   8.253
 6742POPC   C3B24393  17.405  18.470   7.953
 6742POPC   C4B24394  17.400  18.555   7.653
 6743POPC   NC324395  20.648  15.948   9.453
 6743POPC   PO424396  20.614  15.929   9.153
 6743POPC   GL124397  20.576  15.924   8.853
 6743POPC   GL224398  20.455  16.017   8.853
 6743POPC   C1A24399  20.563  16.005   8.553
 6743POPC   D2A24400  20.639  16.002   8.253
 6743POPC   C3A24401  20.582  15.970   7.953
 6743POPC   C4A24402  20.634  15.953   7.653
 6743POPC   C1B24403  20.403  16.064   8.553
 6743POPC   C2B24404  20.419  16.073   8.253
 6743POPC   C3B24405  20.345  16.089   7.953
 6743POPC   C4B24406  20.343  16.003   7.653
 6744POPC   NC324407  12.029  38.446   9.453
 6744POPC   PO424408  12.041  38.463   9.153
 6744POPC   GL124409  12.054  38.452   8.853
 6744POPC   GL224410  11.980  38.557   8.853
 6744POPC   C1A24411  12.115  38.499   8.553
 6744POPC   D2A24412  12.116  38.452   8.253
 6744POPC   C3A24413  12.109  38.440   7.953
 6744POPC   C4A24414  12.107  38.452   7.653
 6744POPC   C1B24415  11.886  38.619   8.553
 6744POPC   C2B24416  11.915  38.666   8.253
 6744POPC   C3B24417  11.863  38.629   7.953
 6744POPC   C4B24418  11.915  38.651   7.653
 6745POPC   NC324419   8.957   0.466   9.453
 6745POPC   PO424420   8.982   0.414   9.153
 6745POPC   GL124421   8.947   0.445   8.853
 6745POPC   GL224422   8.842   0.348   8.853
 6745POPC   C1A24423   8.938   0.426   8.553
 6745POPC   D2A24424   8.954   0.464   8.253
 6745POPC   C3A24425   8.929   0.401   7.953
 6745POPC   C4A24426   9.012   0.445   7.653
 6745POPC   C1B24427   8.781   0.345   8.553
 6745POPC   C2B24428   8.718   0.277   8.253
 6745POPC   C3B24429   8.759   0.288   7.953
 6745POPC   C4B24430   8.719   0.295   7.653
 6746POPC   NC324431  38.439  35.352   9.453
 6746POPC   PO424432  38.418  35.353   9.153
 6746POPC   GL124433  38.495  35.392   8.853
 6746POPC   GL224434  38.579  35.287   8.853
 6746POPC   C1A24435  38.428  35.302   8.553
 6746POPC   D2A24436  38.409  35.315   8.253
 6746POPC   C3A24437  38.419  35.339   7.953
 6746POPC   C4A24438  38.467  35.382   7.653
 6746POPC   C1B24439  38.704  35.259   8.553
 6746POPC   C2B24440  38.710  35.262   8.253
 6746POPC   C3B24441  38.733  35.273   7.953
 6746POPC   C4B24442  38.705  35.294   7.653
 6747POPC   NC324443  37.723  43.098   9.453
 6747POPC   PO424444  37.676  43.147   9.153
 6747POPC   GL124445  37.644  43.138   8.853
 6747POPC   GL224446  37.765  43.153   8.853
 6747POPC   C1A24447  37.641  43.063   8.553
 6747POPC   D2A24448  37.717  43.098   8.253
 6747POPC   C3A24449  37.681  43.077   7.953
 6747POPC   C4A24450  37.726  43.106   7.653
 6747POPC   C1B24451  37.843  43.232   8.553
 6747POPC   C2B24452  37.866  43.327   8.253
 6747POPC   C3B24453  37.897  43.248   7.953
 6747POPC   C4B24454  37.874  43.261   7.653
 6748POPC   NC324455  43.870  43.903   9.453
 6748POPC   PO424456  43.854  43.877   9.153
 6748POPC   GL124457  43.850  43.924   8.853
 6748POPC   GL224458  43.807  43.751   8.853
 6748POPC   C1A24459  43.912  43.909   8.553
 6748POPC   D2A24460  43.853  43.842   8.253
 6748POPC   C3A24461  43.841  43.861   7.953
 6748POPC   C4A24462  43.886  43.850   7.653
 6748POPC   C1B24463  43.779  43.619   8.553
 6748POPC   C2B24464  43.825  43.618   8.253
 6748POPC   C3B24465  43.854  43.627   7.953
 6748POPC   C4B24466  43.784  43.632   7.653
 6749POPC   NC324467  43.096   0.434   9.453
 6749POPC   PO424468  43.083   0.467   9.153
 6749POPC   GL124469  43.077   0.464   8.853
 6749POPC   GL224470  42.992   0.538   8.853
 6749POPC   C1A24471  43.098   0.410   8.553
 6749POPC   D2A24472  43.144   0.424   8.253
 6749POPC   C3A24473  43.116   0.418   7.953
 6749POPC   C4A24474  43.066   0.445   7.653
 6749POPC   C1B24475  42.956   0.617   8.553
 6749POPC   C2B24476  42.961   0.626   8.253
 6749POPC   C3B24477  42.956   0.614   7.953
 6749POPC   C4B24478  42.893   0.571   7.653
 6750POPC   NC324479   8.949  28.328   9.453
 6750POPC   PO424480   8.972  28.389   9.153
 6750POPC   GL124481   9.008  28.397   8.853
 6750POPC   GL224482   9.072  28.340   8.853
 6750POPC   C1A24483   8.998  28.381   8.553
 6750POPC   D2A24484   8.969  28.372   8.253
 6750POPC   C3A24485   8.947  28.347   7.953
 6750POPC   C4A24486   8.940  28.404   7.653
 6750POPC   C1B24487   9.207  28.344   8.553
 6750POPC   C2B24488   9.245  28.284   8.253
 6750POPC   C3B24489   9.243  28.295   7.953
 6750POPC   C4B24490   9.257  28.351   7.653
 6751POPC   NC324491  28.398   8.214   9.453
 6751POPC   PO424492  28.352   8.186   9.153
 6751POPC   GL124493  28.358   8.225   8.853
 6751POPC   GL224494  28.529   8.208   8.853
 6751POPC   C1A24495  28.341   8.154   8.553
 6751POPC   D2A24496  28.325   8.181   8.253
 6751POPC   C3A24497  28.333   8.220   7.953
 6751POPC   C4A24498  28.399   8.221   7.653
 6751POPC   C1B24499  28.567   8.118   8.553
 6751POPC   C2B24500  28.629   8.150   8.253
 6751POPC   C3B24501  28.664   8.126   7.953
 6751POPC   C4B24502  28.605   8.128   7.653
 6752POPC   NC324503   2.718  35.353   9.453
 6752POPC   PO424504   2.783  35.348   9.153
 6752POPC   GL124505   2.723  35.310   8.853
 6752POPC   GL224506   2.664  35.324   8.853
 6752POPC   C1A24507   2.745  35.377   8.553
 6752POPC   D2A24508   2.737  35.394   8.253
 6752POPC   C3A24509   2.782  35.333   7.953
 6752POPC   C4A24510   2.765  35.328   7.653
 6752POPC   C1B24511   2.569  35.283   8.553
 6752POPC   C2B24512   2.526  35.322   8.253
 6752POPC   C3B24513   2.556  35.269   7.953
 6752POPC   C4B24514   2.528  35.285   7.653
 6753POPC   NC324515  36.166   6.628   9.453
 6753POPC   PO424516  36.174   6.692   9.153
 6753POPC   GL124517  36.173   6.641   8.853
 6753POPC   GL224518  36.170   6.542   8.853
 6753POPC   C1A24519  36.095   6.597   8.553
 6753POPC   D2A24520  36.155   6.596   8.253
 6753POPC   C3A24521  36.079   6.643   7.953
 6753POPC   C4A24522  36.146   6.668   7.653
 6753POPC   C1B24523  36.124   6.416   8.553
 6753POPC   C2B24524  36.174   6.363   8.253
 6753POPC   C3B24525  36.213   6.422   7.953
 6753POPC   C4B24526  36.190   6.350   7.653
 6754POPC   NC324527  28.384   9.001   9.453
 6754POPC   PO424528  28.347   8.983   9.153
 6754POPC   GL124529  28.373   8.956   8.853
 6754POPC   GL224530  28.501   8.913   8.853
 6754POPC   C1A24531  28.398   9.014   8.553
 6754POPC   D2A24532  28.340   8.992   8.253
 6754POPC   C3A24533  28.368   8.927   7.953
 6754POPC   C4A24534  28.401   8.944   7.653
 6754POPC   C1B24535  28.573   8.859   8.553
 6754POPC   C2B24536  28.587   8.858   8.253
 6754POPC   C3B24537  28.602   8.865   7.953
 6754POPC   C4B24538  28.532   8.879   7.653
 6755POPC   NC324539  39.262  14.360   9.453
 6755POPC   PO424540  39.280  14.367   9.153
 6755POPC   GL124541  39.224  14.394   8.853
 6755POPC   GL224542  39.272  14.310   8.853
 6755POPC   C1A24543  39.265  14.390   8.553
 6755POPC   D2A24544  39.184  14.378   8.253
 6755POPC   C3A24545  39.182  14.438   7.953
 6755POPC   C4A24546  39.262  14.363   7.653
 6755POPC   C1B24547  39.314  14.211   8.553
 6755POPC   C2B24548  39.256  14.170   8.253
 6755POPC   C3B24549  39.318  14.130   7.953
 6755POPC   C4B24550  39.337  14.115   7.653
 6756POPC   NC324551   6.634  39.273   9.453
 6756POPC   PO424552   6.613  39.261   9.153
 6756POPC   GL124553   6.681  39.184   8.853
 6756POPC   GL224554   6.581  39.303   8.853
 6756POPC   C1A24555   6.680  39.227   8.553
 6756POPC   D2A24556   6.655  39.255   8.253
 6756POPC   C3A24557   6.645  39.199   7.953
 6756POPC   C4A24558   6.652  39.255   7.653
 6756POPC   C1B24559   6.501  39.429   8.553
 6756POPC   C2B24560   6.447  39.426   8.253
 6756POPC   C3B24561   6.414  39.368   7.953
 6756POPC   C4B24562   6.412  39.353   7.653
 6757POPC   NC324563  33.020  15.213   9.453
 6757POPC   PO424564  33.000  15.169   9.153
 6757POPC   GL124565  33.069  15.221   8.853
 6757POPC   GL224566  32.986  15.262   8.853
 6757POPC   C1A24567  33.065  15.177   8.553
 6757POPC   D2A24568  32.980  15.227   8.253
 6757POPC   C3A24569  33.037  15.202   7.953
 6757POPC   C4A24570  33.072  15.188   7.653
 6757POPC   C1B24571  33.007  15.386   8.553
 6757POPC   C2B24572  32.955  15.423   8.253
 6757POPC   C3B24573  33.044  15.383   7.953
 6757POPC   C4B24574  32.997  15.417   7.653
 6758POPC   NC324575  36.870  34.623   9.453
 6758POPC   PO424576  36.901  34.613   9.153
 6758POPC   GL124577  36.935  34.579   8.853
 6758POPC   GL224578  37.002  34.560   8.853
 6758POPC   C1A24579  36.898  34.612   8.553
 6758POPC   D2A24580  36.935  34.562   8.253
 6758POPC   C3A24581  36.873  34.584   7.953
 6758POPC   C4A24582  36.889  34.529   7.653
 6758POPC   C1B24583  37.161  34.514   8.553
 6758POPC   C2B24584  37.129  34.536   8.253
 6758POPC   C3B24585  37.152  34.481   7.953
 6758POPC   C4B24586  37.122  34.509   7.653
 6759POPC   NC324587  18.323  11.273   9.453
 6759POPC   PO424588  18.292  11.335   9.153
 6759POPC   GL124589  18.304  11.325   8.853
 6759POPC   GL224590  18.350  11.229   8.853
 6759POPC   C1A24591  18.318  11.297   8.553
 6759POPC   D2A24592  18.313  11.297   8.253
 6759POPC   C3A24593  18.311  11.279   7.953
 6759POPC   C4A24594  18.287  11.291   7.653
 6759POPC   C1B24595  18.422  11.150   8.553
 6759POPC   C2B24596  18.461  11.144   8.253
 6759POPC   C3B24597  18.410  11.078   7.953
 6759POPC   C4B24598  18.456  11.155   7.653
 6760POPC   NC324599  16.781   1.250   9.453
 6760POPC   PO424600  16.777   1.239   9.153
 6760POPC   GL124601  16.722   1.242   8.853
 6760POPC   GL224602  16.753   1.145   8.853
 6760POPC   C1A24603  16.773   1.180   8.553
 6760POPC   D2A24604  16.764   1.198   8.253
 6760POPC   C3A24605  16.756   1.166   7.953
 6760POPC   C4A24606  16.752   1.259   7.653
 6760POPC   C1B24607  16.833   0.945   8.553
 6760POPC   C2B24608  16.771   0.994   8.253
 6760POPC   C3B24609  16.791   0.952   7.953
 6760POPC   C4B24610  16.825   0.961   7.653
 6761POPC   NC324611  42.325   1.210   9.453
 6761POPC   PO424612  42.319   1.180   9.153
 6761POPC   GL124613  42.330   1.250   8.853
 6761POPC   GL224614  42.468   1.277   8.853
 6761POPC   C1A24615  42.373   1.187   8.553
 6761POPC   D2A24616  42.366   1.222   8.253
 6761POPC   C3A24617  42.301   1.181   7.953
 6761POPC   C4A24618  42.339   1.205   7.653
 6761POPC   C1B24619  42.531   1.354   8.553
 6761POPC   C2B24620  42.584   1.335   8.253
 6761POPC   C3B24621  42.575   1.295   7.953
 6761POPC   C4B24622  42.532   1.381   7.653
 6762POPC   NC324623  33.782  17.463   9.453
 6762POPC   PO424624  33.817  17.503   9.153
 6762POPC   GL124625  33.828  17.497   8.853
 6762POPC   GL224626  33.772  17.397   8.853
 6762POPC   C1A24627  33.760  17.464   8.553
 6762POPC   D2A24628  33.823  17.540   8.253
 6762POPC   C3A24629  33.847  17.514   7.953
 6762POPC   C4A24630  33.779  17.501   7.653
 6762POPC   C1B24631  33.722  17.306   8.553
 6762POPC   C2B24632  33.748  17.249   8.253
 6762POPC   C3B24633  33.719  17.320   7.953
 6762POPC   C4B24634  33.664  17.301   7.653
 6763POPC   NC324635  22.933  36.879   9.453
 6763POPC   PO424636  22.937  36.950   9.153
 6763POPC   GL124637  22.973  36.855   8.853
 6763POPC   GL224638  23.109  36.883   8.853
 6763POPC   C1A24639  22.923  36.904   8.553
 6763POPC   D2A24640  22.891  36.891   8.253
 6763POPC   C3A24641  22.956  36.867   7.953
 6763POPC   C4A24642  22.960  36.893   7.653
 6763POPC   C1B24643  23.144  36.894   8.553
 6763POPC   C2B24644  23.210  36.878   8.253
 6763POPC   C3B24645  23.152  36.846   7.953
 6763POPC   C4B24646  23.195  36.862   7.653
 6764POPC   NC324647  26.838  23.722   9.453
 6764POPC   PO424648  26.822  23.698   9.153
 6764POPC   GL124649  26.783  23.702   8.853
 6764POPC   GL224650  26.854  23.831   8.853
 6764POPC   C1A24651  26.838  23.749   8.553
 6764POPC   D2A24652  26.774  23.752   8.253
 6764POPC   C3A24653  26.825  23.749   7.953
 6764POPC   C4A24654  26.850  23.749   7.653
 6764POPC   C1B24655  26.988  23.947   8.553
 6764POPC   C2B24656  26.921  23.981   8.253
 6764POPC   C3B24657  26.963  23.940   7.953
 6764POPC   C4B24658  26.923  23.892   7.653
 6765POPC   NC324659  40.796  23.697   9.453
 6765POPC   PO424660  40.762  23.691   9.153
 6765POPC   GL124661  40.777  23.689   8.853
 6765POPC   GL224662  40.834  23.636   8.853
 6765POPC   C1A24663  40.752  23.723   8.553
 6765POPC   D2A24664  40.747  23.713   8.253
 6765POPC   C3A24665  40.761  23.719   7.953
 6765POPC   C4A24666  40.811  23.722   7.653
 6765POPC   C1B24667  40.864  23.475   8.553
 6765POPC   C2B24668  40.839  23.452   8.253
 6765POPC   C3B24669  40.821  23.452   7.953
 6765POPC   C4B24670  40.870  23.486   7.653
 6766POPC   NC324671  14.386  44.694   9.453
 6766POPC   PO424672  14.380  44.643   9.153
 6766POPC   GL124673  14.431  44.626   8.853
 6766POPC   GL224674  14.249  44.718   8.853
 6766POPC   C1A24675  14.358  44.685   8.553
 6766POPC   D2A24676  14.444  44.655   8.253
 6766POPC   C3A24677  14.368  44.642   7.953
 6766POPC   C4A24678  14.402  44.700   7.653
 6766POPC   C1B24679  14.146  44.714   8.553
 6766POPC   C2B24680  14.127  44.659   8.253
 6766POPC   C3B24681  14.196  44.690   7.953
 6766POPC   C4B24682  14.125  44.631   7.653
 6767POPC   NC324683  29.949  32.207   9.453
 6767POPC   PO424684  29.904  32.220   9.153
 6767POPC   GL124685  29.899  32.294   8.853
 6767POPC   GL224686  29.827  32.231   8.853
 6767POPC   C1A24687  29.916  32.222   8.553
 6767POPC   D2A24688  29.963  32.243   8.253
 6767POPC   C3A24689  29.879  32.212   7.953
 6767POPC   C4A24690  29.957  32.205   7.653
 6767POPC   C1B24691  29.680  32.287   8.553
 6767POPC   C2B24692  29.625  32.334   8.253
 6767POPC   C3B24693  29.687  32.259   7.953
 6767POPC   C4B24694  29.690  32.259   7.653
 6768POPC   NC324695  13.615   5.133   9.453
 6768POPC   PO424696  13.625   5.142   9.153
 6768POPC   GL124697  13.587   5.134   8.853
 6768POPC   GL224698  13.704   5.012   8.853
 6768POPC   C1A24699  13.580   5.116   8.553
 6768POPC   D2A24700  13.647   5.110   8.253
 6768POPC   C3A24701  13.676   5.068   7.953
 6768POPC   C4A24702  13.641   5.046   7.653
 6768POPC   C1B24703  13.867   4.991   8.553
 6768POPC   C2B24704  13.807   4.928   8.253
 6768POPC   C3B24705  13.798   4.926   7.953
 6768POPC   C4B24706  13.788   4.952   7.653
 6769POPC   NC324707  14.426   2.764   9.453
 6769POPC   PO424708  14.398   2.760   9.153
 6769POPC   GL124709  14.373   2.724   8.853
 6769POPC   GL224710  14.457   2.841   8.853
 6769POPC   C1A24711  14.409   2.762   8.553
 6769POPC   D2A24712  14.407   2.795   8.253
 6769POPC   C3A24713  14.395   2.744   7.953
 6769POPC   C4A24714  14.385   2.721   7.653
 6769POPC   C1B24715  14.603   2.940   8.553
 6769POPC   C2B24716  14.572   3.001   8.253
 6769POPC   C3B24717  14.578   2.920   7.953
 6769POPC   C4B24718  14.548   2.984   7.653
 6770POPC   NC324719  40.768  10.521   9.453
 6770POPC   PO424720  40.831  10.478   9.153
 6770POPC   GL124721  40.736  10.489   8.853
 6770POPC   GL224722  40.878  10.515   8.853
 6770POPC   C1A24723  40.734  10.538   8.553
 6770POPC   D2A24724  40.776  10.528   8.253
 6770POPC   C3A24725  40.775  10.486   7.953
 6770POPC   C4A24726  40.752  10.521   7.653
 6770POPC   C1B24727  41.006  10.486   8.553
 6770POPC   C2B24728  41.047  10.504   8.253
 6770POPC   C3B24729  41.072  10.463   7.953
 6770POPC   C4B24730  41.020  10.510   7.653
 6771POPC   NC324731  19.105   9.005   9.453
 6771POPC   PO424732  19.034   8.975   9.153
 6771POPC   GL124733  19.037   8.933   8.853
 6771POPC   GL224734  19.212   8.992   8.853
 6771POPC   C1A24735  19.012   8.963   8.553
 6771POPC   D2A24736  19.015   8.930   8.253
 6771POPC   C3A24737  19.056   9.021   7.953
 6771POPC   C4A24738  19.105   9.008   7.653
 6771POPC   C1B24739  19.301   8.969   8.553
 6771POPC   C2B24740  19.338   8.931   8.253
 6771POPC   C3B24741  19.319   8.970   7.953
 6771POPC   C4B24742  19.356   8.948   7.653
 6772POPC   NC324743  29.179  44.634   9.453
 6772POPC   PO424744  29.192  44.695   9.153
 6772POPC   GL124745  29.176  44.633   8.853
 6772POPC   GL224746  29.099  44.607   8.853
 6772POPC   C1A24747  29.146  44.691   8.553
 6772POPC   D2A24748  29.157  44.661   8.253
 6772POPC   C3A24749  29.118  44.699   7.953
 6772POPC   C4A24750  29.149  44.680   7.653
 6772POPC   C1B24751  28.990  44.468   8.553
 6772POPC   C2B24752  28.954  44.512   8.253
 6772POPC   C3B24753  29.001  44.491   7.953
 6772POPC   C4B24754  28.952  44.466   7.653
 6773POPC   NC324755  22.144  40.828   9.453
 6773POPC   PO424756  22.210  40.820   9.153
 6773POPC   GL124757  22.177  40.791   8.853
 6773POPC   GL224758  22.245  40.686   8.853
 6773POPC   C1A24759  22.172  40.818   8.553
 6773POPC   D2A24760  22.129  40.809   8.253
 6773POPC   C3A24761  22.198  40.736   7.953
 6773POPC   C4A24762  22.199  40.793   7.653
 6773POPC   C1B24763  22.366  40.688   8.553
 6773POPC   C2B24764  22.367  40.646   8.253
 6773POPC   C3B24765  22.355  40.670   7.953
 6773POPC   C4B24766  22.411  40.697   7.653
 6774POPC   NC324767  22.971  24.516   9.453
 6774POPC   PO424768  22.923  24.538   9.153
 6774POPC   GL124769  22.970  24.479   8.853
 6774POPC   GL224770  22.790  24.425   8.853
 6774POPC   C1A24771  22.909  24.486   8.553
 6774POPC   D2A24772  22.975  24.539   8.253
 6774POPC   C3A24773  22.975  24.503   7.953
 6774POPC   C4A24774  22.916  24.455   7.653
 6774POPC   C1B24775  22.678  24.446   8.553
 6774POPC   C2B24776  22.666  24.402   8.253
 6774POPC   C3B24777  22.649  24.479   7.953
 6774POPC   C4B24778  22.709  24.424   7.653
 6775POPC   NC324779  10.502   5.063   9.453
 6775POPC   PO424780  10.494   5.096   9.153
 6775POPC   GL124781  10.533   5.079   8.853
 6775POPC   GL224782  10.533   5.255   8.853
 6775POPC   C1A24783  10.569   5.044   8.553
 6775POPC   D2A24784  10.486   5.107   8.253
 6775POPC   C3A24785  10.528   5.140   7.953
 6775POPC   C4A24786  10.566   5.064   7.653
 6775POPC   C1B24787  10.658   5.361   8.553
 6775POPC   C2B24788  10.644   5.302   8.253
 6775POPC   C3B24789  10.665   5.354   7.953
 6775POPC   C4B24790  10.624   5.316   7.653
 6776POPC   NC324791  28.412  14.387   9.453
 6776POPC   PO424792  28.369  14.408   9.153
 6776POPC   GL124793  28.356  14.439   8.853
 6776POPC   GL224794  28.241  14.515   8.853
 6776POPC   C1A24795  28.338  14.405   8.553
 6776POPC   D2A24796  28.377  14.378   8.253
 6776POPC   C3A24797  28.348  14.383   7.953
 6776POPC   C4A24798  28.328  14.366   7.653
 6776POPC   C1B24799  28.159  14.530   8.553
 6776POPC   C2B24800  28.173  14.564   8.253
 6776POPC   C3B24801  28.164  14.571   7.953
 6776POPC   C4B24802  28.210  14.544   7.653
 6777POPC   NC324803  13.590  20.594   9.453
 6777POPC   PO424804  13.652  20.656   9.153
 6777POPC   GL124805  13.615  20.593   8.853
 6777POPC   GL224806  13.517  20.691   8.853
 6777POPC   C1A24807  13.614  20.616   8.553
 6777POPC   D2A24808  13.588  20.598   8.253
 6777POPC   C3A24809  13.595  20.566   7.953
 6777POPC   C4A24810  13.629  20.588   7.653
 6777POPC   C1B24811  13.448  20.830   8.553
 6777POPC   C2B24812  13.466  20.843   8.253
 6777POPC   C3B24813  13.494  20.849   7.953
 6777POPC   C4B24814  13.471  20.797   7.653
 6778POPC   NC324815   8.942  19.019   9.453
 6778POPC   PO424816   8.968  19.077   9.153
 6778POPC   GL124817   8.998  19.067   8.853
 6778POPC   GL224818   9.135  18.976   8.853
 6778POPC   C1A24819   8.985  19.045   8.553
 6778POPC   D2A24820   8.933  19.055   8.253
 6778POPC   C3A24821   9.019  19.013   7.953
 6778POPC   C4A24822   8.955  19.066   7.653
 6778POPC   C1B24823   9.252  19.031   8.553
 6778POPC   C2B24824   9.241  19.000   8.253
 6778POPC   C3B24825   9.212  19.003   7.953
 6778POPC   C4B24826   9.184  19.000   7.653
 6779POPC   NC324827   3.515  25.304   9.453
 6779POPC   PO424828   3.539  25.309   9.153
 6779POPC   GL124829   3.572  25.252   8.853
 6779POPC   GL224830   3.610  25.119   8.853
 6779POPC   C1A24831   3.580  25.242   8.553
 6779POPC   D2A24832   3.548  25.299   8.253
 6779POPC   C3A24833   3.576  25.226   7.953
 6779POPC   C4A24834   3.548  25.256   7.653
 6779POPC   C1B24835   3.694  25.017   8.553
 6779POPC   C2B24836   3.673  25.084   8.253
 6779POPC   C3B24837   3.610  25.066   7.953
 6779POPC   C4B24838   3.692  25.059   7.653
 6780POPC   NC324839  29.930  15.175   9.453
 6780POPC   PO424840  29.890  15.220   9.153
 6780POPC   GL124841  29.926  15.175   8.853
 6780POPC   GL224842  29.974  15.078   8.853
 6780POPC   C1A24843  29.905  15.136   8.553
 6780POPC   D2A24844  29.904  15.143   8.253
 6780POPC   C3A24845  29.920  15.222   7.953
 6780POPC   C4A24846  29.885  15.169   7.653
 6780POPC   C1B24847  29.956  14.922   8.553
 6780POPC   C2B24848  29.951  14.922   8.253
 6780POPC   C3B24849  29.950  14.934   7.953
 6780POPC   C4B24850  30.003  14.973   7.653
 6781POPC   NC324851  16.702  39.233   9.453
 6781POPC   PO424852  16.750  39.199   9.153
 6781POPC   GL124853  16.715  39.197   8.853
 6781POPC   GL224854  16.603  39.244   8.853
 6781POPC   C1A24855  16.716  39.231   8.553
 6781POPC   D2A24856  16.780  39.191   8.253
 6781POPC   C3A24857  16.758  39.207   7.953
 6781POPC   C4A24858  16.746  39.266   7.653
 6781POPC   C1B24859  16.507  39.143   8.553
 6781POPC   C2B24860  16.459  39.192   8.253
 6781POPC   C3B24861  16.461  39.179   7.953
 6781POPC   C4B24862  16.499  39.173   7.653
 6782POPC   NC324863  19.074  29.141   9.453
 6782POPC   PO424864  19.041  29.141   9.153
 6782POPC   GL124865  19.022  29.098   8.853
 6782POPC   GL224866  19.033  29.271   8.853
 6782POPC   C1A24867  19.040  29.117   8.553
 6782POPC   D2A24868  19.023  29.158   8.253
 6782POPC   C3A24869  19.049  29.106   7.953
 6782POPC   C4A24870  19.079  29.121   7.653
 6782POPC   C1B24871  19.023  29.390   8.553
 6782POPC   C2B24872  19.054  29.391   8.253
 6782POPC   C3B24873  19.088  29.438   7.953
 6782POPC   C4B24874  19.053  29.424   7.653
 6783POPC   NC324875  33.030  14.452   9.453
 6783POPC   PO424876  32.977  14.426   9.153
 6783POPC   GL124877  33.008  14.426   8.853
 6783POPC   GL224878  32.863  14.358   8.853
 6783POPC   C1A24879  33.052  14.390   8.553
 6783POPC   D2A24880  32.997  14.383   8.253
 6783POPC   C3A24881  33.051  14.396   7.953
 6783POPC   C4A24882  33.034  14.385   7.653
 6783POPC   C1B24883  32.813  14.355   8.553
 6783POPC   C2B24884  32.751  14.384   8.253
 6783POPC   C3B24885  32.802  14.445   7.953
 6783POPC   C4B24886  32.730  14.408   7.653
 6784POPC   NC324887  30.705  16.767   9.453
 6784POPC   PO424888  30.695  16.696   9.153
 6784POPC   GL124889  30.655  16.734   8.853
 6784POPC   GL224890  30.811  16.768   8.853
 6784POPC   C1A24891  30.673  16.775   8.553
 6784POPC   D2A24892  30.678  16.731   8.253
 6784POPC   C3A24893  30.719  16.756   7.953
 6784POPC   C4A24894  30.650  16.715   7.653
 6784POPC   C1B24895  30.960  16.821   8.553
 6784POPC   C2B24896  30.957  16.725   8.253
 6784POPC   C3B24897  30.967  16.748   7.953
 6784POPC   C4B24898  30.958  16.736   7.653
 6785POPC   NC324899  43.841  29.095   9.453
 6785POPC   PO424900  43.931  29.146   9.153
 6785POPC   GL124901  43.916  29.115   8.853
 6785POPC   GL224902  43.894  29.067   8.853
 6785POPC   C1A24903  43.922  29.113   8.553
 6785POPC   D2A24904  43.929  29.157   8.253
 6785POPC   C3A24905  43.932  29.148   7.953
 6785POPC   C4A24906  43.899  29.118   7.653
 6785POPC   C1B24907  44.002  28.953   8.553
 6785POPC   C2B24908  43.961  28.963   8.253
 6785POPC   C3B24909  44.021  28.932   7.953
 6785POPC   C4B24910  43.976  28.888   7.653
 6786POPC   NC324911  16.736  29.161   9.453
 6786POPC   PO424912  16.693  29.100   9.153
 6786POPC   GL124913  16.711  29.144   8.853
 6786POPC   GL224914  16.590  29.118   8.853
 6786POPC   C1A24915  16.681  29.146   8.553
 6786POPC   D2A24916  16.747  29.161   8.253
 6786POPC   C3A24917  16.779  29.121   7.953
 6786POPC   C4A24918  16.754  29.164   7.653
 6786POPC   C1B24919  16.470  29.108   8.553
 6786POPC   C2B24920  16.529  29.087   8.253
 6786POPC   C3B24921  16.451  29.051   7.953
 6786POPC   C4B24922  16.534  29.056   7.653
 6787POPC   NC324923  43.859  35.386   9.453
 6787POPC   PO424924  43.874  35.329   9.153
 6787POPC   GL124925  43.877  35.319   8.853
 6787POPC   GL224926  43.849  35.235   8.853
 6787POPC   C1A24927  43.907  35.394   8.553
 6787POPC   D2A24928  43.845  35.395   8.253
 6787POPC   C3A24929  43.872  35.362   7.953
 6787POPC   C4A24930  43.932  35.324   7.653
 6787POPC   C1B24931  43.766  35.141   8.553
 6787POPC   C2B24932  43.701  35.181   8.253
 6787POPC   C3B24933  43.731  35.160   7.953
 6787POPC   C4B24934  43.708  35.202   7.653
 6788POPC   NC324935  18.260  37.638   9.453
 6788POPC   PO424936  18.306  37.651   9.153
 6788POPC   GL124937  18.301  37.728   8.853
 6788POPC   GL224938  18.265  37.804   8.853
 6788POPC   C1A24939  18.306  37.662   8.553
 6788POPC   D2A24940  18.304  37.658   8.253
 6788POPC   C3A24941  18.326  37.640   7.953
 6788POPC   C4A24942  18.323  37.726   7.653
 6788POPC   C1B24943  18.338  37.922   8.553
 6788POPC   C2B24944  18.302  37.890   8.253
 6788POPC   C3B24945  18.274  37.915   7.953
 6788POPC   C4B24946  18.304  37.881   7.653
 6789POPC   NC324947  33.786  15.984   9.453
 6789POPC   PO424948  33.792  15.973   9.153
 6789POPC   GL124949  33.828  15.928   8.853
 6789POPC   GL224950  33.663  15.906   8.853
 6789POPC   C1A24951  33.840  15.930   8.553
 6789POPC   D2A24952  33.825  15.945   8.253
 6789POPC   C3A24953  33.793  15.930   7.953
 6789POPC   C4A24954  33.765  15.956   7.653
 6789POPC   C1B24955  33.538  15.889   8.553
 6789POPC   C2B24956  33.587  15.821   8.253
 6789POPC   C3B24957  33.553  15.810   7.953
 6789POPC   C4B24958  33.593  15.870   7.653
 6790POPC   NC324959  27.593  15.199   9.453
 6790POPC   PO424960  27.607  15.173   9.153
 6790POPC   GL124961  27.565  15.141   8.853
 6790POPC   GL224962  27.766  15.120   8.853
 6790POPC   C1A24963  27.616  15.164   8.553
 6790POPC   D2A24964  27.635  15.222   8.253
 6790POPC   C3A24965  27.634  15.148   7.953
 6790POPC   C4A24966  27.607  15.191   7.653
 6790POPC   C1B24967  27.845  15.191   8.553
 6790POPC   C2B24968  27.827  15.150   8.253
 6790POPC   C3B24969  27.873  15.186   7.953
 6790POPC   C4B24970  27.852  15.174   7.653
 6791POPC   NC324971   2.815   8.219   9.453
 6791POPC   PO424972   2.750   8.239   9.153
 6791POPC   GL124973   2.805   8.198   8.853
 6791POPC   GL224974   2.906   8.070   8.853
 6791POPC   C1A24975   2.759   8.184   8.553
 6791POPC   D2A24976   2.745   8.240   8.253
 6791POPC   C3A24977   2.751   8.166   7.953
 6791POPC   C4A24978   2.739   8.152   7.653
 6791POPC   C1B24979   3.002   8.028   8.553
 6791POPC   C2B24980   2.934   8.035   8.253
 6791POPC   C3B24981   2.938   8.036   7.953
 6791POPC   C4B24982   2.937   8.050   7.653
 6792POPC   NC324983  30.734  34.613   9.453
 6792POPC   PO424984  30.743  34.602   9.153
 6792POPC   GL124985  30.686  34.551   8.853
 6792POPC   GL224986  30.744  34.452   8.853
 6792POPC   C1A24987  30.659  34.540   8.553
 6792POPC   D2A24988  30.699  34.564   8.253
 6792POPC   C3A24989  30.740  34.553   7.953
 6792POPC   C4A24990  30.682  34.575   7.653
 6792POPC   C1B24991  30.768  34.318   8.553
 6792POPC   C2B24992  30.781  34.360   8.253
 6792POPC   C3B24993  30.712  34.381   7.953
 6792POPC   C4B24994  30.792  34.311   7.653
 6793POPC   NC324995  34.616  16.740   9.453
 6793POPC   PO424996  34.562  16.687   9.153
 6793POPC   GL124997  34.532  16.698   8.853
 6793POPC   GL224998  34.481  16.841   8.853
 6793POPC   C1A24999  34.596  16.769   8.553
 6793POPC   D2A25000  34.527  16.705   8.253
 6793POPC   C3A25001  34.571  16.746   7.953
 6793POPC   C4A25002  34.605  16.755   7.653
 6793POPC   C1B25003  34.352  16.893   8.553
 6793POPC   C2B25004  34.362  16.853   8.253
 6793POPC   C3B25005  34.380  16.907   7.953
 6793POPC   C4B25006  34.386  16.878   7.653
 6794POPC   NC325007  36.110  29.132   9.453
 6794POPC   PO425008  36.158  29.110   9.153
 6794POPC   GL125009  36.140  29.183   8.853
 6794POPC   GL225010  36.158  29.026   8.853
 6794POPC   C1A25011  36.097  29.155   8.553
 6794POPC   D2A25012  36.084  29.102   8.253
 6794POPC   C3A25013  36.158  29.140   7.953
 6794POPC   C4A25014  36.170  29.184   7.653
 6794POPC   C1B25015  36.192  28.861   8.553
 6794POPC   C2B25016  36.178  28.908   8.253
 6794POPC   C3B25017  36.230  28.881   7.953
 6794POPC   C4B25018  36.264  28.869   7.653
 6795POPC   NC325019  26.069  40.744   9.453
 6795POPC   PO425020  26.076  40.793   9.153
 6795POPC   GL125021  26.070  40.824   8.853
 6795POPC   GL225022  26.015  40.653   8.853
 6795POPC   C1A25023  26.090  40.793   8.553
 6795POPC   D2A25024  26.067  40.806   8.253
 6795POPC   C3A25025  26.058  40.810   7.953
 6795POPC   C4A25026  26.037  40.760   7.653
 6795POPC   C1B25027  25.948  40.555   8.553
 6795POPC   C2B25028  25.963  40.528   8.253
 6795POPC   C3B25029  25.970  40.553   7.953
 6795POPC   C4B25030  25.911  40.569   7.653
 6796POPC   NC325031   6.682  21.432   9.453
 6796POPC   PO425032   6.663  21.420   9.153
 6796POPC   GL125033   6.672  21.417   8.853
 6796POPC   GL225034   6.763  21.504   8.853
 6796POPC   C1A25035   6.603  21.397   8.553
 6796POPC   D2A25036   6.683  21.377   8.253
 6796POPC   C3A25037   6.668  21.360   7.953
 6796POPC   C4A25038   6.620  21.401   7.653
 6796POPC   C1B25039   6.828  21.556   8.553
 6796POPC   C2B25040   6.816  21.565   8.253
 6796POPC   C3B25041   6.859  21.559   7.953
 6796POPC   C4B25042   6.833  21.569   7.653
 6797POPC   NC325043  35.360  20.578   9.453
 6797POPC   PO425044  35.336  20.619   9.153
 6797POPC   GL125045  35.366  20.613   8.853
 6797POPC   GL225046  35.319  20.472   8.853
 6797POPC   C1A25047  35.402  20.586   8.553
 6797POPC   D2A25048  35.323  20.607   8.253
 6797POPC   C3A25049  35.397  20.583   7.953
 6797POPC   C4A25050  35.319  20.563   7.653
 6797POPC   C1B25051  35.223  20.420   8.553
 6797POPC   C2B25052  35.252  20.371   8.253
 6797POPC   C3B25053  35.178  20.361   7.953
 6797POPC   C4B25054  35.223  20.403   7.653
 6798POPC   NC325055   1.993  36.892   9.453
 6798POPC   PO425056   1.942  36.899   9.153
 6798POPC   GL125057   1.999  36.858   8.853
 6798POPC   GL225058   2.010  36.768   8.853
 6798POPC   C1A25059   1.998  36.932   8.553
 6798POPC   D2A25060   2.025  36.937   8.253
 6798POPC   C3A25061   1.973  36.935   7.953
 6798POPC   C4A25062   2.036  36.888   7.653
 6798POPC   C1B25063   2.115  36.706   8.553
 6798POPC   C2B25064   2.085  36.663   8.253
 6798POPC   C3B25065   2.041  36.664   7.953
 6798POPC   C4B25066   2.115  36.698   7.653
 6799POPC   NC325067  13.656  26.807   9.453
 6799POPC   PO425068  13.611  26.859   9.153
 6799POPC   GL125069  13.644  26.773   8.853
 6799POPC   GL225070  13.726  26.694   8.853
 6799POPC   C1A25071  13.596  26.836   8.553
 6799POPC   D2A25072  13.655  26.842   8.253
 6799POPC   C3A25073  13.662  26.786   7.953
 6799POPC   C4A25074  13.578  26.796   7.653
 6799POPC   C1B25075  13.724  26.603   8.553
 6799POPC   C2B25076  13.747  26.568   8.253
 6799POPC   C3B25077  13.772  26.626   7.953
 6799POPC   C4B25078  13.767  26.653   7.653
 6800POPC   NC325079  41.549  28.356   9.453
 6800POPC   PO425080  41.584  28.353   9.153
 6800POPC   GL125081  41.534  28.354   8.853
 6800POPC   GL225082  41.620  28.472   8.853
 6800POPC   C1A25083  41.532  28.333   8.553
 6800POPC   D2A25084  41.536  28.343   8.253
 6800POPC   C3A25085  41.551  28.411   7.953
 6800POPC   C4A25086  41.519  28.360   7.653
 6800POPC   C1B25087  41.730  28.558   8.553
 6800POPC   C2B25088  41.736  28.531   8.253
 6800POPC   C3B25089  41.690  28.528   7.953
 6800POPC   C4B25090  41.698  28.569   7.653
 6801POPC   NC325091   5.871  28.325   9.453
 6801POPC   PO425092   5.866  28.405   9.153
 6801POPC   GL125093   5.903  28.329   8.853
 6801POPC   GL225094   5.954  28.447   8.853
 6801POPC   C1A25095   5.867  28.340   8.553
 6801POPC   D2A25096   5.854  28.400   8.253
 6801POPC   C3A25097   5.913  28.389   7.953
 6801POPC   C4A25098   5.859  28.398   7.653
 6801POPC   C1B25099   6.016  28.552   8.553
 6801POPC   C2B25100   6.086  28.544   8.253
 6801POPC   C3B25101   6.079  28.515   7.953
 6801POPC   C4B25102   6.076  28.576   7.653
 6802POPC   NC325103   2.742  33.751   9.453
 6802POPC   PO425104   2.718  33.810   9.153
 6802POPC   GL125105   2.752  33.788   8.853
 6802POPC   GL225106   2.934  33.840   8.853
 6802POPC   C1A25107   2.749  33.761   8.553
 6802POPC   D2A25108   2.760  33.769   8.253
 6802POPC   C3A25109   2.806  33.806   7.953
 6802POPC   C4A25110   2.800  33.817   7.653
 6802POPC   C1B25111   3.051  33.797   8.553
 6802POPC   C2B25112   2.970  33.793   8.253
 6802POPC   C3B25113   2.982  33.780   7.953
 6802POPC   C4B25114   3.060  33.774   7.653
 6803POPC   NC325115  14.392  20.617   9.453
 6803POPC   PO425116  14.442  20.582   9.153
 6803POPC   GL125117  14.416  20.601   8.853
 6803POPC   GL225118  14.572  20.684   8.853
 6803POPC   C1A25119  14.418  20.597   8.553
 6803POPC   D2A25120  14.441  20.634   8.253
 6803POPC   C3A25121  14.414  20.613   7.953
 6803POPC   C4A25122  14.448  20.621   7.653
 6803POPC   C1B25123  14.666  20.651   8.553
 6803POPC   C2B25124  14.601  20.701   8.253
 6803POPC   C3B25125  14.615  20.685   7.953
 6803POPC   C4B25126  14.687  20.636   7.653
 6804POPC   NC325127  18.311  19.074   9.453
 6804POPC   PO425128  18.264  19.024   9.153
 6804POPC   GL125129  18.240  19.068   8.853
 6804POPC   GL225130  18.241  19.178   8.853
 6804POPC   C1A25131  18.270  19.092   8.553
 6804POPC   D2A25132  18.278  19.019   8.253
 6804POPC   C3A25133  18.247  19.013   7.953
 6804POPC   C4A25134  18.250  19.107   7.653
 6804POPC   C1B25135  18.133  19.255   8.553
 6804POPC   C2B25136  18.190  19.266   8.253
 6804POPC   C3B25137  18.167  19.256   7.953
 6804POPC   C4B25138  18.195  19.273   7.653
 6805POPC   NC325139  18.285  43.103   9.453
 6805POPC   PO425140  18.305  43.159   9.153
 6805POPC   GL125141  18.303  43.156   8.853
 6805POPC   GL225142  18.229  43.231   8.853
 6805POPC   C1A25143  18.241  43.085   8.553
 6805POPC   D2A25144  18.303  43.094   8.253
 6805POPC   C3A25145  18.312  43.084   7.953
 6805POPC   C4A25146  18.272  43.084   7.653
 6805POPC   C1B25147  18.133  43.242   8.553
 6805POPC   C2B25148  18.083  43.243   8.253
 6805POPC   C3B25149  18.113  43.248   7.953
 6805POPC   C4B25150  18.120  43.290   7.653
 6806POPC   NC325151  35.366  37.652   9.453
 6806POPC   PO425152  35.327  37.668   9.153
 6806POPC   GL125153  35.385  37.709   8.853
 6806POPC   GL225154  35.410  37.594   8.853
 6806POPC   C1A25155  35.314  37.680   8.553
 6806POPC   D2A25156  35.393  37.691   8.253
 6806POPC   C3A25157  35.391  37.671   7.953
 6806POPC   C4A25158  35.384  37.636   7.653
 6806POPC   C1B25159  35.439  37.447   8.553
 6806POPC   C2B25160  35.532  37.480   8.253
 6806POPC   C3B25161  35.508  37.454   7.953
 6806POPC   C4B25162  35.436  37.516   7.653
 6807POPC   NC325163  39.228   3.519   9.453
 6807POPC   PO425164  39.211   3.579   9.153
 6807POPC   GL125165  39.239   3.558   8.853
 6807POPC   GL225166  39.212   3.597   8.853
 6807POPC   C1A25167  39.264   3.584   8.553
 6807POPC   D2A25168  39.267   3.543   8.253
 6807POPC   C3A25169  39.196   3.543   7.953
 6807POPC   C4A25170  39.274   3.580   7.653
 6807POPC   C1B25171  39.111   3.774   8.553
 6807POPC   C2B25172  39.141   3.736   8.253
 6807POPC   C3B25173  39.122   3.738   7.953
 6807POPC   C4B25174  39.121   3.731   7.653
 6808POPC   NC325175  43.074  38.500   9.453
 6808POPC   PO425176  43.074  38.460   9.153
 6808POPC   GL125177  43.075  38.426   8.853
 6808POPC   GL225178  43.120  38.306   8.853
 6808POPC   C1A25179  43.145  38.443   8.553
 6808POPC   D2A25180  43.066  38.453   8.253
 6808POPC   C3A25181  43.061  38.420   7.953
 6808POPC   C4A25182  43.125  38.445   7.653
 6808POPC   C1B25183  43.253  38.190   8.553
 6808POPC   C2B25184  43.198  38.221   8.253
 6808POPC   C3B25185  43.222  38.175   7.953
 6808POPC   C4B25186  43.197  38.187   7.653
 6809POPC   NC325187  12.052  26.083   9.453
 6809POPC   PO425188  12.085  25.996   9.153
 6809POPC   GL125189  12.087  26.003   8.853
 6809POPC   GL225190  11.963  26.094   8.853
 6809POPC   C1A25191  12.106  26.073   8.553
 6809POPC   D2A25192  12.048  26.006   8.253
 6809POPC   C3A25193  12.083  26.004   7.953
 6809POPC   C4A25194  12.118  26.081   7.653
 6809POPC   C1B25195  11.878  26.133   8.553
 6809POPC   C2B25196  11.849  26.119   8.253
 6809POPC   C3B25197  11.866  26.123   7.953
 6809POPC   C4B25198  11.827  26.083   7.653
 6810POPC   NC325199   9.767  29.938   9.453
 6810POPC   PO425200   9.721  29.963   9.153
 6810POPC   GL125201   9.708  29.965   8.853
 6810POPC   GL225202   9.767  29.794   8.853
 6810POPC   C1A25203   9.768  29.920   8.553
 6810POPC   D2A25204   9.786  29.898   8.253
 6810POPC   C3A25205   9.725  29.950   7.953
 6810POPC   C4A25206   9.750  29.962   7.653
 6810POPC   C1B25207   9.786  29.723   8.553
 6810POPC   C2B25208   9.863  29.638   8.253
 6810POPC   C3B25209   9.862  29.648   7.953
 6810POPC   C4B25210   9.782  29.641   7.653
 6811POPC   NC325211  43.869  33.788   9.453
 6811POPC   PO425212  43.910  33.798   9.153
 6811POPC   GL125213  43.867  33.808   8.853
 6811POPC   GL225214  43.968  33.665   8.853
 6811POPC   C1A25215  43.888  33.773   8.553
 6811POPC   D2A25216  43.840  33.847   8.253
 6811POPC   C3A25217  43.885  33.777   7.953
 6811POPC   C4A25218  43.910  33.772   7.653
 6811POPC   C1B25219  43.979  33.564   8.553
 6811POPC   C2B25220  43.949  33.528   8.253
 6811POPC   C3B25221  43.933  33.588   7.953
 6811POPC   C4B25222  43.989  33.601   7.653
 6812POPC   NC325223  11.275   3.522   9.453
 6812POPC   PO425224  11.326   3.556   9.153
 6812POPC   GL125225  11.261   3.567   8.853
 6812POPC   GL225226  11.161   3.628   8.853
 6812POPC   C1A25227  11.276   3.518   8.553
 6812POPC   D2A25228  11.306   3.532   8.253
 6812POPC   C3A25229  11.341   3.519   7.953
 6812POPC   C4A25230  11.313   3.518   7.653
 6812POPC   C1B25231  11.050   3.685   8.553
 6812POPC   C2B25232  11.048   3.691   8.253
 6812POPC   C3B25233  11.055   3.658   7.953
 6812POPC   C4B25234  11.100   3.647   7.653
 6813POPC   NC325235  24.445  13.675   9.453
 6813POPC   PO425236  24.521  13.674   9.153
 6813POPC   GL125237  24.522  13.634   8.853
 6813POPC   GL225238  24.572  13.477   8.853
 6813POPC   C1A25239  24.485  13.640   8.553
 6813POPC   D2A25240  24.474  13.629   8.253
 6813POPC   C3A25241  24.539  13.610   7.953
 6813POPC   C4A25242  24.537  13.609   7.653
 6813POPC   C1B25243  24.682  13.420   8.553
 6813POPC   C2B25244  24.662  13.403   8.253
 6813POPC   C3B25245  24.638  13.450   7.953
 6813POPC   C4B25246  24.620  13.390   7.653
 6814POPC   NC325247  12.852  28.321   9.453
 6814POPC   PO425248  12.816  28.377   9.153
 6814POPC   GL125249  12.852  28.355   8.853
 6814POPC   GL225250  12.816  28.268   8.853
 6814POPC   C1A25251  12.865  28.403   8.553
 6814POPC   D2A25252  12.876  28.332   8.253
 6814POPC   C3A25253  12.889  28.398   7.953
 6814POPC   C4A25254  12.881  28.365   7.653
 6814POPC   C1B25255  12.826  28.133   8.553
 6814POPC   C2B25256  12.789  28.138   8.253
 6814POPC   C3B25257  12.794  28.135   7.953
 6814POPC   C4B25258  12.850  28.095   7.653
 6815POPC   NC325259  41.529  18.295   9.453
 6815POPC   PO425260  41.594  18.268   9.153
 6815POPC   GL125261  41.606  18.240   8.853
 6815POPC   GL225262  41.482  18.363   8.853
 6815POPC   C1A25263  41.547  18.322   8.553
 6815POPC   D2A25264  41.526  18.292   8.253
 6815POPC   C3A25265  41.579  18.263   7.953
 6815POPC   C4A25266  41.527  18.283   7.653
 6815POPC   C1B25267  41.361  18.456   8.553
 6815POPC   C2B25268  41.373  18.516   8.253
 6815POPC   C3B25269  41.374  18.478   7.953
 6815POPC   C4B25270  41.410  18.432   7.653
 6816POPC   NC325271  30.742  40.808   9.453
 6816POPC   PO425272  30.715  40.817   9.153
 6816POPC   GL125273  30.708  40.797   8.853
 6816POPC   GL225274  30.758  40.849   8.853
 6816POPC   C1A25275  30.691  40.776   8.553
 6816POPC   D2A25276  30.744  40.790   8.253
 6816POPC   C3A25277  30.702  40.744   7.953
 6816POPC   C4A25278  30.695  40.742   7.653
 6816POPC   C1B25279  30.895  40.961   8.553
 6816POPC   C2B25280  30.848  40.923   8.253
 6816POPC   C3B25281  30.934  40.984   7.953
 6816POPC   C4B25282  30.907  40.891   7.653
 6817POPC   NC325283  14.400  38.447   9.453
 6817POPC   PO425284  14.355  38.488   9.153
 6817POPC   GL125285  14.396  38.451   8.853
 6817POPC   GL225286  14.470  38.569   8.853
 6817POPC   C1A25287  14.432  38.420   8.553
 6817POPC   D2A25288  14.378  38.471   8.253
 6817POPC   C3A25289  14.423  38.469   7.953
 6817POPC   C4A25290  14.403  38.426   7.653
 6817POPC   C1B25291  14.610  38.599   8.553
 6817POPC   C2B25292  14.649  38.560   8.253
 6817POPC   C3B25293  14.626  38.573   7.953
 6817POPC   C4B25294  14.612  38.616   7.653
 6818POPC   NC325295  26.852  43.120   9.453
 6818POPC   PO425296  26.804  43.127   9.153
 6818POPC   GL125297  26.789  43.103   8.853
 6818POPC   GL225298  26.787  43.035   8.853
 6818POPC   C1A25299  26.840  43.075   8.553
 6818POPC   D2A25300  26.779  43.126   8.253
 6818POPC   C3A25301  26.782  43.148   7.953
 6818POPC   C4A25302  26.820  43.093   7.653
 6818POPC   C1B25303  26.784  42.895   8.553
 6818POPC   C2B25304  26.812  42.886   8.253
 6818POPC   C3B25305  26.782  42.812   7.953
 6818POPC   C4B25306  26.749  42.882   7.653
 6819POPC   NC325307  41.597   7.419   9.453
 6819POPC   PO425308  41.604   7.378   9.153
 6819POPC   GL125309  41.556   7.469   8.853
 6819POPC   GL225310  41.618   7.318   8.853
 6819POPC   C1A25311  41.528   7.384   8.553
 6819POPC   D2A25312  41.559   7.469   8.253
 6819POPC   C3A25313  41.607   7.458   7.953
 6819POPC   C4A25314  41.575   7.399   7.653
 6819POPC   C1B25315  41.696   7.191   8.553
 6819POPC   C2B25316  41.743   7.247   8.253
 6819POPC   C3B25317  41.724   7.237   7.953
 6819POPC   C4B25318  41.701   7.245   7.653
 6820POPC   NC325319  22.947  44.636   9.453
 6820POPC   PO425320  22.901  44.703   9.153
 6820POPC   GL125321  22.978  44.704   8.853
 6820POPC   GL225322  22.880  44.738   8.853
 6820POPC   C1A25323  22.947  44.622   8.553
 6820POPC   D2A25324  22.917  44.645   8.253
 6820POPC   C3A25325  22.900  44.699   7.953
 6820POPC   C4A25326  22.938  44.703   7.653
 6820POPC   C1B25327  22.964  44.958   8.553
 6820POPC   C2B25328  22.936  44.923   8.253
 6820POPC   C3B25329  22.938  44.890   7.953
 6820POPC   C4B25330  22.964  44.869   7.653
 6821POPC   NC325331  25.238   7.405   9.453
 6821POPC   PO425332  25.235   7.465   9.153
 6821POPC   GL125333  25.241   7.469   8.853
 6821POPC   GL225334  25.390   7.429   8.853
 6821POPC   C1A25335  25.231   7.396   8.553
 6821POPC   D2A25336  25.296   7.467   8.253
 6821POPC   C3A25337  25.252   7.396   7.953
 6821POPC   C4A25338  25.299   7.423   7.653
 6821POPC   C1B25339  25.529   7.530   8.553
 6821POPC   C2B25340  25.476   7.466   8.253
 6821POPC   C3B25341  25.513   7.519   7.953
 6821POPC   C4B25342  25.539   7.542   7.653
 6822POPC   NC325343   0.457  13.649   9.453
 6822POPC   PO425344   0.394  13.599   9.153
 6822POPC   GL125345   0.446  13.656   8.853
 6822POPC   GL225346   0.391  13.535   8.853
 6822POPC   C1A25347   0.439  13.583   8.553
 6822POPC   D2A25348   0.412  13.582   8.253
 6822POPC   C3A25349   0.392  13.651   7.953
 6822POPC   C4A25350   0.474  13.650   7.653
 6822POPC   C1B25351   0.323  13.418   8.553
 6822POPC   C2B25352   0.345  13.375   8.253
 6822POPC   C3B25353   0.357  13.410   7.953
 6822POPC   C4B25354   0.358  13.399   7.653
 6823POPC   NC325355  17.508  43.931   9.453
 6823POPC   PO425356  17.522  43.846   9.153
 6823POPC   GL125357  17.553  43.935   8.853
 6823POPC   GL225358  17.561  43.985   8.853
 6823POPC   C1A25359  17.552  43.857   8.553
 6823POPC   D2A25360  17.548  43.925   8.253
 6823POPC   C3A25361  17.508  43.885   7.953
 6823POPC   C4A25362  17.553  43.921   7.653
 6823POPC   C1B25363  17.497  44.176   8.553
 6823POPC   C2B25364  17.501  44.171   8.253
 6823POPC   C3B25365  17.518  44.085   7.953
 6823POPC   C4B25366  17.505  44.127   7.653
 6824POPC   NC325367  16.734  40.801   9.453
 6824POPC   PO425368  16.767  40.778   9.153
 6824POPC   GL125369  16.727  40.791   8.853
 6824POPC   GL225370  16.853  40.642   8.853
 6824POPC   C1A25371  16.720  40.805   8.553
 6824POPC   D2A25372  16.716  40.822   8.253
 6824POPC   C3A25373  16.773  40.812   7.953
 6824POPC   C4A25374  16.737  40.820   7.653
 6824POPC   C1B25375  16.865  40.614   8.553
 6824POPC   C2B25376  16.897  40.592   8.253
 6824POPC   C3B25377  16.917  40.551   7.953
 6824POPC   C4B25378  16.917  40.555   7.653
 6825POPC   NC325379  43.138  23.762   9.453
 6825POPC   PO425380  43.129  23.729   9.153
 6825POPC   GL125381  43.068  23.748   8.853
 6825POPC   GL225382  43.100  23.612   8.853
 6825POPC   C1A25383  43.088  23.691   8.553
 6825POPC   D2A25384  43.069  23.696   8.253
 6825POPC   C3A25385  43.106  23.708   7.953
 6825POPC   C4A25386  43.155  23.691   7.653
 6825POPC   C1B25387  43.203  23.475   8.553
 6825POPC   C2B25388  43.131  23.485   8.253
 6825POPC   C3B25389  43.183  23.515   7.953
 6825POPC   C4B25390  43.210  23.432   7.653
 6826POPC   NC325391  43.929  36.105   9.453
 6826POPC   PO425392  43.851  36.148   9.153
 6826POPC   GL125393  43.847  36.114   8.853
 6826POPC   GL225394  43.995  36.008   8.853
 6826POPC   C1A25395  43.879  36.104   8.553
 6826POPC   D2A25396  43.857  36.092   8.253
 6826POPC   C3A25397  43.902  36.133   7.953
 6826POPC   C4A25398  43.868  36.150   7.653
 6826POPC   C1B25399  44.043  36.029   8.553
 6826POPC   C2B25400  44.054  35.972   8.253
 6826POPC   C3B25401  44.076  35.993   7.953
 6826POPC   C4B25402  44.135  36.019   7.653
 6827POPC   NC325403  38.420  39.234   9.453
 6827POPC   PO425404  38.479  39.219   9.153
 6827POPC   GL125405  38.457  39.207   8.853
 6827POPC   GL225406  38.529  39.338   8.853
 6827POPC   C1A25407  38.460  39.268   8.553
 6827POPC   D2A25408  38.458  39.194   8.253
 6827POPC   C3A25409  38.412  39.191   7.953
 6827POPC   C4A25410  38.488  39.257   7.653
 6827POPC   C1B25411  38.626  39.326   8.553
 6827POPC   C2B25412  38.638  39.416   8.253
 6827POPC   C3B25413  38.644  39.362   7.953
 6827POPC   C4B25414  38.631  39.405   7.653
 6828POPC   NC325415  43.882  31.509   9.453
 6828POPC   PO425416  43.862  31.485   9.153
 6828POPC   GL125417  43.881  31.481   8.853
 6828POPC   GL225418  44.009  31.564   8.853
 6828POPC   C1A25419  43.860  31.429   8.553
 6828POPC   D2A25420  43.919  31.483   8.253
 6828POPC   C3A25421  43.905  31.513   7.953
 6828POPC   C4A25422  43.840  31.450   7.653
 6828POPC   C1B25423  44.070  31.598   8.553
 6828POPC   C2B25424  44.141  31.604   8.253
 6828POPC   C3B25425  44.137  31.607   7.953
 6828POPC   C4B25426  44.129  31.591   7.653
 6829POPC   NC325427  19.809  15.966   9.453
 6829POPC   PO425428  19.844  15.911   9.153
 6829POPC   GL125429  19.859  15.994   8.853
 6829POPC   GL225430  19.923  16.101   8.853
 6829POPC   C1A25431  19.846  15.926   8.553
 6829POPC   D2A25432  19.845  15.970   8.253
 6829POPC   C3A25433  19.877  15.977   7.953
 6829POPC   C4A25434  19.840  15.991   7.653
 6829POPC   C1B25435  19.948  16.225   8.553
 6829POPC   C2B25436  19.891  16.189   8.253
 6829POPC   C3B25437  19.963  16.183   7.953
 6829POPC   C4B25438  19.919  16.180   7.653
 6830POPC   NC325439  34.611  29.878   9.453
 6830POPC   PO425440  34.550  29.899   9.153
 6830POPC   GL125441  34.579  29.922   8.853
 6830POPC   GL225442  34.461  29.894   8.853
 6830POPC   C1A25443  34.581  29.893   8.553
 6830POPC   D2A25444  34.558  29.942   8.253
 6830POPC   C3A25445  34.560  29.938   7.953
 6830POPC   C4A25446  34.566  29.874   7.653
 6830POPC   C1B25447  34.358  29.841   8.553
 6830POPC   C2B25448  34.394  29.755   8.253
 6830POPC   C3B25449  34.371  29.760   7.953
 6830POPC   C4B25450  34.373  29.755   7.653
 6831POPC   NC325451   1.243  41.521   9.453
 6831POPC   PO425452   1.225  41.542   9.153
 6831POPC   GL125453   1.198  41.608   8.853
 6831POPC   GL225454   1.123  41.488   8.853
 6831POPC   C1A25455   1.246  41.601   8.553
 6831POPC   D2A25456   1.199  41.576   8.253
 6831POPC   C3A25457   1.169  41.576   7.953
 6831POPC   C4A25458   1.232  41.520   7.653
 6831POPC   C1B25459   0.997  41.401   8.553
 6831POPC   C2B25460   1.021  41.435   8.253
 6831POPC   C3B25461   1.012  41.398   7.953
 6831POPC   C4B25462   1.060  41.424   7.653
 6832POPC   NC325463  25.272  15.926   9.453
 6832POPC   PO425464  25.241  15.958   9.153
 6832POPC   GL125465  25.312  15.943   8.853
 6832POPC   GL225466  25.257  16.053   8.853
 6832POPC   C1A25467  25.291  15.929   8.553
 6832POPC   D2A25468  25.259  15.988   8.253
 6832POPC   C3A25469  25.271  15.946   7.953
 6832POPC   C4A25470  25.280  15.999   7.653
 6832POPC   C1B25471  25.121  16.178   8.553
 6832POPC   C2B25472  25.208  16.224   8.253
 6832POPC   C3B25473  25.151  16.142   7.953
 6832POPC   C4B25474  25.144  16.221   7.653
 6833POPC   NC325475  17.504   4.329   9.453
 6833POPC   PO425476  17.471   4.316   9.153
 6833POPC   GL125477  17.525   4.308   8.853
 6833POPC   GL225478  17.405   4.328   8.853
 6833POPC   C1A25479  17.507   4.305   8.553
 6833POPC   D2A25480  17.484   4.365   8.253
 6833POPC   C3A25481  17.522   4.321   7.953
 6833POPC   C4A25482  17.510   4.306   7.653
 6833POPC   C1B25483  17.229   4.371   8.553
 6833POPC   C2B25484  17.250   4.375   8.253
 6833POPC   C3B25485  17.297   4.417   7.953
 6833POPC   C4B25486  17.281   4.400   7.653
 6834POPC   NC325487  16.703  19.079   9.453
 6834POPC   PO425488  16.770  19.104   9.153
 6834POPC   GL125489  16.686  19.045   8.853
 6834POPC   GL225490  16.749  18.955   8.853
 6834POPC   C1A25491  16.731  19.035   8.553
 6834POPC   D2A25492  16.721  19.108   8.253
 6834POPC   C3A25493  16.765  19.022   7.953
 6834POPC   C4A25494  16.773  19.044   7.653
 6834POPC   C1B25495  16.761  18.767   8.553
 6834POPC   C2B25496  16.676  18.797   8.253
 6834POPC   C3B25497  16.681  18.807   7.953
 6834POPC   C4B25498  16.727  18.806   7.653
 6835POPC   NC325499   6.634  26.075   9.453
 6835POPC   PO425500   6.631  25.993   9.153
 6835POPC   GL125501   6.683  26.060   8.853
 6835POPC   GL225502   6.554  26.094   8.853
 6835POPC   C1A25503   6.618  26.089   8.553
 6835POPC   D2A25504   6.611  26.020   8.253
 6835POPC   C3A25505   6.600  26.001   7.953
 6835POPC   C4A25506   6.654  25.997   7.653
 6835POPC   C1B25507   6.451  26.168   8.553
 6835POPC   C2B25508   6.377  26.119   8.253
 6835POPC   C3B25509   6.442  26.155   7.953
 6835POPC   C4B25510   6.437  26.157   7.653
 6836POPC   NC325511  27.623  20.645   9.453
 6836POPC   PO425512  27.627  20.637   9.153
 6836POPC   GL125513  27.613  20.647   8.853
 6836POPC   GL225514  27.580  20.713   8.853
 6836POPC   C1A25515  27.593  20.660   8.553
 6836POPC   D2A25516  27.566  20.576   8.253
 6836POPC   C3A25517  27.562  20.600   7.953
 6836POPC   C4A25518  27.592  20.581   7.653
 6836POPC   C1B25519  27.513  20.829   8.553
 6836POPC   C2B25520  27.591  20.840   8.253
 6836POPC   C3B25521  27.501  20.888   7.953
 6836POPC   C4B25522  27.514  20.827   7.653
 6837POPC   NC325523  32.246  11.334   9.453
 6837POPC   PO425524  32.219  11.340   9.153
 6837POPC   GL125525  32.203  11.328   8.853
 6837POPC   GL225526  32.307  11.452   8.853
 6837POPC   C1A25527  32.252  11.338   8.553
 6837POPC   D2A25528  32.266  11.309   8.253
 6837POPC   C3A25529  32.255  11.310   7.953
 6837POPC   C4A25530  32.248  11.256   7.653
 6837POPC   C1B25531  32.380  11.582   8.553
 6837POPC   C2B25532  32.359  11.509   8.253
 6837POPC   C3B25533  32.381  11.490   7.953
 6837POPC   C4B25534  32.311  11.526   7.653
 6838POPC   NC325535  34.584  44.620   9.453
 6838POPC   PO425536  34.604  44.642   9.153
 6838POPC   GL125537  34.612  44.683   8.853
 6838POPC   GL225538  34.663  44.806   8.853
 6838POPC   C1A25539  34.597  44.651   8.553
 6838POPC   D2A25540  34.623  44.653   8.253
 6838POPC   C3A25541  34.616  44.644   7.953
 6838POPC   C4A25542  34.537  44.647   7.653
 6838POPC   C1B25543  34.660  44.862   8.553
 6838POPC   C2B25544  34.704  44.933   8.253
 6838POPC   C3B25545  34.699  44.886   7.953
 6838POPC   C4B25546  34.645  44.892   7.653
 6839POPC   NC325547  10.549  16.732   9.453
 6839POPC   PO425548  10.476  16.737   9.153
 6839POPC   GL125549  10.510  16.699   8.853
 6839POPC   GL225550  10.525  16.588   8.853
 6839POPC   C1A25551  10.526  16.734   8.553
 6839POPC   D2A25552  10.541  16.739   8.253
 6839POPC   C3A25553  10.491  16.714   7.953
 6839POPC   C4A25554  10.495  16.780   7.653
 6839POPC   C1B25555  10.535  16.493   8.553
 6839POPC   C2B25556  10.526  16.505   8.253
 6839POPC   C3B25557  10.482  16.501   7.953
 6839POPC   C4B25558  10.540  16.456   7.653
 6840POPC   NC325559   7.450  36.877   9.453
 6840POPC   PO425560   7.390  36.899   9.153
 6840POPC   GL125561   7.455  36.886   8.853
 6840POPC   GL225562   7.308  36.805   8.853
 6840POPC   C1A25563   7.458  36.938   8.553
 6840POPC   D2A25564   7.395  36.903   8.253
 6840POPC   C3A25565   7.392  36.869   7.953
 6840POPC   C4A25566   7.447  36.904   7.653
 6840POPC   C1B25567   7.229  36.725   8.553
 6840POPC   C2B25568   7.182  36.736   8.253
 6840POPC   C3B25569   7.216  36.749   7.953
 6840POPC   C4B25570   7.199  36.773   7.653
 6841POPC   NC325571  14.383  25.290   9.453
 6841POPC   PO425572  14.395  25.269   9.153
 6841POPC   GL125573  14.373  25.231   8.853
 6841POPC   GL225574  14.404  25.149   8.853
 6841POPC   C1A25575  14.372  25.239   8.553
 6841POPC   D2A25576  14.444  25.304   8.253
 6841POPC   C3A25577  14.356  25.266   7.953
 6841POPC   C4A25578  14.411  25.230   7.653
 6841POPC   C1B25579  14.516  24.987   8.553
 6841POPC   C2B25580  14.532  25.054   8.253
 6841POPC   C3B25581  14.538  25.000   7.953
 6841POPC   C4B25582  14.535  25.054   7.653
 6842POPC   NC325583  44.639  11.312   9.453
 6842POPC   PO425584  44.660  11.288   9.153
 6842POPC   GL125585  44.684  11.277   8.853
 6842POPC   GL225586  44.542  11.208   8.853
 6842POPC   C1A25587  44.696  11.257   8.553
 6842POPC   D2A25588  44.627  11.288   8.253
 6842POPC   C3A25589  44.705  11.282   7.953
 6842POPC   C4A25590  44.654  11.327   7.653
 6842POPC   C1B25591  44.468  11.169   8.553
 6842POPC   C2B25592  44.455  11.211   8.253
 6842POPC   C3B25593  44.418  11.244   7.953
 6842POPC   C4B25594  44.442  11.250   7.653
 6843POPC   NC325595  33.049   7.460   9.453
 6843POPC   PO425596  33.036   7.454   9.153
 6843POPC   GL125597  33.028   7.419   8.853
 6843POPC   GL225598  33.056   7.325   8.853
 6843POPC   C1A25599  32.974   7.371   8.553
 6843POPC   D2A25600  33.046   7.442   8.253
 6843POPC   C3A25601  32.992   7.392   7.953
 6843POPC   C4A25602  33.018   7.441   7.653
 6843POPC   C1B25603  33.216   7.193   8.553
 6843POPC   C2B25604  33.189   7.218   8.253
 6843POPC   C3B25605  33.202   7.244   7.953
 6843POPC   C4B25606  33.142   7.245   7.653
 6844POPC   NC325607  39.197  29.137   9.453
 6844POPC   PO425608  39.210  29.184   9.153
 6844POPC   GL125609  39.201  29.173   8.853
 6844POPC   GL225610  39.323  29.170   8.853
 6844POPC   C1A25611  39.213  29.151   8.553
 6844POPC   D2A25612  39.255  29.184   8.253
 6844POPC   C3A25613  39.250  29.112   7.953
 6844POPC   C4A25614  39.257  29.162   7.653
 6844POPC   C1B25615  39.469  29.260   8.553
 6844POPC   C2B25616  39.504  29.253   8.253
 6844POPC   C3B25617  39.495  29.199   7.953
 6844POPC   C4B25618  39.430  29.277   7.653
 6845POPC   NC325619  35.392  26.089   9.453
 6845POPC   PO425620  35.383  26.082   9.153
 6845POPC   GL125621  35.377  26.082   8.853
 6845POPC   GL225622  35.305  26.137   8.853
 6845POPC   C1A25623  35.362  26.055   8.553
 6845POPC   D2A25624  35.398  26.052   8.253
 6845POPC   C3A25625  35.329  26.050   7.953
 6845POPC   C4A25626  35.379  26.066   7.653
 6845POPC   C1B25627  35.224  26.226   8.553
 6845POPC   C2B25628  35.188  26.202   8.253
 6845POPC   C3B25629  35.174  26.268   7.953
 6845POPC   C4B25630  35.220  26.262   7.653
 6846POPC   NC325631   7.395  28.351   9.453
 6846POPC   PO425632   7.452  28.373   9.153
 6846POPC   GL125633   7.443  28.334   8.853
 6846POPC   GL225634   7.331  28.420   8.853
 6846POPC   C1A25635   7.456  28.410   8.553
 6846POPC   D2A25636   7.413  28.385   8.253
 6846POPC   C3A25637   7.438  28.359   7.953
 6846POPC   C4A25638   7.379  28.366   7.653
 6846POPC   C1B25639   7.134  28.472   8.553
 6846POPC   C2B25640   7.173  28.423   8.253
 6846POPC   C3B25641   7.130  28.449   7.953
 6846POPC   C4B25642   7.211  28.455   7.653
 6847POPC   NC325643  18.273  41.524   9.453
 6847POPC   PO425644  18.237  41.570   9.153
 6847POPC   GL125645  18.259  41.545   8.853
 6847POPC   GL225646  18.333  41.683   8.853
 6847POPC   C1A25647  18.297  41.538   8.553
 6847POPC   D2A25648  18.261  41.587   8.253
 6847POPC   C3A25649  18.246  41.594   7.953
 6847POPC   C4A25650  18.289  41.536   7.653
 6847POPC   C1B25651  18.359  41.746   8.553
 6847POPC   C2B25652  18.330  41.831   8.253
 6847POPC   C3B25653  18.375  41.825   7.953
 6847POPC   C4B25654  18.386  41.795   7.653
 6848POPC   NC325655  22.156  20.598   9.453
 6848POPC   PO425656  22.187  20.603   9.153
 6848POPC   GL125657  22.166  20.619   8.853
 6848POPC   GL225658  22.238  20.635   8.853
 6848POPC   C1A25659  22.181  20.632   8.553
 6848POPC   D2A25660  22.125  20.611   8.253
 6848POPC   C3A25661  22.191  20.628   7.953
 6848POPC   C4A25662  22.198  20.610   7.653
 6848POPC   C1B25663  22.454  20.620   8.553
 6848POPC   C2B25664  22.376  20.684   8.253
 6848POPC   C3B25665  22.367  20.623   7.953
 6848POPC   C4B25666  22.424  20.683   7.653
 6849POPC   NC325667  29.193  36.175   9.453
 6849POPC   PO425668  29.095  36.124   9.153
 6849POPC   GL125669  29.194  36.085   8.853
 6849POPC   GL225670  29.111  36.261   8.853
 6849POPC   C1A25671  29.190  36.172   8.553
 6849POPC   D2A25672  29.102  36.087   8.253
 6849POPC   C3A25673  29.119  36.161   7.953
 6849POPC   C4A25674  29.172  36.106   7.653
 6849POPC   C1B25675  29.061  36.350   8.553
 6849POPC   C2B25676  29.051  36.398   8.253
 6849POPC   C3B25677  29.014  36.394   7.953
 6849POPC   C4B25678  29.079  36.372   7.653
 6850POPC   NC325679  26.811   4.292   9.453
 6850POPC   PO425680  26.835   4.359   9.153
 6850POPC   GL125681  26.768   4.332   8.853
 6850POPC   GL225682  26.673   4.368   8.853
 6850POPC   C1A25683  26.827   4.276   8.553
 6850POPC   D2A25684  26.802   4.304   8.253
 6850POPC   C3A25685  26.823   4.294   7.953
 6850POPC   C4A25686  26.778   4.295   7.653
 6850POPC   C1B25687  26.540   4.402   8.553
 6850POPC   C2B25688  26.528   4.356   8.253
 6850POPC   C3B25689  26.576   4.431   7.953
 6850POPC   C4B25690  26.618   4.342   7.653
 6851POPC   NC325691  35.324  19.807   9.453
 6851POPC   PO425692  35.386  19.799   9.153
 6851POPC   GL125693  35.365  19.860   8.853
 6851POPC   GL225694  35.466  19.876   8.853
 6851POPC   C1A25695  35.309  19.832   8.553
 6851POPC   D2A25696  35.369  19.884   8.253
 6851POPC   C3A25697  35.386  19.798   7.953
 6851POPC   C4A25698  35.354  19.824   7.653
 6851POPC   C1B25699  35.596  19.901   8.553
 6851POPC   C2B25700  35.597  19.860   8.253
 6851POPC   C3B25701  35.639  19.817   7.953
 6851POPC   C4B25702  35.648  19.852   7.653
 6852POPC   NC325703  15.221  41.589   9.453
 6852POPC   PO425704  15.153  41.578   9.153
 6852POPC   GL125705  15.168  41.601   8.853
 6852POPC   GL225706  15.145  41.427   8.853
 6852POPC   C1A25707  15.177  41.567   8.553
 6852POPC   D2A25708  15.165  41.528   8.253
 6852POPC   C3A25709  15.193  41.526   7.953
 6852POPC   C4A25710  15.160  41.520   7.653
 6852POPC   C1B25711  15.198  41.337   8.553
 6852POPC   C2B25712  15.256  41.327   8.253
 6852POPC   C3B25713  15.195  41.345   7.953
 6852POPC   C4B25714  15.254  41.317   7.653
 6853POPC   NC325715  18.302  23.670   9.453
 6853POPC   PO425716  18.316  23.759   9.153
 6853POPC   GL125717  18.266  23.750   8.853
 6853POPC   GL225718  18.408  23.760   8.853
 6853POPC   C1A25719  18.234  23.688   8.553
 6853POPC   D2A25720  18.265  23.723   8.253
 6853POPC   C3A25721  18.242  23.677   7.953
 6853POPC   C4A25722  18.244  23.730   7.653
 6853POPC   C1B25723  18.540  23.750   8.553
 6853POPC   C2B25724  18.554  23.682   8.253
 6853POPC   C3B25725  18.534  23.669   7.953
 6853POPC   C4B25726  18.573  23.672   7.653
 6854POPC   NC325727  41.562  36.935   9.453
 6854POPC   PO425728  41.555  36.930   9.153
 6854POPC   GL125729  41.585  36.886   8.853
 6854POPC   GL225730  41.637  37.021   8.853
 6854POPC   C1A25731  41.594  36.874   8.553
 6854POPC   D2A25732  41.594  36.951   8.253
 6854POPC   C3A25733  41.581  36.918   7.953
 6854POPC   C4A25734  41.526  36.866   7.653
 6854POPC   C1B25735  41.680  37.151   8.553
 6854POPC   C2B25736  41.677  37.099   8.253
 6854POPC   C3B25737  41.734  37.143   7.953
 6854POPC   C4B25738  41.665  37.099   7.653
 6855POPC   NC325739  13.663  40.775   9.453
 6855POPC   PO425740  13.595  40.753   9.153
 6855POPC   GL125741  13.608  40.791   8.853
 6855POPC   GL225742  13.726  40.849   8.853
 6855POPC   C1A25743  13.591  40.733   8.553
 6855POPC   D2A25744  13.675  40.751   8.253
 6855POPC   C3A25745  13.608  40.740   7.953
 6855POPC   C4A25746  13.617  40.804   7.653
 6855POPC   C1B25747  13.863  40.954   8.553
 6855POPC   C2B25748  13.779  40.924   8.253
 6855POPC   C3B25749  13.821  40.918   7.953
 6855POPC   C4B25750  13.857  40.911   7.653
 6856POPC   NC325751  18.243  29.911   9.453
 6856POPC   PO425752  18.331  29.906   9.153
 6856POPC   GL125753  18.314  29.943   8.853
 6856POPC   GL225754  18.402  29.908   8.853
 6856POPC   C1A25755  18.243  29.874   8.553
 6856POPC   D2A25756  18.284  29.951   8.253
 6856POPC   C3A25757  18.246  29.872   7.953
 6856POPC   C4A25758  18.261  29.952   7.653
 6856POPC   C1B25759  18.470  29.834   8.553
 6856POPC   C2B25760  18.547  29.854   8.253
 6856POPC   C3B25761  18.507  29.789   7.953
 6856POPC   C4B25762  18.482  29.821   7.653
 6857POPC   NC325763   2.804  17.552   9.453
 6857POPC   PO425764   2.740  17.526   9.153
 6857POPC   GL125765   2.717  17.475   8.853
 6857POPC   GL225766   2.642  17.451   8.853
 6857POPC   C1A25767   2.789  17.492   8.553
 6857POPC   D2A25768   2.781  17.515   8.253
 6857POPC   C3A25769   2.759  17.499   7.953
 6857POPC   C4A25770   2.768  17.484   7.653
 6857POPC   C1B25771   2.541  17.421   8.553
 6857POPC   C2B25772   2.578  17.446   8.253
 6857POPC   C3B25773   2.532  17.450   7.953
 6857POPC   C4B25774   2.513  17.388   7.653
 6858POPC   NC325775   6.663  41.524   9.453
 6858POPC   PO425776   6.664  41.532   9.153
 6858POPC   GL125777   6.651  41.527   8.853
 6858POPC   GL225778   6.652  41.398   8.853
 6858POPC   C1A25779   6.637  41.542   8.553
 6858POPC   D2A25780   6.625  41.577   8.253
 6858POPC   C3A25781   6.652  41.581   7.953
 6858POPC   C4A25782   6.603  41.521   7.653
 6858POPC   C1B25783   6.582  41.278   8.553
 6858POPC   C2B25784   6.598  41.292   8.253
 6858POPC   C3B25785   6.627  41.339   7.953
 6858POPC   C4B25786   6.632  41.335   7.653
 6859POPC   NC325787  23.739  16.754   9.453
 6859POPC   PO425788  23.747  16.775   9.153
 6859POPC   GL125789  23.744  16.737   8.853
 6859POPC   GL225790  23.806  16.595   8.853
 6859POPC   C1A25791  23.732  16.740   8.553
 6859POPC   D2A25792  23.716  16.746   8.253
 6859POPC   C3A25793  23.670  16.761   7.953
 6859POPC   C4A25794  23.718  16.763   7.653
 6859POPC   C1B25795  23.928  16.590   8.553
 6859POPC   C2B25796  23.875  16.593   8.253
 6859POPC   C3B25797  23.891  16.519   7.953
 6859POPC   C4B25798  23.897  16.560   7.653
 6860POPC   NC325799   0.399   1.214   9.453
 6860POPC   PO425800   0.453   1.177   9.153
 6860POPC   GL125801   0.389   1.189   8.853
 6860POPC   GL225802   0.454   1.380   8.853
 6860POPC   C1A25803   0.470   1.213   8.553
 6860POPC   D2A25804   0.429   1.171   8.253
 6860POPC   C3A25805   0.411   1.255   7.953
 6860POPC   C4A25806   0.398   1.227   7.653
 6860POPC   C1B25807   0.412   1.441   8.553
 6860POPC   C2B25808   0.373   1.449   8.253
 6860POPC   C3B25809   0.419   1.436   7.953
 6860POPC   C4B25810   0.374   1.412   7.653
 6861POPC   NC325811  43.155  31.496   9.453
 6861POPC   PO425812  43.092  31.491   9.153
 6861POPC   GL125813  43.121  31.452   8.853
 6861POPC   GL225814  43.142  31.587   8.853
 6861POPC   C1A25815  43.070  31.467   8.553
 6861POPC   D2A25816  43.061  31.493   8.253
 6861POPC   C3A25817  43.121  31.438   7.953
 6861POPC   C4A25818  43.115  31.517   7.653
 6861POPC   C1B25819  43.185  31.738   8.553
 6861POPC   C2B25820  43.172  31.705   8.253
 6861POPC   C3B25821  43.200  31.672   7.953
 6861POPC   C4B25822  43.177  31.706   7.653
 6862POPC   NC325823  41.510  40.009   9.453
 6862POPC   PO425824  41.555  40.020   9.153
 6862POPC   GL125825  41.582  39.978   8.853
 6862POPC   GL225826  41.676  39.939   8.853
 6862POPC   C1A25827  41.569  39.976   8.553
 6862POPC   D2A25828  41.532  40.033   8.253
 6862POPC   C3A25829  41.605  39.964   7.953
 6862POPC   C4A25830  41.545  39.988   7.653
 6862POPC   C1B25831  41.758  39.833   8.553
 6862POPC   C2B25832  41.741  39.887   8.253
 6862POPC   C3B25833  41.797  39.889   7.953
 6862POPC   C4B25834  41.724  39.868   7.653
 6863POPC   NC325835  28.369  15.179   9.453
 6863POPC   PO425836  28.349  15.151   9.153
 6863POPC   GL125837  28.399  15.147   8.853
 6863POPC   GL225838  28.385  15.102   8.853
 6863POPC   C1A25839  28.370  15.170   8.553
 6863POPC   D2A25840  28.324  15.139   8.253
 6863POPC   C3A25841  28.371  15.158   7.953
 6863POPC   C4A25842  28.327  15.143   7.653
 6863POPC   C1B25843  28.319  14.958   8.553
 6863POPC   C2B25844  28.314  14.939   8.253
 6863POPC   C3B25845  28.320  14.942   7.953
 6863POPC   C4B25846  28.333  14.883   7.653
 6864POPC   NC325847  29.107   1.245   9.453
 6864POPC   PO425848  29.184   1.223   9.153
 6864POPC   GL125849  29.180   1.209   8.853
 6864POPC   GL225850  29.028   1.233   8.853
 6864POPC   C1A25851  29.106   1.249   8.553
 6864POPC   D2A25852  29.135   1.251   8.253
 6864POPC   C3A25853  29.184   1.248   7.953
 6864POPC   C4A25854  29.145   1.196   7.653
 6864POPC   C1B25855  28.965   1.352   8.553
 6864POPC   C2B25856  28.899   1.289   8.253
 6864POPC   C3B25857  28.945   1.373   7.953
 6864POPC   C4B25858  28.906   1.323   7.653
 6865POPC   NC325859  20.612  12.858   9.453
 6865POPC   PO425860  20.622  12.821   9.153
 6865POPC   GL125861  20.654  12.878   8.853
 6865POPC   GL225862  20.653  12.768   8.853
 6865POPC   C1A25863  20.599  12.827   8.553
 6865POPC   D2A25864  20.568  12.824   8.253
 6865POPC   C3A25865  20.651  12.852   7.953
 6865POPC   C4A25866  20.574  12.824   7.653
 6865POPC   C1B25867  20.628  12.595   8.553
 6865POPC   C2B25868  20.643  12.631   8.253
 6865POPC   C3B25869  20.689  12.625   7.953
 6865POPC   C4B25870  20.636  12.613   7.653
 6866POPC   NC325871   2.815  12.063   9.453
 6866POPC   PO425872   2.801  12.098   9.153
 6866POPC   GL125873   2.734  12.046   8.853
 6866POPC   GL225874   2.782  12.203   8.853
 6866POPC   C1A25875   2.737  12.059   8.553
 6866POPC   D2A25876   2.797  12.055   8.253
 6866POPC   C3A25877   2.770  12.027   7.953
 6866POPC   C4A25878   2.745  12.110   7.653
 6866POPC   C1B25879   2.885  12.289   8.553
 6866POPC   C2B25880   2.902  12.266   8.253
 6866POPC   C3B25881   2.919  12.253   7.953
 6866POPC   C4B25882   2.866  12.316   7.653
 6867POPC   NC325883  34.618  14.443   9.453
 6867POPC   PO425884  34.576  14.448   9.153
 6867POPC   GL125885  34.565  14.427   8.853
 6867POPC   GL225886  34.746  14.391   8.853
 6867POPC   C1A25887  34.621  14.383   8.553
 6867POPC   D2A25888  34.598  14.399   8.253
 6867POPC   C3A25889  34.595  14.360   7.953
 6867POPC   C4A25890  34.620  14.403   7.653
 6867POPC   C1B25891  34.853  14.343   8.553
 6867POPC   C2B25892  34.861  14.376   8.253
 6867POPC   C3B25893  34.807  14.377   7.953
 6867POPC   C4B25894  34.841  14.380   7.653
 6868POPC   NC325895   6.645  13.613   9.453
 6868POPC   PO425896   6.632  13.664   9.153
 6868POPC   GL125897   6.645  13.626   8.853
 6868POPC   GL225898   6.762  13.508   8.853
 6868POPC   C1A25899   6.665  13.659   8.553
 6868POPC   D2A25900   6.652  13.605   8.253
 6868POPC   C3A25901   6.663  13.669   7.953
 6868POPC   C4A25902   6.672  13.590   7.653
 6868POPC   C1B25903   6.776  13.454   8.553
 6868POPC   C2B25904   6.764  13.373   8.253
 6868POPC   C3B25905   6.793  13.387   7.953
 6868POPC   C4B25906   6.761  13.402   7.653
 6869POPC   NC325907  21.398   8.175   9.453
 6869POPC   PO425908  21.367   8.155   9.153
 6869POPC   GL125909  21.356   8.241   8.853
 6869POPC   GL225910  21.283   8.091   8.853
 6869POPC   C1A25911  21.380   8.176   8.553
 6869POPC   D2A25912  21.377   8.217   8.253
 6869POPC   C3A25913  21.393   8.222   7.953
 6869POPC   C4A25914  21.402   8.154   7.653
 6869POPC   C1B25915  21.223   7.996   8.553
 6869POPC   C2B25916  21.213   8.014   8.253
 6869POPC   C3B25917  21.244   7.967   7.953
 6869POPC   C4B25918  21.218   7.980   7.653
 6870POPC   NC325919  34.530  24.493   9.453
 6870POPC   PO425920  34.586  24.470   9.153
 6870POPC   GL125921  34.551  24.468   8.853
 6870POPC   GL225922  34.705  24.460   8.853
 6870POPC   C1A25923  34.599  24.444   8.553
 6870POPC   D2A25924  34.605  24.497   8.253
 6870POPC   C3A25925  34.565  24.496   7.953
 6870POPC   C4A25926  34.616  24.484   7.653
 6870POPC   C1B25927  34.787  24.412   8.553
 6870POPC   C2B25928  34.798  24.455   8.253
 6870POPC   C3B25929  34.866  24.494   7.953
 6870POPC   C4B25930  34.821  24.488   7.653
 6871POPC   NC325931  18.331  42.371   9.453
 6871POPC   PO425932  18.319  42.343   9.153
 6871POPC   GL125933  18.272  42.286   8.853
 6871POPC   GL225934  18.168  42.278   8.853
 6871POPC   C1A25935  18.325  42.348   8.553
 6871POPC   D2A25936  18.276  42.337   8.253
 6871POPC   C3A25937  18.319  42.319   7.953
 6871POPC   C4A25938  18.247  42.331   7.653
 6871POPC   C1B25939  18.054  42.230   8.553
 6871POPC   C2B25940  18.044  42.257   8.253
 6871POPC   C3B25941  18.040  42.205   7.953
 6871POPC   C4B25942  18.039  42.204   7.653
 6872POPC   NC325943   4.331   9.709   9.453
 6872POPC   PO425944   4.331   9.773   9.153
 6872POPC   GL125945   4.275   9.792   8.853
 6872POPC   GL225946   4.286   9.646   8.853
 6872POPC   C1A25947   4.314   9.791   8.553
 6872POPC   D2A25948   4.349   9.723   8.253
 6872POPC   C3A25949   4.342   9.709   7.953
 6872POPC   C4A25950   4.356   9.747   7.653
 6872POPC   C1B25951   4.282   9.485   8.553
 6872POPC   C2B25952   4.308   9.462   8.253
 6872POPC   C3B25953   4.271   9.459   7.953
 6872POPC   C4B25954   4.273   9.543   7.653
 6873POPC   NC325955   3.532  11.260   9.453
 6873POPC   PO425956   3.577  11.346   9.153
 6873POPC   GL125957   3.565  11.261   8.853
 6873POPC   GL225958   3.608  11.279   8.853
 6873POPC   C1A25959   3.532  11.327   8.553
 6873POPC   D2A25960   3.536  11.311   8.253
 6873POPC   C3A25961   3.536  11.322   7.953
 6873POPC   C4A25962   3.556  11.301   7.653
 6873POPC   C1B25963   3.798  11.195   8.553
 6873POPC   C2B25964   3.731  11.182   8.253
 6873POPC   C3B25965   3.705  11.193   7.953
 6873POPC   C4B25966   3.709  11.206   7.653
 6874POPC   NC325967  22.123  41.533   9.453
 6874POPC   PO425968  22.144  41.577   9.153
 6874POPC   GL125969  22.174  41.595   8.853
 6874POPC   GL225970  22.094  41.703   8.853
 6874POPC   C1A25971  22.205  41.550   8.553
 6874POPC   D2A25972  22.160  41.568   8.253
 6874POPC   C3A25973  22.182  41.511   7.953
 6874POPC   C4A25974  22.124  41.536   7.653
 6874POPC   C1B25975  22.081  41.754   8.553
 6874POPC   C2B25976  22.135  41.803   8.253
 6874POPC   C3B25977  22.085  41.829   7.953
 6874POPC   C4B25978  22.147  41.792   7.653
 6875POPC   NC325979  27.544  22.147   9.453
 6875POPC   PO425980  27.617  22.161   9.153
 6875POPC   GL125981  27.560  22.191   8.853
 6875POPC   GL225982  27.488  22.163   8.853
 6875POPC   C1A25983  27.611  22.114   8.553
 6875POPC   D2A25984  27.631  22.137   8.253
 6875POPC   C3A25985  27.604  22.145   7.953
 6875POPC   C4A25986  27.557  22.137   7.653
 6875POPC   C1B25987  27.363  22.218   8.553
 6875POPC   C2B25988  27.365  22.170   8.253
 6875POPC   C3B25989  27.367  22.174   7.953
 6875POPC   C4B25990  27.338  22.249   7.653
 6876POPC   NC325991  22.904  31.453   9.453
 6876POPC   PO425992  22.902  31.494   9.153
 6876POPC   GL125993  22.947  31.495   8.853
 6876POPC   GL225994  23.032  31.354   8.853
 6876POPC   C1A25995  22.892  31.461   8.553
 6876POPC   D2A25996  22.888  31.484   8.253
 6876POPC   C3A25997  22.909  31.476   7.953
 6876POPC   C4A25998  22.943  31.493   7.653
 6876POPC   C1B25999  23.092  31.362   8.553
 6876POPC   C2B26000  23.099  31.310   8.253
 6876POPC   C3B26001  23.153  31.310   7.953
 6876POPC   C4B26002  23.099  31.312   7.653
 6877POPC   NC326003  35.347  29.188   9.453
 6877POPC   PO426004  35.383  29.170   9.153
 6877POPC   GL126005  35.366  29.188   8.853
 6877POPC   GL226006  35.510  29.179   8.853
 6877POPC   C1A26007  35.352  29.146   8.553
 6877POPC   D2A26008  35.326  29.159   8.253
 6877POPC   C3A26009  35.309  29.133   7.953
 6877POPC   C4A26010  35.332  29.175   7.653
 6877POPC   C1B26011  35.608  29.197   8.553
 6877POPC   C2B26012  35.626  29.214   8.253
 6877POPC   C3B26013  35.604  29.189   7.953
 6877POPC   C4B26014  35.631  29.181   7.653
 6878POPC   NC326015   3.580  38.431   9.453
 6878POPC   PO426016   3.505  38.478   9.153
 6878POPC   GL126017   3.577  38.464   8.853
 6878POPC   GL226018   3.419  38.558   8.853
 6878POPC   C1A26019   3.516  38.498   8.553
 6878POPC   D2A26020   3.509  38.424   8.253
 6878POPC   C3A26021   3.494  38.449   7.953
 6878POPC   C4A26022   3.544  38.413   7.653
 6878POPC   C1B26023   3.346  38.640   8.553
 6878POPC   C2B26024   3.329  38.603   8.253
 6878POPC   C3B26025   3.334  38.579   7.953
 6878POPC   C4B26026   3.327  38.618   7.653
 6879POPC   NC326027  39.233  42.334   9.453
 6879POPC   PO426028  39.193  42.323   9.153
 6879POPC   GL126029  39.270  42.342   8.853
 6879POPC   GL226030  39.388  42.345   8.853
 6879POPC   C1A26031  39.228  42.369   8.553
 6879POPC   D2A26032  39.206  42.323   8.253
 6879POPC   C3A26033  39.242  42.382   7.953
 6879POPC   C4A26034  39.238  42.338   7.653
 6879POPC   C1B26035  39.461  42.436   8.553
 6879POPC   C2B26036  39.466  42.464   8.253
 6879POPC   C3B26037  39.427  42.408   7.953
 6879POPC   C4B26038  39.498  42.469   7.653
 6880POPC   NC326039   7.440  33.777   9.453
 6880POPC   PO426040   7.448  33.766   9.153
 6880POPC   GL126041   7.380  33.837   8.853
 6880POPC   GL226042   7.496  33.718   8.853
 6880POPC   C1A26043   7.461  33.766   8.553
 6880POPC   D2A26044   7.452  33.848   8.253
 6880POPC   C3A26045   7.459  33.752   7.953
 6880POPC   C4A26046   7.460  33.798   7.653
 6880POPC   C1B26047   7.497  33.608   8.553
 6880POPC   C2B26048   7.527  33.585   8.253
 6880POPC   C3B26049   7.553  33.518   7.953
 6880POPC   C4B26050   7.524  33.549   7.653
 6881POPC   NC326051  20.658  19.061   9.453
 6881POPC   PO426052  20.605  19.085   9.153
 6881POPC   GL126053  20.564  19.079   8.853
 6881POPC   GL226054  20.734  19.156   8.853
 6881POPC   C1A26055  20.605  19.101   8.553
 6881POPC   D2A26056  20.659  19.055   8.253
 6881POPC   C3A26057  20.589  19.089   7.953
 6881POPC   C4A26058  20.657  19.030   7.653
 6881POPC   C1B26059  20.781  19.230   8.553
 6881POPC   C2B26060  20.791  19.166   8.253
 6881POPC   C3B26061  20.791  19.166   7.953
 6881POPC   C4B26062  20.830  19.234   7.653
 6882POPC   NC326063  11.295  16.726   9.453
 6882POPC   PO426064  11.257  16.684   9.153
 6882POPC   GL126065  11.291  16.775   8.853
 6882POPC   GL226066  11.448  16.725   8.853
 6882POPC   C1A26067  11.256  16.724   8.553
 6882POPC   D2A26068  11.256  16.780   8.253
 6882POPC   C3A26069  11.273  16.751   7.953
 6882POPC   C4A26070  11.290  16.715   7.653
 6882POPC   C1B26071  11.505  16.744   8.553
 6882POPC   C2B26072  11.588  16.704   8.253
 6882POPC   C3B26073  11.504  16.730   7.953
 6882POPC   C4B26074  11.572  16.750   7.653
 6883POPC   NC326075   1.206  42.355   9.453
 6883POPC   PO426076   1.187  42.344   9.153
 6883POPC   GL126077   1.185  42.300   8.853
 6883POPC   GL226078   1.274  42.225   8.853
 6883POPC   C1A26079   1.197  42.288   8.553
 6883POPC   D2A26080   1.164  42.340   8.253
 6883POPC   C3A26081   1.202  42.376   7.953
 6883POPC   C4A26082   1.166  42.371   7.653
 6883POPC   C1B26083   1.399  42.184   8.553
 6883POPC   C2B26084   1.391  42.211   8.253
 6883POPC   C3B26085   1.359  42.125   7.953
 6883POPC   C4B26086   1.366  42.144   7.653
 6884POPC   NC326087  19.024   6.628   9.453
 6884POPC   PO426088  19.049   6.659   9.153
 6884POPC   GL126089  19.053   6.671   8.853
 6884POPC   GL226090  18.887   6.641   8.853
 6884POPC   C1A26091  19.072   6.610   8.553
 6884POPC   D2A26092  19.050   6.651   8.253
 6884POPC   C3A26093  19.041   6.656   7.953
 6884POPC   C4A26094  19.061   6.597   7.653
 6884POPC   C1B26095  18.805   6.681   8.553
 6884POPC   C2B26096  18.831   6.665   8.253
 6884POPC   C3B26097  18.770   6.702   7.953
 6884POPC   C4B26098  18.761   6.687   7.653
 6885POPC   NC326099  35.377  44.674   9.453
 6885POPC   PO426100  35.368  44.701   9.153
 6885POPC   GL126101  35.399  44.677   8.853
 6885POPC   GL226102  35.435  44.576   8.853
 6885POPC   C1A26103  35.303  44.614   8.553
 6885POPC   D2A26104  35.373  44.626   8.253
 6885POPC   C3A26105  35.349  44.655   7.953
 6885POPC   C4A26106  35.390  44.644   7.653
 6885POPC   C1B26107  35.570  44.599   8.553
 6885POPC   C2B26108  35.558  44.598   8.253
 6885POPC   C3B26109  35.558  44.572   7.953
 6885POPC   C4B26110  35.567  44.581   7.653
 6886POPC   NC326111  44.707  43.929   9.453
 6886POPC   PO426112  44.707  43.915   9.153
 6886POPC   GL126113  44.673  43.893   8.853
 6886POPC   GL226114  44.687  44.053   8.853
 6886POPC   C1A26115  44.656  43.864   8.553
 6886POPC   D2A26116  44.677  43.895   8.253
 6886POPC   C3A26117  44.697  43.933   7.953
 6886POPC   C4A26118  44.650  43.887   7.653
 6886POPC   C1B26119  44.680  44.096   8.553
 6886POPC   C2B26120  44.728  44.167   8.253
 6886POPC   C3B26121  44.640  44.099   7.953
 6886POPC   C4B26122  44.710  44.137   7.653
 6887POPC   NC326123  15.998  10.496   9.453
 6887POPC   PO426124  15.956  10.523   9.153
 6887POPC   GL126125  15.931  10.481   8.853
 6887POPC   GL226126  16.087  10.660   8.853
 6887POPC   C1A26127  15.979  10.497   8.553
 6887POPC   D2A26128  15.988  10.482   8.253
 6887POPC   C3A26129  15.957  10.568   7.953
 6887POPC   C4A26130  15.985  10.477   7.653
 6887POPC   C1B26131  16.120  10.679   8.553
 6887POPC   C2B26132  16.089  10.756   8.253
 6887POPC   C3B26133  16.092  10.682   7.953
 6887POPC   C4B26134  16.112  10.744   7.653
 6888POPC   NC326135   5.082  43.130   9.453
 6888POPC   PO426136   5.141  43.082   9.153
 6888POPC   GL126137   5.096  43.133   8.853
 6888POPC   GL226138   5.128  42.984   8.853
 6888POPC   C1A26139   5.127  43.109   8.553
 6888POPC   D2A26140   5.133  43.109   8.253
 6888POPC   C3A26141   5.132  43.151   7.953
 6888POPC   C4A26142   5.091  43.157   7.653
 6888POPC   C1B26143   5.181  42.873   8.553
 6888POPC   C2B26144   5.173  42.839   8.253
 6888POPC   C3B26145   5.164  42.897   7.953
 6888POPC   C4B26146   5.149  42.827   7.653
 6889POPC   NC326147  36.872  36.859   9.453
 6889POPC   PO426148  36.888  36.886   9.153
 6889POPC   GL126149  36.879  36.862   8.853
 6889POPC   GL226150  36.838  37.043   8.853
 6889POPC   C1A26151  36.891  36.928   8.553
 6889POPC   D2A26152  36.881  36.906   8.253
 6889POPC   C3A26153  36.899  36.909   7.953
 6889POPC   C4A26154  36.858  36.938   7.653
 6889POPC   C1B26155  36.822  37.186   8.553
 6889POPC   C2B26156  36.884  37.138   8.253
 6889POPC   C3B26157  36.829  37.154   7.953
 6889POPC   C4B26158  36.811  37.167   7.653
 6890POPC   NC326159  30.721  31.471   9.453
 6890POPC   PO426160  30.714  31.433   9.153
 6890POPC   GL126161  30.715  31.469   8.853
 6890POPC   GL226162  30.575  31.447   8.853
 6890POPC   C1A26163  30.674  31.496   8.553
 6890POPC   D2A26164  30.707  31.519   8.253
 6890POPC   C3A26165  30.707  31.472   7.953
 6890POPC   C4A26166  30.732  31.429   7.653
 6890POPC   C1B26167  30.412  31.406   8.553
 6890POPC   C2B26168  30.413  31.408   8.253
 6890POPC   C3B26169  30.460  31.393   7.953
 6890POPC   C4B26170  30.449  31.386   7.653
 6891POPC   NC326171  12.061  12.073   9.453
 6891POPC   PO426172  12.072  12.030   9.153
 6891POPC   GL126173  12.094  12.064   8.853
 6891POPC   GL226174  12.143  12.171   8.853
 6891POPC   C1A26175  12.059  12.087   8.553
 6891POPC   D2A26176  12.048  12.033   8.253
 6891POPC   C3A26177  12.122  12.112   7.953
 6891POPC   C4A26178  12.058  12.058   7.653
 6891POPC   C1B26179  12.338  12.191   8.553
 6891POPC   C2B26180  12.305  12.184   8.253
 6891POPC   C3B26181  12.352  12.133   7.953
 6891POPC   C4B26182  12.261  12.190   7.653
 6892POPC   NC326183  27.597  39.259   9.453
 6892POPC   PO426184  27.603  39.279   9.153
 6892POPC   GL126185  27.631  39.185   8.853
 6892POPC   GL226186  27.728  39.297   8.853
 6892POPC   C1A26187  27.632  39.246   8.553
 6892POPC   D2A26188  27.575  39.197   8.253
 6892POPC   C3A26189  27.595  39.206   7.953
 6892POPC   C4A26190  27.587  39.182   7.653
 6892POPC   C1B26191  27.807  39.242   8.553
 6892POPC   C2B26192  27.808  39.324   8.253
 6892POPC   C3B26193  27.880  39.283   7.953
 6892POPC   C4B26194  27.797  39.307   7.653
 6893POPC   NC326195  18.254  19.882   9.453
 6893POPC   PO426196  18.295  19.800   9.153
 6893POPC   GL126197  18.266  19.796   8.853
 6893POPC   GL226198  18.128  19.780   8.853
 6893POPC   C1A26199  18.327  19.832   8.553
 6893POPC   D2A26200  18.313  19.828   8.253
 6893POPC   C3A26201  18.261  19.866   7.953
 6893POPC   C4A26202  18.326  19.857   7.653
 6893POPC   C1B26203  18.066  19.833   8.553
 6893POPC   C2B26204  18.029  19.814   8.253
 6893POPC   C3B26205  18.035  19.822   7.953
 6893POPC   C4B26206  17.990  19.798   7.653
 6894POPC   NC326207  40.033  33.045   9.453
 6894POPC   PO426208  39.977  33.015   9.153
 6894POPC   GL126209  40.012  33.002   8.853
 6894POPC   GL226210  40.028  32.864   8.853
 6894POPC   C1A26211  40.016  33.056   8.553
 6894POPC   D2A26212  40.009  33.058   8.253
 6894POPC   C3A26213  39.991  33.034   7.953
 6894POPC   C4A26214  39.994  33.017   7.653
 6894POPC   C1B26215  40.043  32.752   8.553
 6894POPC   C2B26216  40.065  32.818   8.253
 6894POPC   C3B26217  40.044  32.835   7.953
 6894POPC   C4B26218  40.095  32.825   7.653
 6895POPC   NC326219  11.326  11.278   9.453
 6895POPC   PO426220  11.274  11.303   9.153
 6895POPC   GL126221  11.292  11.296   8.853
 6895POPC   GL226222  11.236  11.340   8.853
 6895POPC   C1A26223  11.275  11.338   8.553
 6895POPC   D2A26224  11.332  11.321   8.253
 6895POPC   C3A26225  11.346  11.285   7.953
 6895POPC   C4A26226  11.324  11.300   7.653
 6895POPC   C1B26227  11.103  11.450   8.553
 6895POPC   C2B26228  11.126  11.441   8.253
 6895POPC   C3B26229  11.168  11.491   7.953
 6895POPC   C4B26230  11.092  11.508   7.653
 6896POPC   NC326231  24.455  39.255   9.453
 6896POPC   PO426232  24.460  39.270   9.153
 6896POPC   GL126233  24.510  39.237   8.853
 6896POPC   GL226234  24.384  39.294   8.853
 6896POPC   C1A26235  24.505  39.243   8.553
 6896POPC   D2A26236  24.441  39.269   8.253
 6896POPC   C3A26237  24.540  39.208   7.953
 6896POPC   C4A26238  24.531  39.233   7.653
 6896POPC   C1B26239  24.281  39.292   8.553
 6896POPC   C2B26240  24.275  39.311   8.253
 6896POPC   C3B26241  24.259  39.275   7.953
 6896POPC   C4B26242  24.277  39.289   7.653
 6897POPC   NC326243  17.552  10.496   9.453
 6897POPC   PO426244  17.526  10.550   9.153
 6897POPC   GL126245  17.463  10.509   8.853
 6897POPC   GL226246  17.439  10.403   8.853
 6897POPC   C1A26247  17.480  10.547   8.553
 6897POPC   D2A26248  17.490  10.506   8.253
 6897POPC   C3A26249  17.479  10.487   7.953
 6897POPC   C4A26250  17.495  10.477   7.653
 6897POPC   C1B26251  17.342  10.410   8.553
 6897POPC   C2B26252  17.340  10.397   8.253
 6897POPC   C3B26253  17.317  10.391   7.953
 6897POPC   C4B26254  17.334  10.344   7.653
 6898POPC   NC326255  13.603  42.337   9.453
 6898POPC   PO426256  13.665  42.304   9.153
 6898POPC   GL126257  13.580  42.372   8.853
 6898POPC   GL226258  13.571  42.253   8.853
 6898POPC   C1A26259  13.600  42.335   8.553
 6898POPC   D2A26260  13.661  42.346   8.253
 6898POPC   C3A26261  13.621  42.298   7.953
 6898POPC   C4A26262  13.667  42.326   7.653
 6898POPC   C1B26263  13.448  42.096   8.553
 6898POPC   C2B26264  13.488  42.088   8.253
 6898POPC   C3B26265  13.499  42.093   7.953
 6898POPC   C4B26266  13.455  42.103   7.653
 6899POPC   NC326267   7.378  27.634   9.453
 6899POPC   PO426268   7.413  27.584   9.153
 6899POPC   GL126269   7.434  27.557   8.853
 6899POPC   GL226270   7.482  27.531   8.853
 6899POPC   C1A26271   7.460  27.573   8.553
 6899POPC   D2A26272   7.424  27.548   8.253
 6899POPC   C3A26273   7.462  27.619   7.953
 6899POPC   C4A26274   7.378  27.571   7.653
 6899POPC   C1B26275   7.609  27.393   8.553
 6899POPC   C2B26276   7.554  27.349   8.253
 6899POPC   C3B26277   7.523  27.406   7.953
 6899POPC   C4B26278   7.545  27.435   7.653
 6900POPC   NC326279  17.549  19.020   9.453
 6900POPC   PO426280  17.542  19.099   9.153
 6900POPC   GL126281  17.557  19.083   8.853
 6900POPC   GL226282  17.509  18.913   8.853
 6900POPC   C1A26283  17.466  19.067   8.553
 6900POPC   D2A26284  17.474  19.068   8.253
 6900POPC   C3A26285  17.460  19.107   7.953
 6900POPC   C4A26286  17.492  19.072   7.653
 6900POPC   C1B26287  17.613  18.803   8.553
 6900POPC   C2B26288  17.642  18.861   8.253
 6900POPC   C3B26289  17.607  18.837   7.953
 6900POPC   C4B26290  17.618  18.841   7.653
 6901POPC   NC326291   9.770  43.847   9.453
 6901POPC   PO426292   9.790  43.852   9.153
 6901POPC   GL126293   9.786  43.906   8.853
 6901POPC   GL226294   9.743  43.770   8.853
 6901POPC   C1A26295   9.714  43.892   8.553
 6901POPC   D2A26296   9.767  43.863   8.253
 6901POPC   C3A26297   9.710  43.891   7.953
 6901POPC   C4A26298   9.736  43.845   7.653
 6901POPC   C1B26299   9.740  43.593   8.553
 6901POPC   C2B26300   9.718  43.619   8.253
 6901POPC   C3B26301   9.717  43.612   7.953
 6901POPC   C4B26302   9.715  43.672   7.653
 6902POPC   NC326303  36.927  26.035   9.453
 6902POPC   PO426304  36.895  26.087   9.153
 6902POPC   GL126305  36.902  26.075   8.853
 6902POPC   GL226306  37.006  26.057   8.853
 6902POPC   C1A26307  36.881  26.013   8.553
 6902POPC   D2A26308  36.861  26.052   8.253
 6902POPC   C3A26309  36.882  26.019   7.953
 6902POPC   C4A26310  36.884  26.043   7.653
 6902POPC   C1B26311  37.090  26.166   8.553
 6902POPC   C2B26312  37.100  26.163   8.253
 6902POPC   C3B26313  37.114  26.144   7.953
 6902POPC   C4B26314  37.171  26.141   7.653
 6903POPC   NC326315  20.644  22.185   9.453
 6903POPC   PO426316  20.568  22.123   9.153
 6903POPC   GL126317  20.591  22.133   8.853
 6903POPC   GL226318  20.700  22.278   8.853
 6903POPC   C1A26319  20.659  22.138   8.553
 6903POPC   D2A26320  20.654  22.168   8.253
 6903POPC   C3A26321  20.630  22.141   7.953
 6903POPC   C4A26322  20.659  22.189   7.653
 6903POPC   C1B26323  20.821  22.308   8.553
 6903POPC   C2B26324  20.795  22.336   8.253
 6903POPC   C3B26325  20.736  22.344   7.953
 6903POPC   C4B26326  20.791  22.371   7.653
 6904POPC   NC326327  39.994  22.159   9.453
 6904POPC   PO426328  39.967  22.139   9.153
 6904POPC   GL126329  40.004  22.148   8.853
 6904POPC   GL226330  39.978  22.223   8.853
 6904POPC   C1A26331  39.969  22.187   8.553
 6904POPC   D2A26332  39.998  22.168   8.253
 6904POPC   C3A26333  40.035  22.162   7.953
 6904POPC   C4A26334  39.970  22.192   7.653
 6904POPC   C1B26335  39.839  22.340   8.553
 6904POPC   C2B26336  39.842  22.422   8.253
 6904POPC   C3B26337  39.884  22.353   7.953
 6904POPC   C4B26338  39.891  22.380   7.653
 6905POPC   NC326339  19.063  23.751   9.453
 6905POPC   PO426340  19.025  23.734   9.153
 6905POPC   GL126341  19.022  23.764   8.853
 6905POPC   GL226342  18.927  23.677   8.853
 6905POPC   C1A26343  19.108  23.726   8.553
 6905POPC   D2A26344  19.054  23.725   8.253
 6905POPC   C3A26345  19.034  23.664   7.953
 6905POPC   C4A26346  19.033  23.682   7.653
 6905POPC   C1B26347  18.824  23.599   8.553
 6905POPC   C2B26348  18.824  23.629   8.253
 6905POPC   C3B26349  18.802  23.565   7.953
 6905POPC   C4B26350  18.855  23.612   7.653
 6906POPC   NC326351  12.037  19.108   9.453
 6906POPC   PO426352  12.069  19.040   9.153
 6906POPC   GL126353  12.105  19.075   8.853
 6906POPC   GL226354  12.052  19.209   8.853
 6906POPC   C1A26355  12.102  19.069   8.553
 6906POPC   D2A26356  12.098  19.089   8.253
 6906POPC   C3A26357  12.094  19.051   7.953
 6906POPC   C4A26358  12.123  19.092   7.653
 6906POPC   C1B26359  12.093  19.259   8.553
 6906POPC   C2B26360  12.108  19.268   8.253
 6906POPC   C3B26361  12.145  19.288   7.953
 6906POPC   C4B26362  12.162  19.277   7.653
 6907POPC   NC326363   4.316  22.174   9.453
 6907POPC   PO426364   4.358  22.202   9.153
 6907POPC   GL126365   4.356  22.212   8.853
 6907POPC   GL226366   4.210  22.282   8.853
 6907POPC   C1A26367   4.310  22.207   8.553
 6907POPC   D2A26368   4.363  22.173   8.253
 6907POPC   C3A26369   4.315  22.185   7.953
 6907POPC   C4A26370   4.283  22.161   7.653
 6907POPC   C1B26371   4.162  22.331   8.553
 6907POPC   C2B26372   4.187  22.343   8.253
 6907POPC   C3B26373   4.179  22.378   7.953
 6907POPC   C4B26374   4.107  22.376   7.653
 6908POPC   NC326375  27.639  10.563   9.453
 6908POPC   PO426376  27.601  10.520   9.153
 6908POPC   GL126377  27.575  10.506   8.853
 6908POPC   GL226378  27.535  10.430   8.853
 6908POPC   C1A26379  27.587  10.573   8.553
 6908POPC   D2A26380  27.632  10.540   8.253
 6908POPC   C3A26381  27.590  10.482   7.953
 6908POPC   C4A26382  27.585  10.509   7.653
 6908POPC   C1B26383  27.453  10.368   8.553
 6908POPC   C2B26384  27.390  10.377   8.253
 6908POPC   C3B26385  27.471  10.364   7.953
 6908POPC   C4B26386  27.386  10.333   7.653
 6909POPC   NC326387  36.092  43.882   9.453
 6909POPC   PO426388  36.108  43.926   9.153
 6909POPC   GL126389  36.148  43.934   8.853
 6909POPC   GL226390  36.213  44.029   8.853
 6909POPC   C1A26391  36.148  43.840   8.553
 6909POPC   D2A26392  36.078  43.851   8.253
 6909POPC   C3A26393  36.139  43.856   7.953
 6909POPC   C4A26394  36.090  43.866   7.653
 6909POPC   C1B26395  36.318  44.104   8.553
 6909POPC   C2B26396  36.294  44.055   8.253
 6909POPC   C3B26397  36.246  44.040   7.953
 6909POPC   C4B26398  36.278  44.062   7.653
 6910POPC   NC326399  15.145  44.703   9.453
 6910POPC   PO426400  15.184  44.667   9.153
 6910POPC   GL126401  15.222  44.617   8.853
 6910POPC   GL226402  15.204  44.567   8.853
 6910POPC   C1A26403  15.154  44.711   8.553
 6910POPC   D2A26404  15.149  44.685   8.253
 6910POPC   C3A26405  15.171  44.699   7.953
 6910POPC   C4A26406  15.155  44.711   7.653
 6910POPC   C1B26407  15.174  44.388   8.553
 6910POPC   C2B26408  15.198  44.430   8.253
 6910POPC   C3B26409  15.213  44.460   7.953
 6910POPC   C4B26410  15.154  44.460   7.653
 6911POPC   NC326411  19.012  40.018   9.453
 6911POPC   PO426412  19.013  40.003   9.153
 6911POPC   GL126413  19.029  39.975   8.853
 6911POPC   GL226414  19.136  40.128   8.853
 6911POPC   C1A26415  19.101  40.051   8.553
 6911POPC   D2A26416  19.037  39.997   8.253
 6911POPC   C3A26417  19.091  40.008   7.953
 6911POPC   C4A26418  19.031  39.970   7.653
 6911POPC   C1B26419  19.162  40.197   8.553
 6911POPC   C2B26420  19.151  40.267   8.253
 6911POPC   C3B26421  19.134  40.260   7.953
 6911POPC   C4B26422  19.162  40.294   7.653
 6912POPC   NC326423  20.594  39.212   9.453
 6912POPC   PO426424  20.584  39.258   9.153
 6912POPC   GL126425  20.649  39.197   8.853
 6912POPC   GL226426  20.509  39.120   8.853
 6912POPC   C1A26427  20.602  39.228   8.553
 6912POPC   D2A26428  20.572  39.245   8.253
 6912POPC   C3A26429  20.612  39.245   7.953
 6912POPC   C4A26430  20.568  39.207   7.653
 6912POPC   C1B26431  20.411  39.024   8.553
 6912POPC   C2B26432  20.389  39.115   8.253
 6912POPC   C3B26433  20.442  39.091   7.953
 6912POPC   C4B26434  20.441  39.049   7.653
 6913POPC   NC326435   0.418  15.985   9.453
 6913POPC   PO426436   0.441  15.935   9.153
 6913POPC   GL126437   0.442  15.936   8.853
 6913POPC   GL226438   0.488  16.048   8.853
 6913POPC   C1A26439   0.395  15.930   8.553
 6913POPC   D2A26440   0.418  15.978   8.253
 6913POPC   C3A26441   0.396  15.941   7.953
 6913POPC   C4A26442   0.447  15.938   7.653
 6913POPC   C1B26443   0.561  16.174   8.553
 6913POPC   C2B26444   0.553  16.117   8.253
 6913POPC   C3B26445   0.633  16.147   7.953
 6913POPC   C4B26446   0.577  16.123   7.653
 6914POPC   NC326447   0.434  40.019   9.453
 6914POPC   PO426448   0.392  40.022   9.153
 6914POPC   GL126449   0.473  40.008   8.853
 6914POPC   GL226450   0.564  40.132   8.853
 6914POPC   C1A26451   0.429  39.986   8.553
 6914POPC   D2A26452   0.470  39.997   8.253
 6914POPC   C3A26453   0.464  40.022   7.953
 6914POPC   C4A26454   0.456  40.036   7.653
 6914POPC   C1B26455   0.629  40.175   8.553
 6914POPC   C2B26456   0.663  40.220   8.253
 6914POPC   C3B26457   0.615  40.139   7.953
 6914POPC   C4B26458   0.589  40.182   7.653
 6915POPC   NC326459  16.718   3.559   9.453
 6915POPC   PO426460  16.693   3.499   9.153
 6915POPC   GL126461  16.777   3.588   8.853
 6915POPC   GL226462  16.813   3.472   8.853
 6915POPC   C1A26463  16.746   3.507   8.553
 6915POPC   D2A26464  16.706   3.494   8.253
 6915POPC   C3A26465  16.727   3.546   7.953
 6915POPC   C4A26466  16.721   3.549   7.653
 6915POPC   C1B26467  16.901   3.427   8.553
 6915POPC   C2B26468  16.899   3.387   8.253
 6915POPC   C3B26469  16.878   3.337   7.953
 6915POPC   C4B26470  16.909   3.415   7.653
 6916POPC   NC326471   8.995  10.519   9.453
 6916POPC   PO426472   9.014  10.493   9.153
 6916POPC   GL126473   9.020  10.556   8.853
 6916POPC   GL226474   9.056  10.571   8.853
 6916POPC   C1A26475   8.996  10.554   8.553
 6916POPC   D2A26476   8.935  10.512   8.253
 6916POPC   C3A26477   8.927  10.532   7.953
 6916POPC   C4A26478   9.011  10.480   7.653
 6916POPC   C1B26479   9.222  10.685   8.553
 6916POPC   C2B26480   9.148  10.664   8.253
 6916POPC   C3B26481   9.182  10.710   7.953
 6916POPC   C4B26482   9.227  10.653   7.653
 6917POPC   NC326483  15.179  29.930   9.453
 6917POPC   PO426484  15.133  29.876   9.153
 6917POPC   GL126485  15.137  29.877   8.853
 6917POPC   GL226486  15.119  30.075   8.853
 6917POPC   C1A26487  15.133  29.959   8.553
 6917POPC   D2A26488  15.187  29.930   8.253
 6917POPC   C3A26489  15.213  29.958   7.953
 6917POPC   C4A26490  15.174  29.879   7.653
 6917POPC   C1B26491  15.078  30.173   8.553
 6917POPC   C2B26492  15.059  30.093   8.253
 6917POPC   C3B26493  15.057  30.169   7.953
 6917POPC   C4B26494  15.044  30.103   7.653
 6918POPC   NC326495  33.814  11.299   9.453
 6918POPC   PO426496  33.791  11.329   9.153
 6918POPC   GL126497  33.825  11.283   8.853
 6918POPC   GL226498  33.710  11.380   8.853
 6918POPC   C1A26499  33.802  11.279   8.553
 6918POPC   D2A26500  33.843  11.316   8.253
 6918POPC   C3A26501  33.798  11.294   7.953
 6918POPC   C4A26502  33.764  11.274   7.653
 6918POPC   C1B26503  33.677  11.514   8.553
 6918POPC   C2B26504  33.637  11.471   8.253
 6918POPC   C3B26505  33.666  11.473   7.953
 6918POPC   C4B26506  33.709  11.502   7.653
 6919POPC   NC326507  31.502  37.719   9.453
 6919POPC   PO426508  31.453  37.662   9.153
 6919POPC   GL126509  31.512  37.665   8.853
 6919POPC   GL226510  31.457  37.524   8.853
 6919POPC   C1A26511  31.516  37.632   8.553
 6919POPC   D2A26512  31.432  37.729   8.253
 6919POPC   C3A26513  31.493  37.678   7.953
 6919POPC   C4A26514  31.483  37.654   7.653
 6919POPC   C1B26515  31.430  37.417   8.553
 6919POPC   C2B26516  31.369  37.470   8.253
 6919POPC   C3B26517  31.408  37.470   7.953
 6919POPC   C4B26518  31.440  37.429   7.653
 6920POPC   NC326519  41.601  13.673   9.453
 6920POPC   PO426520  41.525  13.607   9.153
 6920POPC   GL126521  41.563  13.589   8.853
 6920POPC   GL226522  41.493  13.523   8.853
 6920POPC   C1A26523  41.585  13.607   8.553
 6920POPC   D2A26524  41.569  13.579   8.253
 6920POPC   C3A26525  41.590  13.605   7.953
 6920POPC   C4A26526  41.581  13.626   7.653
 6920POPC   C1B26527  41.510  13.376   8.553
 6920POPC   C2B26528  41.568  13.359   8.253
 6920POPC   C3B26529  41.500  13.377   7.953
 6920POPC   C4B26530  41.518  13.387   7.653
 6921POPC   NC326531  44.641  21.359   9.453
 6921POPC   PO426532  44.654  21.363   9.153
 6921POPC   GL126533  44.623  21.341   8.853
 6921POPC   GL226534  44.684  21.473   8.853
 6921POPC   C1A26535  44.622  21.425   8.553
 6921POPC   D2A26536  44.688  21.373   8.253
 6921POPC   C3A26537  44.654  21.372   7.953
 6921POPC   C4A26538  44.687  21.339   7.653
 6921POPC   C1B26539  44.726  21.663   8.553
 6921POPC   C2B26540  44.720  21.660   8.253
 6921POPC   C3B26541  44.707  21.597   7.953
 6921POPC   C4B26542  44.691  21.591   7.653
 6922POPC   NC326543  39.202  31.463   9.453
 6922POPC   PO426544  39.255  31.505   9.153
 6922POPC   GL126545  39.204  31.469   8.853
 6922POPC   GL226546  39.085  31.498   8.853
 6922POPC   C1A26547  39.224  31.437   8.553
 6922POPC   D2A26548  39.209  31.476   8.253
 6922POPC   C3A26549  39.240  31.450   7.953
 6922POPC   C4A26550  39.246  31.476   7.653
 6922POPC   C1B26551  39.023  31.630   8.553
 6922POPC   C2B26552  39.024  31.556   8.253
 6922POPC   C3B26553  38.990  31.557   7.953
 6922POPC   C4B26554  38.990  31.607   7.653
 6923POPC   NC326555  29.964  44.644   9.453
 6923POPC   PO426556  29.935  44.643   9.153
 6923POPC   GL126557  29.926  44.665   8.853
 6923POPC   GL226558  29.972  44.829   8.853
 6923POPC   C1A26559  29.894  44.619   8.553
 6923POPC   D2A26560  29.883  44.653   8.253
 6923POPC   C3A26561  29.875  44.656   7.953
 6923POPC   C4A26562  29.903  44.628   7.653
 6923POPC   C1B26563  29.966  44.908   8.553
 6923POPC   C2B26564  29.917  44.888   8.253
 6923POPC   C3B26565  29.925  44.877   7.953
 6923POPC   C4B26566  29.973  44.946   7.653
 6924POPC   NC326567  16.713  22.897   9.453
 6924POPC   PO426568  16.700  22.922   9.153
 6924POPC   GL126569  16.717  22.978   8.853
 6924POPC   GL226570  16.865  22.816   8.853
 6924POPC   C1A26571  16.697  22.898   8.553
 6924POPC   D2A26572  16.738  22.947   8.253
 6924POPC   C3A26573  16.688  22.964   7.953
 6924POPC   C4A26574  16.777  22.986   7.653
 6924POPC   C1B26575  16.902  22.766   8.553
 6924POPC   C2B26576  16.958  22.814   8.253
 6924POPC   C3B26577  16.952  22.764   7.953
 6924POPC   C4B26578  16.947  22.788   7.653
 6925POPC   NC326579  36.081  24.446   9.453
 6925POPC   PO426580  36.149  24.534   9.153
 6925POPC   GL126581  36.143  24.513   8.853
 6925POPC   GL226582  36.020  24.561   8.853
 6925POPC   C1A26583  36.111  24.510   8.553
 6925POPC   D2A26584  36.154  24.516   8.253
 6925POPC   C3A26585  36.118  24.480   7.953
 6925POPC   C4A26586  36.166  24.530   7.653
 6925POPC   C1B26587  35.942  24.611   8.553
 6925POPC   C2B26588  35.931  24.658   8.253
 6925POPC   C3B26589  35.915  24.601   7.953
 6925POPC   C4B26590  35.914  24.588   7.653
 6926POPC   NC326591  29.161  40.805   9.453
 6926POPC   PO426592  29.135  40.763   9.153
 6926POPC   GL126593  29.114  40.733   8.853
 6926POPC   GL226594  29.292  40.738   8.853
 6926POPC   C1A26595  29.171  40.743   8.553
 6926POPC   D2A26596  29.168  40.809   8.253
 6926POPC   C3A26597  29.101  40.779   7.953
 6926POPC   C4A26598  29.160  40.766   7.653
 6926POPC   C1B26599  29.334  40.601   8.553
 6926POPC   C2B26600  29.391  40.605   8.253
 6926POPC   C3B26601  29.302  40.594   7.953
 6926POPC   C4B26602  29.325  40.680   7.653
 6927POPC   NC326603  12.089  29.905   9.453
 6927POPC   PO426604  12.042  29.926   9.153
 6927POPC   GL126605  12.085  29.885   8.853
 6927POPC   GL226606  12.162  29.997   8.853
 6927POPC   C1A26607  12.107  29.909   8.553
 6927POPC   D2A26608  12.050  29.905   8.253
 6927POPC   C3A26609  12.055  29.900   7.953
 6927POPC   C4A26610  12.071  29.912   7.653
 6927POPC   C1B26611  12.283  30.060   8.553
 6927POPC   C2B26612  12.222  30.073   8.253
 6927POPC   C3B26613  12.257  30.138   7.953
 6927POPC   C4B26614  12.280  30.140   7.653
 6928POPC   NC326615  39.242   0.430   9.453
 6928POPC   PO426616  39.243   0.436   9.153
 6928POPC   GL126617  39.186   0.414   8.853
 6928POPC   GL226618  39.158   0.374   8.853
 6928POPC   C1A26619  39.234   0.480   8.553
 6928POPC   D2A26620  39.203   0.463   8.253
 6928POPC   C3A26621  39.234   0.444   7.953
 6928POPC   C4A26622  39.196   0.419   7.653
 6928POPC   C1B26623  39.021   0.363   8.553
 6928POPC   C2B26624  38.977   0.353   8.253
 6928POPC   C3B26625  39.020   0.358   7.953
 6928POPC   C4B26626  39.030   0.288   7.653
 6929POPC   NC326627  12.858  19.804   9.453
 6929POPC   PO426628  12.818  19.802   9.153
 6929POPC   GL126629  12.844  19.830   8.853
 6929POPC   GL226630  12.926  19.929   8.853
 6929POPC   C1A26631  12.829  19.882   8.553
 6929POPC   D2A26632  12.844  19.882   8.253
 6929POPC   C3A26633  12.861  19.796   7.953
 6929POPC   C4A26634  12.844  19.842   7.653
 6929POPC   C1B26635  12.970  20.058   8.553
 6929POPC   C2B26636  12.982  20.098   8.253
 6929POPC   C3B26637  12.975  20.058   7.953
 6929POPC   C4B26638  12.914  20.087   7.653
 6930POPC   NC326639   6.689  31.499   9.453
 6930POPC   PO426640   6.606  31.514   9.153
 6930POPC   GL126641   6.615  31.428   8.853
 6930POPC   GL226642   6.754  31.398   8.853
 6930POPC   C1A26643   6.606  31.482   8.553
 6930POPC   D2A26644   6.673  31.472   8.253
 6930POPC   C3A26645   6.622  31.451   7.953
 6930POPC   C4A26646   6.660  31.451   7.653
 6930POPC   C1B26647   6.869  31.368   8.553
 6930POPC   C2B26648   6.904  31.399   8.253
 6930POPC   C3B26649   6.862  31.437   7.953
 6930POPC   C4B26650   6.890  31.373   7.653
 6931POPC   NC326651  13.632  38.487   9.453
 6931POPC   PO426652  13.633  38.428   9.153
 6931POPC   GL126653  13.651  38.449   8.853
 6931POPC   GL226654  13.585  38.380   8.853
 6931POPC   C1A26655  13.651  38.444   8.553
 6931POPC   D2A26656  13.641  38.423   8.253
 6931POPC   C3A26657  13.650  38.428   7.953
 6931POPC   C4A26658  13.589  38.444   7.653
 6931POPC   C1B26659  13.490  38.271   8.553
 6931POPC   C2B26660  13.516  38.194   8.253
 6931POPC   C3B26661  13.506  38.239   7.953
 6931POPC   C4B26662  13.542  38.196   7.653
 6932POPC   NC326663  24.523  22.180   9.453
 6932POPC   PO426664  24.518  22.125   9.153
 6932POPC   GL126665  24.508  22.161   8.853
 6932POPC   GL226666  24.584  22.075   8.853
 6932POPC   C1A26667  24.471  22.153   8.553
 6932POPC   D2A26668  24.528  22.138   8.253
 6932POPC   C3A26669  24.488  22.151   7.953
 6932POPC   C4A26670  24.503  22.191   7.653
 6932POPC   C1B26671  24.582  21.951   8.553
 6932POPC   C2B26672  24.587  21.937   8.253
 6932POPC   C3B26673  24.624  21.984   7.953
 6932POPC   C4B26674  24.657  21.914   7.653
 6933POPC   NC326675  39.998  27.624   9.453
 6933POPC   PO426676  39.989  27.613   9.153
 6933POPC   GL126677  40.005  27.614   8.853
 6933POPC   GL226678  40.096  27.564   8.853
 6933POPC   C1A26679  39.998  27.543   8.553
 6933POPC   D2A26680  40.041  27.632   8.253
 6933POPC   C3A26681  40.013  27.606   7.953
 6933POPC   C4A26682  39.990  27.603   7.653
 6933POPC   C1B26683  40.292  27.603   8.553
 6933POPC   C2B26684  40.291  27.613   8.253
 6933POPC   C3B26685  40.216  27.629   7.953
 6933POPC   C4B26686  40.301  27.578   7.653
 6934POPC   NC326687  39.181   9.725   9.453
 6934POPC   PO426688  39.254   9.783   9.153
 6934POPC   GL126689  39.272   9.772   8.853
 6934POPC   GL226690  39.217   9.595   8.853
 6934POPC   C1A26691  39.204   9.792   8.553
 6934POPC   D2A26692  39.247   9.749   8.253
 6934POPC   C3A26693  39.184   9.717   7.953
 6934POPC   C4A26694  39.229   9.729   7.653
 6934POPC   C1B26695  39.224   9.500   8.553
 6934POPC   C2B26696  39.295   9.542   8.253
 6934POPC   C3B26697  39.293   9.528   7.953
 6934POPC   C4B26698  39.233   9.494   7.653
 6935POPC   NC326699  25.291  32.253   9.453
 6935POPC   PO426700  25.277  32.296   9.153
 6935POPC   GL126701  25.242  32.226   8.853
 6935POPC   GL226702  25.302  32.373   8.853
 6935POPC   C1A26703  25.223  32.200   8.553
 6935POPC   D2A26704  25.272  32.291   8.253
 6935POPC   C3A26705  25.246  32.233   7.953
 6935POPC   C4A26706  25.290  32.292   7.653
 6935POPC   C1B26707  25.257  32.529   8.553
 6935POPC   C2B26708  25.295  32.507   8.253
 6935POPC   C3B26709  25.271  32.531   7.953
 6935POPC   C4B26710  25.292  32.508   7.653
 6936POPC   NC326711  26.841  39.969   9.453
 6936POPC   PO426712  26.788  39.965   9.153
 6936POPC   GL126713  26.848  39.968   8.853
 6936POPC   GL226714  26.826  39.855   8.853
 6936POPC   C1A26715  26.865  40.042   8.553
 6936POPC   D2A26716  26.861  40.048   8.253
 6936POPC   C3A26717  26.825  39.966   7.953
 6936POPC   C4A26718  26.866  40.028   7.653
 6936POPC   C1B26719  26.810  39.781   8.553
 6936POPC   C2B26720  26.840  39.754   8.253
 6936POPC   C3B26721  26.793  39.769   7.953
 6936POPC   C4B26722  26.793  39.713   7.653
 6937POPC   NC326723  40.009  32.253   9.453
 6937POPC   PO426724  39.982  32.286   9.153
 6937POPC   GL126725  39.972  32.231   8.853
 6937POPC   GL226726  40.072  32.336   8.853
 6937POPC   C1A26727  40.020  32.281   8.553
 6937POPC   D2A26728  40.037  32.247   8.253
 6937POPC   C3A26729  40.056  32.231   7.953
 6937POPC   C4A26730  40.030  32.204   7.653
 6937POPC   C1B26731  40.137  32.442   8.553
 6937POPC   C2B26732  40.193  32.409   8.253
 6937POPC   C3B26733  40.147  32.426   7.953
 6937POPC   C4B26734  40.174  32.470   7.653
 6938POPC   NC326735  34.623  19.821   9.453
 6938POPC   PO426736  34.531  19.833   9.153
 6938POPC   GL126737  34.533  19.810   8.853
 6938POPC   GL226738  34.651  19.943   8.853
 6938POPC   C1A26739  34.555  19.808   8.553
 6938POPC   D2A26740  34.601  19.821   8.253
 6938POPC   C3A26741  34.537  19.872   7.953
 6938POPC   C4A26742  34.604  19.813   7.653
 6938POPC   C1B26743  34.794  19.969   8.553
 6938POPC   C2B26744  34.807  20.009   8.253
 6938POPC   C3B26745  34.747  19.966   7.953
 6938POPC   C4B26746  34.778  19.937   7.653
 6939POPC   NC326747   2.727  19.822   9.453
 6939POPC   PO426748   2.737  19.868   9.153
 6939POPC   GL126749   2.760  19.810   8.853
 6939POPC   GL226750   2.798  19.961   8.853
 6939POPC   C1A26751   2.802  19.884   8.553
 6939POPC   D2A26752   2.771  19.830   8.253
 6939POPC   C3A26753   2.790  19.793   7.953
 6939POPC   C4A26754   2.779  19.854   7.653
 6939POPC   C1B26755   2.717  20.053   8.553
 6939POPC   C2B26756   2.710  20.100   8.253
 6939POPC   C3B26757   2.788  20.069   7.953
 6939POPC   C4B26758   2.705  20.082   7.653
 6940POPC   NC326759  12.884  40.798   9.453
 6940POPC   PO426760  12.810  40.798   9.153
 6940POPC   GL126761  12.852  40.782   8.853
 6940POPC   GL226762  12.878  40.848   8.853
 6940POPC   C1A26763  12.856  40.749   8.553
 6940POPC   D2A26764  12.873  40.788   8.253
 6940POPC   C3A26765  12.843  40.777   7.953
 6940POPC   C4A26766  12.867  40.816   7.653
 6940POPC   C1B26767  12.994  40.963   8.553
 6940POPC   C2B26768  12.957  41.028   8.253
 6940POPC   C3B26769  13.007  41.040   7.953
 6940POPC   C4B26770  13.008  40.977   7.653
 6941POPC   NC326771  10.548  33.805   9.453
 6941POPC   PO426772  10.474  33.767   9.153
 6941POPC   GL126773  10.493  33.750   8.853
 6941POPC   GL226774  10.525  33.885   8.853
 6941POPC   C1A26775  10.558  33.823   8.553
 6941POPC   D2A26776  10.516  33.767   8.253
 6941POPC   C3A26777  10.554  33.837   7.953
 6941POPC   C4A26778  10.484  33.766   7.653
 6941POPC   C1B26779  10.644  34.008   8.553
 6941POPC   C2B26780  10.603  34.002   8.253
 6941POPC   C3B26781  10.570  34.032   7.953
 6941POPC   C4B26782  10.621  34.060   7.653
 6942POPC   NC326783   1.178  18.243   9.453
 6942POPC   PO426784   1.210  18.262   9.153
 6942POPC   GL126785   1.221  18.332   8.853
 6942POPC   GL226786   1.361  18.282   8.853
 6942POPC   C1A26787   1.211  18.303   8.553
 6942POPC   D2A26788   1.261  18.287   8.253
 6942POPC   C3A26789   1.245  18.309   7.953
 6942POPC   C4A26790   1.240  18.326   7.653
 6942POPC   C1B26791   1.413  18.348   8.553
 6942POPC   C2B26792   1.414  18.257   8.253
 6942POPC   C3B26793   1.448  18.302   7.953
 6942POPC   C4B26794   1.479  18.327   7.653
 6943POPC   NC326795   1.956  22.939   9.453
 6943POPC   PO426796   1.987  22.973   9.153
 6943POPC   GL126797   1.996  22.888   8.853
 6943POPC   GL226798   2.000  23.076   8.853
 6943POPC   C1A26799   1.999  22.988   8.553
 6943POPC   D2A26800   2.006  22.891   8.253
 6943POPC   C3A26801   1.978  22.945   7.953
 6943POPC   C4A26802   1.984  22.955   7.653
 6943POPC   C1B26803   2.030  23.175   8.553
 6943POPC   C2B26804   1.983  23.206   8.253
 6943POPC   C3B26805   2.063  23.184   7.953
 6943POPC   C4B26806   2.013  23.164   7.653
 6944POPC   NC326807  26.774  35.401   9.453
 6944POPC   PO426808  26.819  35.327   9.153
 6944POPC   GL126809  26.820  35.388   8.853
 6944POPC   GL226810  26.872  35.491   8.853
 6944POPC   C1A26811  26.830  35.343   8.553
 6944POPC   D2A26812  26.847  35.382   8.253
 6944POPC   C3A26813  26.789  35.344   7.953
 6944POPC   C4A26814  26.799  35.371   7.653
 6944POPC   C1B26815  26.964  35.516   8.553
 6944POPC   C2B26816  26.951  35.518   8.253
 6944POPC   C3B26817  26.963  35.515   7.953
 6944POPC   C4B26818  26.965  35.539   7.653
 6945POPC   NC326819  29.890   2.730   9.453
 6945POPC   PO426820  29.957   2.781   9.153
 6945POPC   GL126821  29.919   2.752   8.853
 6945POPC   GL226822  29.801   2.871   8.853
 6945POPC   C1A26823  29.951   2.797   8.553
 6945POPC   D2A26824  29.908   2.795   8.253
 6945POPC   C3A26825  29.885   2.781   7.953
 6945POPC   C4A26826  29.907   2.738   7.653
 6945POPC   C1B26827  29.721   2.930   8.553
 6945POPC   C2B26828  29.765   2.981   8.253
 6945POPC   C3B26829  29.754   2.982   7.953
 6945POPC   C4B26830  29.715   2.942   7.653
 6946POPC   NC326831  39.276  41.573   9.453
 6946POPC   PO426832  39.269  41.572   9.153
 6946POPC   GL126833  39.220  41.584   8.853
 6946POPC   GL226834  39.367  41.619   8.853
 6946POPC   C1A26835  39.206  41.516   8.553
 6946POPC   D2A26836  39.222  41.604   8.253
 6946POPC   C3A26837  39.279  41.560   7.953
 6946POPC   C4A26838  39.197  41.550   7.653
 6946POPC   C1B26839  39.408  41.668   8.553
 6946POPC   C2B26840  39.405  41.691   8.253
 6946POPC   C3B26841  39.485  41.698   7.953
 6946POPC   C4B26842  39.470  41.729   7.653
 6947POPC   NC326843  35.318  26.839   9.453
 6947POPC   PO426844  35.309  26.848   9.153
 6947POPC   GL126845  35.369  26.793   8.853
 6947POPC   GL226846  35.337  26.991   8.853
 6947POPC   C1A26847  35.372  26.768   8.553
 6947POPC   D2A26848  35.311  26.833   8.253
 6947POPC   C3A26849  35.392  26.813   7.953
 6947POPC   C4A26850  35.318  26.817   7.653
 6947POPC   C1B26851  35.325  27.090   8.553
 6947POPC   C2B26852  35.351  27.053   8.253
 6947POPC   C3B26853  35.326  27.080   7.953
 6947POPC   C4B26854  35.356  27.114   7.653
 6948POPC   NC326855  43.867  44.649   9.453
 6948POPC   PO426856  43.923  44.669   9.153
 6948POPC   GL126857  43.913  44.701   8.853
 6948POPC   GL226858  43.970  44.769   8.853
 6948POPC   C1A26859  43.904  44.644   8.553
 6948POPC   D2A26860  43.906  44.620   8.253
 6948POPC   C3A26861  43.845  44.684   7.953
 6948POPC   C4A26862  43.872  44.664   7.653
 6948POPC   C1B26863  44.068  44.759   8.553
 6948POPC   C2B26864  44.080  44.794   8.253
 6948POPC   C3B26865  44.121  44.778   7.953
 6948POPC   C4B26866  44.097  44.827   7.653
 6949POPC   NC326867  10.476  28.386   9.453
 6949POPC   PO426868  10.561  28.401   9.153
 6949POPC   GL126869  10.509  28.399   8.853
 6949POPC   GL226870  10.597  28.425   8.853
 6949POPC   C1A26871  10.553  28.324   8.553
 6949POPC   D2A26872  10.532  28.326   8.253
 6949POPC   C3A26873  10.527  28.389   7.953
 6949POPC   C4A26874  10.552  28.342   7.653
 6949POPC   C1B26875  10.720  28.584   8.553
 6949POPC   C2B26876  10.722  28.521   8.253
 6949POPC   C3B26877  10.672  28.519   7.953
 6949POPC   C4B26878  10.725  28.535   7.653
 6950POPC   NC326879  15.174  37.629   9.453
 6950POPC   PO426880  15.172  37.670   9.153
 6950POPC   GL126881  15.229  37.643   8.853
 6950POPC   GL226882  15.213  37.545   8.853
 6950POPC   C1A26883  15.159  37.681   8.553
 6950POPC   D2A26884  15.162  37.672   8.253
 6950POPC   C3A26885  15.159  37.644   7.953
 6950POPC   C4A26886  15.130  37.717   7.653
 6950POPC   C1B26887  15.248  37.385   8.553
 6950POPC   C2B26888  15.214  37.385   8.253
 6950POPC   C3B26889  15.225  37.420   7.953
 6950POPC   C4B26890  15.264  37.437   7.653
 6951POPC   NC326891  44.676  22.988   9.453
 6951POPC   PO426892  44.636  22.971   9.153
 6951POPC   GL126893  44.649  22.908   8.853
 6951POPC   GL226894  44.815  23.018   8.853
 6951POPC   C1A26895  44.700  22.960   8.553
 6951POPC   D2A26896  44.702  22.952   8.253
 6951POPC   C3A26897  44.613  22.960   7.953
 6951POPC   C4A26898  44.707  22.923   7.653
 6951POPC   C1B26899  44.926  22.993   8.553
 6951POPC   C2B26900  44.922  23.059   8.253
 6951POPC   C3B26901  44.894  23.009   7.953
 6951POPC   C4B26902  44.876  23.055   7.653
 6952POPC   NC326903  17.503   6.653   9.453
 6952POPC   PO426904  17.540   6.684   9.153
 6952POPC   GL126905  17.471   6.688   8.853
 6952POPC   GL226906  17.539   6.498   8.853
 6952POPC   C1A26907  17.547   6.605   8.553
 6952POPC   D2A26908  17.526   6.652   8.253
 6952POPC   C3A26909  17.548   6.654   7.953
 6952POPC   C4A26910  17.462   6.601   7.653
 6952POPC   C1B26911  17.624   6.411   8.553
 6952POPC   C2B26912  17.590   6.428   8.253
 6952POPC   C3B26913  17.602   6.422   7.953
 6952POPC   C4B26914  17.635   6.389   7.653
 6953POPC   NC326915  21.432  39.223   9.453
 6953POPC   PO426916  21.397  39.223   9.153
 6953POPC   GL126917  21.339  39.189   8.853
 6953POPC   GL226918  21.254  39.300   8.853
 6953POPC   C1A26919  21.401  39.280   8.553
 6953POPC   D2A26920  21.430  39.219   8.253
 6953POPC   C3A26921  21.375  39.210   7.953
 6953POPC   C4A26922  21.429  39.196   7.653
 6953POPC   C1B26923  21.153  39.275   8.553
 6953POPC   C2B26924  21.134  39.261   8.253
 6953POPC   C3B26925  21.131  39.255   7.953
 6953POPC   C4B26926  21.138  39.316   7.653
 6954POPC   NC326927   5.059  21.383   9.453
 6954POPC   PO426928   5.066  21.397   9.153
 6954POPC   GL126929   5.093  21.428   8.853
 6954POPC   GL226930   5.168  21.370   8.853
 6954POPC   C1A26931   5.140  21.351   8.553
 6954POPC   D2A26932   5.082  21.375   8.253
 6954POPC   C3A26933   5.090  21.432   7.953
 6954POPC   C4A26934   5.112  21.399   7.653
 6954POPC   C1B26935   5.311  21.315   8.553
 6954POPC   C2B26936   5.365  21.332   8.253
 6954POPC   C3B26937   5.369  21.308   7.953
 6954POPC   C4B26938   5.291  21.332   7.653
 6955POPC   NC326939  29.872  34.577   9.453
 6955POPC   PO426940  29.946  34.601   9.153
 6955POPC   GL126941  29.945  34.546   8.853
 6955POPC   GL226942  29.919  34.704   8.853
 6955POPC   C1A26943  29.932  34.579   8.553
 6955POPC   D2A26944  29.898  34.567   8.253
 6955POPC   C3A26945  29.949  34.574   7.953
 6955POPC   C4A26946  29.899  34.596   7.653
 6955POPC   C1B26947  29.959  34.811   8.553
 6955POPC   C2B26948  29.934  34.852   8.253
 6955POPC   C3B26949  29.900  34.855   7.953
 6955POPC   C4B26950  29.939  34.785   7.653
 6956POPC   NC326951   2.798  38.491   9.453
 6956POPC   PO426952   2.723  38.476   9.153
 6956POPC   GL126953   2.769  38.440   8.853
 6956POPC   GL226954   2.817  38.332   8.853
 6956POPC   C1A26955   2.791  38.477   8.553
 6956POPC   D2A26956   2.808  38.469   8.253
 6956POPC   C3A26957   2.775  38.455   7.953
 6956POPC   C4A26958   2.738  38.440   7.653
 6956POPC   C1B26959   2.896  38.233   8.553
 6956POPC   C2B26960   2.979  38.318   8.253
 6956POPC   C3B26961   2.982  38.292   7.953
 6956POPC   C4B26962   2.909  38.288   7.653
 6957POPC   NC326963  25.311  16.775   9.453
 6957POPC   PO426964  25.312  16.771   9.153
 6957POPC   GL126965  25.221  16.725   8.853
 6957POPC   GL226966  25.335  16.890   8.853
 6957POPC   C1A26967  25.227  16.776   8.553
 6957POPC   D2A26968  25.315  16.692   8.253
 6957POPC   C3A26969  25.285  16.732   7.953
 6957POPC   C4A26970  25.222  16.719   7.653
 6957POPC   C1B26971  25.357  16.959   8.553
 6957POPC   C2B26972  25.339  17.004   8.253
 6957POPC   C3B26973  25.358  16.936   7.953
 6957POPC   C4B26974  25.334  16.970   7.653
 6958POPC   NC326975  43.066  15.170   9.453
 6958POPC   PO426976  43.155  15.227   9.153
 6958POPC   GL126977  43.136  15.176   8.853
 6958POPC   GL226978  42.966  15.231   8.853
 6958POPC   C1A26979  43.133  15.132   8.553
 6958POPC   D2A26980  43.103  15.188   8.253
 6958POPC   C3A26981  43.088  15.167   7.953
 6958POPC   C4A26982  43.097  15.143   7.653
 6958POPC   C1B26983  42.842  15.260   8.553
 6958POPC   C2B26984  42.884  15.289   8.253
 6958POPC   C3B26985  42.865  15.287   7.953
 6958POPC   C4B26986  42.882  15.337   7.653
 6959POPC   NC326987  12.032  10.533   9.453
 6959POPC   PO426988  12.067  10.489   9.153
 6959POPC   GL126989  12.041  10.542   8.853
 6959POPC   GL226990  12.056  10.671   8.853
 6959POPC   C1A26991  12.081  10.567   8.553
 6959POPC   D2A26992  12.057  10.557   8.253
 6959POPC   C3A26993  12.092  10.566   7.953
 6959POPC   C4A26994  12.104  10.519   7.653
 6959POPC   C1B26995  12.017  10.741   8.553
 6959POPC   C2B26996  11.999  10.720   8.253
 6959POPC   C3B26997  11.955  10.803   7.953
 6959POPC   C4B26998  12.001  10.716   7.653
 6960POPC   NC326999  13.624  25.251   9.453
 6960POPC   PO427000  13.593  25.301   9.153
 6960POPC   GL127001  13.586  25.243   8.853
 6960POPC   GL227002  13.721  25.297   8.853
 6960POPC   C1A27003  13.674  25.301   8.553
 6960POPC   D2A27004  13.629  25.258   8.253
 6960POPC   C3A27005  13.594  25.292   7.953
 6960POPC   C4A27006  13.624  25.283   7.653
 6960POPC   C1B27007  13.841  25.275   8.553
 6960POPC   C2B27008  13.908  25.269   8.253
 6960POPC   C3B27009  13.913  25.263   7.953
 6960POPC   C4B27010  13.885  25.256   7.653
 6961POPC   NC327011   5.122  10.574   9.453
 6961POPC   PO427012   5.103  10.482   9.153
 6961POPC   GL127013   5.090  10.494   8.853
 6961POPC   GL227014   5.174  10.534   8.853
 6961POPC   C1A27015   5.126  10.548   8.553
 6961POPC   D2A27016   5.070  10.495   8.253
 6961POPC   C3A27017   5.088  10.567   7.953
 6961POPC   C4A27018   5.093  10.490   7.653
 6961POPC   C1B27019   5.304  10.509   8.553
 6961POPC   C2B27020   5.346  10.536   8.253
 6961POPC   C3B27021   5.328  10.534   7.953
 6961POPC   C4B27022   5.377  10.561   7.653
 6962POPC   NC327023  19.870   0.429   9.453
 6962POPC   PO427024  19.881   0.477   9.153
 6962POPC   GL127025  19.861   0.486   8.853
 6962POPC   GL227026  19.725   0.316   8.853
 6962POPC   C1A27027  19.870   0.427   8.553
 6962POPC   D2A27028  19.827   0.417   8.253
 6962POPC   C3A27029  19.856   0.443   7.953
 6962POPC   C4A27030  19.883   0.412   7.653
 6962POPC   C1B27031  19.719   0.193   8.553
 6962POPC   C2B27032  19.689   0.240   8.253
 6962POPC   C3B27033  19.748   0.180   7.953
 6962POPC   C4B27034  19.704   0.232   7.653
 6963POPC   NC327035   2.020   1.978   9.453
 6963POPC   PO427036   2.024   1.946   9.153
 6963POPC   GL127037   1.962   1.949   8.853
 6963POPC   GL227038   2.106   2.058   8.853
 6963POPC   C1A27039   1.993   1.960   8.553
 6963POPC   D2A27040   2.031   2.019   8.253
 6963POPC   C3A27041   2.005   2.029   7.953
 6963POPC   C4A27042   1.946   2.028   7.653
 6963POPC   C1B27043   2.227   2.057   8.553
 6963POPC   C2B27044   2.191   2.083   8.253
 6963POPC   C3B27045   2.272   2.047   7.953
 6963POPC   C4B27046   2.235   2.073   7.653
 6964POPC   NC327047  31.479   0.450   9.453
 6964POPC   PO427048  31.452   0.452   9.153
 6964POPC   GL127049  31.501   0.478   8.853
 6964POPC   GL227050  31.356   0.419   8.853
 6964POPC   C1A27051  31.441   0.484   8.553
 6964POPC   D2A27052  31.454   0.404   8.253
 6964POPC   C3A27053  31.509   0.421   7.953
 6964POPC   C4A27054  31.470   0.403   7.653
 6964POPC   C1B27055  31.194   0.430   8.553
 6964POPC   C2B27056  31.182   0.359   8.253
 6964POPC   C3B27057  31.228   0.398   7.953
 6964POPC   C4B27058  31.227   0.413   7.653
 6965POPC   NC327059   5.138  43.888   9.453
 6965POPC   PO427060   5.128  43.900   9.153
 6965POPC   GL127061   5.095  43.906   8.853
 6965POPC   GL227062   5.010  43.974   8.853
 6965POPC   C1A27063   5.094  43.873   8.553
 6965POPC   D2A27064   5.119  43.928   8.253
 6965POPC   C3A27065   5.063  43.916   7.953
 6965POPC   C4A27066   5.054  43.934   7.653
 6965POPC   C1B27067   4.825  43.952   8.553
 6965POPC   C2B27068   4.868  44.014   8.253
 6965POPC   C3B27069   4.864  43.925   7.953
 6965POPC   C4B27070   4.850  44.006   7.653
 6966POPC   NC327071   6.661  22.116   9.453
 6966POPC   PO427072   6.640  22.179   9.153
 6966POPC   GL127073   6.645  22.176   8.853
 6966POPC   GL227074   6.485  22.075   8.853
 6966POPC   C1A27075   6.679  22.169   8.553
 6966POPC   D2A27076   6.616  22.182   8.253
 6966POPC   C3A27077   6.650  22.188   7.953
 6966POPC   C4A27078   6.674  22.113   7.653
 6966POPC   C1B27079   6.449  22.016   8.553
 6966POPC   C2B27080   6.458  22.069   8.253
 6966POPC   C3B27081   6.443  22.054   7.953
 6966POPC   C4B27082   6.394  22.089   7.653
 6967POPC   NC327083  44.695  19.107   9.453
 6967POPC   PO427084  44.641  19.069   9.153
 6967POPC   GL127085  44.645  19.054   8.853
 6967POPC   GL227086  44.796  19.150   8.853
 6967POPC   C1A27087  44.704  19.051   8.553
 6967POPC   D2A27088  44.633  19.100   8.253
 6967POPC   C3A27089  44.679  19.098   7.953
 6967POPC   C4A27090  44.679  19.069   7.653
 6967POPC   C1B27091  44.905  19.205   8.553
 6967POPC   C2B27092  44.816  19.228   8.253
 6967POPC   C3B27093  44.874  19.224   7.953
 6967POPC   C4B27094  44.815  19.167   7.653
 6968POPC   NC327095  43.921  16.682   9.453
 6968POPC   PO427096  43.865  16.763   9.153
 6968POPC   GL127097  43.902  16.749   8.853
 6968POPC   GL227098  43.995  16.692   8.853
 6968POPC   C1A27099  43.892  16.770   8.553
 6968POPC   D2A27100  43.852  16.775   8.253
 6968POPC   C3A27101  43.870  16.746   7.953
 6968POPC   C4A27102  43.923  16.707   7.653
 6968POPC   C1B27103  44.122  16.663   8.553
 6968POPC   C2B27104  44.155  16.647   8.253
 6968POPC   C3B27105  44.078  16.670   7.953
 6968POPC   C4B27106  44.163  16.696   7.653
 6969POPC   NC327107  16.775  16.710   9.453
 6969POPC   PO427108  16.708  16.753   9.153
 6969POPC   GL127109  16.729  16.750   8.853
 6969POPC   GL227110  16.817  16.810   8.853
 6969POPC   C1A27111  16.724  16.693   8.553
 6969POPC   D2A27112  16.745  16.755   8.253
 6969POPC   C3A27113  16.772  16.744   7.953
 6969POPC   C4A27114  16.687  16.687   7.653
 6969POPC   C1B27115  16.924  16.853   8.553
 6969POPC   C2B27116  16.922  16.852   8.253
 6969POPC   C3B27117  16.959  16.775   7.953
 6969POPC   C4B27118  17.004  16.780   7.653
 6970POPC   NC327119  11.321  10.511   9.453
 6970POPC   PO427120  11.324  10.534   9.153
 6970POPC   GL127121  11.262  10.509   8.853
 6970POPC   GL227122  11.368  10.617   8.853
 6970POPC   C1A27123  11.328  10.517   8.553
 6970POPC   D2A27124  11.259  10.487   8.253
 6970POPC   C3A27125  11.255  10.534   7.953
 6970POPC   C4A27126  11.272  10.552   7.653
 6970POPC   C1B27127  11.482  10.633   8.553
 6970POPC   C2B27128  11.561  10.608   8.253
 6970POPC   C3B27129  11.475  10.612   7.953
 6970POPC   C4B27130  11.570  10.677   7.653
 6971POPC   NC327131  33.024  37.711   9.453
 6971POPC   PO427132  33.049  37.698   9.153
 6971POPC   GL127133  32.995  37.670   8.853
 6971POPC   GL227134  32.998  37.830   8.853
 6971POPC   C1A27135  33.044  37.680   8.553
 6971POPC   D2A27136  33.037  37.639   8.253
 6971POPC   C3A27137  33.067  37.721   7.953
 6971POPC   C4A27138  33.038  37.688   7.653
 6971POPC   C1B27139  33.009  37.964   8.553
 6971POPC   C2B27140  33.035  37.890   8.253
 6971POPC   C3B27141  33.086  37.879   7.953
 6971POPC   C4B27142  33.099  37.917   7.653
 6972POPC   NC327143  33.788  25.313   9.453
 6972POPC   PO427144  33.792  25.238   9.153
 6972POPC   GL127145  33.779  25.233   8.853
 6972POPC   GL227146  33.734  25.334   8.853
 6972POPC   C1A27147  33.760  25.243   8.553
 6972POPC   D2A27148  33.759  25.310   8.253
 6972POPC   C3A27149  33.758  25.293   7.953
 6972POPC   C4A27150  33.841  25.311   7.653
 6972POPC   C1B27151  33.606  25.407   8.553
 6972POPC   C2B27152  33.644  25.417   8.253
 6972POPC   C3B27153  33.617  25.435   7.953
 6972POPC   C4B27154  33.614  25.439   7.653
 6973POPC   NC327155  40.739  44.648   9.453
 6973POPC   PO427156  40.805  44.685   9.153
 6973POPC   GL127157  40.764  44.674   8.853
 6973POPC   GL227158  40.889  44.707   8.853
 6973POPC   C1A27159  40.750  44.684   8.553
 6973POPC   D2A27160  40.826  44.634   8.253
 6973POPC   C3A27161  40.758  44.712   7.953
 6973POPC   C4A27162  40.756  44.644   7.653
 6973POPC   C1B27163  40.948  44.820   8.553
 6973POPC   C2B27164  41.029  44.847   8.253
 6973POPC   C3B27165  41.005  44.833   7.953
 6973POPC   C4B27166  40.965  44.848   7.653
 6974POPC   NC327167  36.902  24.517   9.453
 6974POPC   PO427168  36.947  24.530   9.153
 6974POPC   GL127169  36.866  24.512   8.853
 6974POPC   GL227170  36.925  24.401   8.853
 6974POPC   C1A27171  36.915  24.534   8.553
 6974POPC   D2A27172  36.872  24.508   8.253
 6974POPC   C3A27173  36.925  24.453   7.953
 6974POPC   C4A27174  36.885  24.480   7.653
 6974POPC   C1B27175  36.869  24.271   8.553
 6974POPC   C2B27176  36.925  24.195   8.253
 6974POPC   C3B27177  36.938  24.239   7.953
 6974POPC   C4B27178  36.895  24.278   7.653
 6975POPC   NC327179   9.010  39.980   9.453
 6975POPC   PO427180   8.980  39.969   9.153
 6975POPC   GL127181   8.980  40.054   8.853
 6975POPC   GL227182   9.047  40.135   8.853
 6975POPC   C1A27183   8.963  40.034   8.553
 6975POPC   D2A27184   9.000  40.001   8.253
 6975POPC   C3A27185   8.943  40.006   7.953
 6975POPC   C4A27186   8.991  39.977   7.653
 6975POPC   C1B27187   9.058  40.207   8.553
 6975POPC   C2B27188   9.080  40.196   8.253
 6975POPC   C3B27189   9.064  40.216   7.953
 6975POPC   C4B27190   9.020  40.288   7.653
 6976POPC   NC327191   7.388  42.337   9.453
 6976POPC   PO427192   7.434  42.319   9.153
 6976POPC   GL127193   7.445  42.302   8.853
 6976POPC   GL227194   7.475  42.409   8.853
 6976POPC   C1A27195   7.447  42.298   8.553
 6976POPC   D2A27196   7.387  42.292   8.253
 6976POPC   C3A27197   7.421  42.375   7.953
 6976POPC   C4A27198   7.450  42.296   7.653
 6976POPC   C1B27199   7.513  42.592   8.553
 6976POPC   C2B27200   7.480  42.571   8.253
 6976POPC   C3B27201   7.431  42.576   7.953
 6976POPC   C4B27202   7.510  42.558   7.653
 6977POPC   NC327203  26.856  22.172   9.453
 6977POPC   PO427204  26.853  22.198   9.153
 6977POPC   GL127205  26.776  22.127   8.853
 6977POPC   GL227206  26.699  22.048   8.853
 6977POPC   C1A27207  26.778  22.202   8.553
 6977POPC   D2A27208  26.836  22.164   8.253
 6977POPC   C3A27209  26.819  22.119   7.953
 6977POPC   C4A27210  26.862  22.207   7.653
 6977POPC   C1B27211  26.660  21.909   8.553
 6977POPC   C2B27212  26.674  21.977   8.253
 6977POPC   C3B27213  26.639  22.003   7.953
 6977POPC   C4B27214  26.647  21.988   7.653
 6978POPC   NC327215  37.705  14.399   9.453
 6978POPC   PO427216  37.630  14.411   9.153
 6978POPC   GL127217  37.690  14.397   8.853
 6978POPC   GL227218  37.636  14.321   8.853
 6978POPC   C1A27219  37.709  14.449   8.553
 6978POPC   D2A27220  37.655  14.407   8.253
 6978POPC   C3A27221  37.723  14.392   7.953
 6978POPC   C4A27222  37.712  14.401   7.653
 6978POPC   C1B27223  37.690  14.113   8.553
 6978POPC   C2B27224  37.729  14.124   8.253
 6978POPC   C3B27225  37.689  14.115   7.953
 6978POPC   C4B27226  37.691  14.123   7.653
 6979POPC   NC327227  20.596  44.667   9.453
 6979POPC   PO427228  20.597  44.655   9.153
 6979POPC   GL127229  20.657  44.637   8.853
 6979POPC   GL227230  20.544  44.706   8.853
 6979POPC   C1A27231  20.604  44.670   8.553
 6979POPC   D2A27232  20.569  44.676   8.253
 6979POPC   C3A27233  20.653  44.680   7.953
 6979POPC   C4A27234  20.599  44.638   7.653
 6979POPC   C1B27235  20.394  44.753   8.553
 6979POPC   C2B27236  20.368  44.807   8.253
 6979POPC   C3B27237  20.358  44.720   7.953
 6979POPC   C4B27238  20.336  44.753   7.653
 6980POPC   NC327239   9.755  24.469   9.453
 6980POPC   PO427240   9.707  24.450   9.153
 6980POPC   GL127241   9.788  24.523   8.853
 6980POPC   GL227242   9.864  24.576   8.853
 6980POPC   C1A27243   9.734  24.495   8.553
 6980POPC   D2A27244   9.781  24.478   8.253
 6980POPC   C3A27245   9.714  24.527   7.953
 6980POPC   C4A27246   9.699  24.482   7.653
 6980POPC   C1B27247   9.888  24.680   8.553
 6980POPC   C2B27248   9.928  24.694   8.253
 6980POPC   C3B27249   9.912  24.660   7.953
 6980POPC   C4B27250   9.917  24.721   7.653
 6981POPC   NC327251   5.839  10.572   9.453
 6981POPC   PO427252   5.832  10.534   9.153
 6981POPC   GL127253   5.848  10.538   8.853
 6981POPC   GL227254   5.793  10.435   8.853
 6981POPC   C1A27255   5.909  10.526   8.553
 6981POPC   D2A27256   5.896  10.478   8.253
 6981POPC   C3A27257   5.871  10.549   7.953
 6981POPC   C4A27258   5.865  10.490   7.653
 6981POPC   C1B27259   5.672  10.370   8.553
 6981POPC   C2B27260   5.666  10.406   8.253
 6981POPC   C3B27261   5.690  10.434   7.953
 6981POPC   C4B27262   5.637  10.409   7.653
 6982POPC   NC327263  16.746  12.104   9.453
 6982POPC   PO427264  16.742  12.102   9.153
 6982POPC   GL127265  16.715  12.082   8.853
 6982POPC   GL227266  16.872  12.058   8.853
 6982POPC   C1A27267  16.762  12.082   8.553
 6982POPC   D2A27268  16.742  12.099   8.253
 6982POPC   C3A27269  16.773  12.101   7.953
 6982POPC   C4A27270  16.763  12.031   7.653
 6982POPC   C1B27271  17.021  12.055   8.553
 6982POPC   C2B27272  17.015  12.042   8.253
 6982POPC   C3B27273  16.949  12.044   7.953
 6982POPC   C4B27274  16.935  12.015   7.653
 6983POPC   NC327275   8.959  31.425   9.453
 6983POPC   PO427276   9.015  31.490   9.153
 6983POPC   GL127277   8.990  31.433   8.853
 6983POPC   GL227278   8.834  31.433   8.853
 6983POPC   C1A27279   9.002  31.497   8.553
 6983POPC   D2A27280   8.974  31.481   8.253
 6983POPC   C3A27281   8.953  31.423   7.953
 6983POPC   C4A27282   8.936  31.437   7.653
 6983POPC   C1B27283   8.761  31.284   8.553
 6983POPC   C2B27284   8.782  31.360   8.253
 6983POPC   C3B27285   8.798  31.353   7.953
 6983POPC   C4B27286   8.816  31.321   7.653
 6984POPC   NC327287  20.591   8.943   9.453
 6984POPC   PO427288  20.651   8.976   9.153
 6984POPC   GL127289  20.572   8.980   8.853
 6984POPC   GL227290  20.649   9.065   8.853
 6984POPC   C1A27291  20.577   8.957   8.553
 6984POPC   D2A27292  20.615   8.931   8.253
 6984POPC   C3A27293  20.584   9.004   7.953
 6984POPC   C4A27294  20.584   8.984   7.653
 6984POPC   C1B27295  20.622   9.193   8.553
 6984POPC   C2B27296  20.587   9.269   8.253
 6984POPC   C3B27297  20.623   9.218   7.953
 6984POPC   C4B27298  20.561   9.229   7.653
 6985POPC   NC327299  36.929  30.671   9.453
 6985POPC   PO427300  36.906  30.742   9.153
 6985POPC   GL127301  36.895  30.659   8.853
 6985POPC   GL227302  36.863  30.572   8.853
 6985POPC   C1A27303  36.926  30.684   8.553
 6985POPC   D2A27304  36.933  30.663   8.253
 6985POPC   C3A27305  36.895  30.714   7.953
 6985POPC   C4A27306  36.949  30.722   7.653
 6985POPC   C1B27307  36.727  30.522   8.553
 6985POPC   C2B27308  36.704  30.492   8.253
 6985POPC   C3B27309  36.764  30.462   7.953
 6985POPC   C4B27310  36.724  30.488   7.653
 6986POPC   NC327311  10.480  26.803   9.453
 6986POPC   PO427312  10.482  26.866   9.153
 6986POPC   GL127313  10.507  26.807   8.853
 6986POPC   GL227314  10.405  26.943   8.853
 6986POPC   C1A27315  10.561  26.858   8.553
 6986POPC   D2A27316  10.529  26.848   8.253
 6986POPC   C3A27317  10.510  26.824   7.953
 6986POPC   C4A27318  10.479  26.810   7.653
 6986POPC   C1B27319  10.303  27.015   8.553
 6986POPC   C2B27320  10.327  27.022   8.253
 6986POPC   C3B27321  10.365  26.988   7.953
 6986POPC   C4B27322  10.308  26.975   7.653
 6987POPC   NC327323  22.974  26.049   9.453
 6987POPC   PO427324  22.950  26.018   9.153
 6987POPC   GL127325  22.911  26.080   8.853
 6987POPC   GL227326  23.051  26.105   8.853
 6987POPC   C1A27327  22.916  26.062   8.553
 6987POPC   D2A27328  22.966  26.033   8.253
 6987POPC   C3A27329  22.954  26.014   7.953
 6987POPC   C4A27330  22.908  26.077   7.653
 6987POPC   C1B27331  23.221  26.158   8.553
 6987POPC   C2B27332  23.156  26.156   8.253
 6987POPC   C3B27333  23.146  26.127   7.953
 6987POPC   C4B27334  23.202  26.113   7.653
 6988POPC   NC327335  12.067  42.327   9.453
 6988POPC   PO427336  12.084  42.335   9.153
 6988POPC   GL127337  12.053  42.289   8.853
 6988POPC   GL227338  12.135  42.177   8.853
 6988POPC   C1A27339  12.095  42.360   8.553
 6988POPC   D2A27340  12.110  42.363   8.253
 6988POPC   C3A27341  12.092  42.310   7.953
 6988POPC   C4A27342  12.051  42.367   7.653
 6988POPC   C1B27343  12.119  42.064   8.553
 6988POPC   C2B27344  12.118  42.053   8.253
 6988POPC   C3B27345  12.153  42.067   7.953
 6988POPC   C4B27346  12.130  42.116   7.653
 6989POPC   NC327347  19.045  44.694   9.453
 6989POPC   PO427348  19.041  44.639   9.153
 6989POPC   GL127349  19.024  44.679   8.853
 6989POPC   GL227350  18.947  44.571   8.853
 6989POPC   C1A27351  19.024  44.620   8.553
 6989POPC   D2A27352  19.069  44.660   8.253
 6989POPC   C3A27353  19.042  44.654   7.953
 6989POPC   C4A27354  19.018  44.626   7.653
 6989POPC   C1B27355  18.844  44.496   8.553
 6989POPC   C2B27356  18.902  44.527   8.253
 6989POPC   C3B27357  18.867  44.499   7.953
 6989POPC   C4B27358  18.825  44.490   7.653
 6990POPC   NC327359   5.120  28.379   9.453
 6990POPC   PO427360   5.089  28.404   9.153
 6990POPC   GL127361   5.097  28.343   8.853
 6990POPC   GL227362   5.048  28.489   8.853
 6990POPC   C1A27363   5.117  28.373   8.553
 6990POPC   D2A27364   5.142  28.397   8.253
 6990POPC   C3A27365   5.126  28.329   7.953
 6990POPC   C4A27366   5.077  28.408   7.653
 6990POPC   C1B27367   5.119  28.639   8.553
 6990POPC   C2B27368   5.089  28.619   8.253
 6990POPC   C3B27369   5.130  28.575   7.953
 6990POPC   C4B27370   5.109  28.574   7.653
 6991POPC   NC327371   5.838  22.890   9.453
 6991POPC   PO427372   5.910  22.977   9.153
 6991POPC   GL127373   5.871  22.942   8.853
 6991POPC   GL227374   5.880  22.791   8.853
 6991POPC   C1A27375   5.858  22.940   8.553
 6991POPC   D2A27376   5.893  22.954   8.253
 6991POPC   C3A27377   5.919  22.953   7.953
 6991POPC   C4A27378   5.882  22.982   7.653
 6991POPC   C1B27379   5.918  22.691   8.553
 6991POPC   C2B27380   5.992  22.700   8.253
 6991POPC   C3B27381   5.959  22.738   7.953
 6991POPC   C4B27382   5.993  22.687   7.653
 6992POPC   NC327383   2.022  18.245   9.453
 6992POPC   PO427384   1.999  18.290   9.153
 6992POPC   GL127385   1.981  18.234   8.853
 6992POPC   GL227386   1.938  18.188   8.853
 6992POPC   C1A27387   2.019  18.255   8.553
 6992POPC   D2A27388   2.009  18.286   8.253
 6992POPC   C3A27389   2.011  18.328   7.953
 6992POPC   C4A27390   1.968  18.317   7.653
 6992POPC   C1B27391   1.877  18.057   8.553
 6992POPC   C2B27392   1.832  18.069   8.253
 6992POPC   C3B27393   1.803  18.107   7.953
 6992POPC   C4B27394   1.871  18.065   7.653
 6993POPC   NC327395  30.745  36.874   9.453
 6993POPC   PO427396  30.726  36.913   9.153
 6993POPC   GL127397  30.702  36.883   8.853
 6993POPC   GL227398  30.847  36.916   8.853
 6993POPC   C1A27399  30.717  36.892   8.553
 6993POPC   D2A27400  30.662  36.899   8.253
 6993POPC   C3A27401  30.719  36.876   7.953
 6993POPC   C4A27402  30.678  36.863   7.653
 6993POPC   C1B27403  30.979  36.912   8.553
 6993POPC   C2B27404  30.985  36.908   8.253
 6993POPC   C3B27405  30.991  36.943   7.953
 6993POPC   C4B27406  30.908  36.925   7.653
 6994POPC   NC327407  24.521  38.446   9.453
 6994POPC   PO427408  24.529  38.478   9.153
 6994POPC   GL127409  24.537  38.495   8.853
 6994POPC   GL227410  24.571  38.394   8.853
 6994POPC   C1A27411  24.495  38.474   8.553
 6994POPC   D2A27412  24.478  38.411   8.253
 6994POPC   C3A27413  24.539  38.412   7.953
 6994POPC   C4A27414  24.526  38.486   7.653
 6994POPC   C1B27415  24.696  38.310   8.553
 6994POPC   C2B27416  24.695  38.309   8.253
 6994POPC   C3B27417  24.665  38.269   7.953
 6994POPC   C4B27418  24.652  38.353   7.653
 6995POPC   NC327419  41.580  12.901   9.453
 6995POPC   PO427420  41.578  12.817   9.153
 6995POPC   GL127421  41.525  12.820   8.853
 6995POPC   GL227422  41.555  12.692   8.853
 6995POPC   C1A27423  41.512  12.883   8.553
 6995POPC   D2A27424  41.519  12.834   8.253
 6995POPC   C3A27425  41.550  12.836   7.953
 6995POPC   C4A27426  41.580  12.897   7.653
 6995POPC   C1B27427  41.641  12.651   8.553
 6995POPC   C2B27428  41.618  12.569   8.253
 6995POPC   C3B27429  41.628  12.611   7.953
 6995POPC   C4B27430  41.637  12.653   7.653
 6996POPC   NC327431  13.639   1.165   9.453
 6996POPC   PO427432  13.610   1.187   9.153
 6996POPC   GL127433  13.659   1.227   8.853
 6996POPC   GL227434  13.652   1.333   8.853
 6996POPC   C1A27435  13.586   1.237   8.553
 6996POPC   D2A27436  13.585   1.190   8.253
 6996POPC   C3A27437  13.605   1.200   7.953
 6996POPC   C4A27438  13.677   1.165   7.653
 6996POPC   C1B27439  13.691   1.500   8.553
 6996POPC   C2B27440  13.655   1.508   8.253
 6996POPC   C3B27441  13.615   1.455   7.953
 6996POPC   C4B27442  13.664   1.468   7.653
 6997POPC   NC327443   2.030  15.135   9.453
 6997POPC   PO427444   1.962  15.172   9.153
 6997POPC   GL127445   1.982  15.191   8.853
 6997POPC   GL227446   1.905  15.103   8.853
 6997POPC   C1A27447   1.981  15.219   8.553
 6997POPC   D2A27448   2.020  15.175   8.253
 6997POPC   C3A27449   2.016  15.180   7.953
 6997POPC   C4A27450   2.012  15.219   7.653
 6997POPC   C1B27451   1.782  14.948   8.553
 6997POPC   C2B27452   1.830  15.012   8.253
 6997POPC   C3B27453   1.837  15.027   7.953
 6997POPC   C4B27454   1.823  15.029   7.653
 6998POPC   NC327455  43.078  21.423   9.453
 6998POPC   PO427456  43.105  21.423   9.153
 6998POPC   GL127457  43.142  21.339   8.853
 6998POPC   GL227458  43.041  21.500   8.853
 6998POPC   C1A27459  43.061  21.381   8.553
 6998POPC   D2A27460  43.153  21.410   8.253
 6998POPC   C3A27461  43.113  21.399   7.953
 6998POPC   C4A27462  43.147  21.348   7.653
 6998POPC   C1B27463  43.019  21.594   8.553
 6998POPC   C2B27464  43.000  21.574   8.253
 6998POPC   C3B27465  43.024  21.648   7.953
 6998POPC   C4B27466  43.057  21.650   7.653
 6999POPC   NC327467  31.464  44.615   9.453
 6999POPC   PO427468  31.451  44.686   9.153
 6999POPC   GL127469  31.475  44.685   8.853
 6999POPC   GL227470  31.323  44.738   8.853
 6999POPC   C1A27471  31.454  44.707   8.553
 6999POPC   D2A27472  31.488  44.628   8.253
 6999POPC   C3A27473  31.492  44.707   7.953
 6999POPC   C4A27474  31.500  44.672   7.653
 6999POPC   C1B27475  31.259  44.715   8.553
 6999POPC   C2B27476  31.243  44.794   8.253
 6999POPC   C3B27477  31.242  44.744   7.953
 6999POPC   C4B27478  31.278  44.734   7.653
 7000POPC   NC327479  36.895  43.087   9.453
 7000POPC   PO427480  36.891  43.157   9.153
 7000POPC   GL127481  36.885  43.147   8.853
 7000POPC   GL227482  36.835  43.204   8.853
 7000POPC   C1A27483  36.914  43.061   8.553
 7000POPC   D2A27484  36.880  43.070   8.253
 7000POPC   C3A27485  36.864  43.134   7.953
 7000POPC   C4A27486  36.910  43.135   7.653
 7000POPC   C1B27487  36.730  43.308   8.553
 7000POPC   C2B27488  36.704  43.289   8.253
 7000POPC   C3B27489  36.749  43.298   7.953
 7000POPC   C4B27490  36.725  43.306   7.653
 7001POPC   NC327491  31.448  40.778   9.453
 7001POPC   PO427492  31.509  40.819   9.153
 7001POPC   GL127493  31.449  40.779   8.853
 7001POPC   GL227494  31.335  40.795   8.853
 7001POPC   C1A27495  31.440  40.780   8.553
 7001POPC   D2A27496  31.448  40.756   8.253
 7001POPC   C3A27497  31.492  40.788   7.953
 7001POPC   C4A27498  31.435  40.830   7.653
 7001POPC   C1B27499  31.248  40.940   8.553
 7001POPC   C2B27500  31.219  40.882   8.253
 7001POPC   C3B27501  31.286  40.939   7.953
 7001POPC   C4B27502  31.264  40.845   7.653
 7002POPC   NC327503  42.374  32.219   9.453
 7002POPC   PO427504  42.305  32.293   9.153
 7002POPC   GL127505  42.318  32.278   8.853
 7002POPC   GL227506  42.322  32.402   8.853
 7002POPC   C1A27507  42.384  32.218   8.553
 7002POPC   D2A27508  42.286  32.282   8.253
 7002POPC   C3A27509  42.370  32.201   7.953
 7002POPC   C4A27510  42.297  32.256   7.653
 7002POPC   C1B27511  42.413  32.491   8.553
 7002POPC   C2B27512  42.359  32.510   8.253
 7002POPC   C3B27513  42.417  32.471   7.953
 7002POPC   C4B27514  42.347  32.481   7.653
 7003POPC   NC327515  23.689  43.848   9.453
 7003POPC   PO427516  23.722  43.911   9.153
 7003POPC   GL127517  23.728  43.931   8.853
 7003POPC   GL227518  23.677  43.971   8.853
 7003POPC   C1A27519  23.704  43.935   8.553
 7003POPC   D2A27520  23.763  43.933   8.253
 7003POPC   C3A27521  23.687  43.846   7.953
 7003POPC   C4A27522  23.665  43.841   7.653
 7003POPC   C1B27523  23.712  44.089   8.553
 7003POPC   C2B27524  23.679  44.093   8.253
 7003POPC   C3B27525  23.753  44.097   7.953
 7003POPC   C4B27526  23.678  44.152   7.653
 7004POPC   NC327527  18.295   5.890   9.453
 7004POPC   PO427528  18.332   5.879   9.153
 7004POPC   GL127529  18.271   5.874   8.853
 7004POPC   GL227530  18.196   5.971   8.853
 7004POPC   C1A27531  18.327   5.894   8.553
 7004POPC   D2A27532  18.307   5.821   8.253
 7004POPC   C3A27533  18.237   5.861   7.953
 7004POPC   C4A27534  18.306   5.856   7.653
 7004POPC   C1B27535  18.185   6.074   8.553
 7004POPC   C2B27536  18.169   6.121   8.253
 7004POPC   C3B27537  18.222   6.104   7.953
 7004POPC   C4B27538  18.212   6.050   7.653
 7005POPC   NC327539  40.775  19.845   9.453
 7005POPC   PO427540  40.783  19.849   9.153
 7005POPC   GL127541  40.769  19.792   8.853
 7005POPC   GL227542  40.729  19.877   8.853
 7005POPC   C1A27543  40.804  19.823   8.553
 7005POPC   D2A27544  40.822  19.838   8.253
 7005POPC   C3A27545  40.831  19.866   7.953
 7005POPC   C4A27546  40.784  19.832   7.653
 7005POPC   C1B27547  40.613  19.999   8.553
 7005POPC   C2B27548  40.591  19.934   8.253
 7005POPC   C3B27549  40.532  20.026   7.953
 7005POPC   C4B27550  40.538  20.022   7.653
 7006POPC   NC327551  29.123  33.044   9.453
 7006POPC   PO427552  29.132  33.063   9.153
 7006POPC   GL127553  29.151  33.061   8.853
 7006POPC   GL227554  29.235  33.098   8.853
 7006POPC   C1A27555  29.176  33.042   8.553
 7006POPC   D2A27556  29.115  33.050   8.253
 7006POPC   C3A27557  29.124  32.993   7.953
 7006POPC   C4A27558  29.153  33.033   7.653
 7006POPC   C1B27559  29.364  33.174   8.553
 7006POPC   C2B27560  29.380  33.133   8.253
 7006POPC   C3B27561  29.398  33.142   7.953
 7006POPC   C4B27562  29.361  33.179   7.653
 7007POPC   NC327563  19.830   6.687   9.453
 7007POPC   PO427564  19.846   6.674   9.153
 7007POPC   GL127565  19.833   6.618   8.853
 7007POPC   GL227566  19.748   6.745   8.853
 7007POPC   C1A27567  19.840   6.622   8.553
 7007POPC   D2A27568  19.804   6.652   8.253
 7007POPC   C3A27569  19.881   6.619   7.953
 7007POPC   C4A27570  19.869   6.687   7.653
 7007POPC   C1B27571  19.712   6.829   8.553
 7007POPC   C2B27572  19.646   6.856   8.253
 7007POPC   C3B27573  19.691   6.811   7.953
 7007POPC   C4B27574  19.621   6.807   7.653
 7008POPC   NC327575   8.215   3.519   9.453
 7008POPC   PO427576   8.184   3.563   9.153
 7008POPC   GL127577   8.221   3.501   8.853
 7008POPC   GL227578   8.196   3.435   8.853
 7008POPC   C1A27579   8.186   3.587   8.553
 7008POPC   D2A27580   8.147   3.495   8.253
 7008POPC   C3A27581   8.172   3.565   7.953
 7008POPC   C4A27582   8.244   3.529   7.653
 7008POPC   C1B27583   8.231   3.321   8.553
 7008POPC   C2B27584   8.210   3.255   8.253
 7008POPC   C3B27585   8.243   3.329   7.953
 7008POPC   C4B27586   8.187   3.285   7.653
 7009POPC   NC327587  43.846  12.813   9.453
 7009POPC   PO427588  43.927  12.873   9.153
 7009POPC   GL127589  43.905  12.849   8.853
 7009POPC   GL227590  43.812  12.885   8.853
 7009POPC   C1A27591  43.893  12.812   8.553
 7009POPC   D2A27592  43.854  12.815   8.253
 7009POPC   C3A27593  43.864  12.825   7.953
 7009POPC   C4A27594  43.900  12.831   7.653
 7009POPC   C1B27595  43.642  12.986   8.553
 7009POPC   C2B27596  43.645  12.900   8.253
 7009POPC   C3B27597  43.603  12.936   7.953
 7009POPC   C4B27598  43.623  12.946   7.653
 7010POPC   NC327599  36.907  10.508   9.453
 7010POPC   PO427600  36.902  10.524   9.153
 7010POPC   GL127601  36.857  10.485   8.853
 7010POPC   GL227602  37.007  10.635   8.853
 7010POPC   C1A27603  36.937  10.527   8.553
 7010POPC   D2A27604  36.867  10.521   8.253
 7010POPC   C3A27605  36.901  10.529   7.953
 7010POPC   C4A27606  36.909  10.566   7.653
 7010POPC   C1B27607  37.094  10.628   8.553
 7010POPC   C2B27608  37.120  10.614   8.253
 7010POPC   C3B27609  37.072  10.672   7.953
 7010POPC   C4B27610  37.073  10.682   7.653
 7011POPC   NC327611  24.501  41.568   9.453
 7011POPC   PO427612  24.524  41.524   9.153
 7011POPC   GL127613  24.480  41.519   8.853
 7011POPC   GL227614  24.515  41.658   8.853
 7011POPC   C1A27615  24.464  41.515   8.553
 7011POPC   D2A27616  24.448  41.513   8.253
 7011POPC   C3A27617  24.532  41.589   7.953
 7011POPC   C4A27618  24.478  41.603   7.653
 7011POPC   C1B27619  24.506  41.806   8.553
 7011POPC   C2B27620  24.488  41.797   8.253
 7011POPC   C3B27621  24.513  41.804   7.953
 7011POPC   C4B27622  24.550  41.786   7.653
 7012POPC   NC327623  30.684  25.230   9.453
 7012POPC   PO427624  30.674  25.251   9.153
 7012POPC   GL127625  30.654  25.292   8.853
 7012POPC   GL227626  30.582  25.394   8.853
 7012POPC   C1A27627  30.667  25.273   8.553
 7012POPC   D2A27628  30.660  25.255   8.253
 7012POPC   C3A27629  30.730  25.286   7.953
 7012POPC   C4A27630  30.720  25.288   7.653
 7012POPC   C1B27631  30.552  25.493   8.553
 7012POPC   C2B27632  30.598  25.503   8.253
 7012POPC   C3B27633  30.584  25.496   7.953
 7012POPC   C4B27634  30.592  25.500   7.653
 7013POPC   NC327635  26.846  15.195   9.453
 7013POPC   PO427636  26.854  15.158   9.153
 7013POPC   GL127637  26.786  15.153   8.853
 7013POPC   GL227638  26.923  15.269   8.853
 7013POPC   C1A27639  26.803  15.194   8.553
 7013POPC   D2A27640  26.773  15.182   8.253
 7013POPC   C3A27641  26.846  15.179   7.953
 7013POPC   C4A27642  26.830  15.224   7.653
 7013POPC   C1B27643  27.021  15.314   8.553
 7013POPC   C2B27644  27.017  15.331   8.253
 7013POPC   C3B27645  26.986  15.305   7.953
 7013POPC   C4B27646  27.055  15.346   7.653
 7014POPC   NC327647  10.503   6.629   9.453
 7014POPC   PO427648  10.552   6.619   9.153
 7014POPC   GL127649  10.538   6.691   8.853
 7014POPC   GL227650  10.400   6.773   8.853
 7014POPC   C1A27651  10.488   6.670   8.553
 7014POPC   D2A27652  10.497   6.683   8.253
 7014POPC   C3A27653  10.530   6.679   7.953
 7014POPC   C4A27654  10.482   6.673   7.653
 7014POPC   C1B27655  10.303   6.806   8.553
 7014POPC   C2B27656  10.363   6.829   8.253
 7014POPC   C3B27657  10.327   6.826   7.953
 7014POPC   C4B27658  10.358   6.789   7.653
 7015POPC   NC327659   3.551  37.636   9.453
 7015POPC   PO427660   3.557  37.710   9.153
 7015POPC   GL127661   3.531  37.633   8.853
 7015POPC   GL227662   3.470  37.573   8.853
 7015POPC   C1A27663   3.546  37.713   8.553
 7015POPC   D2A27664   3.547  37.703   8.253
 7015POPC   C3A27665   3.581  37.704   7.953
 7015POPC   C4A27666   3.584  37.676   7.653
 7015POPC   C1B27667   3.379  37.434   8.553
 7015POPC   C2B27668   3.345  37.475   8.253
 7015POPC   C3B27669   3.369  37.462   7.953
 7015POPC   C4B27670   3.403  37.527   7.653
 7016POPC   NC327671  19.878  22.908   9.453
 7016POPC   PO427672  19.788  22.925   9.153
 7016POPC   GL127673  19.832  22.986   8.853
 7016POPC   GL227674  19.780  23.057   8.853
 7016POPC   C1A27675  19.811  22.978   8.553
 7016POPC   D2A27676  19.829  22.917   8.253
 7016POPC   C3A27677  19.824  22.973   7.953
 7016POPC   C4A27678  19.809  22.936   7.653
 7016POPC   C1B27679  19.688  23.053   8.553
 7016POPC   C2B27680  19.665  23.118   8.253
 7016POPC   C3B27681  19.652  23.143   7.953
 7016POPC   C4B27682  19.624  23.064   7.653
 7017POPC   NC327683  44.698  31.458   9.453
 7017POPC   PO427684  44.694  31.498   9.153
 7017POPC   GL127685  44.637  31.439   8.853
 7017POPC   GL227686  44.581  31.356   8.853
 7017POPC   C1A27687  44.631  31.488   8.553
 7017POPC   D2A27688  44.613  31.473   8.253
 7017POPC   C3A27689  44.672  31.508   7.953
 7017POPC   C4A27690  44.640  31.457   7.653
 7017POPC   C1B27691  44.526  31.250   8.553
 7017POPC   C2B27692  44.557  31.307   8.253
 7017POPC   C3B27693  44.511  31.290   7.953
 7017POPC   C4B27694  44.465  31.226   7.653
 7018POPC   NC327695  29.102  42.317   9.453
 7018POPC   PO427696  29.135  42.313   9.153
 7018POPC   GL127697  29.117  42.288   8.853
 7018POPC   GL227698  29.134  42.193   8.853
 7018POPC   C1A27699  29.104  42.292   8.553
 7018POPC   D2A27700  29.157  42.329   8.253
 7018POPC   C3A27701  29.173  42.324   7.953
 7018POPC   C4A27702  29.187  42.352   7.653
 7018POPC   C1B27703  29.162  42.043   8.553
 7018POPC   C2B27704  29.115  42.055   8.253
 7018POPC   C3B27705  29.093  42.129   7.953
 7018POPC   C4B27706  29.160  42.038   7.653
 7019POPC   NC327707  15.187  24.462   9.453
 7019POPC   PO427708  15.192  24.530   9.153
 7019POPC   GL127709  15.185  24.460   8.853
 7019POPC   GL227710  15.160  24.598   8.853
 7019POPC   C1A27711  15.212  24.487   8.553
 7019POPC   D2A27712  15.141  24.504   8.253
 7019POPC   C3A27713  15.159  24.448   7.953
 7019POPC   C4A27714  15.206  24.466   7.653
 7019POPC   C1B27715  15.020  24.670   8.553
 7019POPC   C2B27716  15.024  24.751   8.253
 7019POPC   C3B27717  15.059  24.699   7.953
 7019POPC   C4B27718  15.082  24.721   7.653
 7020POPC   NC327719  14.411  18.330   9.453
 7020POPC   PO427720  14.367  18.268   9.153
 7020POPC   GL127721  14.388  18.298   8.853
 7020POPC   GL227722  14.393  18.438   8.853
 7020POPC   C1A27723  14.452  18.275   8.553
 7020POPC   D2A27724  14.395  18.323   8.253
 7020POPC   C3A27725  14.403  18.254   7.953
 7020POPC   C4A27726  14.373  18.328   7.653
 7020POPC   C1B27727  14.236  18.531   8.553
 7020POPC   C2B27728  14.318  18.486   8.253
 7020POPC   C3B27729  14.247  18.455   7.953
 7020POPC   C4B27730  14.265  18.468   7.653
 7021POPC   NC327731  11.275  20.575   9.453
 7021POPC   PO427732  11.301  20.658   9.153
 7021POPC   GL127733  11.335  20.638   8.853
 7021POPC   GL227734  11.404  20.692   8.853
 7021POPC   C1A27735  11.280  20.582   8.553
 7021POPC   D2A27736  11.341  20.641   8.253
 7021POPC   C3A27737  11.330  20.565   7.953
 7021POPC   C4A27738  11.329  20.619   7.653
 7021POPC   C1B27739  11.423  20.829   8.553
 7021POPC   C2B27740  11.462  20.803   8.253
 7021POPC   C3B27741  11.394  20.802   7.953
 7021POPC   C4B27742  11.421  20.800   7.653
 7022POPC   NC327743   4.292  38.463   9.453
 7022POPC   PO427744   4.299  38.447   9.153
 7022POPC   GL127745   4.351  38.504   8.853
 7022POPC   GL227746   4.292  38.309   8.853
 7022POPC   C1A27747   4.278  38.459   8.553
 7022POPC   D2A27748   4.348  38.491   8.253
 7022POPC   C3A27749   4.276  38.478   7.953
 7022POPC   C4A27750   4.307  38.420   7.653
 7022POPC   C1B27751   4.371  38.242   8.553
 7022POPC   C2B27752   4.379  38.177   8.253
 7022POPC   C3B27753   4.306  38.179   7.953
 7022POPC   C4B27754   4.341  38.230   7.653
 7023POPC   NC327755  38.461  29.182   9.453
 7023POPC   PO427756  38.503  29.098   9.153
 7023POPC   GL127757  38.409  29.126   8.853
 7023POPC   GL227758  38.556  29.132   8.853
 7023POPC   C1A27759  38.443  29.163   8.553
 7023POPC   D2A27760  38.505  29.153   8.253
 7023POPC   C3A27761  38.487  29.145   7.953
 7023POPC   C4A27762  38.504  29.164   7.653
 7023POPC   C1B27763  38.688  29.085   8.553
 7023POPC   C2B27764  38.722  29.039   8.253
 7023POPC   C3B27765  38.733  29.087   7.953
 7023POPC   C4B27766  38.745  29.104   7.653
 7024POPC   NC327767  40.793  33.037   9.453
 7024POPC   PO427768  40.769  33.062   9.153
 7024POPC   GL127769  40.773  33.025   8.853
 7024POPC   GL227770  40.633  32.974   8.853
 7024POPC   C1A27771  40.749  33.061   8.553
 7024POPC   D2A27772  40.792  33.047   8.253
 7024POPC   C3A27773  40.773  33.016   7.953
 7024POPC   C4A27774  40.826  32.981   7.653
 7024POPC   C1B27775  40.593  32.902   8.553
 7024POPC   C2B27776  40.573  32.864   8.253
 7024POPC   C3B27777  40.551  32.850   7.953
 7024POPC   C4B27778  40.603  32.873   7.653
 7025POPC   NC327779  13.636   4.367   9.453
 7025POPC   PO427780  13.653   4.357   9.153
 7025POPC   GL127781  13.615   4.333   8.853
 7025POPC   GL227782  13.586   4.441   8.853
 7025POPC   C1A27783  13.585   4.311   8.553
 7025POPC   D2A27784  13.650   4.347   8.253
 7025POPC   C3A27785  13.658   4.268   7.953
 7025POPC   C4A27786  13.672   4.315   7.653
 7025POPC   C1B27787  13.447   4.564   8.553
 7025POPC   C2B27788  13.492   4.555   8.253
 7025POPC   C3B27789  13.443   4.537   7.953
 7025POPC   C4B27790  13.445   4.554   7.653
 7026POPC   NC327791   2.028  12.090   9.453
 7026POPC   PO427792   1.999  12.112   9.153
 7026POPC   GL127793   1.975  12.027   8.853
 7026POPC   GL227794   1.977  11.988   8.853
 7026POPC   C1A27795   2.009  12.033   8.553
 7026POPC   D2A27796   1.969  12.106   8.253
 7026POPC   C3A27797   1.965  12.126   7.953
 7026POPC   C4A27798   1.942  12.092   7.653
 7026POPC   C1B27799   1.893  11.789   8.553
 7026POPC   C2B27800   1.914  11.791   8.253
 7026POPC   C3B27801   1.910  11.854   7.953
 7026POPC   C4B27802   1.901  11.810   7.653
 7027POPC   NC327803  44.650   1.260   9.453
 7027POPC   PO427804  44.657   1.211   9.153
 7027POPC   GL127805  44.709   1.250   8.853
 7027POPC   GL227806  44.544   1.248   8.853
 7027POPC   C1A27807  44.675   1.234   8.553
 7027POPC   D2A27808  44.686   1.202   8.253
 7027POPC   C3A27809  44.693   1.164   7.953
 7027POPC   C4A27810  44.675   1.196   7.653
 7027POPC   C1B27811  44.436   1.226   8.553
 7027POPC   C2B27812  44.368   1.292   8.253
 7027POPC   C3B27813  44.454   1.283   7.953
 7027POPC   C4B27814  44.422   1.196   7.653
 7028POPC   NC327815  43.105  42.301   9.453
 7028POPC   PO427816  43.074  42.303   9.153
 7028POPC   GL127817  43.115  42.320   8.853
 7028POPC   GL227818  43.175  42.463   8.853
 7028POPC   C1A27819  43.112  42.292   8.553
 7028POPC   D2A27820  43.090  42.299   8.253
 7028POPC   C3A27821  43.116  42.312   7.953
 7028POPC   C4A27822  43.088  42.355   7.653
 7028POPC   C1B27823  43.257  42.513   8.553
 7028POPC   C2B27824  43.295  42.477   8.253
 7028POPC   C3B27825  43.311  42.507   7.953
 7028POPC   C4B27826  43.251  42.516   7.653
 7029POPC   NC327827  15.173  17.556   9.453
 7029POPC   PO427828  15.136  17.537   9.153
 7029POPC   GL127829  15.162  17.496   8.853
 7029POPC   GL227830  15.090  17.611   8.853
 7029POPC   C1A27831  15.147  17.483   8.553
 7029POPC   D2A27832  15.167  17.498   8.253
 7029POPC   C3A27833  15.203  17.457   7.953
 7029POPC   C4A27834  15.138  17.474   7.653
 7029POPC   C1B27835  15.046  17.713   8.553
 7029POPC   C2B27836  15.051  17.666   8.253
 7029POPC   C3B27837  14.954  17.690   7.953
 7029POPC   C4B27838  15.048  17.680   7.653
 7030POPC   NC327839  36.898  31.504   9.453
 7030POPC   PO427840  36.916  31.507   9.153
 7030POPC   GL127841  36.877  31.506   8.853
 7030POPC   GL227842  36.833  31.545   8.853
 7030POPC   C1A27843  36.918  31.518   8.553
 7030POPC   D2A27844  36.936  31.450   8.253
 7030POPC   C3A27845  36.921  31.436   7.953
 7030POPC   C4A27846  36.923  31.433   7.653
 7030POPC   C1B27847  36.713  31.626   8.553
 7030POPC   C2B27848  36.788  31.628   8.253
 7030POPC   C3B27849  36.795  31.649   7.953
 7030POPC   C4B27850  36.783  31.622   7.653
 7031POPC   NC327851  26.860   6.686   9.453
 7031POPC   PO427852  26.812   6.620   9.153
 7031POPC   GL127853  26.860   6.638   8.853
 7031POPC   GL227854  26.826   6.735   8.853
 7031POPC   C1A27855  26.833   6.650   8.553
 7031POPC   D2A27856  26.850   6.601   8.253
 7031POPC   C3A27857  26.794   6.625   7.953
 7031POPC   C4A27858  26.784   6.635   7.653
 7031POPC   C1B27859  26.800   6.928   8.553
 7031POPC   C2B27860  26.807   6.890   8.253
 7031POPC   C3B27861  26.855   6.898   7.953
 7031POPC   C4B27862  26.807   6.899   7.653
 7032POPC   NC327863  13.649  21.400   9.453
 7032POPC   PO427864  13.652  21.359   9.153
 7032POPC   GL127865  13.585  21.365   8.853
 7032POPC   GL227866  13.548  21.470   8.853
 7032POPC   C1A27867  13.619  21.390   8.553
 7032POPC   D2A27868  13.612  21.352   8.253
 7032POPC   C3A27869  13.643  21.370   7.953
 7032POPC   C4A27870  13.623  21.422   7.653
 7032POPC   C1B27871  13.478  21.555   8.553
 7032POPC   C2B27872  13.441  21.577   8.253
 7032POPC   C3B27873  13.429  21.588   7.953
 7032POPC   C4B27874  13.485  21.528   7.653
 7033POPC   NC327875  11.288   2.002   9.453
 7033POPC   PO427876  11.295   1.969   9.153
 7033POPC   GL127877  11.285   2.037   8.853
 7033POPC   GL227878  11.369   2.117   8.853
 7033POPC   C1A27879  11.265   1.952   8.553
 7033POPC   D2A27880  11.308   2.030   8.253
 7033POPC   C3A27881  11.344   1.945   7.953
 7033POPC   C4A27882  11.318   2.027   7.653
 7033POPC   C1B27883  11.419   2.228   8.553
 7033POPC   C2B27884  11.382   2.258   8.253
 7033POPC   C3B27885  11.387   2.232   7.953
 7033POPC   C4B27886  11.437   2.207   7.653
 7034POPC   NC327887  42.297  29.187   9.453
 7034POPC   PO427888  42.364  29.101   9.153
 7034POPC   GL127889  42.378  29.109   8.853
 7034POPC   GL227890  42.308  29.288   8.853
 7034POPC   C1A27891  42.295  29.097   8.553
 7034POPC   D2A27892  42.346  29.120   8.253
 7034POPC   C3A27893  42.377  29.177   7.953
 7034POPC   C4A27894  42.302  29.156   7.653
 7034POPC   C1B27895  42.374  29.407   8.553
 7034POPC   C2B27896  42.330  29.420   8.253
 7034POPC   C3B27897  42.340  29.426   7.953
 7034POPC   C4B27898  42.345  29.385   7.653
 7035POPC   NC327899   8.237  36.169   9.453
 7035POPC   PO427900   8.235  36.176   9.153
 7035POPC   GL127901   8.168  36.146   8.853
 7035POPC   GL227902   8.343  36.091   8.853
 7035POPC   C1A27903   8.177  36.134   8.553
 7035POPC   D2A27904   8.213  36.169   8.253
 7035POPC   C3A27905   8.226  36.146   7.953
 7035POPC   C4A27906   8.151  36.173   7.653
 7035POPC   C1B27907   8.453  36.072   8.553
 7035POPC   C2B27908   8.462  36.076   8.253
 7035POPC   C3B27909   8.495  36.105   7.953
 7035POPC   C4B27910   8.483  36.159   7.653
 7036POPC   NC327911   8.221  29.932   9.453
 7036POPC   PO427912   8.212  29.918   9.153
 7036POPC   GL127913   8.191  29.952   8.853
 7036POPC   GL227914   8.289  30.019   8.853
 7036POPC   C1A27915   8.189  29.958   8.553
 7036POPC   D2A27916   8.230  29.892   8.253
 7036POPC   C3A27917   8.180  29.889   7.953
 7036POPC   C4A27918   8.226  29.913   7.653
 7036POPC   C1B27919   8.341  30.146   8.553
 7036POPC   C2B27920   8.406  30.084   8.253
 7036POPC   C3B27921   8.408  30.076   7.953
 7036POPC   C4B27922   8.346  30.088   7.653
 7037POPC   NC327923   5.831  40.017   9.453
 7037POPC   PO427924   5.911  40.052   9.153
 7037POPC   GL127925   5.915  39.961   8.853
 7037POPC   GL227926   6.000  39.995   8.853
 7037POPC   C1A27927   5.820  40.009   8.553
 7037POPC   D2A27928   5.910  39.957   8.253
 7037POPC   C3A27929   5.837  39.992   7.953
 7037POPC   C4A27930   5.878  40.033   7.653
 7037POPC   C1B27931   6.075  39.907   8.553
 7037POPC   C2B27932   6.111  39.937   8.253
 7037POPC   C3B27933   6.149  39.943   7.953
 7037POPC   C4B27934   6.139  39.903   7.653
 7038POPC   NC327935  25.300  18.319   9.453
 7038POPC   PO427936  25.284  18.332   9.153
 7038POPC   GL127937  25.315  18.261   8.853
 7038POPC   GL227938  25.360  18.182   8.853
 7038POPC   C1A27939  25.233  18.332   8.553
 7038POPC   D2A27940  25.306  18.328   8.253
 7038POPC   C3A27941  25.287  18.302   7.953
 7038POPC   C4A27942  25.312  18.254   7.653
 7038POPC   C1B27943  25.413  18.073   8.553
 7038POPC   C2B27944  25.483  18.123   8.253
 7038POPC   C3B27945  25.425  18.079   7.953
 7038POPC   C4B27946  25.424  18.074   7.653
 7039POPC   NC327947   8.161   7.389   9.453
 7039POPC   PO427948   8.245   7.418   9.153
 7039POPC   GL127949   8.159   7.432   8.853
 7039POPC   GL227950   8.272   7.294   8.853
 7039POPC   C1A27951   8.184   7.442   8.553
 7039POPC   D2A27952   8.177   7.423   8.253
 7039POPC   C3A27953   8.219   7.434   7.953
 7039POPC   C4A27954   8.173   7.387   7.653
 7039POPC   C1B27955   8.259   7.188   8.553
 7039POPC   C2B27956   8.339   7.163   8.253
 7039POPC   C3B27957   8.282   7.156   7.953
 7039POPC   C4B27958   8.329   7.146   7.653
 7040POPC   NC327959   4.305  31.466   9.453
 7040POPC   PO427960   4.311  31.522   9.153
 7040POPC   GL127961   4.292  31.471   8.853
 7040POPC   GL227962   4.202  31.489   8.853
 7040POPC   C1A27963   4.341  31.439   8.553
 7040POPC   D2A27964   4.347  31.466   8.253
 7040POPC   C3A27965   4.318  31.479   7.953
 7040POPC   C4A27966   4.308  31.442   7.653
 7040POPC   C1B27967   4.077  31.509   8.553
 7040POPC   C2B27968   4.032  31.574   8.253
 7040POPC   C3B27969   4.067  31.547   7.953
 7040POPC   C4B27970   4.109  31.539   7.653
 7041POPC   NC327971   8.165   9.755   9.453
 7041POPC   PO427972   8.208   9.798   9.153
 7041POPC   GL127973   8.152   9.753   8.853
 7041POPC   GL227974   8.140   9.844   8.853
 7041POPC   C1A27975   8.155   9.743   8.553
 7041POPC   D2A27976   8.240   9.729   8.253
 7041POPC   C3A27977   8.189   9.771   7.953
 7041POPC   C4A27978   8.226   9.754   7.653
 7041POPC   C1B27979   7.978   9.900   8.553
 7041POPC   C2B27980   7.965   9.930   8.253
 7041POPC   C3B27981   8.023   9.927   7.953
 7041POPC   C4B27982   7.983   9.923   7.653
 7042POPC   NC327983  38.454   5.125   9.453
 7042POPC   PO427984  38.415   5.069   9.153
 7042POPC   GL127985  38.490   5.056   8.853
 7042POPC   GL227986  38.571   5.029   8.853
 7042POPC   C1A27987  38.445   5.081   8.553
 7042POPC   D2A27988  38.478   5.096   8.253
 7042POPC   C3A27989  38.485   5.091   7.953
 7042POPC   C4A27990  38.431   5.046   7.653
 7042POPC   C1B27991  38.619   4.908   8.553
 7042POPC   C2B27992  38.678   4.941   8.253
 7042POPC   C3B27993  38.666   4.940   7.953
 7042POPC   C4B27994  38.595   4.918   7.653
 7043POPC   NC327995  19.103  19.073   9.453
 7043POPC   PO427996  19.044  19.026   9.153
 7043POPC   GL127997  19.050  19.093   8.853
 7043POPC   GL227998  19.199  19.058   8.853
 7043POPC   C1A27999  19.095  19.046   8.553
 7043POPC   D2A28000  19.078  19.085   8.253
 7043POPC   C3A28001  19.043  19.024   7.953
 7043POPC   C4A28002  19.076  19.041   7.653
 7043POPC   C1B28003  19.337  19.094   8.553
 7043POPC   C2B28004  19.346  19.051   8.253
 7043POPC   C3B28005  19.334  19.060   7.953
 7043POPC   C4B28006  19.344  19.133   7.653
 7044POPC   NC328007  44.660  40.798   9.453
 7044POPC   PO428008  44.698  40.818   9.153
 7044POPC   GL128009  44.614  40.783   8.853
 7044POPC   GL228010  44.549  40.897   8.853
 7044POPC   C1A28011  44.655  40.799   8.553
 7044POPC   D2A28012  44.698  40.735   8.253
 7044POPC   C3A28013  44.633  40.755   7.953
 7044POPC   C4A28014  44.636  40.781   7.653
 7044POPC   C1B28015  44.454  40.938   8.553
 7044POPC   C2B28016  44.478  40.960   8.253
 7044POPC   C3B28017  44.481  41.004   7.953
 7044POPC   C4B28018  44.515  40.993   7.653
 7045POPC   NC328019  18.257   5.094   9.453
 7045POPC   PO428020  18.275   5.087   9.153
 7045POPC   GL128021  18.269   5.135   8.853
 7045POPC   GL228022  18.223   5.250   8.853
 7045POPC   C1A28023  18.329   5.082   8.553
 7045POPC   D2A28024  18.285   5.143   8.253
 7045POPC   C3A28025  18.325   5.075   7.953
 7045POPC   C4A28026  18.325   5.091   7.653
 7045POPC   C1B28027  18.205   5.367   8.553
 7045POPC   C2B28028  18.128   5.363   8.253
 7045POPC   C3B28029  18.190   5.281   7.953
 7045POPC   C4B28030  18.137   5.305   7.653
 7046POPC   NC328031   5.047   0.435   9.453
 7046POPC   PO428032   5.098   0.464   9.153
 7046POPC   GL128033   5.061   0.456   8.853
 7046POPC   GL228034   5.220   0.391   8.853
 7046POPC   C1A28035   5.049   0.408   8.553
 7046POPC   D2A28036   5.137   0.426   8.253
 7046POPC   C3A28037   5.127   0.436   7.953
 7046POPC   C4A28038   5.061   0.429   7.653
 7046POPC   C1B28039   5.306   0.380   8.553
 7046POPC   C2B28040   5.338   0.420   8.253
 7046POPC   C3B28041   5.327   0.414   7.953
 7046POPC   C4B28042   5.345   0.351   7.653
 7047POPC   NC328043   3.541  19.845   9.453
 7047POPC   PO428044   3.520  19.823   9.153
 7047POPC   GL128045   3.506  19.855   8.853
 7047POPC   GL228046   3.666  19.818   8.853
 7047POPC   C1A28047   3.567  19.806   8.553
 7047POPC   D2A28048   3.501  19.869   8.253
 7047POPC   C3A28049   3.491  19.823   7.953
 7047POPC   C4A28050   3.501  19.826   7.653
 7047POPC   C1B28051   3.800  19.707   8.553
 7047POPC   C2B28052   3.783  19.745   8.253
 7047POPC   C3B28053   3.760  19.791   7.953
 7047POPC   C4B28054   3.770  19.720   7.653
 7048POPC   NC328055  26.039  36.908   9.453
 7048POPC   PO428056  26.010  36.866   9.153
 7048POPC   GL128057  26.078  36.934   8.853
 7048POPC   GL228058  26.144  37.033   8.853
 7048POPC   C1A28059  26.063  36.890   8.553
 7048POPC   D2A28060  26.018  36.885   8.253
 7048POPC   C3A28061  26.049  36.913   7.953
 7048POPC   C4A28062  26.032  36.880   7.653
 7048POPC   C1B28063  26.141  37.107   8.553
 7048POPC   C2B28064  26.162  37.149   8.253
 7048POPC   C3B28065  26.130  37.131   7.953
 7048POPC   C4B28066  26.168  37.132   7.653
 7049POPC   NC328067  15.152  30.654   9.453
 7049POPC   PO428068  15.133  30.657   9.153
 7049POPC   GL128069  15.165  30.661   8.853
 7049POPC   GL228070  15.072  30.735   8.853
 7049POPC   C1A28071  15.212  30.702   8.553
 7049POPC   D2A28072  15.174  30.730   8.253
 7049POPC   C3A28073  15.187  30.698   7.953
 7049POPC   C4A28074  15.145  30.727   7.653
 7049POPC   C1B28075  14.985  30.821   8.553
 7049POPC   C2B28076  14.948  30.854   8.253
 7049POPC   C3B28077  15.008  30.807   7.953
 7049POPC   C4B28078  15.019  30.877   7.653
 7050POPC   NC328079  43.118  37.694   9.453
 7050POPC   PO428080  43.111  37.727   9.153
 7050POPC   GL128081  43.083  37.641   8.853
 7050POPC   GL228082  43.052  37.745   8.853
 7050POPC   C1A28083  43.066  37.683   8.553
 7050POPC   D2A28084  43.108  37.631   8.253
 7050POPC   C3A28085  43.102  37.650   7.953
 7050POPC   C4A28086  43.145  37.635   7.653
 7050POPC   C1B28087  42.895  37.803   8.553
 7050POPC   C2B28088  42.916  37.793   8.253
 7050POPC   C3B28089  42.897  37.812   7.953
 7050POPC   C4B28090  42.886  37.845   7.653
 7051POPC   NC328091  40.793  37.696   9.453
 7051POPC   PO428092  40.773  37.637   9.153
 7051POPC   GL128093  40.778  37.663   8.853
 7051POPC   GL228094  40.735  37.824   8.853
 7051POPC   C1A28095  40.751  37.677   8.553
 7051POPC   D2A28096  40.757  37.641   8.253
 7051POPC   C3A28097  40.832  37.694   7.953
 7051POPC   C4A28098  40.799  37.692   7.653
 7051POPC   C1B28099  40.633  37.902   8.553
 7051POPC   C2B28100  40.645  37.921   8.253
 7051POPC   C3B28101  40.593  37.909   7.953
 7051POPC   C4B28102  40.604  37.840   7.653
 7052POPC   NC328103  19.097  12.111   9.453
 7052POPC   PO428104  19.016  12.029   9.153
 7052POPC   GL128105  19.107  12.066   8.853
 7052POPC   GL228106  18.947  12.167   8.853
 7052POPC   C1A28107  19.039  12.030   8.553
 7052POPC   D2A28108  19.041  12.035   8.253
 7052POPC   C3A28109  19.048  12.119   7.953
 7052POPC   C4A28110  19.043  12.066   7.653
 7052POPC   C1B28111  18.950  12.316   8.553
 7052POPC   C2B28112  18.918  12.272   8.253
 7052POPC   C3B28113  18.951  12.292   7.953
 7052POPC   C4B28114  18.956  12.323   7.653
 7053POPC   NC328115  30.720  27.641   9.453
 7053POPC   PO428116  30.658  27.598   9.153
 7053POPC   GL128117  30.657  27.624   8.853
 7053POPC   GL228118  30.726  27.712   8.853
 7053POPC   C1A28119  30.650  27.550   8.553
 7053POPC   D2A28120  30.682  27.619   8.253
 7053POPC   C3A28121  30.738  27.578   7.953
 7053POPC   C4A28122  30.727  27.585   7.653
 7053POPC   C1B28123  30.751  27.832   8.553
 7053POPC   C2B28124  30.814  27.826   8.253
 7053POPC   C3B28125  30.830  27.792   7.953
 7053POPC   C4B28126  30.827  27.849   7.653
 7054POPC   NC328127  19.793   8.174   9.453
 7054POPC   PO428128  19.834   8.156   9.153
 7054POPC   GL128129  19.794   8.174   8.853
 7054POPC   GL228130  19.970   8.206   8.853
 7054POPC   C1A28131  19.847   8.164   8.553
 7054POPC   D2A28132  19.795   8.163   8.253
 7054POPC   C3A28133  19.844   8.201   7.953
 7054POPC   C4A28134  19.833   8.230   7.653
 7054POPC   C1B28135  20.117   8.192   8.553
 7054POPC   C2B28136  20.082   8.169   8.253
 7054POPC   C3B28137  20.073   8.123   7.953
 7054POPC   C4B28138  20.052   8.128   7.653
 7055POPC   NC328139  19.066  43.894   9.453
 7055POPC   PO428140  19.034  43.899   9.153
 7055POPC   GL128141  19.101  43.868   8.853
 7055POPC   GL228142  18.941  43.880   8.853
 7055POPC   C1A28143  19.029  43.870   8.553
 7055POPC   D2A28144  19.084  43.919   8.253
 7055POPC   C3A28145  19.095  43.873   7.953
 7055POPC   C4A28146  19.021  43.854   7.653
 7055POPC   C1B28147  18.804  43.911   8.553
 7055POPC   C2B28148  18.820  43.872   8.253
 7055POPC   C3B28149  18.789  43.884   7.953
 7055POPC   C4B28150  18.857  43.865   7.653
 7056POPC   NC328151  43.880  24.453   9.453
 7056POPC   PO428152  43.888  24.513   9.153
 7056POPC   GL128153  43.872  24.454   8.853
 7056POPC   GL228154  43.937  24.386   8.853
 7056POPC   C1A28155  43.875  24.525   8.553
 7056POPC   D2A28156  43.836  24.518   8.253
 7056POPC   C3A28157  43.839  24.468   7.953
 7056POPC   C4A28158  43.867  24.462   7.653
 7056POPC   C1B28159  44.010  24.285   8.553
 7056POPC   C2B28160  44.010  24.235   8.253
 7056POPC   C3B28161  44.014  24.262   7.953
 7056POPC   C4B28162  43.943  24.218   7.653
 7057POPC   NC328163  12.881  12.119   9.453
 7057POPC   PO428164  12.829  12.083   9.153
 7057POPC   GL128165  12.828  12.052   8.853
 7057POPC   GL228166  12.996  12.065   8.853
 7057POPC   C1A28167  12.839  12.062   8.553
 7057POPC   D2A28168  12.866  12.123   8.253
 7057POPC   C3A28169  12.847  12.109   7.953
 7057POPC   C4A28170  12.841  12.115   7.653
 7057POPC   C1B28171  13.044  12.001   8.553
 7057POPC   C2B28172  13.109  12.013   8.253
 7057POPC   C3B28173  13.067  12.005   7.953
 7057POPC   C4B28174  13.141  11.982   7.653
 7058POPC   NC328175   8.929  41.579   9.453
 7058POPC   PO428176   8.980  41.591   9.153
 7058POPC   GL128177   8.967  41.596   8.853
 7058POPC   GL228178   9.063  41.576   8.853
 7058POPC   C1A28179   8.941  41.526   8.553
 7058POPC   D2A28180   9.019  41.594   8.253
 7058POPC   C3A28181   8.995  41.525   7.953
 7058POPC   C4A28182   8.973  41.605   7.653
 7058POPC   C1B28183   9.237  41.672   8.553
 7058POPC   C2B28184   9.209  41.648   8.253
 7058POPC   C3B28185   9.239  41.671   7.953
 7058POPC   C4B28186   9.210  41.725   7.653
 7059POPC   NC328187  38.429  29.959   9.453
 7059POPC   PO428188  38.501  29.970   9.153
 7059POPC   GL128189  38.438  29.963   8.853
 7059POPC   GL228190  38.386  29.763   8.853
 7059POPC   C1A28191  38.502  29.911   8.553
 7059POPC   D2A28192  38.460  29.938   8.253
 7059POPC   C3A28193  38.447  29.964   7.953
 7059POPC   C4A28194  38.444  29.947   7.653
 7059POPC   C1B28195  38.411  29.657   8.553
 7059POPC   C2B28196  38.360  29.658   8.253
 7059POPC   C3B28197  38.346  29.738   7.953
 7059POPC   C4B28198  38.333  29.711   7.653
 7060POPC   NC328199  43.914   3.589   9.453
 7060POPC   PO428200  43.912   3.546   9.153
 7060POPC   GL128201  43.840   3.578   8.853
 7060POPC   GL228202  43.957   3.599   8.853
 7060POPC   C1A28203  43.891   3.584   8.553
 7060POPC   D2A28204  43.931   3.553   8.253
 7060POPC   C3A28205  43.847   3.542   7.953
 7060POPC   C4A28206  43.856   3.568   7.653
 7060POPC   C1B28207  44.067   3.783   8.553
 7060POPC   C2B28208  44.019   3.785   8.253
 7060POPC   C3B28209  44.030   3.708   7.953
 7060POPC   C4B28210  44.014   3.715   7.653
 7061POPC   NC328211  26.014  43.880   9.453
 7061POPC   PO428212  26.043  43.917   9.153
 7061POPC   GL128213  26.010  43.896   8.853
 7061POPC   GL228214  26.005  43.719   8.853
 7061POPC   C1A28215  26.047  43.873   8.553
 7061POPC   D2A28216  26.020  43.933   8.253
 7061POPC   C3A28217  26.037  43.908   7.953
 7061POPC   C4A28218  26.071  43.893   7.653
 7061POPC   C1B28219  25.987  43.692   8.553
 7061POPC   C2B28220  25.936  43.646   8.253
 7061POPC   C3B28221  25.954  43.634   7.953
 7061POPC   C4B28222  25.945  43.658   7.653
 7062POPC   NC328223  37.717   4.344   9.453
 7062POPC   PO428224  37.636   4.280   9.153
 7062POPC   GL128225  37.661   4.281   8.853
 7062POPC   GL228226  37.719   4.458   8.853
 7062POPC   C1A28227  37.647   4.325   8.553
 7062POPC   D2A28228  37.717   4.294   8.253
 7062POPC   C3A28229  37.725   4.365   7.953
 7062POPC   C4A28230  37.674   4.287   7.653
 7062POPC   C1B28231  37.692   4.515   8.553
 7062POPC   C2B28232  37.717   4.571   8.253
 7062POPC   C3B28233  37.724   4.524   7.953
 7062POPC   C4B28234  37.743   4.548   7.653
 7063POPC   NC328235  18.260   0.482   9.453
 7063POPC   PO428236  18.246   0.393   9.153
 7063POPC   GL128237  18.275   0.426   8.853
 7063POPC   GL228238  18.400   0.362   8.853
 7063POPC   C1A28239  18.238   0.406   8.553
 7063POPC   D2A28240  18.313   0.474   8.253
 7063POPC   C3A28241  18.254   0.400   7.953
 7063POPC   C4A28242  18.290   0.463   7.653
 7063POPC   C1B28243  18.566   0.414   8.553
 7063POPC   C2B28244  18.541   0.340   8.253
 7063POPC   C3B28245  18.493   0.354   7.953
 7063POPC   C4B28246  18.560   0.336   7.653
 7064POPC   NC328247  41.602  14.449   9.453
 7064POPC   PO428248  41.558  14.440   9.153
 7064POPC   GL128249  41.551  14.371   8.853
 7064POPC   GL228250  41.527  14.471   8.853
 7064POPC   C1A28251  41.527  14.451   8.553
 7064POPC   D2A28252  41.554  14.413   8.253
 7064POPC   C3A28253  41.571  14.428   7.953
 7064POPC   C4A28254  41.575  14.420   7.653
 7064POPC   C1B28255  41.432  14.584   8.553
 7064POPC   C2B28256  41.430  14.619   8.253
 7064POPC   C3B28257  41.462  14.623   7.953
 7064POPC   C4B28258  41.433  14.614   7.653
 7065POPC   NC328259  43.845  20.643   9.453
 7065POPC   PO428260  43.887  20.646   9.153
 7065POPC   GL128261  43.903  20.635   8.853
 7065POPC   GL228262  43.769  20.548   8.853
 7065POPC   C1A28263  43.837  20.659   8.553
 7065POPC   D2A28264  43.860  20.656   8.253
 7065POPC   C3A28265  43.856  20.653   7.953
 7065POPC   C4A28266  43.925  20.627   7.653
 7065POPC   C1B28267  43.651  20.427   8.553
 7065POPC   C2B28268  43.747  20.440   8.253
 7065POPC   C3B28269  43.691  20.402   7.953
 7065POPC   C4B28270  43.656  20.464   7.653
 7066POPC   NC328271  44.706  15.963   9.453
 7066POPC   PO428272  44.672  15.961   9.153
 7066POPC   GL128273  44.649  15.974   8.853
 7066POPC   GL228274  44.773  15.906   8.853
 7066POPC   C1A28275  44.639  15.967   8.553
 7066POPC   D2A28276  44.692  15.980   8.253
 7066POPC   C3A28277  44.681  15.942   7.953
 7066POPC   C4A28278  44.703  15.921   7.653
 7066POPC   C1B28279  44.920  15.914   8.553
 7066POPC   C2B28280  44.860  15.881   8.253
 7066POPC   C3B28281  44.853  15.851   7.953
 7066POPC   C4B28282  44.874  15.839   7.653
 7067POPC   NC328283  33.787  22.957   9.453
 7067POPC   PO428284  33.815  22.944   9.153
 7067POPC   GL128285  33.850  22.909   8.853
 7067POPC   GL228286  33.887  22.858   8.853
 7067POPC   C1A28287  33.792  22.902   8.553
 7067POPC   D2A28288  33.794  22.923   8.253
 7067POPC   C3A28289  33.774  22.916   7.953
 7067POPC   C4A28290  33.819  22.951   7.653
 7067POPC   C1B28291  34.013  22.772   8.553
 7067POPC   C2B28292  33.936  22.738   8.253
 7067POPC   C3B28293  34.010  22.766   7.953
 7067POPC   C4B28294  33.974  22.794   7.653
 7068POPC   NC328295  33.063  34.530   9.453
 7068POPC   PO428296  32.996  34.546   9.153
 7068POPC   GL128297  33.023  34.593   8.853
 7068POPC   GL228298  33.009  34.403   8.853
 7068POPC   C1A28299  32.993  34.615   8.553
 7068POPC   D2A28300  33.035  34.619   8.253
 7068POPC   C3A28301  32.993  34.526   7.953
 7068POPC   C4A28302  33.005  34.614   7.653
 7068POPC   C1B28303  32.969  34.317   8.553
 7068POPC   C2B28304  32.976  34.303   8.253
 7068POPC   C3B28305  32.936  34.359   7.953
 7068POPC   C4B28306  32.958  34.325   7.653
 7069POPC   NC328307  43.845  38.469   9.453
 7069POPC   PO428308  43.845  38.500   9.153
 7069POPC   GL128309  43.875  38.447   8.853
 7069POPC   GL228310  43.745  38.363   8.853
 7069POPC   C1A28311  43.924  38.492   8.553
 7069POPC   D2A28312  43.919  38.474   8.253
 7069POPC   C3A28313  43.838  38.503   7.953
 7069POPC   C4A28314  43.918  38.488   7.653
 7069POPC   C1B28315  43.643  38.323   8.553
 7069POPC   C2B28316  43.695  38.348   8.253
 7069POPC   C3B28317  43.633  38.346   7.953
 7069POPC   C4B28318  43.640  38.360   7.653
 7070POPC   NC328319  43.880  36.869   9.453
 7070POPC   PO428320  43.914  36.859   9.153
 7070POPC   GL128321  43.848  36.879   8.853
 7070POPC   GL228322  43.719  36.960   8.853
 7070POPC   C1A28323  43.844  36.934   8.553
 7070POPC   D2A28324  43.915  36.925   8.253
 7070POPC   C3A28325  43.921  36.912   7.953
 7070POPC   C4A28326  43.844  36.873   7.653
 7070POPC   C1B28327  43.671  36.951   8.553
 7070POPC   C2B28328  43.623  36.929   8.253
 7070POPC   C3B28329  43.600  36.947   7.953
 7070POPC   C4B28330  43.612  36.979   7.653
 7071POPC   NC328331  25.262  23.750   9.453
 7071POPC   PO428332  25.304  23.709   9.153
 7071POPC   GL128333  25.315  23.729   8.853
 7071POPC   GL228334  25.167  23.709   8.853
 7071POPC   C1A28335  25.309  23.700   8.553
 7071POPC   D2A28336  25.265  23.696   8.253
 7071POPC   C3A28337  25.274  23.745   7.953
 7071POPC   C4A28338  25.298  23.664   7.653
 7071POPC   C1B28339  25.000  23.717   8.553
 7071POPC   C2B28340  25.047  23.771   8.253
 7071POPC   C3B28341  24.978  23.776   7.953
 7071POPC   C4B28342  25.027  23.734   7.653
 7072POPC   NC328343  43.157  22.179   9.453
 7072POPC   PO428344  43.116  22.144   9.153
 7072POPC   GL128345  43.104  22.198   8.853
 7072POPC   GL228346  43.022  22.260   8.853
 7072POPC   C1A28347  43.154  22.166   8.553
 7072POPC   D2A28348  43.130  22.129   8.253
 7072POPC   C3A28349  43.137  22.190   7.953
 7072POPC   C4A28350  43.104  22.116   7.653
 7072POPC   C1B28351  42.943  22.380   8.553
 7072POPC   C2B28352  42.992  22.319   8.253
 7072POPC   C3B28353  42.916  22.391   7.953
 7072POPC   C4B28354  42.932  22.348   7.653
 7073POPC   NC328355  16.700  10.558   9.453
 7073POPC   PO428356  16.706  10.499   9.153
 7073POPC   GL128357  16.768  10.499   8.853
 7073POPC   GL228358  16.808  10.638   8.853
 7073POPC   C1A28359  16.696  10.500   8.553
 7073POPC   D2A28360  16.779  10.567   8.253
 7073POPC   C3A28361  16.721  10.565   7.953
 7073POPC   C4A28362  16.704  10.535   7.653
 7073POPC   C1B28363  16.839  10.720   8.553
 7073POPC   C2B28364  16.846  10.779   8.253
 7073POPC   C3B28365  16.795  10.720   7.953
 7073POPC   C4B28366  16.761  10.780   7.653
 7074POPC   NC328367  37.636   1.210   9.453
 7074POPC   PO428368  37.681   1.247   9.153
 7074POPC   GL128369  37.676   1.224   8.853
 7074POPC   GL228370  37.825   1.288   8.853
 7074POPC   C1A28371  37.694   1.260   8.553
 7074POPC   D2A28372  37.639   1.233   8.253
 7074POPC   C3A28373  37.711   1.204   7.953
 7074POPC   C4A28374  37.638   1.207   7.653
 7074POPC   C1B28375  37.903   1.356   8.553
 7074POPC   C2B28376  37.862   1.267   8.253
 7074POPC   C3B28377  37.917   1.342   7.953
 7074POPC   C4B28378  37.901   1.277   7.653
 7075POPC   NC328379   7.448  26.798   9.453
 7075POPC   PO428380   7.464  26.819   9.153
 7075POPC   GL128381   7.431  26.787   8.853
 7075POPC   GL228382   7.509  26.729   8.853
 7075POPC   C1A28383   7.409  26.834   8.553
 7075POPC   D2A28384   7.464  26.771   8.253
 7075POPC   C3A28385   7.397  26.787   7.953
 7075POPC   C4A28386   7.403  26.776   7.653
 7075POPC   C1B28387   7.654  26.643   8.553
 7075POPC   C2B28388   7.557  26.606   8.253
 7075POPC   C3B28389   7.624  26.669   7.953
 7075POPC   C4B28390   7.597  26.624   7.653
 7076POPC   NC328391  36.947  19.097   9.453
 7076POPC   PO428392  36.858  19.026   9.153
 7076POPC   GL128393  36.943  19.027   8.853
 7076POPC   GL228394  36.931  19.183   8.853
 7076POPC   C1A28395  36.942  19.011   8.553
 7076POPC   D2A28396  36.888  19.049   8.253
 7076POPC   C3A28397  36.859  19.012   7.953
 7076POPC   C4A28398  36.908  19.062   7.653
 7076POPC   C1B28399  36.926  19.330   8.553
 7076POPC   C2B28400  36.990  19.315   8.253
 7076POPC   C3B28401  36.953  19.303   7.953
 7076POPC   C4B28402  36.939  19.301   7.653
 7077POPC   NC328403   5.861  19.848   9.453
 7077POPC   PO428404   5.884  19.833   9.153
 7077POPC   GL128405   5.848  19.863   8.853
 7077POPC   GL228406   5.762  19.950   8.853
 7077POPC   C1A28407   5.831  19.871   8.553
 7077POPC   D2A28408   5.874  19.822   8.253
 7077POPC   C3A28409   5.893  19.792   7.953
 7077POPC   C4A28410   5.880  19.864   7.653
 7077POPC   C1B28411   5.623  19.985   8.553
 7077POPC   C2B28412   5.614  19.956   8.253
 7077POPC   C3B28413   5.635  19.966   7.953
 7077POPC   C4B28414   5.609  19.947   7.653
 7078POPC   NC328415   5.078  34.560   9.453
 7078POPC   PO428416   5.055  34.623   9.153
 7078POPC   GL128417   5.134  34.588   8.853
 7078POPC   GL228418   5.100  34.663   8.853
 7078POPC   C1A28419   5.048  34.531   8.553
 7078POPC   D2A28420   5.084  34.534   8.253
 7078POPC   C3A28421   5.060  34.578   7.953
 7078POPC   C4A28422   5.132  34.588   7.653
 7078POPC   C1B28423   5.230  34.785   8.553
 7078POPC   C2B28424   5.235  34.790   8.253
 7078POPC   C3B28425   5.222  34.779   7.953
 7078POPC   C4B28426   5.172  34.848   7.653
 7079POPC   NC328427  33.831  43.070   9.453
 7079POPC   PO428428  33.759  43.155   9.153
 7079POPC   GL128429  33.817  43.065   8.853
 7079POPC   GL228430  33.940  43.206   8.853
 7079POPC   C1A28431  33.822  43.147   8.553
 7079POPC   D2A28432  33.845  43.132   8.253
 7079POPC   C3A28433  33.756  43.095   7.953
 7079POPC   C4A28434  33.837  43.152   7.653
 7079POPC   C1B28435  33.981  43.304   8.553
 7079POPC   C2B28436  34.022  43.264   8.253
 7079POPC   C3B28437  33.995  43.276   7.953
 7079POPC   C4B28438  33.969  43.287   7.653
 7080POPC   NC328439   0.446  24.478   9.453
 7080POPC   PO428440   0.433  24.533   9.153
 7080POPC   GL128441   0.472  24.447   8.853
 7080POPC   GL228442   0.476  24.646   8.853
 7080POPC   C1A28443   0.401  24.448   8.553
 7080POPC   D2A28444   0.464  24.519   8.253
 7080POPC   C3A28445   0.431  24.469   7.953
 7080POPC   C4A28446   0.438  24.453   7.653
 7080POPC   C1B28447   0.511  24.747   8.553
 7080POPC   C2B28448   0.509  24.725   8.253
 7080POPC   C3B28449   0.430  24.769   7.953
 7080POPC   C4B28450   0.449  24.756   7.653
 7081POPC   NC328451  33.807  33.818   9.453
 7081POPC   PO428452  33.775  33.823   9.153
 7081POPC   GL128453  33.763  33.842   8.853
 7081POPC   GL228454  33.815  33.923   8.853
 7081POPC   C1A28455  33.810  33.773   8.553
 7081POPC   D2A28456  33.806  33.782   8.253
 7081POPC   C3A28457  33.829  33.764   7.953
 7081POPC   C4A28458  33.754  33.829   7.653
 7081POPC   C1B28459  33.786  34.006   8.553
 7081POPC   C2B28460  33.800  34.012   8.253
 7081POPC   C3B28461  33.816  34.004   7.953
 7081POPC   C4B28462  33.828  33.999   7.653
 7082POPC   NC328463  33.026  12.817   9.453
 7082POPC   PO428464  33.005  12.893   9.153
 7082POPC   GL128465  33.058  12.858   8.853
 7082POPC   GL228466  32.955  12.762   8.853
 7082POPC   C1A28467  33.051  12.895   8.553
 7082POPC   D2A28468  32.995  12.822   8.253
 7082POPC   C3A28469  33.024  12.845   7.953
 7082POPC   C4A28470  33.006  12.869   7.653
 7082POPC   C1B28471  32.978  12.610   8.553
 7082POPC   C2B28472  32.974  12.585   8.253
 7082POPC   C3B28473  32.947  12.616   7.953
 7082POPC   C4B28474  32.970  12.641   7.653
 7083POPC   NC328475   8.202   0.424   9.453
 7083POPC   PO428476   8.231   0.474   9.153
 7083POPC   GL128477   8.174   0.469   8.853
 7083POPC   GL228478   8.122   0.469   8.853
 7083POPC   C1A28479   8.148   0.469   8.553
 7083POPC   D2A28480   8.222   0.484   8.253
 7083POPC   C3A28481   8.222   0.414   7.953
 7083POPC   C4A28482   8.155   0.433   7.653
 7083POPC   C1B28483   7.970   0.567   8.553
 7083POPC   C2B28484   7.958   0.546   8.253
 7083POPC   C3B28485   7.995   0.532   7.953
 7083POPC   C4B28486   7.979   0.554   7.653
 7084POPC   NC328487  12.095   0.409   9.453
 7084POPC   PO428488  12.026   0.442   9.153
 7084POPC   GL128489  12.060   0.401   8.853
 7084POPC   GL228490  11.987   0.378   8.853
 7084POPC   C1A28491  12.103   0.413   8.553
 7084POPC   D2A28492  12.087   0.412   8.253
 7084POPC   C3A28493  12.085   0.404   7.953
 7084POPC   C4A28494  12.032   0.446   7.653
 7084POPC   C1B28495  11.862   0.288   8.553
 7084POPC   C2B28496  11.903   0.251   8.253
 7084POPC   C3B28497  11.838   0.266   7.953
 7084POPC   C4B28498  11.892   0.319   7.653
 7085POPC   NC328499   1.234  19.819   9.453
 7085POPC   PO428500   1.174  19.810   9.153
 7085POPC   GL128501   1.248  19.827   8.853
 7085POPC   GL228502   1.199  19.725   8.853
 7085POPC   C1A28503   1.182  19.859   8.553
 7085POPC   D2A28504   1.203  19.878   8.253
 7085POPC   C3A28505   1.165  19.806   7.953
 7085POPC   C4A28506   1.248  19.843   7.653
 7085POPC   C1B28507   1.174  19.538   8.553
 7085POPC   C2B28508   1.249  19.579   8.253
 7085POPC   C3B28509   1.257  19.572   7.953
 7085POPC   C4B28510   1.219  19.572   7.653
 7086POPC   NC328511   1.191  36.893   9.453
 7086POPC   PO428512   1.237  36.934   9.153
 7086POPC   GL128513   1.187  36.910   8.853
 7086POPC   GL228514   1.325  36.948   8.853
 7086POPC   C1A28515   1.256  36.935   8.553
 7086POPC   D2A28516   1.240  36.888   8.253
 7086POPC   C3A28517   1.251  36.909   7.953
 7086POPC   C4A28518   1.263  36.864   7.653
 7086POPC   C1B28519   1.470  36.934   8.553
 7086POPC   C2B28520   1.476  36.918   8.253
 7086POPC   C3B28521   1.471  36.927   7.953
 7086POPC   C4B28522   1.490  36.952   7.653
 7087POPC   NC328523  27.549   1.994   9.453
 7087POPC   PO428524  27.558   2.017   9.153
 7087POPC   GL128525  27.641   1.979   8.853
 7087POPC   GL228526  27.460   2.043   8.853
 7087POPC   C1A28527  27.580   1.998   8.553
 7087POPC   D2A28528  27.612   1.996   8.253
 7087POPC   C3A28529  27.620   2.024   7.953
 7087POPC   C4A28530  27.551   1.977   7.653
 7087POPC   C1B28531  27.406   2.129   8.553
 7087POPC   C2B28532  27.410   2.097   8.253
 7087POPC   C3B28533  27.382   2.063   7.953
 7087POPC   C4B28534  27.392   2.063   7.653
 7088POPC   NC328535  11.316  25.283   9.453
 7088POPC   PO428536  11.331  25.247   9.153
 7088POPC   GL128537  11.310  25.245   8.853
 7088POPC   GL228538  11.372  25.320   8.853
 7088POPC   C1A28539  11.282  25.294   8.553
 7088POPC   D2A28540  11.278  25.261   8.253
 7088POPC   C3A28541  11.254  25.223   7.953
 7088POPC   C4A28542  11.295  25.219   7.653
 7088POPC   C1B28543  11.544  25.317   8.553
 7088POPC   C2B28544  11.588  25.298   8.253
 7088POPC   C3B28545  11.572  25.329   7.953
 7088POPC   C4B28546  11.584  25.378   7.653
 7089POPC   NC328547  19.033   5.852   9.453
 7089POPC   PO428548  19.097   5.884   9.153
 7089POPC   GL128549  19.025   5.893   8.853
 7089POPC   GL228550  18.974   5.980   8.853
 7089POPC   C1A28551  19.070   5.894   8.553
 7089POPC   D2A28552  19.091   5.907   8.253
 7089POPC   C3A28553  19.074   5.823   7.953
 7089POPC   C4A28554  19.106   5.858   7.653
 7089POPC   C1B28555  18.918   6.101   8.553
 7089POPC   C2B28556  18.889   6.087   8.253
 7089POPC   C3B28557  18.859   6.045   7.953
 7089POPC   C4B28558  18.884   6.013   7.653
 7090POPC   NC328559  41.541  15.225   9.453
 7090POPC   PO428560  41.555  15.199   9.153
 7090POPC   GL128561  41.586  15.146   8.853
 7090POPC   GL228562  41.547  15.098   8.853
 7090POPC   C1A28563  41.602  15.148   8.553
 7090POPC   D2A28564  41.557  15.132   8.253
 7090POPC   C3A28565  41.534  15.226   7.953
 7090POPC   C4A28566  41.550  15.196   7.653
 7090POPC   C1B28567  41.598  14.885   8.553
 7090POPC   C2B28568  41.633  14.904   8.253
 7090POPC   C3B28569  41.634  14.968   7.953
 7090POPC   C4B28570  41.557  14.902   7.653
 7091POPC   NC328571  29.195  11.263   9.453
 7091POPC   PO428572  29.109  11.310   9.153
 7091POPC   GL128573  29.153  11.292   8.853
 7091POPC   GL228574  29.253  11.240   8.853
 7091POPC   C1A28575  29.144  11.298   8.553
 7091POPC   D2A28576  29.155  11.259   8.253
 7091POPC   C3A28577  29.178  11.311   7.953
 7091POPC   C4A28578  29.172  11.350   7.653
 7091POPC   C1B28579  29.273  11.134   8.553
 7091POPC   C2B28580  29.324  11.121   8.253
 7091POPC   C3B28581  29.281  11.069   7.953
 7091POPC   C4B28582  29.307  11.052   7.653
 7092POPC   NC328583  40.753  22.930   9.453
 7092POPC   PO428584  40.742  22.947   9.153
 7092POPC   GL128585  40.740  22.890   8.853
 7092POPC   GL228586  40.928  23.052   8.853
 7092POPC   C1A28587  40.753  22.933   8.553
 7092POPC   D2A28588  40.807  22.969   8.253
 7092POPC   C3A28589  40.784  22.906   7.953
 7092POPC   C4A28590  40.746  22.897   7.653
 7092POPC   C1B28591  41.020  23.121   8.553
 7092POPC   C2B28592  41.011  23.138   8.253
 7092POPC   C3B28593  40.947  23.079   7.953
 7092POPC   C4B28594  41.005  23.112   7.653
 7093POPC   NC328595  40.010  29.941   9.453
 7093POPC   PO428596  39.989  29.911   9.153
 7093POPC   GL128597  39.982  29.877   8.853
 7093POPC   GL228598  40.110  29.824   8.853
 7093POPC   C1A28599  39.991  29.958   8.553
 7093POPC   D2A28600  40.022  29.904   8.253
 7093POPC   C3A28601  39.985  29.876   7.953
 7093POPC   C4A28602  40.020  29.963   7.653
 7093POPC   C1B28603  40.269  29.784   8.553
 7093POPC   C2B28604  40.203  29.835   8.253
 7093POPC   C3B28605  40.232  29.797   7.953
 7093POPC   C4B28606  40.242  29.799   7.653
 7094POPC   NC328607  32.277  32.281   9.453
 7094POPC   PO428608  32.246  32.286   9.153
 7094POPC   GL128609  32.292  32.274   8.853
 7094POPC   GL228610  32.323  32.378   8.853
 7094POPC   C1A28611  32.246  32.220   8.553
 7094POPC   D2A28612  32.294  32.203   8.253
 7094POPC   C3A28613  32.270  32.257   7.953
 7094POPC   C4A28614  32.198  32.290   7.653
 7094POPC   C1B28615  32.447  32.457   8.553
 7094POPC   C2B28616  32.449  32.439   8.253
 7094POPC   C3B28617  32.417  32.406   7.953
 7094POPC   C4B28618  32.418  32.381   7.653
 7095POPC   NC328619  27.592   1.210   9.453
 7095POPC   PO428620  27.592   1.207   9.153
 7095POPC   GL128621  27.546   1.259   8.853
 7095POPC   GL228622  27.534   1.172   8.853
 7095POPC   C1A28623  27.563   1.210   8.553
 7095POPC   D2A28624  27.620   1.234   8.253
 7095POPC   C3A28625  27.577   1.190   7.953
 7095POPC   C4A28626  27.587   1.220   7.653
 7095POPC   C1B28627  27.349   1.110   8.553
 7095POPC   C2B28628  27.427   1.053   8.253
 7095POPC   C3B28629  27.361   1.066   7.953
 7095POPC   C4B28630  27.375   1.070   7.653
 7096POPC   NC328631  29.114   7.390   9.453
 7096POPC   PO428632  29.155   7.397   9.153
 7096POPC   GL128633  29.142   7.469   8.853
 7096POPC   GL228634  29.270   7.508   8.853
 7096POPC   C1A28635  29.169   7.406   8.553
 7096POPC   D2A28636  29.175   7.467   8.253
 7096POPC   C3A28637  29.182   7.461   7.953
 7096POPC   C4A28638  29.149   7.397   7.653
 7096POPC   C1B28639  29.382   7.504   8.553
 7096POPC   C2B28640  29.415   7.555   8.253
 7096POPC   C3B28641  29.336   7.504   7.953
 7096POPC   C4B28642  29.351   7.549   7.653
 7097POPC   NC328643  41.548  27.621   9.453
 7097POPC   PO428644  41.607  27.551   9.153
 7097POPC   GL128645  41.576  27.567   8.853
 7097POPC   GL228646  41.482  27.477   8.853
 7097POPC   C1A28647  41.548  27.639   8.553
 7097POPC   D2A28648  41.551  27.559   8.253
 7097POPC   C3A28649  41.606  27.578   7.953
 7097POPC   C4A28650  41.532  27.615   7.653
 7097POPC   C1B28651  41.424  27.363   8.553
 7097POPC   C2B28652  41.444  27.355   8.253
 7097POPC   C3B28653  41.437  27.390   7.953
 7097POPC   C4B28654  41.434  27.373   7.653
 7098POPC   NC328655  32.271  33.766   9.453
 7098POPC   PO428656  32.256  33.777   9.153
 7098POPC   GL128657  32.243  33.766   8.853
 7098POPC   GL228658  32.230  33.634   8.853
 7098POPC   C1A28659  32.211  33.790   8.553
 7098POPC   D2A28660  32.281  33.752   8.253
 7098POPC   C3A28661  32.228  33.800   7.953
 7098POPC   C4A28662  32.223  33.755   7.653
 7098POPC   C1B28663  32.259  33.595   8.553
 7098POPC   C2B28664  32.317  33.602   8.253
 7098POPC   C3B28665  32.341  33.572   7.953
 7098POPC   C4B28666  32.328  33.555   7.653
 7099POPC   NC328667   4.319  43.838   9.453
 7099POPC   PO428668   4.285  43.858   9.153
 7099POPC   GL128669   4.324  43.925   8.853
 7099POPC   GL228670   4.349  43.996   8.853
 7099POPC   C1A28671   4.335  43.879   8.553
 7099POPC   D2A28672   4.321  43.873   8.253
 7099POPC   C3A28673   4.339  43.869   7.953
 7099POPC   C4A28674   4.336  43.912   7.653
 7099POPC   C1B28675   4.433  44.137   8.553
 7099POPC   C2B28676   4.452  44.129   8.253
 7099POPC   C3B28677   4.493  44.118   7.953
 7099POPC   C4B28678   4.509  44.126   7.653
 7100POPC   NC328679  16.685   2.719   9.453
 7100POPC   PO428680  16.705   2.749   9.153
 7100POPC   GL128681  16.687   2.812   8.853
 7100POPC   GL228682  16.768   2.880   8.853
 7100POPC   C1A28683  16.709   2.733   8.553
 7100POPC   D2A28684  16.748   2.745   8.253
 7100POPC   C3A28685  16.741   2.804   7.953
 7100POPC   C4A28686  16.703   2.732   7.653
 7100POPC   C1B28687  16.826   2.958   8.553
 7100POPC   C2B28688  16.801   3.022   8.253
 7100POPC   C3B28689  16.809   2.993   7.953
 7100POPC   C4B28690  16.815   3.008   7.653
 7101POPC   NC328691  31.488  25.249   9.453
 7101POPC   PO428692  31.489  25.304   9.153
 7101POPC   GL128693  31.462  25.281   8.853
 7101POPC   GL228694  31.378  25.267   8.853
 7101POPC   C1A28695  31.423  25.305   8.553
 7101POPC   D2A28696  31.448  25.262   8.253
 7101POPC   C3A28697  31.465  25.262   7.953
 7101POPC   C4A28698  31.502  25.239   7.653
 7101POPC   C1B28699  31.212  25.254   8.553
 7101POPC   C2B28700  31.217  25.277   8.253
 7101POPC   C3B28701  31.173  25.253   7.953
 7101POPC   C4B28702  31.176  25.288   7.653
 7102POPC   NC328703  13.665  18.328   9.453
 7102POPC   PO428704  13.581  18.322   9.153
 7102POPC   GL128705  13.582  18.255   8.853
 7102POPC   GL228706  13.773  18.190   8.853
 7102POPC   C1A28707  13.665  18.294   8.553
 7102POPC   D2A28708  13.625  18.291   8.253
 7102POPC   C3A28709  13.660  18.312   7.953
 7102POPC   C4A28710  13.586  18.245   7.653
 7102POPC   C1B28711  13.880  18.209   8.553
 7102POPC   C2B28712  13.820  18.189   8.253
 7102POPC   C3B28713  13.876  18.198   7.953
 7102POPC   C4B28714  13.889  18.175   7.653
 7103POPC   NC328715  43.910  40.816   9.453
 7103POPC   PO428716  43.905  40.759   9.153
 7103POPC   GL128717  43.857  40.799   8.853
 7103POPC   GL228718  43.714  40.836   8.853
 7103POPC   C1A28719  43.840  40.764   8.553
 7103POPC   D2A28720  43.873  40.766   8.253
 7103POPC   C3A28721  43.913  40.828   7.953
 7103POPC   C4A28722  43.908  40.750   7.653
 7103POPC   C1B28723  43.658  40.762   8.553
 7103POPC   C2B28724  43.662  40.776   8.253
 7103POPC   C3B28725  43.631  40.769   7.953
 7103POPC   C4B28726  43.590  40.820   7.653
 7104POPC   NC328727  19.056  10.513   9.453
 7104POPC   PO428728  19.105  10.516   9.153
 7104POPC   GL128729  19.012  10.558   8.853
 7104POPC   GL228730  19.146  10.494   8.853
 7104POPC   C1A28731  19.088  10.480   8.553
 7104POPC   D2A28732  19.053  10.518   8.253
 7104POPC   C3A28733  19.041  10.476   7.953
 7104POPC   C4A28734  19.045  10.514   7.653
 7104POPC   C1B28735  19.262  10.539   8.553
 7104POPC   C2B28736  19.353  10.476   8.253
 7104POPC   C3B28737  19.348  10.477   7.953
 7104POPC   C4B28738  19.273  10.472   7.653
 7105POPC   NC328739  32.203  26.022   9.453
 7105POPC   PO428740  32.281  26.045   9.153
 7105POPC   GL128741  32.295  25.996   8.853
 7105POPC   GL228742  32.272  25.922   8.853
 7105POPC   C1A28743  32.259  26.038   8.553
 7105POPC   D2A28744  32.267  26.000   8.253
 7105POPC   C3A28745  32.257  26.035   7.953
 7105POPC   C4A28746  32.234  26.038   7.653
 7105POPC   C1B28747  32.291  25.792   8.553
 7105POPC   C2B28748  32.284  25.813   8.253
 7105POPC   C3B28749  32.272  25.820   7.953
 7105POPC   C4B28750  32.309  25.840   7.653
 7106POPC   NC328751  40.761  40.793   9.453
 7106POPC   PO428752  40.765  40.801   9.153
 7106POPC   GL128753  40.811  40.790   8.853
 7106POPC   GL228754  40.716  40.932   8.853
 7106POPC   C1A28755  40.784  40.788   8.553
 7106POPC   D2A28756  40.777  40.733   8.253
 7106POPC   C3A28757  40.763  40.810   7.953
 7106POPC   C4A28758  40.830  40.741   7.653
 7106POPC   C1B28759  40.714  41.029   8.553
 7106POPC   C2B28760  40.725  41.065   8.253
 7106POPC   C3B28761  40.697  41.009   7.953
 7106POPC   C4B28762  40.680  40.990   7.653
 7107POPC   NC328763  37.721  26.811   9.453
 7107POPC   PO428764  37.720  26.798   9.153
 7107POPC   GL128765  37.698  26.866   8.853
 7107POPC   GL228766  37.720  26.904   8.853
 7107POPC   C1A28767  37.656  26.861   8.553
 7107POPC   D2A28768  37.637  26.798   8.253
 7107POPC   C3A28769  37.639  26.809   7.953
 7107POPC   C4A28770  37.678  26.858   7.653
 7107POPC   C1B28771  37.788  27.051   8.553
 7107POPC   C2B28772  37.758  27.067   8.253
 7107POPC   C3B28773  37.752  27.081   7.953
 7107POPC   C4B28774  37.788  27.023   7.653
 7108POPC   NC328775  18.243   6.695   9.453
 7108POPC   PO428776  18.245   6.596   9.153
 7108POPC   GL128777  18.260   6.672   8.853
 7108POPC   GL228778  18.350   6.749   8.853
 7108POPC   C1A28779  18.259   6.646   8.553
 7108POPC   D2A28780  18.285   6.609   8.253
 7108POPC   C3A28781  18.238   6.627   7.953
 7108POPC   C4A28782  18.276   6.642   7.653
 7108POPC   C1B28783  18.441   6.867   8.553
 7108POPC   C2B28784  18.465   6.830   8.253
 7108POPC   C3B28785  18.400   6.880   7.953
 7108POPC   C4B28786  18.461   6.870   7.653
 7109POPC   NC328787  39.989   0.440   9.453
 7109POPC   PO428788  39.994   0.420   9.153
 7109POPC   GL128789  40.005   0.405   8.853
 7109POPC   GL228790  40.126   0.378   8.853
 7109POPC   C1A28791  40.048   0.429   8.553
 7109POPC   D2A28792  39.975   0.472   8.253
 7109POPC   C3A28793  40.040   0.437   7.953
 7109POPC   C4A28794  39.993   0.395   7.653
 7109POPC   C1B28795  40.258   0.330   8.553
 7109POPC   C2B28796  40.212   0.385   8.253
 7109POPC   C3B28797  40.234   0.369   7.953
 7109POPC   C4B28798  40.263   0.399   7.653
 7110POPC   NC328799   1.963  21.363   9.453
 7110POPC   PO428800   1.950  21.434   9.153
 7110POPC   GL128801   1.979  21.366   8.853
 7110POPC   GL228802   2.038  21.254   8.853
 7110POPC   C1A28803   2.021  21.355   8.553
 7110POPC   D2A28804   2.016  21.338   8.253
 7110POPC   C3A28805   1.990  21.348   7.953
 7110POPC   C4A28806   1.986  21.372   7.653
 7110POPC   C1B28807   2.123  21.184   8.553
 7110POPC   C2B28808   2.118  21.215   8.253
 7110POPC   C3B28809   2.082  21.175   7.953
 7110POPC   C4B28810   2.164  21.129   7.653
 7111POPC   NC328811  13.610  44.655   9.453
 7111POPC   PO428812  13.598  44.678   9.153
 7111POPC   GL128813  13.667  44.675   8.853
 7111POPC   GL228814  13.683  44.826   8.853
 7111POPC   C1A28815  13.633  44.711   8.553
 7111POPC   D2A28816  13.600  44.630   8.253
 7111POPC   C3A28817  13.676  44.705   7.953
 7111POPC   C4A28818  13.612  44.711   7.653
 7111POPC   C1B28819  13.680  44.918   8.553
 7111POPC   C2B28820  13.735  44.933   8.253
 7111POPC   C3B28821  13.679  44.915   7.953
 7111POPC   C4B28822  13.708  44.894   7.653
 7112POPC   NC328823  26.781  39.277   9.453
 7112POPC   PO428824  26.849  39.278   9.153
 7112POPC   GL128825  26.833  39.258   8.853
 7112POPC   GL228826  26.884  39.304   8.853
 7112POPC   C1A28827  26.824  39.246   8.553
 7112POPC   D2A28828  26.810  39.200   8.253
 7112POPC   C3A28829  26.790  39.195   7.953
 7112POPC   C4A28830  26.779  39.231   7.653
 7112POPC   C1B28831  26.971  39.375   8.553
 7112POPC   C2B28832  27.026  39.372   8.253
 7112POPC   C3B28833  27.019  39.371   7.953
 7112POPC   C4B28834  27.039  39.410   7.653
 7113POPC   NC328835  30.658   5.104   9.453
 7113POPC   PO428836  30.649   5.127   9.153
 7113POPC   GL128837  30.696   5.109   8.853
 7113POPC   GL228838  30.827   5.083   8.853
 7113POPC   C1A28839  30.665   5.059   8.553
 7113POPC   D2A28840  30.666   5.130   8.253
 7113POPC   C3A28841  30.701   5.061   7.953
 7113POPC   C4A28842  30.659   5.056   7.653
 7113POPC   C1B28843  30.938   5.044   8.553
 7113POPC   C2B28844  30.962   5.118   8.253
 7113POPC   C3B28845  30.925   5.117   7.953
 7113POPC   C4B28846  30.942   5.105   7.653
 7114POPC   NC328847  32.975  26.022   9.453
 7114POPC   PO428848  33.034  26.049   9.153
 7114POPC   GL128849  32.987  26.045   8.853
 7114POPC   GL228850  32.909  25.978   8.853
 7114POPC   C1A28851  33.024  26.027   8.553
 7114POPC   D2A28852  33.051  26.022   8.253
 7114POPC   C3A28853  33.068  25.997   7.953
 7114POPC   C4A28854  33.058  26.004   7.653
 7114POPC   C1B28855  32.779  25.948   8.553
 7114POPC   C2B28856  32.804  25.952   8.253
 7114POPC   C3B28857  32.743  26.017   7.953
 7114POPC   C4B28858  32.754  25.992   7.653
 7115POPC   NC328859  30.647  14.441   9.453
 7115POPC   PO428860  30.699  14.396   9.153
 7115POPC   GL128861  30.739  14.388   8.853
 7115POPC   GL228862  30.577  14.297   8.853
 7115POPC   C1A28863  30.726  14.435   8.553
 7115POPC   D2A28864  30.707  14.447   8.253
 7115POPC   C3A28865  30.741  14.452   7.953
 7115POPC   C4A28866  30.731  14.412   7.653
 7115POPC   C1B28867  30.476  14.254   8.553
 7115POPC   C2B28868  30.530  14.206   8.253
 7115POPC   C3B28869  30.498  14.193   7.953
 7115POPC   C4B28870  30.517  14.246   7.653
 7116POPC   NC328871  32.999   6.674   9.453
 7116POPC   PO428872  33.072   6.667   9.153
 7116POPC   GL128873  32.985   6.643   8.853
 7116POPC   GL228874  33.172   6.564   8.853
 7116POPC   C1A28875  33.005   6.683   8.553
 7116POPC   D2A28876  33.064   6.650   8.253
 7116POPC   C3A28877  32.990   6.629   7.953
 7116POPC   C4A28878  33.027   6.630   7.653
 7116POPC   C1B28879  33.239   6.576   8.553
 7116POPC   C2B28880  33.299   6.591   8.253
 7116POPC   C3B28881  33.309   6.551   7.953
 7116POPC   C4B28882  33.232   6.542   7.653
 7117POPC   NC328883  30.737   3.502   9.453
 7117POPC   PO428884  30.717   3.492   9.153
 7117POPC   GL128885  30.744   3.553   8.853
 7117POPC   GL228886  30.595   3.457   8.853
 7117POPC   C1A28887  30.697   3.507   8.553
 7117POPC   D2A28888  30.698   3.505   8.253
 7117POPC   C3A28889  30.687   3.587   7.953
 7117POPC   C4A28890  30.720   3.579   7.653
 7117POPC   C1B28891  30.579   3.268   8.553
 7117POPC   C2B28892  30.594   3.288   8.253
 7117POPC   C3B28893  30.562   3.295   7.953
 7117POPC   C4B28894  30.584   3.274   7.653
 7118POPC   NC328895   7.470  43.137   9.453
 7118POPC   PO428896   7.456  43.146   9.153
 7118POPC   GL128897   7.451  43.121   8.853
 7118POPC   GL228898   7.472  43.058   8.853
 7118POPC   C1A28899   7.425  43.156   8.553
 7118POPC   D2A28900   7.468  43.067   8.253
 7118POPC   C3A28901   7.454  43.090   7.953
 7118POPC   C4A28902   7.399  43.100   7.653
 7118POPC   C1B28903   7.520  42.891   8.553
 7118POPC   C2B28904   7.550  42.892   8.253
 7118POPC   C3B28905   7.581  42.890   7.953
 7118POPC   C4B28906   7.527  42.917   7.653
 7119POPC   NC328907  29.183  15.186   9.453
 7119POPC   PO428908  29.103  15.177   9.153
 7119POPC   GL128909  29.097  15.184   8.853
 7119POPC   GL228910  29.111  15.023   8.853
 7119POPC   C1A28911  29.180  15.146   8.553
 7119POPC   D2A28912  29.112  15.138   8.253
 7119POPC   C3A28913  29.149  15.139   7.953
 7119POPC   C4A28914  29.160  15.168   7.653
 7119POPC   C1B28915  29.155  14.935   8.553
 7119POPC   C2B28916  29.158  14.975   8.253
 7119POPC   C3B28917  29.155  14.890   7.953
 7119POPC   C4B28918  29.155  14.943   7.653
 7120POPC   NC328919  37.669  12.873   9.453
 7120POPC   PO428920  37.699  12.836   9.153
 7120POPC   GL128921  37.716  12.832   8.853
 7120POPC   GL228922  37.735  12.746   8.853
 7120POPC   C1A28923  37.706  12.851   8.553
 7120POPC   D2A28924  37.659  12.842   8.253
 7120POPC   C3A28925  37.684  12.901   7.953
 7120POPC   C4A28926  37.676  12.804   7.653
 7120POPC   C1B28927  37.740  12.598   8.553
 7120POPC   C2B28928  37.752  12.580   8.253
 7120POPC   C3B28929  37.761  12.610   7.953
 7120POPC   C4B28930  37.729  12.628   7.653
 7121POPC   NC328931  19.059  22.928   9.453
 7121POPC   PO428932  19.100  22.910   9.153
 7121POPC   GL128933  19.016  22.955   8.853
 7121POPC   GL228934  19.058  22.842   8.853
 7121POPC   C1A28935  19.014  22.973   8.553
 7121POPC   D2A28936  19.038  22.937   8.253
 7121POPC   C3A28937  19.061  22.937   7.953
 7121POPC   C4A28938  19.084  22.959   7.653
 7121POPC   C1B28939  19.053  22.707   8.553
 7121POPC   C2B28940  19.015  22.690   8.253
 7121POPC   C3B28941  19.032  22.663   7.953
 7121POPC   C4B28942  19.083  22.641   7.653
 7122POPC   NC328943  40.773  22.196   9.453
 7122POPC   PO428944  40.789  22.154   9.153
 7122POPC   GL128945  40.804  22.179   8.853
 7122POPC   GL228946  40.844  22.025   8.853
 7122POPC   C1A28947  40.767  22.159   8.553
 7122POPC   D2A28948  40.800  22.128   8.253
 7122POPC   C3A28949  40.829  22.136   7.953
 7122POPC   C4A28950  40.774  22.116   7.653
 7122POPC   C1B28951  40.861  21.899   8.553
 7122POPC   C2B28952  40.817  21.951   8.253
 7122POPC   C3B28953  40.832  21.932   7.953
 7122POPC   C4B28954  40.836  21.923   7.653
 7123POPC   NC328955  24.487   8.161   9.453
 7123POPC   PO428956  24.455   8.222   9.153
 7123POPC   GL128957  24.495   8.180   8.853
 7123POPC   GL228958  24.581   8.294   8.853
 7123POPC   C1A28959  24.526   8.213   8.553
 7123POPC   D2A28960  24.524   8.191   8.253
 7123POPC   C3A28961  24.535   8.155   7.953
 7123POPC   C4A28962  24.496   8.242   7.653
 7123POPC   C1B28963  24.637   8.382   8.553
 7123POPC   C2B28964  24.623   8.399   8.253
 7123POPC   C3B28965  24.599   8.426   7.953
 7123POPC   C4B28966  24.598   8.442   7.653
 7124POPC   NC328967  34.575  26.070   9.453
 7124POPC   PO428968  34.559  26.004   9.153
 7124POPC   GL128969  34.587  26.060   8.853
 7124POPC   GL228970  34.584  25.947   8.853
 7124POPC   C1A28971  34.532  26.078   8.553
 7124POPC   D2A28972  34.569  25.994   8.253
 7124POPC   C3A28973  34.574  26.074   7.953
 7124POPC   C4A28974  34.624  26.068   7.653
 7124POPC   C1B28975  34.578  25.835   8.553
 7124POPC   C2B28976  34.626  25.788   8.253
 7124POPC   C3B28977  34.589  25.812   7.953
 7124POPC   C4B28978  34.621  25.747   7.653
 7125POPC   NC328979   0.484  39.263   9.453
 7125POPC   PO428980   0.486  39.185   9.153
 7125POPC   GL128981   0.430  39.202   8.853
 7125POPC   GL228982   0.539  39.290   8.853
 7125POPC   C1A28983   0.463  39.249   8.553
 7125POPC   D2A28984   0.401  39.276   8.253
 7125POPC   C3A28985   0.430  39.264   7.953
 7125POPC   C4A28986   0.466  39.187   7.653
 7125POPC   C1B28987   0.657  39.294   8.553
 7125POPC   C2B28988   0.642  39.326   8.253
 7125POPC   C3B28989   0.689  39.276   7.953
 7125POPC   C4B28990   0.719  39.346   7.653
 7126POPC   NC328991  15.137  27.569   9.453
 7126POPC   PO428992  15.198  27.608   9.153
 7126POPC   GL128993  15.136  27.591   8.853
 7126POPC   GL228994  15.198  27.702   8.853
 7126POPC   C1A28995  15.192  27.550   8.553
 7126POPC   D2A28996  15.215  27.579   8.253
 7126POPC   C3A28997  15.140  27.545   7.953
 7126POPC   C4A28998  15.150  27.633   7.653
 7126POPC   C1B28999  15.197  27.886   8.553
 7126POPC   C2B29000  15.204  27.840   8.253
 7126POPC   C3B29001  15.128  27.818   7.953
 7126POPC   C4B29002  15.222  27.834   7.653
 7127POPC   NC329003  13.677  39.251   9.453
 7127POPC   PO429004  13.609  39.239   9.153
 7127POPC   GL129005  13.621  39.244   8.853
 7127POPC   GL229006  13.527  39.301   8.853
 7127POPC   C1A29007  13.588  39.233   8.553
 7127POPC   D2A29008  13.648  39.217   8.253
 7127POPC   C3A29009  13.642  39.239   7.953
 7127POPC   C4A29010  13.619  39.208   7.653
 7127POPC   C1B29011  13.475  39.382   8.553
 7127POPC   C2B29012  13.456  39.382   8.253
 7127POPC   C3B29013  13.407  39.400   7.953
 7127POPC   C4B29014  13.441  39.365   7.653
 7128POPC   NC329015   3.509   9.743   9.453
 7128POPC   PO429016   3.512   9.779   9.153
 7128POPC   GL129017   3.549   9.753   8.853
 7128POPC   GL229018   3.492   9.640   8.853
 7128POPC   C1A29019   3.568   9.758   8.553
 7128POPC   D2A29020   3.537   9.724   8.253
 7128POPC   C3A29021   3.550   9.769   7.953
 7128POPC   C4A29022   3.530   9.702   7.653
 7128POPC   C1B29023   3.335   9.573   8.553
 7128POPC   C2B29024   3.388   9.563   8.253
 7128POPC   C3B29025   3.351   9.565   7.953
 7128POPC   C4B29026   3.400   9.555   7.653
 7129POPC   NC329027  26.799  18.267   9.453
 7129POPC   PO429028  26.806  18.323   9.153
 7129POPC   GL129029  26.772  18.301   8.853
 7129POPC   GL229030  26.849  18.364   8.853
 7129POPC   C1A29031  26.773  18.254   8.553
 7129POPC   D2A29032  26.805  18.244   8.253
 7129POPC   C3A29033  26.854  18.331   7.953
 7129POPC   C4A29034  26.852  18.288   7.653
 7129POPC   C1B29035  26.822  18.572   8.553
 7129POPC   C2B29036  26.811  18.517   8.253
 7129POPC   C3B29037  26.845  18.516   7.953
 7129POPC   C4B29038  26.834  18.502   7.653
 7130POPC   NC329039  42.318  15.153   9.453
 7130POPC   PO429040  42.334  15.189   9.153
 7130POPC   GL129041  42.374  15.197   8.853
 7130POPC   GL229042  42.243  15.261   8.853
 7130POPC   C1A29043  42.357  15.152   8.553
 7130POPC   D2A29044  42.307  15.164   8.253
 7130POPC   C3A29045  42.325  15.157   7.953
 7130POPC   C4A29046  42.325  15.164   7.653
 7130POPC   C1B29047  42.254  15.372   8.553
 7130POPC   C2B29048  42.228  15.367   8.253
 7130POPC   C3B29049  42.228  15.445   7.953
 7130POPC   C4B29050  42.225  15.441   7.653
 7131POPC   NC329051  18.291  36.952   9.453
 7131POPC   PO429052  18.236  36.905   9.153
 7131POPC   GL129053  18.263  36.903   8.853
 7131POPC   GL229054  18.258  37.065   8.853
 7131POPC   C1A29055  18.284  36.946   8.553
 7131POPC   D2A29056  18.262  36.917   8.253
 7131POPC   C3A29057  18.262  36.935   7.953
 7131POPC   C4A29058  18.268  36.945   7.653
 7131POPC   C1B29059  18.194  37.120   8.553
 7131POPC   C2B29060  18.233  37.137   8.253
 7131POPC   C3B29061  18.224  37.168   7.953
 7131POPC   C4B29062  18.235  37.168   7.653
 7132POPC   NC329063  39.975  44.655   9.453
 7132POPC   PO429064  40.020  44.690   9.153
 7132POPC   GL129065  40.042  44.656   8.853
 7132POPC   GL229066  40.113  44.578   8.853
 7132POPC   C1A29067  40.010  44.690   8.553
 7132POPC   D2A29068  40.032  44.651   8.253
 7132POPC   C3A29069  40.054  44.625   7.953
 7132POPC   C4A29070  40.035  44.637   7.653
 7132POPC   C1B29071  40.109  44.485   8.553
 7132POPC   C2B29072  40.137  44.499   8.253
 7132POPC   C3B29073  40.186  44.447   7.953
 7132POPC   C4B29074  40.111  44.430   7.653
 7133POPC   NC329075   0.443  12.851   9.453
 7133POPC   PO429076   0.395  12.898   9.153
 7133POPC   GL129077   0.406  12.898   8.853
 7133POPC   GL229078   0.536  12.902   8.853
 7133POPC   C1A29079   0.403  12.846   8.553
 7133POPC   D2A29080   0.443  12.853   8.253
 7133POPC   C3A29081   0.403  12.838   7.953
 7133POPC   C4A29082   0.464  12.812   7.653
 7133POPC   C1B29083   0.646  13.056   8.553
 7133POPC   C2B29084   0.593  13.037   8.253
 7133POPC   C3B29085   0.565  12.996   7.953
 7133POPC   C4B29086   0.653  13.066   7.653
 7134POPC   NC329087  12.830  26.843   9.453
 7134POPC   PO429088  12.841  26.857   9.153
 7134POPC   GL129089  12.812  26.796   8.853
 7134POPC   GL229090  12.791  26.723   8.853
 7134POPC   C1A29091  12.846  26.784   8.553
 7134POPC   D2A29092  12.809  26.829   8.253
 7134POPC   C3A29093  12.870  26.785   7.953
 7134POPC   C4A29094  12.820  26.843   7.653
 7134POPC   C1B29095  12.741  26.622   8.553
 7134POPC   C2B29096  12.809  26.624   8.253
 7134POPC   C3B29097  12.749  26.555   7.953
 7134POPC   C4B29098  12.774  26.607   7.653
 7135POPC   NC329099  20.569  29.915   9.453
 7135POPC   PO429100  20.604  29.899   9.153
 7135POPC   GL129101  20.616  29.874   8.853
 7135POPC   GL229102  20.670  29.815   8.853
 7135POPC   C1A29103  20.650  29.956   8.553
 7135POPC   D2A29104  20.572  29.914   8.253
 7135POPC   C3A29105  20.581  29.882   7.953
 7135POPC   C4A29106  20.565  29.951   7.653
 7135POPC   C1B29107  20.793  29.808   8.553
 7135POPC   C2B29108  20.792  29.792   8.253
 7135POPC   C3B29109  20.789  29.816   7.953
 7135POPC   C4B29110  20.857  29.745   7.653
 7136POPC   NC329111  42.338  12.804   9.453
 7136POPC   PO429112  42.313  12.853   9.153
 7136POPC   GL129113  42.292  12.870   8.853
 7136POPC   GL229114  42.195  12.771   8.853
 7136POPC   C1A29115  42.317  12.866   8.553
 7136POPC   D2A29116  42.351  12.872   8.253
 7136POPC   C3A29117  42.380  12.837   7.953
 7136POPC   C4A29118  42.335  12.841   7.653
 7136POPC   C1B29119  42.118  12.671   8.553
 7136POPC   C2B29120  42.131  12.668   8.253
 7136POPC   C3B29121  42.094  12.733   7.953
 7136POPC   C4B29122  42.110  12.736   7.653
 7137POPC   NC329123  34.560  32.986   9.453
 7137POPC   PO429124  34.596  33.002   9.153
 7137POPC   GL129125  34.533  33.053   8.853
 7137POPC   GL229126  34.507  32.941   8.853
 7137POPC   C1A29127  34.551  33.070   8.553
 7137POPC   D2A29128  34.568  33.047   8.253
 7137POPC   C3A29129  34.606  32.989   7.953
 7137POPC   C4A29130  34.581  33.048   7.653
 7137POPC   C1B29131  34.557  32.790   8.553
 7137POPC   C2B29132  34.563  32.786   8.253
 7137POPC   C3B29133  34.558  32.768   7.953
 7137POPC   C4B29134  34.480  32.766   7.653
 7138POPC   NC329135  29.876  13.669   9.453
 7138POPC   PO429136  29.885  13.578   9.153
 7138POPC   GL129137  29.970  13.593   8.853
 7138POPC   GL229138  29.984  13.668   8.853
 7138POPC   C1A29139  29.887  13.620   8.553
 7138POPC   D2A29140  29.916  13.623   8.253
 7138POPC   C3A29141  29.884  13.614   7.953
 7138POPC   C4A29142  29.931  13.609   7.653
 7138POPC   C1B29143  30.094  13.741   8.553
 7138POPC   C2B29144  30.088  13.802   8.253
 7138POPC   C3B29145  30.125  13.822   7.953
 7138POPC   C4B29146  30.090  13.752   7.653
 7139POPC   NC329147  39.249   5.121   9.453
 7139POPC   PO429148  39.196   5.112   9.153
 7139POPC   GL129149  39.242   5.095   8.853
 7139POPC   GL229150  39.223   5.008   8.853
 7139POPC   C1A29151  39.251   5.121   8.553
 7139POPC   D2A29152  39.194   5.097   8.253
 7139POPC   C3A29153  39.259   5.051   7.953
 7139POPC   C4A29154  39.186   5.138   7.653
 7139POPC   C1B29155  39.124   4.805   8.553
 7139POPC   C2B29156  39.161   4.858   8.253
 7139POPC   C3B29157  39.121   4.849   7.953
 7139POPC   C4B29158  39.129   4.859   7.653
 7140POPC   NC329159  26.006  19.832   9.453
 7140POPC   PO429160  26.068  19.861   9.153
 7140POPC   GL129161  26.035  19.799   8.853
 7140POPC   GL229162  25.977  19.891   8.853
 7140POPC   C1A29163  26.075  19.860   8.553
 7140POPC   D2A29164  26.055  19.835   8.253
 7140POPC   C3A29165  26.060  19.810   7.953
 7140POPC   C4A29166  26.074  19.825   7.653
 7140POPC   C1B29167  25.831  19.999   8.553
 7140POPC   C2B29168  25.867  20.019   8.253
 7140POPC   C3B29169  25.914  20.030   7.953
 7140POPC   C4B29170  25.856  20.030   7.653
 7141POPC   NC329171  42.350  26.027   9.453
 7141POPC   PO429172  42.305  26.016   9.153
 7141POPC   GL129173  42.368  26.055   8.853
 7141POPC   GL229174  42.339  26.142   8.853
 7141POPC   C1A29175  42.299  26.086   8.553
 7141POPC   D2A29176  42.313  26.007   8.253
 7141POPC   C3A29177  42.353  26.049   7.953
 7141POPC   C4A29178  42.346  26.083   7.653
 7141POPC   C1B29179  42.368  26.250   8.553
 7141POPC   C2B29180  42.335  26.258   8.253
 7141POPC   C3B29181  42.349  26.335   7.953
 7141POPC   C4B29182  42.311  26.305   7.653
 7142POPC   NC329183  34.615  10.572   9.453
 7142POPC   PO429184  34.558  10.565   9.153
 7142POPC   GL129185  34.551  10.501   8.853
 7142POPC   GL229186  34.584  10.374   8.853
 7142POPC   C1A29187  34.618  10.565   8.553
 7142POPC   D2A29188  34.590  10.566   8.253
 7142POPC   C3A29189  34.549  10.490   7.953
 7142POPC   C4A29190  34.553  10.569   7.653
 7142POPC   C1B29191  34.526  10.272   8.553
 7142POPC   C2B29192  34.563  10.251   8.253
 7142POPC   C3B29193  34.556  10.302   7.953
 7142POPC   C4B29194  34.569  10.284   7.653
 7143POPC   NC329195  13.648   0.431   9.453
 7143POPC   PO429196  13.644   0.416   9.153
 7143POPC   GL129197  13.659   0.410   8.853
 7143POPC   GL229198  13.513   0.566   8.853
 7143POPC   C1A29199  13.635   0.408   8.553
 7143POPC   D2A29200  13.623   0.440   8.253
 7143POPC   C3A29201  13.600   0.399   7.953
 7143POPC   C4A29202  13.583   0.463   7.653
 7143POPC   C1B29203  13.411   0.604   8.553
 7143POPC   C2B29204  13.470   0.591   8.253
 7143POPC   C3B29205  13.462   0.582   7.953
 7143POPC   C4B29206  13.457   0.598   7.653
 7144POPC   NC329207  25.245   0.409   9.453
 7144POPC   PO429208  25.227   0.434   9.153
 7144POPC   GL129209  25.222   0.425   8.853
 7144POPC   GL229210  25.234   0.283   8.853
 7144POPC   C1A29211  25.278   0.412   8.553
 7144POPC   D2A29212  25.254   0.449   8.253
 7144POPC   C3A29213  25.232   0.484   7.953
 7144POPC   C4A29214  25.286   0.465   7.653
 7144POPC   C1B29215  25.084   0.237   8.553
 7144POPC   C2B29216  25.111   0.200   8.253
 7144POPC   C3B29217  25.113   0.273   7.953
 7144POPC   C4B29218  25.117   0.183   7.653
 7145POPC   NC329219  26.771  24.450   9.453
 7145POPC   PO429220  26.801  24.517   9.153
 7145POPC   GL129221  26.835  24.537   8.853
 7145POPC   GL229222  26.837  24.404   8.853
 7145POPC   C1A29223  26.775  24.535   8.553
 7145POPC   D2A29224  26.844  24.483   8.253
 7145POPC   C3A29225  26.793  24.523   7.953
 7145POPC   C4A29226  26.842  24.489   7.653
 7145POPC   C1B29227  26.767  24.206   8.553
 7145POPC   C2B29228  26.834  24.281   8.253
 7145POPC   C3B29229  26.772  24.286   7.953
 7145POPC   C4B29230  26.810  24.258   7.653
 7146POPC   NC329231  44.707  10.565   9.453
 7146POPC   PO429232  44.686  10.527   9.153
 7146POPC   GL129233  44.702  10.539   8.853
 7146POPC   GL229234  44.721  10.647   8.853
 7146POPC   C1A29235  44.640  10.488   8.553
 7146POPC   D2A29236  44.627  10.500   8.253
 7146POPC   C3A29237  44.694  10.555   7.953
 7146POPC   C4A29238  44.635  10.528   7.653
 7146POPC   C1B29239  44.704  10.792   8.553
 7146POPC   C2B29240  44.744  10.783   8.253
 7146POPC   C3B29241  44.748  10.744   7.953
 7146POPC   C4B29242  44.717  10.758   7.653
 7147POPC   NC329243  43.841  21.393   9.453
 7147POPC   PO429244  43.883  21.362   9.153
 7147POPC   GL129245  43.913  21.409   8.853
 7147POPC   GL229246  43.790  21.454   8.853
 7147POPC   C1A29247  43.919  21.359   8.553
 7147POPC   D2A29248  43.920  21.403   8.253
 7147POPC   C3A29249  43.884  21.408   7.953
 7147POPC   C4A29250  43.879  21.412   7.653
 7147POPC   C1B29251  43.730  21.567   8.553
 7147POPC   C2B29252  43.813  21.568   8.253
 7147POPC   C3B29253  43.788  21.579   7.953
 7147POPC   C4B29254  43.799  21.616   7.653
 7148POPC   NC329255  35.395  34.537   9.453
 7148POPC   PO429256  35.310  34.583   9.153
 7148POPC   GL129257  35.356  34.556   8.853
 7148POPC   GL229258  35.328  34.509   8.853
 7148POPC   C1A29259  35.352  34.590   8.553
 7148POPC   D2A29260  35.366  34.608   8.253
 7148POPC   C3A29261  35.361  34.572   7.953
 7148POPC   C4A29262  35.401  34.583   7.653
 7148POPC   C1B29263  35.272  34.385   8.553
 7148POPC   C2B29264  35.211  34.327   8.253
 7148POPC   C3B29265  35.243  34.354   7.953
 7148POPC   C4B29266  35.274  34.312   7.653
 7149POPC   NC329267   8.985   7.379   9.453
 7149POPC   PO429268   8.986   7.448   9.153
 7149POPC   GL129269   9.015   7.385   8.853
 7149POPC   GL229270   9.066   7.318   8.853
 7149POPC   C1A29271   8.960   7.464   8.553
 7149POPC   D2A29272   8.964   7.405   8.253
 7149POPC   C3A29273   9.009   7.408   7.953
 7149POPC   C4A29274   8.923   7.448   7.653
 7149POPC   C1B29275   9.091   7.176   8.553
 7149POPC   C2B29276   9.145   7.177   8.253
 7149POPC   C3B29277   9.111   7.217   7.953
 7149POPC   C4B29278   9.122   7.197   7.653
 7150POPC   NC329279  36.107  10.534   9.453
 7150POPC   PO429280  36.162  10.508   9.153
 7150POPC   GL129281  36.146  10.503   8.853
 7150POPC   GL229282  36.222  10.433   8.853
 7150POPC   C1A29283  36.170  10.569   8.553
 7150POPC   D2A29284  36.167  10.542   8.253
 7150POPC   C3A29285  36.142  10.572   7.953
 7150POPC   C4A29286  36.133  10.564   7.653
 7150POPC   C1B29287  36.308  10.372   8.553
 7150POPC   C2B29288  36.336  10.310   8.253
 7150POPC   C3B29289  36.273  10.292   7.953
 7150POPC   C4B29290  36.320  10.322   7.653
 7151POPC   NC329291  26.833  22.951   9.453
 7151POPC   PO429292  26.804  22.944   9.153
 7151POPC   GL129293  26.823  22.891   8.853
 7151POPC   GL229294  26.691  22.993   8.853
 7151POPC   C1A29295  26.811  22.986   8.553
 7151POPC   D2A29296  26.859  22.927   8.253
 7151POPC   C3A29297  26.860  22.964   7.953
 7151POPC   C4A29298  26.851  22.902   7.653
 7151POPC   C1B29299  26.564  23.066   8.553
 7151POPC   C2B29300  26.601  23.017   8.253
 7151POPC   C3B29301  26.621  23.073   7.953
 7151POPC   C4B29302  26.538  23.022   7.653
 7152POPC   NC329303  29.908  15.949   9.453
 7152POPC   PO429304  29.871  15.996   9.153
 7152POPC   GL129305  29.964  15.981   8.853
 7152POPC   GL229306  30.025  15.877   8.853
 7152POPC   C1A29307  29.871  15.945   8.553
 7152POPC   D2A29308  29.956  15.935   8.253
 7152POPC   C3A29309  29.878  15.928   7.953
 7152POPC   C4A29310  29.889  15.909   7.653
 7152POPC   C1B29311  30.026  15.789   8.553
 7152POPC   C2B29312  30.033  15.787   8.253
 7152POPC   C3B29313  30.034  15.737   7.953
 7152POPC   C4B29314  30.084  15.722   7.653
 7153POPC   NC329315  28.329   0.395   9.453
 7153POPC   PO429316  28.326   0.447   9.153
 7153POPC   GL129317  28.395   0.469   8.853
 7153POPC   GL229318  28.351   0.297   8.853
 7153POPC   C1A29319  28.347   0.392   8.553
 7153POPC   D2A29320  28.342   0.455   8.253
 7153POPC   C3A29321  28.343   0.444   7.953
 7153POPC   C4A29322  28.415   0.428   7.653
 7153POPC   C1B29323  28.420   0.193   8.553
 7153POPC   C2B29324  28.394   0.178   8.253
 7153POPC   C3B29325  28.443   0.188   7.953
 7153POPC   C4B29326  28.378   0.147   7.653
 7154POPC   NC329327  36.094  13.596   9.453
 7154POPC   PO429328  36.096  13.623   9.153
 7154POPC   GL129329  36.091  13.671   8.853
 7154POPC   GL229330  36.020  13.698   8.853
 7154POPC   C1A29331  36.133  13.615   8.553
 7154POPC   D2A29332  36.124  13.616   8.253
 7154POPC   C3A29333  36.168  13.614   7.953
 7154POPC   C4A29334  36.113  13.597   7.653
 7154POPC   C1B29335  36.006  13.874   8.553
 7154POPC   C2B29336  36.026  13.798   8.253
 7154POPC   C3B29337  35.944  13.868   7.953
 7154POPC   C4B29338  35.977  13.819   7.653
 7155POPC   NC329339  19.094   7.372   9.453
 7155POPC   PO429340  19.077   7.436   9.153
 7155POPC   GL129341  19.056   7.454   8.853
 7155POPC   GL229342  19.091   7.340   8.853
 7155POPC   C1A29343  19.013   7.373   8.553
 7155POPC   D2A29344  19.080   7.440   8.253
 7155POPC   C3A29345  19.025   7.467   7.953
 7155POPC   C4A29346  19.103   7.454   7.653
 7155POPC   C1B29347  19.107   7.151   8.553
 7155POPC   C2B29348  19.117   7.215   8.253
 7155POPC   C3B29349  19.043   7.201   7.953
 7155POPC   C4B29350  19.056   7.149   7.653
 7156POPC   NC329351  12.108  11.254   9.453
 7156POPC   PO429352  12.061  11.292   9.153
 7156POPC   GL129353  12.068  11.283   8.853
 7156POPC   GL229354  12.178  11.234   8.853
 7156POPC   C1A29355  12.081  11.260   8.553
 7156POPC   D2A29356  12.079  11.258   8.253
 7156POPC   C3A29357  12.070  11.282   7.953
 7156POPC   C4A29358  12.112  11.263   7.653
 7156POPC   C1B29359  12.142  11.085   8.553
 7156POPC   C2B29360  12.174  11.110   8.253
 7156POPC   C3B29361  12.213  11.055   7.953
 7156POPC   C4B29362  12.180  11.061   7.653
 7157POPC   NC329363  14.362   9.731   9.453
 7157POPC   PO429364  14.440   9.792   9.153
 7157POPC   GL129365  14.440   9.703   8.853
 7157POPC   GL229366  14.406   9.866   8.853
 7157POPC   C1A29367  14.450   9.749   8.553
 7157POPC   D2A29368  14.452   9.708   8.253
 7157POPC   C3A29369  14.382   9.699   7.953
 7157POPC   C4A29370  14.361   9.725   7.653
 7157POPC   C1B29371  14.379   9.962   8.553
 7157POPC   C2B29372  14.423   9.974   8.253
 7157POPC   C3B29373  14.439  10.048   7.953
 7157POPC   C4B29374  14.375  10.009   7.653
 7158POPC   NC329375   8.949  18.317   9.453
 7158POPC   PO429376   8.934  18.307   9.153
 7158POPC   GL129377   8.970  18.279   8.853
 7158POPC   GL229378   9.087  18.270   8.853
 7158POPC   C1A29379   8.990  18.325   8.553
 7158POPC   D2A29380   8.982  18.250   8.253
 7158POPC   C3A29381   9.008  18.271   7.953
 7158POPC   C4A29382   8.970  18.246   7.653
 7158POPC   C1B29383   9.223  18.388   8.553
 7158POPC   C2B29384   9.200  18.392   8.253
 7158POPC   C3B29385   9.236  18.322   7.953
 7158POPC   C4B29386   9.224  18.303   7.653
 7159POPC   NC329387  22.932  39.188   9.453
 7159POPC   PO429388  22.936  39.265   9.153
 7159POPC   GL129389  22.971  39.199   8.853
 7159POPC   GL229390  22.823  39.286   8.853
 7159POPC   C1A29391  22.900  39.252   8.553
 7159POPC   D2A29392  22.902  39.208   8.253
 7159POPC   C3A29393  22.947  39.272   7.953
 7159POPC   C4A29394  22.970  39.213   7.653
 7159POPC   C1B29395  22.731  39.356   8.553
 7159POPC   C2B29396  22.681  39.287   8.253
 7159POPC   C3B29397  22.672  39.280   7.953
 7159POPC   C4B29398  22.669  39.317   7.653
 7160POPC   NC329399   9.015  33.778   9.453
 7160POPC   PO429400   8.956  33.806   9.153
 7160POPC   GL129401   8.999  33.787   8.853
 7160POPC   GL229402   8.881  33.773   8.853
 7160POPC   C1A29403   8.993  33.813   8.553
 7160POPC   D2A29404   9.001  33.843   8.253
 7160POPC   C3A29405   8.944  33.822   7.953
 7160POPC   C4A29406   8.967  33.781   7.653
 7160POPC   C1B29407   8.714  33.674   8.553
 7160POPC   C2B29408   8.702  33.742   8.253
 7160POPC   C3B29409   8.744  33.679   7.953
 7160POPC   C4B29410   8.780  33.703   7.653
 7161POPC   NC329411  43.918  19.018   9.453
 7161POPC   PO429412  43.936  19.033   9.153
 7161POPC   GL129413  43.914  19.085   8.853
 7161POPC   GL229414  43.887  18.897   8.853
 7161POPC   C1A29415  43.883  19.104   8.553
 7161POPC   D2A29416  43.894  19.065   8.253
 7161POPC   C3A29417  43.841  19.016   7.953
 7161POPC   C4A29418  43.839  19.096   7.653
 7161POPC   C1B29419  43.787  18.852   8.553
 7161POPC   C2B29420  43.854  18.794   8.253
 7161POPC   C3B29421  43.834  18.823   7.953
 7161POPC   C4B29422  43.842  18.843   7.653
 7162POPC   NC329423  34.623   4.361   9.453
 7162POPC   PO429424  34.557   4.269   9.153
 7162POPC   GL129425  34.619   4.288   8.853
 7162POPC   GL229426  34.496   4.391   8.853
 7162POPC   C1A29427  34.616   4.360   8.553
 7162POPC   D2A29428  34.527   4.347   8.253
 7162POPC   C3A29429  34.564   4.329   7.953
 7162POPC   C4A29430  34.549   4.295   7.653
 7162POPC   C1B29431  34.421   4.526   8.553
 7162POPC   C2B29432  34.449   4.521   8.253
 7162POPC   C3B29433  34.396   4.461   7.953
 7162POPC   C4B29434  34.421   4.504   7.653
 7163POPC   NC329435   4.320  33.032   9.453
 7163POPC   PO429436   4.352  33.045   9.153
 7163POPC   GL129437   4.360  33.017   8.853
 7163POPC   GL229438   4.239  32.985   8.853
 7163POPC   C1A29439   4.331  32.983   8.553
 7163POPC   D2A29440   4.358  33.025   8.253
 7163POPC   C3A29441   4.336  33.035   7.953
 7163POPC   C4A29442   4.284  32.993   7.653
 7163POPC   C1B29443   4.062  33.033   8.553
 7163POPC   C2B29444   4.075  33.050   8.253
 7163POPC   C3B29445   4.020  33.014   7.953
 7163POPC   C4B29446   4.025  32.988   7.653
 7164POPC   NC329447  36.876  37.641   9.453
 7164POPC   PO429448  36.871  37.654   9.153
 7164POPC   GL129449  36.923  37.689   8.853
 7164POPC   GL229450  37.028  37.585   8.853
 7164POPC   C1A29451  36.858  37.664   8.553
 7164POPC   D2A29452  36.945  37.675   8.253
 7164POPC   C3A29453  36.923  37.645   7.953
 7164POPC   C4A29454  36.900  37.723   7.653
 7164POPC   C1B29455  37.123  37.541   8.553
 7164POPC   C2B29456  37.139  37.569   8.253
 7164POPC   C3B29457  37.102  37.562   7.953
 7164POPC   C4B29458  37.129  37.591   7.653
 7165POPC   NC329459   0.397  33.013   9.453
 7165POPC   PO429460   0.444  32.996   9.153
 7165POPC   GL129461   0.448  33.000   8.853
 7165POPC   GL229462   0.459  32.872   8.853
 7165POPC   C1A29463   0.398  33.045   8.553
 7165POPC   D2A29464   0.398  32.981   8.253
 7165POPC   C3A29465   0.416  33.019   7.953
 7165POPC   C4A29466   0.434  33.006   7.653
 7165POPC   C1B29467   0.382  32.757   8.553
 7165POPC   C2B29468   0.385  32.772   8.253
 7165POPC   C3B29469   0.417  32.807   7.953
 7165POPC   C4B29470   0.366  32.827   7.653
 7166POPC   NC329471  39.981  39.262   9.453
 7166POPC   PO429472  40.044  39.241   9.153
 7166POPC   GL129473  40.023  39.255   8.853
 7166POPC   GL229474  39.886  39.168   8.853
 7166POPC   C1A29475  39.998  39.203   8.553
 7166POPC   D2A29476  40.012  39.197   8.253
 7166POPC   C3A29477  40.013  39.187   7.953
 7166POPC   C4A29478  40.052  39.245   7.653
 7166POPC   C1B29479  39.819  39.052   8.553
 7166POPC   C2B29480  39.843  39.049   8.253
 7166POPC   C3B29481  39.837  39.088   7.953
 7166POPC   C4B29482  39.863  39.042   7.653
 7167POPC   NC329483   9.734  43.105   9.453
 7167POPC   PO429484   9.699  43.156   9.153
 7167POPC   GL129485   9.793  43.073   8.853
 7167POPC   GL229486   9.843  43.151   8.853
 7167POPC   C1A29487   9.746  43.142   8.553
 7167POPC   D2A29488   9.749  43.155   8.253
 7167POPC   C3A29489   9.776  43.094   7.953
 7167POPC   C4A29490   9.701  43.128   7.653
 7167POPC   C1B29491   9.976  43.168   8.553
 7167POPC   C2B29492  10.009  43.151   8.253
 7167POPC   C3B29493  10.018  43.163   7.953
 7167POPC   C4B29494   9.984  43.157   7.653
 7168POPC   NC329495  32.272  36.176   9.453
 7168POPC   PO429496  32.207  36.099   9.153
 7168POPC   GL129497  32.260  36.157   8.853
 7168POPC   GL229498  32.376  36.127   8.853
 7168POPC   C1A29499  32.298  36.172   8.553
 7168POPC   D2A29500  32.285  36.134   8.253
 7168POPC   C3A29501  32.254  36.154   7.953
 7168POPC   C4A29502  32.286  36.087   7.653
 7168POPC   C1B29503  32.523  36.180   8.553
 7168POPC   C2B29504  32.532  36.172   8.253
 7168POPC   C3B29505  32.478  36.213   7.953
 7168POPC   C4B29506  32.477  36.216   7.653
 7169POPC   NC329507  28.417  31.517   9.453
 7169POPC   PO429508  28.387  31.438   9.153
 7169POPC   GL129509  28.338  31.492   8.853
 7169POPC   GL229510  28.224  31.500   8.853
 7169POPC   C1A29511  28.319  31.466   8.553
 7169POPC   D2A29512  28.377  31.448   8.253
 7169POPC   C3A29513  28.324  31.487   7.953
 7169POPC   C4A29514  28.365  31.456   7.653
 7169POPC   C1B29515  28.136  31.598   8.553
 7169POPC   C2B29516  28.159  31.550   8.253
 7169POPC   C3B29517  28.119  31.623   7.953
 7169POPC   C4B29518  28.125  31.558   7.653
 7170POPC   NC329519  30.648  29.897   9.453
 7170POPC   PO429520  30.695  29.922   9.153
 7170POPC   GL129521  30.700  29.934   8.853
 7170POPC   GL229522  30.705  30.071   8.853
 7170POPC   C1A29523  30.690  29.901   8.553
 7170POPC   D2A29524  30.677  29.929   8.253
 7170POPC   C3A29525  30.734  29.966   7.953
 7170POPC   C4A29526  30.660  29.961   7.653
 7170POPC   C1B29527  30.776  30.105   8.553
 7170POPC   C2B29528  30.792  30.173   8.253
 7170POPC   C3B29529  30.832  30.126   7.953
 7170POPC   C4B29530  30.802  30.125   7.653
 7171POPC   NC329531   5.891  29.117   9.453
 7171POPC   PO429532   5.904  29.157   9.153
 7171POPC   GL129533   5.890  29.115   8.853
 7171POPC   GL229534   5.956  29.202   8.853
 7171POPC   C1A29535   5.852  29.111   8.553
 7171POPC   D2A29536   5.877  29.187   8.253
 7171POPC   C3A29537   5.831  29.121   7.953
 7171POPC   C4A29538   5.892  29.136   7.653
 7171POPC   C1B29539   6.156  29.182   8.553
 7171POPC   C2B29540   6.147  29.195   8.253
 7171POPC   C3B29541   6.081  29.139   7.953
 7171POPC   C4B29542   6.108  29.156   7.653
 7172POPC   NC329543  16.765   8.954   9.453
 7172POPC   PO429544  16.732   8.986   9.153
 7172POPC   GL129545  16.722   9.022   8.853
 7172POPC   GL229546  16.749   9.109   8.853
 7172POPC   C1A29547  16.760   8.963   8.553
 7172POPC   D2A29548  16.681   8.925   8.253
 7172POPC   C3A29549  16.771   8.981   7.953
 7172POPC   C4A29550  16.729   8.944   7.653
 7172POPC   C1B29551  16.684   9.216   8.553
 7172POPC   C2B29552  16.754   9.220   8.253
 7172POPC   C3B29553  16.730   9.177   7.953
 7172POPC   C4B29554  16.713   9.254   7.653
 7173POPC   NC329555  24.532  16.779   9.453
 7173POPC   PO429556  24.477  16.724   9.153
 7173POPC   GL129557  24.459  16.779   8.853
 7173POPC   GL229558  24.589  16.782   8.853
 7173POPC   C1A29559  24.441  16.730   8.553
 7173POPC   D2A29560  24.495  16.744   8.253
 7173POPC   C3A29561  24.482  16.752   7.953
 7173POPC   C4A29562  24.474  16.709   7.653
 7173POPC   C1B29563  24.769  16.823   8.553
 7173POPC   C2B29564  24.781  16.801   8.253
 7173POPC   C3B29565  24.726  16.794   7.953
 7173POPC   C4B29566  24.757  16.793   7.653
 7174POPC   NC329567  41.538  42.377   9.453
 7174POPC   PO429568  41.518  42.384   9.153
 7174POPC   GL129569  41.533  42.312   8.853
 7174POPC   GL229570  41.710  42.335   8.853
 7174POPC   C1A29571  41.604  42.368   8.553
 7174POPC   D2A29572  41.556  42.286   8.253
 7174POPC   C3A29573  41.581  42.364   7.953
 7174POPC   C4A29574  41.562  42.346   7.653
 7174POPC   C1B29575  41.832  42.331   8.553
 7174POPC   C2B29576  41.839  42.375   8.253
 7174POPC   C3B29577  41.759  42.351   7.953
 7174POPC   C4B29578  41.801  42.373   7.653
 7175POPC   NC329579  40.802  41.524   9.453
 7175POPC   PO429580  40.801  41.535   9.153
 7175POPC   GL129581  40.765  41.524   8.853
 7175POPC   GL229582  40.663  41.528   8.853
 7175POPC   C1A29583  40.746  41.534   8.553
 7175POPC   D2A29584  40.826  41.539   8.253
 7175POPC   C3A29585  40.772  41.580   7.953
 7175POPC   C4A29586  40.737  41.540   7.653
 7175POPC   C1B29587  40.528  41.451   8.553
 7175POPC   C2B29588  40.557  41.464   8.253
 7175POPC   C3B29589  40.546  41.462   7.953
 7175POPC   C4B29590  40.502  41.458   7.653
 7176POPC   NC329591  12.070  36.885   9.453
 7176POPC   PO429592  12.076  36.927   9.153
 7176POPC   GL129593  12.117  36.915   8.853
 7176POPC   GL229594  12.209  36.915   8.853
 7176POPC   C1A29595  12.073  36.924   8.553
 7176POPC   D2A29596  12.092  36.920   8.253
 7176POPC   C3A29597  12.062  36.857   7.953
 7176POPC   C4A29598  12.038  36.884   7.653
 7176POPC   C1B29599  12.294  36.884   8.553
 7176POPC   C2B29600  12.321  36.836   8.253
 7176POPC   C3B29601  12.294  36.884   7.953
 7176POPC   C4B29602  12.289  36.881   7.653
 7177POPC   NC329603  19.869  20.624   9.453
 7177POPC   PO429604  19.845  20.566   9.153
 7177POPC   GL129605  19.847  20.583   8.853
 7177POPC   GL229606  19.730  20.658   8.853
 7177POPC   C1A29607  19.786  20.616   8.553
 7177POPC   D2A29608  19.815  20.570   8.253
 7177POPC   C3A29609  19.826  20.630   7.953
 7177POPC   C4A29610  19.876  20.589   7.653
 7177POPC   C1B29611  19.660  20.771   8.553
 7177POPC   C2B29612  19.638  20.800   8.253
 7177POPC   C3B29613  19.592  20.713   7.953
 7177POPC   C4B29614  19.627  20.779   7.653
 7178POPC   NC329615  19.857   3.518   9.453
 7178POPC   PO429616  19.825   3.566   9.153
 7178POPC   GL129617  19.872   3.513   8.853
 7178POPC   GL229618  19.844   3.469   8.853
 7178POPC   C1A29619  19.801   3.505   8.553
 7178POPC   D2A29620  19.833   3.492   8.253
 7178POPC   C3A29621  19.801   3.577   7.953
 7178POPC   C4A29622  19.875   3.525   7.653
 7178POPC   C1B29623  19.896   3.273   8.553
 7178POPC   C2B29624  19.963   3.291   8.253
 7178POPC   C3B29625  19.958   3.332   7.953
 7178POPC   C4B29626  19.967   3.276   7.653
 7179POPC   NC329627  25.240  40.823   9.453
 7179POPC   PO429628  25.246  40.752   9.153
 7179POPC   GL129629  25.262  40.826   8.853
 7179POPC   GL229630  25.145  40.847   8.853
 7179POPC   C1A29631  25.302  40.788   8.553
 7179POPC   D2A29632  25.232  40.832   8.253
 7179POPC   C3A29633  25.240  40.819   7.953
 7179POPC   C4A29634  25.275  40.772   7.653
 7179POPC   C1B29635  25.032  40.841   8.553
 7179POPC   C2B29636  25.037  40.852   8.253
 7179POPC   C3B29637  25.053  40.835   7.953
 7179POPC   C4B29638  24.980  40.854   7.653
 7180POPC   NC329639  15.917  20.649   9.453
 7180POPC   PO429640  15.996  20.654   9.153
 7180POPC   GL129641  15.994  20.568   8.853
 7180POPC   GL229642  16.036  20.539   8.853
 7180POPC   C1A29643  15.932  20.619   8.553
 7180POPC   D2A29644  15.957  20.611   8.253
 7180POPC   C3A29645  15.910  20.610   7.953
 7180POPC   C4A29646  15.927  20.566   7.653
 7180POPC   C1B29647  16.124  20.468   8.553
 7180POPC   C2B29648  16.110  20.375   8.253
 7180POPC   C3B29649  16.095  20.441   7.953
 7180POPC   C4B29650  16.100  20.389   7.653
 7181POPC   NC329651   8.149  31.467   9.453
 7181POPC   PO429652   8.180  31.439   9.153
 7181POPC   GL129653   8.180  31.464   8.853
 7181POPC   GL229654   8.074  31.513   8.853
 7181POPC   C1A29655   8.151  31.507   8.553
 7181POPC   D2A29656   8.194  31.436   8.253
 7181POPC   C3A29657   8.193  31.452   7.953
 7181POPC   C4A29658   8.207  31.430   7.653
 7181POPC   C1B29659   7.928  31.577   8.553
 7181POPC   C2B29660   7.982  31.576   8.253
 7181POPC   C3B29661   7.945  31.545   7.953
 7181POPC   C4B29662   7.988  31.616   7.653
 7182POPC   NC329663  15.189  26.782   9.453
 7182POPC   PO429664  15.202  26.835   9.153
 7182POPC   GL129665  15.156  26.857   8.853
 7182POPC   GL229666  15.238  26.931   8.853
 7182POPC   C1A29667  15.161  26.822   8.553
 7182POPC   D2A29668  15.153  26.851   8.253
 7182POPC   C3A29669  15.188  26.838   7.953
 7182POPC   C4A29670  15.160  26.777   7.653
 7182POPC   C1B29671  15.227  27.063   8.553
 7182POPC   C2B29672  15.213  27.086   8.253
 7182POPC   C3B29673  15.264  27.092   7.953
 7182POPC   C4B29674  15.280  27.055   7.653
 7183POPC   NC329675   1.249  35.329   9.453
 7183POPC   PO429676   1.219  35.359   9.153
 7183POPC   GL129677   1.177  35.364   8.853
 7183POPC   GL229678   1.124  35.295   8.853
 7183POPC   C1A29679   1.196  35.313   8.553
 7183POPC   D2A29680   1.246  35.315   8.253
 7183POPC   C3A29681   1.182  35.369   7.953
 7183POPC   C4A29682   1.245  35.354   7.653
 7183POPC   C1B29683   0.945  35.259   8.553
 7183POPC   C2B29684   0.950  35.252   8.253
 7183POPC   C3B29685   0.954  35.247   7.953
 7183POPC   C4B29686   0.973  35.197   7.653
 7184POPC   NC329687  30.742  43.131   9.453
 7184POPC   PO429688  30.698  43.100   9.153
 7184POPC   GL129689  30.685  43.127   8.853
 7184POPC   GL229690  30.846  43.002   8.853
 7184POPC   C1A29691  30.699  43.119   8.553
 7184POPC   D2A29692  30.670  43.120   8.253
 7184POPC   C3A29693  30.724  43.093   7.953
 7184POPC   C4A29694  30.729  43.120   7.653
 7184POPC   C1B29695  30.899  42.952   8.553
 7184POPC   C2B29696  30.923  42.985   8.253
 7184POPC   C3B29697  30.880  42.953   7.953
 7184POPC   C4B29698  30.900  42.980   7.653
 7185POPC   NC329699  38.500  10.512   9.453
 7185POPC   PO429700  38.436  10.523   9.153
 7185POPC   GL129701  38.493  10.530   8.853
 7185POPC   GL229702  38.410  10.628   8.853
 7185POPC   C1A29703  38.466  10.528   8.553
 7185POPC   D2A29704  38.406  10.572   8.253
 7185POPC   C3A29705  38.452  10.550   7.953
 7185POPC   C4A29706  38.494  10.528   7.653
 7185POPC   C1B29707  38.484  10.728   8.553
 7185POPC   C2B29708  38.481  10.787   8.253
 7185POPC   C3B29709  38.492  10.792   7.953
 7185POPC   C4B29710  38.500  10.804   7.653
 7186POPC   NC329711  39.978  26.806   9.453
 7186POPC   PO429712  40.033  26.801   9.153
 7186POPC   GL129713  39.985  26.769   8.853
 7186POPC   GL229714  39.912  26.726   8.853
 7186POPC   C1A29715  39.993  26.846   8.553
 7186POPC   D2A29716  40.039  26.795   8.253
 7186POPC   C3A29717  40.013  26.806   7.953
 7186POPC   C4A29718  39.974  26.816   7.653
 7186POPC   C1B29719  39.867  26.595   8.553
 7186POPC   C2B29720  39.865  26.595   8.253
 7186POPC   C3B29721  39.884  26.610   7.953
 7186POPC   C4B29722  39.849  26.604   7.653
 7187POPC   NC329723  15.917   3.530   9.453
 7187POPC   PO429724  15.997   3.583   9.153
 7187POPC   GL129725  15.985   3.541   8.853
 7187POPC   GL229726  16.006   3.456   8.853
 7187POPC   C1A29727  15.928   3.506   8.553
 7187POPC   D2A29728  15.943   3.510   8.253
 7187POPC   C3A29729  15.984   3.554   7.953
 7187POPC   C4A29730  15.935   3.553   7.653
 7187POPC   C1B29731  16.143   3.362   8.553
 7187POPC   C2B29732  16.185   3.388   8.253
 7187POPC   C3B29733  16.140   3.394   7.953
 7187POPC   C4B29734  16.133   3.376   7.653
 7188POPC   NC329735  41.540  21.358   9.453
 7188POPC   PO429736  41.583  21.403   9.153
 7188POPC   GL129737  41.535  21.366   8.853
 7188POPC   GL229738  41.597  21.288   8.853
 7188POPC   C1A29739  41.556  21.370   8.553
 7188POPC   D2A29740  41.590  21.410   8.253
 7188POPC   C3A29741  41.584  21.341   7.953
 7188POPC   C4A29742  41.608  21.358   7.653
 7188POPC   C1B29743  41.738  21.221   8.553
 7188POPC   C2B29744  41.659  21.159   8.253
 7188POPC   C3B29745  41.647  21.160   7.953
 7188POPC   C4B29746  41.668  21.195   7.653
 7189POPC   NC329747  12.029  13.619   9.453
 7189POPC   PO429748  12.063  13.588   9.153
 7189POPC   GL129749  12.057  13.650   8.853
 7189POPC   GL229750  12.155  13.537   8.853
 7189POPC   C1A29751  12.026  13.630   8.553
 7189POPC   D2A29752  12.062  13.614   8.253
 7189POPC   C3A29753  12.042  13.672   7.953
 7189POPC   C4A29754  12.069  13.644   7.653
 7189POPC   C1B29755  12.292  13.457   8.553
 7189POPC   C2B29756  12.254  13.421   8.253
 7189POPC   C3B29757  12.287  13.436   7.953
 7189POPC   C4B29758  12.266  13.497   7.653
 7190POPC   NC329759  42.378   2.760   9.453
 7190POPC   PO429760  42.336   2.725   9.153
 7190POPC   GL129761  42.310   2.811   8.853
 7190POPC   GL229762  42.220   2.750   8.853
 7190POPC   C1A29763  42.309   2.740   8.553
 7190POPC   D2A29764  42.338   2.743   8.253
 7190POPC   C3A29765  42.297   2.762   7.953
 7190POPC   C4A29766  42.370   2.777   7.653
 7190POPC   C1B29767  42.064   2.607   8.553
 7190POPC   C2B29768  42.115   2.698   8.253
 7190POPC   C3B29769  42.081   2.673   7.953
 7190POPC   C4B29770  42.062   2.645   7.653
 7191POPC   NC329771  42.291   5.060   9.453
 7191POPC   PO429772  42.328   5.129   9.153
 7191POPC   GL129773  42.287   5.114   8.853
 7191POPC   GL229774  42.329   5.190   8.853
 7191POPC   C1A29775  42.292   5.121   8.553
 7191POPC   D2A29776  42.382   5.077   8.253
 7191POPC   C3A29777  42.336   5.065   7.953
 7191POPC   C4A29778  42.290   5.046   7.653
 7191POPC   C1B29779  42.325   5.324   8.553
 7191POPC   C2B29780  42.352   5.296   8.253
 7191POPC   C3B29781  42.306   5.347   7.953
 7191POPC   C4B29782  42.324   5.362   7.653
 7192POPC   NC329783  17.515   8.941   9.453
 7192POPC   PO429784  17.480   8.928   9.153
 7192POPC   GL129785  17.512   8.983   8.853
 7192POPC   GL229786  17.340   8.956   8.853
 7192POPC   C1A29787  17.468   8.956   8.553
 7192POPC   D2A29788  17.521   8.959   8.253
 7192POPC   C3A29789  17.494   8.930   7.953
 7192POPC   C4A29790  17.520   9.022   7.653
 7192POPC   C1B29791  17.306   8.884   8.553
 7192POPC   C2B29792  17.269   8.958   8.253
 7192POPC   C3B29793  17.230   8.919   7.953
 7192POPC   C4B29794  17.311   8.959   7.653
 7193POPC   NC329795   2.776  39.202   9.453
 7193POPC   PO429796   2.730  39.269   9.153
 7193POPC   GL129797   2.796  39.275   8.853
 7193POPC   GL229798   2.625  39.176   8.853
 7193POPC   C1A29799   2.722  39.267   8.553
 7193POPC   D2A29800   2.812  39.257   8.253
 7193POPC   C3A29801   2.742  39.222   7.953
 7193POPC   C4A29802   2.748  39.185   7.653
 7193POPC   C1B29803   2.518  39.173   8.553
 7193POPC   C2B29804   2.552  39.198   8.253
 7193POPC   C3B29805   2.470  39.202   7.953
 7193POPC   C4B29806   2.565  39.193   7.653
 7194POPC   NC329807   5.121  36.857   9.453
 7194POPC   PO429808   5.061  36.888   9.153
 7194POPC   GL129809   5.143  36.907   8.853
 7194POPC   GL229810   5.073  37.010   8.853
 7194POPC   C1A29811   5.091  36.917   8.553
 7194POPC   D2A29812   5.120  36.928   8.253
 7194POPC   C3A29813   5.076  36.934   7.953
 7194POPC   C4A29814   5.071  36.889   7.653
 7194POPC   C1B29815   4.981  37.173   8.553
 7194POPC   C2B29816   5.001  37.147   8.253
 7194POPC   C3B29817   4.993  37.160   7.953
 7194POPC   C4B29818   5.023  37.131   7.653
 7195POPC   NC329819  39.207  15.208   9.453
 7195POPC   PO429820  39.263  15.199   9.153
 7195POPC   GL129821  39.264  15.198   8.853
 7195POPC   GL229822  39.161  15.052   8.853
 7195POPC   C1A29823  39.258  15.192   8.553
 7195POPC   D2A29824  39.222  15.148   8.253
 7195POPC   C3A29825  39.182  15.153   7.953
 7195POPC   C4A29826  39.229  15.213   7.653
 7195POPC   C1B29827  39.084  14.957   8.553
 7195POPC   C2B29828  39.085  14.999   8.253
 7195POPC   C3B29829  39.077  14.928   7.953
 7195POPC   C4B29830  39.093  14.971   7.653
 7196POPC   NC329831  27.558   5.907   9.453
 7196POPC   PO429832  27.554   5.916   9.153
 7196POPC   GL129833  27.587   5.822   8.853
 7196POPC   GL229834  27.625   5.758   8.853
 7196POPC   C1A29835  27.567   5.848   8.553
 7196POPC   D2A29836  27.623   5.823   8.253
 7196POPC   C3A29837  27.591   5.858   7.953
 7196POPC   C4A29838  27.579   5.839   7.653
 7196POPC   C1B29839  27.574   5.638   8.553
 7196POPC   C2B29840  27.654   5.614   8.253
 7196POPC   C3B29841  27.608   5.611   7.953
 7196POPC   C4B29842  27.639   5.590   7.653
 7197POPC   NC329843  19.028  18.273   9.453
 7197POPC   PO429844  19.054  18.299   9.153
 7197POPC   GL129845  19.025  18.321   8.853
 7197POPC   GL229846  19.100  18.440   8.853
 7197POPC   C1A29847  19.050  18.307   8.553
 7197POPC   D2A29848  19.086  18.237   8.253
 7197POPC   C3A29849  19.058  18.261   7.953
 7197POPC   C4A29850  19.059  18.311   7.653
 7197POPC   C1B29851  19.127  18.549   8.553
 7197POPC   C2B29852  19.174  18.474   8.253
 7197POPC   C3B29853  19.159  18.543   7.953
 7197POPC   C4B29854  19.131  18.522   7.653
 7198POPC   NC329855  16.715  35.327   9.453
 7198POPC   PO429856  16.752  35.368   9.153
 7198POPC   GL129857  16.756  35.347   8.853
 7198POPC   GL229858  16.891  35.380   8.853
 7198POPC   C1A29859  16.682  35.342   8.553
 7198POPC   D2A29860  16.777  35.320   8.253
 7198POPC   C3A29861  16.701  35.330   7.953
 7198POPC   C4A29862  16.742  35.344   7.653
 7198POPC   C1B29863  16.978  35.460   8.553
 7198POPC   C2B29864  16.912  35.404   8.253
 7198POPC   C3B29865  16.963  35.445   7.953
 7198POPC   C4B29866  16.992  35.443   7.653
 7199POPC   NC329867  12.881  36.109   9.453
 7199POPC   PO429868  12.874  36.113   9.153
 7199POPC   GL129869  12.813  36.165   8.853
 7199POPC   GL229870  12.739  36.198   8.853
 7199POPC   C1A29871  12.820  36.122   8.553
 7199POPC   D2A29872  12.831  36.089   8.253
 7199POPC   C3A29873  12.840  36.135   7.953
 7199POPC   C4A29874  12.893  36.116   7.653
 7199POPC   C1B29875  12.643  36.287   8.553
 7199POPC   C2B29876  12.645  36.269   8.253
 7199POPC   C3B29877  12.680  36.221   7.953
 7199POPC   C4B29878  12.678  36.227   7.653
 7200POPC   NC329879  17.490   3.564   9.453
 7200POPC   PO429880  17.503   3.505   9.153
 7200POPC   GL129881  17.539   3.493   8.853
 7200POPC   GL229882  17.524   3.696   8.853
 7200POPC   C1A29883  17.471   3.525   8.553
 7200POPC   D2A29884  17.536   3.563   8.253
 7200POPC   C3A29885  17.499   3.526   7.953
 7200POPC   C4A29886  17.472   3.519   7.653
 7200POPC   C1B29887  17.607   3.732   8.553
 7200POPC   C2B29888  17.620   3.797   8.253
 7200POPC   C3B29889  17.642   3.755   7.953
 7200POPC   C4B29890  17.555   3.738   7.653
 7201POPC   NC329891  24.447  24.524   9.453
 7201POPC   PO429892  24.518  24.469   9.153
 7201POPC   GL129893  24.467  24.444   8.853
 7201POPC   GL229894  24.484  24.350   8.853
 7201POPC   C1A29895  24.477  24.509   8.553
 7201POPC   D2A29896  24.497  24.504   8.253
 7201POPC   C3A29897  24.516  24.525   7.953
 7201POPC   C4A29898  24.485  24.499   7.653
 7201POPC   C1B29899  24.395  24.227   8.553
 7201POPC   C2B29900  24.397  24.215   8.253
 7201POPC   C3B29901  24.409  24.287   7.953
 7201POPC   C4B29902  24.407  24.299   7.653
 7202POPC   NC329903  39.991   9.020   9.453
 7202POPC   PO429904  39.993   8.935   9.153
 7202POPC   GL129905  39.965   8.935   8.853
 7202POPC   GL229906  40.004   8.827   8.853
 7202POPC   C1A29907  39.992   8.942   8.553
 7202POPC   D2A29908  40.028   8.960   8.253
 7202POPC   C3A29909  39.960   8.951   7.953
 7202POPC   C4A29910  40.042   8.923   7.653
 7202POPC   C1B29911  39.995   8.770   8.553
 7202POPC   C2B29912  39.998   8.741   8.253
 7202POPC   C3B29913  40.034   8.738   7.953
 7202POPC   C4B29914  40.029   8.697   7.653
 7203POPC   NC329915  19.861  26.804   9.453
 7203POPC   PO429916  19.872  26.813   9.153
 7203POPC   GL129917  19.878  26.776   8.853
 7203POPC   GL229918  19.804  26.894   8.853
 7203POPC   C1A29919  19.798  26.848   8.553
 7203POPC   D2A29920  19.877  26.828   8.253
 7203POPC   C3A29921  19.834  26.803   7.953
 7203POPC   C4A29922  19.860  26.854   7.653
 7203POPC   C1B29923  19.804  27.032   8.553
 7203POPC   C2B29924  19.802  27.044   8.253
 7203POPC   C3B29925  19.786  27.063   7.953
 7203POPC   C4B29926  19.878  27.018   7.653
 7204POPC   NC329927   4.336  22.976   9.453
 7204POPC   PO429928   4.296  22.972   9.153
 7204POPC   GL129929   4.279  22.972   8.853
 7204POPC   GL229930   4.340  22.848   8.853
 7204POPC   C1A29931   4.320  22.978   8.553
 7204POPC   D2A29932   4.321  22.954   8.253
 7204POPC   C3A29933   4.294  22.896   7.953
 7204POPC   C4A29934   4.301  22.983   7.653
 7204POPC   C1B29935   4.404  22.736   8.553
 7204POPC   C2B29936   4.394  22.708   8.253
 7204POPC   C3B29937   4.456  22.686   7.953
 7204POPC   C4B29938   4.392  22.753   7.653
 7205POPC   NC329939   9.716  13.658   9.453
 7205POPC   PO429940   9.736  13.647   9.153
 7205POPC   GL129941   9.774  13.660   8.853
 7205POPC   GL229942   9.850  13.568   8.853
 7205POPC   C1A29943   9.787  13.608   8.553
 7205POPC   D2A29944   9.720  13.623   8.253
 7205POPC   C3A29945   9.761  13.597   7.953
 7205POPC   C4A29946   9.794  13.663   7.653
 7205POPC   C1B29947   9.975  13.468   8.553
 7205POPC   C2B29948   9.936  13.465   8.253
 7205POPC   C3B29949   9.885  13.417   7.953
 7205POPC   C4B29950   9.975  13.498   7.653
 7206POPC   NC329951   3.562  12.080   9.453
 7206POPC   PO429952   3.558  12.109   9.153
 7206POPC   GL129953   3.554  12.081   8.853
 7206POPC   GL229954   3.606  12.173   8.853
 7206POPC   C1A29955   3.574  12.056   8.553
 7206POPC   D2A29956   3.579  12.082   8.253
 7206POPC   C3A29957   3.590  12.030   7.953
 7206POPC   C4A29958   3.516  12.032   7.653
 7206POPC   C1B29959   3.619  12.327   8.553
 7206POPC   C2B29960   3.665  12.287   8.253
 7206POPC   C3B29961   3.644  12.315   7.953
 7206POPC   C4B29962   3.656  12.304   7.653
 7207POPC   NC329963  17.487   9.773   9.453
 7207POPC   PO429964  17.528   9.796   9.153
 7207POPC   GL129965  17.516   9.758   8.853
 7207POPC   GL229966  17.604   9.881   8.853
 7207POPC   C1A29967  17.540   9.755   8.553
 7207POPC   D2A29968  17.539   9.735   8.253
 7207POPC   C3A29969  17.545   9.761   7.953
 7207POPC   C4A29970  17.517   9.713   7.653
 7207POPC   C1B29971  17.703   9.908   8.553
 7207POPC   C2B29972  17.685   9.967   8.253
 7207POPC   C3B29973  17.625   9.940   7.953
 7207POPC   C4B29974  17.713   9.959   7.653
 7208POPC   NC329975   8.166  20.625   9.453
 7208POPC   PO429976   8.203  20.654   9.153
 7208POPC   GL129977   8.181  20.635   8.853
 7208POPC   GL229978   8.092  20.728   8.853
 7208POPC   C1A29979   8.231  20.578   8.553
 7208POPC   D2A29980   8.230  20.568   8.253
 7208POPC   C3A29981   8.170  20.561   7.953
 7208POPC   C4A29982   8.172  20.604   7.653
 7208POPC   C1B29983   8.039  20.833   8.553
 7208POPC   C2B29984   8.107  20.826   8.253
 7208POPC   C3B29985   8.074  20.843   7.953
 7208POPC   C4B29986   8.094  20.817   7.653
 7209POPC   NC329987  35.364   5.111   9.453
 7209POPC   PO429988  35.356   5.093   9.153
 7209POPC   GL129989  35.375   5.061   8.853
 7209POPC   GL229990  35.301   4.923   8.853
 7209POPC   C1A29991  35.374   5.065   8.553
 7209POPC   D2A29992  35.335   5.083   8.253
 7209POPC   C3A29993  35.310   5.105   7.953
 7209POPC   C4A29994  35.335   5.098   7.653
 7209POPC   C1B29995  35.359   4.866   8.553
 7209POPC   C2B29996  35.292   4.851   8.253
 7209POPC   C3B29997  35.340   4.838   7.953
 7209POPC   C4B29998  35.339   4.842   7.653
 7210POPC   NC329999  39.266  26.021   9.453
 7210POPC   PO430000  39.194  26.072   9.153
 7210POPC   GL130001  39.281  26.086   8.853
 7210POPC   GL230002  39.118  26.091   8.853
 7210POPC   C1A30003  39.272  26.091   8.553
 7210POPC   D2A30004  39.192  26.040   8.253
 7210POPC   C3A30005  39.243  25.997   7.953
 7210POPC   C4A30006  39.250  26.077   7.653
 7210POPC   C1B30007  39.037  26.075   8.553
 7210POPC   C2B30008  39.000  26.105   8.253
 7210POPC   C3B30009  38.998  26.117   7.953
 7210POPC   C4B30010  39.020  26.105   7.653
 7211POPC   NC330011  17.488  25.257   9.453
 7211POPC   PO430012  17.523  25.314   9.153
 7211POPC   GL130013  17.500  25.247   8.853
 7211POPC   GL230014  17.665  25.326   8.853
 7211POPC   C1A30015  17.532  25.311   8.553
 7211POPC   D2A30016  17.510  25.227   8.253
 7211POPC   C3A30017  17.554  25.240   7.953
 7211POPC   C4A30018  17.537  25.237   7.653
 7211POPC   C1B30019  17.775  25.355   8.553
 7211POPC   C2B30020  17.768  25.378   8.253
 7211POPC   C3B30021  17.768  25.352   7.953
 7211POPC   C4B30022  17.775  25.335   7.653
 7212POPC   NC330023  42.374  36.952   9.453
 7212POPC   PO430024  42.381  36.928   9.153
 7212POPC   GL130025  42.327  36.917   8.853
 7212POPC   GL230026  42.442  36.816   8.853
 7212POPC   C1A30027  42.369  36.922   8.553
 7212POPC   D2A30028  42.307  36.945   8.253
 7212POPC   C3A30029  42.329  36.856   7.953
 7212POPC   C4A30030  42.294  36.907   7.653
 7212POPC   C1B30031  42.445  36.668   8.553
 7212POPC   C2B30032  42.473  36.705   8.253
 7212POPC   C3B30033  42.484  36.659   7.953
 7212POPC   C4B30034  42.481  36.706   7.653
 7213POPC   NC330035  22.167  19.838   9.453
 7213POPC   PO430036  22.142  19.803   9.153
 7213POPC   GL130037  22.151  19.829   8.853
 7213POPC   GL230038  22.108  19.934   8.853
 7213POPC   C1A30039  22.179  19.831   8.553
 7213POPC   D2A30040  22.116  19.831   8.253
 7213POPC   C3A30041  22.135  19.829   7.953
 7213POPC   C4A30042  22.131  19.797   7.653
 7213POPC   C1B30043  22.149  20.059   8.553
 7213POPC   C2B30044  22.180  20.090   8.253
 7213POPC   C3B30045  22.109  20.038   7.953
 7213POPC   C4B30046  22.191  20.069   7.653
 7214POPC   NC330047  25.300  31.447   9.453
 7214POPC   PO430048  25.313  31.492   9.153
 7214POPC   GL130049  25.310  31.463   8.853
 7214POPC   GL230050  25.202  31.601   8.853
 7214POPC   C1A30051  25.303  31.474   8.553
 7214POPC   D2A30052  25.291  31.452   8.253
 7214POPC   C3A30053  25.250  31.486   7.953
 7214POPC   C4A30054  25.305  31.451   7.653
 7214POPC   C1B30055  25.147  31.655   8.553
 7214POPC   C2B30056  25.103  31.647   8.253
 7214POPC   C3B30057  25.122  31.644   7.953
 7214POPC   C4B30058  25.095  31.694   7.653
 7215POPC   NC330059   7.464  39.203   9.453
 7215POPC   PO430060   7.413  39.265   9.153
 7215POPC   GL130061   7.389  39.200   8.853
 7215POPC   GL230062   7.517  39.198   8.853
 7215POPC   C1A30063   7.403  39.250   8.553
 7215POPC   D2A30064   7.412  39.229   8.253
 7215POPC   C3A30065   7.450  39.193   7.953
 7215POPC   C4A30066   7.415  39.261   7.653
 7215POPC   C1B30067   7.600  39.042   8.553
 7215POPC   C2B30068   7.576  39.056   8.253
 7215POPC   C3B30069   7.608  39.101   7.953
 7215POPC   C4B30070   7.601  39.128   7.653
 7216POPC   NC330071  18.259   1.983   9.453
 7216POPC   PO430072  18.289   1.945   9.153
 7216POPC   GL130073  18.255   2.004   8.853
 7216POPC   GL230074  18.169   1.972   8.853
 7216POPC   C1A30075  18.330   1.984   8.553
 7216POPC   D2A30076  18.289   1.951   8.253
 7216POPC   C3A30077  18.320   1.963   7.953
 7216POPC   C4A30078  18.241   1.971   7.653
 7216POPC   C1B30079  18.017   1.921   8.553
 7216POPC   C2B30080  17.987   1.974   8.253
 7216POPC   C3B30081  18.069   1.919   7.953
 7216POPC   C4B30082  17.989   1.982   7.653
 7217POPC   NC330083  25.998  36.129   9.453
 7217POPC   PO430084  26.017  36.083   9.153
 7217POPC   GL130085  26.087  36.152   8.853
 7217POPC   GL230086  25.953  35.994   8.853
 7217POPC   C1A30087  26.069  36.140   8.553
 7217POPC   D2A30088  26.074  36.098   8.253
 7217POPC   C3A30089  26.045  36.080   7.953
 7217POPC   C4A30090  26.072  36.168   7.653
 7217POPC   C1B30091  26.002  35.846   8.553
 7217POPC   C2B30092  25.982  35.914   8.253
 7217POPC   C3B30093  25.980  35.887   7.953
 7217POPC   C4B30094  26.006  35.920   7.653
 7218POPC   NC330095  22.895  43.903   9.453
 7218POPC   PO430096  22.939  43.874   9.153
 7218POPC   GL130097  22.889  43.852   8.853
 7218POPC   GL230098  22.900  43.771   8.853
 7218POPC   C1A30099  22.933  43.927   8.553
 7218POPC   D2A30100  22.955  43.907   8.253
 7218POPC   C3A30101  22.946  43.906   7.953
 7218POPC   C4A30102  22.987  43.841   7.653
 7218POPC   C1B30103  22.919  43.639   8.553
 7218POPC   C2B30104  22.888  43.614   8.253
 7218POPC   C3B30105  22.847  43.652   7.953
 7218POPC   C4B30106  22.867  43.609   7.653
 7219POPC   NC330107  23.693   9.726   9.453
 7219POPC   PO430108  23.751   9.751   9.153
 7219POPC   GL130109  23.683   9.758   8.853
 7219POPC   GL230110  23.779   9.823   8.853
 7219POPC   C1A30111  23.684   9.722   8.553
 7219POPC   D2A30112  23.705   9.749   8.253
 7219POPC   C3A30113  23.680   9.748   7.953
 7219POPC   C4A30114  23.710   9.777   7.653
 7219POPC   C1B30115  23.858   9.914   8.553
 7219POPC   C2B30116  23.863   9.880   8.253
 7219POPC   C3B30117  23.923   9.935   7.953
 7219POPC   C4B30118  23.876   9.881   7.653
 7220POPC   NC330119  29.103  20.625   9.453
 7220POPC   PO430120  29.153  20.653   9.153
 7220POPC   GL130121  29.124  20.656   8.853
 7220POPC   GL230122  29.076  20.717   8.853
 7220POPC   C1A30123  29.187  20.564   8.553
 7220POPC   D2A30124  29.128  20.580   8.253
 7220POPC   C3A30125  29.095  20.603   7.953
 7220POPC   C4A30126  29.187  20.625   7.653
 7220POPC   C1B30127  28.890  20.766   8.553
 7220POPC   C2B30128  28.959  20.694   8.253
 7220POPC   C3B30129  28.881  20.752   7.953
 7220POPC   C4B30130  28.902  20.691   7.653
 7221POPC   NC330131  28.349  32.294   9.453
 7221POPC   PO430132  28.384  32.292   9.153
 7221POPC   GL130133  28.382  32.286   8.853
 7221POPC   GL230134  28.239  32.201   8.853
 7221POPC   C1A30135  28.325  32.289   8.553
 7221POPC   D2A30136  28.387  32.253   8.253
 7221POPC   C3A30137  28.408  32.291   7.953
 7221POPC   C4A30138  28.390  32.266   7.653
 7221POPC   C1B30139  28.165  32.184   8.553
 7221POPC   C2B30140  28.156  32.153   8.253
 7221POPC   C3B30141  28.175  32.214   7.953
 7221POPC   C4B30142  28.101  32.228   7.653
 7222POPC   NC330143  19.083  25.258   9.453
 7222POPC   PO430144  19.010  25.282   9.153
 7222POPC   GL130145  19.100  25.250   8.853
 7222POPC   GL230146  19.041  25.342   8.853
 7222POPC   C1A30147  19.096  25.286   8.553
 7222POPC   D2A30148  19.077  25.302   8.253
 7222POPC   C3A30149  19.062  25.285   7.953
 7222POPC   C4A30150  19.096  25.301   7.653
 7222POPC   C1B30151  18.960  25.454   8.553
 7222POPC   C2B30152  18.962  25.486   8.253
 7222POPC   C3B30153  18.914  25.458   7.953
 7222POPC   C4B30154  18.966  25.514   7.653
 7223POPC   NC330155   4.354   8.207   9.453
 7223POPC   PO430156   4.272   8.177   9.153
 7223POPC   GL130157   4.276   8.236   8.853
 7223POPC   GL230158   4.418   8.207   8.853
 7223POPC   C1A30159   4.336   8.172   8.553
 7223POPC   D2A30160   4.337   8.225   8.253
 7223POPC   C3A30161   4.288   8.179   7.953
 7223POPC   C4A30162   4.296   8.164   7.653
 7223POPC   C1B30163   4.533   8.244   8.553
 7223POPC   C2B30164   4.554   8.256   8.253
 7223POPC   C3B30165   4.531   8.270   7.953
 7223POPC   C4B30166   4.518   8.250   7.653
 7224POPC   NC330167  27.557   4.285   9.453
 7224POPC   PO430168  27.560   4.337   9.153
 7224POPC   GL130169  27.544   4.323   8.853
 7224POPC   GL230170  27.711   4.289   8.853
 7224POPC   C1A30171  27.630   4.309   8.553
 7224POPC   D2A30172  27.632   4.366   8.253
 7224POPC   C3A30173  27.586   4.303   7.953
 7224POPC   C4A30174  27.550   4.356   7.653
 7224POPC   C1B30175  27.830   4.297   8.553
 7224POPC   C2B30176  27.810   4.313   8.253
 7224POPC   C3B30177  27.826   4.300   7.953
 7224POPC   C4B30178  27.822   4.296   7.653
 7225POPC   NC330179  30.675   7.430   9.453
 7225POPC   PO430180  30.662   7.426   9.153
 7225POPC   GL130181  30.714   7.382   8.853
 7225POPC   GL230182  30.826   7.479   8.853
 7225POPC   C1A30183  30.669   7.417   8.553
 7225POPC   D2A30184  30.679   7.467   8.253
 7225POPC   C3A30185  30.707   7.442   7.953
 7225POPC   C4A30186  30.652   7.467   7.653
 7225POPC   C1B30187  30.863   7.582   8.553
 7225POPC   C2B30188  30.889   7.619   8.253
 7225POPC   C3B30189  30.913   7.610   7.953
 7225POPC   C4B30190  30.866   7.602   7.653
 7226POPC   NC330191  44.655   9.700   9.453
 7226POPC   PO430192  44.664   9.771   9.153
 7226POPC   GL130193  44.692   9.705   8.853
 7226POPC   GL230194  44.496   9.742   8.853
 7226POPC   C1A30195  44.618   9.761   8.553
 7226POPC   D2A30196  44.613   9.789   8.253
 7226POPC   C3A30197  44.638   9.780   7.953
 7226POPC   C4A30198  44.643   9.788   7.653
 7226POPC   C1B30199  44.377   9.766   8.553
 7226POPC   C2B30200  44.398   9.752   8.253
 7226POPC   C3B30201  44.426   9.748   7.953
 7226POPC   C4B30202  44.407   9.697   7.653
 7227POPC   NC330203  27.602  44.657   9.453
 7227POPC   PO430204  27.607  44.620   9.153
 7227POPC   GL130205  27.626  44.685   8.853
 7227POPC   GL230206  27.516  44.531   8.853
 7227POPC   C1A30207  27.556  44.635   8.553
 7227POPC   D2A30208  27.609  44.618   8.253
 7227POPC   C3A30209  27.628  44.644   7.953
 7227POPC   C4A30210  27.609  44.693   7.653
 7227POPC   C1B30211  27.532  44.438   8.553
 7227POPC   C2B30212  27.535  44.466   8.253
 7227POPC   C3B30213  27.457  44.475   7.953
 7227POPC   C4B30214  27.511  44.396   7.653
 7228POPC   NC330215  36.868   0.461   9.453
 7228POPC   PO430216  36.880   0.414   9.153
 7228POPC   GL130217  36.949   0.478   8.853
 7228POPC   GL230218  37.006   0.368   8.853
 7228POPC   C1A30219  36.875   0.435   8.553
 7228POPC   D2A30220  36.890   0.478   8.253
 7228POPC   C3A30221  36.897   0.413   7.953
 7228POPC   C4A30222  36.893   0.426   7.653
 7228POPC   C1B30223  37.155   0.321   8.553
 7228POPC   C2B30224  37.127   0.320   8.253
 7228POPC   C3B30225  37.166   0.277   7.953
 7228POPC   C4B30226  37.069   0.305   7.653
 7229POPC   NC330227  20.608  17.541   9.453
 7229POPC   PO430228  20.594  17.459   9.153
 7229POPC   GL130229  20.623  17.520   8.853
 7229POPC   GL230230  20.488  17.468   8.853
 7229POPC   C1A30231  20.590  17.540   8.553
 7229POPC   D2A30232  20.643  17.521   8.253
 7229POPC   C3A30233  20.616  17.520   7.953
 7229POPC   C4A30234  20.617  17.478   7.653
 7229POPC   C1B30235  20.401  17.409   8.553
 7229POPC   C2B30236  20.370  17.434   8.253
 7229POPC   C3B30237  20.400  17.451   7.953
 7229POPC   C4B30238  20.403  17.463   7.653
 7230POPC   NC330239  38.470   7.468   9.453
 7230POPC   PO430240  38.500   7.384   9.153
 7230POPC   GL130241  38.459   7.439   8.853
 7230POPC   GL230242  38.373   7.416   8.853
 7230POPC   C1A30243  38.485   7.403   8.553
 7230POPC   D2A30244  38.418   7.375   8.253
 7230POPC   C3A30245  38.464   7.421   7.953
 7230POPC   C4A30246  38.463   7.440   7.653
 7230POPC   C1B30247  38.181   7.447   8.553
 7230POPC   C2B30248  38.184   7.443   8.253
 7230POPC   C3B30249  38.231   7.485   7.953
 7230POPC   C4B30250  38.223   7.523   7.653
 7231POPC   NC330251  28.323   4.362   9.453
 7231POPC   PO430252  28.362   4.302   9.153
 7231POPC   GL130253  28.413   4.279   8.853
 7231POPC   GL230254  28.470   4.206   8.853
 7231POPC   C1A30255  28.392   4.341   8.553
 7231POPC   D2A30256  28.403   4.332   8.253
 7231POPC   C3A30257  28.409   4.273   7.953
 7231POPC   C4A30258  28.334   4.302   7.653
 7231POPC   C1B30259  28.509   4.094   8.553
 7231POPC   C2B30260  28.535   4.124   8.253
 7231POPC   C3B30261  28.484   4.143   7.953
 7231POPC   C4B30262  28.537   4.173   7.653
 7232POPC   NC330263  27.545  36.138   9.453
 7232POPC   PO430264  27.546  36.141   9.153
 7232POPC   GL130265  27.617  36.151   8.853
 7232POPC   GL230266  27.666  36.243   8.853
 7232POPC   C1A30267  27.619  36.093   8.553
 7232POPC   D2A30268  27.583  36.083   8.253
 7232POPC   C3A30269  27.555  36.117   7.953
 7232POPC   C4A30270  27.550  36.175   7.653
 7232POPC   C1B30271  27.799  36.347   8.553
 7232POPC   C2B30272  27.784  36.314   8.253
 7232POPC   C3B30273  27.724  36.290   7.953
 7232POPC   C4B30274  27.727  36.279   7.653
 7233POPC   NC330275   3.497   7.388   9.453
 7233POPC   PO430276   3.588   7.450   9.153
 7233POPC   GL130277   3.563   7.469   8.853
 7233POPC   GL230278   3.452   7.484   8.853
 7233POPC   C1A30279   3.512   7.433   8.553
 7233POPC   D2A30280   3.561   7.429   8.253
 7233POPC   C3A30281   3.554   7.428   7.953
 7233POPC   C4A30282   3.522   7.440   7.653
 7233POPC   C1B30283   3.272   7.460   8.553
 7233POPC   C2B30284   3.304   7.479   8.253
 7233POPC   C3B30285   3.305   7.510   7.953
 7233POPC   C4B30286   3.283   7.460   7.653
 7234POPC   NC330287  38.441  30.678   9.453
 7234POPC   PO430288  38.425  30.738   9.153
 7234POPC   GL130289  38.432  30.690   8.853
 7234POPC   GL230290  38.550  30.739   8.853
 7234POPC   C1A30291  38.492  30.731   8.553
 7234POPC   D2A30292  38.421  30.729   8.253
 7234POPC   C3A30293  38.497  30.672   7.953
 7234POPC   C4A30294  38.416  30.709   7.653
 7234POPC   C1B30295  38.740  30.685   8.553
 7234POPC   C2B30296  38.690  30.668   8.253
 7234POPC   C3B30297  38.742  30.647   7.953
 7234POPC   C4B30298  38.663  30.695   7.653
 7235POPC   NC330299  12.861   4.270   9.453
 7235POPC   PO430300  12.853   4.334   9.153
 7235POPC   GL130301  12.853   4.315   8.853
 7235POPC   GL230302  12.757   4.185   8.853
 7235POPC   C1A30303  12.817   4.325   8.553
 7235POPC   D2A30304  12.889   4.274   8.253
 7235POPC   C3A30305  12.832   4.346   7.953
 7235POPC   C4A30306  12.882   4.298   7.653
 7235POPC   C1B30307  12.683   4.095   8.553
 7235POPC   C2B30308  12.700   4.123   8.253
 7235POPC   C3B30309  12.727   4.115   7.953
 7235POPC   C4B30310  12.648   4.151   7.653
 7236POPC   NC330311  43.844  19.872   9.453
 7236POPC   PO430312  43.838  19.819   9.153
 7236POPC   GL130313  43.914  19.864   8.853
 7236POPC   GL230314  44.045  19.790   8.853
 7236POPC   C1A30315  43.857  19.852   8.553
 7236POPC   D2A30316  43.918  19.884   8.253
 7236POPC   C3A30317  43.911  19.830   7.953
 7236POPC   C4A30318  43.896  19.802   7.653
 7236POPC   C1B30319  44.120  19.814   8.553
 7236POPC   C2B30320  44.116  19.742   8.253
 7236POPC   C3B30321  44.093  19.830   7.953
 7236POPC   C4B30322  44.089  19.824   7.653
 7237POPC   NC330323  40.780  42.294   9.453
 7237POPC   PO430324  40.794  42.357   9.153
 7237POPC   GL130325  40.741  42.375   8.853
 7237POPC   GL230326  40.887  42.479   8.853
 7237POPC   C1A30327  40.776  42.317   8.553
 7237POPC   D2A30328  40.822  42.333   8.253
 7237POPC   C3A30329  40.830  42.318   7.953
 7237POPC   C4A30330  40.744  42.345   7.653
 7237POPC   C1B30331  40.897  42.520   8.553
 7237POPC   C2B30332  40.907  42.554   8.253
 7237POPC   C3B30333  40.915  42.551   7.953
 7237POPC   C4B30334  40.853  42.574   7.653
 7238POPC   NC330335   9.750  15.996   9.453
 7238POPC   PO430336   9.780  15.969   9.153
 7238POPC   GL130337   9.713  15.993   8.853
 7238POPC   GL230338   9.694  15.807   8.853
 7238POPC   C1A30339   9.753  15.930   8.553
 7238POPC   D2A30340   9.772  15.927   8.253
 7238POPC   C3A30341   9.733  15.924   7.953
 7238POPC   C4A30342   9.739  15.918   7.653
 7238POPC   C1B30343   9.617  15.719   8.553
 7238POPC   C2B30344   9.551  15.771   8.253
 7238POPC   C3B30345   9.631  15.765   7.953
 7238POPC   C4B30346   9.567  15.726   7.653
 7239POPC   NC330347  10.483  16.002   9.453
 7239POPC   PO430348  10.492  15.941   9.153
 7239POPC   GL130349  10.569  15.917   8.853
 7239POPC   GL230350  10.541  15.861   8.853
 7239POPC   C1A30351  10.541  15.914   8.553
 7239POPC   D2A30352  10.560  15.952   8.253
 7239POPC   C3A30353  10.513  15.947   7.953
 7239POPC   C4A30354  10.541  15.914   7.653
 7239POPC   C1B30355  10.559  15.706   8.553
 7239POPC   C2B30356  10.568  15.731   8.253
 7239POPC   C3B30357  10.588  15.743   7.953
 7239POPC   C4B30358  10.573  15.749   7.653
 7240POPC   NC330359  29.903  35.328   9.453
 7240POPC   PO430360  29.916  35.306   9.153
 7240POPC   GL130361  29.961  35.309   8.853
 7240POPC   GL230362  29.789  35.375   8.853
 7240POPC   C1A30363  29.883  35.320   8.553
 7240POPC   D2A30364  29.957  35.393   8.253
 7240POPC   C3A30365  29.902  35.331   7.953
 7240POPC   C4A30366  29.920  35.340   7.653
 7240POPC   C1B30367  29.712  35.324   8.553
 7240POPC   C2B30368  29.674  35.407   8.253
 7240POPC   C3B30369  29.707  35.315   7.953
 7240POPC   C4B30370  29.669  35.315   7.653
 7241POPC   NC330371  29.121  25.300   9.453
 7241POPC   PO430372  29.106  25.287   9.153
 7241POPC   GL130373  29.151  25.274   8.853
 7241POPC   GL230374  29.198  25.211   8.853
 7241POPC   C1A30375  29.150  25.244   8.553
 7241POPC   D2A30376  29.186  25.263   8.253
 7241POPC   C3A30377  29.175  25.223   7.953
 7241POPC   C4A30378  29.148  25.253   7.653
 7241POPC   C1B30379  29.325  25.073   8.553
 7241POPC   C2B30380  29.360  25.095   8.253
 7241POPC   C3B30381  29.357  25.096   7.953
 7241POPC   C4B30382  29.309  25.067   7.653
 7242POPC   NC330383   4.320  24.463   9.453
 7242POPC   PO430384   4.322  24.508   9.153
 7242POPC   GL130385   4.325  24.472   8.853
 7242POPC   GL230386   4.150  24.523   8.853
 7242POPC   C1A30387   4.350  24.464   8.553
 7242POPC   D2A30388   4.267  24.449   8.253
 7242POPC   C3A30389   4.336  24.495   7.953
 7242POPC   C4A30390   4.268  24.492   7.653
 7242POPC   C1B30391   4.050  24.509   8.553
 7242POPC   C2B30392   4.114  24.562   8.253
 7242POPC   C3B30393   4.097  24.487   7.953
 7242POPC   C4B30394   4.063  24.540   7.653
 7243POPC   NC330395  37.639  19.061   9.453
 7243POPC   PO430396  37.667  19.050   9.153
 7243POPC   GL130397  37.674  19.103   8.853
 7243POPC   GL230398  37.581  19.132   8.853
 7243POPC   C1A30399  37.634  19.107   8.553
 7243POPC   D2A30400  37.680  19.055   8.253
 7243POPC   C3A30401  37.654  19.015   7.953
 7243POPC   C4A30402  37.641  19.088   7.653
 7243POPC   C1B30403  37.475  19.157   8.553
 7243POPC   C2B30404  37.409  19.109   8.253
 7243POPC   C3B30405  37.406  19.148   7.953
 7243POPC   C4B30406  37.449  19.145   7.653
 7244POPC   NC330407  12.825   0.404   9.453
 7244POPC   PO430408  12.825   0.408   9.153
 7244POPC   GL130409  12.826   0.480   8.853
 7244POPC   GL230410  12.811   0.315   8.853
 7244POPC   C1A30411  12.886   0.443   8.553
 7244POPC   D2A30412  12.831   0.462   8.253
 7244POPC   C3A30413  12.886   0.424   7.953
 7244POPC   C4A30414  12.866   0.392   7.653
 7244POPC   C1B30415  12.807   0.229   8.553
 7244POPC   C2B30416  12.805   0.229   8.253
 7244POPC   C3B30417  12.807   0.170   7.953
 7244POPC   C4B30418  12.792   0.189   7.653
 7245POPC   NC330419  44.639  38.452   9.453
 7245POPC   PO430420  44.619  38.434   9.153
 7245POPC   GL130421  44.684  38.443   8.853
 7245POPC   GL230422  44.515  38.481   8.853
 7245POPC   C1A30423  44.712  38.466   8.553
 7245POPC   D2A30424  44.656  38.474   8.253
 7245POPC   C3A30425  44.616  38.435   7.953
 7245POPC   C4A30426  44.684  38.456   7.653
 7245POPC   C1B30427  44.451  38.513   8.553
 7245POPC   C2B30428  44.365  38.496   8.253
 7245POPC   C3B30429  44.396  38.483   7.953
 7245POPC   C4B30430  44.412  38.529   7.653
 7246POPC   NC330431  40.003   2.728   9.453
 7246POPC   PO430432  40.035   2.764   9.153
 7246POPC   GL130433  40.027   2.796   8.853
 7246POPC   GL230434  39.959   2.683   8.853
 7246POPC   C1A30435  39.992   2.728   8.553
 7246POPC   D2A30436  40.028   2.743   8.253
 7246POPC   C3A30437  39.976   2.720   7.953
 7246POPC   C4A30438  40.038   2.800   7.653
 7246POPC   C1B30439  39.971   2.508   8.553
 7246POPC   C2B30440  39.916   2.553   8.253
 7246POPC   C3B30441  39.981   2.553   7.953
 7246POPC   C4B30442  39.953   2.546   7.653
 7247POPC   NC330443  43.122  26.783   9.453
 7247POPC   PO430444  43.143  26.786   9.153
 7247POPC   GL130445  43.153  26.817   8.853
 7247POPC   GL230446  43.111  26.716   8.853
 7247POPC   C1A30447  43.147  26.840   8.553
 7247POPC   D2A30448  43.099  26.840   8.253
 7247POPC   C3A30449  43.072  26.824   7.953
 7247POPC   C4A30450  43.080  26.847   7.653
 7247POPC   C1B30451  42.983  26.621   8.553
 7247POPC   C2B30452  42.990  26.551   8.253
 7247POPC   C3B30453  42.984  26.585   7.953
 7247POPC   C4B30454  43.011  26.628   7.653
 7248POPC   NC330455  38.456  19.080   9.453
 7248POPC   PO430456  38.438  19.061   9.153
 7248POPC   GL130457  38.407  19.009   8.853
 7248POPC   GL230458  38.589  19.082   8.853
 7248POPC   C1A30459  38.496  19.057   8.553
 7248POPC   D2A30460  38.408  19.030   8.253
 7248POPC   C3A30461  38.483  19.032   7.953
 7248POPC   C4A30462  38.421  19.064   7.653
 7248POPC   C1B30463  38.721  19.114   8.553
 7248POPC   C2B30464  38.718  19.176   8.253
 7248POPC   C3B30465  38.673  19.134   7.953
 7248POPC   C4B30466  38.725  19.102   7.653
 7249POPC   NC330467  38.405   6.611   9.453
 7249POPC   PO430468  38.490   6.664   9.153
 7249POPC   GL130469  38.425   6.615   8.853
 7249POPC   GL230470  38.386   6.687   8.853
 7249POPC   C1A30471  38.422   6.609   8.553
 7249POPC   D2A30472  38.458   6.650   8.253
 7249POPC   C3A30473  38.418   6.640   7.953
 7249POPC   C4A30474  38.410   6.647   7.653
 7249POPC   C1B30475  38.253   6.755   8.553
 7249POPC   C2B30476  38.224   6.752   8.253
 7249POPC   C3B30477  38.227   6.758   7.953
 7249POPC   C4B30478  38.224   6.760   7.653
 7250POPC   NC330479   7.397  29.096   9.453
 7250POPC   PO430480   7.380  29.113   9.153
 7250POPC   GL130481   7.382  29.134   8.853
 7250POPC   GL230482   7.401  29.037   8.853
 7250POPC   C1A30483   7.455  29.132   8.553
 7250POPC   D2A30484   7.406  29.121   8.253
 7250POPC   C3A30485   7.449  29.155   7.953
 7250POPC   C4A30486   7.400  29.137   7.653
 7250POPC   C1B30487   7.381  28.871   8.553
 7250POPC   C2B30488   7.380  28.890   8.253
 7250POPC   C3B30489   7.419  28.912   7.953
 7250POPC   C4B30490   7.449  28.945   7.653
 7251POPC   NC330491  27.557  32.256   9.453
 7251POPC   PO430492  27.638  32.222   9.153
 7251POPC   GL130493  27.608  32.274   8.853
 7251POPC   GL230494  27.679  32.092   8.853
 7251POPC   C1A30495  27.643  32.221   8.553
 7251POPC   D2A30496  27.601  32.272   8.253
 7251POPC   C3A30497  27.564  32.266   7.953
 7251POPC   C4A30498  27.600  32.242   7.653
 7251POPC   C1B30499  27.643  31.966   8.553
 7251POPC   C2B30500  27.663  32.001   8.253
 7251POPC   C3B30501  27.715  32.050   7.953
 7251POPC   C4B30502  27.733  31.982   7.653
 7252POPC   NC330503   9.789  37.671   9.453
 7252POPC   PO430504   9.698  37.711   9.153
 7252POPC   GL130505   9.779  37.662   8.853
 7252POPC   GL230506   9.679  37.623   8.853
 7252POPC   C1A30507   9.787  37.696   8.553
 7252POPC   D2A30508   9.744  37.699   8.253
 7252POPC   C3A30509   9.785  37.695   7.953
 7252POPC   C4A30510   9.717  37.653   7.653
 7252POPC   C1B30511   9.572  37.535   8.553
 7252POPC   C2B30512   9.585  37.473   8.253
 7252POPC   C3B30513   9.606  37.476   7.953
 7252POPC   C4B30514   9.585  37.548   7.653
 7253POPC   NC330515  20.635  40.750   9.453
 7253POPC   PO430516  20.598  40.790   9.153
 7253POPC   GL130517  20.608  40.811   8.853
 7253POPC   GL230518  20.633  40.877   8.853
 7253POPC   C1A30519  20.573  40.795   8.553
 7253POPC   D2A30520  20.613  40.830   8.253
 7253POPC   C3A30521  20.636  40.817   7.953
 7253POPC   C4A30522  20.618  40.828   7.653
 7253POPC   C1B30523  20.603  40.991   8.553
 7253POPC   C2B30524  20.678  41.072   8.253
 7253POPC   C3B30525  20.647  41.027   7.953
 7253POPC   C4B30526  20.630  40.993   7.653
 7254POPC   NC330527  39.233  36.105   9.453
 7254POPC   PO430528  39.259  36.081   9.153
 7254POPC   GL130529  39.231  36.151   8.853
 7254POPC   GL230530  39.174  36.074   8.853
 7254POPC   C1A30531  39.243  36.142   8.553
 7254POPC   D2A30532  39.220  36.102   8.253
 7254POPC   C3A30533  39.202  36.079   7.953
 7254POPC   C4A30534  39.196  36.137   7.653
 7254POPC   C1B30535  39.093  35.900   8.553
 7254POPC   C2B30536  39.105  35.929   8.253
 7254POPC   C3B30537  39.075  35.928   7.953
 7254POPC   C4B30538  39.059  35.942   7.653
 7255POPC   NC330539  34.585  25.241   9.453
 7255POPC   PO430540  34.570  25.239   9.153
 7255POPC   GL130541  34.595  25.292   8.853
 7255POPC   GL230542  34.516  25.377   8.853
 7255POPC   C1A30543  34.550  25.276   8.553
 7255POPC   D2A30544  34.591  25.304   8.253
 7255POPC   C3A30545  34.531  25.293   7.953
 7255POPC   C4A30546  34.590  25.296   7.653
 7255POPC   C1B30547  34.342  25.437   8.553
 7255POPC   C2B30548  34.367  25.375   8.253
 7255POPC   C3B30549  34.371  25.459   7.953
 7255POPC   C4B30550  34.332  25.436   7.653
 7256POPC   NC330551  29.140  24.527   9.453
 7256POPC   PO430552  29.150  24.516   9.153
 7256POPC   GL130553  29.123  24.459   8.853
 7256POPC   GL230554  29.317  24.462   8.853
 7256POPC   C1A30555  29.098  24.519   8.553
 7256POPC   D2A30556  29.126  24.512   8.253
 7256POPC   C3A30557  29.146  24.480   7.953
 7256POPC   C4A30558  29.097  24.504   7.653
 7256POPC   C1B30559  29.382  24.542   8.553
 7256POPC   C2B30560  29.374  24.491   8.253
 7256POPC   C3B30561  29.402  24.524   7.953
 7256POPC   C4B30562  29.347  24.533   7.653
 7257POPC   NC330563  29.926  33.849   9.453
 7257POPC   PO430564  29.952  33.801   9.153
 7257POPC   GL130565  29.944  33.775   8.853
 7257POPC   GL230566  29.752  33.740   8.853
 7257POPC   C1A30567  29.961  33.755   8.553
 7257POPC   D2A30568  29.950  33.814   8.253
 7257POPC   C3A30569  29.896  33.848   7.953
 7257POPC   C4A30570  29.930  33.788   7.653
 7257POPC   C1B30571  29.637  33.725   8.553
 7257POPC   C2B30572  29.649  33.774   8.253
 7257POPC   C3B30573  29.627  33.771   7.953
 7257POPC   C4B30574  29.696  33.781   7.653
 7258POPC   NC330575  10.491  19.104   9.453
 7258POPC   PO430576  10.525  19.031   9.153
 7258POPC   GL130577  10.511  19.064   8.853
 7258POPC   GL230578  10.411  19.118   8.853
 7258POPC   C1A30579  10.547  19.103   8.553
 7258POPC   D2A30580  10.547  19.030   8.253
 7258POPC   C3A30581  10.504  19.084   7.953
 7258POPC   C4A30582  10.549  19.030   7.653
 7258POPC   C1B30583  10.304  19.198   8.553
 7258POPC   C2B30584  10.365  19.236   8.253
 7258POPC   C3B30585  10.340  19.223   7.953
 7258POPC   C4B30586  10.311  19.204   7.653
 7259POPC   NC330587  43.861  32.239   9.453
 7259POPC   PO430588  43.870  32.292   9.153
 7259POPC   GL130589  43.913  32.229   8.853
 7259POPC   GL230590  43.993  32.218   8.853
 7259POPC   C1A30591  43.922  32.256   8.553
 7259POPC   D2A30592  43.889  32.251   8.253
 7259POPC   C3A30593  43.881  32.266   7.953
 7259POPC   C4A30594  43.865  32.266   7.653
 7259POPC   C1B30595  44.101  32.134   8.553
 7259POPC   C2B30596  44.085  32.190   8.253
 7259POPC   C3B30597  44.082  32.134   7.953
 7259POPC   C4B30598  44.144  32.154   7.653
 7260POPC   NC330599  27.633  34.581   9.453
 7260POPC   PO430600  27.576  34.537   9.153
 7260POPC   GL130601  27.547  34.547   8.853
 7260POPC   GL230602  27.471  34.705   8.853
 7260POPC   C1A30603  27.637  34.597   8.553
 7260POPC   D2A30604  27.582  34.571   8.253
 7260POPC   C3A30605  27.544  34.554   7.953
 7260POPC   C4A30606  27.634  34.584   7.653
 7260POPC   C1B30607  27.425  34.793   8.553
 7260POPC   C2B30608  27.403  34.760   8.253
 7260POPC   C3B30609  27.383  34.723   7.953
 7260POPC   C4B30610  27.403  34.771   7.653
 7261POPC   NC330611  42.319  25.255   9.453
 7261POPC   PO430612  42.353  25.233   9.153
 7261POPC   GL130613  42.321  25.270   8.853
 7261POPC   GL230614  42.475  25.282   8.853
 7261POPC   C1A30615  42.331  25.312   8.553
 7261POPC   D2A30616  42.374  25.227   8.253
 7261POPC   C3A30617  42.382  25.234   7.953
 7261POPC   C4A30618  42.347  25.221   7.653
 7261POPC   C1B30619  42.592  25.426   8.553
 7261POPC   C2B30620  42.546  25.343   8.253
 7261POPC   C3B30621  42.540  25.418   7.953
 7261POPC   C4B30622  42.535  25.339   7.653
 7262POPC   NC330623   5.140   8.195   9.453
 7262POPC   PO430624   5.090   8.183   9.153
 7262POPC   GL130625   5.138   8.225   8.853
 7262POPC   GL230626   5.053   8.120   8.853
 7262POPC   C1A30627   5.078   8.150   8.553
 7262POPC   D2A30628   5.108   8.149   8.253
 7262POPC   C3A30629   5.100   8.184   7.953
 7262POPC   C4A30630   5.129   8.174   7.653
 7262POPC   C1B30631   4.924   8.036   8.553
 7262POPC   C2B30632   4.923   7.967   8.253
 7262POPC   C3B30633   4.974   7.968   7.953
 7262POPC   C4B30634   4.893   8.013   7.653
 7263POPC   NC330635   1.180   5.876   9.453
 7263POPC   PO430636   1.191   5.857   9.153
 7263POPC   GL130637   1.184   5.911   8.853
 7263POPC   GL230638   1.129   5.913   8.853
 7263POPC   C1A30639   1.179   5.916   8.553
 7263POPC   D2A30640   1.260   5.832   8.253
 7263POPC   C3A30641   1.169   5.872   7.953
 7263POPC   C4A30642   1.257   5.878   7.653
 7263POPC   C1B30643   0.995   5.963   8.553
 7263POPC   C2B30644   0.999   5.925   8.253
 7263POPC   C3B30645   0.957   5.999   7.953
 7263POPC   C4B30646   1.010   5.977   7.653
 7264POPC   NC330647  40.747  16.707   9.453
 7264POPC   PO430648  40.754  16.743   9.153
 7264POPC   GL130649  40.811  16.714   8.853
 7264POPC   GL230650  40.682  16.740   8.853
 7264POPC   C1A30651  40.828  16.770   8.553
 7264POPC   D2A30652  40.763  16.697   8.253
 7264POPC   C3A30653  40.797  16.769   7.953
 7264POPC   C4A30654  40.776  16.745   7.653
 7264POPC   C1B30655  40.553  16.810   8.553
 7264POPC   C2B30656  40.519  16.867   8.253
 7264POPC   C3B30657  40.542  16.820   7.953
 7264POPC   C4B30658  40.518  16.824   7.653
 7265POPC   NC330659  30.685  33.791   9.453
 7265POPC   PO430660  30.680  33.762   9.153
 7265POPC   GL130661  30.659  33.847   8.853
 7265POPC   GL230662  30.584  33.778   8.853
 7265POPC   C1A30663  30.679  33.792   8.553
 7265POPC   D2A30664  30.694  33.817   8.253
 7265POPC   C3A30665  30.724  33.763   7.953
 7265POPC   C4A30666  30.662  33.778   7.653
 7265POPC   C1B30667  30.477  33.676   8.553
 7265POPC   C2B30668  30.483  33.634   8.253
 7265POPC   C3B30669  30.492  33.719   7.953
 7265POPC   C4B30670  30.511  33.694   7.653
 7266POPC   NC330671  33.042   8.182   9.453
 7266POPC   PO430672  33.058   8.151   9.153
 7266POPC   GL130673  33.018   8.204   8.853
 7266POPC   GL230674  32.949   8.209   8.853
 7266POPC   C1A30675  33.041   8.243   8.553
 7266POPC   D2A30676  32.975   8.161   8.253
 7266POPC   C3A30677  32.978   8.246   7.953
 7266POPC   C4A30678  32.975   8.149   7.653
 7266POPC   C1B30679  32.739   8.284   8.553
 7266POPC   C2B30680  32.804   8.214   8.253
 7266POPC   C3B30681  32.830   8.244   7.953
 7266POPC   C4B30682  32.794   8.256   7.653
 7267POPC   NC330683  23.699  43.063   9.453
 7267POPC   PO430684  23.763  43.105   9.153
 7267POPC   GL130685  23.672  43.082   8.853
 7267POPC   GL230686  23.762  43.243   8.853
 7267POPC   C1A30687  23.746  43.073   8.553
 7267POPC   D2A30688  23.665  43.094   8.253
 7267POPC   C3A30689  23.711  43.073   7.953
 7267POPC   C4A30690  23.723  43.151   7.653
 7267POPC   C1B30691  23.771  43.375   8.553
 7267POPC   C2B30692  23.764  43.315   8.253
 7267POPC   C3B30693  23.817  43.380   7.953
 7267POPC   C4B30694  23.828  43.308   7.653
 7268POPC   NC330695  15.224  25.219   9.453
 7268POPC   PO430696  15.217  25.238   9.153
 7268POPC   GL130697  15.145  25.242   8.853
 7268POPC   GL230698  15.249  25.106   8.853
 7268POPC   C1A30699  15.137  25.236   8.553
 7268POPC   D2A30700  15.178  25.289   8.253
 7268POPC   C3A30701  15.191  25.244   7.953
 7268POPC   C4A30702  15.167  25.257   7.653
 7268POPC   C1B30703  15.294  25.019   8.553
 7268POPC   C2B30704  15.249  25.005   8.253
 7268POPC   C3B30705  15.233  24.998   7.953
 7268POPC   C4B30706  15.281  25.001   7.653
 7269POPC   NC330707  12.864   7.412   9.453
 7269POPC   PO430708  12.888   7.455   9.153
 7269POPC   GL130709  12.891   7.410   8.853
 7269POPC   GL230710  12.741   7.436   8.853
 7269POPC   C1A30711  12.856   7.410   8.553
 7269POPC   D2A30712  12.805   7.424   8.253
 7269POPC   C3A30713  12.844   7.439   7.953
 7269POPC   C4A30714  12.869   7.397   7.653
 7269POPC   C1B30715  12.613   7.514   8.553
 7269POPC   C2B30716  12.672   7.492   8.253
 7269POPC   C3B30717  12.614   7.572   7.953
 7269POPC   C4B30718  12.666   7.512   7.653
 7270POPC   NC330719  24.494  18.309   9.453
 7270POPC   PO430720  24.470  18.277   9.153
 7270POPC   GL130721  24.494  18.233   8.853
 7270POPC   GL230722  24.551  18.151   8.853
 7270POPC   C1A30723  24.491  18.305   8.553
 7270POPC   D2A30724  24.441  18.234   8.253
 7270POPC   C3A30725  24.467  18.283   7.953
 7270POPC   C4A30726  24.526  18.301   7.653
 7270POPC   C1B30727  24.588  18.070   8.553
 7270POPC   C2B30728  24.609  18.033   8.253
 7270POPC   C3B30729  24.620  18.062   7.953
 7270POPC   C4B30730  24.578  18.029   7.653
 7271POPC   NC330731  16.721   9.755   9.453
 7271POPC   PO430732  16.729   9.781   9.153
 7271POPC   GL130733  16.703   9.765   8.853
 7271POPC   GL230734  16.865   9.802   8.853
 7271POPC   C1A30735  16.747   9.702   8.553
 7271POPC   D2A30736  16.711   9.717   8.253
 7271POPC   C3A30737  16.758   9.792   7.953
 7271POPC   C4A30738  16.688   9.776   7.653
 7271POPC   C1B30739  16.955   9.864   8.553
 7271POPC   C2B30740  16.920   9.832   8.253
 7271POPC   C3B30741  17.006   9.826   7.953
 7271POPC   C4B30742  16.924   9.837   7.653
 7272POPC   NC330743   0.469  36.915   9.453
 7272POPC   PO430744   0.427  36.930   9.153
 7272POPC   GL130745   0.421  36.928   8.853
 7272POPC   GL230746   0.595  36.879   8.853
 7272POPC   C1A30747   0.447  36.950   8.553
 7272POPC   D2A30748   0.439  36.926   8.253
 7272POPC   C3A30749   0.462  36.903   7.953
 7272POPC   C4A30750   0.453  36.856   7.653
 7272POPC   C1B30751   0.695  36.865   8.553
 7272POPC   C2B30752   0.712  36.863   8.253
 7272POPC   C3B30753   0.679  36.893   7.953
 7272POPC   C4B30754   0.652  36.867   7.653
 7273POPC   NC330755  23.717  41.527   9.453
 7273POPC   PO430756  23.687  41.537   9.153
 7273POPC   GL130757  23.692  41.529   8.853
 7273POPC   GL230758  23.791  41.676   8.853
 7273POPC   C1A30759  23.689  41.547   8.553
 7273POPC   D2A30760  23.738  41.523   8.253
 7273POPC   C3A30761  23.734  41.515   7.953
 7273POPC   C4A30762  23.717  41.599   7.653
 7273POPC   C1B30763  23.940  41.762   8.553
 7273POPC   C2B30764  23.893  41.722   8.253
 7273POPC   C3B30765  23.916  41.686   7.953
 7273POPC   C4B30766  23.902  41.748   7.653
 7274POPC   NC330767  34.531  33.819   9.453
 7274POPC   PO430768  34.561  33.790   9.153
 7274POPC   GL130769  34.571  33.819   8.853
 7274POPC   GL230770  34.589  33.906   8.853
 7274POPC   C1A30771  34.603  33.850   8.553
 7274POPC   D2A30772  34.541  33.753   8.253
 7274POPC   C3A30773  34.625  33.815   7.953
 7274POPC   C4A30774  34.553  33.842   7.653
 7274POPC   C1B30775  34.580  34.098   8.553
 7274POPC   C2B30776  34.594  34.053   8.253
 7274POPC   C3B30777  34.619  34.002   7.953
 7274POPC   C4B30778  34.580  34.014   7.653
 7275POPC   NC330779  17.507  11.288   9.453
 7275POPC   PO430780  17.532  11.314   9.153
 7275POPC   GL130781  17.524  11.314   8.853
 7275POPC   GL230782  17.463  11.199   8.853
 7275POPC   C1A30783  17.498  11.270   8.553
 7275POPC   D2A30784  17.550  11.290   8.253
 7275POPC   C3A30785  17.471  11.280   7.953
 7275POPC   C4A30786  17.504  11.311   7.653
 7275POPC   C1B30787  17.392  11.072   8.553
 7275POPC   C2B30788  17.342  11.051   8.253
 7275POPC   C3B30789  17.369  11.095   7.953
 7275POPC   C4B30790  17.382  11.100   7.653
 7276POPC   NC330791   4.367  28.322   9.453
 7276POPC   PO430792   4.276  28.355   9.153
 7276POPC   GL130793   4.332  28.412   8.853
 7276POPC   GL230794   4.410  28.325   8.853
 7276POPC   C1A30795   4.296  28.339   8.553
 7276POPC   D2A30796   4.325  28.343   8.253
 7276POPC   C3A30797   4.321  28.340   7.953
 7276POPC   C4A30798   4.291  28.386   7.653
 7276POPC   C1B30799   4.611  28.352   8.553
 7276POPC   C2B30800   4.592  28.362   8.253
 7276POPC   C3B30801   4.605  28.354   7.953
 7276POPC   C4B30802   4.524  28.352   7.653
 7277POPC   NC330803  30.659  26.857   9.453
 7277POPC   PO430804  30.711  26.862   9.153
 7277POPC   GL130805  30.649  26.850   8.853
 7277POPC   GL230806  30.640  26.941   8.853
 7277POPC   C1A30807  30.669  26.804   8.553
 7277POPC   D2A30808  30.730  26.862   8.253
 7277POPC   C3A30809  30.651  26.797   7.953
 7277POPC   C4A30810  30.687  26.799   7.653
 7277POPC   C1B30811  30.583  27.089   8.553
 7277POPC   C2B30812  30.558  27.092   8.253
 7277POPC   C3B30813  30.629  27.052   7.953
 7277POPC   C4B30814  30.642  27.014   7.653
 7278POPC   NC330815  24.485  28.395   9.453
 7278POPC   PO430816  24.489  28.342   9.153
 7278POPC   GL130817  24.442  28.400   8.853
 7278POPC   GL230818  24.426  28.232   8.853
 7278POPC   C1A30819  24.498  28.394   8.553
 7278POPC   D2A30820  24.467  28.334   8.253
 7278POPC   C3A30821  24.519  28.351   7.953
 7278POPC   C4A30822  24.496  28.389   7.653
 7278POPC   C1B30823  24.339  28.144   8.553
 7278POPC   C2B30824  24.345  28.152   8.253
 7278POPC   C3B30825  24.307  28.183   7.953
 7278POPC   C4B30826  24.383  28.133   7.653
 7279POPC   NC330827  39.994  29.102   9.453
 7279POPC   PO430828  39.988  29.147   9.153
 7279POPC   GL130829  39.975  29.134   8.853
 7279POPC   GL230830  40.059  29.277   8.853
 7279POPC   C1A30831  40.037  29.096   8.553
 7279POPC   D2A30832  39.975  29.124   8.253
 7279POPC   C3A30833  40.057  29.100   7.953
 7279POPC   C4A30834  40.017  29.128   7.653
 7279POPC   C1B30835  40.179  29.361   8.553
 7279POPC   C2B30836  40.160  29.377   8.253
 7279POPC   C3B30837  40.130  29.323   7.953
 7279POPC   C4B30838  40.154  29.351   7.653
 7280POPC   NC330839   1.969  38.419   9.453
 7280POPC   PO430840   1.966  38.500   9.153
 7280POPC   GL130841   1.952  38.422   8.853
 7280POPC   GL230842   1.905  38.496   8.853
 7280POPC   C1A30843   1.966  38.440   8.553
 7280POPC   D2A30844   2.013  38.419   8.253
 7280POPC   C3A30845   2.017  38.501   7.953
 7280POPC   C4A30846   1.995  38.489   7.653
 7280POPC   C1B30847   1.762  38.579   8.553
 7280POPC   C2B30848   1.749  38.583   8.253
 7280POPC   C3B30849   1.810  38.601   7.953
 7280POPC   C4B30850   1.754  38.565   7.653
 7281POPC   NC330851  17.556   2.720   9.453
 7281POPC   PO430852  17.524   2.777   9.153
 7281POPC   GL130853  17.515   2.749   8.853
 7281POPC   GL230854  17.588   2.844   8.853
 7281POPC   C1A30855  17.494   2.765   8.553
 7281POPC   D2A30856  17.478   2.755   8.253
 7281POPC   C3A30857  17.480   2.746   7.953
 7281POPC   C4A30858  17.488   2.717   7.653
 7281POPC   C1B30859  17.713   2.889   8.553
 7281POPC   C2B30860  17.685   2.861   8.253
 7281POPC   C3B30861  17.769   2.912   7.953
 7281POPC   C4B30862  17.747   2.843   7.653
 7282POPC   NC330863  13.635  43.111   9.453
 7282POPC   PO430864  13.647  43.108   9.153
 7282POPC   GL130865  13.620  43.142   8.853
 7282POPC   GL230866  13.575  43.250   8.853
 7282POPC   C1A30867  13.602  43.141   8.553
 7282POPC   D2A30868  13.589  43.153   8.253
 7282POPC   C3A30869  13.625  43.078   7.953
 7282POPC   C4A30870  13.607  43.082   7.653
 7282POPC   C1B30871  13.623  43.361   8.553
 7282POPC   C2B30872  13.629  43.393   8.253
 7282POPC   C3B30873  13.618  43.328   7.953
 7282POPC   C4B30874  13.606  43.365   7.653
 7283POPC   NC330875  28.409  39.193   9.453
 7283POPC   PO430876  28.404  39.207   9.153
 7283POPC   GL130877  28.370  39.255   8.853
 7283POPC   GL230878  28.490  39.109   8.853
 7283POPC   C1A30879  28.398  39.279   8.553
 7283POPC   D2A30880  28.351  39.210   8.253
 7283POPC   C3A30881  28.332  39.245   7.953
 7283POPC   C4A30882  28.350  39.251   7.653
 7283POPC   C1B30883  28.506  38.999   8.553
 7283POPC   C2B30884  28.570  39.048   8.253
 7283POPC   C3B30885  28.483  39.068   7.953
 7283POPC   C4B30886  28.494  39.002   7.653
 7284POPC   NC330887  19.814  28.410   9.453
 7284POPC   PO430888  19.880  28.418   9.153
 7284POPC   GL130889  19.877  28.336   8.853
 7284POPC   GL230890  19.846  28.530   8.853
 7284POPC   C1A30891  19.797  28.400   8.553
 7284POPC   D2A30892  19.860  28.355   8.253
 7284POPC   C3A30893  19.873  28.331   7.953
 7284POPC   C4A30894  19.872  28.347   7.653
 7284POPC   C1B30895  19.868  28.639   8.553
 7284POPC   C2B30896  19.871  28.644   8.253
 7284POPC   C3B30897  19.904  28.663   7.953
 7284POPC   C4B30898  19.880  28.609   7.653
 7285POPC   NC330899   2.807  11.279   9.453
 7285POPC   PO430900   2.755  11.332   9.153
 7285POPC   GL130901   2.800  11.295   8.853
 7285POPC   GL230902   2.891  11.244   8.853
 7285POPC   C1A30903   2.805  11.330   8.553
 7285POPC   D2A30904   2.731  11.342   8.253
 7285POPC   C3A30905   2.775  11.325   7.953
 7285POPC   C4A30906   2.783  11.334   7.653
 7285POPC   C1B30907   2.944  11.196   8.553
 7285POPC   C2B30908   2.945  11.217   8.253
 7285POPC   C3B30909   2.939  11.217   7.953
 7285POPC   C4B30910   3.015  11.153   7.653
 7286POPC   NC330911  43.139  39.201   9.453
 7286POPC   PO430912  43.122  39.215   9.153
 7286POPC   GL130913  43.068  39.281   8.853
 7286POPC   GL230914  42.951  39.273   8.853
 7286POPC   C1A30915  43.132  39.197   8.553
 7286POPC   D2A30916  43.062  39.214   8.253
 7286POPC   C3A30917  43.063  39.253   7.953
 7286POPC   C4A30918  43.160  39.192   7.653
 7286POPC   C1B30919  42.864  39.277   8.553
 7286POPC   C2B30920  42.886  39.313   8.253
 7286POPC   C3B30921  42.842  39.301   7.953
 7286POPC   C4B30922  42.872  39.320   7.653
 7287POPC   NC330923  10.492   4.291   9.453
 7287POPC   PO430924  10.546   4.295   9.153
 7287POPC   GL130925  10.513   4.323   8.853
 7287POPC   GL230926  10.548   4.484   8.853
 7287POPC   C1A30927  10.515   4.300   8.553
 7287POPC   D2A30928  10.482   4.345   8.253
 7287POPC   C3A30929  10.530   4.325   7.953
 7287POPC   C4A30930  10.563   4.328   7.653
 7287POPC   C1B30931  10.529   4.545   8.553
 7287POPC   C2B30932  10.531   4.596   8.253
 7287POPC   C3B30933  10.583   4.527   7.953
 7287POPC   C4B30934  10.524   4.574   7.653
 7288POPC   NC330935  30.729  12.072   9.453
 7288POPC   PO430936  30.696  12.087   9.153
 7288POPC   GL130937  30.709  12.124   8.853
 7288POPC   GL230938  30.706  12.150   8.853
 7288POPC   C1A30939  30.657  12.042   8.553
 7288POPC   D2A30940  30.676  12.095   8.253
 7288POPC   C3A30941  30.685  12.072   7.953
 7288POPC   C4A30942  30.657  12.106   7.653
 7288POPC   C1B30943  30.754  12.349   8.553
 7288POPC   C2B30944  30.778  12.272   8.253
 7288POPC   C3B30945  30.747  12.283   7.953
 7288POPC   C4B30946  30.777  12.304   7.653
 7289POPC   NC330947  22.894  38.459   9.453
 7289POPC   PO430948  22.925  38.450   9.153
 7289POPC   GL130949  22.921  38.491   8.853
 7289POPC   GL230950  22.876  38.389   8.853
 7289POPC   C1A30951  22.962  38.500   8.553
 7289POPC   D2A30952  22.908  38.505   8.253
 7289POPC   C3A30953  22.925  38.423   7.953
 7289POPC   C4A30954  22.898  38.505   7.653
 7289POPC   C1B30955  22.834  38.212   8.553
 7289POPC   C2B30956  22.793  38.206   8.253
 7289POPC   C3B30957  22.816  38.207   7.953
 7289POPC   C4B30958  22.870  38.227   7.653
 7290POPC   NC330959   0.443  22.955   9.453
 7290POPC   PO430960   0.411  22.974   9.153
 7290POPC   GL130961   0.466  22.906   8.853
 7290POPC   GL230962   0.471  22.785   8.853
 7290POPC   C1A30963   0.452  22.948   8.553
 7290POPC   D2A30964   0.486  22.920   8.253
 7290POPC   C3A30965   0.426  22.939   7.953
 7290POPC   C4A30966   0.438  22.931   7.653
 7290POPC   C1B30967   0.507  22.679   8.553
 7290POPC   C2B30968   0.464  22.673   8.253
 7290POPC   C3B30969   0.467  22.651   7.953
 7290POPC   C4B30970   0.530  22.686   7.653
 7291POPC   NC330971   7.424  20.641   9.453
 7291POPC   PO430972   7.375  20.647   9.153
 7291POPC   GL130973   7.458  20.657   8.853
 7291POPC   GL230974   7.440  20.495   8.853
 7291POPC   C1A30975   7.465  20.621   8.553
 7291POPC   D2A30976   7.423  20.654   8.253
 7291POPC   C3A30977   7.434  20.577   7.953
 7291POPC   C4A30978   7.375  20.614   7.653
 7291POPC   C1B30979   7.505  20.403   8.553
 7291POPC   C2B30980   7.544  20.431   8.253
 7291POPC   C3B30981   7.562  20.375   7.953
 7291POPC   C4B30982   7.504  20.384   7.653
 7292POPC   NC330983  12.803   8.978   9.453
 7292POPC   PO430984  12.857   9.008   9.153
 7292POPC   GL130985  12.837   8.924   8.853
 7292POPC   GL230986  12.797   9.050   8.853
 7292POPC   C1A30987  12.879   8.969   8.553
 7292POPC   D2A30988  12.835   8.948   8.253
 7292POPC   C3A30989  12.831   8.925   7.953
 7292POPC   C4A30990  12.838   8.987   7.653
 7292POPC   C1B30991  12.790   9.247   8.553
 7292POPC   C2B30992  12.762   9.211   8.253
 7292POPC   C3B30993  12.804   9.175   7.953
 7292POPC   C4B30994  12.800   9.251   7.653
 7293POPC   NC330995   7.438  34.549   9.453
 7293POPC   PO430996   7.442  34.527   9.153
 7293POPC   GL130997   7.469  34.534   8.853
 7293POPC   GL230998   7.551  34.611   8.853
 7293POPC   C1A30999   7.443  34.552   8.553
 7293POPC   D2A31000   7.455  34.557   8.253
 7293POPC   C3A31001   7.416  34.579   7.953
 7293POPC   C4A31002   7.468  34.615   7.653
 7293POPC   C1B31003   7.684  34.584   8.553
 7293POPC   C2B31004   7.675  34.594   8.253
 7293POPC   C3B31005   7.658  34.613   7.953
 7293POPC   C4B31006   7.641  34.604   7.653
 7294POPC   NC331007  30.664  33.047   9.453
 7294POPC   PO431008  30.727  33.059   9.153
 7294POPC   GL131009  30.698  33.009   8.853
 7294POPC   GL231010  30.747  32.933   8.853
 7294POPC   C1A31011  30.659  33.037   8.553
 7294POPC   D2A31012  30.658  33.057   8.253
 7294POPC   C3A31013  30.736  33.048   7.953
 7294POPC   C4A31014  30.738  33.047   7.653
 7294POPC   C1B31015  30.810  32.819   8.553
 7294POPC   C2B31016  30.762  32.827   8.253
 7294POPC   C3B31017  30.770  32.745   7.953
 7294POPC   C4B31018  30.749  32.838   7.653
 7295POPC   NC331019  10.484  38.420   9.453
 7295POPC   PO431020  10.525  38.434   9.153
 7295POPC   GL131021  10.565  38.434   8.853
 7295POPC   GL231022  10.637  38.550   8.853
 7295POPC   C1A31023  10.478  38.416   8.553
 7295POPC   D2A31024  10.560  38.441   8.253
 7295POPC   C3A31025  10.487  38.471   7.953
 7295POPC   C4A31026  10.485  38.473   7.653
 7295POPC   C1B31027  10.731  38.615   8.553
 7295POPC   C2B31028  10.795  38.546   8.253
 7295POPC   C3B31029  10.794  38.564   7.953
 7295POPC   C4B31030  10.723  38.562   7.653
 7296POPC   NC331031   4.322  44.695   9.453
 7296POPC   PO431032   4.315  44.678   9.153
 7296POPC   GL131033   4.356  44.615   8.853
 7296POPC   GL231034   4.476  44.645   8.853
 7296POPC   C1A31035   4.340  44.646   8.553
 7296POPC   D2A31036   4.316  44.709   8.253
 7296POPC   C3A31037   4.269  44.692   7.953
 7296POPC   C4A31038   4.352  44.653   7.653
 7296POPC   C1B31039   4.517  44.600   8.553
 7296POPC   C2B31040   4.571  44.582   8.253
 7296POPC   C3B31041   4.498  44.569   7.953
 7296POPC   C4B31042   4.565  44.582   7.653
 7297POPC   NC331043  12.118  23.723   9.453
 7297POPC   PO431044  12.071  23.739   9.153
 7297POPC   GL131045  12.097  23.745   8.853
 7297POPC   GL231046  12.163  23.709   8.853
 7297POPC   C1A31047  12.084  23.750   8.553
 7297POPC   D2A31048  12.079  23.696   8.253
 7297POPC   C3A31049  12.096  23.756   7.953
 7297POPC   C4A31050  12.093  23.696   7.653
 7297POPC   C1B31051  12.265  23.792   8.553
 7297POPC   C2B31052  12.270  23.750   8.253
 7297POPC   C3B31053  12.337  23.749   7.953
 7297POPC   C4B31054  12.361  23.776   7.653
 7298POPC   NC331055  29.156   3.516   9.453
 7298POPC   PO431056  29.151   3.559   9.153
 7298POPC   GL131057  29.154   3.545   8.853
 7298POPC   GL231058  29.256   3.483   8.853
 7298POPC   C1A31059  29.161   3.541   8.553
 7298POPC   D2A31060  29.154   3.582   8.253
 7298POPC   C3A31061  29.122   3.570   7.953
 7298POPC   C4A31062  29.165   3.553   7.653
 7298POPC   C1B31063  29.398   3.461   8.553
 7298POPC   C2B31064  29.348   3.480   8.253
 7298POPC   C3B31065  29.426   3.512   7.953
 7298POPC   C4B31066  29.354   3.490   7.653
 7299POPC   NC331067   0.470   7.458   9.453
 7299POPC   PO431068   0.431   7.421   9.153
 7299POPC   GL131069   0.441   7.465   8.853
 7299POPC   GL231070   0.501   7.495   8.853
 7299POPC   C1A31071   0.480   7.376   8.553
 7299POPC   D2A31072   0.425   7.411   8.253
 7299POPC   C3A31073   0.473   7.449   7.953
 7299POPC   C4A31074   0.417   7.383   7.653
 7299POPC   C1B31075   0.604   7.641   8.553
 7299POPC   C2B31076   0.605   7.615   8.253
 7299POPC   C3B31077   0.554   7.612   7.953
 7299POPC   C4B31078   0.545   7.616   7.653
 7300POPC   NC331079  25.288  24.499   9.453
 7300POPC   PO431080  25.246  24.485   9.153
 7300POPC   GL131081  25.231  24.502   8.853
 7300POPC   GL231082  25.203  24.428   8.853
 7300POPC   C1A31083  25.253  24.491   8.553
 7300POPC   D2A31084  25.269  24.495   8.253
 7300POPC   C3A31085  25.223  24.499   7.953
 7300POPC   C4A31086  25.297  24.512   7.653
 7300POPC   C1B31087  25.143  24.254   8.553
 7300POPC   C2B31088  25.179  24.220   8.253
 7300POPC   C3B31089  25.194  24.291   7.953
 7300POPC   C4B31090  25.162  24.234   7.653
 7301POPC   NC331091  26.076  38.465   9.453
 7301POPC   PO431092  26.011  38.487   9.153
 7301POPC   GL131093  26.080  38.457   8.853
 7301POPC   GL231094  25.921  38.583   8.853
 7301POPC   C1A31095  25.994  38.445   8.553
 7301POPC   D2A31096  26.062  38.430   8.253
 7301POPC   C3A31097  26.089  38.458   7.953
 7301POPC   C4A31098  26.026  38.447   7.653
 7301POPC   C1B31099  25.863  38.631   8.553
 7301POPC   C2B31100  25.913  38.666   8.253
 7301POPC   C3B31101  25.865  38.645   7.953
 7301POPC   C4B31102  25.896  38.622   7.653
 7302POPC   NC331103  24.497  34.622   9.453
 7302POPC   PO431104  24.478  34.595   9.153
 7302POPC   GL131105  24.440  34.594   8.853
 7302POPC   GL231106  24.351  34.510   8.853
 7302POPC   C1A31107  24.486  34.621   8.553
 7302POPC   D2A31108  24.486  34.549   8.253
 7302POPC   C3A31109  24.519  34.591   7.953
 7302POPC   C4A31110  24.447  34.562   7.653
 7302POPC   C1B31111  24.286  34.462   8.553
 7302POPC   C2B31112  24.240  34.533   8.253
 7302POPC   C3B31113  24.236  34.539   7.953
 7302POPC   C4B31114  24.272  34.496   7.653
 7303POPC   NC331115  32.989  35.312   9.453
 7303POPC   PO431116  33.051  35.358   9.153
 7303POPC   GL131117  33.058  35.331   8.853
 7303POPC   GL231118  33.167  35.291   8.853
 7303POPC   C1A31119  33.073  35.339   8.553
 7303POPC   D2A31120  33.023  35.355   8.253
 7303POPC   C3A31121  33.064  35.315   7.953
 7303POPC   C4A31122  33.045  35.368   7.653
 7303POPC   C1B31123  33.227  35.180   8.553
 7303POPC   C2B31124  33.174  35.172   8.253
 7303POPC   C3B31125  33.222  35.155   7.953
 7303POPC   C4B31126  33.204  35.233   7.653
 7304POPC   NC331127  15.134   1.214   9.453
 7304POPC   PO431128  15.180   1.166   9.153
 7304POPC   GL131129  15.189   1.218   8.853
 7304POPC   GL231130  15.247   1.130   8.853
 7304POPC   C1A31131  15.165   1.175   8.553
 7304POPC   D2A31132  15.160   1.261   8.253
 7304POPC   C3A31133  15.195   1.246   7.953
 7304POPC   C4A31134  15.225   1.183   7.653
 7304POPC   C1B31135  15.402   1.108   8.553
 7304POPC   C2B31136  15.409   1.107   8.253
 7304POPC   C3B31137  15.444   1.134   7.953
 7304POPC   C4B31138  15.364   1.098   7.653
 7305POPC   NC331139  22.123  11.275   9.453
 7305POPC   PO431140  22.211  11.291   9.153
 7305POPC   GL131141  22.150  11.337   8.853
 7305POPC   GL231142  22.019  11.260   8.853
 7305POPC   C1A31143  22.121  11.337   8.553
 7305POPC   D2A31144  22.131  11.298   8.253
 7305POPC   C3A31145  22.167  11.331   7.953
 7305POPC   C4A31146  22.160  11.320   7.653
 7305POPC   C1B31147  21.918  11.216   8.553
 7305POPC   C2B31148  21.940  11.147   8.253
 7305POPC   C3B31149  21.935  11.181   7.953
 7305POPC   C4B31150  21.949  11.201   7.653
 7306POPC   NC331151  29.103  41.576   9.453
 7306POPC   PO431152  29.144  41.527   9.153
 7306POPC   GL131153  29.147  41.587   8.853
 7306POPC   GL231154  29.074  41.618   8.853
 7306POPC   C1A31155  29.127  41.558   8.553
 7306POPC   D2A31156  29.117  41.609   8.253
 7306POPC   C3A31157  29.100  41.573   7.953
 7306POPC   C4A31158  29.098  41.544   7.653
 7306POPC   C1B31159  28.915  41.701   8.553
 7306POPC   C2B31160  28.958  41.676   8.253
 7306POPC   C3B31161  28.983  41.721   7.953
 7306POPC   C4B31162  28.915  41.734   7.653
 7307POPC   NC331163   3.513  43.073   9.453
 7307POPC   PO431164   3.506  43.073   9.153
 7307POPC   GL131165   3.581  43.068   8.853
 7307POPC   GL231166   3.660  43.064   8.853
 7307POPC   C1A31167   3.515  43.157   8.553
 7307POPC   D2A31168   3.495  43.114   8.253
 7307POPC   C3A31169   3.568  43.063   7.953
 7307POPC   C4A31170   3.573  43.143   7.653
 7307POPC   C1B31171   3.725  42.930   8.553
 7307POPC   C2B31172   3.770  42.944   8.253
 7307POPC   C3B31173   3.702  42.967   7.953
 7307POPC   C4B31174   3.708  42.946   7.653
 7308POPC   NC331175   6.643  37.675   9.453
 7308POPC   PO431176   6.659  37.642   9.153
 7308POPC   GL131177   6.645  37.719   8.853
 7308POPC   GL231178   6.722  37.621   8.853
 7308POPC   C1A31179   6.645  37.698   8.553
 7308POPC   D2A31180   6.670  37.716   8.253
 7308POPC   C3A31181   6.686  37.649   7.953
 7308POPC   C4A31182   6.670  37.630   7.653
 7308POPC   C1B31183   6.901  37.559   8.553
 7308POPC   C2B31184   6.850  37.521   8.253
 7308POPC   C3B31185   6.865  37.549   7.953
 7308POPC   C4B31186   6.832  37.557   7.653
 7309POPC   NC331187  17.520  31.434   9.453
 7309POPC   PO431188  17.552  31.448   9.153
 7309POPC   GL131189  17.499  31.495   8.853
 7309POPC   GL231190  17.656  31.554   8.853
 7309POPC   C1A31191  17.489  31.428   8.553
 7309POPC   D2A31192  17.461  31.451   8.253
 7309POPC   C3A31193  17.538  31.495   7.953
 7309POPC   C4A31194  17.520  31.507   7.653
 7309POPC   C1B31195  17.686  31.646   8.553
 7309POPC   C2B31196  17.727  31.628   8.253
 7309POPC   C3B31197  17.761  31.628   7.953
 7309POPC   C4B31198  17.697  31.560   7.653
 7310POPC   NC331199  30.730   0.417   9.453
 7310POPC   PO431200  30.741   0.479   9.153
 7310POPC   GL131201  30.722   0.483   8.853
 7310POPC   GL231202  30.864   0.501   8.853
 7310POPC   C1A31203  30.684   0.473   8.553
 7310POPC   D2A31204  30.661   0.417   8.253
 7310POPC   C3A31205  30.691   0.451   7.953
 7310POPC   C4A31206  30.651   0.417   7.653
 7310POPC   C1B31207  30.938   0.465   8.553
 7310POPC   C2B31208  30.909   0.484   8.253
 7310POPC   C3B31209  30.993   0.455   7.953
 7310POPC   C4B31210  30.986   0.519   7.653
 7311POPC   NC331211  10.484   9.760   9.453
 7311POPC   PO431212  10.540   9.715   9.153
 7311POPC   GL131213  10.493   9.734   8.853
 7311POPC   GL231214  10.661   9.613   8.853
 7311POPC   C1A31215  10.543   9.716   8.553
 7311POPC   D2A31216  10.481   9.724   8.253
 7311POPC   C3A31217  10.488   9.776   7.953
 7311POPC   C4A31218  10.483   9.766   7.653
 7311POPC   C1B31219  10.707   9.562   8.553
 7311POPC   C2B31220  10.660   9.586   8.253
 7311POPC   C3B31221  10.702   9.589   7.953
 7311POPC   C4B31222  10.658   9.615   7.653
 7312POPC   NC331223  26.777  13.617   9.453
 7312POPC   PO431224  26.844  13.596   9.153
 7312POPC   GL131225  26.838  13.601   8.853
 7312POPC   GL231226  26.729  13.583   8.853
 7312POPC   C1A31227  26.825  13.643   8.553
 7312POPC   D2A31228  26.847  13.584   8.253
 7312POPC   C3A31229  26.824  13.674   7.953
 7312POPC   C4A31230  26.815  13.608   7.653
 7312POPC   C1B31231  26.546  13.537   8.553
 7312POPC   C2B31232  26.575  13.595   8.253
 7312POPC   C3B31233  26.545  13.584   7.953
 7312POPC   C4B31234  26.555  13.611   7.653
 7313POPC   NC331235  13.634   7.436   9.453
 7313POPC   PO431236  13.658   7.454   9.153
 7313POPC   GL131237  13.593   7.424   8.853
 7313POPC   GL231238  13.625   7.540   8.853
 7313POPC   C1A31239  13.617   7.430   8.553
 7313POPC   D2A31240  13.667   7.400   8.253
 7313POPC   C3A31241  13.600   7.385   7.953
 7313POPC   C4A31242  13.627   7.389   7.653
 7313POPC   C1B31243  13.515   7.708   8.553
 7313POPC   C2B31244  13.536   7.709   8.253
 7313POPC   C3B31245  13.557   7.666   7.953
 7313POPC   C4B31246  13.580   7.696   7.653
 7314POPC   NC331247   3.510  40.769   9.453
 7314POPC   PO431248   3.494  40.758   9.153
 7314POPC   GL131249   3.585  40.820   8.853
 7314POPC   GL231250   3.543  40.876   8.853
 7314POPC   C1A31251   3.509  40.806   8.553
 7314POPC   D2A31252   3.511  40.807   8.253
 7314POPC   C3A31253   3.578  40.741   7.953
 7314POPC   C4A31254   3.564  40.739   7.653
 7314POPC   C1B31255   3.597  41.003   8.553
 7314POPC   C2B31256   3.588  41.026   8.253
 7314POPC   C3B31257   3.653  40.983   7.953
 7314POPC   C4B31258   3.603  41.066   7.653
 7315POPC   NC331259   0.458  43.067   9.453
 7315POPC   PO431260   0.411  43.122   9.153
 7315POPC   GL131261   0.401  43.117   8.853
 7315POPC   GL231262   0.332  43.031   8.853
 7315POPC   C1A31263   0.433  43.099   8.553
 7315POPC   D2A31264   0.398  43.121   8.253
 7315POPC   C3A31265   0.469  43.146   7.953
 7315POPC   C4A31266   0.455  43.083   7.653
 7315POPC   C1B31267   0.288  42.911   8.553
 7315POPC   C2B31268   0.306  42.879   8.253
 7315POPC   C3B31269   0.338  42.940   7.953
 7315POPC   C4B31270   0.351  42.852   7.653
 7316POPC   NC331271   1.166  33.041   9.453
 7316POPC   PO431272   1.189  32.990   9.153
 7316POPC   GL131273   1.249  33.047   8.853
 7316POPC   GL231274   1.379  33.020   8.853
 7316POPC   C1A31275   1.178  33.016   8.553
 7316POPC   D2A31276   1.170  33.032   8.253
 7316POPC   C3A31277   1.263  33.006   7.953
 7316POPC   C4A31278   1.186  33.045   7.653
 7316POPC   C1B31279   1.473  33.050   8.553
 7316POPC   C2B31280   1.471  33.087   8.253
 7316POPC   C3B31281   1.474  33.066   7.953
 7316POPC   C4B31282   1.470  33.018   7.653
 7317POPC   NC331283  15.210  10.490   9.453
 7317POPC   PO431284  15.216  10.556   9.153
 7317POPC   GL131285  15.212  10.553   8.853
 7317POPC   GL231286  15.310  10.468   8.853
 7317POPC   C1A31287  15.203  10.514   8.553
 7317POPC   D2A31288  15.194  10.506   8.253
 7317POPC   C3A31289  15.186  10.498   7.953
 7317POPC   C4A31290  15.137  10.493   7.653
 7317POPC   C1B31291  15.429  10.477   8.553
 7317POPC   C2B31292  15.438  10.453   8.253
 7317POPC   C3B31293  15.381  10.499   7.953
 7317POPC   C4B31294  15.416  10.445   7.653
 7318POPC   NC331295   8.205   6.619   9.453
 7318POPC   PO431296   8.189   6.646   9.153
 7318POPC   GL131297   8.183   6.680   8.853
 7318POPC   GL231298   8.164   6.781   8.853
 7318POPC   C1A31299   8.237   6.649   8.553
 7318POPC   D2A31300   8.219   6.656   8.253
 7318POPC   C3A31301   8.157   6.612   7.953
 7318POPC   C4A31302   8.150   6.627   7.653
 7318POPC   C1B31303   8.031   6.887   8.553
 7318POPC   C2B31304   8.010   6.867   8.253
 7318POPC   C3B31305   8.024   6.810   7.953
 7318POPC   C4B31306   8.019   6.813   7.653
 7319POPC   NC331307  24.521  19.023   9.453
 7319POPC   PO431308  24.463  19.053   9.153
 7319POPC   GL131309  24.482  19.087   8.853
 7319POPC   GL231310  24.427  19.000   8.853
 7319POPC   C1A31311  24.524  19.102   8.553
 7319POPC   D2A31312  24.473  19.061   8.253
 7319POPC   C3A31313  24.481  19.064   7.953
 7319POPC   C4A31314  24.461  19.030   7.653
 7319POPC   C1B31315  24.339  18.908   8.553
 7319POPC   C2B31316  24.292  18.867   8.253
 7319POPC   C3B31317  24.370  18.887   7.953
 7319POPC   C4B31318  24.316  18.909   7.653
 7320POPC   NC331319   3.553  36.933   9.453
 7320POPC   PO431320   3.514  36.925   9.153
 7320POPC   GL131321   3.580  36.928   8.853
 7320POPC   GL231322   3.404  36.855   8.853
 7320POPC   C1A31323   3.524  36.889   8.553
 7320POPC   D2A31324   3.514  36.871   8.253
 7320POPC   C3A31325   3.497  36.945   7.953
 7320POPC   C4A31326   3.535  36.931   7.653
 7320POPC   C1B31327   3.284  36.811   8.553
 7320POPC   C2B31328   3.305  36.784   8.253
 7320POPC   C3B31329   3.284  36.772   7.953
 7320POPC   C4B31330   3.308  36.831   7.653
 7321POPC   NC331331   1.966  14.361   9.453
 7321POPC   PO431332   1.946  14.409   9.153
 7321POPC   GL131333   1.947  14.436   8.853
 7321POPC   GL231334   2.132  14.444   8.853
 7321POPC   C1A31335   2.011  14.402   8.553
 7321POPC   D2A31336   2.035  14.443   8.253
 7321POPC   C3A31337   1.953  14.368   7.953
 7321POPC   C4A31338   1.973  14.418   7.653
 7321POPC   C1B31339   2.205  14.558   8.553
 7321POPC   C2B31340   2.222  14.509   8.253
 7321POPC   C3B31341   2.234  14.492   7.953
 7321POPC   C4B31342   2.180  14.574   7.653
 7322POPC   NC331343  32.991  31.426   9.453
 7322POPC   PO431344  32.996  31.501   9.153
 7322POPC   GL131345  33.039  31.432   8.853
 7322POPC   GL231346  32.948  31.634   8.853
 7322POPC   C1A31347  33.055  31.449   8.553
 7322POPC   D2A31348  33.033  31.441   8.253
 7322POPC   C3A31349  33.012  31.451   7.953
 7322POPC   C4A31350  33.045  31.442   7.653
 7322POPC   C1B31351  32.915  31.750   8.553
 7322POPC   C2B31352  33.001  31.731   8.253
 7322POPC   C3B31353  32.996  31.669   7.953
 7322POPC   C4B31354  32.980  31.681   7.653
 7323POPC   NC331355  15.950   5.092   9.453
 7323POPC   PO431356  16.005   5.059   9.153
 7323POPC   GL131357  15.970   5.123   8.853
 7323POPC   GL231358  15.949   5.238   8.853
 7323POPC   C1A31359  15.933   5.085   8.553
 7323POPC   D2A31360  15.929   5.077   8.253
 7323POPC   C3A31361  15.953   5.064   7.953
 7323POPC   C4A31362  15.935   5.120   7.653
 7323POPC   C1B31363  15.977   5.352   8.553
 7323POPC   C2B31364  16.034   5.374   8.253
 7323POPC   C3B31365  16.035   5.371   7.953
 7323POPC   C4B31366  16.014   5.342   7.653
 7324POPC   NC331367   5.080  25.287   9.453
 7324POPC   PO431368   5.112  25.313   9.153
 7324POPC   GL131369   5.084  25.283   8.853
 7324POPC   GL231370   5.165  25.232   8.853
 7324POPC   C1A31371   5.050  25.270   8.553
 7324POPC   D2A31372   5.070  25.243   8.253
 7324POPC   C3A31373   5.096  25.261   7.953
 7324POPC   C4A31374   5.137  25.256   7.653
 7324POPC   C1B31375   5.347  25.177   8.553
 7324POPC   C2B31376   5.309  25.192   8.253
 7324POPC   C3B31377   5.337  25.242   7.953
 7324POPC   C4B31378   5.337  25.238   7.653
 7325POPC   NC331379  26.012  39.184   9.453
 7325POPC   PO431380  25.993  39.248   9.153
 7325POPC   GL131381  26.051  39.217   8.853
 7325POPC   GL231382  25.974  39.110   8.853
 7325POPC   C1A31383  26.090  39.274   8.553
 7325POPC   D2A31384  26.088  39.228   8.253
 7325POPC   C3A31385  25.996  39.230   7.953
 7325POPC   C4A31386  26.059  39.254   7.653
 7325POPC   C1B31387  25.938  39.002   8.553
 7325POPC   C2B31388  25.932  39.038   8.253
 7325POPC   C3B31389  25.978  39.007   7.953
 7325POPC   C4B31390  25.921  39.041   7.653
 7326POPC   NC331391  10.493  12.864   9.453
 7326POPC   PO431392  10.514  12.805   9.153
 7326POPC   GL131393  10.566  12.893   8.853
 7326POPC   GL231394  10.654  12.777   8.853
 7326POPC   C1A31395  10.567  12.858   8.553
 7326POPC   D2A31396  10.538  12.858   8.253
 7326POPC   C3A31397  10.531  12.805   7.953
 7326POPC   C4A31398  10.519  12.868   7.653
 7326POPC   C1B31399  10.791  12.711   8.553
 7326POPC   C2B31400  10.698  12.718   8.253
 7326POPC   C3B31401  10.729  12.700   7.953
 7326POPC   C4B31402  10.785  12.738   7.653
 7327POPC   NC331403  36.901  33.771   9.453
 7327POPC   PO431404  36.855  33.789   9.153
 7327POPC   GL131405  36.860  33.795   8.853
 7327POPC   GL231406  37.036  33.837   8.853
 7327POPC   C1A31407  36.865  33.843   8.553
 7327POPC   D2A31408  36.903  33.797   8.253
 7327POPC   C3A31409  36.944  33.805   7.953
 7327POPC   C4A31410  36.904  33.840   7.653
 7327POPC   C1B31411  37.156  33.901   8.553
 7327POPC   C2B31412  37.139  33.940   8.253
 7327POPC   C3B31413  37.121  33.960   7.953
 7327POPC   C4B31414  37.159  33.890   7.653
 7328POPC   NC331415  18.236   7.417   9.453
 7328POPC   PO431416  18.262   7.385   9.153
 7328POPC   GL131417  18.311   7.398   8.853
 7328POPC   GL231418  18.379   7.502   8.853
 7328POPC   C1A31419  18.262   7.417   8.553
 7328POPC   D2A31420  18.265   7.411   8.253
 7328POPC   C3A31421  18.321   7.426   7.953
 7328POPC   C4A31422  18.308   7.394   7.653
 7328POPC   C1B31423  18.468   7.612   8.553
 7328POPC   C2B31424  18.494   7.573   8.253
 7328POPC   C3B31425  18.487   7.568   7.953
 7328POPC   C4B31426  18.465   7.552   7.653
 7329POPC   NC331427   9.727   3.508   9.453
 7329POPC   PO431428   9.777   3.563   9.153
 7329POPC   GL131429   9.758   3.520   8.853
 7329POPC   GL231430   9.837   3.446   8.853
 7329POPC   C1A31431   9.778   3.579   8.553
 7329POPC   D2A31432   9.795   3.494   8.253
 7329POPC   C3A31433   9.787   3.522   7.953
 7329POPC   C4A31434   9.736   3.499   7.653
 7329POPC   C1B31435   9.882   3.317   8.553
 7329POPC   C2B31436   9.821   3.299   8.253
 7329POPC   C3B31437   9.911   3.320   7.953
 7329POPC   C4B31438   9.828   3.350   7.653
 7330POPC   NC331439   1.186  23.677   9.453
 7330POPC   PO431440   1.227  23.760   9.153
 7330POPC   GL131441   1.255  23.744   8.853
 7330POPC   GL231442   1.302  23.765   8.853
 7330POPC   C1A31443   1.262  23.703   8.553
 7330POPC   D2A31444   1.230  23.694   8.253
 7330POPC   C3A31445   1.239  23.700   7.953
 7330POPC   C4A31446   1.226  23.672   7.653
 7330POPC   C1B31447   1.383  23.816   8.553
 7330POPC   C2B31448   1.464  23.792   8.253
 7330POPC   C3B31449   1.421  23.870   7.953
 7330POPC   C4B31450   1.419  23.793   7.653
 7331POPC   NC331451  35.343   6.646   9.453
 7331POPC   PO431452  35.400   6.693   9.153
 7331POPC   GL131453  35.339   6.692   8.853
 7331POPC   GL231454  35.418   6.775   8.853
 7331POPC   C1A31455  35.323   6.609   8.553
 7331POPC   D2A31456  35.387   6.694   8.253
 7331POPC   C3A31457  35.369   6.647   7.953
 7331POPC   C4A31458  35.313   6.633   7.653
 7331POPC   C1B31459  35.452   6.806   8.553
 7331POPC   C2B31460  35.522   6.859   8.253
 7331POPC   C3B31461  35.445   6.807   7.953
 7331POPC   C4B31462  35.458   6.816   7.653
 7332POPC   NC331463  36.865  22.198   9.453
 7332POPC   PO431464  36.923  22.120   9.153
 7332POPC   GL131465  36.933  22.186   8.853
 7332POPC   GL231466  36.938  22.250   8.853
 7332POPC   C1A31467  36.871  22.153   8.553
 7332POPC   D2A31468  36.938  22.133   8.253
 7332POPC   C3A31469  36.894  22.172   7.953
 7332POPC   C4A31470  36.907  22.153   7.653
 7332POPC   C1B31471  36.961  22.370   8.553
 7332POPC   C2B31472  36.926  22.437   8.253
 7332POPC   C3B31473  36.950  22.444   7.953
 7332POPC   C4B31474  36.928  22.406   7.653
 7333POPC   NC331475  18.301  26.846   9.453
 7333POPC   PO431476  18.307  26.829   9.153
 7333POPC   GL131477  18.301  26.789   8.853
 7333POPC   GL231478  18.307  26.655   8.853
 7333POPC   C1A31479  18.283  26.823   8.553
 7333POPC   D2A31480  18.268  26.834   8.253
 7333POPC   C3A31481  18.243  26.808   7.953
 7333POPC   C4A31482  18.282  26.797   7.653
 7333POPC   C1B31483  18.351  26.613   8.553
 7333POPC   C2B31484  18.389  26.538   8.253
 7333POPC   C3B31485  18.417  26.575   7.953
 7333POPC   C4B31486  18.392  26.545   7.653
 7334POPC   NC331487  43.915  22.113   9.453
 7334POPC   PO431488  43.889  22.154   9.153
 7334POPC   GL131489  43.893  22.145   8.853
 7334POPC   GL231490  43.991  22.239   8.853
 7334POPC   C1A31491  43.861  22.179   8.553
 7334POPC   D2A31492  43.840  22.160   8.253
 7334POPC   C3A31493  43.861  22.157   7.953
 7334POPC   C4A31494  43.855  22.164   7.653
 7334POPC   C1B31495  44.064  22.367   8.553
 7334POPC   C2B31496  44.046  22.361   8.253
 7334POPC   C3B31497  44.121  22.337   7.953
 7334POPC   C4B31498  44.082  22.349   7.653
 7335POPC   NC331499  26.078  12.068   9.453
 7335POPC   PO431500  26.075  12.065   9.153
 7335POPC   GL131501  26.047  12.117   8.853
 7335POPC   GL231502  26.120  11.941   8.853
 7335POPC   C1A31503  26.024  12.076   8.553
 7335POPC   D2A31504  26.062  12.059   8.253
 7335POPC   C3A31505  26.081  12.031   7.953
 7335POPC   C4A31506  26.067  12.030   7.653
 7335POPC   C1B31507  26.175  11.797   8.553
 7335POPC   C2B31508  26.097  11.873   8.253
 7335POPC   C3B31509  26.145  11.810   7.953
 7335POPC   C4B31510  26.167  11.800   7.653
 7336POPC   NC331511  44.684  23.712   9.453
 7336POPC   PO431512  44.653  23.733   9.153
 7336POPC   GL131513  44.673  23.737   8.853
 7336POPC   GL231514  44.737  23.768   8.853
 7336POPC   C1A31515  44.710  23.708   8.553
 7336POPC   D2A31516  44.637  23.744   8.253
 7336POPC   C3A31517  44.644  23.736   7.953
 7336POPC   C4A31518  44.658  23.704   7.653
 7336POPC   C1B31519  44.834  23.867   8.553
 7336POPC   C2B31520  44.842  23.917   8.253
 7336POPC   C3B31521  44.880  23.859   7.953
 7336POPC   C4B31522  44.869  23.873   7.653
 7337POPC   NC331523  36.883  27.627   9.453
 7337POPC   PO431524  36.905  27.595   9.153
 7337POPC   GL131525  36.876  27.565   8.853
 7337POPC   GL231526  37.006  27.522   8.853
 7337POPC   C1A31527  36.898  27.551   8.553
 7337POPC   D2A31528  36.932  27.598   8.253
 7337POPC   C3A31529  36.899  27.624   7.953
 7337POPC   C4A31530  36.914  27.572   7.653
 7337POPC   C1B31531  36.991  27.321   8.553
 7337POPC   C2B31532  36.990  27.366   8.253
 7337POPC   C3B31533  37.023  27.365   7.953
 7337POPC   C4B31534  37.044  27.416   7.653
 7338POPC   NC331535  23.708  39.216   9.453
 7338POPC   PO431536  23.671  39.191   9.153
 7338POPC   GL131537  23.695  39.220   8.853
 7338POPC   GL231538  23.601  39.154   8.853
 7338POPC   C1A31539  23.725  39.242   8.553
 7338POPC   D2A31540  23.697  39.275   8.253
 7338POPC   C3A31541  23.758  39.198   7.953
 7338POPC   C4A31542  23.719  39.267   7.653
 7338POPC   C1B31543  23.457  39.113   8.553
 7338POPC   C2B31544  23.497  39.124   8.253
 7338POPC   C3B31545  23.523  39.079   7.953
 7338POPC   C4B31546  23.523  39.065   7.653
 7339POPC   NC331547  40.039  17.543   9.453
 7339POPC   PO431548  39.980  17.489   9.153
 7339POPC   GL131549  40.029  17.484   8.853
 7339POPC   GL231550  39.941  17.535   8.853
 7339POPC   C1A31551  40.012  17.504   8.553
 7339POPC   D2A31552  39.970  17.516   8.253
 7339POPC   C3A31553  39.970  17.465   7.953
 7339POPC   C4A31554  40.009  17.478   7.653
 7339POPC   C1B31555  39.743  17.626   8.553
 7339POPC   C2B31556  39.794  17.580   8.253
 7339POPC   C3B31557  39.809  17.584   7.953
 7339POPC   C4B31558  39.827  17.642   7.653
 7340POPC   NC331559   9.733   7.469   9.453
 7340POPC   PO431560   9.795   7.453   9.153
 7340POPC   GL131561   9.770   7.404   8.853
 7340POPC   GL231562   9.722   7.278   8.853
 7340POPC   C1A31563   9.776   7.387   8.553
 7340POPC   D2A31564   9.737   7.407   8.253
 7340POPC   C3A31565   9.783   7.398   7.953
 7340POPC   C4A31566   9.759   7.415   7.653
 7340POPC   C1B31567   9.615   7.238   8.553
 7340POPC   C2B31568   9.637   7.214   8.253
 7340POPC   C3B31569   9.595   7.182   7.953
 7340POPC   C4B31570   9.567   7.171   7.653
 7341POPC   NC331571  11.294   2.729   9.453
 7341POPC   PO431572  11.256   2.785   9.153
 7341POPC   GL131573  11.344   2.728   8.853
 7341POPC   GL231574  11.250   2.843   8.853
 7341POPC   C1A31575  11.304   2.808   8.553
 7341POPC   D2A31576  11.273   2.801   8.253
 7341POPC   C3A31577  11.281   2.716   7.953
 7341POPC   C4A31578  11.331   2.788   7.653
 7341POPC   C1B31579  11.178   2.969   8.553
 7341POPC   C2B31580  11.189   2.996   8.253
 7341POPC   C3B31581  11.212   3.022   7.953
 7341POPC   C4B31582  11.209   2.984   7.653
 7342POPC   NC331583  33.819   2.723   9.453
 7342POPC   PO431584  33.835   2.765   9.153
 7342POPC   GL131585  33.840   2.801   8.853
 7342POPC   GL231586  33.700   2.762   8.853
 7342POPC   C1A31587  33.824   2.790   8.553
 7342POPC   D2A31588  33.848   2.768   8.253
 7342POPC   C3A31589  33.759   2.799   7.953
 7342POPC   C4A31590  33.779   2.755   7.653
 7342POPC   C1B31591  33.505   2.729   8.553
 7342POPC   C2B31592  33.524   2.740   8.253
 7342POPC   C3B31593  33.537   2.693   7.953
 7342POPC   C4B31594  33.554   2.725   7.653
 7343POPC   NC331595  29.933   6.657   9.453
 7343POPC   PO431596  29.944   6.667   9.153
 7343POPC   GL131597  29.946   6.689   8.853
 7343POPC   GL231598  30.083   6.661   8.853
 7343POPC   C1A31599  29.883   6.649   8.553
 7343POPC   D2A31600  29.901   6.657   8.253
 7343POPC   C3A31601  29.945   6.685   7.953
 7343POPC   C4A31602  29.890   6.652   7.653
 7343POPC   C1B31603  30.176   6.574   8.553
 7343POPC   C2B31604  30.187   6.647   8.253
 7343POPC   C3B31605  30.153   6.631   7.953
 7343POPC   C4B31606  30.154   6.616   7.653
 7344POPC   NC331607  26.801  40.807   9.453
 7344POPC   PO431608  26.791  40.736   9.153
 7344POPC   GL131609  26.768  40.790   8.853
 7344POPC   GL231610  26.921  40.836   8.853
 7344POPC   C1A31611  26.786  40.744   8.553
 7344POPC   D2A31612  26.846  40.736   8.253
 7344POPC   C3A31613  26.832  40.733   7.953
 7344POPC   C4A31614  26.843  40.771   7.653
 7344POPC   C1B31615  26.976  40.962   8.553
 7344POPC   C2B31616  26.909  40.966   8.253
 7344POPC   C3B31617  26.964  40.976   7.953
 7344POPC   C4B31618  26.993  41.017   7.653
 7345POPC   NC331619   2.007  43.061   9.453
 7345POPC   PO431620   1.954  43.128   9.153
 7345POPC   GL131621   1.985  43.129   8.853
 7345POPC   GL231622   2.084  43.258   8.853
 7345POPC   C1A31623   1.968  43.075   8.553
 7345POPC   D2A31624   2.032  43.127   8.253
 7345POPC   C3A31625   2.037  43.147   7.953
 7345POPC   C4A31626   1.980  43.086   7.653
 7345POPC   C1B31627   2.080  43.355   8.553
 7345POPC   C2B31628   2.162  43.316   8.253
 7345POPC   C3B31629   2.094  43.363   7.953
 7345POPC   C4B31630   2.179  43.359   7.653
 7346POPC   NC331631  29.928  12.120   9.453
 7346POPC   PO431632  29.887  12.110   9.153
 7346POPC   GL131633  29.902  12.038   8.853
 7346POPC   GL231634  29.838  12.050   8.853
 7346POPC   C1A31635  29.954  12.069   8.553
 7346POPC   D2A31636  29.941  12.027   8.253
 7346POPC   C3A31637  29.923  12.073   7.953
 7346POPC   C4A31638  29.921  12.085   7.653
 7346POPC   C1B31639  29.648  12.151   8.553
 7346POPC   C2B31640  29.722  12.115   8.253
 7346POPC   C3B31641  29.674  12.123   7.953
 7346POPC   C4B31642  29.708  12.107   7.653
 7347POPC   NC331643  15.140  22.912   9.453
 7347POPC   PO431644  15.184  22.903   9.153
 7347POPC   GL131645  15.215  22.957   8.853
 7347POPC   GL231646  15.246  22.843   8.853
 7347POPC   C1A31647  15.183  22.926   8.553
 7347POPC   D2A31648  15.167  22.891   8.253
 7347POPC   C3A31649  15.201  22.895   7.953
 7347POPC   C4A31650  15.130  22.933   7.653
 7347POPC   C1B31651  15.398  22.754   8.553
 7347POPC   C2B31652  15.367  22.831   8.253
 7347POPC   C3B31653  15.393  22.750   7.953
 7347POPC   C4B31654  15.363  22.827   7.653
 7348POPC   NC331655   8.979  13.649   9.453
 7348POPC   PO431656   8.972  13.617   9.153
 7348POPC   GL131657   8.979  13.596   8.853
 7348POPC   GL231658   8.851  13.673   8.853
 7348POPC   C1A31659   8.947  13.583   8.553
 7348POPC   D2A31660   8.968  13.600   8.253
 7348POPC   C3A31661   9.000  13.652   7.953
 7348POPC   C4A31662   9.016  13.598   7.653
 7348POPC   C1B31663   8.737  13.771   8.553
 7348POPC   C2B31664   8.812  13.761   8.253
 7348POPC   C3B31665   8.720  13.733   7.953
 7348POPC   C4B31666   8.780  13.740   7.653
 7349POPC   NC331667   5.912  32.245   9.453
 7349POPC   PO431668   5.854  32.256   9.153
 7349POPC   GL131669   5.831  32.213   8.853
 7349POPC   GL231670   5.717  32.323   8.853
 7349POPC   C1A31671   5.910  32.290   8.553
 7349POPC   D2A31672   5.870  32.247   8.253
 7349POPC   C3A31673   5.908  32.222   7.953
 7349POPC   C4A31674   5.840  32.284   7.653
 7349POPC   C1B31675   5.653  32.392   8.553
 7349POPC   C2B31676   5.643  32.335   8.253
 7349POPC   C3B31677   5.638  32.385   7.953
 7349POPC   C4B31678   5.704  32.397   7.653
 7350POPC   NC331679  12.053  40.055   9.453
 7350POPC   PO431680  12.070  39.976   9.153
 7350POPC   GL131681  12.110  39.960   8.853
 7350POPC   GL231682  12.155  40.042   8.853
 7350POPC   C1A31683  12.044  40.029   8.553
 7350POPC   D2A31684  12.042  40.023   8.253
 7350POPC   C3A31685  12.052  40.016   7.953
 7350POPC   C4A31686  12.049  39.967   7.653
 7350POPC   C1B31687  12.351  39.974   8.553
 7350POPC   C2B31688  12.283  39.999   8.253
 7350POPC   C3B31689  12.359  39.978   7.953
 7350POPC   C4B31690  12.282  40.040   7.653
 7351POPC   NC331691  43.107   1.248   9.453
 7351POPC   PO431692  43.122   1.196   9.153
 7351POPC   GL131693  43.112   1.254   8.853
 7351POPC   GL231694  43.224   1.260   8.853
 7351POPC   C1A31695  43.151   1.221   8.553
 7351POPC   D2A31696  43.136   1.217   8.253
 7351POPC   C3A31697  43.130   1.263   7.953
 7351POPC   C4A31698  43.063   1.220   7.653
 7351POPC   C1B31699  43.288   1.453   8.553
 7351POPC   C2B31700  43.233   1.427   8.253
 7351POPC   C3B31701  43.291   1.362   7.953
 7351POPC   C4B31702  43.317   1.410   7.653
 7352POPC   NC331703  40.003  11.273   9.453
 7352POPC   PO431704  39.988  11.268   9.153
 7352POPC   GL131705  39.984  11.284   8.853
 7352POPC   GL231706  40.137  11.286   8.853
 7352POPC   C1A31707  39.979  11.308   8.553
 7352POPC   D2A31708  39.993  11.253   8.253
 7352POPC   C3A31709  40.021  11.264   7.953
 7352POPC   C4A31710  39.986  11.331   7.653
 7352POPC   C1B31711  40.241  11.182   8.553
 7352POPC   C2B31712  40.257  11.168   8.253
 7352POPC   C3B31713  40.173  11.179   7.953
 7352POPC   C4B31714  40.221  11.154   7.653
 7353POPC   NC331715  11.267  30.727   9.453
 7353POPC   PO431716  11.268  30.733   9.153
 7353POPC   GL131717  11.266  30.673   8.853
 7353POPC   GL231718  11.417  30.746   8.853
 7353POPC   C1A31719  11.300  30.659   8.553
 7353POPC   D2A31720  11.343  30.693   8.253
 7353POPC   C3A31721  11.289  30.706   7.953
 7353POPC   C4A31722  11.348  30.653   7.653
 7353POPC   C1B31723  11.475  30.859   8.553
 7353POPC   C2B31724  11.422  30.927   8.253
 7353POPC   C3B31725  11.509  30.926   7.953
 7353POPC   C4B31726  11.411  30.851   7.653
 7354POPC   NC331727  40.041  19.059   9.453
 7354POPC   PO431728  40.019  19.066   9.153
 7354POPC   GL131729  40.014  19.073   8.853
 7354POPC   GL231730  39.967  18.937   8.853
 7354POPC   C1A31731  39.969  19.079   8.553
 7354POPC   D2A31732  40.051  19.099   8.253
 7354POPC   C3A31733  39.994  19.100   7.953
 7354POPC   C4A31734  40.049  19.101   7.653
 7354POPC   C1B31735  39.990  18.793   8.553
 7354POPC   C2B31736  39.922  18.771   8.253
 7354POPC   C3B31737  39.967  18.826   7.953
 7354POPC   C4B31738  39.943  18.766   7.653
 7355POPC   NC331739  39.992  23.666   9.453
 7355POPC   PO431740  40.049  23.680   9.153
 7355POPC   GL131741  40.035  23.736   8.853
 7355POPC   GL231742  40.153  23.776   8.853
 7355POPC   C1A31743  40.003  23.734   8.553
 7355POPC   D2A31744  40.021  23.756   8.253
 7355POPC   C3A31745  39.999  23.706   7.953
 7355POPC   C4A31746  40.013  23.679   7.653
 7355POPC   C1B31747  40.264  23.780   8.553
 7355POPC   C2B31748  40.258  23.833   8.253
 7355POPC   C3B31749  40.268  23.788   7.953
 7355POPC   C4B31750  40.203  23.851   7.653
 7356POPC   NC331751  41.543  19.824   9.453
 7356POPC   PO431752  41.551  19.788   9.153
 7356POPC   GL131753  41.578  19.879   8.853
 7356POPC   GL231754  41.412  19.948   8.853
 7356POPC   C1A31755  41.595  19.874   8.553
 7356POPC   D2A31756  41.579  19.795   8.253
 7356POPC   C3A31757  41.548  19.819   7.953
 7356POPC   C4A31758  41.556  19.794   7.653
 7356POPC   C1B31759  41.313  20.002   8.553
 7356POPC   C2B31760  41.357  19.987   8.253
 7356POPC   C3B31761  41.319  19.981   7.953
 7356POPC   C4B31762  41.332  19.941   7.653
 7357POPC   NC331763  29.182  10.494   9.453
 7357POPC   PO431764  29.137  10.545   9.153
 7357POPC   GL131765  29.142  10.475   8.853
 7357POPC   GL231766  29.050  10.600   8.853
 7357POPC   C1A31767  29.102  10.545   8.553
 7357POPC   D2A31768  29.147  10.554   8.253
 7357POPC   C3A31769  29.162  10.478   7.953
 7357POPC   C4A31770  29.124  10.479   7.653
 7357POPC   C1B31771  28.961  10.630   8.553
 7357POPC   C2B31772  28.942  10.657   8.253
 7357POPC   C3B31773  28.921  10.672   7.953
 7357POPC   C4B31774  28.991  10.698   7.653
 7358POPC   NC331775  21.412  11.336   9.453
 7358POPC   PO431776  21.359  11.325   9.153
 7358POPC   GL131777  21.420  11.254   8.853
 7358POPC   GL231778  21.446  11.269   8.853
 7358POPC   C1A31779  21.368  11.328   8.553
 7358POPC   D2A31780  21.391  11.284   8.253
 7358POPC   C3A31781  21.380  11.289   7.953
 7358POPC   C4A31782  21.436  11.306   7.653
 7358POPC   C1B31783  21.591  11.102   8.553
 7358POPC   C2B31784  21.612  11.167   8.253
 7358POPC   C3B31785  21.537  11.181   7.953
 7358POPC   C4B31786  21.623  11.101   7.653
 7359POPC   NC331787  19.821  18.285   9.453
 7359POPC   PO431788  19.850  18.288   9.153
 7359POPC   GL131789  19.829  18.308   8.853
 7359POPC   GL231790  19.942  18.158   8.853
 7359POPC   C1A31791  19.822  18.270   8.553
 7359POPC   D2A31792  19.864  18.315   8.253
 7359POPC   C3A31793  19.808  18.320   7.953
 7359POPC   C4A31794  19.864  18.245   7.653
 7359POPC   C1B31795  19.942  18.125   8.553
 7359POPC   C2B31796  19.975  18.097   8.253
 7359POPC   C3B31797  19.970  18.065   7.953
 7359POPC   C4B31798  19.944  18.080   7.653
 7360POPC   NC331799  14.381   1.201   9.453
 7360POPC   PO431800  14.397   1.215   9.153
 7360POPC   GL131801  14.442   1.204   8.853
 7360POPC   GL231802  14.447   1.135   8.853
 7360POPC   C1A31803  14.429   1.249   8.553
 7360POPC   D2A31804  14.412   1.240   8.253
 7360POPC   C3A31805  14.372   1.262   7.953
 7360POPC   C4A31806  14.377   1.180   7.653
 7360POPC   C1B31807  14.444   0.933   8.553
 7360POPC   C2B31808  14.455   0.955   8.253
 7360POPC   C3B31809  14.463   0.949   7.953
 7360POPC   C4B31810  14.497   0.985   7.653
 7361POPC   NC331811  23.670  15.133   9.453
 7361POPC   PO431812  23.763  15.223   9.153
 7361POPC   GL131813  23.698  15.168   8.853
 7361POPC   GL231814  23.590  15.247   8.853
 7361POPC   C1A31815  23.730  15.202   8.553
 7361POPC   D2A31816  23.702  15.229   8.253
 7361POPC   C3A31817  23.753  15.211   7.953
 7361POPC   C4A31818  23.680  15.213   7.653
 7361POPC   C1B31819  23.489  15.280   8.553
 7361POPC   C2B31820  23.520  15.262   8.253
 7361POPC   C3B31821  23.531  15.313   7.953
 7361POPC   C4B31822  23.464  15.260   7.653
 7362POPC   NC331823  30.672  43.868   9.453
 7362POPC   PO431824  30.730  43.861   9.153
 7362POPC   GL131825  30.666  43.895   8.853
 7362POPC   GL231826  30.578  43.822   8.853
 7362POPC   C1A31827  30.666  43.871   8.553
 7362POPC   D2A31828  30.737  43.891   8.253
 7362POPC   C3A31829  30.694  43.901   7.953
 7362POPC   C4A31830  30.647  43.896   7.653
 7362POPC   C1B31831  30.532  43.770   8.553
 7362POPC   C2B31832  30.520  43.784   8.253
 7362POPC   C3B31833  30.443  43.760   7.953
 7362POPC   C4B31834  30.491  43.745   7.653
 7363POPC   NC331835  23.677  22.931   9.453
 7363POPC   PO431836  23.734  22.983   9.153
 7363POPC   GL131837  23.753  22.901   8.853
 7363POPC   GL231838  23.859  22.898   8.853
 7363POPC   C1A31839  23.676  22.907   8.553
 7363POPC   D2A31840  23.697  22.951   8.253
 7363POPC   C3A31841  23.727  22.957   7.953
 7363POPC   C4A31842  23.727  22.980   7.653
 7363POPC   C1B31843  23.988  22.994   8.553
 7363POPC   C2B31844  23.973  22.935   8.253
 7363POPC   C3B31845  23.983  22.906   7.953
 7363POPC   C4B31846  24.002  22.970   7.653
 7364POPC   NC331847  16.760  36.084   9.453
 7364POPC   PO431848  16.707  36.148   9.153
 7364POPC   GL131849  16.693  36.119   8.853
 7364POPC   GL231850  16.640  36.269   8.853
 7364POPC   C1A31851  16.742  36.086   8.553
 7364POPC   D2A31852  16.780  36.150   8.253
 7364POPC   C3A31853  16.750  36.129   7.953
 7364POPC   C4A31854  16.703  36.132   7.653
 7364POPC   C1B31855  16.664  36.373   8.553
 7364POPC   C2B31856  16.617  36.394   8.253
 7364POPC   C3B31857  16.639  36.384   7.953
 7364POPC   C4B31858  16.639  36.337   7.653
 7365POPC   NC331859  29.945  31.469   9.453
 7365POPC   PO431860  29.927  31.504   9.153
 7365POPC   GL131861  29.906  31.457   8.853
 7365POPC   GL231862  29.806  31.352   8.853
 7365POPC   C1A31863  29.913  31.439   8.553
 7365POPC   D2A31864  29.933  31.474   8.253
 7365POPC   C3A31865  29.959  31.468   7.953
 7365POPC   C4A31866  29.908  31.439   7.653
 7365POPC   C1B31867  29.760  31.278   8.553
 7365POPC   C2B31868  29.756  31.264   8.253
 7365POPC   C3B31869  29.747  31.271   7.953
 7365POPC   C4B31870  29.724  31.306   7.653
 7366POPC   NC331871  36.085  21.359   9.453
 7366POPC   PO431872  36.101  21.342   9.153
 7366POPC   GL131873  36.163  21.381   8.853
 7366POPC   GL231874  36.275  21.470   8.853
 7366POPC   C1A31875  36.106  21.416   8.553
 7366POPC   D2A31876  36.150  21.380   8.253
 7366POPC   C3A31877  36.155  21.366   7.953
 7366POPC   C4A31878  36.144  21.429   7.653
 7366POPC   C1B31879  36.352  21.488   8.553
 7366POPC   C2B31880  36.342  21.518   8.253
 7366POPC   C3B31881  36.352  21.439   7.953
 7366POPC   C4B31882  36.335  21.507   7.653
 7367POPC   NC331883  21.420  16.707   9.453
 7367POPC   PO431884  21.359  16.747   9.153
 7367POPC   GL131885  21.406  16.713   8.853
 7367POPC   GL231886  21.310  16.817   8.853
 7367POPC   C1A31887  21.425  16.741   8.553
 7367POPC   D2A31888  21.348  16.776   8.253
 7367POPC   C3A31889  21.395  16.702   7.953
 7367POPC   C4A31890  21.357  16.755   7.653
 7367POPC   C1B31891  21.196  16.859   8.553
 7367POPC   C2B31892  21.194  16.815   8.253
 7367POPC   C3B31893  21.141  16.869   7.953
 7367POPC   C4B31894  21.204  16.847   7.653
 7368POPC   NC331895  18.266   3.498   9.453
 7368POPC   PO431896  18.290   3.513   9.153
 7368POPC   GL131897  18.277   3.559   8.853
 7368POPC   GL231898  18.338   3.674   8.853
 7368POPC   C1A31899  18.327   3.577   8.553
 7368POPC   D2A31900  18.282   3.515   8.253
 7368POPC   C3A31901  18.329   3.569   7.953
 7368POPC   C4A31902  18.236   3.495   7.653
 7368POPC   C1B31903  18.286   3.764   8.553
 7368POPC   C2B31904  18.263   3.775   8.253
 7368POPC   C3B31905  18.286   3.775   7.953
 7368POPC   C4B31906  18.247   3.779   7.653
 7369POPC   NC331907  41.601   2.716   9.453
 7369POPC   PO431908  41.601   2.777   9.153
 7369POPC   GL131909  41.533   2.801   8.853
 7369POPC   GL231910  41.495   2.883   8.853
 7369POPC   C1A31911  41.548   2.726   8.553
 7369POPC   D2A31912  41.533   2.800   8.253
 7369POPC   C3A31913  41.607   2.748   7.953
 7369POPC   C4A31914  41.536   2.785   7.653
 7369POPC   C1B31915  41.545   3.035   8.553
 7369POPC   C2B31916  41.461   3.058   8.253
 7369POPC   C3B31917  41.530   2.964   7.953
 7369POPC   C4B31918  41.530   3.048   7.653
 7370POPC   NC331919  12.899  10.538   9.453
 7370POPC   PO431920  12.855  10.486   9.153
 7370POPC   GL131921  12.818  10.555   8.853
 7370POPC   GL231922  12.889  10.679   8.853
 7370POPC   C1A31923  12.824  10.490   8.553
 7370POPC   D2A31924  12.808  10.558   8.253
 7370POPC   C3A31925  12.819  10.477   7.953
 7370POPC   C4A31926  12.862  10.488   7.653
 7370POPC   C1B31927  12.914  10.808   8.553
 7370POPC   C2B31928  12.854  10.821   8.253
 7370POPC   C3B31929  12.865  10.787   7.953
 7370POPC   C4B31930  12.868  10.752   7.653
 7371POPC   NC331931  39.974   3.579   9.453
 7371POPC   PO431932  40.024   3.565   9.153
 7371POPC   GL131933  40.053   3.574   8.853
 7371POPC   GL231934  40.141   3.673   8.853
 7371POPC   C1A31935  39.967   3.510   8.553
 7371POPC   D2A31936  39.974   3.531   8.253
 7371POPC   C3A31937  39.962   3.541   7.953
 7371POPC   C4A31938  40.047   3.516   7.653
 7371POPC   C1B31939  40.191   3.754   8.553
 7371POPC   C2B31940  40.147   3.746   8.253
 7371POPC   C3B31941  40.204   3.743   7.953
 7371POPC   C4B31942  40.192   3.718   7.653
 7372POPC   NC331943  40.739  36.949   9.453
 7372POPC   PO431944  40.817  36.920   9.153
 7372POPC   GL131945  40.758  36.878   8.853
 7372POPC   GL231946  40.881  36.890   8.853
 7372POPC   C1A31947  40.821  36.885   8.553
 7372POPC   D2A31948  40.739  36.860   8.253
 7372POPC   C3A31949  40.735  36.914   7.953
 7372POPC   C4A31950  40.782  36.939   7.653
 7372POPC   C1B31951  41.018  36.865   8.553
 7372POPC   C2B31952  41.048  36.861   8.253
 7372POPC   C3B31953  41.073  36.903   7.953
 7372POPC   C4B31954  41.002  36.939   7.653
 7373POPC   NC331955  20.641   6.647   9.453
 7373POPC   PO431956  20.591   6.675   9.153
 7373POPC   GL131957  20.608   6.596   8.853
 7373POPC   GL231958  20.757   6.729   8.853
 7373POPC   C1A31959  20.603   6.694   8.553
 7373POPC   D2A31960  20.622   6.659   8.253
 7373POPC   C3A31961  20.612   6.631   7.953
 7373POPC   C4A31962  20.566   6.607   7.653
 7373POPC   C1B31963  20.873   6.778   8.553
 7373POPC   C2B31964  20.795   6.780   8.253
 7373POPC   C3B31965  20.806   6.783   7.953
 7373POPC   C4B31966  20.826   6.783   7.653
 7374POPC   NC331967  28.411  22.978   9.453
 7374POPC   PO431968  28.418  22.913   9.153
 7374POPC   GL131969  28.377  22.930   8.853
 7374POPC   GL231970  28.313  23.024   8.853
 7374POPC   C1A31971  28.326  22.896   8.553
 7374POPC   D2A31972  28.378  22.931   8.253
 7374POPC   C3A31973  28.378  22.966   7.953
 7374POPC   C4A31974  28.354  22.915   7.653
 7374POPC   C1B31975  28.341  23.189   8.553
 7374POPC   C2B31976  28.361  23.161   8.253
 7374POPC   C3B31977  28.318  23.172   7.953
 7374POPC   C4B31978  28.357  23.170   7.653
 7375POPC   NC331979   1.229   1.211   9.453
 7375POPC   PO431980   1.229   1.245   9.153
 7375POPC   GL131981   1.244   1.206   8.853
 7375POPC   GL231982   1.319   1.355   8.853
 7375POPC   C1A31983   1.206   1.236   8.553
 7375POPC   D2A31984   1.197   1.196   8.253
 7375POPC   C3A31985   1.187   1.237   7.953
 7375POPC   C4A31986   1.171   1.164   7.653
 7375POPC   C1B31987   1.387   1.460   8.553
 7375POPC   C2B31988   1.350   1.416   8.253
 7375POPC   C3B31989   1.335   1.400   7.953
 7375POPC   C4B31990   1.351   1.422   7.653
 7376POPC   NC331991  42.304   3.585   9.453
 7376POPC   PO431992  42.327   3.574   9.153
 7376POPC   GL131993  42.339   3.568   8.853
 7376POPC   GL231994  42.392   3.465   8.853
 7376POPC   C1A31995  42.337   3.591   8.553
 7376POPC   D2A31996  42.363   3.557   8.253
 7376POPC   C3A31997  42.314   3.588   7.953
 7376POPC   C4A31998  42.370   3.582   7.653
 7376POPC   C1B31999  42.451   3.375   8.553
 7376POPC   C2B32000  42.492   3.299   8.253
 7376POPC   C3B32001  42.508   3.282   7.953
 7376POPC   C4B32002  42.497   3.376   7.653
 7377POPC   NC332003   0.390  38.465   9.453
 7377POPC   PO432004   0.480  38.437   9.153
 7377POPC   GL132005   0.423  38.415   8.853
 7377POPC   GL232006   0.457  38.307   8.853
 7377POPC   C1A32007   0.421  38.438   8.553
 7377POPC   D2A32008   0.454  38.479   8.253
 7377POPC   C3A32009   0.438  38.425   7.953
 7377POPC   C4A32010   0.389  38.464   7.653
 7377POPC   C1B32011   0.490  38.183   8.553
 7377POPC   C2B32012   0.549  38.216   8.253
 7377POPC   C3B32013   0.502  38.265   7.953
 7377POPC   C4B32014   0.550  38.196   7.653
 7378POPC   NC332015   0.418  19.859   9.453
 7378POPC   PO432016   0.394  19.816   9.153
 7378POPC   GL132017   0.457  19.825   8.853
 7378POPC   GL232018   0.364  19.869   8.853
 7378POPC   C1A32019   0.420  19.834   8.553
 7378POPC   D2A32020   0.389  19.879   8.253
 7378POPC   C3A32021   0.477  19.830   7.953
 7378POPC   C4A32022   0.481  19.839   7.653
 7378POPC   C1B32023   0.157  19.908   8.553
 7378POPC   C2B32024   0.221  19.864   8.253
 7378POPC   C3B32025   0.189  19.933   7.953
 7378POPC   C4B32026   0.231  19.950   7.653
 7379POPC   NC332027   3.585  33.026   9.453
 7379POPC   PO432028   3.527  33.065   9.153
 7379POPC   GL132029   3.575  33.039   8.853
 7379POPC   GL232030   3.464  33.149   8.853
 7379POPC   C1A32031   3.549  33.021   8.553
 7379POPC   D2A32032   3.576  33.073   8.253
 7379POPC   C3A32033   3.492  32.996   7.953
 7379POPC   C4A32034   3.529  33.000   7.653
 7379POPC   C1B32035   3.471  33.299   8.553
 7379POPC   C2B32036   3.420  33.289   8.253
 7379POPC   C3B32037   3.417  33.298   7.953
 7379POPC   C4B32038   3.488  33.251   7.653
 7380POPC   NC332039  17.530  40.020   9.453
 7380POPC   PO432040  17.553  40.054   9.153
 7380POPC   GL132041  17.527  39.973   8.853
 7380POPC   GL232042  17.468  39.885   8.853
 7380POPC   C1A32043  17.519  40.023   8.553
 7380POPC   D2A32044  17.522  39.967   8.253
 7380POPC   C3A32045  17.553  39.993   7.953
 7380POPC   C4A32046  17.473  40.046   7.653
 7380POPC   C1B32047  17.373  39.764   8.553
 7380POPC   C2B32048  17.382  39.741   8.253
 7380POPC   C3B32049  17.422  39.825   7.953
 7380POPC   C4B32050  17.452  39.775   7.653
 7381POPC   NC332051   1.174  34.534   9.453
 7381POPC   PO432052   1.228  34.605   9.153
 7381POPC   GL132053   1.188  34.621   8.853
 7381POPC   GL232054   1.279  34.727   8.853
 7381POPC   C1A32055   1.176  34.562   8.553
 7381POPC   D2A32056   1.246  34.589   8.253
 7381POPC   C3A32057   1.242  34.616   7.953
 7381POPC   C4A32058   1.248  34.544   7.653
 7381POPC   C1B32059   1.314  34.812   8.553
 7381POPC   C2B32060   1.318  34.847   8.253
 7381POPC   C3B32061   1.228  34.801   7.953
 7381POPC   C4B32062   1.323  34.811   7.653
 7382POPC   NC332063   2.719   7.376   9.453
 7382POPC   PO432064   2.727   7.379   9.153
 7382POPC   GL132065   2.788   7.376   8.853
 7382POPC   GL232066   2.661   7.369   8.853
 7382POPC   C1A32067   2.808   7.413   8.553
 7382POPC   D2A32068   2.743   7.453   8.253
 7382POPC   C3A32069   2.796   7.384   7.953
 7382POPC   C4A32070   2.775   7.372   7.653
 7382POPC   C1B32071   2.614   7.208   8.553
 7382POPC   C2B32072   2.555   7.201   8.253
 7382POPC   C3B32073   2.565   7.277   7.953
 7382POPC   C4B32074   2.563   7.282   7.653
 7383POPC   NC332075   9.743  19.850   9.453
 7383POPC   PO432076   9.726  19.828   9.153
 7383POPC   GL132077   9.717  19.858   8.853
 7383POPC   GL232078   9.782  19.691   8.853
 7383POPC   C1A32079   9.699  19.859   8.553
 7383POPC   D2A32080   9.780  19.864   8.253
 7383POPC   C3A32081   9.720  19.807   7.953
 7383POPC   C4A32082   9.699  19.792   7.653
 7383POPC   C1B32083   9.841  19.598   8.553
 7383POPC   C2B32084   9.860  19.621   8.253
 7383POPC   C3B32085   9.887  19.632   7.953
 7383POPC   C4B32086   9.863  19.648   7.653
 7384POPC   NC332087  40.011   1.183   9.453
 7384POPC   PO432088  40.008   1.243   9.153
 7384POPC   GL132089  39.973   1.201   8.853
 7384POPC   GL232090  40.152   1.228   8.853
 7384POPC   C1A32091  40.031   1.202   8.553
 7384POPC   D2A32092  39.982   1.186   8.253
 7384POPC   C3A32093  39.994   1.253   7.953
 7384POPC   C4A32094  40.010   1.252   7.653
 7384POPC   C1B32095  40.269   1.303   8.553
 7384POPC   C2B32096  40.225   1.252   8.253
 7384POPC   C3B32097  40.248   1.258   7.953
 7384POPC   C4B32098  40.296   1.220   7.653
 7385POPC   NC332099  38.411  15.952   9.453
 7385POPC   PO432100  38.428  15.994   9.153
 7385POPC   GL132101  38.497  15.999   8.853
 7385POPC   GL232102  38.389  16.086   8.853
 7385POPC   C1A32103  38.423  15.957   8.553
 7385POPC   D2A32104  38.414  15.955   8.253
 7385POPC   C3A32105  38.458  15.982   7.953
 7385POPC   C4A32106  38.410  15.979   7.653
 7385POPC   C1B32107  38.351  16.203   8.553
 7385POPC   C2B32108  38.302  16.142   8.253
 7385POPC   C3B32109  38.289  16.170   7.953
 7385POPC   C4B32110  38.335  16.220   7.653
 7386POPC   NC332111  39.229  34.541   9.453
 7386POPC   PO432112  39.184  34.621   9.153
 7386POPC   GL132113  39.240  34.599   8.853
 7386POPC   GL232114  39.240  34.657   8.853
 7386POPC   C1A32115  39.268  34.615   8.553
 7386POPC   D2A32116  39.208  34.541   8.253
 7386POPC   C3A32117  39.224  34.620   7.953
 7386POPC   C4A32118  39.272  34.611   7.653
 7386POPC   C1B32119  39.253  34.854   8.553
 7386POPC   C2B32120  39.249  34.808   8.253
 7386POPC   C3B32121  39.233  34.820   7.953
 7386POPC   C4B32122  39.176  34.779   7.653
 7387POPC   NC332123  11.345  17.459   9.453
 7387POPC   PO432124  11.348  17.470   9.153
 7387POPC   GL132125  11.348  17.504   8.853
 7387POPC   GL232126  11.353  17.627   8.853
 7387POPC   C1A32127  11.307  17.551   8.553
 7387POPC   D2A32128  11.299  17.502   8.253
 7387POPC   C3A32129  11.336  17.485   7.953
 7387POPC   C4A32130  11.344  17.473   7.653
 7387POPC   C1B32131  11.426  17.751   8.553
 7387POPC   C2B32132  11.417  17.692   8.253
 7387POPC   C3B32133  11.363  17.746   7.953
 7387POPC   C4B32134  11.396  17.722   7.653
 7388POPC   NC332135  22.182  38.479   9.453
 7388POPC   PO432136  22.121  38.489   9.153
 7388POPC   GL132137  22.187  38.487   8.853
 7388POPC   GL232138  22.067  38.381   8.853
 7388POPC   C1A32139  22.195  38.446   8.553
 7388POPC   D2A32140  22.174  38.436   8.253
 7388POPC   C3A32141  22.151  38.415   7.953
 7388POPC   C4A32142  22.120  38.448   7.653
 7388POPC   C1B32143  21.965  38.289   8.553
 7388POPC   C2B32144  21.956  38.330   8.253
 7388POPC   C3B32145  21.980  38.351   7.953
 7388POPC   C4B32146  21.897  38.319   7.653
 7389POPC   NC332147   6.686  38.422   9.453
 7389POPC   PO432148   6.663  38.466   9.153
 7389POPC   GL132149   6.609  38.475   8.853
 7389POPC   GL232150   6.722  38.415   8.853
 7389POPC   C1A32151   6.599  38.459   8.553
 7389POPC   D2A32152   6.675  38.435   8.253
 7389POPC   C3A32153   6.646  38.464   7.953
 7389POPC   C4A32154   6.635  38.456   7.653
 7389POPC   C1B32155   6.894  38.395   8.553
 7389POPC   C2B32156   6.923  38.376   8.253
 7389POPC   C3B32157   6.854  38.401   7.953
 7389POPC   C4B32158   6.858  38.390   7.653
 7390POPC   NC332159  43.116  10.509   9.453
 7390POPC   PO432160  43.138  10.524   9.153
 7390POPC   GL132161  43.101  10.568   8.853
 7390POPC   GL232162  42.980  10.568   8.853
 7390POPC   C1A32163  43.150  10.500   8.553
 7390POPC   D2A32164  43.100  10.551   8.253
 7390POPC   C3A32165  43.135  10.535   7.953
 7390POPC   C4A32166  43.122  10.571   7.653
 7390POPC   C1B32167  42.934  10.644   8.553
 7390POPC   C2B32168  42.855  10.652   8.253
 7390POPC   C3B32169  42.893  10.643   7.953
 7390POPC   C4B32170  42.883  10.659   7.653
 7391POPC   NC332171  15.147  20.654   9.453
 7391POPC   PO432172  15.161  20.569   9.153
 7391POPC   GL132173  15.211  20.632   8.853
 7391POPC   GL232174  15.198  20.535   8.853
 7391POPC   C1A32175  15.207  20.635   8.553
 7391POPC   D2A32176  15.173  20.629   8.253
 7391POPC   C3A32177  15.209  20.631   7.953
 7391POPC   C4A32178  15.158  20.608   7.653
 7391POPC   C1B32179  15.225  20.404   8.553
 7391POPC   C2B32180  15.161  20.393   8.253
 7391POPC   C3B32181  15.253  20.338   7.953
 7391POPC   C4B32182  15.178  20.385   7.653
 7392POPC   NC332183  31.496  32.227   9.453
 7392POPC   PO432184  31.435  32.291   9.153
 7392POPC   GL132185  31.482  32.243   8.853
 7392POPC   GL232186  31.529  32.326   8.853
 7392POPC   C1A32187  31.479  32.213   8.553
 7392POPC   D2A32188  31.436  32.281   8.253
 7392POPC   C3A32189  31.496  32.269   7.953
 7392POPC   C4A32190  31.517  32.270   7.653
 7392POPC   C1B32191  31.672  32.334   8.553
 7392POPC   C2B32192  31.704  32.384   8.253
 7392POPC   C3B32193  31.711  32.369   7.953
 7392POPC   C4B32194  31.657  32.370   7.653
 7393POPC   NC332195  10.522  39.990   9.453
 7393POPC   PO432196  10.509  39.988   9.153
 7393POPC   GL132197  10.543  39.996   8.853
 7393POPC   GL232198  10.404  40.054   8.853
 7393POPC   C1A32199  10.533  40.035   8.553
 7393POPC   D2A32200  10.484  39.986   8.253
 7393POPC   C3A32201  10.476  40.040   7.953
 7393POPC   C4A32202  10.540  39.971   7.653
 7393POPC   C1B32203  10.245  40.029   8.553
 7393POPC   C2B32204  10.308  40.061   8.253
 7393POPC   C3B32205  10.280  40.107   7.953
 7393POPC   C4B32206  10.259  40.045   7.653
 7394POPC   NC332207  11.307  18.313   9.453
 7394POPC   PO432208  11.310  18.309   9.153
 7394POPC   GL132209  11.337  18.290   8.853
 7394POPC   GL232210  11.396  18.292   8.853
 7394POPC   C1A32211  11.298  18.251   8.553
 7394POPC   D2A32212  11.302  18.284   8.253
 7394POPC   C3A32213  11.293  18.241   7.953
 7394POPC   C4A32214  11.277  18.307   7.653
 7394POPC   C1B32215  11.525  18.377   8.553
 7394POPC   C2B32216  11.524  18.417   8.253
 7394POPC   C3B32217  11.493  18.352   7.953
 7394POPC   C4B32218  11.493  18.361   7.653
 7395POPC   NC332219  17.472  26.800   9.453
 7395POPC   PO432220  17.511  26.855   9.153
 7395POPC   GL132221  17.534  26.788   8.853
 7395POPC   GL232222  17.652  26.794   8.853
 7395POPC   C1A32223  17.528  26.801   8.553
 7395POPC   D2A32224  17.553  26.817   8.253
 7395POPC   C3A32225  17.486  26.839   7.953
 7395POPC   C4A32226  17.535  26.848   7.653
 7395POPC   C1B32227  17.707  26.751   8.553
 7395POPC   C2B32228  17.736  26.738   8.253
 7395POPC   C3B32229  17.757  26.743   7.953
 7395POPC   C4B32230  17.760  26.697   7.653
 7396POPC   NC332231  44.667  25.230   9.453
 7396POPC   PO432232  44.678  25.289   9.153
 7396POPC   GL132233  44.688  25.223   8.853
 7396POPC   GL232234  44.681  25.416   8.853
 7396POPC   C1A32235  44.623  25.218   8.553
 7396POPC   D2A32236  44.695  25.278   8.253
 7396POPC   C3A32237  44.626  25.224   7.953
 7396POPC   C4A32238  44.613  25.256   7.653
 7396POPC   C1B32239  44.789  25.454   8.553
 7396POPC   C2B32240  44.784  25.466   8.253
 7396POPC   C3B32241  44.819  25.523   7.953
 7396POPC   C4B32242  44.827  25.467   7.653
 7397POPC   NC332243  12.881   8.226   9.453
 7397POPC   PO432244  12.839   8.196   9.153
 7397POPC   GL132245  12.887   8.229   8.853
 7397POPC   GL232246  12.847   8.284   8.853
 7397POPC   C1A32247  12.885   8.200   8.553
 7397POPC   D2A32248  12.804   8.246   8.253
 7397POPC   C3A32249  12.821   8.239   7.953
 7397POPC   C4A32250  12.850   8.159   7.653
 7397POPC   C1B32251  12.865   8.428   8.553
 7397POPC   C2B32252  12.828   8.435   8.253
 7397POPC   C3B32253  12.840   8.424   7.953
 7397POPC   C4B32254  12.807   8.401   7.653
 7398POPC   NC332255  14.451  26.862   9.453
 7398POPC   PO432256  14.440  26.772   9.153
 7398POPC   GL132257  14.448  26.859   8.853
 7398POPC   GL232258  14.455  26.735   8.853
 7398POPC   C1A32259  14.429  26.802   8.553
 7398POPC   D2A32260  14.413  26.803   8.253
 7398POPC   C3A32261  14.420  26.853   7.953
 7398POPC   C4A32262  14.416  26.835   7.653
 7398POPC   C1B32263  14.466  26.573   8.553
 7398POPC   C2B32264  14.422  26.622   8.253
 7398POPC   C3B32265  14.457  26.523   7.953
 7398POPC   C4B32266  14.430  26.612   7.653
 7399POPC   NC332267  34.595  12.830   9.453
 7399POPC   PO432268  34.622  12.834   9.153
 7399POPC   GL132269  34.574  12.894   8.853
 7399POPC   GL232270  34.642  12.997   8.853
 7399POPC   C1A32271  34.617  12.808   8.553
 7399POPC   D2A32272  34.601  12.804   8.253
 7399POPC   C3A32273  34.597  12.846   7.953
 7399POPC   C4A32274  34.534  12.828   7.653
 7399POPC   C1B32275  34.637  13.141   8.553
 7399POPC   C2B32276  34.654  13.068   8.253
 7399POPC   C3B32277  34.695  13.117   7.953
 7399POPC   C4B32278  34.652  13.061   7.653
 7400POPC   NC332279  13.586   8.945   9.453
 7400POPC   PO432280  13.614   8.939   9.153
 7400POPC   GL132281  13.624   8.936   8.853
 7400POPC   GL232282  13.697   8.886   8.853
 7400POPC   C1A32283  13.616   8.996   8.553
 7400POPC   D2A32284  13.603   8.976   8.253
 7400POPC   C3A32285  13.621   8.963   7.953
 7400POPC   C4A32286  13.639   8.951   7.653
 7400POPC   C1B32287  13.890   8.881   8.553
 7400POPC   C2B32288  13.841   8.830   8.253
 7400POPC   C3B32289  13.813   8.818   7.953
 7400POPC   C4B32290  13.877   8.868   7.653
 7401POPC   NC332291   1.956  32.290   9.453
 7401POPC   PO432292   2.035  32.262   9.153
 7401POPC   GL132293   1.981  32.257   8.853
 7401POPC   GL232294   1.881  32.276   8.853
 7401POPC   C1A32295   1.993  32.284   8.553
 7401POPC   D2A32296   1.975  32.287   8.253
 7401POPC   C3A32297   1.945  32.221   7.953
 7401POPC   C4A32298   1.960  32.276   7.653
 7401POPC   C1B32299   1.693  32.195   8.553
 7401POPC   C2B32300   1.786  32.265   8.253
 7401POPC   C3B32301   1.734  32.205   7.953
 7401POPC   C4B32302   1.713  32.277   7.653
 7402POPC   NC332303  32.297  24.513   9.453
 7402POPC   PO432304  32.297  24.461   9.153
 7402POPC   GL132305  32.228  24.457   8.853
 7402POPC   GL232306  32.204  24.597   8.853
 7402POPC   C1A32307  32.213  24.519   8.553
 7402POPC   D2A32308  32.283  24.444   8.253
 7402POPC   C3A32309  32.250  24.466   7.953
 7402POPC   C4A32310  32.263  24.451   7.653
 7402POPC   C1B32311  32.150  24.737   8.553
 7402POPC   C2B32312  32.185  24.697   8.253
 7402POPC   C3B32313  32.165  24.719   7.953
 7402POPC   C4B32314  32.151  24.766   7.653
 7403POPC   NC332315  29.917  41.567   9.453
 7403POPC   PO432316  29.968  41.565   9.153
 7403POPC   GL132317  29.895  41.578   8.853
 7403POPC   GL232318  29.763  41.567   8.853
 7403POPC   C1A32319  29.921  41.512   8.553
 7403POPC   D2A32320  29.904  41.602   8.253
 7403POPC   C3A32321  29.877  41.564   7.953
 7403POPC   C4A32322  29.964  41.543   7.653
 7403POPC   C1B32323  29.625  41.510   8.553
 7403POPC   C2B32324  29.659  41.567   8.253
 7403POPC   C3B32325  29.647  41.528   7.953
 7403POPC   C4B32326  29.654  41.546   7.653
 7404POPC   NC332327  43.900   8.967   9.453
 7404POPC   PO432328  43.867   8.997   9.153
 7404POPC   GL132329  43.842   9.000   8.853
 7404POPC   GL232330  43.777   8.981   8.853
 7404POPC   C1A32331  43.921   9.018   8.553
 7404POPC   D2A32332  43.930   8.992   8.253
 7404POPC   C3A32333  43.883   8.984   7.953
 7404POPC   C4A32334  43.847   8.947   7.653
 7404POPC   C1B32335  43.680   8.976   8.553
 7404POPC   C2B32336  43.675   8.986   8.253
 7404POPC   C3B32337  43.645   8.991   7.953
 7404POPC   C4B32338  43.641   9.004   7.653
 7405POPC   NC332339  31.513  24.530   9.453
 7405POPC   PO432340  31.435  24.454   9.153
 7405POPC   GL132341  31.500  24.485   8.853
 7405POPC   GL232342  31.414  24.451   8.853
 7405POPC   C1A32343  31.468  24.458   8.553
 7405POPC   D2A32344  31.521  24.509   8.253
 7405POPC   C3A32345  31.453  24.532   7.953
 7405POPC   C4A32346  31.507  24.472   7.653
 7405POPC   C1B32347  31.313  24.310   8.553
 7405POPC   C2B32348  31.283  24.301   8.253
 7405POPC   C3B32349  31.249  24.269   7.953
 7405POPC   C4B32350  31.265  24.350   7.653
 7406POPC   NC332351  11.308  37.706   9.453
 7406POPC   PO432352  11.345  37.727   9.153
 7406POPC   GL132353  11.339  37.691   8.853
 7406POPC   GL232354  11.437  37.741   8.853
 7406POPC   C1A32355  11.305  37.654   8.553
 7406POPC   D2A32356  11.277  37.674   8.253
 7406POPC   C3A32357  11.329  37.714   7.953
 7406POPC   C4A32358  11.250  37.668   7.653
 7406POPC   C1B32359  11.572  37.748   8.553
 7406POPC   C2B32360  11.517  37.801   8.253
 7406POPC   C3B32361  11.507  37.829   7.953
 7406POPC   C4B32362  11.512  37.779   7.653
 7407POPC   NC332363   8.959   2.039   9.453
 7407POPC   PO432364   8.947   1.990   9.153
 7407POPC   GL132365   8.955   1.969   8.853
 7407POPC   GL232366   9.115   2.036   8.853
 7407POPC   C1A32367   9.001   1.951   8.553
 7407POPC   D2A32368   9.000   2.019   8.253
 7407POPC   C3A32369   9.022   1.992   7.953
 7407POPC   C4A32370   8.998   2.036   7.653
 7407POPC   C1B32371   9.233   2.064   8.553
 7407POPC   C2B32372   9.249   2.036   8.253
 7407POPC   C3B32373   9.263   2.026   7.953
 7407POPC   C4B32374   9.251   2.015   7.653
 7408POPC   NC332375  44.640   9.006   9.453
 7408POPC   PO432376  44.615   8.981   9.153
 7408POPC   GL132377  44.667   8.988   8.853
 7408POPC   GL232378  44.829   8.976   8.853
 7408POPC   C1A32379  44.708   8.944   8.553
 7408POPC   D2A32380  44.672   8.992   8.253
 7408POPC   C3A32381  44.710   9.000   7.953
 7408POPC   C4A32382  44.655   8.976   7.653
 7408POPC   C1B32383  44.862   9.011   8.553
 7408POPC   C2B32384  44.960   9.027   8.253
 7408POPC   C3B32385  44.903   8.983   7.953
 7408POPC   C4B32386  44.943   9.036   7.653
 7409POPC   NC332387   1.205   5.143   9.453
 7409POPC   PO432388   1.186   5.083   9.153
 7409POPC   GL132389   1.191   5.074   8.853
 7409POPC   GL232390   1.095   5.213   8.853
 7409POPC   C1A32391   1.181   5.116   8.553
 7409POPC   D2A32392   1.253   5.114   8.253
 7409POPC   C3A32393   1.254   5.097   7.953
 7409POPC   C4A32394   1.169   5.128   7.653
 7409POPC   C1B32395   1.063   5.273   8.553
 7409POPC   C2B32396   1.053   5.263   8.253
 7409POPC   C3B32397   1.074   5.245   7.953
 7409POPC   C4B32398   1.068   5.331   7.653
 7410POPC   NC332399  39.254  15.938   9.453
 7410POPC   PO432400  39.232  15.933   9.153
 7410POPC   GL132401  39.254  16.005   8.853
 7410POPC   GL232402  39.282  15.820   8.853
 7410POPC   C1A32403  39.230  15.978   8.553
 7410POPC   D2A32404  39.221  15.993   8.253
 7410POPC   C3A32405  39.260  15.975   7.953
 7410POPC   C4A32406  39.209  15.951   7.653
 7410POPC   C1B32407  39.258  15.692   8.553
 7410POPC   C2B32408  39.259  15.732   8.253
 7410POPC   C3B32409  39.192  15.690   7.953
 7410POPC   C4B32410  39.249  15.720   7.653
 7411POPC   NC332411  34.615  23.719   9.453
 7411POPC   PO432412  34.528  23.734   9.153
 7411POPC   GL132413  34.597  23.705   8.853
 7411POPC   GL232414  34.595  23.809   8.853
 7411POPC   C1A32415  34.540  23.734   8.553
 7411POPC   D2A32416  34.567  23.709   8.253
 7411POPC   C3A32417  34.607  23.708   7.953
 7411POPC   C4A32418  34.617  23.725   7.653
 7411POPC   C1B32419  34.611  23.909   8.553
 7411POPC   C2B32420  34.699  23.918   8.253
 7411POPC   C3B32421  34.648  23.914   7.953
 7411POPC   C4B32422  34.639  23.947   7.653
 7412POPC   NC332423  36.108  20.635   9.453
 7412POPC   PO432424  36.083  20.618   9.153
 7412POPC   GL132425  36.134  20.644   8.853
 7412POPC   GL232426  36.024  20.705   8.853
 7412POPC   C1A32427  36.121  20.654   8.553
 7412POPC   D2A32428  36.087  20.657   8.253
 7412POPC   C3A32429  36.111  20.600   7.953
 7412POPC   C4A32430  36.138  20.600   7.653
 7412POPC   C1B32431  35.923  20.756   8.553
 7412POPC   C2B32432  35.878  20.793   8.253
 7412POPC   C3B32433  35.929  20.756   7.953
 7412POPC   C4B32434  35.876  20.749   7.653
 7413POPC   NC332435  26.839  12.088   9.453
 7413POPC   PO432436  26.842  12.083   9.153
 7413POPC   GL132437  26.770  12.098   8.853
 7413POPC   GL232438  26.795  12.185   8.853
 7413POPC   C1A32439  26.827  12.121   8.553
 7413POPC   D2A32440  26.839  12.092   8.253
 7413POPC   C3A32441  26.832  12.083   7.953
 7413POPC   C4A32442  26.845  12.098   7.653
 7413POPC   C1B32443  26.700  12.260   8.553
 7413POPC   C2B32444  26.692  12.310   8.253
 7413POPC   C3B32445  26.703  12.316   7.953
 7413POPC   C4B32446  26.768  12.260   7.653
 7414POPC   NC332447  17.468  41.535   9.453
 7414POPC   PO432448  17.500  41.578   9.153
 7414POPC   GL132449  17.468  41.545   8.853
 7414POPC   GL232450  17.494  41.727   8.853
 7414POPC   C1A32451  17.500  41.540   8.553
 7414POPC   D2A32452  17.548  41.594   8.253
 7414POPC   C3A32453  17.554  41.539   7.953
 7414POPC   C4A32454  17.555  41.570   7.653
 7414POPC   C1B32455  17.570  41.765   8.553
 7414POPC   C2B32456  17.569  41.759   8.253
 7414POPC   C3B32457  17.587  41.780   7.953
 7414POPC   C4B32458  17.543  41.811   7.653
 7415POPC   NC332459  31.458   7.384   9.453
 7415POPC   PO432460  31.508   7.405   9.153
 7415POPC   GL132461  31.465   7.432   8.853
 7415POPC   GL232462  31.381   7.495   8.853
 7415POPC   C1A32463  31.454   7.428   8.553
 7415POPC   D2A32464  31.468   7.434   8.253
 7415POPC   C3A32465  31.453   7.438   7.953
 7415POPC   C4A32466  31.461   7.415   7.653
 7415POPC   C1B32467  31.266   7.661   8.553
 7415POPC   C2B32468  31.266   7.576   8.253
 7415POPC   C3B32469  31.361   7.598   7.953
 7415POPC   C4B32470  31.303   7.621   7.653
 7416POPC   NC332471  19.848  19.877   9.453
 7416POPC   PO432472  19.842  19.867   9.153
 7416POPC   GL132473  19.824  19.823   8.853
 7416POPC   GL232474  19.790  19.784   8.853
 7416POPC   C1A32475  19.864  19.864   8.553
 7416POPC   D2A32476  19.790  19.794   8.253
 7416POPC   C3A32477  19.831  19.808   7.953
 7416POPC   C4A32478  19.823  19.785   7.653
 7416POPC   C1B32479  19.688  19.670   8.553
 7416POPC   C2B32480  19.702  19.631   8.253
 7416POPC   C3B32481  19.617  19.675   7.953
 7416POPC   C4B32482  19.642  19.612   7.653
 7417POPC   NC332483  23.727  19.056   9.453
 7417POPC   PO432484  23.687  19.093   9.153
 7417POPC   GL132485  23.673  19.048   8.853
 7417POPC   GL232486  23.842  19.106   8.853
 7417POPC   C1A32487  23.761  19.096   8.553
 7417POPC   D2A32488  23.734  19.103   8.253
 7417POPC   C3A32489  23.681  19.065   7.953
 7417POPC   C4A32490  23.758  19.093   7.653
 7417POPC   C1B32491  23.939  19.077   8.553
 7417POPC   C2B32492  24.004  19.080   8.253
 7417POPC   C3B32493  23.933  19.075   7.953
 7417POPC   C4B32494  23.939  19.168   7.653
 7418POPC   NC332495  32.205  23.725   9.453
 7418POPC   PO432496  32.296  23.701   9.153
 7418POPC   GL132497  32.261  23.684   8.853
 7418POPC   GL232498  32.255  23.641   8.853
 7418POPC   C1A32499  32.213  23.728   8.553
 7418POPC   D2A32500  32.281  23.724   8.253
 7418POPC   C3A32501  32.208  23.740   7.953
 7418POPC   C4A32502  32.264  23.712   7.653
 7418POPC   C1B32503  32.302  23.466   8.553
 7418POPC   C2B32504  32.362  23.458   8.253
 7418POPC   C3B32505  32.385  23.460   7.953
 7418POPC   C4B32506  32.392  23.505   7.653
 7419POPC   NC332507  14.450  26.039   9.453
 7419POPC   PO432508  14.373  26.042   9.153
 7419POPC   GL132509  14.393  26.015   8.853
 7419POPC   GL232510  14.560  26.088   8.853
 7419POPC   C1A32511  14.448  26.056   8.553
 7419POPC   D2A32512  14.405  26.020   8.253
 7419POPC   C3A32513  14.435  26.016   7.953
 7419POPC   C4A32514  14.429  26.021   7.653
 7419POPC   C1B32515  14.614  26.092   8.553
 7419POPC   C2B32516  14.605  26.026   8.253
 7419POPC   C3B32517  14.614  26.049   7.953
 7419POPC   C4B32518  14.673  26.093   7.653
 7420POPC   NC332519  36.163  18.307   9.453
 7420POPC   PO432520  36.098  18.333   9.153
 7420POPC   GL132521  36.166  18.255   8.853
 7420POPC   GL232522  35.975  18.180   8.853
 7420POPC   C1A32523  36.140  18.282   8.553
 7420POPC   D2A32524  36.130  18.238   8.253
 7420POPC   C3A32525  36.144  18.320   7.953
 7420POPC   C4A32526  36.092  18.281   7.653
 7420POPC   C1B32527  35.888  18.137   8.553
 7420POPC   C2B32528  35.873  18.133   8.253
 7420POPC   C3B32529  35.911  18.189   7.953
 7420POPC   C4B32530  35.931  18.188   7.653
 7421POPC   NC332531  31.473  35.388   9.453
 7421POPC   PO432532  31.431  35.321   9.153
 7421POPC   GL132533  31.521  35.323   8.853
 7421POPC   GL232534  31.361  35.323   8.853
 7421POPC   C1A32535  31.483  35.376   8.553
 7421POPC   D2A32536  31.520  35.373   8.253
 7421POPC   C3A32537  31.459  35.343   7.953
 7421POPC   C4A32538  31.515  35.379   7.653
 7421POPC   C1B32539  31.184  35.376   8.553
 7421POPC   C2B32540  31.259  35.361   8.253
 7421POPC   C3B32541  31.269  35.379   7.953
 7421POPC   C4B32542  31.263  35.299   7.653
 7422POPC   NC332543   6.693  22.947   9.453
 7422POPC   PO432544   6.667  22.980   9.153
 7422POPC   GL132545   6.626  22.943   8.853
 7422POPC   GL232546   6.656  22.819   8.853
 7422POPC   C1A32547   6.662  22.981   8.553
 7422POPC   D2A32548   6.624  22.940   8.253
 7422POPC   C3A32549   6.669  22.960   7.953
 7422POPC   C4A32550   6.680  22.901   7.653
 7422POPC   C1B32551   6.639  22.669   8.553
 7422POPC   C2B32552   6.681  22.703   8.253
 7422POPC   C3B32553   6.598  22.648   7.953
 7422POPC   C4B32554   6.593  22.705   7.653
 7423POPC   NC332555  33.848  32.287   9.453
 7423POPC   PO432556  33.769  32.291   9.153
 7423POPC   GL132557  33.761  32.287   8.853
 7423POPC   GL232558  33.878  32.145   8.853
 7423POPC   C1A32559  33.770  32.285   8.553
 7423POPC   D2A32560  33.845  32.271   8.253
 7423POPC   C3A32561  33.782  32.256   7.953
 7423POPC   C4A32562  33.813  32.241   7.653
 7423POPC   C1B32563  33.856  31.985   8.553
 7423POPC   C2B32564  33.881  32.032   8.253
 7423POPC   C3B32565  33.871  31.998   7.953
 7423POPC   C4B32566  33.836  31.999   7.653
 7424POPC   NC332567  37.707  40.735   9.453
 7424POPC   PO432568  37.710  40.820   9.153
 7424POPC   GL132569  37.696  40.748   8.853
 7424POPC   GL232570  37.826  40.761   8.853
 7424POPC   C1A32571  37.714  40.809   8.553
 7424POPC   D2A32572  37.695  40.746   8.253
 7424POPC   C3A32573  37.645  40.822   7.953
 7424POPC   C4A32574  37.669  40.820   7.653
 7424POPC   C1B32575  37.929  40.724   8.553
 7424POPC   C2B32576  37.933  40.775   8.253
 7424POPC   C3B32577  37.957  40.775   7.953
 7424POPC   C4B32578  37.910  40.769   7.653
 7425POPC   NC332579   7.432   7.386   9.453
 7425POPC   PO432580   7.459   7.469   9.153
 7425POPC   GL132581   7.440   7.458   8.853
 7425POPC   GL232582   7.370   7.483   8.853
 7425POPC   C1A32583   7.375   7.399   8.553
 7425POPC   D2A32584   7.454   7.461   8.253
 7425POPC   C3A32585   7.462   7.459   7.953
 7425POPC   C4A32586   7.453   7.392   7.653
 7425POPC   C1B32587   7.232   7.618   8.553
 7425POPC   C2B32588   7.213   7.527   8.253
 7425POPC   C3B32589   7.245   7.607   7.953
 7425POPC   C4B32590   7.240   7.543   7.653
 7426POPC   NC332591  38.469  32.263   9.453
 7426POPC   PO432592  38.442  32.238   9.153
 7426POPC   GL132593  38.498  32.221   8.853
 7426POPC   GL232594  38.516  32.372   8.853
 7426POPC   C1A32595  38.487  32.215   8.553
 7426POPC   D2A32596  38.504  32.244   8.253
 7426POPC   C3A32597  38.442  32.264   7.953
 7426POPC   C4A32598  38.419  32.216   7.653
 7426POPC   C1B32599  38.610  32.485   8.553
 7426POPC   C2B32600  38.594  32.486   8.253
 7426POPC   C3B32601  38.532  32.463   7.953
 7426POPC   C4B32602  38.564  32.489   7.653
 7427POPC   NC332603  23.712  21.372   9.453
 7427POPC   PO432604  23.736  21.339   9.153
 7427POPC   GL132605  23.743  21.346   8.853
 7427POPC   GL232606  23.696  21.281   8.853
 7427POPC   C1A32607  23.732  21.340   8.553
 7427POPC   D2A32608  23.714  21.428   8.253
 7427POPC   C3A32609  23.730  21.363   7.953
 7427POPC   C4A32610  23.758  21.427   7.653
 7427POPC   C1B32611  23.592  21.209   8.553
 7427POPC   C2B32612  23.586  21.209   8.253
 7427POPC   C3B32613  23.591  21.199   7.953
 7427POPC   C4B32614  23.632  21.126   7.653
 7428POPC   NC332615  15.945   8.937   9.453
 7428POPC   PO432616  15.962   8.978   9.153
 7428POPC   GL132617  16.005   8.998   8.853
 7428POPC   GL232618  15.785   8.970   8.853
 7428POPC   C1A32619  15.999   8.933   8.553
 7428POPC   D2A32620  15.929   8.998   8.253
 7428POPC   C3A32621  16.001   9.006   7.953
 7428POPC   C4A32622  15.992   8.932   7.653
 7428POPC   C1B32623  15.706   9.015   8.553
 7428POPC   C2B32624  15.758   8.969   8.253
 7428POPC   C3B32625  15.741   9.010   7.953
 7428POPC   C4B32626  15.681   8.990   7.653
 7429POPC   NC332627  42.326  22.122   9.453
 7429POPC   PO432628  42.321  22.191   9.153
 7429POPC   GL132629  42.346  22.175   8.853
 7429POPC   GL232630  42.281  22.259   8.853
 7429POPC   C1A32631  42.300  22.155   8.553
 7429POPC   D2A32632  42.354  22.160   8.253
 7429POPC   C3A32633  42.329  22.166   7.953
 7429POPC   C4A32634  42.338  22.168   7.653
 7429POPC   C1B32635  42.094  22.332   8.553
 7429POPC   C2B32636  42.178  22.327   8.253
 7429POPC   C3B32637  42.099  22.317   7.953
 7429POPC   C4B32638  42.088  22.340   7.653
 7430POPC   NC332639  16.725  43.917   9.453
 7430POPC   PO432640  16.702  43.852   9.153
 7430POPC   GL132641  16.765  43.911   8.853
 7430POPC   GL232642  16.802  43.794   8.853
 7430POPC   C1A32643  16.691  43.883   8.553
 7430POPC   D2A32644  16.776  43.897   8.253
 7430POPC   C3A32645  16.704  43.866   7.953
 7430POPC   C4A32646  16.705  43.914   7.653
 7430POPC   C1B32647  16.944  43.799   8.553
 7430POPC   C2B32648  16.983  43.753   8.253
 7430POPC   C3B32649  16.916  43.768   7.953
 7430POPC   C4B32650  16.904  43.744   7.653
 7431POPC   NC332651  29.176  14.360   9.453
 7431POPC   PO432652  29.113  14.420   9.153
 7431POPC   GL132653  29.165  14.447   8.853
 7431POPC   GL232654  29.188  14.254   8.853
 7431POPC   C1A32655  29.185  14.386   8.553
 7431POPC   D2A32656  29.140  14.361   8.253
 7431POPC   C3A32657  29.105  14.430   7.953
 7431POPC   C4A32658  29.127  14.449   7.653
 7431POPC   C1B32659  29.272  14.158   8.553
 7431POPC   C2B32660  29.290  14.201   8.253
 7431POPC   C3B32661  29.299  14.203   7.953
 7431POPC   C4B32662  29.268  14.165   7.653
 7432POPC   NC332663  41.573   4.344   9.453
 7432POPC   PO432664  41.578   4.270   9.153
 7432POPC   GL132665  41.583   4.351   8.853
 7432POPC   GL232666  41.622   4.172   8.853
 7432POPC   C1A32667  41.571   4.330   8.553
 7432POPC   D2A32668  41.589   4.274   8.253
 7432POPC   C3A32669  41.567   4.270   7.953
 7432POPC   C4A32670  41.529   4.336   7.653
 7432POPC   C1B32671  41.663   4.132   8.553
 7432POPC   C2B32672  41.717   4.139   8.253
 7432POPC   C3B32673  41.652   4.116   7.953
 7432POPC   C4B32674  41.703   4.060   7.653
 7433POPC   NC332675  11.328  26.862   9.453
 7433POPC   PO432676  11.269  26.774   9.153
 7433POPC   GL132677  11.279  26.864   8.853
 7433POPC   GL232678  11.259  26.754   8.853
 7433POPC   C1A32679  11.317  26.806   8.553
 7433POPC   D2A32680  11.344  26.795   8.253
 7433POPC   C3A32681  11.264  26.800   7.953
 7433POPC   C4A32682  11.265  26.783   7.653
 7433POPC   C1B32683  11.179  26.617   8.553
 7433POPC   C2B32684  11.172  26.582   8.253
 7433POPC   C3B32685  11.107  26.661   7.953
 7433POPC   C4B32686  11.104  26.630   7.653
 7434POPC   NC332687  13.595  39.962   9.453
 7434POPC   PO432688  13.606  39.995   9.153
 7434POPC   GL132689  13.658  40.011   8.853
 7434POPC   GL232690  13.661  40.164   8.853
 7434POPC   C1A32691  13.624  39.992   8.553
 7434POPC   D2A32692  13.578  40.032   8.253
 7434POPC   C3A32693  13.622  39.997   7.953
 7434POPC   C4A32694  13.650  39.977   7.653
 7434POPC   C1B32695  13.616  40.256   8.553
 7434POPC   C2B32696  13.671  40.232   8.253
 7434POPC   C3B32697  13.601  40.258   7.953
 7434POPC   C4B32698  13.665  40.251   7.653
 7435POPC   NC332699  44.663  17.535   9.453
 7435POPC   PO432700  44.654  17.470   9.153
 7435POPC   GL132701  44.637  17.529   8.853
 7435POPC   GL232702  44.553  17.512   8.853
 7435POPC   C1A32703  44.619  17.515   8.553
 7435POPC   D2A32704  44.671  17.500   8.253
 7435POPC   C3A32705  44.637  17.469   7.953
 7435POPC   C4A32706  44.613  17.550   7.653
 7435POPC   C1B32707  44.463  17.603   8.553
 7435POPC   C2B32708  44.404  17.580   8.253
 7435POPC   C3B32709  44.466  17.569   7.953
 7435POPC   C4B32710  44.440  17.612   7.653
 7436POPC   NC332711  25.304   8.991   9.453
 7436POPC   PO432712  25.293   8.955   9.153
 7436POPC   GL132713  25.220   8.932   8.853
 7436POPC   GL232714  25.110   8.926   8.853
 7436POPC   C1A32715  25.230   8.928   8.553
 7436POPC   D2A32716  25.239   8.935   8.253
 7436POPC   C3A32717  25.244   8.952   7.953
 7436POPC   C4A32718  25.305   8.963   7.653
 7436POPC   C1B32719  25.037   8.939   8.553
 7436POPC   C2B32720  25.062   8.904   8.253
 7436POPC   C3B32721  24.987   8.953   7.953
 7436POPC   C4B32722  24.988   8.989   7.653
 7437POPC   NC332723  23.688  40.050   9.453
 7437POPC   PO432724  23.682  40.010   9.153
 7437POPC   GL132725  23.667  39.957   8.853
 7437POPC   GL232726  23.589  40.023   8.853
 7437POPC   C1A32727  23.706  40.049   8.553
 7437POPC   D2A32728  23.722  40.008   8.253
 7437POPC   C3A32729  23.683  40.022   7.953
 7437POPC   C4A32730  23.716  40.049   7.653
 7437POPC   C1B32731  23.480  40.084   8.553
 7437POPC   C2B32732  23.462  40.096   8.253
 7437POPC   C3B32733  23.492  40.125   7.953
 7437POPC   C4B32734  23.431  40.123   7.653
 7438POPC   NC332735   9.776  14.390   9.453
 7438POPC   PO432736   9.731  14.439   9.153
 7438POPC   GL132737   9.751  14.399   8.853
 7438POPC   GL232738   9.864  14.391   8.853
 7438POPC   C1A32739   9.705  14.360   8.553
 7438POPC   D2A32740   9.765  14.417   8.253
 7438POPC   C3A32741   9.737  14.375   7.953
 7438POPC   C4A32742   9.768  14.430   7.653
 7438POPC   C1B32743   9.972  14.390   8.553
 7438POPC   C2B32744   9.968  14.411   8.253
 7438POPC   C3B32745  10.041  14.437   7.953
 7438POPC   C4B32746   9.993  14.453   7.653
 7439POPC   NC332747  15.958  22.124   9.453
 7439POPC   PO432748  15.963  22.162   9.153
 7439POPC   GL132749  15.921  22.189   8.853
 7439POPC   GL232750  16.020  22.302   8.853
 7439POPC   C1A32751  15.975  22.137   8.553
 7439POPC   D2A32752  15.943  22.208   8.253
 7439POPC   C3A32753  15.967  22.180   7.953
 7439POPC   C4A32754  15.929  22.174   7.653
 7439POPC   C1B32755  16.129  22.349   8.553
 7439POPC   C2B32756  16.126  22.404   8.253
 7439POPC   C3B32757  16.093  22.397   7.953
 7439POPC   C4B32758  16.096  22.366   7.653
 7440POPC   NC332759  16.773  38.483   9.453
 7440POPC   PO432760  16.742  38.420   9.153
 7440POPC   GL132761  16.684  38.435   8.853
 7440POPC   GL232762  16.870  38.374   8.853
 7440POPC   C1A32763  16.682  38.467   8.553
 7440POPC   D2A32764  16.721  38.458   8.253
 7440POPC   C3A32765  16.688  38.439   7.953
 7440POPC   C4A32766  16.693  38.461   7.653
 7440POPC   C1B32767  16.913  38.336   8.553
 7440POPC   C2B32768  17.000  38.330   8.253
 7440POPC   C3B32769  16.945  38.316   7.953
 7440POPC   C4B32770  16.932  38.317   7.653
 7441POPC   NC332771  22.160   8.954   9.453
 7441POPC   PO432772  22.196   8.961   9.153
 7441POPC   GL132773  22.152   8.948   8.853
 7441POPC   GL232774  22.233   8.973   8.853
 7441POPC   C1A32775  22.197   8.934   8.553
 7441POPC   D2A32776  22.171   8.960   8.253
 7441POPC   C3A32777  22.127   8.940   7.953
 7441POPC   C4A32778  22.134   8.976   7.653
 7441POPC   C1B32779  22.412   8.897   8.553
 7441POPC   C2B32780  22.442   8.916   8.253
 7441POPC   C3B32781  22.427   8.911   7.953
 7441POPC   C4B32782  22.354   8.923   7.653
 7442POPC   NC332783   5.863  20.590   9.453
 7442POPC   PO432784   5.833  20.613   9.153
 7442POPC   GL132785   5.906  20.656   8.853
 7442POPC   GL232786   5.931  20.542   8.853
 7442POPC   C1A32787   5.894  20.604   8.553
 7442POPC   D2A32788   5.837  20.572   8.253
 7442POPC   C3A32789   5.836  20.624   7.953
 7442POPC   C4A32790   5.882  20.560   7.653
 7442POPC   C1B32791   5.995  20.412   8.553
 7442POPC   C2B32792   5.925  20.368   8.253
 7442POPC   C3B32793   5.925  20.358   7.953
 7442POPC   C4B32794   5.928  20.413   7.653
 7443POPC   NC332795  30.690  13.591   9.453
 7443POPC   PO432796  30.673  13.634   9.153
 7443POPC   GL132797  30.655  13.621   8.853
 7443POPC   GL232798  30.860  13.672   8.853
 7443POPC   C1A32799  30.658  13.604   8.553
 7443POPC   D2A32800  30.667  13.651   8.253
 7443POPC   C3A32801  30.732  13.593   7.953
 7443POPC   C4A32802  30.727  13.662   7.653
 7443POPC   C1B32803  30.955  13.638   8.553
 7443POPC   C2B32804  30.951  13.636   8.253
 7443POPC   C3B32805  30.938  13.650   7.953
 7443POPC   C4B32806  30.975  13.614   7.653
 7444POPC   NC332807  12.123  37.684   9.453
 7444POPC   PO432808  12.115  37.657   9.153
 7444POPC   GL132809  12.084  37.634   8.853
 7444POPC   GL232810  12.181  37.722   8.853
 7444POPC   C1A32811  12.035  37.693   8.553
 7444POPC   D2A32812  12.047  37.676   8.253
 7444POPC   C3A32813  12.096  37.723   7.953
 7444POPC   C4A32814  12.066  37.659   7.653
 7444POPC   C1B32815  12.277  37.810   8.553
 7444POPC   C2B32816  12.267  37.865   8.253
 7444POPC   C3B32817  12.218  37.874   7.953
 7444POPC   C4B32818  12.217  37.822   7.653
 7445POPC   NC332819  37.645  36.920   9.453
 7445POPC   PO432820  37.705  36.950   9.153
 7445POPC   GL132821  37.692  36.873   8.853
 7445POPC   GL232822  37.763  36.779   8.853
 7445POPC   C1A32823  37.654  36.945   8.553
 7445POPC   D2A32824  37.647  36.890   8.253
 7445POPC   C3A32825  37.682  36.926   7.953
 7445POPC   C4A32826  37.688  36.864   7.653
 7445POPC   C1B32827  37.802  36.718   8.553
 7445POPC   C2B32828  37.800  36.761   8.253
 7445POPC   C3B32829  37.890  36.766   7.953
 7445POPC   C4B32830  37.844  36.732   7.653
 7446POPC   NC332831  39.277  25.276   9.453
 7446POPC   PO432832  39.264  25.225   9.153
 7446POPC   GL132833  39.272  25.309   8.853
 7446POPC   GL232834  39.317  25.385   8.853
 7446POPC   C1A32835  39.252  25.281   8.553
 7446POPC   D2A32836  39.256  25.226   8.253
 7446POPC   C3A32837  39.202  25.293   7.953
 7446POPC   C4A32838  39.273  25.227   7.653
 7446POPC   C1B32839  39.331  25.461   8.553
 7446POPC   C2B32840  39.353  25.488   8.253
 7446POPC   C3B32841  39.316  25.490   7.953
 7446POPC   C4B32842  39.335  25.545   7.653
 7447POPC   NC332843   9.778  39.266   9.453
 7447POPC   PO432844   9.788  39.249   9.153
 7447POPC   GL132845   9.729  39.214   8.853
 7447POPC   GL232846   9.877  39.299   8.853
 7447POPC   C1A32847   9.708  39.242   8.553
 7447POPC   D2A32848   9.777  39.214   8.253
 7447POPC   C3A32849   9.713  39.208   7.953
 7447POPC   C4A32850   9.745  39.192   7.653
 7447POPC   C1B32851   9.982  39.303   8.553
 7447POPC   C2B32852  10.031  39.325   8.253
 7447POPC   C3B32853   9.966  39.297   7.953
 7447POPC   C4B32854   9.936  39.285   7.653
 7448POPC   NC332855  38.441  36.130   9.453
 7448POPC   PO432856  38.424  36.174   9.153
 7448POPC   GL132857  38.492  36.096   8.853
 7448POPC   GL232858  38.582  36.227   8.853
 7448POPC   C1A32859  38.446  36.137   8.553
 7448POPC   D2A32860  38.483  36.177   8.253
 7448POPC   C3A32861  38.477  36.150   7.953
 7448POPC   C4A32862  38.453  36.118   7.653
 7448POPC   C1B32863  38.644  36.297   8.553
 7448POPC   C2B32864  38.666  36.269   8.253
 7448POPC   C3B32865  38.642  36.320   7.953
 7448POPC   C4B32866  38.684  36.259   7.653
 7449POPC   NC332867   3.561  23.715   9.453
 7449POPC   PO432868   3.578  23.725   9.153
 7449POPC   GL132869   3.524  23.701   8.853
 7449POPC   GL232870   3.673  23.679   8.853
 7449POPC   C1A32871   3.506  23.727   8.553
 7449POPC   D2A32872   3.548  23.701   8.253
 7449POPC   C3A32873   3.517  23.681   7.953
 7449POPC   C4A32874   3.577  23.702   7.653
 7449POPC   C1B32875   3.785  23.732   8.553
 7449POPC   C2B32876   3.827  23.712   8.253
 7449POPC   C3B32877   3.801  23.673   7.953
 7449POPC   C4B32878   3.786  23.712   7.653
 7450POPC   NC332879  12.044  17.488   9.453
 7450POPC   PO432880  12.102  17.504   9.153
 7450POPC   GL132881  12.080  17.552   8.853
 7450POPC   GL232882  12.184  17.626   8.853
 7450POPC   C1A32883  12.052  17.537   8.553
 7450POPC   D2A32884  12.075  17.542   8.253
 7450POPC   C3A32885  12.101  17.503   7.953
 7450POPC   C4A32886  12.116  17.526   7.653
 7450POPC   C1B32887  12.277  17.736   8.553
 7450POPC   C2B32888  12.240  17.647   8.253
 7450POPC   C3B32889  12.253  17.700   7.953
 7450POPC   C4B32890  12.216  17.679   7.653
 7451POPC   NC332891   9.751  25.244   9.453
 7451POPC   PO432892   9.795  25.276   9.153
 7451POPC   GL132893   9.766  25.241   8.853
 7451POPC   GL232894   9.861  25.324   8.853
 7451POPC   C1A32895   9.793  25.271   8.553
 7451POPC   D2A32896   9.754  25.291   8.253
 7451POPC   C3A32897   9.778  25.306   7.953
 7451POPC   C4A32898   9.763  25.285   7.653
 7451POPC   C1B32899   9.896  25.478   8.553
 7451POPC   C2B32900   9.920  25.387   8.253
 7451POPC   C3B32901   9.892  25.427   7.953
 7451POPC   C4B32902   9.928  25.413   7.653
 7452POPC   NC332903  33.837   5.105   9.453
 7452POPC   PO432904  33.849   5.080   9.153
 7452POPC   GL132905  33.812   5.103   8.853
 7452POPC   GL232906  33.860   5.154   8.853
 7452POPC   C1A32907  33.813   5.135   8.553
 7452POPC   D2A32908  33.784   5.117   8.253
 7452POPC   C3A32909  33.790   5.059   7.953
 7452POPC   C4A32910  33.835   5.129   7.653
 7452POPC   C1B32911  33.997   5.303   8.553
 7452POPC   C2B32912  33.973   5.315   8.253
 7452POPC   C3B32913  34.022   5.276   7.953
 7452POPC   C4B32914  33.997   5.260   7.653
 7453POPC   NC332915   4.339  39.268   9.453
 7453POPC   PO432916   4.278  39.255   9.153
 7453POPC   GL132917   4.313  39.256   8.853
 7453POPC   GL232918   4.177  39.197   8.853
 7453POPC   C1A32919   4.331  39.225   8.553
 7453POPC   D2A32920   4.330  39.182   8.253
 7453POPC   C3A32921   4.287  39.245   7.953
 7453POPC   C4A32922   4.283  39.241   7.653
 7453POPC   C1B32923   4.087  39.020   8.553
 7453POPC   C2B32924   4.170  39.036   8.253
 7453POPC   C3B32925   4.078  39.102   7.953
 7453POPC   C4B32926   4.130  39.104   7.653
 7454POPC   NC332927  33.065  36.127   9.453
 7454POPC   PO432928  33.034  36.134   9.153
 7454POPC   GL132929  33.010  36.147   8.853
 7454POPC   GL232930  33.114  36.210   8.853
 7454POPC   C1A32931  33.025  36.156   8.553
 7454POPC   D2A32932  32.995  36.110   8.253
 7454POPC   C3A32933  33.073  36.148   7.953
 7454POPC   C4A32934  33.019  36.100   7.653
 7454POPC   C1B32935  33.242  36.267   8.553
 7454POPC   C2B32936  33.169  36.263   8.253
 7454POPC   C3B32937  33.170  36.265   7.953
 7454POPC   C4B32938  33.234  36.265   7.653
 7455POPC   NC332939  33.040  26.817   9.453
 7455POPC   PO432940  33.011  26.794   9.153
 7455POPC   GL132941  33.061  26.842   8.853
 7455POPC   GL232942  33.030  26.693   8.853
 7455POPC   C1A32943  32.990  26.811   8.553
 7455POPC   D2A32944  33.019  26.847   8.253
 7455POPC   C3A32945  33.058  26.840   7.953
 7455POPC   C4A32946  33.001  26.777   7.653
 7455POPC   C1B32947  33.083  26.606   8.553
 7455POPC   C2B32948  33.075  26.538   8.253
 7455POPC   C3B32949  33.076  26.615   7.953
 7455POPC   C4B32950  33.042  26.597   7.653
 7456POPC   NC332951  29.120   2.738   9.453
 7456POPC   PO432952  29.194   2.743   9.153
 7456POPC   GL132953  29.123   2.743   8.853
 7456POPC   GL232954  29.091   2.674   8.853
 7456POPC   C1A32955  29.120   2.717   8.553
 7456POPC   D2A32956  29.164   2.801   8.253
 7456POPC   C3A32957  29.102   2.763   7.953
 7456POPC   C4A32958  29.145   2.716   7.653
 7456POPC   C1B32959  29.119   2.537   8.553
 7456POPC   C2B32960  29.123   2.565   8.253
 7456POPC   C3B32961  29.126   2.487   7.953
 7456POPC   C4B32962  29.102   2.505   7.653
 7457POPC   NC332963  11.314  38.424   9.453
 7457POPC   PO432964  11.292  38.461   9.153
 7457POPC   GL132965  11.315  38.468   8.853
 7457POPC   GL232966  11.343  38.545   8.853
 7457POPC   C1A32967  11.305  38.421   8.553
 7457POPC   D2A32968  11.252  38.484   8.253
 7457POPC   C3A32969  11.324  38.473   7.953
 7457POPC   C4A32970  11.307  38.478   7.653
 7457POPC   C1B32971  11.345  38.651   8.553
 7457POPC   C2B32972  11.345  38.699   8.253
 7457POPC   C3B32973  11.336  38.704   7.953
 7457POPC   C4B32974  11.331  38.736   7.653
 7458POPC   NC332975  40.780  33.837   9.453
 7458POPC   PO432976  40.758  33.820   9.153
 7458POPC   GL132977  40.757  33.751   8.853
 7458POPC   GL232978  40.665  33.852   8.853
 7458POPC   C1A32979  40.826  33.814   8.553
 7458POPC   D2A32980  40.762  33.791   8.253
 7458POPC   C3A32981  40.811  33.800   7.953
 7458POPC   C4A32982  40.803  33.768   7.653
 7458POPC   C1B32983  40.606  33.961   8.553
 7458POPC   C2B32984  40.600  34.009   8.253
 7458POPC   C3B32985  40.634  33.992   7.953
 7458POPC   C4B32986  40.572  33.976   7.653
 7459POPC   NC332987   8.974  34.583   9.453
 7459POPC   PO432988   8.938  34.552   9.153
 7459POPC   GL132989   8.960  34.595   8.853
 7459POPC   GL232990   9.046  34.545   8.853
 7459POPC   C1A32991   8.980  34.613   8.553
 7459POPC   D2A32992   9.012  34.602   8.253
 7459POPC   C3A32993   8.996  34.527   7.953
 7459POPC   C4A32994   8.992  34.529   7.653
 7459POPC   C1B32995   9.184  34.579   8.553
 7459POPC   C2B32996   9.188  34.609   8.253
 7459POPC   C3B32997   9.215  34.609   7.953
 7459POPC   C4B32998   9.260  34.633   7.653
 7460POPC   NC332999  15.960  44.652   9.453
 7460POPC   PO433000  16.000  44.678   9.153
 7460POPC   GL133001  15.948  44.635   8.853
 7460POPC   GL233002  16.055  44.701   8.853
 7460POPC   C1A33003  15.968  44.694   8.553
 7460POPC   D2A33004  16.002  44.680   8.253
 7460POPC   C3A33005  15.914  44.628   7.953
 7460POPC   C4A33006  15.977  44.614   7.653
 7460POPC   C1B33007  16.180  44.838   8.553
 7460POPC   C2B33008  16.111  44.799   8.253
 7460POPC   C3B33009  16.158  44.847   7.953
 7460POPC   C4B33010  16.150  44.765   7.653
 7461POPC   NC333011  22.955  42.372   9.453
 7461POPC   PO433012  22.897  42.353   9.153
 7461POPC   GL133013  22.891  42.308   8.853
 7461POPC   GL233014  22.789  42.304   8.853
 7461POPC   C1A33015  22.943  42.367   8.553
 7461POPC   D2A33016  22.919  42.301   8.253
 7461POPC   C3A33017  22.988  42.296   7.953
 7461POPC   C4A33018  22.931  42.315   7.653
 7461POPC   C1B33019  22.732  42.330   8.553
 7461POPC   C2B33020  22.702  42.253   8.253
 7461POPC   C3B33021  22.738  42.299   7.953
 7461POPC   C4B33022  22.701  42.266   7.653
 7462POPC   NC333023  37.685  29.104   9.453
 7462POPC   PO433024  37.643  29.183   9.153
 7462POPC   GL133025  37.643  29.125   8.853
 7462POPC   GL233026  37.698  29.253   8.853
 7462POPC   C1A33027  37.719  29.117   8.553
 7462POPC   D2A33028  37.696  29.182   8.253
 7462POPC   C3A33029  37.710  29.180   7.953
 7462POPC   C4A33030  37.708  29.144   7.653
 7462POPC   C1B33031  37.640  29.358   8.553
 7462POPC   C2B33032  37.597  29.370   8.253
 7462POPC   C3B33033  37.583  29.406   7.953
 7462POPC   C4B33034  37.587  29.392   7.653
 7463POPC   NC333035   4.280  33.846   9.453
 7463POPC   PO433036   4.283  33.817   9.153
 7463POPC   GL133037   4.276  33.845   8.853
 7463POPC   GL233038   4.331  33.960   8.853
 7463POPC   C1A33039   4.366  33.754   8.553
 7463POPC   D2A33040   4.276  33.787   8.253
 7463POPC   C3A33041   4.273  33.762   7.953
 7463POPC   C4A33042   4.291  33.835   7.653
 7463POPC   C1B33043   4.335  34.093   8.553
 7463POPC   C2B33044   4.346  34.091   8.253
 7463POPC   C3B33045   4.379  34.057   7.953
 7463POPC   C4B33046   4.317  34.043   7.653
 7464POPC   NC333047  26.000  41.547   9.453
 7464POPC   PO433048  26.012  41.566   9.153
 7464POPC   GL133049  26.078  41.515   8.853
 7464POPC   GL233050  26.198  41.541   8.853
 7464POPC   C1A33051  26.032  41.607   8.553
 7464POPC   D2A33052  25.994  41.527   8.253
 7464POPC   C3A33053  26.019  41.598   7.953
 7464POPC   C4A33054  26.022  41.554   7.653
 7464POPC   C1B33055  26.260  41.555   8.553
 7464POPC   C2B33056  26.300  41.590   8.253
 7464POPC   C3B33057  26.239  41.544   7.953
 7464POPC   C4B33058  26.241  41.626   7.653
 7465POPC   NC333059  18.326  20.581   9.453
 7465POPC   PO433060  18.332  20.561   9.153
 7465POPC   GL133061  18.236  20.659   8.853
 7465POPC   GL233062  18.301  20.523   8.853
 7465POPC   C1A33063  18.305  20.589   8.553
 7465POPC   D2A33064  18.265  20.616   8.253
 7465POPC   C3A33065  18.259  20.632   7.953
 7465POPC   C4A33066  18.256  20.641   7.653
 7465POPC   C1B33067  18.310  20.405   8.553
 7465POPC   C2B33068  18.305  20.412   8.253
 7465POPC   C3B33069  18.365  20.364   7.953
 7465POPC   C4B33070  18.299  20.344   7.653
 7466POPC   NC333071  24.502   0.445   9.453
 7466POPC   PO433072  24.498   0.468   9.153
 7466POPC   GL133073  24.494   0.444   8.853
 7466POPC   GL233074  24.456   0.268   8.853
 7466POPC   C1A33075  24.470   0.423   8.553
 7466POPC   D2A33076  24.505   0.436   8.253
 7466POPC   C3A33077  24.509   0.445   7.953
 7466POPC   C4A33078  24.529   0.479   7.653
 7466POPC   C1B33079  24.519   0.146   8.553
 7466POPC   C2B33080  24.490   0.176   8.253
 7466POPC   C3B33081  24.535   0.147   7.953
 7466POPC   C4B33082  24.463   0.191   7.653
 7467POPC   NC333083  20.589  28.382   9.453
 7467POPC   PO433084  20.571  28.320   9.153
 7467POPC   GL133085  20.561  28.374   8.853
 7467POPC   GL233086  20.691  28.279   8.853
 7467POPC   C1A33087  20.576  28.364   8.553
 7467POPC   D2A33088  20.635  28.389   8.253
 7467POPC   C3A33089  20.622  28.325   7.953
 7467POPC   C4A33090  20.601  28.371   7.653
 7467POPC   C1B33091  20.831  28.250   8.553
 7467POPC   C2B33092  20.808  28.277   8.253
 7467POPC   C3B33093  20.822  28.218   7.953
 7467POPC   C4B33094  20.854  28.220   7.653
 7468POPC   NC333095  33.044   9.707   9.453
 7468POPC   PO433096  33.052   9.710   9.153
 7468POPC   GL133097  33.001   9.758   8.853
 7468POPC   GL233098  32.968   9.854   8.853
 7468POPC   C1A33099  33.043   9.794   8.553
 7468POPC   D2A33100  33.057   9.781   8.253
 7468POPC   C3A33101  32.996   9.731   7.953
 7468POPC   C4A33102  33.021   9.745   7.653
 7468POPC   C1B33103  32.836   9.908   8.553
 7468POPC   C2B33104  32.904   9.933   8.253
 7468POPC   C3B33105  32.873   9.932   7.953
 7468POPC   C4B33106  32.883   9.907   7.653
 7469POPC   NC333107  36.913  21.362   9.453
 7469POPC   PO433108  36.907  21.433   9.153
 7469POPC   GL133109  36.882  21.374   8.853
 7469POPC   GL233110  36.899  21.245   8.853
 7469POPC   C1A33111  36.856  21.345   8.553
 7469POPC   D2A33112  36.932  21.348   8.253
 7469POPC   C3A33113  36.938  21.337   7.953
 7469POPC   C4A33114  36.889  21.416   7.653
 7469POPC   C1B33115  36.922  21.101   8.553
 7469POPC   C2B33116  36.907  21.179   8.253
 7469POPC   C3B33117  36.903  21.172   7.953
 7469POPC   C4B33118  36.904  21.186   7.653
 7470POPC   NC333119  33.807  35.319   9.453
 7470POPC   PO433120  33.785  35.316   9.153
 7470POPC   GL133121  33.830  35.385   8.853
 7470POPC   GL233122  33.910  35.441   8.853
 7470POPC   C1A33123  33.832  35.397   8.553
 7470POPC   D2A33124  33.752  35.343   8.253
 7470POPC   C3A33125  33.771  35.335   7.953
 7470POPC   C4A33126  33.801  35.338   7.653
 7470POPC   C1B33127  33.954  35.569   8.553
 7470POPC   C2B33128  33.999  35.576   8.253
 7470POPC   C3B33129  33.971  35.511   7.953
 7470POPC   C4B33130  33.991  35.563   7.653
 7471POPC   NC333131  32.221  29.963   9.453
 7471POPC   PO433132  32.288  29.912   9.153
 7471POPC   GL133133  32.227  29.959   8.853
 7471POPC   GL233134  32.323  30.043   8.853
 7471POPC   C1A33135  32.264  29.876   8.553
 7471POPC   D2A33136  32.239  29.918   8.253
 7471POPC   C3A33137  32.288  29.934   7.953
 7471POPC   C4A33138  32.213  29.935   7.653
 7471POPC   C1B33139  32.331  30.180   8.553
 7471POPC   C2B33140  32.374  30.094   8.253
 7471POPC   C3B33141  32.347  30.180   7.953
 7471POPC   C4B33142  32.325  30.095   7.653
 7472POPC   NC333143  29.968  30.709   9.453
 7472POPC   PO433144  29.966  30.737   9.153
 7472POPC   GL133145  29.948  30.696   8.853
 7472POPC   GL233146  30.000  30.598   8.853
 7472POPC   C1A33147  29.895  30.710   8.553
 7472POPC   D2A33148  29.913  30.741   8.253
 7472POPC   C3A33149  29.933  30.675   7.953
 7472POPC   C4A33150  29.968  30.733   7.653
 7472POPC   C1B33151  30.103  30.524   8.553
 7472POPC   C2B33152  30.109  30.527   8.253
 7472POPC   C3B33153  30.055  30.537   7.953
 7472POPC   C4B33154  30.087  30.534   7.653
 7473POPC   NC333155   9.720  10.564   9.453
 7473POPC   PO433156   9.766  10.508   9.153
 7473POPC   GL133157   9.731  10.517   8.853
 7473POPC   GL233158   9.679  10.642   8.853
 7473POPC   C1A33159   9.794  10.486   8.553
 7473POPC   D2A33160   9.735  10.477   8.253
 7473POPC   C3A33161   9.738  10.478   7.953
 7473POPC   C4A33162   9.745  10.557   7.653
 7473POPC   C1B33163   9.657  10.788   8.553
 7473POPC   C2B33164   9.621  10.700   8.253
 7473POPC   C3B33165   9.652  10.739   7.953
 7473POPC   C4B33166   9.653  10.732   7.653
 7474POPC   NC333167  36.175  15.195   9.453
 7474POPC   PO433168  36.129  15.193   9.153
 7474POPC   GL133169  36.142  15.135   8.853
 7474POPC   GL233170  36.143  15.024   8.853
 7474POPC   C1A33171  36.144  15.193   8.553
 7474POPC   D2A33172  36.145  15.205   8.253
 7474POPC   C3A33173  36.170  15.153   7.953
 7474POPC   C4A33174  36.143  15.142   7.653
 7474POPC   C1B33175  36.094  14.949   8.553
 7474POPC   C2B33176  36.070  14.922   8.253
 7474POPC   C3B33177  36.124  14.952   7.953
 7474POPC   C4B33178  36.091  14.953   7.653
 7475POPC   NC333179  12.812   2.797   9.453
 7475POPC   PO433180  12.819   2.794   9.153
 7475POPC   GL133181  12.892   2.738   8.853
 7475POPC   GL233182  12.757   2.759   8.853
 7475POPC   C1A33183  12.886   2.767   8.553
 7475POPC   D2A33184  12.892   2.750   8.253
 7475POPC   C3A33185  12.858   2.728   7.953
 7475POPC   C4A33186  12.881   2.809   7.653
 7475POPC   C1B33187  12.642   2.639   8.553
 7475POPC   C2B33188  12.590   2.721   8.253
 7475POPC   C3B33189  12.660   2.680   7.953
 7475POPC   C4B33190  12.621   2.693   7.653
 7476POPC   NC333191  11.323  36.861   9.453
 7476POPC   PO433192  11.274  36.925   9.153
 7476POPC   GL133193  11.258  36.939   8.853
 7476POPC   GL233194  11.447  36.932   8.853
 7476POPC   C1A33195  11.340  36.923   8.553
 7476POPC   D2A33196  11.299  36.924   8.253
 7476POPC   C3A33197  11.311  36.912   7.953
 7476POPC   C4A33198  11.287  36.875   7.653
 7476POPC   C1B33199  11.543  36.855   8.553
 7476POPC   C2B33200  11.581  36.936   8.253
 7476POPC   C3B33201  11.526  36.859   7.953
 7476POPC   C4B33202  11.585  36.886   7.653
 7477POPC   NC333203  36.156  19.796   9.453
 7477POPC   PO433204  36.090  19.851   9.153
 7477POPC   GL133205  36.120  19.863   8.853
 7477POPC   GL233206  36.196  19.751   8.853
 7477POPC   C1A33207  36.119  19.839   8.553
 7477POPC   D2A33208  36.139  19.827   8.253
 7477POPC   C3A33209  36.125  19.847   7.953
 7477POPC   C4A33210  36.094  19.851   7.653
 7477POPC   C1B33211  36.175  19.569   8.553
 7477POPC   C2B33212  36.189  19.578   8.253
 7477POPC   C3B33213  36.230  19.636   7.953
 7477POPC   C4B33214  36.186  19.547   7.653
 7478POPC   NC333215  32.993  29.166   9.453
 7478POPC   PO433216  33.047  29.113   9.153
 7478POPC   GL133217  33.061  29.143   8.853
 7478POPC   GL233218  33.026  29.010   8.853
 7478POPC   C1A33219  33.055  29.148   8.553
 7478POPC   D2A33220  33.058  29.140   8.253
 7478POPC   C3A33221  32.988  29.142   7.953
 7478POPC   C4A33222  33.058  29.108   7.653
 7478POPC   C1B33223  33.000  28.932   8.553
 7478POPC   C2B33224  33.051  28.856   8.253
 7478POPC   C3B33225  32.976  28.903   7.953
 7478POPC   C4B33226  32.964  28.917   7.653
 7479POPC   NC333227  32.215  44.639   9.453
 7479POPC   PO433228  32.248  44.686   9.153
 7479POPC   GL133229  32.255  44.616   8.853
 7479POPC   GL233230  32.325  44.501   8.853
 7479POPC   C1A33231  32.205  44.661   8.553
 7479POPC   D2A33232  32.205  44.702   8.253
 7479POPC   C3A33233  32.248  44.692   7.953
 7479POPC   C4A33234  32.275  44.632   7.653
 7479POPC   C1B33235  32.312  44.408   8.553
 7479POPC   C2B33236  32.343  44.402   8.253
 7479POPC   C3B33237  32.362  44.414   7.953
 7479POPC   C4B33238  32.289  44.444   7.653
 7480POPC   NC333239  27.626  33.759   9.453
 7480POPC   PO433240  27.562  33.816   9.153
 7480POPC   GL133241  27.628  33.848   8.853
 7480POPC   GL233242  27.671  33.879   8.853
 7480POPC   C1A33243  27.570  33.794   8.553
 7480POPC   D2A33244  27.564  33.839   8.253
 7480POPC   C3A33245  27.621  33.839   7.953
 7480POPC   C4A33246  27.627  33.825   7.653
 7480POPC   C1B33247  27.806  33.877   8.553
 7480POPC   C2B33248  27.835  33.831   8.253
 7480POPC   C3B33249  27.849  33.907   7.953
 7480POPC   C4B33250  27.841  33.895   7.653
 7481POPC   NC333251   5.902   8.993   9.453
 7481POPC   PO433252   5.859   8.945   9.153
 7481POPC   GL133253   5.851   8.996   8.853
 7481POPC   GL233254   5.754   8.994   8.853
 7481POPC   C1A33255   5.911   9.017   8.553
 7481POPC   D2A33256   5.826   8.960   8.253
 7481POPC   C3A33257   5.860   8.987   7.953
 7481POPC   C4A33258   5.832   9.009   7.653
 7481POPC   C1B33259   5.652   9.061   8.553
 7481POPC   C2B33260   5.669   9.126   8.253
 7481POPC   C3B33261   5.633   9.098   7.953
 7481POPC   C4B33262   5.675   9.083   7.653
 7482POPC   NC333263  38.441  32.977   9.453
 7482POPC   PO433264  38.425  33.021   9.153
 7482POPC   GL133265  38.453  33.048   8.853
 7482POPC   GL233266  38.589  33.040   8.853
 7482POPC   C1A33267  38.476  33.035   8.553
 7482POPC   D2A33268  38.490  32.998   8.253
 7482POPC   C3A33269  38.415  32.995   7.953
 7482POPC   C4A33270  38.416  32.993   7.653
 7482POPC   C1B33271  38.718  32.943   8.553
 7482POPC   C2B33272  38.710  32.949   8.253
 7482POPC   C3B33273  38.675  33.001   7.953
 7482POPC   C4B33274  38.671  32.965   7.653
 7483POPC   NC333275  19.792  12.100   9.453
 7483POPC   PO433276  19.802  12.107   9.153
 7483POPC   GL133277  19.868  12.112   8.853
 7483POPC   GL233278  19.844  12.005   8.853
 7483POPC   C1A33279  19.827  12.028   8.553
 7483POPC   D2A33280  19.828  12.107   8.253
 7483POPC   C3A33281  19.793  12.069   7.953
 7483POPC   C4A33282  19.837  12.118   7.653
 7483POPC   C1B33283  19.947  11.798   8.553
 7483POPC   C2B33284  19.950  11.823   8.253
 7483POPC   C3B33285  19.960  11.796   7.953
 7483POPC   C4B33286  19.977  11.880   7.653
 7484POPC   NC333287   0.406  11.299   9.453
 7484POPC   PO433288   0.400  11.303   9.153
 7484POPC   GL133289   0.451  11.337   8.853
 7484POPC   GL233290   0.384  11.222   8.853
 7484POPC   C1A33291   0.486  11.295   8.553
 7484POPC   D2A33292   0.475  11.321   8.253
 7484POPC   C3A33293   0.413  11.300   7.953
 7484POPC   C4A33294   0.487  11.319   7.653
 7484POPC   C1B33295   0.346  11.102   8.553
 7484POPC   C2B33296   0.300  11.103   8.253
 7484POPC   C3B33297   0.295  11.079   7.953
 7484POPC   C4B33298   0.283  11.044   7.653
 7485POPC   NC333299  14.381   7.394   9.453
 7485POPC   PO433300  14.415   7.423   9.153
 7485POPC   GL133301  14.420   7.455   8.853
 7485POPC   GL233302  14.296   7.380   8.853
 7485POPC   C1A33303  14.439   7.440   8.553
 7485POPC   D2A33304  14.443   7.394   8.253
 7485POPC   C3A33305  14.373   7.436   7.953
 7485POPC   C4A33306  14.414   7.462   7.653
 7485POPC   C1B33307  14.157   7.358   8.553
 7485POPC   C2B33308  14.125   7.295   8.253
 7485POPC   C3B33309  14.218   7.305   7.953
 7485POPC   C4B33310  14.191   7.339   7.653
 7486POPC   NC333311  26.779   7.457   9.453
 7486POPC   PO433312  26.843   7.405   9.153
 7486POPC   GL133313  26.778   7.406   8.853
 7486POPC   GL233314  26.832   7.291   8.853
 7486POPC   C1A33315  26.824   7.468   8.553
 7486POPC   D2A33316  26.775   7.447   8.253
 7486POPC   C3A33317  26.860   7.442   7.953
 7486POPC   C4A33318  26.820   7.374   7.653
 7486POPC   C1B33319  26.904   7.205   8.553
 7486POPC   C2B33320  26.904   7.229   8.253
 7486POPC   C3B33321  26.951   7.200   7.953
 7486POPC   C4B33322  26.906   7.159   7.653
 7487POPC   NC333323  43.120  27.626   9.453
 7487POPC   PO433324  43.151  27.593   9.153
 7487POPC   GL133325  43.137  27.544   8.853
 7487POPC   GL233326  43.131  27.501   8.853
 7487POPC   C1A33327  43.078  27.551   8.553
 7487POPC   D2A33328  43.069  27.556   8.253
 7487POPC   C3A33329  43.075  27.637   7.953
 7487POPC   C4A33330  43.083  27.598   7.653
 7487POPC   C1B33331  43.094  27.302   8.553
 7487POPC   C2B33332  43.185  27.376   8.253
 7487POPC   C3B33333  43.101  27.364   7.953
 7487POPC   C4B33334  43.186  27.344   7.653
 7488POPC   NC333335  21.402   1.246   9.453
 7488POPC   PO433336  21.377   1.253   9.153
 7488POPC   GL133337  21.355   1.224   8.853
 7488POPC   GL233338  21.402   1.298   8.853
 7488POPC   C1A33339  21.436   1.223   8.553
 7488POPC   D2A33340  21.399   1.191   8.253
 7488POPC   C3A33341  21.412   1.223   7.953
 7488POPC   C4A33342  21.341   1.249   7.653
 7488POPC   C1B33343  21.478   1.448   8.553
 7488POPC   C2B33344  21.496   1.405   8.253
 7488POPC   C3B33345  21.465   1.489   7.953
 7488POPC   C4B33346  21.419   1.407   7.653
 7489POPC   NC333347   1.237  43.062   9.453
 7489POPC   PO433348   1.211  43.080   9.153
 7489POPC   GL133349   1.167  43.129   8.853
 7489POPC   GL233350   1.254  43.201   8.853
 7489POPC   C1A33351   1.176  43.080   8.553
 7489POPC   D2A33352   1.211  43.079   8.253
 7489POPC   C3A33353   1.188  43.132   7.953
 7489POPC   C4A33354   1.258  43.091   7.653
 7489POPC   C1B33355   1.200  43.329   8.553
 7489POPC   C2B33356   1.179  43.373   8.253
 7489POPC   C3B33357   1.269  43.311   7.953
 7489POPC   C4B33358   1.183  43.357   7.653
 7490POPC   NC333359  32.212   1.181   9.453
 7490POPC   PO433360  32.259   1.233   9.153
 7490POPC   GL133361  32.229   1.219   8.853
 7490POPC   GL233362  32.282   1.145   8.853
 7490POPC   C1A33363  32.231   1.251   8.553
 7490POPC   D2A33364  32.239   1.209   8.253
 7490POPC   C3A33365  32.238   1.253   7.953
 7490POPC   C4A33366  32.216   1.165   7.653
 7490POPC   C1B33367  32.416   1.026   8.553
 7490POPC   C2B33368  32.359   0.985   8.253
 7490POPC   C3B33369  32.393   1.061   7.953
 7490POPC   C4B33370  32.376   1.015   7.653
 7491POPC   NC333371   8.966  23.704   9.453
 7491POPC   PO433372   8.982  23.759   9.153
 7491POPC   GL133373   8.927  23.710   8.853
 7491POPC   GL233374   9.053  23.665   8.853
 7491POPC   C1A33375   8.990  23.708   8.553
 7491POPC   D2A33376   8.991  23.700   8.253
 7491POPC   C3A33377   9.018  23.755   7.953
 7491POPC   C4A33378   8.968  23.690   7.653
 7491POPC   C1B33379   9.137  23.569   8.553
 7491POPC   C2B33380   9.159  23.536   8.253
 7491POPC   C3B33381   9.168  23.551   7.953
 7491POPC   C4B33382   9.165  23.553   7.653
 7492POPC   NC333383  10.475  21.402   9.453
 7492POPC   PO433384  10.548  21.409   9.153
 7492POPC   GL133385  10.524  21.401   8.853
 7492POPC   GL233386  10.631  21.314   8.853
 7492POPC   C1A33387  10.526  21.341   8.553
 7492POPC   D2A33388  10.509  21.435   8.253
 7492POPC   C3A33389  10.570  21.417   7.953
 7492POPC   C4A33390  10.521  21.402   7.653
 7492POPC   C1B33391  10.743  21.313   8.553
 7492POPC   C2B33392  10.803  21.320   8.253
 7492POPC   C3B33393  10.740  21.359   7.953
 7492POPC   C4B33394  10.782  21.353   7.653
 7493POPC   NC333395   0.418   0.467   9.453
 7493POPC   PO433396   0.444   0.487   9.153
 7493POPC   GL133397   0.389   0.413   8.853
 7493POPC   GL233398   0.326   0.357   8.853
 7493POPC   C1A33399   0.486   0.438   8.553
 7493POPC   D2A33400   0.477   0.402   8.253
 7493POPC   C3A33401   0.479   0.437   7.953
 7493POPC   C4A33402   0.436   0.481   7.653
 7493POPC   C1B33403   0.278   0.306   8.553
 7493POPC   C2B33404   0.255   0.329   8.253
 7493POPC   C3B33405   0.263   0.325   7.953
 7493POPC   C4B33406   0.263   0.332   7.653
 7494POPC   NC333407  18.293  22.208   9.453
 7494POPC   PO433408  18.314  22.136   9.153
 7494POPC   GL133409  18.281  22.167   8.853
 7494POPC   GL233410  18.208  22.049   8.853
 7494POPC   C1A33411  18.238  22.130   8.553
 7494POPC   D2A33412  18.310  22.210   8.253
 7494POPC   C3A33413  18.248  22.195   7.953
 7494POPC   C4A33414  18.329  22.159   7.653
 7494POPC   C1B33415  18.173  21.915   8.553
 7494POPC   C2B33416  18.140  21.927   8.253
 7494POPC   C3B33417  18.141  21.972   7.953
 7494POPC   C4B33418  18.166  21.936   7.653
 7495POPC   NC333419  24.442  40.812   9.453
 7495POPC   PO433420  24.452  40.805   9.153
 7495POPC   GL133421  24.465  40.740   8.853
 7495POPC   GL233422  24.441  40.895   8.853
 7495POPC   C1A33423  24.474  40.766   8.553
 7495POPC   D2A33424  24.449  40.808   8.253
 7495POPC   C3A33425  24.535  40.818   7.953
 7495POPC   C4A33426  24.469  40.805   7.653
 7495POPC   C1B33427  24.295  40.989   8.553
 7495POPC   C2B33428  24.343  40.980   8.253
 7495POPC   C3B33429  24.319  40.901   7.953
 7495POPC   C4B33430  24.335  40.931   7.653
 7496POPC   NC333431   2.023   6.627   9.453
 7496POPC   PO433432   2.029   6.625   9.153
 7496POPC   GL133433   1.978   6.622   8.853
 7496POPC   GL233434   2.057   6.681   8.853
 7496POPC   C1A33435   2.010   6.635   8.553
 7496POPC   D2A33436   2.022   6.677   8.253
 7496POPC   C3A33437   2.027   6.640   7.953
 7496POPC   C4A33438   1.947   6.606   7.653
 7496POPC   C1B33439   2.174   6.770   8.553
 7496POPC   C2B33440   2.182   6.770   8.253
 7496POPC   C3B33441   2.181   6.773   7.953
 7496POPC   C4B33442   2.148   6.804   7.653
 7497POPC   NC333443  36.937  19.835   9.453
 7497POPC   PO433444  36.913  19.866   9.153
 7497POPC   GL133445  36.922  19.840   8.853
 7497POPC   GL233446  36.986  19.949   8.853
 7497POPC   C1A33447  36.931  19.829   8.553
 7497POPC   D2A33448  36.930  19.791   8.253
 7497POPC   C3A33449  36.875  19.854   7.953
 7497POPC   C4A33450  36.893  19.820   7.653
 7497POPC   C1B33451  37.034  20.064   8.553
 7497POPC   C2B33452  36.935  20.062   8.253
 7497POPC   C3B33453  37.004  20.111   7.953
 7497POPC   C4B33454  37.021  20.085   7.653
 7498POPC   NC333455  21.343  10.517   9.453
 7498POPC   PO433456  21.413  10.537   9.153
 7498POPC   GL133457  21.406  10.568   8.853
 7498POPC   GL233458  21.487  10.483   8.853
 7498POPC   C1A33459  21.343  10.516   8.553
 7498POPC   D2A33460  21.432  10.487   8.253
 7498POPC   C3A33461  21.422  10.570   7.953
 7498POPC   C4A33462  21.375  10.522   7.653
 7498POPC   C1B33463  21.515  10.369   8.553
 7498POPC   C2B33464  21.580  10.322   8.253
 7498POPC   C3B33465  21.530  10.376   7.953
 7498POPC   C4B33466  21.518  10.343   7.653
 7499POPC   NC333467   7.450  40.040   9.453
 7499POPC   PO433468   7.405  39.994   9.153
 7499POPC   GL133469   7.379  39.988   8.853
 7499POPC   GL233470   7.380  39.939   8.853
 7499POPC   C1A33471   7.399  40.038   8.553
 7499POPC   D2A33472   7.380  40.052   8.253
 7499POPC   C3A33473   7.375  40.027   7.953
 7499POPC   C4A33474   7.409  39.980   7.653
 7499POPC   C1B33475   7.307  39.831   8.553
 7499POPC   C2B33476   7.324  39.813   8.253
 7499POPC   C3B33477   7.300  39.773   7.953
 7499POPC   C4B33478   7.293  39.800   7.653
 7500POPC   NC333479   5.911  11.284   9.453
 7500POPC   PO433480   5.852  11.348   9.153
 7500POPC   GL133481   5.853  11.323   8.853
 7500POPC   GL233482   5.729  11.316   8.853
 7500POPC   C1A33483   5.841  11.335   8.553
 7500POPC   D2A33484   5.834  11.338   8.253
 7500POPC   C3A33485   5.845  11.333   7.953
 7500POPC   C4A33486   5.850  11.250   7.653
 7500POPC   C1B33487   5.657  11.319   8.553
 7500POPC   C2B33488   5.623  11.308   8.253
 7500POPC   C3B33489   5.605  11.323   7.953
 7500POPC   C4B33490   5.609  11.314   7.653
 7501POPC   NC333491   3.524  24.509   9.453
 7501POPC   PO433492   3.520  24.527   9.153
 7501POPC   GL133493   3.526  24.494   8.853
 7501POPC   GL233494   3.382  24.525   8.853
 7501POPC   C1A33495   3.509  24.477   8.553
 7501POPC   D2A33496   3.518  24.511   8.253
 7501POPC   C3A33497   3.511  24.518   7.953
 7501POPC   C4A33498   3.504  24.510   7.653
 7501POPC   C1B33499   3.269  24.544   8.553
 7501POPC   C2B33500   3.341  24.544   8.253
 7501POPC   C3B33501   3.274  24.570   7.953
 7501POPC   C4B33502   3.300  24.614   7.653
 7502POPC   NC333503  43.870  33.013   9.453
 7502POPC   PO433504  43.869  32.985   9.153
 7502POPC   GL133505  43.901  33.046   8.853
 7502POPC   GL233506  43.778  33.145   8.853
 7502POPC   C1A33507  43.860  32.994   8.553
 7502POPC   D2A33508  43.916  32.994   8.253
 7502POPC   C3A33509  43.914  33.004   7.953
 7502POPC   C4A33510  43.904  33.014   7.653
 7502POPC   C1B33511  43.724  33.176   8.553
 7502POPC   C2B33512  43.657  33.182   8.253
 7502POPC   C3B33513  43.720  33.228   7.953
 7502POPC   C4B33514  43.726  33.186   7.653
 7503POPC   NC333515  16.720  22.151   9.453
 7503POPC   PO433516  16.727  22.168   9.153
 7503POPC   GL133517  16.684  22.130   8.853
 7503POPC   GL233518  16.610  22.208   8.853
 7503POPC   C1A33519  16.697  22.162   8.553
 7503POPC   D2A33520  16.732  22.146   8.253
 7503POPC   C3A33521  16.745  22.122   7.953
 7503POPC   C4A33522  16.713  22.182   7.653
 7503POPC   C1B33523  16.459  22.197   8.553
 7503POPC   C2B33524  16.472  22.237   8.253
 7503POPC   C3B33525  16.525  22.261   7.953
 7503POPC   C4B33526  16.493  22.225   7.653
 7504POPC   NC333527  36.929  23.666   9.453
 7504POPC   PO433528  36.900  23.672   9.153
 7504POPC   GL133529  36.927  23.745   8.853
 7504POPC   GL233530  36.960  23.841   8.853
 7504POPC   C1A33531  36.855  23.727   8.553
 7504POPC   D2A33532  36.928  23.697   8.253
 7504POPC   C3A33533  36.891  23.724   7.953
 7504POPC   C4A33534  36.917  23.670   7.653
 7504POPC   C1B33535  37.031  23.894   8.553
 7504POPC   C2B33536  37.085  23.879   8.253
 7504POPC   C3B33537  37.069  23.968   7.953
 7504POPC   C4B33538  37.040  23.951   7.653
 7505POPC   NC333539  36.856   1.995   9.453
 7505POPC   PO433540  36.864   2.012   9.153
 7505POPC   GL133541  36.887   1.986   8.853
 7505POPC   GL233542  36.838   2.052   8.853
 7505POPC   C1A33543  36.910   1.959   8.553
 7505POPC   D2A33544  36.917   2.001   8.253
 7505POPC   C3A33545  36.931   1.943   7.953
 7505POPC   C4A33546  36.898   1.947   7.653
 7505POPC   C1B33547  36.687   2.081   8.553
 7505POPC   C2B33548  36.645   2.122   8.253
 7505POPC   C3B33549  36.690   2.123   7.953
 7505POPC   C4B33550  36.661   2.067   7.653
 7506POPC   NC333551  24.447  36.904   9.453
 7506POPC   PO433552  24.521  36.938   9.153
 7506POPC   GL133553  24.534  36.916   8.853
 7506POPC   GL233554  24.545  36.873   8.853
 7506POPC   C1A33555  24.445  36.861   8.553
 7506POPC   D2A33556  24.511  36.903   8.253
 7506POPC   C3A33557  24.491  36.932   7.953
 7506POPC   C4A33558  24.527  36.933   7.653
 7506POPC   C1B33559  24.738  36.719   8.553
 7506POPC   C2B33560  24.727  36.726   8.253
 7506POPC   C3B33561  24.721  36.796   7.953
 7506POPC   C4B33562  24.720  36.781   7.653
 7507POPC   NC333563  17.516  19.804   9.453
 7507POPC   PO433564  17.477  19.851   9.153
 7507POPC   GL133565  17.491  19.884   8.853
 7507POPC   GL233566  17.366  19.813   8.853
 7507POPC   C1A33567  17.465  19.820   8.553
 7507POPC   D2A33568  17.457  19.882   8.253
 7507POPC   C3A33569  17.523  19.864   7.953
 7507POPC   C4A33570  17.466  19.835   7.653
 7507POPC   C1B33571  17.275  19.817   8.553
 7507POPC   C2B33572  17.273  19.760   8.253
 7507POPC   C3B33573  17.302  19.762   7.953
 7507POPC   C4B33574  17.288  19.738   7.653
 7508POPC   NC333575  20.657  41.542   9.453
 7508POPC   PO433576  20.601  41.543   9.153
 7508POPC   GL133577  20.647  41.575   8.853
 7508POPC   GL233578  20.463  41.566   8.853
 7508POPC   C1A33579  20.643  41.560   8.553
 7508POPC   D2A33580  20.578  41.582   8.253
 7508POPC   C3A33581  20.594  41.529   7.953
 7508POPC   C4A33582  20.581  41.581   7.653
 7508POPC   C1B33583  20.344  41.481   8.553
 7508POPC   C2B33584  20.346  41.507   8.253
 7508POPC   C3B33585  20.378  41.525   7.953
 7508POPC   C4B33586  20.408  41.508   7.653
 7509POPC   NC333587  10.527  29.152   9.453
 7509POPC   PO433588  10.502  29.106   9.153
 7509POPC   GL133589  10.524  29.113   8.853
 7509POPC   GL233590  10.627  29.113   8.853
 7509POPC   C1A33591  10.570  29.165   8.553
 7509POPC   D2A33592  10.568  29.096   8.253
 7509POPC   C3A33593  10.543  29.156   7.953
 7509POPC   C4A33594  10.537  29.135   7.653
 7509POPC   C1B33595  10.775  29.159   8.553
 7509POPC   C2B33596  10.759  29.126   8.253
 7509POPC   C3B33597  10.816  29.115   7.953
 7509POPC   C4B33598  10.730  29.201   7.653
 7510POPC   NC333599  39.203  12.870   9.453
 7510POPC   PO433600  39.210  12.836   9.153
 7510POPC   GL133601  39.226  12.808   8.853
 7510POPC   GL233602  39.210  12.997   8.853
 7510POPC   C1A33603  39.196  12.894   8.553
 7510POPC   D2A33604  39.269  12.885   8.253
 7510POPC   C3A33605  39.194  12.859   7.953
 7510POPC   C4A33606  39.277  12.846   7.653
 7510POPC   C1B33607  39.257  13.099   8.553
 7510POPC   C2B33608  39.278  13.097   8.253
 7510POPC   C3B33609  39.252  13.115   7.953
 7510POPC   C4B33610  39.310  13.050   7.653
 7511POPC   NC333611  20.617  10.537   9.453
 7511POPC   PO433612  20.646  10.511   9.153
 7511POPC   GL133613  20.635  10.477   8.853
 7511POPC   GL233614  20.523  10.630   8.853
 7511POPC   C1A33615  20.561  10.510   8.553
 7511POPC   D2A33616  20.629  10.484   8.253
 7511POPC   C3A33617  20.577  10.544   7.953
 7511POPC   C4A33618  20.650  10.480   7.653
 7511POPC   C1B33619  20.397  10.725   8.553
 7511POPC   C2B33620  20.405  10.650   8.253
 7511POPC   C3B33621  20.479  10.658   7.953
 7511POPC   C4B33622  20.403  10.732   7.653
 7512POPC   NC333623  21.366  21.411   9.453
 7512POPC   PO433624  21.398  21.420   9.153
 7512POPC   GL133625  21.346  21.342   8.853
 7512POPC   GL233626  21.332  21.308   8.853
 7512POPC   C1A33627  21.357  21.364   8.553
 7512POPC   D2A33628  21.417  21.370   8.253
 7512POPC   C3A33629  21.428  21.363   7.953
 7512POPC   C4A33630  21.336  21.400   7.653
 7512POPC   C1B33631  21.361  21.127   8.553
 7512POPC   C2B33632  21.384  21.142   8.253
 7512POPC   C3B33633  21.384  21.152   7.953
 7512POPC   C4B33634  21.384  21.120   7.653
 7513POPC   NC333635  25.293  10.495   9.453
 7513POPC   PO433636  25.223  10.548   9.153
 7513POPC   GL133637  25.280  10.570   8.853
 7513POPC   GL233638  25.114  10.573   8.853
 7513POPC   C1A33639  25.284  10.524   8.553
 7513POPC   D2A33640  25.300  10.521   8.253
 7513POPC   C3A33641  25.258  10.498   7.953
 7513POPC   C4A33642  25.260  10.566   7.653
 7513POPC   C1B33643  25.043  10.551   8.553
 7513POPC   C2B33644  25.040  10.544   8.253
 7513POPC   C3B33645  25.009  10.557   7.953
 7513POPC   C4B33646  25.050  10.564   7.653
 7514POPC   NC333647  44.654   8.218   9.453
 7514POPC   PO433648  44.706   8.157   9.153
 7514POPC   GL133649  44.656   8.147   8.853
 7514POPC   GL233650  44.655   8.122   8.853
 7514POPC   C1A33651  44.673   8.161   8.553
 7514POPC   D2A33652  44.705   8.235   8.253
 7514POPC   C3A33653  44.625   8.216   7.953
 7514POPC   C4A33654  44.625   8.244   7.653
 7514POPC   C1B33655  44.691   7.897   8.553
 7514POPC   C2B33656  44.701   7.957   8.253
 7514POPC   C3B33657  44.661   7.963   7.953
 7514POPC   C4B33658  44.683   7.978   7.653
 7515POPC   NC333659  11.307  33.789   9.453
 7515POPC   PO433660  11.284  33.813   9.153
 7515POPC   GL133661  11.284  33.783   8.853
 7515POPC   GL233662  11.326  33.941   8.853
 7515POPC   C1A33663  11.275  33.771   8.553
 7515POPC   D2A33664  11.322  33.815   8.253
 7515POPC   C3A33665  11.331  33.774   7.953
 7515POPC   C4A33666  11.284  33.817   7.653
 7515POPC   C1B33667  11.359  34.086   8.553
 7515POPC   C2B33668  11.379  34.078   8.253
 7515POPC   C3B33669  11.351  34.003   7.953
 7515POPC   C4B33670  11.300  34.086   7.653
 7516POPC   NC333671  36.171  30.677   9.453
 7516POPC   PO433672  36.099  30.675   9.153
 7516POPC   GL133673  36.126  30.744   8.853
 7516POPC   GL233674  36.297  30.703   8.853
 7516POPC   C1A33675  36.132  30.732   8.553
 7516POPC   D2A33676  36.151  30.703   8.253
 7516POPC   C3A33677  36.079  30.692   7.953
 7516POPC   C4A33678  36.148  30.721   7.653
 7516POPC   C1B33679  36.370  30.755   8.553
 7516POPC   C2B33680  36.361  30.731   8.253
 7516POPC   C3B33681  36.340  30.684   7.953
 7516POPC   C4B33682  36.336  30.714   7.653
 7517POPC   NC333683  26.815  32.294   9.453
 7517POPC   PO433684  26.787  32.228   9.153
 7517POPC   GL133685  26.806  32.210   8.853
 7517POPC   GL233686  26.789  32.353   8.853
 7517POPC   C1A33687  26.816  32.297   8.553
 7517POPC   D2A33688  26.851  32.266   8.253
 7517POPC   C3A33689  26.848  32.238   7.953
 7517POPC   C4A33690  26.795  32.232   7.653
 7517POPC   C1B33691  26.834  32.487   8.553
 7517POPC   C2B33692  26.855  32.492   8.253
 7517POPC   C3B33693  26.855  32.517   7.953
 7517POPC   C4B33694  26.789  32.502   7.653
 7518POPC   NC333695  15.223  26.040   9.453
 7518POPC   PO433696  15.229  26.038   9.153
 7518POPC   GL133697  15.215  25.993   8.853
 7518POPC   GL233698  15.195  25.906   8.853
 7518POPC   C1A33699  15.210  26.085   8.553
 7518POPC   D2A33700  15.143  26.071   8.253
 7518POPC   C3A33701  15.180  26.026   7.953
 7518POPC   C4A33702  15.151  26.030   7.653
 7518POPC   C1B33703  15.303  25.827   8.553
 7518POPC   C2B33704  15.261  25.797   8.253
 7518POPC   C3B33705  15.317  25.787   7.953
 7518POPC   C4B33706  15.313  25.840   7.653
 7519POPC   NC333707  22.168  24.508   9.453
 7519POPC   PO433708  22.196  24.474   9.153
 7519POPC   GL133709  22.179  24.504   8.853
 7519POPC   GL233710  22.111  24.624   8.853
 7519POPC   C1A33711  22.151  24.450   8.553
 7519POPC   D2A33712  22.144  24.472   8.253
 7519POPC   C3A33713  22.163  24.531   7.953
 7519POPC   C4A33714  22.208  24.475   7.653
 7519POPC   C1B33715  22.147  24.751   8.553
 7519POPC   C2B33716  22.107  24.746   8.253
 7519POPC   C3B33717  22.103  24.773   7.953
 7519POPC   C4B33718  22.095  24.759   7.653
 7520POPC   NC333719  14.390  22.148   9.453
 7520POPC   PO433720  14.366  22.143   9.153
 7520POPC   GL133721  14.383  22.200   8.853
 7520POPC   GL233722  14.504  22.219   8.853
 7520POPC   C1A33723  14.449  22.116   8.553
 7520POPC   D2A33724  14.366  22.140   8.253
 7520POPC   C3A33725  14.410  22.208   7.953
 7520POPC   C4A33726  14.416  22.155   7.653
 7520POPC   C1B33727  14.591  22.274   8.553
 7520POPC   C2B33728  14.639  22.272   8.253
 7520POPC   C3B33729  14.575  22.240   7.953
 7520POPC   C4B33730  14.614  22.330   7.653
 7521POPC   NC333731  41.513  34.553   9.453
 7521POPC   PO433732  41.585  34.605   9.153
 7521POPC   GL133733  41.527  34.618   8.853
 7521POPC   GL233734  41.596  34.643   8.853
 7521POPC   C1A33735  41.585  34.561   8.553
 7521POPC   D2A33736  41.526  34.529   8.253
 7521POPC   C3A33737  41.522  34.600   7.953
 7521POPC   C4A33738  41.539  34.589   7.653
 7521POPC   C1B33739  41.698  34.825   8.553
 7521POPC   C2B33740  41.699  34.816   8.253
 7521POPC   C3B33741  41.664  34.825   7.953
 7521POPC   C4B33742  41.703  34.807   7.653
 7522POPC   NC333743  32.270  30.706   9.453
 7522POPC   PO433744  32.252  30.682   9.153
 7522POPC   GL133745  32.202  30.695   8.853
 7522POPC   GL233746  32.123  30.730   8.853
 7522POPC   C1A33747  32.206  30.688   8.553
 7522POPC   D2A33748  32.218  30.729   8.253
 7522POPC   C3A33749  32.237  30.664   7.953
 7522POPC   C4A33750  32.260  30.670   7.653
 7522POPC   C1B33751  31.975  30.718   8.553
 7522POPC   C2B33752  32.031  30.630   8.253
 7522POPC   C3B33753  31.984  30.683   7.953
 7522POPC   C4B33754  31.961  30.653   7.653
 7523POPC   NC333755  29.890   5.872   9.453
 7523POPC   PO433756  29.883   5.839   9.153
 7523POPC   GL133757  29.894   5.899   8.853
 7523POPC   GL233758  29.861   5.800   8.853
 7523POPC   C1A33759  29.918   5.869   8.553
 7523POPC   D2A33760  29.891   5.907   8.253
 7523POPC   C3A33761  29.966   5.891   7.953
 7523POPC   C4A33762  29.883   5.884   7.653
 7523POPC   C1B33763  29.754   5.696   8.553
 7523POPC   C2B33764  29.759   5.680   8.253
 7523POPC   C3B33765  29.769   5.690   7.953
 7523POPC   C4B33766  29.796   5.648   7.653
 7524POPC   NC333767   2.003   1.261   9.453
 7524POPC   PO433768   2.012   1.245   9.153
 7524POPC   GL133769   1.993   1.239   8.853
 7524POPC   GL233770   1.926   1.250   8.853
 7524POPC   C1A33771   1.956   1.202   8.553
 7524POPC   D2A33772   2.021   1.176   8.253
 7524POPC   C3A33773   1.957   1.201   7.953
 7524POPC   C4A33774   2.007   1.233   7.653
 7524POPC   C1B33775   1.781   1.357   8.553
 7524POPC   C2B33776   1.804   1.400   8.253
 7524POPC   C3B33777   1.809   1.369   7.953
 7524POPC   C4B33778   1.787   1.377   7.653
 7525POPC   NC333779  32.209   5.871   9.453
 7525POPC   PO433780  32.220   5.824   9.153
 7525POPC   GL133781  32.270   5.872   8.853
 7525POPC   GL233782  32.401   5.931   8.853
 7525POPC   C1A33783  32.247   5.835   8.553
 7525POPC   D2A33784  32.208   5.867   8.253
 7525POPC   C3A33785  32.277   5.825   7.953
 7525POPC   C4A33786  32.278   5.839   7.653
 7525POPC   C1B33787  32.451   5.933   8.553
 7525POPC   C2B33788  32.485   5.961   8.253
 7525POPC   C3B33789  32.528   5.890   7.953
 7525POPC   C4B33790  32.526   5.955   7.653
 7526POPC   NC333791  34.555  15.949   9.453
 7526POPC   PO433792  34.619  15.972   9.153
 7526POPC   GL133793  34.544  15.970   8.853
 7526POPC   GL233794  34.645  16.108   8.853
 7526POPC   C1A33795  34.558  15.923   8.553
 7526POPC   D2A33796  34.550  16.001   8.253
 7526POPC   C3A33797  34.530  15.969   7.953
 7526POPC   C4A33798  34.540  15.906   7.653
 7526POPC   C1B33799  34.661  16.158   8.553
 7526POPC   C2B33800  34.634  16.222   8.253
 7526POPC   C3B33801  34.602  16.149   7.953
 7526POPC   C4B33802  34.658  16.215   7.653
 7527POPC   NC333803  15.967  25.237   9.453
 7527POPC   PO433804  15.938  25.300   9.153
 7527POPC   GL133805  15.950  25.260   8.853
 7527POPC   GL233806  15.983  25.407   8.853
 7527POPC   C1A33807  15.959  25.219   8.553
 7527POPC   D2A33808  15.984  25.236   8.253
 7527POPC   C3A33809  15.968  25.234   7.953
 7527POPC   C4A33810  15.911  25.231   7.653
 7527POPC   C1B33811  16.080  25.418   8.553
 7527POPC   C2B33812  16.071  25.512   8.253
 7527POPC   C3B33813  16.115  25.515   7.953
 7527POPC   C4B33814  16.065  25.498   7.653
 7528POPC   NC333815  28.352  20.589   9.453
 7528POPC   PO433816  28.349  20.604   9.153
 7528POPC   GL133817  28.404  20.659   8.853
 7528POPC   GL233818  28.391  20.739   8.853
 7528POPC   C1A33819  28.377  20.563   8.553
 7528POPC   D2A33820  28.325  20.569   8.253
 7528POPC   C3A33821  28.339  20.620   7.953
 7528POPC   C4A33822  28.392  20.590   7.653
 7528POPC   C1B33823  28.453  20.782   8.553
 7528POPC   C2B33824  28.471  20.857   8.253
 7528POPC   C3B33825  28.474  20.833   7.953
 7528POPC   C4B33826  28.545  20.860   7.653
 7529POPC   NC333827   8.168  22.124   9.453
 7529POPC   PO433828   8.229  22.113   9.153
 7529POPC   GL133829   8.147  22.118   8.853
 7529POPC   GL233830   8.359  22.182   8.853
 7529POPC   C1A33831   8.221  22.211   8.553
 7529POPC   D2A33832   8.158  22.166   8.253
 7529POPC   C3A33833   8.215  22.114   7.953
 7529POPC   C4A33834   8.192  22.199   7.653
 7529POPC   C1B33835   8.392  22.271   8.553
 7529POPC   C2B33836   8.461  22.205   8.253
 7529POPC   C3B33837   8.386  22.206   7.953
 7529POPC   C4B33838   8.433  22.199   7.653
 7530POPC   NC333839   8.994  39.216   9.453
 7530POPC   PO433840   8.937  39.220   9.153
 7530POPC   GL133841   8.960  39.190   8.853
 7530POPC   GL233842   8.909  39.328   8.853
 7530POPC   C1A33843   9.014  39.210   8.553
 7530POPC   D2A33844   8.998  39.260   8.253
 7530POPC   C3A33845   9.010  39.239   7.953
 7530POPC   C4A33846   9.018  39.209   7.653
 7530POPC   C1B33847   8.845  39.424   8.553
 7530POPC   C2B33848   8.786  39.415   8.253
 7530POPC   C3B33849   8.776  39.427   7.953
 7530POPC   C4B33850   8.786  39.371   7.653
 7531POPC   NC333851   1.164  15.922   9.453
 7531POPC   PO433852   1.242  15.991   9.153
 7531POPC   GL133853   1.237  15.939   8.853
 7531POPC   GL233854   1.378  15.932   8.853
 7531POPC   C1A33855   1.256  15.995   8.553
 7531POPC   D2A33856   1.258  15.973   8.253
 7531POPC   C3A33857   1.234  15.992   7.953
 7531POPC   C4A33858   1.185  15.928   7.653
 7531POPC   C1B33859   1.419  15.842   8.553
 7531POPC   C2B33860   1.469  15.918   8.253
 7531POPC   C3B33861   1.466  15.922   7.953
 7531POPC   C4B33862   1.414  15.898   7.653
 7532POPC   NC333863  19.092  15.143   9.453
 7532POPC   PO433864  19.012  15.213   9.153
 7532POPC   GL133865  19.022  15.146   8.853
 7532POPC   GL233866  19.192  15.272   8.853
 7532POPC   C1A33867  19.098  15.180   8.553
 7532POPC   D2A33868  19.048  15.209   8.253
 7532POPC   C3A33869  19.066  15.142   7.953
 7532POPC   C4A33870  19.014  15.197   7.653
 7532POPC   C1B33871  19.270  15.251   8.553
 7532POPC   C2B33872  19.339  15.254   8.253
 7532POPC   C3B33873  19.261  15.320   7.953
 7532POPC   C4B33874  19.276  15.243   7.653
 7533POPC   NC333875  10.479   2.808   9.453
 7533POPC   PO433876  10.487   2.744   9.153
 7533POPC   GL133877  10.551   2.798   8.853
 7533POPC   GL233878  10.619   2.753   8.853
 7533POPC   C1A33879  10.485   2.796   8.553
 7533POPC   D2A33880  10.538   2.766   8.253
 7533POPC   C3A33881  10.573   2.733   7.953
 7533POPC   C4A33882  10.510   2.804   7.653
 7533POPC   C1B33883  10.741   2.625   8.553
 7533POPC   C2B33884  10.754   2.662   8.253
 7533POPC   C3B33885  10.794   2.671   7.953
 7533POPC   C4B33886  10.726   2.608   7.653
 7534POPC   NC333887  35.306   4.294   9.453
 7534POPC   PO433888  35.345   4.267   9.153
 7534POPC   GL133889  35.395   4.319   8.853
 7534POPC   GL233890  35.394   4.241   8.853
 7534POPC   C1A33891  35.346   4.279   8.553
 7534POPC   D2A33892  35.381   4.333   8.253
 7534POPC   C3A33893  35.328   4.283   7.953
 7534POPC   C4A33894  35.351   4.366   7.653
 7534POPC   C1B33895  35.361   4.094   8.553
 7534POPC   C2B33896  35.396   4.103   8.253
 7534POPC   C3B33897  35.370   4.077   7.953
 7534POPC   C4B33898  35.335   4.083   7.653
 7535POPC   NC333899  23.710  37.726   9.453
 7535POPC   PO433900  23.721  37.666   9.153
 7535POPC   GL133901  23.668  37.672   8.853
 7535POPC   GL233902  23.860  37.719   8.853
 7535POPC   C1A33903  23.755  37.659   8.553
 7535POPC   D2A33904  23.735  37.646   8.253
 7535POPC   C3A33905  23.694  37.705   7.953
 7535POPC   C4A33906  23.737  37.684   7.653
 7535POPC   C1B33907  23.981  37.750   8.553
 7535POPC   C2B33908  23.992  37.774   8.253
 7535POPC   C3B33909  23.966  37.709   7.953
 7535POPC   C4B33910  23.995  37.749   7.653
 7536POPC   NC333911  22.924  12.900   9.453
 7536POPC   PO433912  22.913  12.810   9.153
 7536POPC   GL133913  22.921  12.835   8.853
 7536POPC   GL233914  22.781  12.848   8.853
 7536POPC   C1A33915  22.932  12.885   8.553
 7536POPC   D2A33916  22.954  12.899   8.253
 7536POPC   C3A33917  22.915  12.866   7.953
 7536POPC   C4A33918  22.901  12.832   7.653
 7536POPC   C1B33919  22.715  12.940   8.553
 7536POPC   C2B33920  22.685  12.923   8.253
 7536POPC   C3B33921  22.654  12.900   7.953
 7536POPC   C4B33922  22.684  12.889   7.653
 7537POPC   NC333923  39.967  24.490   9.453
 7537POPC   PO433924  39.977  24.507   9.153
 7537POPC   GL133925  39.965  24.504   8.853
 7537POPC   GL233926  40.047  24.586   8.853
 7537POPC   C1A33927  40.017  24.452   8.553
 7537POPC   D2A33928  40.013  24.502   8.253
 7537POPC   C3A33929  40.014  24.502   7.953
 7537POPC   C4A33930  39.961  24.536   7.653
 7537POPC   C1B33931  40.140  24.714   8.553
 7537POPC   C2B33932  40.071  24.672   8.253
 7537POPC   C3B33933  40.082  24.747   7.953
 7537POPC   C4B33934  40.142  24.752   7.653
 7538POPC   NC333935  22.956  10.516   9.453
 7538POPC   PO433936  22.932  10.567   9.153
 7538POPC   GL133937  22.923  10.552   8.853
 7538POPC   GL233938  22.977  10.443   8.853
 7538POPC   C1A33939  22.958  10.483   8.553
 7538POPC   D2A33940  22.941  10.569   8.253
 7538POPC   C3A33941  22.967  10.494   7.953
 7538POPC   C4A33942  22.936  10.553   7.653
 7538POPC   C1B33943  22.923  10.272   8.553
 7538POPC   C2B33944  22.905  10.226   8.253
 7538POPC   C3B33945  22.968  10.291   7.953
 7538POPC   C4B33946  22.913  10.267   7.653
 7539POPC   NC333947  14.439  28.322   9.453
 7539POPC   PO433948  14.393  28.332   9.153
 7539POPC   GL133949  14.432  28.341   8.853
 7539POPC   GL233950  14.504  28.454   8.853
 7539POPC   C1A33951  14.364  28.398   8.553
 7539POPC   D2A33952  14.419  28.405   8.253
 7539POPC   C3A33953  14.438  28.342   7.953
 7539POPC   C4A33954  14.378  28.336   7.653
 7539POPC   C1B33955  14.606  28.512   8.553
 7539POPC   C2B33956  14.606  28.562   8.253
 7539POPC   C3B33957  14.631  28.513   7.953
 7539POPC   C4B33958  14.592  28.527   7.653
 7540POPC   NC333959  19.828  14.359   9.453
 7540POPC   PO433960  19.815  14.364   9.153
 7540POPC   GL133961  19.847  14.398   8.853
 7540POPC   GL233962  19.856  14.326   8.853
 7540POPC   C1A33963  19.835  14.422   8.553
 7540POPC   D2A33964  19.882  14.402   8.253
 7540POPC   C3A33965  19.871  14.415   7.953
 7540POPC   C4A33966  19.850  14.433   7.653
 7540POPC   C1B33967  19.879  14.174   8.553
 7540POPC   C2B33968  19.815  14.195   8.253
 7540POPC   C3B33969  19.865  14.119   7.953
 7540POPC   C4B33970  19.846  14.157   7.653
 7541POPC   NC333971  19.014  31.521   9.453
 7541POPC   PO433972  19.011  31.518   9.153
 7541POPC   GL133973  19.084  31.450   8.853
 7541POPC   GL233974  18.949  31.570   8.853
 7541POPC   C1A33975  19.047  31.444   8.553
 7541POPC   D2A33976  19.014  31.498   8.253
 7541POPC   C3A33977  19.107  31.433   7.953
 7541POPC   C4A33978  19.068  31.521   7.653
 7541POPC   C1B33979  18.871  31.643   8.553
 7541POPC   C2B33980  18.868  31.660   8.253
 7541POPC   C3B33981  18.870  31.662   7.953
 7541POPC   C4B33982  18.879  31.584   7.653
 7542POPC   NC333983  19.106  38.485   9.453
 7542POPC   PO433984  19.009  38.418   9.153
 7542POPC   GL133985  19.023  38.440   8.853
 7542POPC   GL233986  18.941  38.426   8.853
 7542POPC   C1A33987  19.024  38.438   8.553
 7542POPC   D2A33988  19.099  38.491   8.253
 7542POPC   C3A33989  19.066  38.495   7.953
 7542POPC   C4A33990  19.036  38.492   7.653
 7542POPC   C1B33991  18.782  38.305   8.553
 7542POPC   C2B33992  18.841  38.304   8.253
 7542POPC   C3B33993  18.816  38.310   7.953
 7542POPC   C4B33994  18.854  38.336   7.653
 7543POPC   NC333995  17.554  39.259   9.453
 7543POPC   PO433996  17.474  39.265   9.153
 7543POPC   GL133997  17.486  39.245   8.853
 7543POPC   GL233998  17.637  39.178   8.853
 7543POPC   C1A33999  17.509  39.251   8.553
 7543POPC   D2A34000  17.470  39.207   8.253
 7543POPC   C3A34001  17.460  39.184   7.953
 7543POPC   C4A34002  17.529  39.271   7.653
 7543POPC   C1B34003  17.755  39.137   8.553
 7543POPC   C2B34004  17.789  39.149   8.253
 7543POPC   C3B34005  17.696  39.105   7.953
 7543POPC   C4B34006  17.768  39.169   7.653
 7544POPC   NC334007  39.185   8.993   9.453
 7544POPC   PO434008  39.235   8.965   9.153
 7544POPC   GL134009  39.211   8.979   8.853
 7544POPC   GL234010  39.306   8.994   8.853
 7544POPC   C1A34011  39.229   8.996   8.553
 7544POPC   D2A34012  39.261   8.974   8.253
 7544POPC   C3A34013  39.187   8.995   7.953
 7544POPC   C4A34014  39.221   8.953   7.653
 7544POPC   C1B34015  39.461   9.140   8.553
 7544POPC   C2B34016  39.476   9.142   8.253
 7544POPC   C3B34017  39.424   9.102   7.953
 7544POPC   C4B34018  39.399   9.112   7.653
 7545POPC   NC334019  28.360  33.835   9.453
 7545POPC   PO434020  28.361  33.769   9.153
 7545POPC   GL134021  28.348  33.818   8.853
 7545POPC   GL234022  28.473  33.717   8.853
 7545POPC   C1A34023  28.406  33.809   8.553
 7545POPC   D2A34024  28.332  33.805   8.253
 7545POPC   C3A34025  28.396  33.828   7.953
 7545POPC   C4A34026  28.361  33.794   7.653
 7545POPC   C1B34027  28.546  33.615   8.553
 7545POPC   C2B34028  28.590  33.673   8.253
 7545POPC   C3B34029  28.513  33.664   7.953
 7545POPC   C4B34030  28.556  33.644   7.653
 7546POPC   NC334031  41.562  38.475   9.453
 7546POPC   PO434032  41.554  38.425   9.153
 7546POPC   GL134033  41.596  38.423   8.853
 7546POPC   GL234034  41.484  38.392   8.853
 7546POPC   C1A34035  41.526  38.480   8.553
 7546POPC   D2A34036  41.589  38.483   8.253
 7546POPC   C3A34037  41.544  38.488   7.953
 7546POPC   C4A34038  41.544  38.487   7.653
 7546POPC   C1B34039  41.316  38.369   8.553
 7546POPC   C2B34040  41.284  38.373   8.253
 7546POPC   C3B34041  41.319  38.398   7.953
 7546POPC   C4B34042  41.341  38.372   7.653
 7547POPC   NC334043  13.676  22.903   9.453
 7547POPC   PO434044  13.645  22.888   9.153
 7547POPC   GL134045  13.618  22.908   8.853
 7547POPC   GL234046  13.577  22.841   8.853
 7547POPC   C1A34047  13.583  22.976   8.553
 7547POPC   D2A34048  13.648  22.908   8.253
 7547POPC   C3A34049  13.635  22.987   7.953
 7547POPC   C4A34050  13.640  22.959   7.653
 7547POPC   C1B34051  13.473  22.746   8.553
 7547POPC   C2B34052  13.466  22.809   8.253
 7547POPC   C3B34053  13.494  22.743   7.953
 7547POPC   C4B34054  13.439  22.791   7.653
 7548POPC   NC334055   0.452  34.606   9.453
 7548POPC   PO434056   0.397  34.621   9.153
 7548POPC   GL134057   0.457  34.573   8.853
 7548POPC   GL234058   0.539  34.682   8.853
 7548POPC   C1A34059   0.485  34.621   8.553
 7548POPC   D2A34060   0.464  34.562   8.253
 7548POPC   C3A34061   0.457  34.560   7.953
 7548POPC   C4A34062   0.482  34.596   7.653
 7548POPC   C1B34063   0.625  34.831   8.553
 7548POPC   C2B34064   0.573  34.789   8.253
 7548POPC   C3B34065   0.544  34.782   7.953
 7548POPC   C4B34066   0.531  34.767   7.653
 7549POPC   NC334067  42.372  35.327   9.453
 7549POPC   PO434068  42.292  35.340   9.153
 7549POPC   GL134069  42.286  35.325   8.853
 7549POPC   GL234070  42.242  35.224   8.853
 7549POPC   C1A34071  42.304  35.365   8.553
 7549POPC   D2A34072  42.310  35.320   8.253
 7549POPC   C3A34073  42.364  35.323   7.953
 7549POPC   C4A34074  42.295  35.352   7.653
 7549POPC   C1B34075  42.214  35.105   8.553
 7549POPC   C2B34076  42.275  35.081   8.253
 7549POPC   C3B34077  42.194  35.164   7.953
 7549POPC   C4B34078  42.192  35.169   7.653
 7550POPC   NC334079  22.986  40.805   9.453
 7550POPC   PO434080  22.929  40.812   9.153
 7550POPC   GL134081  22.946  40.781   8.853
 7550POPC   GL234082  22.942  40.640   8.853
 7550POPC   C1A34083  22.971  40.801   8.553
 7550POPC   D2A34084  22.895  40.819   8.253
 7550POPC   C3A34085  22.960  40.797   7.953
 7550POPC   C4A34086  22.981  40.818   7.653
 7550POPC   C1B34087  22.918  40.492   8.553
 7550POPC   C2B34088  22.963  40.578   8.253
 7550POPC   C3B34089  22.871  40.569   7.953
 7550POPC   C4B34090  22.891  40.524   7.653
 7551POPC   NC334091   7.398  10.495   9.453
 7551POPC   PO434092   7.435  10.523   9.153
 7551POPC   GL134093   7.468  10.502   8.853
 7551POPC   GL234094   7.581  10.486   8.853
 7551POPC   C1A34095   7.465  10.475   8.553
 7551POPC   D2A34096   7.463  10.475   8.253
 7551POPC   C3A34097   7.437  10.504   7.953
 7551POPC   C4A34098   7.424  10.509   7.653
 7551POPC   C1B34099   7.619  10.367   8.553
 7551POPC   C2B34100   7.616  10.390   8.253
 7551POPC   C3B34101   7.592  10.406   7.953
 7551POPC   C4B34102   7.622  10.431   7.653
 7552POPC   NC334103  12.116  40.737   9.453
 7552POPC   PO434104  12.110  40.821   9.153
 7552POPC   GL134105  12.108  40.758   8.853
 7552POPC   GL234106  12.022  40.658   8.853
 7552POPC   C1A34107  12.093  40.733   8.553
 7552POPC   D2A34108  12.110  40.830   8.253
 7552POPC   C3A34109  12.035  40.819   7.953
 7552POPC   C4A34110  12.090  40.799   7.653
 7552POPC   C1B34111  11.964  40.557   8.553
 7552POPC   C2B34112  11.945  40.513   8.253
 7552POPC   C3B34113  11.957  40.546   7.953
 7552POPC   C4B34114  11.958  40.555   7.653
 7553POPC   NC334115  36.118   1.957   9.453
 7553POPC   PO434116  36.096   1.959   9.153
 7553POPC   GL134117  36.111   2.036   8.853
 7553POPC   GL234118  36.209   1.929   8.853
 7553POPC   C1A34119  36.137   1.990   8.553
 7553POPC   D2A34120  36.099   1.987   8.253
 7553POPC   C3A34121  36.087   1.953   7.953
 7553POPC   C4A34122  36.109   2.029   7.653
 7553POPC   C1B34123  36.307   1.796   8.553
 7553POPC   C2B34124  36.345   1.804   8.253
 7553POPC   C3B34125  36.343   1.810   7.953
 7553POPC   C4B34126  36.339   1.862   7.653
 7554POPC   NC334127  21.397  17.498   9.453
 7554POPC   PO434128  21.419  17.482   9.153
 7554POPC   GL134129  21.373  17.496   8.853
 7554POPC   GL234130  21.333  17.574   8.853
 7554POPC   C1A34131  21.379  17.501   8.553
 7554POPC   D2A34132  21.391  17.525   8.253
 7554POPC   C3A34133  21.423  17.500   7.953
 7554POPC   C4A34134  21.418  17.549   7.653
 7554POPC   C1B34135  21.241  17.707   8.553
 7554POPC   C2B34136  21.230  17.654   8.253
 7554POPC   C3B34137  21.246  17.663   7.953
 7554POPC   C4B34138  21.228  17.741   7.653
 7555POPC   NC334139  39.237  23.683   9.453
 7555POPC   PO434140  39.196  23.667   9.153
 7555POPC   GL134141  39.218  23.704   8.853
 7555POPC   GL234142  39.181  23.639   8.853
 7555POPC   C1A34143  39.243  23.719   8.553
 7555POPC   D2A34144  39.213  23.724   8.253
 7555POPC   C3A34145  39.260  23.745   7.953
 7555POPC   C4A34146  39.187  23.697   7.653
 7555POPC   C1B34147  39.093  23.573   8.553
 7555POPC   C2B34148  39.061  23.516   8.253
 7555POPC   C3B34149  39.008  23.519   7.953
 7555POPC   C4B34150  39.019  23.503   7.653
 7556POPC   NC334151  24.445  22.949   9.453
 7556POPC   PO434152  24.448  22.892   9.153
 7556POPC   GL134153  24.502  22.922   8.853
 7556POPC   GL234154  24.387  22.871   8.853
 7556POPC   C1A34155  24.502  22.975   8.553
 7556POPC   D2A34156  24.449  22.983   8.253
 7556POPC   C3A34157  24.487  22.935   7.953
 7556POPC   C4A34158  24.444  22.906   7.653
 7556POPC   C1B34159  24.395  22.760   8.553
 7556POPC   C2B34160  24.331  22.728   8.253
 7556POPC   C3B34161  24.383  22.767   7.953
 7556POPC   C4B34162  24.303  22.705   7.653
 7557POPC   NC334163  12.883  15.178   9.453
 7557POPC   PO434164  12.824  15.214   9.153
 7557POPC   GL134165  12.833  15.170   8.853
 7557POPC   GL234166  12.894  15.278   8.853
 7557POPC   C1A34167  12.813  15.178   8.553
 7557POPC   D2A34168  12.838  15.178   8.253
 7557POPC   C3A34169  12.846  15.197   7.953
 7557POPC   C4A34170  12.875  15.180   7.653
 7557POPC   C1B34171  12.797  15.476   8.553
 7557POPC   C2B34172  12.878  15.472   8.253
 7557POPC   C3B34173  12.854  15.426   7.953
 7557POPC   C4B34174  12.837  15.445   7.653
 7558POPC   NC334175  24.528  17.498   9.453
 7558POPC   PO434176  24.459  17.511   9.153
 7558POPC   GL134177  24.457  17.497   8.853
 7558POPC   GL234178  24.591  17.486   8.853
 7558POPC   C1A34179  24.450  17.463   8.553
 7558POPC   D2A34180  24.523  17.519   8.253
 7558POPC   C3A34181  24.450  17.487   7.953
 7558POPC   C4A34182  24.462  17.509   7.653
 7558POPC   C1B34183  24.748  17.561   8.553
 7558POPC   C2B34184  24.727  17.549   8.253
 7558POPC   C3B34185  24.726  17.555   7.953
 7558POPC   C4B34186  24.754  17.473   7.653
 7559POPC   NC334187  15.167  11.337   9.453
 7559POPC   PO434188  15.216  11.313   9.153
 7559POPC   GL134189  15.202  11.252   8.853
 7559POPC   GL234190  15.106  11.286   8.853
 7559POPC   C1A34191  15.155  11.317   8.553
 7559POPC   D2A34192  15.134  11.319   8.253
 7559POPC   C3A34193  15.217  11.296   7.953
 7559POPC   C4A34194  15.183  11.322   7.653
 7559POPC   C1B34195  14.905  11.180   8.553
 7559POPC   C2B34196  14.961  11.199   8.253
 7559POPC   C3B34197  14.987  11.193   7.953
 7559POPC   C4B34198  14.917  11.214   7.653
 7560POPC   NC334199  39.188  40.800   9.453
 7560POPC   PO434200  39.233  40.813   9.153
 7560POPC   GL134201  39.208  40.762   8.853
 7560POPC   GL234202  39.093  40.847   8.853
 7560POPC   C1A34203  39.232  40.772   8.553
 7560POPC   D2A34204  39.278  40.813   8.253
 7560POPC   C3A34205  39.189  40.824   7.953
 7560POPC   C4A34206  39.245  40.820   7.653
 7560POPC   C1B34207  38.961  40.879   8.553
 7560POPC   C2B34208  38.953  40.846   8.253
 7560POPC   C3B34209  39.032  40.869   7.953
 7560POPC   C4B34210  38.990  40.911   7.653
 7561POPC   NC334211  40.032   6.680   9.453
 7561POPC   PO434212  39.990   6.650   9.153
 7561POPC   GL134213  39.975   6.630   8.853
 7561POPC   GL234214  39.999   6.520   8.853
 7561POPC   C1A34215  40.040   6.615   8.553
 7561POPC   D2A34216  40.004   6.676   8.253
 7561POPC   C3A34217  40.002   6.628   7.953
 7561POPC   C4A34218  40.039   6.654   7.653
 7561POPC   C1B34219  39.882   6.466   8.553
 7561POPC   C2B34220  39.915   6.422   8.253
 7561POPC   C3B34221  39.918   6.469   7.953
 7561POPC   C4B34222  39.900   6.471   7.653
 7562POPC   NC334223  29.947  36.868   9.453
 7562POPC   PO434224  29.903  36.898   9.153
 7562POPC   GL134225  29.925  36.932   8.853
 7562POPC   GL234226  30.000  36.798   8.853
 7562POPC   C1A34227  29.951  36.877   8.553
 7562POPC   D2A34228  29.926  36.927   8.253
 7562POPC   C3A34229  29.905  36.868   7.953
 7562POPC   C4A34230  29.895  36.911   7.653
 7562POPC   C1B34231  29.965  36.649   8.553
 7562POPC   C2B34232  30.063  36.720   8.253
 7562POPC   C3B34233  29.972  36.667   7.953
 7562POPC   C4B34234  30.058  36.669   7.653
 7563POPC   NC334235  29.166  35.398   9.453
 7563POPC   PO434236  29.138  35.400   9.153
 7563POPC   GL134237  29.191  35.350   8.853
 7563POPC   GL234238  29.238  35.516   8.853
 7563POPC   C1A34239  29.148  35.345   8.553
 7563POPC   D2A34240  29.188  35.344   8.253
 7563POPC   C3A34241  29.108  35.341   7.953
 7563POPC   C4A34242  29.161  35.390   7.653
 7563POPC   C1B34243  29.201  35.560   8.553
 7563POPC   C2B34244  29.184  35.546   8.253
 7563POPC   C3B34245  29.245  35.598   7.953
 7563POPC   C4B34246  29.214  35.590   7.653
 7564POPC   NC334247  22.985  26.850   9.453
 7564POPC   PO434248  22.967  26.855   9.153
 7564POPC   GL134249  22.963  26.850   8.853
 7564POPC   GL234250  22.820  26.884   8.853
 7564POPC   C1A34251  22.892  26.791   8.553
 7564POPC   D2A34252  22.959  26.780   8.253
 7564POPC   C3A34253  22.940  26.806   7.953
 7564POPC   C4A34254  22.975  26.774   7.653
 7564POPC   C1B34255  22.667  26.901   8.553
 7564POPC   C2B34256  22.690  26.871   8.253
 7564POPC   C3B34257  22.685  26.873   7.953
 7564POPC   C4B34258  22.699  26.870   7.653
 7565POPC   NC334259  19.850  16.757   9.453
 7565POPC   PO434260  19.842  16.745   9.153
 7565POPC   GL134261  19.830  16.779   8.853
 7565POPC   GL234262  19.730  16.791   8.853
 7565POPC   C1A34263  19.830  16.769   8.553
 7565POPC   D2A34264  19.826  16.707   8.253
 7565POPC   C3A34265  19.839  16.687   7.953
 7565POPC   C4A34266  19.846  16.690   7.653
 7565POPC   C1B34267  19.687  16.943   8.553
 7565POPC   C2B34268  19.671  16.954   8.253
 7565POPC   C3B34269  19.690  16.932   7.953
 7565POPC   C4B34270  19.705  16.872   7.653
 7566POPC   NC334271  40.763  40.030   9.453
 7566POPC   PO434272  40.754  39.960   9.153
 7566POPC   GL134273  40.793  39.970   8.853
 7566POPC   GL234274  40.853  40.102   8.853
 7566POPC   C1A34275  40.746  40.018   8.553
 7566POPC   D2A34276  40.811  40.019   8.253
 7566POPC   C3A34277  40.770  40.050   7.953
 7566POPC   C4A34278  40.805  40.044   7.653
 7566POPC   C1B34279  40.986  40.083   8.553
 7566POPC   C2B34280  40.953  40.139   8.253
 7566POPC   C3B34281  40.970  40.170   7.953
 7566POPC   C4B34282  41.022  40.155   7.653
 7567POPC   NC334283   8.984  29.168   9.453
 7567POPC   PO434284   8.989  29.164   9.153
 7567POPC   GL134285   8.965  29.112   8.853
 7567POPC   GL234286   9.078  29.070   8.853
 7567POPC   C1A34287   8.996  29.136   8.553
 7567POPC   D2A34288   8.927  29.194   8.253
 7567POPC   C3A34289   8.975  29.160   7.953
 7567POPC   C4A34290   8.941  29.123   7.653
 7567POPC   C1B34291   9.208  29.063   8.553
 7567POPC   C2B34292   9.244  29.110   8.253
 7567POPC   C3B34293   9.168  29.022   7.953
 7567POPC   C4B34294   9.242  29.059   7.653
 7568POPC   NC334295  42.377  44.621   9.453
 7568POPC   PO434296  42.378  44.633   9.153
 7568POPC   GL134297  42.369  44.707   8.853
 7568POPC   GL234298  42.358  44.560   8.853
 7568POPC   C1A34299  42.350  44.641   8.553
 7568POPC   D2A34300  42.291  44.657   8.253
 7568POPC   C3A34301  42.344  44.644   7.953
 7568POPC   C4A34302  42.305  44.621   7.653
 7568POPC   C1B34303  42.305  44.447   8.553
 7568POPC   C2B34304  42.310  44.394   8.253
 7568POPC   C3B34305  42.331  44.424   7.953
 7568POPC   C4B34306  42.263  44.394   7.653
 7569POPC   NC334307  37.708  30.677   9.453
 7569POPC   PO434308  37.661  30.648   9.153
 7569POPC   GL134309  37.646  30.674   8.853
 7569POPC   GL234310  37.550  30.649   8.853
 7569POPC   C1A34311  37.675  30.732   8.553
 7569POPC   D2A34312  37.685  30.720   8.253
 7569POPC   C3A34313  37.657  30.700   7.953
 7569POPC   C4A34314  37.713  30.677   7.653
 7569POPC   C1B34315  37.484  30.571   8.553
 7569POPC   C2B34316  37.443  30.544   8.253
 7569POPC   C3B34317  37.452  30.581   7.953
 7569POPC   C4B34318  37.492  30.526   7.653
 7570POPC   NC334319   1.184  40.790   9.453
 7570POPC   PO434320   1.210  40.761   9.153
 7570POPC   GL134321   1.172  40.775   8.853
 7570POPC   GL234322   1.290  40.911   8.853
 7570POPC   C1A34323   1.257  40.790   8.553
 7570POPC   D2A34324   1.188  40.752   8.253
 7570POPC   C3A34325   1.175  40.754   7.953
 7570POPC   C4A34326   1.197  40.759   7.653
 7570POPC   C1B34327   1.336  40.965   8.553
 7570POPC   C2B34328   1.299  41.017   8.253
 7570POPC   C3B34329   1.345  40.965   7.953
 7570POPC   C4B34330   1.349  41.012   7.653
 7571POPC   NC334331  19.046  40.749   9.453
 7571POPC   PO434332  19.037  40.801   9.153
 7571POPC   GL134333  19.095  40.797   8.853
 7571POPC   GL234334  19.009  40.633   8.853
 7571POPC   C1A34335  19.096  40.754   8.553
 7571POPC   D2A34336  19.049  40.828   8.253
 7571POPC   C3A34337  19.012  40.777   7.953
 7571POPC   C4A34338  19.093  40.753   7.653
 7571POPC   C1B34339  18.919  40.543   8.553
 7571POPC   C2B34340  18.982  40.555   8.253
 7571POPC   C3B34341  18.978  40.548   7.953
 7571POPC   C4B34342  18.906  40.572   7.653
 7572POPC   NC334343  36.118  31.520   9.453
 7572POPC   PO434344  36.139  31.495   9.153
 7572POPC   GL134345  36.117  31.511   8.853
 7572POPC   GL234346  35.986  31.545   8.853
 7572POPC   C1A34347  36.122  31.444   8.553
 7572POPC   D2A34348  36.146  31.434   8.253
 7572POPC   C3A34349  36.155  31.496   7.953
 7572POPC   C4A34350  36.148  31.502   7.653
 7572POPC   C1B34351  35.895  31.577   8.553
 7572POPC   C2B34352  35.870  31.592   8.253
 7572POPC   C3B34353  35.868  31.542   7.953
 7572POPC   C4B34354  35.872  31.581   7.653
 7573POPC   NC334355  40.818   1.178   9.453
 7573POPC   PO434356  40.820   1.193   9.153
 7573POPC   GL134357  40.803   1.235   8.853
 7573POPC   GL234358  40.808   1.132   8.853
 7573POPC   C1A34359  40.752   1.246   8.553
 7573POPC   D2A34360  40.829   1.218   8.253
 7573POPC   C3A34361  40.740   1.181   7.953
 7573POPC   C4A34362  40.772   1.193   7.653
 7573POPC   C1B34363  40.928   1.022   8.553
 7573POPC   C2B34364  40.921   1.060   8.253
 7573POPC   C3B34365  40.958   1.014   7.953
 7573POPC   C4B34366  40.898   1.032   7.653
 7574POPC   NC334367  31.442  15.907   9.453
 7574POPC   PO434368  31.447  15.960   9.153
 7574POPC   GL134369  31.437  15.995   8.853
 7574POPC   GL234370  31.599  15.887   8.853
 7574POPC   C1A34371  31.486  15.949   8.553
 7574POPC   D2A34372  31.447  15.959   8.253
 7574POPC   C3A34373  31.433  15.943   7.953
 7574POPC   C4A34374  31.430  15.927   7.653
 7574POPC   C1B34375  31.666  15.722   8.553
 7574POPC   C2B34376  31.637  15.726   8.253
 7574POPC   C3B34377  31.654  15.716   7.953
 7574POPC   C4B34378  31.677  15.803   7.653
 7575POPC   NC334379  25.257  33.000   9.453
 7575POPC   PO434380  25.266  33.056   9.153
 7575POPC   GL134381  25.291  32.996   8.853
 7575POPC   GL234382  25.379  33.091   8.853
 7575POPC   C1A34383  25.262  33.029   8.553
 7575POPC   D2A34384  25.277  33.008   8.253
 7575POPC   C3A34385  25.298  33.057   7.953
 7575POPC   C4A34386  25.266  33.041   7.653
 7575POPC   C1B34387  25.480  33.191   8.553
 7575POPC   C2B34388  25.507  33.118   8.253
 7575POPC   C3B34389  25.498  33.140   7.953
 7575POPC   C4B34390  25.490  33.196   7.653
 7576POPC   NC334391  10.543   7.379   9.453
 7576POPC   PO434392  10.537   7.415   9.153
 7576POPC   GL134393  10.519   7.401   8.853
 7576POPC   GL234394  10.564   7.343   8.853
 7576POPC   C1A34395  10.529   7.465   8.553
 7576POPC   D2A34396  10.567   7.376   8.253
 7576POPC   C3A34397  10.485   7.416   7.953
 7576POPC   C4A34398  10.481   7.470   7.653
 7576POPC   C1B34399  10.586   7.163   8.553
 7576POPC   C2B34400  10.527   7.156   8.253
 7576POPC   C3B34401  10.566   7.194   7.953
 7576POPC   C4B34402  10.545   7.127   7.653
 7577POPC   NC334403   4.272  36.877   9.453
 7577POPC   PO434404   4.297  36.931   9.153
 7577POPC   GL134405   4.302  36.875   8.853
 7577POPC   GL234406   4.190  36.812   8.853
 7577POPC   C1A34407   4.364  36.872   8.553
 7577POPC   D2A34408   4.316  36.931   8.253
 7577POPC   C3A34409   4.340  36.863   7.953
 7577POPC   C4A34410   4.309  36.864   7.653
 7577POPC   C1B34411   4.133  36.686   8.553
 7577POPC   C2B34412   4.172  36.695   8.253
 7577POPC   C3B34413   4.192  36.735   7.953
 7577POPC   C4B34414   4.168  36.747   7.653
 7578POPC   NC334415  25.293  12.830   9.453
 7578POPC   PO434416  25.265  12.808   9.153
 7578POPC   GL134417  25.240  12.827   8.853
 7578POPC   GL234418  25.110  12.865   8.853
 7578POPC   C1A34419  25.310  12.894   8.553
 7578POPC   D2A34420  25.221  12.848   8.253
 7578POPC   C3A34421  25.289  12.802   7.953
 7578POPC   C4A34422  25.258  12.872   7.653
 7578POPC   C1B34423  24.979  12.827   8.553
 7578POPC   C2B34424  25.057  12.786   8.253
 7578POPC   C3B34425  25.000  12.861   7.953
 7578POPC   C4B34426  24.977  12.857   7.653
 7579POPC   NC334427  29.168  43.857   9.453
 7579POPC   PO434428  29.109  43.911   9.153
 7579POPC   GL134429  29.106  43.840   8.853
 7579POPC   GL234430  29.205  44.015   8.853
 7579POPC   C1A34431  29.192  43.933   8.553
 7579POPC   D2A34432  29.096  43.868   8.253
 7579POPC   C3A34433  29.116  43.906   7.953
 7579POPC   C4A34434  29.098  43.931   7.653
 7579POPC   C1B34435  29.255  44.130   8.553
 7579POPC   C2B34436  29.171  44.144   8.253
 7579POPC   C3B34437  29.179  44.141   7.953
 7579POPC   C4B34438  29.201  44.093   7.653
 7580POPC   NC334439   2.743  10.491   9.453
 7580POPC   PO434440   2.796  10.515   9.153
 7580POPC   GL134441   2.732  10.533   8.853
 7580POPC   GL234442   2.835  10.662   8.853
 7580POPC   C1A34443   2.775  10.501   8.553
 7580POPC   D2A34444   2.792  10.534   8.253
 7580POPC   C3A34445   2.721  10.568   7.953
 7580POPC   C4A34446   2.794  10.485   7.653
 7580POPC   C1B34447   2.925  10.660   8.553
 7580POPC   C2B34448   2.898  10.698   8.253
 7580POPC   C3B34449   2.927  10.670   7.953
 7580POPC   C4B34450   2.895  10.675   7.653
 7581POPC   NC334451  29.119  39.193   9.453
 7581POPC   PO434452  29.133  39.192   9.153
 7581POPC   GL134453  29.137  39.213   8.853
 7581POPC   GL234454  29.061  39.182   8.853
 7581POPC   C1A34455  29.097  39.233   8.553
 7581POPC   D2A34456  29.190  39.255   8.253
 7581POPC   C3A34457  29.159  39.221   7.953
 7581POPC   C4A34458  29.178  39.217   7.653
 7581POPC   C1B34459  28.957  39.059   8.553
 7581POPC   C2B34460  28.985  39.005   8.253
 7581POPC   C3B34461  29.018  39.047   7.953
 7581POPC   C4B34462  28.970  38.998   7.653
 7582POPC   NC334463   8.953  27.577   9.453
 7582POPC   PO434464   8.932  27.641   9.153
 7582POPC   GL134465   8.932  27.593   8.853
 7582POPC   GL234466   9.114  27.693   8.853
 7582POPC   C1A34467   8.989  27.614   8.553
 7582POPC   D2A34468   8.997  27.591   8.253
 7582POPC   C3A34469   9.000  27.587   7.953
 7582POPC   C4A34470   8.950  27.567   7.653
 7582POPC   C1B34471   9.122  27.790   8.553
 7582POPC   C2B34472   9.152  27.760   8.253
 7582POPC   C3B34473   9.134  27.736   7.953
 7582POPC   C4B34474   9.129  27.726   7.653
 7583POPC   NC334475  29.884  24.456   9.453
 7583POPC   PO434476  29.920  24.477   9.153
 7583POPC   GL134477  29.952  24.443   8.853
 7583POPC   GL234478  30.015  24.571   8.853
 7583POPC   C1A34479  29.938  24.497   8.553
 7583POPC   D2A34480  29.928  24.494   8.253
 7583POPC   C3A34481  29.884  24.495   7.953
 7583POPC   C4A34482  29.953  24.487   7.653
 7583POPC   C1B34483  30.157  24.596   8.553
 7583POPC   C2B34484  30.123  24.666   8.253
 7583POPC   C3B34485  30.130  24.650   7.953
 7583POPC   C4B34486  30.089  24.683   7.653
 7584POPC   NC334487  43.147  40.747   9.453
 7584POPC   PO434488  43.125  40.829   9.153
 7584POPC   GL134489  43.125  40.786   8.853
 7584POPC   GL234490  43.211  40.772   8.853
 7584POPC   C1A34491  43.121  40.787   8.553
 7584POPC   D2A34492  43.118  40.810   8.253
 7584POPC   C3A34493  43.103  40.800   7.953
 7584POPC   C4A34494  43.123  40.752   7.653
 7584POPC   C1B34495  43.366  40.692   8.553
 7584POPC   C2B34496  43.332  40.648   8.253
 7584POPC   C3B34497  43.325  40.645   7.953
 7584POPC   C4B34498  43.344  40.710   7.653
 7585POPC   NC334499  37.632  28.332   9.453
 7585POPC   PO434500  37.711  28.332   9.153
 7585POPC   GL134501  37.697  28.327   8.853
 7585POPC   GL234502  37.588  28.468   8.853
 7585POPC   C1A34503  37.676  28.370   8.553
 7585POPC   D2A34504  37.712  28.349   8.253
 7585POPC   C3A34505  37.660  28.389   7.953
 7585POPC   C4A34506  37.677  28.403   7.653
 7585POPC   C1B34507  37.563  28.553   8.553
 7585POPC   C2B34508  37.565  28.586   8.253
 7585POPC   C3B34509  37.577  28.628   7.953
 7585POPC   C4B34510  37.588  28.606   7.653
 7586POPC   NC334511  44.709  12.860   9.453
 7586POPC   PO434512  44.670  12.843   9.153
 7586POPC   GL134513  44.697  12.829   8.853
 7586POPC   GL234514  44.562  12.780   8.853
 7586POPC   C1A34515  44.697  12.806   8.553
 7586POPC   D2A34516  44.645  12.847   8.253
 7586POPC   C3A34517  44.689  12.885   7.953
 7586POPC   C4A34518  44.641  12.834   7.653
 7586POPC   C1B34519  44.451  12.713   8.553
 7586POPC   C2B34520  44.456  12.766   8.253
 7586POPC   C3B34521  44.424  12.768   7.953
 7586POPC   C4B34522  44.449  12.752   7.653
 7587POPC   NC334523  29.882  22.969   9.453
 7587POPC   PO434524  29.920  22.932   9.153
 7587POPC   GL134525  29.907  22.947   8.853
 7587POPC   GL234526  29.777  22.914   8.853
 7587POPC   C1A34527  29.925  22.980   8.553
 7587POPC   D2A34528  29.963  22.942   8.253
 7587POPC   C3A34529  29.886  22.961   7.953
 7587POPC   C4A34530  29.914  22.903   7.653
 7587POPC   C1B34531  29.646  22.937   8.553
 7587POPC   C2B34532  29.701  22.886   8.253
 7587POPC   C3B34533  29.637  22.878   7.953
 7587POPC   C4B34534  29.674  22.871   7.653
 7588POPC   NC334535  43.848   7.422   9.453
 7588POPC   PO434536  43.905   7.429   9.153
 7588POPC   GL134537  43.877   7.393   8.853
 7588POPC   GL234538  44.020   7.495   8.853
 7588POPC   C1A34539  43.876   7.444   8.553
 7588POPC   D2A34540  43.867   7.406   8.253
 7588POPC   C3A34541  43.905   7.387   7.953
 7588POPC   C4A34542  43.924   7.396   7.653
 7588POPC   C1B34543  44.131   7.550   8.553
 7588POPC   C2B34544  44.074   7.586   8.253
 7588POPC   C3B34545  44.134   7.529   7.953
 7588POPC   C4B34546  44.085   7.522   7.653
 7589POPC   NC334547  43.093  28.356   9.453
 7589POPC   PO434548  43.095  28.371   9.153
 7589POPC   GL134549  43.090  28.372   8.853
 7589POPC   GL234550  42.964  28.380   8.853
 7589POPC   C1A34551  43.117  28.418   8.553
 7589POPC   D2A34552  43.108  28.352   8.253
 7589POPC   C3A34553  43.149  28.339   7.953
 7589POPC   C4A34554  43.088  28.406   7.653
 7589POPC   C1B34555  42.905  28.449   8.553
 7589POPC   C2B34556  42.849  28.510   8.253
 7589POPC   C3B34557  42.862  28.519   7.953
 7589POPC   C4B34558  42.881  28.468   7.653
 7590POPC   NC334559  19.830  41.509   9.453
 7590POPC   PO434560  19.804  41.577   9.153
 7590POPC   GL134561  19.834  41.595   8.853
 7590POPC   GL234562  19.862  41.678   8.853
 7590POPC   C1A34563  19.847  41.541   8.553
 7590POPC   D2A34564  19.880  41.541   8.253
 7590POPC   C3A34565  19.813  41.518   7.953
 7590POPC   C4A34566  19.819  41.551   7.653
 7590POPC   C1B34567  20.014  41.772   8.553
 7590POPC   C2B34568  20.009  41.739   8.253
 7590POPC   C3B34569  20.022  41.733   7.953
 7590POPC   C4B34570  20.026  41.730   7.653
 7591POPC   NC334571  17.506  12.105   9.453
 7591POPC   PO434572  17.532  12.039   9.153
 7591POPC   GL134573  17.480  12.065   8.853
 7591POPC   GL234574  17.526  12.155   8.853
 7591POPC   C1A34575  17.469  12.102   8.553
 7591POPC   D2A34576  17.491  12.049   8.253
 7591POPC   C3A34577  17.544  12.055   7.953
 7591POPC   C4A34578  17.509  12.032   7.653
 7591POPC   C1B34579  17.525  12.316   8.553
 7591POPC   C2B34580  17.543  12.355   8.253
 7591POPC   C3B34581  17.547  12.338   7.953
 7591POPC   C4B34582  17.475  12.282   7.653
 7592POPC   NC334583  38.482   8.946   9.453
 7592POPC   PO434584  38.453   9.001   9.153
 7592POPC   GL134585  38.461   8.965   8.853
 7592POPC   GL234586  38.558   8.864   8.853
 7592POPC   C1A34587  38.490   8.977   8.553
 7592POPC   D2A34588  38.434   8.999   8.253
 7592POPC   C3A34589  38.465   8.988   7.953
 7592POPC   C4A34590  38.505   8.989   7.653
 7592POPC   C1B34591  38.669   8.810   8.553
 7592POPC   C2B34592  38.705   8.870   8.253
 7592POPC   C3B34593  38.702   8.839   7.953
 7592POPC   C4B34594  38.627   8.797   7.653
 7593POPC   NC334595  32.295  27.616   9.453
 7593POPC   PO434596  32.261  27.612   9.153
 7593POPC   GL134597  32.282  27.642   8.853
 7593POPC   GL234598  32.282  27.735   8.853
 7593POPC   C1A34599  32.297  27.546   8.553
 7593POPC   D2A34600  32.258  27.620   8.253
 7593POPC   C3A34601  32.282  27.560   7.953
 7593POPC   C4A34602  32.252  27.600   7.653
 7593POPC   C1B34603  32.443  27.765   8.553
 7593POPC   C2B34604  32.458  27.817   8.253
 7593POPC   C3B34605  32.405  27.798   7.953
 7593POPC   C4B34606  32.412  27.817   7.653
 7594POPC   NC334607  40.786  15.984   9.453
 7594POPC   PO434608  40.828  15.956   9.153
 7594POPC   GL134609  40.748  15.939   8.853
 7594POPC   GL234610  40.933  15.908   8.853
 7594POPC   C1A34611  40.827  15.949   8.553
 7594POPC   D2A34612  40.818  15.906   8.253
 7594POPC   C3A34613  40.798  15.944   7.953
 7594POPC   C4A34614  40.818  15.958   7.653
 7594POPC   C1B34615  41.002  15.956   8.553
 7594POPC   C2B34616  40.999  15.915   8.253
 7594POPC   C3B34617  41.015  15.911   7.953
 7594POPC   C4B34618  41.042  15.947   7.653
 7595POPC   NC334619  19.821  31.472   9.453
 7595POPC   PO434620  19.795  31.442   9.153
 7595POPC   GL134621  19.877  31.431   8.853
 7595POPC   GL234622  19.978  31.510   8.853
 7595POPC   C1A34623  19.806  31.424   8.553
 7595POPC   D2A34624  19.785  31.425   8.253
 7595POPC   C3A34625  19.872  31.471   7.953
 7595POPC   C4A34626  19.844  31.522   7.653
 7595POPC   C1B34627  20.083  31.483   8.553
 7595POPC   C2B34628  20.076  31.550   8.253
 7595POPC   C3B34629  20.071  31.483   7.953
 7595POPC   C4B34630  20.050  31.502   7.653
 7596POPC   NC334631  30.715   4.348   9.453
 7596POPC   PO434632  30.666   4.351   9.153
 7596POPC   GL134633  30.695   4.365   8.853
 7596POPC   GL234634  30.777   4.402   8.853
 7596POPC   C1A34635  30.721   4.350   8.553
 7596POPC   D2A34636  30.743   4.343   8.253
 7596POPC   C3A34637  30.727   4.355   7.953
 7596POPC   C4A34638  30.659   4.329   7.653
 7596POPC   C1B34639  30.863   4.555   8.553
 7596POPC   C2B34640  30.855   4.533   8.253
 7596POPC   C3B34641  30.835   4.551   7.953
 7596POPC   C4B34642  30.877   4.521   7.653
 7597POPC   NC334643  22.135  10.520   9.453
 7597POPC   PO434644  22.179  10.495   9.153
 7597POPC   GL134645  22.136  10.507   8.853
 7597POPC   GL234646  22.321  10.528   8.853
 7597POPC   C1A34647  22.128  10.534   8.553
 7597POPC   D2A34648  22.126  10.481   8.253
 7597POPC   C3A34649  22.177  10.502   7.953
 7597POPC   C4A34650  22.122  10.490   7.653
 7597POPC   C1B34651  22.416  10.443   8.553
 7597POPC   C2B34652  22.419  10.487   8.253
 7597POPC   C3B34653  22.389  10.430   7.953
 7597POPC   C4B34654  22.380  10.406   7.653
 7598POPC   NC334655  12.863  30.680   9.453
 7598POPC   PO434656  12.869  30.722   9.153
 7598POPC   GL134657  12.858  30.670   8.853
 7598POPC   GL234658  12.902  30.866   8.853
 7598POPC   C1A34659  12.893  30.661   8.553
 7598POPC   D2A34660  12.896  30.743   8.253
 7598POPC   C3A34661  12.870  30.693   7.953
 7598POPC   C4A34662  12.821  30.737   7.653
 7598POPC   C1B34663  12.890  30.896   8.553
 7598POPC   C2B34664  12.951  30.984   8.253
 7598POPC   C3B34665  12.960  30.899   7.953
 7598POPC   C4B34666  12.906  30.957   7.653
 7599POPC   NC334667   1.168  14.414   9.453
 7599POPC   PO434668   1.195  14.445   9.153
 7599POPC   GL134669   1.245  14.358   8.853
 7599POPC   GL234670   1.085  14.457   8.853
 7599POPC   C1A34671   1.173  14.426   8.553
 7599POPC   D2A34672   1.167  14.360   8.253
 7599POPC   C3A34673   1.223  14.409   7.953
 7599POPC   C4A34674   1.216  14.419   7.653
 7599POPC   C1B34675   0.981  14.453   8.553
 7599POPC   C2B34676   0.940  14.440   8.253
 7599POPC   C3B34677   1.008  14.497   7.953
 7599POPC   C4B34678   0.972  14.495   7.653
 7600POPC   NC334679  41.558  24.525   9.453
 7600POPC   PO434680  41.581  24.494   9.153
 7600POPC   GL134681  41.600  24.497   8.853
 7600POPC   GL234682  41.642  24.377   8.853
 7600POPC   C1A34683  41.580  24.505   8.553
 7600POPC   D2A34684  41.576  24.522   8.253
 7600POPC   C3A34685  41.539  24.466   7.953
 7600POPC   C4A34686  41.602  24.466   7.653
 7600POPC   C1B34687  41.682  24.299   8.553
 7600POPC   C2B34688  41.697  24.270   8.253
 7600POPC   C3B34689  41.621  24.273   7.953
 7600POPC   C4B34690  41.662  24.217   7.653
 7601POPC   NC334691  38.453  14.402   9.453
 7601POPC   PO434692  38.452  14.420   9.153
 7601POPC   GL134693  38.407  14.393   8.853
 7601POPC   GL234694  38.331  14.349   8.853
 7601POPC   C1A34695  38.443  14.416   8.553
 7601POPC   D2A34696  38.495  14.384   8.253
 7601POPC   C3A34697  38.424  14.424   7.953
 7601POPC   C4A34698  38.421  14.397   7.653
 7601POPC   C1B34699  38.271  14.184   8.553
 7601POPC   C2B34700  38.283  14.242   8.253
 7601POPC   C3B34701  38.259  14.220   7.953
 7601POPC   C4B34702  38.307  14.266   7.653
 7602POPC   NC334703  39.198   5.863   9.453
 7602POPC   PO434704  39.207   5.867   9.153
 7602POPC   GL134705  39.256   5.911   8.853
 7602POPC   GL234706  39.377   5.825   8.853
 7602POPC   C1A34707  39.253   5.879   8.553
 7602POPC   D2A34708  39.185   5.909   8.253
 7602POPC   C3A34709  39.253   5.836   7.953
 7602POPC   C4A34710  39.275   5.825   7.653
 7602POPC   C1B34711  39.467   5.762   8.553
 7602POPC   C2B34712  39.435   5.776   8.253
 7602POPC   C3B34713  39.400   5.720   7.953
 7602POPC   C4B34714  39.487   5.759   7.653
 7603POPC   NC334715  33.023   5.053   9.453
 7603POPC   PO434716  33.014   5.071   9.153
 7603POPC   GL134717  33.039   5.125   8.853
 7603POPC   GL234718  33.049   5.009   8.853
 7603POPC   C1A34719  33.028   5.068   8.553
 7603POPC   D2A34720  33.040   5.052   8.253
 7603POPC   C3A34721  33.013   5.065   7.953
 7603POPC   C4A34722  33.071   5.136   7.653
 7603POPC   C1B34723  33.001   4.884   8.553
 7603POPC   C2B34724  33.091   4.829   8.253
 7603POPC   C3B34725  33.035   4.816   7.953
 7603POPC   C4B34726  33.043   4.829   7.653
 7604POPC   NC334727   3.542  34.565   9.453
 7604POPC   PO434728   3.515  34.585   9.153
 7604POPC   GL134729   3.499  34.535   8.853
 7604POPC   GL234730   3.602  34.675   8.853
 7604POPC   C1A34731   3.516  34.611   8.553
 7604POPC   D2A34732   3.525  34.583   8.253
 7604POPC   C3A34733   3.536  34.554   7.953
 7604POPC   C4A34734   3.507  34.611   7.653
 7604POPC   C1B34735   3.746  34.685   8.553
 7604POPC   C2B34736   3.719  34.735   8.253
 7604POPC   C3B34737   3.730  34.663   7.953
 7604POPC   C4B34738   3.800  34.670   7.653
 7605POPC   NC334739  41.525  33.804   9.453
 7605POPC   PO434740  41.580  33.842   9.153
 7605POPC   GL134741  41.512  33.814   8.853
 7605POPC   GL234742  41.516  33.634   8.853
 7605POPC   C1A34743  41.535  33.793   8.553
 7605POPC   D2A34744  41.532  33.829   8.253
 7605POPC   C3A34745  41.580  33.827   7.953
 7605POPC   C4A34746  41.517  33.764   7.653
 7605POPC   C1B34747  41.570  33.592   8.553
 7605POPC   C2B34748  41.566  33.581   8.253
 7605POPC   C3B34749  41.487  33.593   7.953
 7605POPC   C4B34750  41.549  33.587   7.653
 7606POPC   NC334751  15.138  23.764   9.453
 7606POPC   PO434752  15.181  23.740   9.153
 7606POPC   GL134753  15.157  23.724   8.853
 7606POPC   GL234754  15.096  23.767   8.853
 7606POPC   C1A34755  15.192  23.762   8.553
 7606POPC   D2A34756  15.203  23.763   8.253
 7606POPC   C3A34757  15.178  23.691   7.953
 7606POPC   C4A34758  15.203  23.732   7.653
 7606POPC   C1B34759  14.954  23.906   8.553
 7606POPC   C2B34760  14.984  23.869   8.253
 7606POPC   C3B34761  14.965  23.909   7.953
 7606POPC   C4B34762  14.955  23.870   7.653
 7607POPC   NC334763  31.495  18.236   9.453
 7607POPC   PO434764  31.464  18.274   9.153
 7607POPC   GL134765  31.465  18.320   8.853
 7607POPC   GL234766  31.546  18.400   8.853
 7607POPC   C1A34767  31.455  18.249   8.553
 7607POPC   D2A34768  31.443  18.281   8.253
 7607POPC   C3A34769  31.521  18.274   7.953
 7607POPC   C4A34770  31.491  18.240   7.653
 7607POPC   C1B34771  31.641  18.462   8.553
 7607POPC   C2B34772  31.625  18.391   8.253
 7607POPC   C3B34773  31.696  18.438   7.953
 7607POPC   C4B34774  31.657  18.471   7.653
 7608POPC   NC334775  19.056   2.017   9.453
 7608POPC   PO434776  19.089   2.015   9.153
 7608POPC   GL134777  19.034   2.006   8.853
 7608POPC   GL234778  19.197   2.085   8.853
 7608POPC   C1A34779  19.090   1.972   8.553
 7608POPC   D2A34780  19.080   2.034   8.253
 7608POPC   C3A34781  19.086   1.965   7.953
 7608POPC   C4A34782  19.077   1.973   7.653
 7608POPC   C1B34783  19.303   2.115   8.553
 7608POPC   C2B34784  19.242   2.121   8.253
 7608POPC   C3B34785  19.288   2.118   7.953
 7608POPC   C4B34786  19.241   2.149   7.653
 7609POPC   NC334787  10.540  19.807   9.453
 7609POPC   PO434788  10.563  19.789   9.153
 7609POPC   GL134789  10.487  19.840   8.853
 7609POPC   GL234790  10.462  19.963   8.853
 7609POPC   C1A34791  10.510  19.841   8.553
 7609POPC   D2A34792  10.495  19.815   8.253
 7609POPC   C3A34793  10.532  19.791   7.953
 7609POPC   C4A34794  10.509  19.791   7.653
 7609POPC   C1B34795  10.309  19.999   8.553
 7609POPC   C2B34796  10.383  20.051   8.253
 7609POPC   C3B34797  10.344  20.006   7.953
 7609POPC   C4B34798  10.367  20.024   7.653
 7610POPC   NC334799  19.788   9.020   9.453
 7610POPC   PO434800  19.834   8.972   9.153
 7610POPC   GL134801  19.833   8.947   8.853
 7610POPC   GL234802  19.933   8.946   8.853
 7610POPC   C1A34803  19.794   8.931   8.553
 7610POPC   D2A34804  19.812   8.959   8.253
 7610POPC   C3A34805  19.801   9.014   7.953
 7610POPC   C4A34806  19.836   9.022   7.653
 7610POPC   C1B34807  20.049   8.892   8.553
 7610POPC   C2B34808  20.080   8.913   8.253
 7610POPC   C3B34809  20.107   8.911   7.953
 7610POPC   C4B34810  20.116   8.946   7.653
 7611POPC   NC334811   1.207  38.412   9.453
 7611POPC   PO434812   1.252  38.440   9.153
 7611POPC   GL134813   1.223  38.468   8.853
 7611POPC   GL234814   1.118  38.388   8.853
 7611POPC   C1A34815   1.224  38.422   8.553
 7611POPC   D2A34816   1.245  38.435   8.253
 7611POPC   C3A34817   1.212  38.438   7.953
 7611POPC   C4A34818   1.184  38.442   7.653
 7611POPC   C1B34819   1.046  38.311   8.553
 7611POPC   C2B34820   1.037  38.296   8.253
 7611POPC   C3B34821   1.061  38.265   7.953
 7611POPC   C4B34822   1.004  38.299   7.653
 7612POPC   NC334823  19.792  26.090   9.453
 7612POPC   PO434824  19.834  26.039   9.153
 7612POPC   GL134825  19.873  26.021   8.853
 7612POPC   GL234826  19.935  26.022   8.853
 7612POPC   C1A34827  19.797  26.007   8.553
 7612POPC   D2A34828  19.871  25.991   8.253
 7612POPC   C3A34829  19.858  25.993   7.953
 7612POPC   C4A34830  19.795  26.066   7.653
 7612POPC   C1B34831  20.081  25.950   8.553
 7612POPC   C2B34832  20.004  25.881   8.253
 7612POPC   C3B34833  20.001  25.872   7.953
 7612POPC   C4B34834  20.002  25.942   7.653
 7613POPC   NC334835  19.867  10.548   9.453
 7613POPC   PO434836  19.879  10.546   9.153
 7613POPC   GL134837  19.828  10.547   8.853
 7613POPC   GL234838  19.770  10.382   8.853
 7613POPC   C1A34839  19.832  10.486   8.553
 7613POPC   D2A34840  19.874  10.554   8.253
 7613POPC   C3A34841  19.821  10.519   7.953
 7613POPC   C4A34842  19.880  10.516   7.653
 7613POPC   C1B34843  19.806  10.271   8.553
 7613POPC   C2B34844  19.743  10.286   8.253
 7613POPC   C3B34845  19.758  10.263   7.953
 7613POPC   C4B34846  19.783  10.293   7.653
 7614POPC   NC334847  36.858   9.007   9.453
 7614POPC   PO434848  36.902   8.983   9.153
 7614POPC   GL134849  36.878   9.006   8.853
 7614POPC   GL234850  37.006   8.940   8.853
 7614POPC   C1A34851  36.946   9.011   8.553
 7614POPC   D2A34852  36.927   9.015   8.253
 7614POPC   C3A34853  36.909   8.954   7.953
 7614POPC   C4A34854  36.942   8.968   7.653
 7614POPC   C1B34855  37.147   8.962   8.553
 7614POPC   C2B34856  37.148   8.926   8.253
 7614POPC   C3B34857  37.121   8.937   7.953
 7614POPC   C4B34858  37.127   8.908   7.653
 7615POPC   NC334859  26.777  12.851   9.453
 7615POPC   PO434860  26.817  12.827   9.153
 7615POPC   GL134861  26.822  12.891   8.853
 7615POPC   GL234862  26.845  13.007   8.853
 7615POPC   C1A34863  26.844  12.894   8.553
 7615POPC   D2A34864  26.866  12.845   8.253
 7615POPC   C3A34865  26.820  12.826   7.953
 7615POPC   C4A34866  26.819  12.871   7.653
 7615POPC   C1B34867  26.824  13.109   8.553
 7615POPC   C2B34868  26.776  13.134   8.253
 7615POPC   C3B34869  26.792  13.134   7.953
 7615POPC   C4B34870  26.837  13.078   7.653
 7616POPC   NC334871  43.107  24.507   9.453
 7616POPC   PO434872  43.081  24.466   9.153
 7616POPC   GL134873  43.140  24.470   8.853
 7616POPC   GL234874  43.187  24.587   8.853
 7616POPC   C1A34875  43.132  24.448   8.553
 7616POPC   D2A34876  43.133  24.519   8.253
 7616POPC   C3A34877  43.150  24.530   7.953
 7616POPC   C4A34878  43.094  24.493   7.653
 7616POPC   C1B34879  43.235  24.729   8.553
 7616POPC   C2B34880  43.267  24.724   8.253
 7616POPC   C3B34881  43.240  24.673   7.953
 7616POPC   C4B34882  43.210  24.669   7.653
 7617POPC   NC334883   5.915  44.623   9.453
 7617POPC   PO434884   5.903  44.657   9.153
 7617POPC   GL134885   5.827  44.677   8.853
 7617POPC   GL234886   5.864  44.735   8.853
 7617POPC   C1A34887   5.903  44.697   8.553
 7617POPC   D2A34888   5.865  44.658   8.253
 7617POPC   C3A34889   5.831  44.702   7.953
 7617POPC   C4A34890   5.882  44.657   7.653
 7617POPC   C1B34891   5.816  44.915   8.553
 7617POPC   C2B34892   5.841  44.922   8.253
 7617POPC   C3B34893   5.851  44.950   7.953
 7617POPC   C4B34894   5.772  44.869   7.653
 7618POPC   NC334895  13.673  24.527   9.453
 7618POPC   PO434896  13.603  24.538   9.153
 7618POPC   GL134897  13.661  24.470   8.853
 7618POPC   GL234898  13.520  24.461   8.853
 7618POPC   C1A34899  13.650  24.474   8.553
 7618POPC   D2A34900  13.645  24.528   8.253
 7618POPC   C3A34901  13.667  24.489   7.953
 7618POPC   C4A34902  13.599  24.539   7.653
 7618POPC   C1B34903  13.459  24.354   8.553
 7618POPC   C2B34904  13.380  24.328   8.253
 7618POPC   C3B34905  13.445  24.402   7.953
 7618POPC   C4B34906  13.393  24.356   7.653
 7619POPC   NC334907   2.039  20.579   9.453
 7619POPC   PO434908   2.001  20.642   9.153
 7619POPC   GL134909   1.942  20.611   8.853
 7619POPC   GL234910   2.061  20.538   8.853
 7619POPC   C1A34911   1.959  20.628   8.553
 7619POPC   D2A34912   2.032  20.651   8.253
 7619POPC   C3A34913   1.966  20.594   7.953
 7619POPC   C4A34914   1.997  20.651   7.653
 7619POPC   C1B34915   2.199  20.521   8.553
 7619POPC   C2B34916   2.214  20.509   8.253
 7619POPC   C3B34917   2.237  20.485   7.953
 7619POPC   C4B34918   2.255  20.481   7.653
 7620POPC   NC334919  38.438  43.846   9.453
 7620POPC   PO434920  38.464  43.888   9.153
 7620POPC   GL134921  38.496  43.880   8.853
 7620POPC   GL234922  38.342  43.874   8.853
 7620POPC   C1A34923  38.468  43.900   8.553
 7620POPC   D2A34924  38.471  43.871   8.253
 7620POPC   C3A34925  38.407  43.915   7.953
 7620POPC   C4A34926  38.485  43.861   7.653
 7620POPC   C1B34927  38.158  43.817   8.553
 7620POPC   C2B34928  38.192  43.903   8.253
 7620POPC   C3B34929  38.252  43.819   7.953
 7620POPC   C4B34930  38.175  43.830   7.653
 7621POPC   NC334931  40.831  36.152   9.453
 7621POPC   PO434932  40.781  36.174   9.153
 7621POPC   GL134933  40.756  36.171   8.853
 7621POPC   GL234934  40.892  36.114   8.853
 7621POPC   C1A34935  40.743  36.106   8.553
 7621POPC   D2A34936  40.784  36.121   8.253
 7621POPC   C3A34937  40.765  36.129   7.953
 7621POPC   C4A34938  40.804  36.087   7.653
 7621POPC   C1B34939  41.037  36.064   8.553
 7621POPC   C2B34940  41.003  36.013   8.253
 7621POPC   C3B34941  41.048  36.045   7.953
 7621POPC   C4B34942  41.028  36.044   7.653
 7622POPC   NC334943  41.544  31.469   9.453
 7622POPC   PO434944  41.534  31.494   9.153
 7622POPC   GL134945  41.599  31.509   8.853
 7622POPC   GL234946  41.535  31.535   8.853
 7622POPC   C1A34947  41.581  31.487   8.553
 7622POPC   D2A34948  41.600  31.483   8.253
 7622POPC   C3A34949  41.606  31.491   7.953
 7622POPC   C4A34950  41.574  31.503   7.653
 7622POPC   C1B34951  41.413  31.639   8.553
 7622POPC   C2B34952  41.437  31.705   8.253
 7622POPC   C3B34953  41.416  31.725   7.953
 7622POPC   C4B34954  41.418  31.705   7.653
 7623POPC   NC334955  15.981   9.741   9.453
 7623POPC   PO434956  15.926   9.787   9.153
 7623POPC   GL134957  15.953   9.751   8.853
 7623POPC   GL234958  16.107   9.794   8.853
 7623POPC   C1A34959  15.989   9.797   8.553
 7623POPC   D2A34960  15.996   9.753   8.253
 7623POPC   C3A34961  15.960   9.714   7.953
 7623POPC   C4A34962  15.989   9.732   7.653
 7623POPC   C1B34963  16.175   9.802   8.553
 7623POPC   C2B34964  16.226   9.848   8.253
 7623POPC   C3B34965  16.196   9.783   7.953
 7623POPC   C4B34966  16.159   9.799   7.653
 7624POPC   NC334967  33.048  32.268   9.453
 7624POPC   PO434968  33.047  32.233   9.153
 7624POPC   GL134969  33.015  32.217   8.853
 7624POPC   GL234970  32.945  32.255   8.853
 7624POPC   C1A34971  33.042  32.207   8.553
 7624POPC   D2A34972  33.032  32.250   8.253
 7624POPC   C3A34973  33.048  32.268   7.953
 7624POPC   C4A34974  32.994  32.296   7.653
 7624POPC   C1B34975  32.786  32.290   8.553
 7624POPC   C2B34976  32.806  32.341   8.253
 7624POPC   C3B34977  32.786  32.320   7.953
 7624POPC   C4B34978  32.764  32.280   7.653
 7625POPC   NC334979  20.592  14.423   9.453
 7625POPC   PO434980  20.561  14.365   9.153
 7625POPC   GL134981  20.587  14.390   8.853
 7625POPC   GL234982  20.771  14.347   8.853
 7625POPC   C1A34983  20.601  14.400   8.553
 7625POPC   D2A34984  20.629  14.370   8.253
 7625POPC   C3A34985  20.649  14.434   7.953
 7625POPC   C4A34986  20.566  14.358   7.653
 7625POPC   C1B34987  20.827  14.347   8.553
 7625POPC   C2B34988  20.909  14.382   8.253
 7625POPC   C3B34989  20.872  14.385   7.953
 7625POPC   C4B34990  20.852  14.388   7.653
 7626POPC   NC334991   3.531   1.227   9.453
 7626POPC   PO434992   3.552   1.250   9.153
 7626POPC   GL134993   3.522   1.259   8.853
 7626POPC   GL234994   3.473   1.278   8.853
 7626POPC   C1A34995   3.508   1.188   8.553
 7626POPC   D2A34996   3.498   1.207   8.253
 7626POPC   C3A34997   3.570   1.221   7.953
 7626POPC   C4A34998   3.539   1.213   7.653
 7626POPC   C1B34999   3.427   1.430   8.553
 7626POPC   C2B35000   3.431   1.432   8.253
 7626POPC   C3B35001   3.412   1.421   7.953
 7626POPC   C4B35002   3.402   1.438   7.653
 7627POPC   NC335003  42.289  11.257   9.453
 7627POPC   PO435004  42.341  11.330   9.153
 7627POPC   GL135005  42.342  11.260   8.853
 7627POPC   GL235006  42.252  11.275   8.853
 7627POPC   C1A35007  42.359  11.325   8.553
 7627POPC   D2A35008  42.285  11.328   8.253
 7627POPC   C3A35009  42.382  11.322   7.953
 7627POPC   C4A35010  42.364  11.264   7.653
 7627POPC   C1B35011  42.134  11.203   8.553
 7627POPC   C2B35012  42.065  11.274   8.253
 7627POPC   C3B35013  42.108  11.229   7.953
 7627POPC   C4B35014  42.058  11.195   7.653
 7628POPC   NC335015   0.485  20.656   9.453
 7628POPC   PO435016   0.464  20.569   9.153
 7628POPC   GL135017   0.461  20.615   8.853
 7628POPC   GL235018   0.564  20.555   8.853
 7628POPC   C1A35019   0.438  20.596   8.553
 7628POPC   D2A35020   0.432  20.634   8.253
 7628POPC   C3A35021   0.472  20.629   7.953
 7628POPC   C4A35022   0.388  20.629   7.653
 7628POPC   C1B35023   0.581  20.457   8.553
 7628POPC   C2B35024   0.663  20.446   8.253
 7628POPC   C3B35025   0.672  20.431   7.953
 7628POPC   C4B35026   0.622  20.447   7.653
 7629POPC   NC335027  43.935  10.556   9.453
 7629POPC   PO435028  43.854  10.547   9.153
 7629POPC   GL135029  43.837  10.511   8.853
 7629POPC   GL235030  43.946  10.389   8.853
 7629POPC   C1A35031  43.918  10.480   8.553
 7629POPC   D2A35032  43.871  10.508   8.253
 7629POPC   C3A35033  43.868  10.511   7.953
 7629POPC   C4A35034  43.868  10.513   7.653
 7629POPC   C1B35035  44.100  10.298   8.553
 7629POPC   C2B35036  44.074  10.352   8.253
 7629POPC   C3B35037  44.017  10.384   7.953
 7629POPC   C4B35038  44.095  10.369   7.653
 7630POPC   NC335039  19.837  43.903   9.453
 7630POPC   PO435040  19.815  43.855   9.153
 7630POPC   GL135041  19.854  43.843   8.853
 7630POPC   GL235042  19.926  43.948   8.853
 7630POPC   C1A35043  19.796  43.895   8.553
 7630POPC   D2A35044  19.879  43.901   8.253
 7630POPC   C3A35045  19.816  43.928   7.953
 7630POPC   C4A35046  19.874  43.897   7.653
 7630POPC   C1B35047  20.080  43.995   8.553
 7630POPC   C2B35048  20.087  43.980   8.253
 7630POPC   C3B35049  20.074  43.974   7.953
 7630POPC   C4B35050  20.086  43.913   7.653
 7631POPC   NC335051  10.532  23.685   9.453
 7631POPC   PO435052  10.485  23.722   9.153
 7631POPC   GL135053  10.563  23.756   8.853
 7631POPC   GL235054  10.495  23.648   8.853
 7631POPC   C1A35055  10.553  23.749   8.553
 7631POPC   D2A35056  10.531  23.681   8.253
 7631POPC   C3A35057  10.516  23.681   7.953
 7631POPC   C4A35058  10.478  23.699   7.653
 7631POPC   C1B35059  10.449  23.451   8.553
 7631POPC   C2B35060  10.453  23.522   8.253
 7631POPC   C3B35061  10.443  23.520   7.953
 7631POPC   C4B35062  10.468  23.502   7.653
 7632POPC   NC335063  44.702  20.611   9.453
 7632POPC   PO435064  44.691  20.613   9.153
 7632POPC   GL135065  44.703  20.582   8.853
 7632POPC   GL235066  44.773  20.624   8.853
 7632POPC   C1A35067  44.692  20.609   8.553
 7632POPC   D2A35068  44.690  20.658   8.253
 7632POPC   C3A35069  44.669  20.588   7.953
 7632POPC   C4A35070  44.700  20.631   7.653
 7632POPC   C1B35071  44.885  20.735   8.553
 7632POPC   C2B35072  44.884  20.680   8.253
 7632POPC   C3B35073  44.855  20.714   7.953
 7632POPC   C4B35074  44.948  20.667   7.653
 7633POPC   NC335075  29.126   4.277   9.453
 7633POPC   PO435076  29.171   4.307   9.153
 7633POPC   GL135077  29.141   4.308   8.853
 7633POPC   GL235078  29.058   4.412   8.853
 7633POPC   C1A35079  29.154   4.279   8.553
 7633POPC   D2A35080  29.187   4.292   8.253
 7633POPC   C3A35081  29.170   4.279   7.953
 7633POPC   C4A35082  29.134   4.339   7.653
 7633POPC   C1B35083  28.976   4.442   8.553
 7633POPC   C2B35084  28.957   4.484   8.253
 7633POPC   C3B35085  28.937   4.484   7.953
 7633POPC   C4B35086  28.926   4.481   7.653
 7634POPC   NC335087  13.620   6.628   9.453
 7634POPC   PO435088  13.599   6.654   9.153
 7634POPC   GL135089  13.593   6.634   8.853
 7634POPC   GL235090  13.710   6.491   8.853
 7634POPC   C1A35091  13.595   6.634   8.553
 7634POPC   D2A35092  13.585   6.645   8.253
 7634POPC   C3A35093  13.654   6.616   7.953
 7634POPC   C4A35094  13.586   6.691   7.653
 7634POPC   C1B35095  13.754   6.472   8.553
 7634POPC   C2B35096  13.750   6.468   8.253
 7634POPC   C3B35097  13.735   6.428   7.953
 7634POPC   C4B35098  13.764   6.425   7.653
 7635POPC   NC335099  22.908  14.373   9.453
 7635POPC   PO435100  22.977  14.432   9.153
 7635POPC   GL135101  22.924  14.378   8.853
 7635POPC   GL235102  22.879  14.262   8.853
 7635POPC   C1A35103  22.904  14.378   8.553
 7635POPC   D2A35104  22.905  14.357   8.253
 7635POPC   C3A35105  22.893  14.417   7.953
 7635POPC   C4A35106  22.910  14.356   7.653
 7635POPC   C1B35107  22.750  14.240   8.553
 7635POPC   C2B35108  22.737  14.181   8.253
 7635POPC   C3B35109  22.822  14.185   7.953
 7635POPC   C4B35110  22.768  14.249   7.653
 7636POPC   NC335111   9.735  30.647   9.453
 7636POPC   PO435112   9.711  30.686   9.153
 7636POPC   GL135113   9.710  30.685   8.853
 7636POPC   GL235114   9.611  30.638   8.853
 7636POPC   C1A35115   9.709  30.666   8.553
 7636POPC   D2A35116   9.743  30.726   8.253
 7636POPC   C3A35117   9.714  30.719   7.953
 7636POPC   C4A35118   9.727  30.735   7.653
 7636POPC   C1B35119   9.480  30.613   8.553
 7636POPC   C2B35120   9.472  30.653   8.253
 7636POPC   C3B35121   9.471  30.592   7.953
 7636POPC   C4B35122   9.497  30.568   7.653
 7637POPC   NC335123  34.576   1.256   9.453
 7637POPC   PO435124  34.603   1.215   9.153
 7637POPC   GL135125  34.598   1.234   8.853
 7637POPC   GL235126  34.684   1.198   8.853
 7637POPC   C1A35127  34.610   1.261   8.553
 7637POPC   D2A35128  34.546   1.261   8.253
 7637POPC   C3A35129  34.528   1.220   7.953
 7637POPC   C4A35130  34.530   1.227   7.653
 7637POPC   C1B35131  34.826   1.241   8.553
 7637POPC   C2B35132  34.796   1.261   8.253
 7637POPC   C3B35133  34.773   1.302   7.953
 7637POPC   C4B35134  34.823   1.298   7.653
 7638POPC   NC335135   9.778  19.043   9.453
 7638POPC   PO435136   9.769  19.050   9.153
 7638POPC   GL135137   9.726  19.031   8.853
 7638POPC   GL235138   9.635  19.055   8.853
 7638POPC   C1A35139   9.742  19.025   8.553
 7638POPC   D2A35140   9.756  19.053   8.253
 7638POPC   C3A35141   9.738  19.031   7.953
 7638POPC   C4A35142   9.777  19.096   7.653
 7638POPC   C1B35143   9.533  18.982   8.553
 7638POPC   C2B35144   9.510  18.929   8.253
 7638POPC   C3B35145   9.524  18.926   7.953
 7638POPC   C4B35146   9.501  18.977   7.653
 7639POPC   NC335147   8.236  21.381   9.453
 7639POPC   PO435148   8.173  21.383   9.153
 7639POPC   GL135149   8.237  21.402   8.853
 7639POPC   GL235150   8.059  21.482   8.853
 7639POPC   C1A35151   8.183  21.362   8.553
 7639POPC   D2A35152   8.164  21.365   8.253
 7639POPC   C3A35153   8.149  21.403   7.953
 7639POPC   C4A35154   8.171  21.380   7.653
 7639POPC   C1B35155   8.026  21.532   8.553
 7639POPC   C2B35156   8.025  21.573   8.253
 7639POPC   C3B35157   7.977  21.542   7.953
 7639POPC   C4B35158   8.006  21.513   7.653
 7640POPC   NC335159  23.759   8.977   9.453
 7640POPC   PO435160  23.720   9.021   9.153
 7640POPC   GL135161  23.703   8.955   8.853
 7640POPC   GL235162  23.545   9.044   8.853
 7640POPC   C1A35163  23.713   8.985   8.553
 7640POPC   D2A35164  23.699   8.941   8.253
 7640POPC   C3A35165  23.735   8.924   7.953
 7640POPC   C4A35166  23.726   9.000   7.653
 7640POPC   C1B35167  23.502   8.996   8.553
 7640POPC   C2B35168  23.436   9.017   8.253
 7640POPC   C3B35169  23.419   9.038   7.953
 7640POPC   C4B35170  23.435   9.019   7.653
 7641POPC   NC335171   9.699  32.219   9.453
 7641POPC   PO435172   9.784  32.241   9.153
 7641POPC   GL135173   9.734  32.292   8.853
 7641POPC   GL235174   9.695  32.147   8.853
 7641POPC   C1A35175   9.737  32.271   8.553
 7641POPC   D2A35176   9.772  32.207   8.253
 7641POPC   C3A35177   9.748  32.240   7.953
 7641POPC   C4A35178   9.711  32.267   7.653
 7641POPC   C1B35179   9.746  32.016   8.553
 7641POPC   C2B35180   9.731  31.963   8.253
 7641POPC   C3B35181   9.770  31.976   7.953
 7641POPC   C4B35182   9.736  31.976   7.653
 7642POPC   NC335183  27.558  11.288   9.453
 7642POPC   PO435184  27.559  11.307   9.153
 7642POPC   GL135185  27.641  11.261   8.853
 7642POPC   GL235186  27.692  11.281   8.853
 7642POPC   C1A35187  27.569  11.325   8.553
 7642POPC   D2A35188  27.557  11.259   8.253
 7642POPC   C3A35189  27.585  11.323   7.953
 7642POPC   C4A35190  27.635  11.272   7.653
 7642POPC   C1B35191  27.847  11.299   8.553
 7642POPC   C2B35192  27.873  11.375   8.253
 7642POPC   C3B35193  27.839  11.357   7.953
 7642POPC   C4B35194  27.803  11.303   7.653
 7643POPC   NC335195  25.219   9.718   9.453
 7643POPC   PO435196  25.257   9.790   9.153
 7643POPC   GL135197  25.289   9.768   8.853
 7643POPC   GL235198  25.274   9.622   8.853
 7643POPC   C1A35199  25.275   9.749   8.553
 7643POPC   D2A35200  25.229   9.701   8.253
 7643POPC   C3A35201  25.230   9.706   7.953
 7643POPC   C4A35202  25.303   9.729   7.653
 7643POPC   C1B35203  25.257   9.493   8.553
 7643POPC   C2B35204  25.280   9.515   8.253
 7643POPC   C3B35205  25.255   9.477   7.953
 7643POPC   C4B35206  25.299   9.525   7.653
 7644POPC   NC335207   8.948   1.206   9.453
 7644POPC   PO435208   8.939   1.180   9.153
 7644POPC   GL135209   8.940   1.172   8.853
 7644POPC   GL235210   8.814   1.209   8.853
 7644POPC   C1A35211   8.976   1.217   8.553
 7644POPC   D2A35212   8.945   1.227   8.253
 7644POPC   C3A35213   8.975   1.218   7.953
 7644POPC   C4A35214   9.022   1.200   7.653
 7644POPC   C1B35215   8.759   1.275   8.553
 7644POPC   C2B35216   8.693   1.290   8.253
 7644POPC   C3B35217   8.742   1.257   7.953
 7644POPC   C4B35218   8.735   1.289   7.653
 7645POPC   NC335219   8.166  10.560   9.453
 7645POPC   PO435220   8.212  10.511   9.153
 7645POPC   GL135221   8.245  10.551   8.853
 7645POPC   GL235222   8.253  10.403   8.853
 7645POPC   C1A35223   8.196  10.545   8.553
 7645POPC   D2A35224   8.242  10.476   8.253
 7645POPC   C3A35225   8.227  10.570   7.953
 7645POPC   C4A35226   8.171  10.515   7.653
 7645POPC   C1B35227   8.276  10.245   8.553
 7645POPC   C2B35228   8.244  10.263   8.253
 7645POPC   C3B35229   8.310  10.297   7.953
 7645POPC   C4B35230   8.261  10.266   7.653
 7646POPC   NC335231  12.841   9.733   9.453
 7646POPC   PO435232  12.830   9.757   9.153
 7646POPC   GL135233  12.850   9.731   8.853
 7646POPC   GL235234  12.920   9.624   8.853
 7646POPC   C1A35235  12.881   9.765   8.553
 7646POPC   D2A35236  12.841   9.753   8.253
 7646POPC   C3A35237  12.861   9.701   7.953
 7646POPC   C4A35238  12.897   9.796   7.653
 7646POPC   C1B35239  13.081   9.643   8.553
 7646POPC   C2B35240  13.089   9.645   8.253
 7646POPC   C3B35241  13.021   9.553   7.953
 7646POPC   C4B35242  13.072   9.565   7.653
 7647POPC   NC335243  11.312  39.964   9.453
 7647POPC   PO435244  11.279  39.972   9.153
 7647POPC   GL135245  11.259  39.988   8.853
 7647POPC   GL235246  11.435  39.993   8.853
 7647POPC   C1A35247  11.272  39.959   8.553
 7647POPC   D2A35248  11.286  40.053   8.253
 7647POPC   C3A35249  11.255  40.015   7.953
 7647POPC   C4A35250  11.305  39.974   7.653
 7647POPC   C1B35251  11.506  39.943   8.553
 7647POPC   C2B35252  11.588  39.924   8.253
 7647POPC   C3B35253  11.547  39.904   7.953
 7647POPC   C4B35254  11.563  39.927   7.653
 7648POPC   NC335255  43.158  29.135   9.453
 7648POPC   PO435256  43.074  29.116   9.153
 7648POPC   GL135257  43.109  29.176   8.853
 7648POPC   GL235258  42.996  29.166   8.853
 7648POPC   C1A35259  43.100  29.102   8.553
 7648POPC   D2A35260  43.159  29.127   8.253
 7648POPC   C3A35261  43.133  29.108   7.953
 7648POPC   C4A35262  43.090  29.136   7.653
 7648POPC   C1B35263  42.856  29.229   8.553
 7648POPC   C2B35264  42.844  29.283   8.253
 7648POPC   C3B35265  42.845  29.258   7.953
 7648POPC   C4B35266  42.896  29.273   7.653
 7649POPC   NC335267  29.169  16.759   9.453
 7649POPC   PO435268  29.149  16.711   9.153
 7649POPC   GL135269  29.104  16.781   8.853
 7649POPC   GL235270  29.054  16.762   8.853
 7649POPC   C1A35271  29.165  16.743   8.553
 7649POPC   D2A35272  29.127  16.716   8.253
 7649POPC   C3A35273  29.109  16.758   7.953
 7649POPC   C4A35274  29.156  16.729   7.653
 7649POPC   C1B35275  28.854  16.770   8.553
 7649POPC   C2B35276  28.855  16.723   8.253
 7649POPC   C3B35277  28.906  16.730   7.953
 7649POPC   C4B35278  28.909  16.716   7.653
 7650POPC   NC335279  33.825  12.889   9.453
 7650POPC   PO435280  33.781  12.825   9.153
 7650POPC   GL135281  33.797  12.809   8.853
 7650POPC   GL235282  33.893  12.739   8.853
 7650POPC   C1A35283  33.849  12.809   8.553
 7650POPC   D2A35284  33.785  12.859   8.253
 7650POPC   C3A35285  33.761  12.822   7.953
 7650POPC   C4A35286  33.756  12.897   7.653
 7650POPC   C1B35287  34.011  12.667   8.553
 7650POPC   C2B35288  33.954  12.689   8.253
 7650POPC   C3B35289  33.992  12.700   7.953
 7650POPC   C4B35290  34.009  12.678   7.653
 7651POPC   NC335291  22.129  39.272   9.453
 7651POPC   PO435292  22.187  39.219   9.153
 7651POPC   GL135293  22.128  39.242   8.853
 7651POPC   GL235294  22.164  39.350   8.853
 7651POPC   C1A35295  22.159  39.191   8.553
 7651POPC   D2A35296  22.114  39.273   8.253
 7651POPC   C3A35297  22.175  39.182   7.953
 7651POPC   C4A35298  22.164  39.193   7.653
 7651POPC   C1B35299  22.169  39.515   8.553
 7651POPC   C2B35300  22.258  39.446   8.253
 7651POPC   C3B35301  22.243  39.502   7.953
 7651POPC   C4B35302  22.204  39.457   7.653
 7652POPC   NC335303  15.157  43.124   9.453
 7652POPC   PO435304  15.226  43.157   9.153
 7652POPC   GL135305  15.199  43.062   8.853
 7652POPC   GL235306  15.107  43.200   8.853
 7652POPC   C1A35307  15.194  43.139   8.553
 7652POPC   D2A35308  15.207  43.128   8.253
 7652POPC   C3A35309  15.196  43.134   7.953
 7652POPC   C4A35310  15.187  43.092   7.653
 7652POPC   C1B35311  15.107  43.382   8.553
 7652POPC   C2B35312  15.137  43.349   8.253
 7652POPC   C3B35313  15.142  43.391   7.953
 7652POPC   C4B35314  15.130  43.317   7.653
 7653POPC   NC335315  11.306   1.190   9.453
 7653POPC   PO435316  11.259   1.261   9.153
 7653POPC   GL135317  11.317   1.187   8.853
 7653POPC   GL235318  11.429   1.214   8.853
 7653POPC   C1A35319  11.301   1.245   8.553
 7653POPC   D2A35320  11.263   1.216   8.253
 7653POPC   C3A35321  11.336   1.200   7.953
 7653POPC   C4A35322  11.275   1.247   7.653
 7653POPC   C1B35323  11.540   1.193   8.553
 7653POPC   C2B35324  11.543   1.201   8.253
 7653POPC   C3B35325  11.583   1.203   7.953
 7653POPC   C4B35326  11.522   1.118   7.653
 7654POPC   NC335327  36.123   8.190   9.453
 7654POPC   PO435328  36.109   8.196   9.153
 7654POPC   GL135329  36.087   8.228   8.853
 7654POPC   GL235330  36.050   8.217   8.853
 7654POPC   C1A35331  36.138   8.160   8.553
 7654POPC   D2A35332  36.097   8.213   8.253
 7654POPC   C3A35333  36.088   8.149   7.953
 7654POPC   C4A35334  36.170   8.160   7.653
 7654POPC   C1B35335  35.887   8.180   8.553
 7654POPC   C2B35336  35.835   8.194   8.253
 7654POPC   C3B35337  35.912   8.205   7.953
 7654POPC   C4B35338  35.891   8.253   7.653
 7655POPC   NC335339  14.410  39.990   9.453
 7655POPC   PO435340  14.427  40.049   9.153
 7655POPC   GL135341  14.429  40.047   8.853
 7655POPC   GL235342  14.288  40.062   8.853
 7655POPC   C1A35343  14.406  40.013   8.553
 7655POPC   D2A35344  14.402  39.990   8.253
 7655POPC   C3A35345  14.395  40.002   7.953
 7655POPC   C4A35346  14.355  40.048   7.653
 7655POPC   C1B35347  14.176  40.176   8.553
 7655POPC   C2B35348  14.194  40.117   8.253
 7655POPC   C3B35349  14.236  40.204   7.953
 7655POPC   C4B35350  14.204  40.125   7.653
 7656POPC   NC335351  18.298  28.403   9.453
 7656POPC   PO435352  18.324  28.400   9.153
 7656POPC   GL135353  18.234  28.357   8.853
 7656POPC   GL235354  18.163  28.455   8.853
 7656POPC   C1A35355  18.310  28.413   8.553
 7656POPC   D2A35356  18.313  28.370   8.253
 7656POPC   C3A35357  18.284  28.361   7.953
 7656POPC   C4A35358  18.269  28.351   7.653
 7656POPC   C1B35359  18.093  28.597   8.553
 7656POPC   C2B35360  18.178  28.604   8.253
 7656POPC   C3B35361  18.114  28.527   7.953
 7656POPC   C4B35362  18.092  28.625   7.653
 7657POPC   NC335363  29.965  38.471   9.453
 7657POPC   PO435364  29.895  38.432   9.153
 7657POPC   GL135365  29.883  38.494   8.853
 7657POPC   GL235366  29.902  38.343   8.853
 7657POPC   C1A35367  29.879  38.504   8.553
 7657POPC   D2A35368  29.919  38.472   8.253
 7657POPC   C3A35369  29.903  38.495   7.953
 7657POPC   C4A35370  29.881  38.410   7.653
 7657POPC   C1B35371  29.944  38.183   8.553
 7657POPC   C2B35372  29.943  38.164   8.253
 7657POPC   C3B35373  29.983  38.196   7.953
 7657POPC   C4B35374  29.916  38.165   7.653
 7658POPC   NC335375   8.229  38.449   9.453
 7658POPC   PO435376   8.161  38.409   9.153
 7658POPC   GL135377   8.234  38.427   8.853
 7658POPC   GL235378   8.267  38.570   8.853
 7658POPC   C1A35379   8.245  38.496   8.553
 7658POPC   D2A35380   8.173  38.451   8.253
 7658POPC   C3A35381   8.171  38.410   7.953
 7658POPC   C4A35382   8.229  38.466   7.653
 7658POPC   C1B35383   8.404  38.595   8.553
 7658POPC   C2B35384   8.380  38.662   8.253
 7658POPC   C3B35385   8.374  38.673   7.953
 7658POPC   C4B35386   8.328  38.601   7.653
 7659POPC   NC335387  27.613  22.915   9.453
 7659POPC   PO435388  27.544  22.905   9.153
 7659POPC   GL135389  27.591  22.890   8.853
 7659POPC   GL235390  27.745  22.972   8.853
 7659POPC   C1A35391  27.600  22.968   8.553
 7659POPC   D2A35392  27.617  22.922   8.253
 7659POPC   C3A35393  27.595  22.950   7.953
 7659POPC   C4A35394  27.560  22.972   7.653
 7659POPC   C1B35395  27.816  23.089   8.553
 7659POPC   C2B35396  27.774  23.080   8.253
 7659POPC   C3B35397  27.829  23.010   7.953
 7659POPC   C4B35398  27.862  23.056   7.653
 7660POPC   NC335399  21.396  40.757   9.453
 7660POPC   PO435400  21.411  40.787   9.153
 7660POPC   GL135401  21.360  40.783   8.853
 7660POPC   GL235402  21.334  40.915   8.853
 7660POPC   C1A35403  21.422  40.736   8.553
 7660POPC   D2A35404  21.398  40.740   8.253
 7660POPC   C3A35405  21.417  40.763   7.953
 7660POPC   C4A35406  21.373  40.742   7.653
 7660POPC   C1B35407  21.316  41.061   8.553
 7660POPC   C2B35408  21.377  40.994   8.253
 7660POPC   C3B35409  21.312  40.983   7.953
 7660POPC   C4B35410  21.326  40.996   7.653
 7661POPC   NC335411  33.063   1.979   9.453
 7661POPC   PO435412  33.036   2.007   9.153
 7661POPC   GL135413  33.026   1.962   8.853
 7661POPC   GL235414  33.076   1.880   8.853
 7661POPC   C1A35415  32.986   1.982   8.553
 7661POPC   D2A35416  33.072   2.018   8.253
 7661POPC   C3A35417  33.054   1.963   7.953
 7661POPC   C4A35418  32.990   1.986   7.653
 7661POPC   C1B35419  33.032   1.733   8.553
 7661POPC   C2B35420  33.085   1.750   8.253
 7661POPC   C3B35421  33.082   1.769   7.953
 7661POPC   C4B35422  33.037   1.756   7.653
 7662POPC   NC335423  34.534  31.423   9.453
 7662POPC   PO435424  34.574  31.462   9.153
 7662POPC   GL135425  34.588  31.428   8.853
 7662POPC   GL235426  34.563  31.560   8.853
 7662POPC   C1A35427  34.613  31.456   8.553
 7662POPC   D2A35428  34.587  31.503   8.253
 7662POPC   C3A35429  34.577  31.440   7.953
 7662POPC   C4A35430  34.557  31.508   7.653
 7662POPC   C1B35431  34.562  31.743   8.553
 7662POPC   C2B35432  34.562  31.692   8.253
 7662POPC   C3B35433  34.521  31.770   7.953
 7662POPC   C4B35434  34.520  31.700   7.653
 7663POPC   NC335435  30.674  36.089   9.453
 7663POPC   PO435436  30.648  36.134   9.153
 7663POPC   GL135437  30.668  36.177   8.853
 7663POPC   GL235438  30.773  36.215   8.853
 7663POPC   C1A35439  30.746  36.096   8.553
 7663POPC   D2A35440  30.709  36.119   8.253
 7663POPC   C3A35441  30.676  36.145   7.953
 7663POPC   C4A35442  30.672  36.121   7.653
 7663POPC   C1B35443  30.947  36.235   8.553
 7663POPC   C2B35444  30.868  36.218   8.253
 7663POPC   C3B35445  30.952  36.212   7.953
 7663POPC   C4B35446  30.938  36.285   7.653
 7664POPC   NC335447  17.549  26.088   9.453
 7664POPC   PO435448  17.468  25.997   9.153
 7664POPC   GL135449  17.492  26.081   8.853
 7664POPC   GL235450  17.433  26.026   8.853
 7664POPC   C1A35451  17.497  26.065   8.553
 7664POPC   D2A35452  17.527  26.056   8.253
 7664POPC   C3A35453  17.510  26.029   7.953
 7664POPC   C4A35454  17.475  26.074   7.653
 7664POPC   C1B35455  17.228  26.094   8.553
 7664POPC   C2B35456  17.311  26.096   8.253
 7664POPC   C3B35457  17.304  26.113   7.953
 7664POPC   C4B35458  17.253  26.077   7.653
 7665POPC   NC335459   4.303  40.051   9.453
 7665POPC   PO435460   4.309  39.967   9.153
 7665POPC   GL135461   4.291  39.985   8.853
 7665POPC   GL235462   4.401  39.974   8.853
 7665POPC   C1A35463   4.279  40.053   8.553
 7665POPC   D2A35464   4.273  40.046   8.253
 7665POPC   C3A35465   4.322  40.001   7.953
 7665POPC   C4A35466   4.281  39.986   7.653
 7665POPC   C1B35467   4.553  39.946   8.553
 7665POPC   C2B35468   4.542  39.979   8.253
 7665POPC   C3B35469   4.545  40.014   7.953
 7665POPC   C4B35470   4.526  40.021   7.653
 7666POPC   NC335471  31.471  26.809   9.453
 7666POPC   PO435472  31.428  26.826   9.153
 7666POPC   GL135473  31.448  26.842   8.853
 7666POPC   GL235474  31.517  26.775   8.853
 7666POPC   C1A35475  31.488  26.772   8.553
 7666POPC   D2A35476  31.485  26.848   8.253
 7666POPC   C3A35477  31.489  26.779   7.953
 7666POPC   C4A35478  31.513  26.801   7.653
 7666POPC   C1B35479  31.615  26.640   8.553
 7666POPC   C2B35480  31.701  26.628   8.253
 7666POPC   C3B35481  31.666  26.616   7.953
 7666POPC   C4B35482  31.696  26.670   7.653
 7667POPC   NC335483   8.997  19.873   9.453
 7667POPC   PO435484   9.017  19.853   9.153
 7667POPC   GL135485   8.965  19.855   8.853
 7667POPC   GL235486   9.082  19.862   8.853
 7667POPC   C1A35487   8.953  19.826   8.553
 7667POPC   D2A35488   8.960  19.882   8.253
 7667POPC   C3A35489   8.968  19.794   7.953
 7667POPC   C4A35490   8.967  19.852   7.653
 7667POPC   C1B35491   9.164  20.002   8.553
 7667POPC   C2B35492   9.218  19.982   8.253
 7667POPC   C3B35493   9.226  20.009   7.953
 7667POPC   C4B35494   9.231  20.002   7.653
 7668POPC   NC335495  17.550   2.007   9.453
 7668POPC   PO435496  17.544   2.011   9.153
 7668POPC   GL135497  17.497   2.017   8.853
 7668POPC   GL235498  17.598   2.084   8.853
 7668POPC   C1A35499  17.525   2.022   8.553
 7668POPC   D2A35500  17.470   1.970   8.253
 7668POPC   C3A35501  17.556   2.014   7.953
 7668POPC   C4A35502  17.471   1.947   7.653
 7668POPC   C1B35503  17.692   2.101   8.553
 7668POPC   C2B35504  17.734   2.181   8.253
 7668POPC   C3B35505  17.708   2.134   7.953
 7668POPC   C4B35506  17.682   2.166   7.653
 7669POPC   NC335507  43.100  18.246   9.453
 7669POPC   PO435508  43.132  18.255   9.153
 7669POPC   GL135509  43.094  18.317   8.853
 7669POPC   GL235510  43.137  18.151   8.853
 7669POPC   C1A35511  43.126  18.245   8.553
 7669POPC   D2A35512  43.126  18.261   8.253
 7669POPC   C3A35513  43.065  18.319   7.953
 7669POPC   C4A35514  43.124  18.275   7.653
 7669POPC   C1B35515  43.181  18.014   8.553
 7669POPC   C2B35516  43.237  18.081   8.253
 7669POPC   C3B35517  43.206  18.043   7.953
 7669POPC   C4B35518  43.229  18.059   7.653
 7670POPC   NC335519  30.706  39.228   9.453
 7670POPC   PO435520  30.649  39.239   9.153
 7670POPC   GL135521  30.694  39.244   8.853
 7670POPC   GL235522  30.580  39.214   8.853
 7670POPC   C1A35523  30.734  39.251   8.553
 7670POPC   D2A35524  30.722  39.265   8.253
 7670POPC   C3A35525  30.720  39.183   7.953
 7670POPC   C4A35526  30.735  39.246   7.653
 7670POPC   C1B35527  30.512  39.159   8.553
 7670POPC   C2B35528  30.443  39.139   8.253
 7670POPC   C3B35529  30.422  39.168   7.953
 7670POPC   C4B35530  30.461  39.162   7.653
 7671POPC   NC335531  16.716  37.727   9.453
 7671POPC   PO435532  16.724  37.729   9.153
 7671POPC   GL135533  16.725  37.709   8.853
 7671POPC   GL235534  16.652  37.713   8.853
 7671POPC   C1A35535  16.707  37.723   8.553
 7671POPC   D2A35536  16.716  37.656   8.253
 7671POPC   C3A35537  16.732  37.705   7.953
 7671POPC   C4A35538  16.769  37.722   7.653
 7671POPC   C1B35539  16.580  37.863   8.553
 7671POPC   C2B35540  16.524  37.893   8.253
 7671POPC   C3B35541  16.583  37.795   7.953
 7671POPC   C4B35542  16.509  37.851   7.653
 7672POPC   NC335543  35.345   1.948   9.453
 7672POPC   PO435544  35.335   2.031   9.153
 7672POPC   GL135545  35.392   1.993   8.853
 7672POPC   GL235546  35.476   2.107   8.853
 7672POPC   C1A35547  35.318   1.957   8.553
 7672POPC   D2A35548  35.387   1.980   8.253
 7672POPC   C3A35549  35.347   1.970   7.953
 7672POPC   C4A35550  35.326   1.969   7.653
 7672POPC   C1B35551  35.531   2.148   8.553
 7672POPC   C2B35552  35.569   2.104   8.253
 7672POPC   C3B35553  35.603   2.161   7.953
 7672POPC   C4B35554  35.607   2.092   7.653
 7673POPC   NC335555   2.802  43.911   9.453
 7673POPC   PO435556   2.775  43.896   9.153
 7673POPC   GL135557   2.799  43.885   8.853
 7673POPC   GL235558   2.647  43.807   8.853
 7673POPC   C1A35559   2.740  43.859   8.553
 7673POPC   D2A35560   2.739  43.914   8.253
 7673POPC   C3A35561   2.784  43.868   7.953
 7673POPC   C4A35562   2.748  43.860   7.653
 7673POPC   C1B35563   2.591  43.725   8.553
 7673POPC   C2B35564   2.575  43.641   8.253
 7673POPC   C3B35565   2.621  43.700   7.953
 7673POPC   C4B35566   2.635  43.641   7.653
 7674POPC   NC335567  12.806   5.070   9.453
 7674POPC   PO435568  12.818   5.044   9.153
 7674POPC   GL135569  12.843   5.136   8.853
 7674POPC   GL235570  12.698   5.153   8.853
 7674POPC   C1A35571  12.819   5.143   8.553
 7674POPC   D2A35572  12.870   5.087   8.253
 7674POPC   C3A35573  12.886   5.052   7.953
 7674POPC   C4A35574  12.880   5.105   7.653
 7674POPC   C1B35575  12.620   5.241   8.553
 7674POPC   C2B35576  12.631   5.207   8.253
 7674POPC   C3B35577  12.580   5.232   7.953
 7674POPC   C4B35578  12.598   5.235   7.653
 7675POPC   NC335579   6.599  43.933   9.453
 7675POPC   PO435580   6.598  43.906   9.153
 7675POPC   GL135581   6.607  43.901   8.853
 7675POPC   GL235582   6.740  43.820   8.853
 7675POPC   C1A35583   6.625  43.851   8.553
 7675POPC   D2A35584   6.672  43.899   8.253
 7675POPC   C3A35585   6.624  43.869   7.953
 7675POPC   C4A35586   6.630  43.854   7.653
 7675POPC   C1B35587   6.852  43.723   8.553
 7675POPC   C2B35588   6.819  43.734   8.253
 7675POPC   C3B35589   6.900  43.754   7.953
 7675POPC   C4B35590   6.860  43.766   7.653
 7676POPC   NC335591  40.793  24.474   9.453
 7676POPC   PO435592  40.780  24.510   9.153
 7676POPC   GL135593  40.812  24.475   8.853
 7676POPC   GL235594  40.652  24.525   8.853
 7676POPC   C1A35595  40.751  24.529   8.553
 7676POPC   D2A35596  40.827  24.496   8.253
 7676POPC   C3A35597  40.823  24.497   7.953
 7676POPC   C4A35598  40.757  24.471   7.653
 7676POPC   C1B35599  40.587  24.578   8.553
 7676POPC   C2B35600  40.559  24.585   8.253
 7676POPC   C3B35601  40.527  24.650   7.953
 7676POPC   C4B35602  40.519  24.634   7.653
 7677POPC   NC335603  15.935  33.037   9.453
 7677POPC   PO435604  15.912  33.048   9.153
 7677POPC   GL135605  15.958  32.995   8.853
 7677POPC   GL235606  15.936  33.144   8.853
 7677POPC   C1A35607  15.926  33.039   8.553
 7677POPC   D2A35608  15.914  32.981   8.253
 7677POPC   C3A35609  15.927  32.999   7.953
 7677POPC   C4A35610  15.967  33.029   7.653
 7677POPC   C1B35611  15.910  33.286   8.553
 7677POPC   C2B35612  15.851  33.300   8.253
 7677POPC   C3B35613  15.872  33.229   7.953
 7677POPC   C4B35614  15.872  33.275   7.653
 7678POPC   NC335615  41.531  20.636   9.453
 7678POPC   PO435616  41.558  20.625   9.153
 7678POPC   GL135617  41.593  20.646   8.853
 7678POPC   GL235618  41.625  20.687   8.853
 7678POPC   C1A35619  41.596  20.566   8.553
 7678POPC   D2A35620  41.577  20.571   8.253
 7678POPC   C3A35621  41.593  20.601   7.953
 7678POPC   C4A35622  41.566  20.648   7.653
 7678POPC   C1B35623  41.620  20.862   8.553
 7678POPC   C2B35624  41.613  20.899   8.253
 7678POPC   C3B35625  41.603  20.839   7.953
 7678POPC   C4B35626  41.666  20.884   7.653
 7679POPC   NC335627   0.484  16.749   9.453
 7679POPC   PO435628   0.409  16.718   9.153
 7679POPC   GL135629   0.473  16.701   8.853
 7679POPC   GL235630   0.377  16.701   8.853
 7679POPC   C1A35631   0.414  16.764   8.553
 7679POPC   D2A35632   0.393  16.743   8.253
 7679POPC   C3A35633   0.464  16.725   7.953
 7679POPC   C4A35634   0.470  16.709   7.653
 7679POPC   C1B35635   0.232  16.571   8.553
 7679POPC   C2B35636   0.183  16.590   8.253
 7679POPC   C3B35637   0.209  16.597   7.953
 7679POPC   C4B35638   0.250  16.624   7.653
 7680POPC   NC335639  33.759   5.893   9.453
 7680POPC   PO435640  33.791   5.835   9.153
 7680POPC   GL135641  33.790   5.831   8.853
 7680POPC   GL235642  33.710   5.912   8.853
 7680POPC   C1A35643  33.829   5.910   8.553
 7680POPC   D2A35644  33.803   5.839   8.253
 7680POPC   C3A35645  33.838   5.880   7.953
 7680POPC   C4A35646  33.791   5.820   7.653
 7680POPC   C1B35647  33.596   6.082   8.553
 7680POPC   C2B35648  33.567   6.065   8.253
 7680POPC   C3B35649  33.611   6.039   7.953
 7680POPC   C4B35650  33.581   6.020   7.653
 7681POPC   NC335651  29.183  38.479   9.453
 7681POPC   PO435652  29.189  38.481   9.153
 7681POPC   GL135653  29.107  38.503   8.853
 7681POPC   GL235654  29.202  38.305   8.853
 7681POPC   C1A35655  29.096  38.473   8.553
 7681POPC   D2A35656  29.137  38.418   8.253
 7681POPC   C3A35657  29.191  38.410   7.953
 7681POPC   C4A35658  29.160  38.483   7.653
 7681POPC   C1B35659  29.240  38.285   8.553
 7681POPC   C2B35660  29.325  38.255   8.253
 7681POPC   C3B35661  29.283  38.293   7.953
 7681POPC   C4B35662  29.274  38.234   7.653
 7682POPC   NC335663  10.489   1.186   9.453
 7682POPC   PO435664  10.480   1.205   9.153
 7682POPC   GL135665  10.524   1.234   8.853
 7682POPC   GL235666  10.542   1.132   8.853
 7682POPC   C1A35667  10.527   1.184   8.553
 7682POPC   D2A35668  10.500   1.258   8.253
 7682POPC   C3A35669  10.571   1.246   7.953
 7682POPC   C4A35670  10.515   1.172   7.653
 7682POPC   C1B35671  10.662   1.015   8.553
 7682POPC   C2B35672  10.655   0.994   8.253
 7682POPC   C3B35673  10.635   0.979   7.953
 7682POPC   C4B35674  10.638   1.046   7.653
 7683POPC   NC335675  11.261  14.406   9.453
 7683POPC   PO435676  11.316  14.399   9.153
 7683POPC   GL135677  11.291  14.362   8.853
 7683POPC   GL235678  11.337  14.518   8.853
 7683POPC   C1A35679  11.290  14.406   8.553
 7683POPC   D2A35680  11.347  14.416   8.253
 7683POPC   C3A35681  11.295  14.433   7.953
 7683POPC   C4A35682  11.321  14.378   7.653
 7683POPC   C1B35683  11.334  14.651   8.553
 7683POPC   C2B35684  11.356  14.646   8.253
 7683POPC   C3B35685  11.294  14.658   7.953
 7683POPC   C4B35686  11.308  14.675   7.653
 7684POPC   NC335687  41.552  41.533   9.453
 7684POPC   PO435688  41.514  41.589   9.153
 7684POPC   GL135689  41.583  41.518   8.853
 7684POPC   GL235690  41.636  41.656   8.853
 7684POPC   C1A35691  41.550  41.565   8.553
 7684POPC   D2A35692  41.510  41.585   8.253
 7684POPC   C3A35693  41.587  41.543   7.953
 7684POPC   C4A35694  41.605  41.524   7.653
 7684POPC   C1B35695  41.708  41.728   8.553
 7684POPC   C2B35696  41.703  41.735   8.253
 7684POPC   C3B35697  41.712  41.725   7.953
 7684POPC   C4B35698  41.715  41.748   7.653
 7685POPC   NC335699   2.805   4.278   9.453
 7685POPC   PO435700   2.720   4.316   9.153
 7685POPC   GL135701   2.732   4.325   8.853
 7685POPC   GL235702   2.759   4.214   8.853
 7685POPC   C1A35703   2.719   4.315   8.553
 7685POPC   D2A35704   2.791   4.344   8.253
 7685POPC   C3A35705   2.796   4.323   7.953
 7685POPC   C4A35706   2.742   4.290   7.653
 7685POPC   C1B35707   2.768   4.048   8.553
 7685POPC   C2B35708   2.726   4.032   8.253
 7685POPC   C3B35709   2.697   4.077   7.953
 7685POPC   C4B35710   2.720   4.054   7.653
 7686POPC   NC335711  10.531  43.159   9.453
 7686POPC   PO435712  10.558  43.061   9.153
 7686POPC   GL135713  10.530  43.079   8.853
 7686POPC   GL235714  10.466  43.060   8.853
 7686POPC   C1A35715  10.525  43.088   8.553
 7686POPC   D2A35716  10.534  43.126   8.253
 7686POPC   C3A35717  10.505  43.095   7.953
 7686POPC   C4A35718  10.536  43.073   7.653
 7686POPC   C1B35719  10.278  42.928   8.553
 7686POPC   C2B35720  10.336  42.995   8.253
 7686POPC   C3B35721  10.300  42.961   7.953
 7686POPC   C4B35722  10.347  42.979   7.653
 7687POPC   NC335723  35.393  18.320   9.453
 7687POPC   PO435724  35.308  18.267   9.153
 7687POPC   GL135725  35.323  18.317   8.853
 7687POPC   GL235726  35.277  18.133   8.853
 7687POPC   C1A35727  35.354  18.263   8.553
 7687POPC   D2A35728  35.334  18.328   8.253
 7687POPC   C3A35729  35.394  18.313   7.953
 7687POPC   C4A35730  35.358  18.237   7.653
 7687POPC   C1B35731  35.324  18.031   8.553
 7687POPC   C2B35732  35.274  18.002   8.253
 7687POPC   C3B35733  35.328  18.072   7.953
 7687POPC   C4B35734  35.288  18.020   7.653
 7688POPC   NC335735   2.748  19.037   9.453
 7688POPC   PO435736   2.789  19.039   9.153
 7688POPC   GL135737   2.798  19.024   8.853
 7688POPC   GL235738   2.606  18.993   8.853
 7688POPC   C1A35739   2.735  19.011   8.553
 7688POPC   D2A35740   2.750  19.063   8.253
 7688POPC   C3A35741   2.772  19.034   7.953
 7688POPC   C4A35742   2.733  19.089   7.653
 7688POPC   C1B35743   2.544  19.032   8.553
 7688POPC   C2B35744   2.532  19.034   8.253
 7688POPC   C3B35745   2.485  18.975   7.953
 7688POPC   C4B35746   2.482  19.025   7.653
 7689POPC   NC335747   7.394   8.155   9.453
 7689POPC   PO435748   7.388   8.234   9.153
 7689POPC   GL135749   7.372   8.229   8.853
 7689POPC   GL235750   7.520   8.088   8.853
 7689POPC   C1A35751   7.385   8.243   8.553
 7689POPC   D2A35752   7.436   8.218   8.253
 7689POPC   C3A35753   7.426   8.201   7.953
 7689POPC   C4A35754   7.414   8.184   7.653
 7689POPC   C1B35755   7.681   8.098   8.553
 7689POPC   C2B35756   7.593   8.047   8.253
 7689POPC   C3B35757   7.591   8.071   7.953
 7689POPC   C4B35758   7.617   8.067   7.653
 7690POPC   NC335759   0.469  23.707   9.453
 7690POPC   PO435760   0.438  23.668   9.153
 7690POPC   GL135761   0.421  23.670   8.853
 7690POPC   GL235762   0.493  23.578   8.853
 7690POPC   C1A35763   0.485  23.749   8.553
 7690POPC   D2A35764   0.439  23.756   8.253
 7690POPC   C3A35765   0.410  23.728   7.953
 7690POPC   C4A35766   0.399  23.732   7.653
 7690POPC   C1B35767   0.587  23.475   8.553
 7690POPC   C2B35768   0.557  23.539   8.253
 7690POPC   C3B35769   0.567  23.523   7.953
 7690POPC   C4B35770   0.631  23.510   7.653
 7691POPC   NC335771  29.906  43.102   9.453
 7691POPC   PO435772  29.899  43.153   9.153
 7691POPC   GL135773  29.901  43.126   8.853
 7691POPC   GL235774  29.996  43.184   8.853
 7691POPC   C1A35775  29.955  43.093   8.553
 7691POPC   D2A35776  29.937  43.130   8.253
 7691POPC   C3A35777  29.923  43.133   7.953
 7691POPC   C4A35778  29.920  43.159   7.653
 7691POPC   C1B35779  29.942  43.343   8.553
 7691POPC   C2B35780  29.936  43.375   8.253
 7691POPC   C3B35781  30.003  43.326   7.953
 7691POPC   C4B35782  29.939  43.398   7.653
 7692POPC   NC335783   2.739   8.967   9.453
 7692POPC   PO435784   2.781   8.947   9.153
 7692POPC   GL135785   2.793   8.996   8.853
 7692POPC   GL235786   2.803   8.890   8.853
 7692POPC   C1A35787   2.738   8.930   8.553
 7692POPC   D2A35788   2.728   8.960   8.253
 7692POPC   C3A35789   2.737   8.960   7.953
 7692POPC   C4A35790   2.765   8.936   7.653
 7692POPC   C1B35791   2.825   8.731   8.553
 7692POPC   C2B35792   2.873   8.732   8.253
 7692POPC   C3B35793   2.802   8.750   7.953
 7692POPC   C4B35794   2.870   8.690   7.653
 7693POPC   NC335795  11.345  24.506   9.453
 7693POPC   PO435796  11.343  24.454   9.153
 7693POPC   GL135797  11.272  24.536   8.853
 7693POPC   GL235798  11.277  24.652   8.853
 7693POPC   C1A35799  11.321  24.505   8.553
 7693POPC   D2A35800  11.340  24.458   8.253
 7693POPC   C3A35801  11.310  24.520   7.953
 7693POPC   C4A35802  11.315  24.536   7.653
 7693POPC   C1B35803  11.256  24.697   8.553
 7693POPC   C2B35804  11.255  24.758   8.253
 7693POPC   C3B35805  11.197  24.763   7.953
 7693POPC   C4B35806  11.204  24.699   7.653
 7694POPC   NC335807  10.481  33.009   9.453
 7694POPC   PO435808  10.556  33.031   9.153
 7694POPC   GL135809  10.540  33.042   8.853
 7694POPC   GL235810  10.660  33.006   8.853
 7694POPC   C1A35811  10.495  33.036   8.553
 7694POPC   D2A35812  10.539  33.040   8.253
 7694POPC   C3A35813  10.503  33.042   7.953
 7694POPC   C4A35814  10.525  32.988   7.653
 7694POPC   C1B35815  10.816  33.008   8.553
 7694POPC   C2B35816  10.723  32.969   8.253
 7694POPC   C3B35817  10.727  33.014   7.953
 7694POPC   C4B35818  10.723  33.024   7.653
 7695POPC   NC335819  40.044   5.915   9.453
 7695POPC   PO435820  40.011   5.867   9.153
 7695POPC   GL135821  39.974   5.891   8.853
 7695POPC   GL235822  40.035   6.029   8.853
 7695POPC   C1A35823  39.960   5.915   8.553
 7695POPC   D2A35824  39.985   5.849   8.253
 7695POPC   C3A35825  39.990   5.839   7.953
 7695POPC   C4A35826  39.965   5.887   7.653
 7695POPC   C1B35827  40.007   6.142   8.553
 7695POPC   C2B35828  39.984   6.136   8.253
 7695POPC   C3B35829  39.996   6.101   7.953
 7695POPC   C4B35830  40.014   6.157   7.653
 7696POPC   NC335831   9.762  15.211   9.453
 7696POPC   PO435832   9.756  15.217   9.153
 7696POPC   GL135833   9.722  15.179   8.853
 7696POPC   GL235834   9.708  15.093   8.853
 7696POPC   C1A35835   9.783  15.196   8.553
 7696POPC   D2A35836   9.772  15.221   8.253
 7696POPC   C3A35837   9.771  15.208   7.953
 7696POPC   C4A35838   9.781  15.209   7.653
 7696POPC   C1B35839   9.657  15.005   8.553
 7696POPC   C2B35840   9.600  14.963   8.253
 7696POPC   C3B35841   9.612  15.014   7.953
 7696POPC   C4B35842   9.596  14.940   7.653
 7697POPC   NC335843  38.436  15.210   9.453
 7697POPC   PO435844  38.441  15.214   9.153
 7697POPC   GL135845  38.419  15.226   8.853
 7697POPC   GL235846  38.524  15.019   8.853
 7697POPC   C1A35847  38.458  15.160   8.553
 7697POPC   D2A35848  38.423  15.218   8.253
 7697POPC   C3A35849  38.440  15.220   7.953
 7697POPC   C4A35850  38.483  15.172   7.653
 7697POPC   C1B35851  38.532  14.922   8.553
 7697POPC   C2B35852  38.541  14.921   8.253
 7697POPC   C3B35853  38.569  14.979   7.953
 7697POPC   C4B35854  38.572  14.976   7.653
 7698POPC   NC335855  22.183  13.592   9.453
 7698POPC   PO435856  22.117  13.636   9.153
 7698POPC   GL135857  22.188  13.591   8.853
 7698POPC   GL235858  22.193  13.713   8.853
 7698POPC   C1A35859  22.155  13.581   8.553
 7698POPC   D2A35860  22.211  13.617   8.253
 7698POPC   C3A35861  22.190  13.668   7.953
 7698POPC   C4A35862  22.132  13.596   7.653
 7698POPC   C1B35863  22.145  13.906   8.553
 7698POPC   C2B35864  22.119  13.885   8.253
 7698POPC   C3B35865  22.128  13.894   7.953
 7698POPC   C4B35866  22.149  13.917   7.653
 7699POPC   NC335867  29.169  32.262   9.453
 7699POPC   PO435868  29.099  32.208   9.153
 7699POPC   GL135869  29.158  32.275   8.853
 7699POPC   GL235870  29.137  32.085   8.853
 7699POPC   C1A35871  29.118  32.280   8.553
 7699POPC   D2A35872  29.189  32.224   8.253
 7699POPC   C3A35873  29.183  32.250   7.953
 7699POPC   C4A35874  29.156  32.211   7.653
 7699POPC   C1B35875  29.135  32.001   8.553
 7699POPC   C2B35876  29.103  31.966   8.253
 7699POPC   C3B35877  29.134  32.034   7.953
 7699POPC   C4B35878  29.137  32.010   7.653
 7700POPC   NC335879  29.957  14.418   9.453
 7700POPC   PO435880  29.905  14.442   9.153
 7700POPC   GL135881  29.902  14.366   8.853
 7700POPC   GL235882  29.837  14.267   8.853
 7700POPC   C1A35883  29.906  14.385   8.553
 7700POPC   D2A35884  29.928  14.439   8.253
 7700POPC   C3A35885  29.875  14.358   7.953
 7700POPC   C4A35886  29.887  14.414   7.653
 7700POPC   C1B35887  29.786  14.159   8.553
 7700POPC   C2B35888  29.828  14.144   8.253
 7700POPC   C3B35889  29.791  14.174   7.953
 7700POPC   C4B35890  29.801  14.162   7.653
 7701POPC   NC335891  36.912   6.599   9.453
 7701POPC   PO435892  36.916   6.687   9.153
 7701POPC   GL135893  36.867   6.658   8.853
 7701POPC   GL235894  37.074   6.656   8.853
 7701POPC   C1A35895  36.934   6.670   8.553
 7701POPC   D2A35896  36.905   6.618   8.253
 7701POPC   C3A35897  36.922   6.688   7.953
 7701POPC   C4A35898  36.934   6.614   7.653
 7701POPC   C1B35899  37.104   6.656   8.553
 7701POPC   C2B35900  37.203   6.677   8.253
 7701POPC   C3B35901  37.186   6.648   7.953
 7701POPC   C4B35902  37.147   6.621   7.653
 7702POPC   NC335903  36.885  25.272   9.453
 7702POPC   PO435904  36.946  25.249   9.153
 7702POPC   GL135905  36.941  25.301   8.853
 7702POPC   GL235906  36.774  25.193   8.853
 7702POPC   C1A35907  36.947  25.224   8.553
 7702POPC   D2A35908  36.919  25.230   8.253
 7702POPC   C3A35909  36.886  25.297   7.953
 7702POPC   C4A35910  36.856  25.276   7.653
 7702POPC   C1B35911  36.720  25.140   8.553
 7702POPC   C2B35912  36.639  25.162   8.253
 7702POPC   C3B35913  36.679  25.196   7.953
 7702POPC   C4B35914  36.718  25.144   7.653
 7703POPC   NC335915  10.485  15.186   9.453
 7703POPC   PO435916  10.574  15.195   9.153
 7703POPC   GL135917  10.569  15.227   8.853
 7703POPC   GL235918  10.562  15.118   8.853
 7703POPC   C1A35919  10.537  15.164   8.553
 7703POPC   D2A35920  10.481  15.215   8.253
 7703POPC   C3A35921  10.555  15.137   7.953
 7703POPC   C4A35922  10.517  15.220   7.653
 7703POPC   C1B35923  10.640  15.002   8.553
 7703POPC   C2B35924  10.723  14.979   8.253
 7703POPC   C3B35925  10.689  14.990   7.953
 7703POPC   C4B35926  10.640  14.991   7.653
 7704POPC   NC335927  40.754  12.059   9.453
 7704POPC   PO435928  40.764  12.031   9.153
 7704POPC   GL135929  40.764  12.077   8.853
 7704POPC   GL235930  40.731  12.162   8.853
 7704POPC   C1A35931  40.790  12.062   8.553
 7704POPC   D2A35932  40.812  12.032   8.253
 7704POPC   C3A35933  40.765  12.067   7.953
 7704POPC   C4A35934  40.794  12.056   7.653
 7704POPC   C1B35935  40.673  12.294   8.553
 7704POPC   C2B35936  40.644  12.226   8.253
 7704POPC   C3B35937  40.615  12.299   7.953
 7704POPC   C4B35938  40.596  12.306   7.653
 7705POPC   NC335939  43.075   8.215   9.453
 7705POPC   PO435940  43.150   8.226   9.153
 7705POPC   GL135941  43.123   8.190   8.853
 7705POPC   GL235942  43.202   8.138   8.853
 7705POPC   C1A35943  43.135   8.233   8.553
 7705POPC   D2A35944  43.113   8.181   8.253
 7705POPC   C3A35945  43.073   8.243   7.953
 7705POPC   C4A35946  43.130   8.214   7.653
 7705POPC   C1B35947  43.328   8.152   8.553
 7705POPC   C2B35948  43.367   8.186   8.253
 7705POPC   C3B35949  43.355   8.156   7.953
 7705POPC   C4B35950  43.344   8.201   7.653
 7706POPC   NC335951  16.776  20.596   9.453
 7706POPC   PO435952  16.722  20.632   9.153
 7706POPC   GL135953  16.709  20.562   8.853
 7706POPC   GL235954  16.797  20.701   8.853
 7706POPC   C1A35955  16.763  20.631   8.553
 7706POPC   D2A35956  16.762  20.586   8.253
 7706POPC   C3A35957  16.774  20.636   7.953
 7706POPC   C4A35958  16.738  20.646   7.653
 7706POPC   C1B35959  16.761  20.858   8.553
 7706POPC   C2B35960  16.811  20.895   8.253
 7706POPC   C3B35961  16.743  20.862   7.953
 7706POPC   C4B35962  16.774  20.882   7.653
 7707POPC   NC335963   2.746  36.168   9.453
 7707POPC   PO435964   2.799  36.112   9.153
 7707POPC   GL135965   2.766  36.148   8.853
 7707POPC   GL235966   2.866  36.171   8.853
 7707POPC   C1A35967   2.734  36.082   8.553
 7707POPC   D2A35968   2.723  36.131   8.253
 7707POPC   C3A35969   2.776  36.152   7.953
 7707POPC   C4A35970   2.780  36.145   7.653
 7707POPC   C1B35971   2.996  36.195   8.553
 7707POPC   C2B35972   3.058  36.119   8.253
 7707POPC   C3B35973   3.021  36.162   7.953
 7707POPC   C4B35974   3.027  36.113   7.653
 7708POPC   NC335975  29.898   8.998   9.453
 7708POPC   PO435976  29.890   9.003   9.153
 7708POPC   GL135977  29.960   9.010   8.853
 7708POPC   GL235978  29.862   8.887   8.853
 7708POPC   C1A35979  29.888   8.991   8.553
 7708POPC   D2A35980  29.930   8.985   8.253
 7708POPC   C3A35981  29.970   8.985   7.953
 7708POPC   C4A35982  29.905   8.970   7.653
 7708POPC   C1B35983  29.824   8.773   8.553
 7708POPC   C2B35984  29.810   8.770   8.253
 7708POPC   C3B35985  29.790   8.773   7.953
 7708POPC   C4B35986  29.828   8.730   7.653
 7709POPC   NC335987   5.051  33.836   9.453
 7709POPC   PO435988   5.131  33.766   9.153
 7709POPC   GL135989   5.064  33.842   8.853
 7709POPC   GL235990   5.211  33.748   8.853
 7709POPC   C1A35991   5.065  33.826   8.553
 7709POPC   D2A35992   5.061  33.758   8.253
 7709POPC   C3A35993   5.090  33.763   7.953
 7709POPC   C4A35994   5.141  33.821   7.653
 7709POPC   C1B35995   5.245  33.667   8.553
 7709POPC   C2B35996   5.262  33.635   8.253
 7709POPC   C3B35997   5.303  33.607   7.953
 7709POPC   C4B35998   5.300  33.608   7.653
 7710POPC   NC335999  38.447  22.176   9.453
 7710POPC   PO436000  38.499  22.136   9.153
 7710POPC   GL136001  38.451  22.173   8.853
 7710POPC   GL236002  38.312  22.113   8.853
 7710POPC   C1A36003  38.420  22.115   8.553
 7710POPC   D2A36004  38.482  22.154   8.253
 7710POPC   C3A36005  38.412  22.172   7.953
 7710POPC   C4A36006  38.499  22.113   7.653
 7710POPC   C1B36007  38.234  22.150   8.553
 7710POPC   C2B36008  38.163  22.106   8.253
 7710POPC   C3B36009  38.208  22.175   7.953
 7710POPC   C4B36010  38.219  22.122   7.653
 7711POPC   NC336011  32.288  14.382   9.453
 7711POPC   PO436012  32.293  14.387   9.153
 7711POPC   GL136013  32.250  14.446   8.853
 7711POPC   GL236014  32.139  14.410   8.853
 7711POPC   C1A36015  32.218  14.406   8.553
 7711POPC   D2A36016  32.241  14.380   8.253
 7711POPC   C3A36017  32.244  14.371   7.953
 7711POPC   C4A36018  32.280  14.406   7.653
 7711POPC   C1B36019  32.016  14.435   8.553
 7711POPC   C2B36020  32.038  14.505   8.253
 7711POPC   C3B36021  31.983  14.508   7.953
 7711POPC   C4B36022  31.981  14.422   7.653
 7712POPC   NC336023  15.936   1.186   9.453
 7712POPC   PO436024  15.918   1.178   9.153
 7712POPC   GL136025  15.981   1.261   8.853
 7712POPC   GL236026  15.971   1.120   8.853
 7712POPC   C1A36027  15.921   1.164   8.553
 7712POPC   D2A36028  15.923   1.186   8.253
 7712POPC   C3A36029  15.914   1.185   7.953
 7712POPC   C4A36030  15.974   1.177   7.653
 7712POPC   C1B36031  16.015   0.992   8.553
 7712POPC   C2B36032  15.997   0.919   8.253
 7712POPC   C3B36033  15.967   0.921   7.953
 7712POPC   C4B36034  16.010   0.975   7.653
 7713POPC   NC336035  26.778   2.010   9.453
 7713POPC   PO436036  26.842   2.008   9.153
 7713POPC   GL136037  26.845   2.038   8.853
 7713POPC   GL236038  26.814   1.827   8.853
 7713POPC   C1A36039  26.779   1.980   8.553
 7713POPC   D2A36040  26.805   2.008   8.253
 7713POPC   C3A36041  26.785   1.967   7.953
 7713POPC   C4A36042  26.813   1.949   7.653
 7713POPC   C1B36043  26.858   1.804   8.553
 7713POPC   C2B36044  26.883   1.709   8.253
 7713POPC   C3B36045  26.948   1.757   7.953
 7713POPC   C4B36046  26.917   1.767   7.653
 7714POPC   NC336047  22.983  15.915   9.453
 7714POPC   PO436048  22.912  15.993   9.153
 7714POPC   GL136049  22.897  15.936   8.853
 7714POPC   GL236050  22.938  15.885   8.853
 7714POPC   C1A36051  22.934  15.961   8.553
 7714POPC   D2A36052  22.976  15.915   8.253
 7714POPC   C3A36053  22.910  15.961   7.953
 7714POPC   C4A36054  22.893  15.971   7.653
 7714POPC   C1B36055  23.009  15.668   8.553
 7714POPC   C2B36056  22.998  15.697   8.253
 7714POPC   C3B36057  22.985  15.710   7.953
 7714POPC   C4B36058  22.989  15.713   7.653
 7715POPC   NC336059  33.799   6.643   9.453
 7715POPC   PO436060  33.837   6.659   9.153
 7715POPC   GL136061  33.828   6.680   8.853
 7715POPC   GL236062  33.904   6.637   8.853
 7715POPC   C1A36063  33.755   6.604   8.553
 7715POPC   D2A36064  33.764   6.616   8.253
 7715POPC   C3A36065  33.755   6.677   7.953
 7715POPC   C4A36066  33.783   6.641   7.653
 7715POPC   C1B36067  34.079   6.626   8.553
 7715POPC   C2B36068  34.092   6.624   8.253
 7715POPC   C3B36069  34.034   6.643   7.953
 7715POPC   C4B36070  34.087   6.657   7.653
 7716POPC   NC336071  30.649  42.319   9.453
 7716POPC   PO436072  30.670  42.321   9.153
 7716POPC   GL136073  30.739  42.366   8.853
 7716POPC   GL236074  30.629  42.296   8.853
 7716POPC   C1A36075  30.664  42.373   8.553
 7716POPC   D2A36076  30.709  42.329   8.253
 7716POPC   C3A36077  30.704  42.383   7.953
 7716POPC   C4A36078  30.731  42.380   7.653
 7716POPC   C1B36079  30.512  42.172   8.553
 7716POPC   C2B36080  30.510  42.206   8.253
 7716POPC   C3B36081  30.526  42.129   7.953
 7716POPC   C4B36082  30.478  42.127   7.653
 7717POPC   NC336083  19.019  27.602   9.453
 7717POPC   PO436084  19.079  27.552   9.153
 7717POPC   GL136085  19.095  27.601   8.853
 7717POPC   GL236086  18.952  27.556   8.853
 7717POPC   C1A36087  19.022  27.609   8.553
 7717POPC   D2A36088  19.085  27.591   8.253
 7717POPC   C3A36089  19.013  27.594   7.953
 7717POPC   C4A36090  19.057  27.625   7.653
 7717POPC   C1B36091  18.858  27.572   8.553
 7717POPC   C2B36092  18.761  27.526   8.253
 7717POPC   C3B36093  18.855  27.556   7.953
 7717POPC   C4B36094  18.806  27.530   7.653
 7718POPC   NC336095  27.544   2.720   9.453
 7718POPC   PO436096  27.625   2.734   9.153
 7718POPC   GL136097  27.619   2.733   8.853
 7718POPC   GL236098  27.555   2.909   8.853
 7718POPC   C1A36099  27.546   2.731   8.553
 7718POPC   D2A36100  27.552   2.748   8.253
 7718POPC   C3A36101  27.590   2.760   7.953
 7718POPC   C4A36102  27.561   2.797   7.653
 7718POPC   C1B36103  27.491   2.966   8.553
 7718POPC   C2B36104  27.440   3.000   8.253
 7718POPC   C3B36105  27.487   3.001   7.953
 7718POPC   C4B36106  27.450   3.039   7.653
 7719POPC   NC336107  39.238  44.666   9.453
 7719POPC   PO436108  39.254  44.686   9.153
 7719POPC   GL136109  39.264  44.684   8.853
 7719POPC   GL236110  39.318  44.606   8.853
 7719POPC   C1A36111  39.196  44.633   8.553
 7719POPC   D2A36112  39.279  44.641   8.253
 7719POPC   C3A36113  39.197  44.640   7.953
 7719POPC   C4A36114  39.264  44.629   7.653
 7719POPC   C1B36115  39.475  44.492   8.553
 7719POPC   C2B36116  39.444  44.560   8.253
 7719POPC   C3B36117  39.456  44.519   7.953
 7719POPC   C4B36118  39.411  44.511   7.653
 7720POPC   NC336119  16.741  43.146   9.453
 7720POPC   PO436120  16.731  43.136   9.153
 7720POPC   GL136121  16.706  43.099   8.853
 7720POPC   GL236122  16.792  43.015   8.853
 7720POPC   C1A36123  16.707  43.061   8.553
 7720POPC   D2A36124  16.777  43.148   8.253
 7720POPC   C3A36125  16.756  43.147   7.953
 7720POPC   C4A36126  16.719  43.099   7.653
 7720POPC   C1B36127  16.966  43.002   8.553
 7720POPC   C2B36128  16.970  43.000   8.253
 7720POPC   C3B36129  16.981  42.937   7.953
 7720POPC   C4B36130  16.904  43.015   7.653
 7721POPC   NC336131   4.351  20.650   9.453
 7721POPC   PO436132   4.344  20.601   9.153
 7721POPC   GL136133   4.280  20.605   8.853
 7721POPC   GL236134   4.265  20.731   8.853
 7721POPC   C1A36135   4.310  20.642   8.553
 7721POPC   D2A36136   4.283  20.614   8.253
 7721POPC   C3A36137   4.363  20.614   7.953
 7721POPC   C4A36138   4.355  20.583   7.653
 7721POPC   C1B36139   4.155  20.774   8.553
 7721POPC   C2B36140   4.169  20.854   8.253
 7721POPC   C3B36141   4.139  20.792   7.953
 7721POPC   C4B36142   4.187  20.863   7.653
 7722POPC   NC336143  39.263  36.896   9.453
 7722POPC   PO436144  39.232  36.930   9.153
 7722POPC   GL136145  39.229  36.922   8.853
 7722POPC   GL236146  39.316  37.014   8.853
 7722POPC   C1A36147  39.245  36.932   8.553
 7722POPC   D2A36148  39.273  36.870   8.253
 7722POPC   C3A36149  39.242  36.922   7.953
 7722POPC   C4A36150  39.229  36.951   7.653
 7722POPC   C1B36151  39.411  37.098   8.553
 7722POPC   C2B36152  39.461  37.107   8.253
 7722POPC   C3B36153  39.460  37.114   7.953
 7722POPC   C4B36154  39.371  37.075   7.653
 7723POPC   NC336155  34.568  29.133   9.453
 7723POPC   PO436156  34.555  29.148   9.153
 7723POPC   GL136157  34.609  29.113   8.853
 7723POPC   GL236158  34.501  28.999   8.853
 7723POPC   C1A36159  34.570  29.118   8.553
 7723POPC   D2A36160  34.569  29.183   8.253
 7723POPC   C3A36161  34.567  29.129   7.953
 7723POPC   C4A36162  34.552  29.114   7.653
 7723POPC   C1B36163  34.505  28.900   8.553
 7723POPC   C2B36164  34.472  28.875   8.253
 7723POPC   C3B36165  34.485  28.903   7.953
 7723POPC   C4B36166  34.502  28.873   7.653
 7724POPC   NC336167  35.313  15.990   9.453
 7724POPC   PO436168  35.356  16.001   9.153
 7724POPC   GL136169  35.312  15.994   8.853
 7724POPC   GL236170  35.473  15.918   8.853
 7724POPC   C1A36171  35.351  15.919   8.553
 7724POPC   D2A36172  35.371  15.941   8.253
 7724POPC   C3A36173  35.308  15.908   7.953
 7724POPC   C4A36174  35.325  15.974   7.653
 7724POPC   C1B36175  35.556  15.813   8.553
 7724POPC   C2B36176  35.571  15.772   8.253
 7724POPC   C3B36177  35.533  15.781   7.953
 7724POPC   C4B36178  35.579  15.789   7.653
 7725POPC   NC336179   5.115  25.994   9.453
 7725POPC   PO436180   5.081  26.037   9.153
 7725POPC   GL136181   5.045  26.060   8.853
 7725POPC   GL236182   5.234  26.071   8.853
 7725POPC   C1A36183   5.119  26.005   8.553
 7725POPC   D2A36184   5.091  26.006   8.253
 7725POPC   C3A36185   5.136  26.009   7.953
 7725POPC   C4A36186   5.086  26.087   7.653
 7725POPC   C1B36187   5.301  26.151   8.553
 7725POPC   C2B36188   5.341  26.113   8.253
 7725POPC   C3B36189   5.315  26.176   7.953
 7725POPC   C4B36190   5.350  26.173   7.653
 7726POPC   NC336191  27.639   7.439   9.453
 7726POPC   PO436192  27.642   7.417   9.153
 7726POPC   GL136193  27.590   7.398   8.853
 7726POPC   GL236194  27.630   7.553   8.853
 7726POPC   C1A36195  27.583   7.378   8.553
 7726POPC   D2A36196  27.561   7.451   8.253
 7726POPC   C3A36197  27.550   7.429   7.953
 7726POPC   C4A36198  27.611   7.393   7.653
 7726POPC   C1B36199  27.743   7.574   8.553
 7726POPC   C2B36200  27.804   7.632   8.253
 7726POPC   C3B36201  27.730   7.615   7.953
 7726POPC   C4B36202  27.793   7.634   7.653
 7727POPC   NC336203   3.582  36.175   9.453
 7727POPC   PO436204   3.547  36.160   9.153
 7727POPC   GL136205   3.503  36.126   8.853
 7727POPC   GL236206   3.477  36.063   8.853
 7727POPC   C1A36207   3.528  36.097   8.553
 7727POPC   D2A36208   3.573  36.093   8.253
 7727POPC   C3A36209   3.531  36.129   7.953
 7727POPC   C4A36210   3.574  36.115   7.653
 7727POPC   C1B36211   3.306  36.049   8.553
 7727POPC   C2B36212   3.328  36.056   8.253
 7727POPC   C3B36213   3.273  36.026   7.953
 7727POPC   C4B36214   3.350  35.987   7.653
 7728POPC   NC336215  36.114  12.073   9.453
 7728POPC   PO436216  36.106  12.110   9.153
 7728POPC   GL136217  36.079  12.038   8.853
 7728POPC   GL236218  36.072  11.933   8.853
 7728POPC   C1A36219  36.160  12.072   8.553
 7728POPC   D2A36220  36.148  12.067   8.253
 7728POPC   C3A36221  36.094  12.113   7.953
 7728POPC   C4A36222  36.102  12.100   7.653
 7728POPC   C1B36223  36.009  11.836   8.553
 7728POPC   C2B36224  35.982  11.894   8.253
 7728POPC   C3B36225  35.957  11.902   7.953
 7728POPC   C4B36226  35.988  11.913   7.653
 7729POPC   NC336227  32.202   4.351   9.453
 7729POPC   PO436228  32.263   4.306   9.153
 7729POPC   GL136229  32.216   4.270   8.853
 7729POPC   GL236230  32.134   4.436   8.853
 7729POPC   C1A36231  32.285   4.352   8.553
 7729POPC   D2A36232  32.208   4.272   8.253
 7729POPC   C3A36233  32.283   4.304   7.953
 7729POPC   C4A36234  32.249   4.366   7.653
 7729POPC   C1B36235  32.016   4.511   8.553
 7729POPC   C2B36236  32.044   4.470   8.253
 7729POPC   C3B36237  32.024   4.458   7.953
 7729POPC   C4B36238  32.071   4.466   7.653
 7730POPC   NC336239  19.849   4.307   9.453
 7730POPC   PO436240  19.855   4.292   9.153
 7730POPC   GL136241  19.802   4.305   8.853
 7730POPC   GL236242  19.720   4.303   8.853
 7730POPC   C1A36243  19.867   4.327   8.553
 7730POPC   D2A36244  19.797   4.344   8.253
 7730POPC   C3A36245  19.852   4.351   7.953
 7730POPC   C4A36246  19.799   4.361   7.653
 7730POPC   C1B36247  19.571   4.422   8.553
 7730POPC   C2B36248  19.632   4.374   8.253
 7730POPC   C3B36249  19.642   4.345   7.953
 7730POPC   C4B36250  19.562   4.355   7.653
 7731POPC   NC336251   1.941   8.933   9.453
 7731POPC   PO436252   1.957   8.943   9.153
 7731POPC   GL136253   1.990   8.941   8.853
 7731POPC   GL236254   2.075   8.906   8.853
 7731POPC   C1A36255   1.943   8.978   8.553
 7731POPC   D2A36256   1.956   8.993   8.253
 7731POPC   C3A36257   1.995   9.019   7.953
 7731POPC   C4A36258   2.024   8.986   7.653
 7731POPC   C1B36259   2.180   8.806   8.553
 7731POPC   C2B36260   2.103   8.769   8.253
 7731POPC   C3B36261   2.110   8.716   7.953
 7731POPC   C4B36262   2.141   8.759   7.653
 7732POPC   NC336263  21.430  43.136   9.453
 7732POPC   PO436264  21.388  43.076   9.153
 7732POPC   GL136265  21.401  43.110   8.853
 7732POPC   GL236266  21.462  43.221   8.853
 7732POPC   C1A36267  21.421  43.106   8.553
 7732POPC   D2A36268  21.399  43.127   8.253
 7732POPC   C3A36269  21.360  43.140   7.953
 7732POPC   C4A36270  21.356  43.079   7.653
 7732POPC   C1B36271  21.595  43.281   8.553
 7732POPC   C2B36272  21.573  43.280   8.253
 7732POPC   C3B36273  21.568  43.278   7.953
 7732POPC   C4B36274  21.561  43.279   7.653
 7733POPC   NC336275  11.276   5.842   9.453
 7733POPC   PO436276  11.325   5.863   9.153
 7733POPC   GL136277  11.331   5.889   8.853
 7733POPC   GL236278  11.339   5.959   8.853
 7733POPC   C1A36279  11.322   5.821   8.553
 7733POPC   D2A36280  11.287   5.890   8.253
 7733POPC   C3A36281  11.305   5.885   7.953
 7733POPC   C4A36282  11.338   5.873   7.653
 7733POPC   C1B36283  11.342   6.084   8.553
 7733POPC   C2B36284  11.369   6.103   8.253
 7733POPC   C3B36285  11.389   6.121   7.953
 7733POPC   C4B36286  11.374   6.122   7.653
 7734POPC   NC336287  33.781  36.141   9.453
 7734POPC   PO436288  33.805  36.140   9.153
 7734POPC   GL136289  33.846  36.145   8.853
 7734POPC   GL236290  33.913  36.019   8.853
 7734POPC   C1A36291  33.771  36.146   8.553
 7734POPC   D2A36292  33.829  36.128   8.253
 7734POPC   C3A36293  33.777  36.099   7.953
 7734POPC   C4A36294  33.845  36.106   7.653
 7734POPC   C1B36295  33.908  35.929   8.553
 7734POPC   C2B36296  33.928  35.881   8.253
 7734POPC   C3B36297  33.962  35.892   7.953
 7734POPC   C4B36298  33.900  35.917   7.653
 7735POPC   NC336299  43.875  39.218   9.453
 7735POPC   PO436300  43.855  39.209   9.153
 7735POPC   GL136301  43.916  39.197   8.853
 7735POPC   GL236302  43.981  39.363   8.853
 7735POPC   C1A36303  43.854  39.232   8.553
 7735POPC   D2A36304  43.875  39.266   8.253
 7735POPC   C3A36305  43.934  39.194   7.953
 7735POPC   C4A36306  43.896  39.208   7.653
 7735POPC   C1B36307  44.050  39.407   8.553
 7735POPC   C2B36308  43.996  39.416   8.253
 7735POPC   C3B36309  44.019  39.471   7.953
 7735POPC   C4B36310  44.032  39.454   7.653
 7736POPC   NC336311  30.731   8.188   9.453
 7736POPC   PO436312  30.651   8.197   9.153
 7736POPC   GL136313  30.667   8.218   8.853
 7736POPC   GL236314  30.638   8.234   8.853
 7736POPC   C1A36315  30.744   8.207   8.553
 7736POPC   D2A36316  30.665   8.212   8.253
 7736POPC   C3A36317  30.745   8.199   7.953
 7736POPC   C4A36318  30.734   8.180   7.653
 7736POPC   C1B36319  30.467   8.360   8.553
 7736POPC   C2B36320  30.509   8.347   8.253
 7736POPC   C3B36321  30.475   8.310   7.953
 7736POPC   C4B36322  30.492   8.279   7.653
 7737POPC   NC336323  32.253   6.596   9.453
 7737POPC   PO436324  32.215   6.645   9.153
 7737POPC   GL136325  32.272   6.654   8.853
 7737POPC   GL236326  32.261   6.538   8.853
 7737POPC   C1A36327  32.297   6.645   8.553
 7737POPC   D2A36328  32.220   6.601   8.253
 7737POPC   C3A36329  32.257   6.630   7.953
 7737POPC   C4A36330  32.284   6.694   7.653
 7737POPC   C1B36331  32.206   6.376   8.553
 7737POPC   C2B36332  32.256   6.433   8.253
 7737POPC   C3B36333  32.251   6.412   7.953
 7737POPC   C4B36334  32.210   6.379   7.653
 7738POPC   NC336335  31.438  30.689   9.453
 7738POPC   PO436336  31.514  30.702   9.153
 7738POPC   GL136337  31.426  30.697   8.853
 7738POPC   GL236338  31.542  30.630   8.853
 7738POPC   C1A36339  31.451  30.676   8.553
 7738POPC   D2A36340  31.480  30.686   8.253
 7738POPC   C3A36341  31.460  30.744   7.953
 7738POPC   C4A36342  31.444  30.713   7.653
 7738POPC   C1B36343  31.732  30.598   8.553
 7738POPC   C2B36344  31.657  30.583   8.253
 7738POPC   C3B36345  31.740  30.631   7.953
 7738POPC   C4B36346  31.701  30.580   7.653
 7739POPC   NC336347   1.975  43.871   9.453
 7739POPC   PO436348   2.037  43.900   9.153
 7739POPC   GL136349   2.020  43.847   8.853
 7739POPC   GL236350   2.138  43.920   8.853
 7739POPC   C1A36351   1.986  43.867   8.553
 7739POPC   D2A36352   1.957  43.880   8.253
 7739POPC   C3A36353   2.037  43.927   7.953
 7739POPC   C4A36354   2.024  43.864   7.653
 7739POPC   C1B36355   2.271  43.950   8.553
 7739POPC   C2B36356   2.257  43.959   8.253
 7739POPC   C3B36357   2.227  43.914   7.953
 7739POPC   C4B36358   2.193  43.957   7.653
 7740POPC   NC336359  42.285  34.607   9.453
 7740POPC   PO436360  42.319  34.537   9.153
 7740POPC   GL136361  42.375  34.608   8.853
 7740POPC   GL236362  42.188  34.486   8.853
 7740POPC   C1A36363  42.324  34.598   8.553
 7740POPC   D2A36364  42.297  34.529   8.253
 7740POPC   C3A36365  42.382  34.618   7.953
 7740POPC   C4A36366  42.365  34.558   7.653
 7740POPC   C1B36367  42.117  34.530   8.553
 7740POPC   C2B36368  42.143  34.471   8.253
 7740POPC   C3B36369  42.076  34.501   7.953
 7740POPC   C4B36370  42.142  34.497   7.653
 7741POPC   NC336371  28.400  16.727   9.453
 7741POPC   PO436372  28.342  16.753   9.153
 7741POPC   GL136373  28.380  16.762   8.853
 7741POPC   GL236374  28.456  16.847   8.853
 7741POPC   C1A36375  28.336  16.754   8.553
 7741POPC   D2A36376  28.331  16.703   8.253
 7741POPC   C3A36377  28.407  16.772   7.953
 7741POPC   C4A36378  28.411  16.709   7.653
 7741POPC   C1B36379  28.565  16.931   8.553
 7741POPC   C2B36380  28.571  16.928   8.253
 7741POPC   C3B36381  28.558  16.880   7.953
 7741POPC   C4B36382  28.553  16.842   7.653
 7742POPC   NC336383  24.516  15.920   9.453
 7742POPC   PO436384  24.504  15.923   9.153
 7742POPC   GL136385  24.441  15.908   8.853
 7742POPC   GL236386  24.373  15.982   8.853
 7742POPC   C1A36387  24.488  15.907   8.553
 7742POPC   D2A36388  24.486  15.998   8.253
 7742POPC   C3A36389  24.446  15.945   7.953
 7742POPC   C4A36390  24.504  15.958   7.653
 7742POPC   C1B36391  24.249  15.932   8.553
 7742POPC   C2B36392  24.284  15.892   8.253
 7742POPC   C3B36393  24.220  15.960   7.953
 7742POPC   C4B36394  24.232  15.935   7.653
 7743POPC   NC336395  21.420   0.406   9.453
 7743POPC   PO436396  21.431   0.460   9.153
 7743POPC   GL136397  21.359   0.392   8.853
 7743POPC   GL236398  21.343   0.327   8.853
 7743POPC   C1A36399  21.431   0.470   8.553
 7743POPC   D2A36400  21.435   0.399   8.253
 7743POPC   C3A36401  21.345   0.394   7.953
 7743POPC   C4A36402  21.411   0.433   7.653
 7743POPC   C1B36403  21.296   0.190   8.553
 7743POPC   C2B36404  21.257   0.167   8.253
 7743POPC   C3B36405  21.297   0.164   7.953
 7743POPC   C4B36406  21.251   0.189   7.653
 7744POPC   NC336407   8.194  43.882   9.453
 7744POPC   PO436408   8.179  43.851   9.153
 7744POPC   GL136409   8.199  43.930   8.853
 7744POPC   GL236410   8.062  43.900   8.853
 7744POPC   C1A36411   8.222  43.885   8.553
 7744POPC   D2A36412   8.176  43.903   8.253
 7744POPC   C3A36413   8.244  43.852   7.953
 7744POPC   C4A36414   8.224  43.917   7.653
 7744POPC   C1B36415   7.963  43.885   8.553
 7744POPC   C2B36416   7.897  43.825   8.253
 7744POPC   C3B36417   7.946  43.821   7.953
 7744POPC   C4B36418   7.924  43.871   7.653
 7745POPC   NC336419   7.381  23.741   9.453
 7745POPC   PO436420   7.441  23.703   9.153
 7745POPC   GL136421   7.458  23.707   8.853
 7745POPC   GL236422   7.402  23.559   8.853
 7745POPC   C1A36423   7.439  23.732   8.553
 7745POPC   D2A36424   7.414  23.708   8.253
 7745POPC   C3A36425   7.393  23.763   7.953
 7745POPC   C4A36426   7.433  23.722   7.653
 7745POPC   C1B36427   7.298  23.463   8.553
 7745POPC   C2B36428   7.346  23.467   8.253
 7745POPC   C3B36429   7.310  23.454   7.953
 7745POPC   C4B36430   7.294  23.457   7.653
 7746POPC   NC336431  20.590  13.637   9.453
 7746POPC   PO436432  20.630  13.635   9.153
 7746POPC   GL136433  20.592  13.649   8.853
 7746POPC   GL236434  20.612  13.465   8.853
 7746POPC   C1A36435  20.572  13.624   8.553
 7746POPC   D2A36436  20.585  13.598   8.253
 7746POPC   C3A36437  20.613  13.588   7.953
 7746POPC   C4A36438  20.646  13.624   7.653
 7746POPC   C1B36439  20.694  13.392   8.553
 7746POPC   C2B36440  20.642  13.424   8.253
 7746POPC   C3B36441  20.697  13.364   7.953
 7746POPC   C4B36442  20.684  13.431   7.653
 7747POPC   NC336443   8.934  43.134   9.453
 7747POPC   PO436444   8.961  43.142   9.153
 7747POPC   GL136445   8.989  43.111   8.853
 7747POPC   GL236446   8.904  42.961   8.853
 7747POPC   C1A36447   8.986  43.064   8.553
 7747POPC   D2A36448   8.945  43.088   8.253
 7747POPC   C3A36449   8.977  43.135   7.953
 7747POPC   C4A36450   8.943  43.141   7.653
 7747POPC   C1B36451   8.867  42.862   8.553
 7747POPC   C2B36452   8.848  42.901   8.253
 7747POPC   C3B36453   8.902  42.856   7.953
 7747POPC   C4B36454   8.846  42.880   7.653
 7748POPC   NC336455  42.309  31.489   9.453
 7748POPC   PO436456  42.304  31.450   9.153
 7748POPC   GL136457  42.304  31.442   8.853
 7748POPC   GL236458  42.426  31.440   8.853
 7748POPC   C1A36459  42.290  31.430   8.553
 7748POPC   D2A36460  42.320  31.465   8.253
 7748POPC   C3A36461  42.323  31.450   7.953
 7748POPC   C4A36462  42.339  31.473   7.653
 7748POPC   C1B36463  42.585  31.450   8.553
 7748POPC   C2B36464  42.595  31.456   8.253
 7748POPC   C3B36465  42.560  31.487   7.953
 7748POPC   C4B36466  42.554  31.487   7.653
 7749POPC   NC336467  19.853  40.737   9.453
 7749POPC   PO436468  19.789  40.825   9.153
 7749POPC   GL136469  19.870  40.822   8.853
 7749POPC   GL236470  19.891  40.904   8.853
 7749POPC   C1A36471  19.849  40.820   8.553
 7749POPC   D2A36472  19.848  40.737   8.253
 7749POPC   C3A36473  19.810  40.765   7.953
 7749POPC   C4A36474  19.832  40.769   7.653
 7749POPC   C1B36475  19.982  41.003   8.553
 7749POPC   C2B36476  19.933  41.040   8.253
 7749POPC   C3B36477  19.968  41.022   7.953
 7749POPC   C4B36478  19.911  40.957   7.653
 7750POPC   NC336479  15.170   5.062   9.453
 7750POPC   PO436480  15.137   5.085   9.153
 7750POPC   GL136481  15.135   5.132   8.853
 7750POPC   GL236482  15.189   5.208   8.853
 7750POPC   C1A36483  15.137   5.122   8.553
 7750POPC   D2A36484  15.154   5.130   8.253
 7750POPC   C3A36485  15.140   5.072   7.953
 7750POPC   C4A36486  15.151   5.122   7.653
 7750POPC   C1B36487  15.229   5.367   8.553
 7750POPC   C2B36488  15.308   5.308   8.253
 7750POPC   C3B36489  15.284   5.347   7.953
 7750POPC   C4B36490  15.315   5.284   7.653
 7751POPC   NC336491   8.995  22.932   9.453
 7751POPC   PO436492   8.938  22.893   9.153
 7751POPC   GL136493   8.939  22.931   8.853
 7751POPC   GL236494   8.803  22.959   8.853
 7751POPC   C1A36495   8.962  22.921   8.553
 7751POPC   D2A36496   8.973  22.891   8.253
 7751POPC   C3A36497   9.022  22.959   7.953
 7751POPC   C4A36498   8.977  22.955   7.653
 7751POPC   C1B36499   8.766  22.920   8.553
 7751POPC   C2B36500   8.761  22.914   8.253
 7751POPC   C3B36501   8.703  22.985   7.953
 7751POPC   C4B36502   8.700  22.925   7.653
 7752POPC   NC336503  22.167   0.482   9.453
 7752POPC   PO436504  22.135   0.482   9.153
 7752POPC   GL136505  22.205   0.391   8.853
 7752POPC   GL236506  22.040   0.395   8.853
 7752POPC   C1A36507  22.119   0.405   8.553
 7752POPC   D2A36508  22.185   0.444   8.253
 7752POPC   C3A36509  22.203   0.405   7.953
 7752POPC   C4A36510  22.186   0.426   7.653
 7752POPC   C1B36511  21.898   0.315   8.553
 7752POPC   C2B36512  21.987   0.350   8.253
 7752POPC   C3B36513  21.943   0.323   7.953
 7752POPC   C4B36514  21.971   0.317   7.653
 7753POPC   NC336515  15.985  22.970   9.453
 7753POPC   PO436516  15.957  22.897   9.153
 7753POPC   GL136517  15.995  22.928   8.853
 7753POPC   GL236518  15.981  23.075   8.853
 7753POPC   C1A36519  15.993  22.936   8.553
 7753POPC   D2A36520  15.936  22.896   8.253
 7753POPC   C3A36521  15.990  22.979   7.953
 7753POPC   C4A36522  15.943  22.891   7.653
 7753POPC   C1B36523  16.004  23.192   8.553
 7753POPC   C2B36524  16.011  23.203   8.253
 7753POPC   C3B36525  16.011  23.198   7.953
 7753POPC   C4B36526  16.049  23.216   7.653
 7754POPC   NC336527  14.414   3.582   9.453
 7754POPC   PO436528  14.388   3.541   9.153
 7754POPC   GL136529  14.408   3.555   8.853
 7754POPC   GL236530  14.399   3.424   8.853
 7754POPC   C1A36531  14.364   3.588   8.553
 7754POPC   D2A36532  14.357   3.506   8.253
 7754POPC   C3A36533  14.390   3.528   7.953
 7754POPC   C4A36534  14.441   3.571   7.653
 7754POPC   C1B36535  14.499   3.264   8.553
 7754POPC   C2B36536  14.457   3.327   8.253
 7754POPC   C3B36537  14.418   3.315   7.953
 7754POPC   C4B36538  14.448   3.259   7.653
 7755POPC   NC336539   9.005   4.295   9.453
 7755POPC   PO436540   9.007   4.333   9.153
 7755POPC   GL136541   8.955   4.342   8.853
 7755POPC   GL236542   9.023   4.386   8.853
 7755POPC   C1A36543   8.948   4.278   8.553
 7755POPC   D2A36544   8.959   4.335   8.253
 7755POPC   C3A36545   8.945   4.269   7.953
 7755POPC   C4A36546   8.969   4.283   7.653
 7755POPC   C1B36547   9.095   4.531   8.553
 7755POPC   C2B36548   9.164   4.540   8.253
 7755POPC   C3B36549   9.146   4.566   7.953
 7755POPC   C4B36550   9.099   4.471   7.653
 7756POPC   NC336551  39.256  33.034   9.453
 7756POPC   PO436552  39.247  33.066   9.153
 7756POPC   GL136553  39.269  33.006   8.853
 7756POPC   GL236554  39.121  33.093   8.853
 7756POPC   C1A36555  39.252  33.015   8.553
 7756POPC   D2A36556  39.249  33.016   8.253
 7756POPC   C3A36557  39.245  33.013   7.953
 7756POPC   C4A36558  39.225  33.065   7.653
 7756POPC   C1B36559  39.016  33.090   8.553
 7756POPC   C2B36560  39.032  33.027   8.253
 7756POPC   C3B36561  39.030  33.020   7.953
 7756POPC   C4B36562  38.944  33.021   7.653
 7757POPC   NC336563  24.492  10.526   9.453
 7757POPC   PO436564  24.446  10.532   9.153
 7757POPC   GL136565  24.511  10.499   8.853
 7757POPC   GL236566  24.483  10.651   8.853
 7757POPC   C1A36567  24.488  10.478   8.553
 7757POPC   D2A36568  24.476  10.530   8.253
 7757POPC   C3A36569  24.447  10.556   7.953
 7757POPC   C4A36570  24.512  10.526   7.653
 7757POPC   C1B36571  24.560  10.769   8.553
 7757POPC   C2B36572  24.563  10.722   8.253
 7757POPC   C3B36573  24.583  10.808   7.953
 7757POPC   C4B36574  24.564  10.776   7.653
 7758POPC   NC336575  26.838  20.625   9.453
 7758POPC   PO436576  26.794  20.659   9.153
 7758POPC   GL136577  26.840  20.582   8.853
 7758POPC   GL236578  26.880  20.553   8.853
 7758POPC   C1A36579  26.842  20.632   8.553
 7758POPC   D2A36580  26.848  20.579   8.253
 7758POPC   C3A36581  26.775  20.599   7.953
 7758POPC   C4A36582  26.775  20.587   7.653
 7758POPC   C1B36583  26.972  20.395   8.553
 7758POPC   C2B36584  27.002  20.442   8.253
 7758POPC   C3B36585  26.999  20.459   7.953
 7758POPC   C4B36586  26.993  20.384   7.653
 7759POPC   NC336587  24.502  25.227   9.453
 7759POPC   PO436588  24.539  25.298   9.153
 7759POPC   GL136589  24.483  25.265   8.853
 7759POPC   GL236590  24.598  25.210   8.853
 7759POPC   C1A36591  24.539  25.244   8.553
 7759POPC   D2A36592  24.537  25.259   8.253
 7759POPC   C3A36593  24.517  25.295   7.953
 7759POPC   C4A36594  24.535  25.306   7.653
 7759POPC   C1B36595  24.670  25.125   8.553
 7759POPC   C2B36596  24.674  25.181   8.253
 7759POPC   C3B36597  24.739  25.173   7.953
 7759POPC   C4B36598  24.689  25.190   7.653
 7760POPC   NC336599  27.602  39.998   9.453
 7760POPC   PO436600  27.566  39.991   9.153
 7760POPC   GL136601  27.597  40.034   8.853
 7760POPC   GL236602  27.605  39.878   8.853
 7760POPC   C1A36603  27.596  39.989   8.553
 7760POPC   D2A36604  27.605  40.044   8.253
 7760POPC   C3A36605  27.581  39.967   7.953
 7760POPC   C4A36606  27.559  40.039   7.653
 7760POPC   C1B36607  27.491  39.789   8.553
 7760POPC   C2B36608  27.571  39.798   8.253
 7760POPC   C3B36609  27.523  39.773   7.953
 7760POPC   C4B36610  27.559  39.760   7.653
 7761POPC   NC336611  17.472   5.102   9.453
 7761POPC   PO436612  17.468   5.083   9.153
 7761POPC   GL136613  17.470   5.125   8.853
 7761POPC   GL236614  17.482   5.016   8.853
 7761POPC   C1A36615  17.500   5.096   8.553
 7761POPC   D2A36616  17.478   5.046   8.253
 7761POPC   C3A36617  17.519   5.089   7.953
 7761POPC   C4A36618  17.554   5.134   7.653
 7761POPC   C1B36619  17.422   4.917   8.553
 7761POPC   C2B36620  17.352   4.864   8.253
 7761POPC   C3B36621  17.396   4.837   7.953
 7761POPC   C4B36622  17.351   4.892   7.653
 7762POPC   NC336623  27.633  40.738   9.453
 7762POPC   PO436624  27.557  40.808   9.153
 7762POPC   GL136625  27.576  40.765   8.853
 7762POPC   GL236626  27.642  40.929   8.853
 7762POPC   C1A36627  27.574  40.809   8.553
 7762POPC   D2A36628  27.611  40.826   8.253
 7762POPC   C3A36629  27.607  40.739   7.953
 7762POPC   C4A36630  27.555  40.735   7.653
 7762POPC   C1B36631  27.756  40.976   8.553
 7762POPC   C2B36632  27.734  40.974   8.253
 7762POPC   C3B36633  27.700  40.945   7.953
 7762POPC   C4B36634  27.761  40.965   7.653
 7763POPC   NC336635  12.094  21.371   9.453
 7763POPC   PO436636  12.099  21.384   9.153
 7763POPC   GL136637  12.115  21.361   8.853
 7763POPC   GL236638  11.935  21.369   8.853
 7763POPC   C1A36639  12.077  21.434   8.553
 7763POPC   D2A36640  12.043  21.359   8.253
 7763POPC   C3A36641  12.075  21.434   7.953
 7763POPC   C4A36642  12.092  21.392   7.653
 7763POPC   C1B36643  11.876  21.335   8.553
 7763POPC   C2B36644  11.819  21.268   8.253
 7763POPC   C3B36645  11.836  21.322   7.953
 7763POPC   C4B36646  11.798  21.324   7.653
 7764POPC   NC336647  11.328  19.847   9.453
 7764POPC   PO436648  11.342  19.810   9.153
 7764POPC   GL136649  11.274  19.795   8.853
 7764POPC   GL236650  11.432  19.861   8.853
 7764POPC   C1A36651  11.347  19.821   8.553
 7764POPC   D2A36652  11.326  19.879   8.253
 7764POPC   C3A36653  11.323  19.862   7.953
 7764POPC   C4A36654  11.306  19.825   7.653
 7764POPC   C1B36655  11.582  19.798   8.553
 7764POPC   C2B36656  11.564  19.818   8.253
 7764POPC   C3B36657  11.560  19.833   7.953
 7764POPC   C4B36658  11.520  19.780   7.653
 7765POPC   NC336659  42.335  36.123   9.453
 7765POPC   PO436660  42.331  36.165   9.153
 7765POPC   GL136661  42.335  36.137   8.853
 7765POPC   GL236662  42.437  36.095   8.853
 7765POPC   C1A36663  42.355  36.167   8.553
 7765POPC   D2A36664  42.330  36.172   8.253
 7765POPC   C3A36665  42.303  36.088   7.953
 7765POPC   C4A36666  42.374  36.078   7.653
 7765POPC   C1B36667  42.554  36.000   8.553
 7765POPC   C2B36668  42.505  35.945   8.253
 7765POPC   C3B36669  42.548  36.006   7.953
 7765POPC   C4B36670  42.493  36.003   7.653
 7766POPC   NC336671  40.051  12.867   9.453
 7766POPC   PO436672  40.016  12.894   9.153
 7766POPC   GL136673  40.033  12.830   8.853
 7766POPC   GL236674  40.147  12.839   8.853
 7766POPC   C1A36675  40.031  12.895   8.553
 7766POPC   D2A36676  39.985  12.900   8.253
 7766POPC   C3A36677  40.034  12.821   7.953
 7766POPC   C4A36678  40.043  12.881   7.653
 7766POPC   C1B36679  40.256  12.744   8.553
 7766POPC   C2B36680  40.295  12.808   8.253
 7766POPC   C3B36681  40.231  12.750   7.953
 7766POPC   C4B36682  40.248  12.817   7.653
 7767POPC   NC336683  18.298  34.555   9.453
 7767POPC   PO436684  18.276  34.618   9.153
 7767POPC   GL136685  18.270  34.577   8.853
 7767POPC   GL236686  18.343  34.452   8.853
 7767POPC   C1A36687  18.233  34.621   8.553
 7767POPC   D2A36688  18.235  34.561   8.253
 7767POPC   C3A36689  18.326  34.579   7.953
 7767POPC   C4A36690  18.286  34.568   7.653
 7767POPC   C1B36691  18.348  34.393   8.553
 7767POPC   C2B36692  18.406  34.343   8.253
 7767POPC   C3B36693  18.380  34.302   7.953
 7767POPC   C4B36694  18.368  34.318   7.653
 7768POPC   NC336695  12.843  19.053   9.453
 7768POPC   PO436696  12.878  19.044   9.153
 7768POPC   GL136697  12.841  19.009   8.853
 7768POPC   GL236698  12.738  19.035   8.853
 7768POPC   C1A36699  12.896  19.105   8.553
 7768POPC   D2A36700  12.875  19.033   8.253
 7768POPC   C3A36701  12.867  19.029   7.953
 7768POPC   C4A36702  12.851  19.040   7.653
 7768POPC   C1B36703  12.646  18.941   8.553
 7768POPC   C2B36704  12.619  18.880   8.253
 7768POPC   C3B36705  12.685  18.925   7.953
 7768POPC   C4B36706  12.645  18.950   7.653
 7769POPC   NC336707  20.611  27.576   9.453
 7769POPC   PO436708  20.587  27.633   9.153
 7769POPC   GL136709  20.594  27.602   8.853
 7769POPC   GL236710  20.728  27.507   8.853
 7769POPC   C1A36711  20.589  27.628   8.553
 7769POPC   D2A36712  20.564  27.589   8.253
 7769POPC   C3A36713  20.567  27.561   7.953
 7769POPC   C4A36714  20.586  27.543   7.653
 7769POPC   C1B36715  20.799  27.432   8.553
 7769POPC   C2B36716  20.731  27.422   8.253
 7769POPC   C3B36717  20.806  27.408   7.953
 7769POPC   C4B36718  20.815  27.385   7.653
 7770POPC   NC336719  36.095   5.063   9.453
 7770POPC   PO436720  36.079   5.119   9.153
 7770POPC   GL136721  36.109   5.075   8.853
 7770POPC   GL236722  35.996   5.156   8.853
 7770POPC   C1A36723  36.154   5.106   8.553
 7770POPC   D2A36724  36.147   5.101   8.253
 7770POPC   C3A36725  36.092   5.071   7.953
 7770POPC   C4A36726  36.087   5.140   7.653
 7770POPC   C1B36727  35.939   5.256   8.553
 7770POPC   C2B36728  35.923   5.216   8.253
 7770POPC   C3B36729  35.912   5.218   7.953
 7770POPC   C4B36730  35.944   5.229   7.653
 7771POPC   NC336731  41.545  23.751   9.453
 7771POPC   PO436732  41.538  23.692   9.153
 7771POPC   GL136733  41.510  23.743   8.853
 7771POPC   GL236734  41.586  23.618   8.853
 7771POPC   C1A36735  41.542  23.709   8.553
 7771POPC   D2A36736  41.540  23.695   8.253
 7771POPC   C3A36737  41.592  23.734   7.953
 7771POPC   C4A36738  41.596  23.726   7.653
 7771POPC   C1B36739  41.631  23.476   8.553
 7771POPC   C2B36740  41.631  23.427   8.253
 7771POPC   C3B36741  41.629  23.422   7.953
 7771POPC   C4B36742  41.590  23.451   7.653
 7772POPC   NC336743  15.938  23.759   9.453
 7772POPC   PO436744  15.993  23.704   9.153
 7772POPC   GL136745  15.923  23.744   8.853
 7772POPC   GL236746  15.870  23.749   8.853
 7772POPC   C1A36747  15.914  23.746   8.553
 7772POPC   D2A36748  15.938  23.680   8.253
 7772POPC   C3A36749  15.917  23.748   7.953
 7772POPC   C4A36750  15.962  23.753   7.653
 7772POPC   C1B36751  15.695  23.762   8.553
 7772POPC   C2B36752  15.712  23.802   8.253
 7772POPC   C3B36753  15.749  23.837   7.953
 7772POPC   C4B36754  15.725  23.829   7.653
 7773POPC   NC336755   6.610   0.420   9.453
 7773POPC   PO436756   6.633   0.426   9.153
 7773POPC   GL136757   6.691   0.391   8.853
 7773POPC   GL236758   6.520   0.470   8.853
 7773POPC   C1A36759   6.674   0.467   8.553
 7773POPC   D2A36760   6.662   0.439   8.253
 7773POPC   C3A36761   6.618   0.420   7.953
 7773POPC   C4A36762   6.668   0.406   7.653
 7773POPC   C1B36763   6.416   0.555   8.553
 7773POPC   C2B36764   6.459   0.554   8.253
 7773POPC   C3B36765   6.463   0.575   7.953
 7773POPC   C4B36766   6.459   0.591   7.653
 7774POPC   NC336767  37.658  25.254   9.453
 7774POPC   PO436768  37.681  25.262   9.153
 7774POPC   GL136769  37.637  25.289   8.853
 7774POPC   GL236770  37.780  25.315   8.853
 7774POPC   C1A36771  37.725  25.247   8.553
 7774POPC   D2A36772  37.706  25.239   8.253
 7774POPC   C3A36773  37.665  25.305   7.953
 7774POPC   C4A36774  37.671  25.273   7.653
 7774POPC   C1B36775  37.875  25.345   8.553
 7774POPC   C2B36776  37.883  25.415   8.253
 7774POPC   C3B36777  37.899  25.386   7.953
 7774POPC   C4B36778  37.888  25.324   7.653
 7775POPC   NC336779  37.692  13.586   9.453
 7775POPC   PO436780  37.634  13.605   9.153
 7775POPC   GL136781  37.667  13.658   8.853
 7775POPC   GL236782  37.816  13.540   8.853
 7775POPC   C1A36783  37.651  13.646   8.553
 7775POPC   D2A36784  37.683  13.581   8.253
 7775POPC   C3A36785  37.706  13.669   7.953
 7775POPC   C4A36786  37.691  13.605   7.653
 7775POPC   C1B36787  37.880  13.454   8.553
 7775POPC   C2B36788  37.918  13.541   8.253
 7775POPC   C3B36789  37.908  13.524   7.953
 7775POPC   C4B36790  37.897  13.485   7.653
 7776POPC   NC336791  35.398  25.252   9.453
 7776POPC   PO436792  35.386  25.284   9.153
 7776POPC   GL136793  35.343  25.233   8.853
 7776POPC   GL236794  35.346  25.407   8.853
 7776POPC   C1A36795  35.343  25.278   8.553
 7776POPC   D2A36796  35.350  25.217   8.253
 7776POPC   C3A36797  35.326  25.272   7.953
 7776POPC   C4A36798  35.305  25.315   7.653
 7776POPC   C1B36799  35.398  25.534   8.553
 7776POPC   C2B36800  35.404  25.553   8.253
 7776POPC   C3B36801  35.319  25.496   7.953
 7776POPC   C4B36802  35.326  25.495   7.653
 7777POPC   NC336803  19.108  21.423   9.453
 7777POPC   PO436804  19.069  21.392   9.153
 7777POPC   GL136805  19.013  21.356   8.853
 7777POPC   GL236806  18.926  21.360   8.853
 7777POPC   C1A36807  19.012  21.337   8.553
 7777POPC   D2A36808  19.022  21.408   8.253
 7777POPC   C3A36809  19.093  21.408   7.953
 7777POPC   C4A36810  19.091  21.402   7.653
 7777POPC   C1B36811  18.826  21.276   8.553
 7777POPC   C2B36812  18.822  21.229   8.253
 7777POPC   C3B36813  18.825  21.219   7.953
 7777POPC   C4B36814  18.819  21.248   7.653
 7778POPC   NC336815  27.590   8.932   9.453
 7778POPC   PO436816  27.597   8.956   9.153
 7778POPC   GL136817  27.575   9.008   8.853
 7778POPC   GL236818  27.589   9.137   8.853
 7778POPC   C1A36819  27.589   8.987   8.553
 7778POPC   D2A36820  27.554   8.955   8.253
 7778POPC   C3A36821  27.593   9.019   7.953
 7778POPC   C4A36822  27.567   8.988   7.653
 7778POPC   C1B36823  27.584   9.237   8.553
 7778POPC   C2B36824  27.591   9.196   8.253
 7778POPC   C3B36825  27.567   9.202   7.953
 7778POPC   C4B36826  27.538   9.168   7.653
 7779POPC   NC336827  26.084  10.509   9.453
 7779POPC   PO436828  26.063  10.549   9.153
 7779POPC   GL136829  26.043  10.494   8.853
 7779POPC   GL236830  26.149  10.565   8.853
 7779POPC   C1A36831  26.030  10.540   8.553
 7779POPC   D2A36832  26.062  10.545   8.253
 7779POPC   C3A36833  26.008  10.519   7.953
 7779POPC   C4A36834  26.083  10.570   7.653
 7779POPC   C1B36835  26.277  10.584   8.553
 7779POPC   C2B36836  26.244  10.570   8.253
 7779POPC   C3B36837  26.293  10.589   7.953
 7779POPC   C4B36838  26.282  10.572   7.653
 7780POPC   NC336839  26.033  33.053   9.453
 7780POPC   PO436840  26.017  33.067   9.153
 7780POPC   GL136841  26.014  33.033   8.853
 7780POPC   GL236842  26.080  33.193   8.853
 7780POPC   C1A36843  26.062  33.053   8.553
 7780POPC   D2A36844  26.034  33.065   8.253
 7780POPC   C3A36845  26.035  32.977   7.953
 7780POPC   C4A36846  26.013  32.999   7.653
 7780POPC   C1B36847  26.018  33.268   8.553
 7780POPC   C2B36848  26.048  33.321   8.253
 7780POPC   C3B36849  26.032  33.249   7.953
 7780POPC   C4B36850  26.071  33.275   7.653
 7781POPC   NC336851   3.503  20.617   9.453
 7781POPC   PO436852   3.522  20.638   9.153
 7781POPC   GL136853   3.566  20.644   8.853
 7781POPC   GL236854   3.539  20.743   8.853
 7781POPC   C1A36855   3.515  20.625   8.553
 7781POPC   D2A36856   3.576  20.641   8.253
 7781POPC   C3A36857   3.575  20.569   7.953
 7781POPC   C4A36858   3.508  20.588   7.653
 7781POPC   C1B36859   3.587  20.858   8.553
 7781POPC   C2B36860   3.612  20.885   8.253
 7781POPC   C3B36861   3.616  20.853   7.953
 7781POPC   C4B36862   3.640  20.807   7.653
 7782POPC   NC336863  37.680   8.932   9.453
 7782POPC   PO436864  37.640   8.984   9.153
 7782POPC   GL136865  37.631   8.940   8.853
 7782POPC   GL236866  37.763   8.896   8.853
 7782POPC   C1A36867  37.680   8.972   8.553
 7782POPC   D2A36868  37.681   8.988   8.253
 7782POPC   C3A36869  37.709   9.008   7.953
 7782POPC   C4A36870  37.695   8.965   7.653
 7782POPC   C1B36871  37.876   8.734   8.553
 7782POPC   C2B36872  37.829   8.736   8.253
 7782POPC   C3B36873  37.819   8.822   7.953
 7782POPC   C4B36874  37.813   8.759   7.653
 7783POPC   NC336875  37.667   7.400   9.453
 7783POPC   PO436876  37.713   7.452   9.153
 7783POPC   GL136877  37.691   7.386   8.853
 7783POPC   GL236878  37.572   7.478   8.853
 7783POPC   C1A36879  37.643   7.407   8.553
 7783POPC   D2A36880  37.635   7.386   8.253
 7783POPC   C3A36881  37.670   7.446   7.953
 7783POPC   C4A36882  37.645   7.432   7.653
 7783POPC   C1B36883  37.441   7.567   8.553
 7783POPC   C2B36884  37.491   7.487   8.253
 7783POPC   C3B36885  37.485   7.510   7.953
 7783POPC   C4B36886  37.450   7.568   7.653
 7784POPC   NC336887  15.220  40.744   9.453
 7784POPC   PO436888  15.159  40.829   9.153
 7784POPC   GL136889  15.229  40.817   8.853
 7784POPC   GL236890  15.107  40.645   8.853
 7784POPC   C1A36891  15.174  40.749   8.553
 7784POPC   D2A36892  15.145  40.825   8.253
 7784POPC   C3A36893  15.138  40.810   7.953
 7784POPC   C4A36894  15.210  40.793   7.653
 7784POPC   C1B36895  15.060  40.568   8.553
 7784POPC   C2B36896  15.073  40.540   8.253
 7784POPC   C3B36897  15.099  40.567   7.953
 7784POPC   C4B36898  15.108  40.584   7.653
 7785POPC   NC336899  21.421  28.337   9.453
 7785POPC   PO436900  21.365  28.392   9.153
 7785POPC   GL136901  21.382  28.401   8.853
 7785POPC   GL236902  21.287  28.223   8.853
 7785POPC   C1A36903  21.362  28.337   8.553
 7785POPC   D2A36904  21.354  28.320   8.253
 7785POPC   C3A36905  21.424  28.339   7.953
 7785POPC   C4A36906  21.346  28.417   7.653
 7785POPC   C1B36907  21.271  28.151   8.553
 7785POPC   C2B36908  21.256  28.191   8.253
 7785POPC   C3B36909  21.248  28.149   7.953
 7785POPC   C4B36910  21.276  28.169   7.653
 7786POPC   NC336911  20.615  42.337   9.453
 7786POPC   PO436912  20.587  42.323   9.153
 7786POPC   GL136913  20.598  42.381   8.853
 7786POPC   GL236914  20.782  42.277   8.853
 7786POPC   C1A36915  20.589  42.371   8.553
 7786POPC   D2A36916  20.570  42.322   8.253
 7786POPC   C3A36917  20.581  42.376   7.953
 7786POPC   C4A36918  20.578  42.346   7.653
 7786POPC   C1B36919  20.863  42.268   8.553
 7786POPC   C2B36920  20.859  42.327   8.253
 7786POPC   C3B36921  20.835  42.334   7.953
 7786POPC   C4B36922  20.813  42.281   7.653
 7787POPC   NC336923  40.003  15.973   9.453
 7787POPC   PO436924  40.007  15.946   9.153
 7787POPC   GL136925  40.049  15.935   8.853
 7787POPC   GL236926  40.092  15.925   8.853
 7787POPC   C1A36927  40.021  15.967   8.553
 7787POPC   D2A36928  40.046  15.973   8.253
 7787POPC   C3A36929  40.010  15.911   7.953
 7787POPC   C4A36930  39.983  15.949   7.653
 7787POPC   C1B36931  40.202  15.888   8.553
 7787POPC   C2B36932  40.219  15.890   8.253
 7787POPC   C3B36933  40.239  15.881   7.953
 7787POPC   C4B36934  40.211  15.910   7.653
 7788POPC   NC336935  26.070  42.329   9.453
 7788POPC   PO436936  26.037  42.319   9.153
 7788POPC   GL136937  26.028  42.327   8.853
 7788POPC   GL236938  26.115  42.225   8.853
 7788POPC   C1A36939  26.054  42.289   8.553
 7788POPC   D2A36940  26.065  42.316   8.253
 7788POPC   C3A36941  26.084  42.380   7.953
 7788POPC   C4A36942  26.042  42.295   7.653
 7788POPC   C1B36943  26.213  42.075   8.553
 7788POPC   C2B36944  26.194  42.153   8.253
 7788POPC   C3B36945  26.151  42.132   7.953
 7788POPC   C4B36946  26.208  42.159   7.653
 7789POPC   NC336947  19.797  21.428   9.453
 7789POPC   PO436948  19.883  21.430   9.153
 7789POPC   GL136949  19.812  21.423   8.853
 7789POPC   GL236950  19.888  21.417   8.853
 7789POPC   C1A36951  19.813  21.357   8.553
 7789POPC   D2A36952  19.846  21.423   8.253
 7789POPC   C3A36953  19.799  21.389   7.953
 7789POPC   C4A36954  19.818  21.432   7.653
 7789POPC   C1B36955  20.012  21.584   8.553
 7789POPC   C2B36956  20.059  21.583   8.253
 7789POPC   C3B36957  20.050  21.535   7.953
 7789POPC   C4B36958  20.005  21.580   7.653
 7790POPC   NC336959  16.700  41.553   9.453
 7790POPC   PO436960  16.718  41.571   9.153
 7790POPC   GL136961  16.715  41.553   8.853
 7790POPC   GL236962  16.606  41.480   8.853
 7790POPC   C1A36963  16.687  41.585   8.553
 7790POPC   D2A36964  16.769  41.546   8.253
 7790POPC   C3A36965  16.767  41.515   7.953
 7790POPC   C4A36966  16.740  41.590   7.653
 7790POPC   C1B36967  16.474  41.512   8.553
 7790POPC   C2B36968  16.503  41.432   8.253
 7790POPC   C3B36969  16.509  41.490   7.953
 7790POPC   C4B36970  16.503  41.442   7.653
 7791POPC   NC336971   0.407   9.709   9.453
 7791POPC   PO436972   0.413   9.734   9.153
 7791POPC   GL136973   0.481   9.724   8.853
 7791POPC   GL236974   0.313   9.859   8.853
 7791POPC   C1A36975   0.470   9.710   8.553
 7791POPC   D2A36976   0.443   9.773   8.253
 7791POPC   C3A36977   0.413   9.787   7.953
 7791POPC   C4A36978   0.480   9.785   7.653
 7791POPC   C1B36979   0.229   9.948   8.553
 7791POPC   C2B36980   0.244   9.927   8.253
 7791POPC   C3B36981   0.308   9.959   7.953
 7791POPC   C4B36982   0.255   9.908   7.653
 7792POPC   NC336983  22.940  11.330   9.453
 7792POPC   PO436984  22.944  11.312   9.153
 7792POPC   GL136985  22.889  11.255   8.853
 7792POPC   GL236986  22.949  11.166   8.853
 7792POPC   C1A36987  22.956  11.270   8.553
 7792POPC   D2A36988  22.915  11.270   8.253
 7792POPC   C3A36989  22.970  11.257   7.953
 7792POPC   C4A36990  22.922  11.283   7.653
 7792POPC   C1B36991  22.925  11.096   8.553
 7792POPC   C2B36992  22.920  11.067   8.253
 7792POPC   C3B36993  22.907  11.011   7.953
 7792POPC   C4B36994  22.894  11.055   7.653
 7793POPC   NC336995  43.108  43.071   9.453
 7793POPC   PO436996  43.093  43.081   9.153
 7793POPC   GL136997  43.072  43.079   8.853
 7793POPC   GL236998  43.255  43.168   8.853
 7793POPC   C1A36999  43.148  43.123   8.553
 7793POPC   D2A37000  43.114  43.129   8.253
 7793POPC   C3A37001  43.151  43.141   7.953
 7793POPC   C4A37002  43.125  43.083   7.653
 7793POPC   C1B37003  43.406  43.109   8.553
 7793POPC   C2B37004  43.366  43.108   8.253
 7793POPC   C3B37005  43.373  43.171   7.953
 7793POPC   C4B37006  43.378  43.193   7.653
 7794POPC   NC337007   4.341  36.108   9.453
 7794POPC   PO437008   4.288  36.096   9.153
 7794POPC   GL137009   4.300  36.085   8.853
 7794POPC   GL237010   4.242  36.044   8.853
 7794POPC   C1A37011   4.333  36.141   8.553
 7794POPC   D2A37012   4.348  36.085   8.253
 7794POPC   C3A37013   4.286  36.092   7.953
 7794POPC   C4A37014   4.314  36.113   7.653
 7794POPC   C1B37015   4.235  35.901   8.553
 7794POPC   C2B37016   4.243  35.925   8.253
 7794POPC   C3B37017   4.173  35.908   7.953
 7794POPC   C4B37018   4.205  35.909   7.653
 7795POPC   NC337019   1.175  43.900   9.453
 7795POPC   PO437020   1.184  43.902   9.153
 7795POPC   GL137021   1.257  43.923   8.853
 7795POPC   GL237022   1.074  43.875   8.853
 7795POPC   C1A37023   1.201  43.874   8.553
 7795POPC   D2A37024   1.232  43.915   8.253
 7795POPC   C3A37025   1.183  43.880   7.953
 7795POPC   C4A37026   1.200  43.888   7.653
 7795POPC   C1B37027   1.035  43.736   8.553
 7795POPC   C2B37028   1.016  43.789   8.253
 7795POPC   C3B37029   1.013  43.737   7.953
 7795POPC   C4B37030   0.956  43.783   7.653
 7796POPC   NC337031  43.841   0.467   9.453
 7796POPC   PO437032  43.857   0.478   9.153
 7796POPC   GL137033  43.921   0.418   8.853
 7796POPC   GL237034  43.874   0.580   8.853
 7796POPC   C1A37035  43.918   0.451   8.553
 7796POPC   D2A37036  43.841   0.453   8.253
 7796POPC   C3A37037  43.885   0.403   7.953
 7796POPC   C4A37038  43.850   0.450   7.653
 7796POPC   C1B37039  43.872   0.656   8.553
 7796POPC   C2B37040  43.893   0.636   8.253
 7796POPC   C3B37041  43.867   0.651   7.953
 7796POPC   C4B37042  43.868   0.651   7.653
 7797POPC   NC337043  18.251  27.612   9.453
 7797POPC   PO437044  18.278  27.544   9.153
 7797POPC   GL137045  18.257  27.615   8.853
 7797POPC   GL237046  18.165  27.648   8.853
 7797POPC   C1A37047  18.265  27.551   8.553
 7797POPC   D2A37048  18.267  27.583   8.253
 7797POPC   C3A37049  18.237  27.588   7.953
 7797POPC   C4A37050  18.287  27.639   7.653
 7797POPC   C1B37051  18.139  27.737   8.553
 7797POPC   C2B37052  18.129  27.815   8.253
 7797POPC   C3B37053  18.137  27.807   7.953
 7797POPC   C4B37054  18.116  27.730   7.653
 7798POPC   NC337055   1.199  22.909   9.453
 7798POPC   PO437056   1.240  22.957   9.153
 7798POPC   GL137057   1.212  22.923   8.853
 7798POPC   GL237058   1.150  23.013   8.853
 7798POPC   C1A37059   1.171  22.952   8.553
 7798POPC   D2A37060   1.256  22.904   8.253
 7798POPC   C3A37061   1.206  22.905   7.953
 7798POPC   C4A37062   1.261  22.984   7.653
 7798POPC   C1B37063   1.098  23.189   8.553
 7798POPC   C2B37064   1.152  23.155   8.253
 7798POPC   C3B37065   1.081  23.210   7.953
 7798POPC   C4B37066   1.143  23.144   7.653
 7799POPC   NC337067  44.666  36.952   9.453
 7799POPC   PO437068  44.672  36.917   9.153
 7799POPC   GL137069  44.705  36.882   8.853
 7799POPC   GL237070  44.747  36.773   8.853
 7799POPC   C1A37071  44.680  36.891   8.553
 7799POPC   D2A37072  44.620  36.871   8.253
 7799POPC   C3A37073  44.683  36.870   7.953
 7799POPC   C4A37074  44.683  36.854   7.653
 7799POPC   C1B37075  44.847  36.688   8.553
 7799POPC   C2B37076  44.782  36.728   8.253
 7799POPC   C3B37077  44.819  36.731   7.953
 7799POPC   C4B37078  44.796  36.705   7.653
 7800POPC   NC337079  14.433  43.925   9.453
 7800POPC   PO437080  14.380  43.899   9.153
 7800POPC   GL137081  14.446  43.897   8.853
 7800POPC   GL237082  14.539  43.809   8.853
 7800POPC   C1A37083  14.388  43.933   8.553
 7800POPC   D2A37084  14.385  43.858   8.253
 7800POPC   C3A37085  14.391  43.847   7.953
 7800POPC   C4A37086  14.408  43.881   7.653
 7800POPC   C1B37087  14.651  43.774   8.553
 7800POPC   C2B37088  14.656  43.728   8.253
 7800POPC   C3B37089  14.655  43.756   7.953
 7800POPC   C4B37090  14.630  43.821   7.653
 7801POPC   NC337091  40.775  17.484   9.453
 7801POPC   PO437092  40.736  17.502   9.153
 7801POPC   GL137093  40.798  17.548   8.853
 7801POPC   GL237094  40.706  17.616   8.853
 7801POPC   C1A37095  40.831  17.539   8.553
 7801POPC   D2A37096  40.743  17.469   8.253
 7801POPC   C3A37097  40.827  17.498   7.953
 7801POPC   C4A37098  40.771  17.510   7.653
 7801POPC   C1B37099  40.752  17.749   8.553
 7801POPC   C2B37100  40.683  17.782   8.253
 7801POPC   C3B37101  40.765  17.716   7.953
 7801POPC   C4B37102  40.761  17.707   7.653
 7802POPC   NC337103  32.249  33.044   9.453
 7802POPC   PO437104  32.243  33.018   9.153
 7802POPC   GL137105  32.212  33.015   8.853
 7802POPC   GL237106  32.248  32.928   8.853
 7802POPC   C1A37107  32.229  33.074   8.553
 7802POPC   D2A37108  32.244  33.036   8.253
 7802POPC   C3A37109  32.261  33.056   7.953
 7802POPC   C4A37110  32.251  33.068   7.653
 7802POPC   C1B37111  32.332  32.752   8.553
 7802POPC   C2B37112  32.267  32.810   8.253
 7802POPC   C3B37113  32.317  32.820   7.953
 7802POPC   C4B37114  32.240  32.818   7.653
 7803POPC   NC337115  34.626   0.393   9.453
 7803POPC   PO437116  34.528   0.468   9.153
 7803POPC   GL137117  34.598   0.455   8.853
 7803POPC   GL237118  34.582   0.276   8.853
 7803POPC   C1A37119  34.591   0.444   8.553
 7803POPC   D2A37120  34.530   0.444   8.253
 7803POPC   C3A37121  34.530   0.425   7.953
 7803POPC   C4A37122  34.573   0.441   7.653
 7803POPC   C1B37123  34.589   0.186   8.553
 7803POPC   C2B37124  34.505   0.168   8.253
 7803POPC   C3B37125  34.573   0.142   7.953
 7803POPC   C4B37126  34.582   0.237   7.653
 7804POPC   NC337127   2.777  41.550   9.453
 7804POPC   PO437128   2.757  41.562   9.153
 7804POPC   GL137129   2.769  41.588   8.853
 7804POPC   GL237130   2.830  41.672   8.853
 7804POPC   C1A37131   2.797  41.521   8.553
 7804POPC   D2A37132   2.782  41.581   8.253
 7804POPC   C3A37133   2.796  41.593   7.953
 7804POPC   C4A37134   2.779  41.603   7.653
 7804POPC   C1B37135   2.972  41.722   8.553
 7804POPC   C2B37136   2.959  41.670   8.253
 7804POPC   C3B37137   2.968  41.664   7.953
 7804POPC   C4B37138   2.975  41.703   7.653
 7805POPC   NC337139   5.915  43.130   9.453
 7805POPC   PO437140   5.835  43.137   9.153
 7805POPC   GL137141   5.831  43.148   8.853
 7805POPC   GL237142   6.002  43.150   8.853
 7805POPC   C1A37143   5.885  43.118   8.553
 7805POPC   D2A37144   5.876  43.061   8.253
 7805POPC   C3A37145   5.906  43.108   7.953
 7805POPC   C4A37146   5.862  43.085   7.653
 7805POPC   C1B37147   6.077  43.284   8.553
 7805POPC   C2B37148   6.089  43.268   8.253
 7805POPC   C3B37149   6.082  43.236   7.953
 7805POPC   C4B37150   6.084  43.306   7.653
 7806POPC   NC337151  29.134   8.222   9.453
 7806POPC   PO437152  29.179   8.161   9.153
 7806POPC   GL137153  29.113   8.214   8.853
 7806POPC   GL237154  29.144   8.365   8.853
 7806POPC   C1A37155  29.124   8.191   8.553
 7806POPC   D2A37156  29.158   8.238   8.253
 7806POPC   C3A37157  29.110   8.191   7.953
 7806POPC   C4A37158  29.173   8.225   7.653
 7806POPC   C1B37159  29.230   8.460   8.553
 7806POPC   C2B37160  29.224   8.407   8.253
 7806POPC   C3B37161  29.177   8.401   7.953
 7806POPC   C4B37162  29.218   8.450   7.653
 7807POPC   NC337163   7.373   9.701   9.453
 7807POPC   PO437164   7.380   9.763   9.153
 7807POPC   GL137165   7.398   9.787   8.853
 7807POPC   GL237166   7.265   9.790   8.853
 7807POPC   C1A37167   7.435   9.715   8.553
 7807POPC   D2A37168   7.451   9.773   8.253
 7807POPC   C3A37169   7.459   9.777   7.953
 7807POPC   C4A37170   7.434   9.743   7.653
 7807POPC   C1B37171   7.181   9.704   8.553
 7807POPC   C2B37172   7.186   9.701   8.253
 7807POPC   C3B37173   7.126   9.714   7.953
 7807POPC   C4B37174   7.214   9.726   7.653
 7808POPC   NC337175  20.622   5.864   9.453
 7808POPC   PO437176  20.593   5.826   9.153
 7808POPC   GL137177  20.590   5.897   8.853
 7808POPC   GL237178  20.511   5.936   8.853
 7808POPC   C1A37179  20.658   5.848   8.553
 7808POPC   D2A37180  20.607   5.822   8.253
 7808POPC   C3A37181  20.587   5.900   7.953
 7808POPC   C4A37182  20.564   5.908   7.653
 7808POPC   C1B37183  20.505   6.039   8.553
 7808POPC   C2B37184  20.481   6.054   8.253
 7808POPC   C3B37185  20.470   6.095   7.953
 7808POPC   C4B37186  20.432   6.123   7.653
 7809POPC   NC337187   7.384  43.936   9.453
 7809POPC   PO437188   7.469  43.854   9.153
 7809POPC   GL137189   7.469  43.912   8.853
 7809POPC   GL237190   7.515  43.869   8.853
 7809POPC   C1A37191   7.440  43.930   8.553
 7809POPC   D2A37192   7.408  43.930   8.253
 7809POPC   C3A37193   7.439  43.887   7.953
 7809POPC   C4A37194   7.422  43.882   7.653
 7809POPC   C1B37195   7.686  43.832   8.553
 7809POPC   C2B37196   7.652  43.911   8.253
 7809POPC   C3B37197   7.678  43.898   7.953
 7809POPC   C4B37198   7.667  43.830   7.653
 7810POPC   NC337199  42.345  21.394   9.453
 7810POPC   PO437200  42.382  21.347   9.153
 7810POPC   GL137201  42.295  21.355   8.853
 7810POPC   GL237202  42.381  21.460   8.853
 7810POPC   C1A37203  42.349  21.418   8.553
 7810POPC   D2A37204  42.373  21.387   8.253
 7810POPC   C3A37205  42.341  21.386   7.953
 7810POPC   C4A37206  42.316  21.408   7.653
 7810POPC   C1B37207  42.450  21.584   8.553
 7810POPC   C2B37208  42.402  21.615   8.253
 7810POPC   C3B37209  42.465  21.632   7.953
 7810POPC   C4B37210  42.383  21.611   7.653
 7811POPC   NC337211  10.529  39.217   9.453
 7811POPC   PO437212  10.527  39.251   9.153
 7811POPC   GL137213  10.559  39.277   8.853
 7811POPC   GL237214  10.472  39.057   8.853
 7811POPC   C1A37215  10.486  39.184   8.553
 7811POPC   D2A37216  10.487  39.260   8.253
 7811POPC   C3A37217  10.490  39.207   7.953
 7811POPC   C4A37218  10.487  39.244   7.653
 7811POPC   C1B37219  10.497  38.987   8.553
 7811POPC   C2B37220  10.476  38.998   8.253
 7811POPC   C3B37221  10.507  39.028   7.953
 7811POPC   C4B37222  10.482  38.938   7.653
 7812POPC   NC337223   9.771  41.521   9.453
 7812POPC   PO437224   9.742  41.568   9.153
 7812POPC   GL137225   9.770  41.523   8.853
 7812POPC   GL237226   9.750  41.486   8.853
 7812POPC   C1A37227   9.719  41.511   8.553
 7812POPC   D2A37228   9.766  41.588   8.253
 7812POPC   C3A37229   9.754  41.563   7.953
 7812POPC   C4A37230   9.721  41.579   7.653
 7812POPC   C1B37231   9.703  41.284   8.553
 7812POPC   C2B37232   9.699  41.287   8.253
 7812POPC   C3B37233   9.700  41.271   7.953
 7812POPC   C4B37234   9.643  41.297   7.653
 7813POPC   NC337235  26.810  19.058   9.453
 7813POPC   PO437236  26.786  19.075   9.153
 7813POPC   GL137237  26.834  19.093   8.853
 7813POPC   GL237238  26.743  18.954   8.853
 7813POPC   C1A37239  26.811  19.108   8.553
 7813POPC   D2A37240  26.842  19.094   8.253
 7813POPC   C3A37241  26.809  19.021   7.953
 7813POPC   C4A37242  26.780  19.041   7.653
 7813POPC   C1B37243  26.691  18.872   8.553
 7813POPC   C2B37244  26.634  18.812   8.253
 7813POPC   C3B37245  26.614  18.910   7.953
 7813POPC   C4B37246  26.620  18.860   7.653
 7814POPC   NC337247  44.638   6.655   9.453
 7814POPC   PO437248  44.681   6.605   9.153
 7814POPC   GL137249  44.710   6.644   8.853
 7814POPC   GL237250  44.792   6.719   8.853
 7814POPC   C1A37251  44.627   6.688   8.553
 7814POPC   D2A37252  44.705   6.642   8.253
 7814POPC   C3A37253  44.712   6.609   7.953
 7814POPC   C4A37254  44.687   6.628   7.653
 7814POPC   C1B37255  44.875   6.741   8.553
 7814POPC   C2B37256  44.918   6.792   8.253
 7814POPC   C3B37257  44.892   6.813   7.953
 7814POPC   C4B37258  44.914   6.774   7.653
 7815POPC   NC337259  28.407  15.907   9.453
 7815POPC   PO437260  28.395  15.948   9.153
 7815POPC   GL137261  28.351  15.932   8.853
 7815POPC   GL237262  28.222  15.943   8.853
 7815POPC   C1A37263  28.350  15.955   8.553
 7815POPC   D2A37264  28.419  15.978   8.253
 7815POPC   C3A37265  28.378  15.949   7.953
 7815POPC   C4A37266  28.323  16.003   7.653
 7815POPC   C1B37267  28.094  15.873   8.553
 7815POPC   C2B37268  28.090  15.937   8.253
 7815POPC   C3B37269  28.109  15.919   7.953
 7815POPC   C4B37270  28.115  15.950   7.653
 7816POPC   NC337271  17.487  33.800   9.453
 7816POPC   PO437272  17.538  33.796   9.153
 7816POPC   GL137273  17.504  33.750   8.853
 7816POPC   GL237274  17.471  33.728   8.853
 7816POPC   C1A37275  17.515  33.801   8.553
 7816POPC   D2A37276  17.472  33.819   8.253
 7816POPC   C3A37277  17.536  33.827   7.953
 7816POPC   C4A37278  17.537  33.813   7.653
 7816POPC   C1B37279  17.322  33.593   8.553
 7816POPC   C2B37280  17.318  33.629   8.253
 7816POPC   C3B37281  17.368  33.599   7.953
 7816POPC   C4B37282  17.363  33.613   7.653
 7817POPC   NC337283  10.510  41.567   9.453
 7817POPC   PO437284  10.504  41.528   9.153
 7817POPC   GL137285  10.508  41.591   8.853
 7817POPC   GL237286  10.600  41.492   8.853
 7817POPC   C1A37287  10.534  41.541   8.553
 7817POPC   D2A37288  10.549  41.596   8.253
 7817POPC   C3A37289  10.564  41.585   7.953
 7817POPC   C4A37290  10.476  41.555   7.653
 7817POPC   C1B37291  10.726  41.542   8.553
 7817POPC   C2B37292  10.742  41.508   8.253
 7817POPC   C3B37293  10.773  41.476   7.953
 7817POPC   C4B37294  10.732  41.469   7.653
 7818POPC   NC337295  21.414  15.917   9.453
 7818POPC   PO437296  21.381  15.980   9.153
 7818POPC   GL137297  21.359  16.000   8.853
 7818POPC   GL237298  21.524  15.994   8.853
 7818POPC   C1A37299  21.409  15.924   8.553
 7818POPC   D2A37300  21.382  15.977   8.253
 7818POPC   C3A37301  21.384  15.969   7.953
 7818POPC   C4A37302  21.413  15.965   7.653
 7818POPC   C1B37303  21.610  16.080   8.553
 7818POPC   C2B37304  21.665  16.051   8.253
 7818POPC   C3B37305  21.570  16.075   7.953
 7818POPC   C4B37306  21.571  16.051   7.653
 7819POPC   NC337307  29.960   2.036   9.453
 7819POPC   PO437308  29.929   1.970   9.153
 7819POPC   GL137309  29.876   2.001   8.853
 7819POPC   GL237310  29.830   2.046   8.853
 7819POPC   C1A37311  29.881   2.025   8.553
 7819POPC   D2A37312  29.878   1.993   8.253
 7819POPC   C3A37313  29.969   1.980   7.953
 7819POPC   C4A37314  29.906   1.949   7.653
 7819POPC   C1B37315  29.756   2.113   8.553
 7819POPC   C2B37316  29.747   2.108   8.253
 7819POPC   C3B37317  29.743   2.176   7.953
 7819POPC   C4B37318  29.706   2.083   7.653
 7820POPC   NC337319  13.612  22.130   9.453
 7820POPC   PO437320  13.606  22.199   9.153
 7820POPC   GL137321  13.608  22.192   8.853
 7820POPC   GL237322  13.693  22.106   8.853
 7820POPC   C1A37323  13.665  22.211   8.553
 7820POPC   D2A37324  13.586  22.137   8.253
 7820POPC   C3A37325  13.659  22.176   7.953
 7820POPC   C4A37326  13.637  22.168   7.653
 7820POPC   C1B37327  13.822  21.992   8.553
 7820POPC   C2B37328  13.880  22.024   8.253
 7820POPC   C3B37329  13.877  22.049   7.953
 7820POPC   C4B37330  13.846  22.023   7.653
 7821POPC   NC337331  44.699  16.722   9.453
 7821POPC   PO437332  44.630  16.704   9.153
 7821POPC   GL137333  44.653  16.737   8.853
 7821POPC   GL237334  44.637  16.596   8.853
 7821POPC   C1A37335  44.666  16.749   8.553
 7821POPC   D2A37336  44.695  16.735   8.253
 7821POPC   C3A37337  44.628  16.719   7.953
 7821POPC   C4A37338  44.619  16.682   7.653
 7821POPC   C1B37339  44.496  16.540   8.553
 7821POPC   C2B37340  44.508  16.483   8.253
 7821POPC   C3B37341  44.529  16.547   7.953
 7821POPC   C4B37342  44.565  16.552   7.653
 7822POPC   NC337343  42.327  40.010   9.453
 7822POPC   PO437344  42.321  39.988   9.153
 7822POPC   GL137345  42.384  39.984   8.853
 7822POPC   GL237346  42.177  40.038   8.853
 7822POPC   C1A37347  42.381  40.004   8.553
 7822POPC   D2A37348  42.316  40.013   8.253
 7822POPC   C3A37349  42.348  40.001   7.953
 7822POPC   C4A37350  42.384  39.999   7.653
 7822POPC   C1B37351  42.117  40.032   8.553
 7822POPC   C2B37352  42.106  39.975   8.253
 7822POPC   C3B37353  42.096  40.015   7.953
 7822POPC   C4B37354  42.120  39.998   7.653
 7823POPC   NC337355  26.051  39.981   9.453
 7823POPC   PO437356  26.078  39.987   9.153
 7823POPC   GL137357  26.072  39.969   8.853
 7823POPC   GL237358  26.098  39.894   8.853
 7823POPC   C1A37359  26.061  40.013   8.553
 7823POPC   D2A37360  26.040  39.985   8.253
 7823POPC   C3A37361  26.008  40.002   7.953
 7823POPC   C4A37362  26.039  40.015   7.653
 7823POPC   C1B37363  26.154  39.781   8.553
 7823POPC   C2B37364  26.230  39.807   8.253
 7823POPC   C3B37365  26.223  39.784   7.953
 7823POPC   C4B37366  26.155  39.834   7.653
 7824POPC   NC337367  19.799  29.951   9.453
 7824POPC   PO437368  19.839  29.908   9.153
 7824POPC   GL137369  19.795  29.940   8.853
 7824POPC   GL237370  19.662  29.951   8.853
 7824POPC   C1A37371  19.848  29.960   8.553
 7824POPC   D2A37372  19.871  29.881   8.253
 7824POPC   C3A37373  19.850  29.961   7.953
 7824POPC   C4A37374  19.864  29.925   7.653
 7824POPC   C1B37375  19.611  29.979   8.553
 7824POPC   C2B37376  19.551  29.936   8.253
 7824POPC   C3B37377  19.546  29.957   7.953
 7824POPC   C4B37378  19.605  29.988   7.653
 7825POPC   NC337379   6.600  26.852   9.453
 7825POPC   PO437380   6.654  26.812   9.153
 7825POPC   GL137381   6.617  26.867   8.853
 7825POPC   GL237382   6.516  26.908   8.853
 7825POPC   C1A37383   6.679  26.832   8.553
 7825POPC   D2A37384   6.601  26.779   8.253
 7825POPC   C3A37385   6.683  26.861   7.953
 7825POPC   C4A37386   6.611  26.844   7.653
 7825POPC   C1B37387   6.422  26.989   8.553
 7825POPC   C2B37388   6.409  26.996   8.253
 7825POPC   C3B37389   6.435  26.945   7.953
 7825POPC   C4B37390   6.501  26.978   7.653
 7826POPC   NC337391  10.574  37.638   9.453
 7826POPC   PO437392  10.484  37.683   9.153
 7826POPC   GL137393  10.502  37.702   8.853
 7826POPC   GL237394  10.639  37.734   8.853
 7826POPC   C1A37395  10.574  37.654   8.553
 7826POPC   D2A37396  10.482  37.682   8.253
 7826POPC   C3A37397  10.480  37.727   7.953
 7826POPC   C4A37398  10.573  37.654   7.653
 7826POPC   C1B37399  10.775  37.780   8.553
 7826POPC   C2B37400  10.769  37.821   8.253
 7826POPC   C3B37401  10.755  37.835   7.953
 7826POPC   C4B37402  10.784  37.825   7.653
 7827POPC   NC337403  39.970  26.048   9.453
 7827POPC   PO437404  39.966  26.090   9.153
 7827POPC   GL137405  40.005  26.010   8.853
 7827POPC   GL237406  40.046  25.968   8.853
 7827POPC   C1A37407  39.979  25.993   8.553
 7827POPC   D2A37408  40.000  26.022   8.253
 7827POPC   C3A37409  40.028  26.072   7.953
 7827POPC   C4A37410  40.001  26.038   7.653
 7827POPC   C1B37411  40.040  25.789   8.553
 7827POPC   C2B37412  40.056  25.822   8.253
 7827POPC   C3B37413  40.044  25.767   7.953
 7827POPC   C4B37414  40.045  25.827   7.653
 7828POPC   NC337415   7.382  12.096   9.453
 7828POPC   PO437416   7.467  12.033   9.153
 7828POPC   GL137417   7.452  12.113   8.853
 7828POPC   GL237418   7.545  12.164   8.853
 7828POPC   C1A37419   7.449  12.057   8.553
 7828POPC   D2A37420   7.405  12.092   8.253
 7828POPC   C3A37421   7.465  12.117   7.953
 7828POPC   C4A37422   7.435  12.048   7.653
 7828POPC   C1B37423   7.699  12.122   8.553
 7828POPC   C2B37424   7.653  12.171   8.253
 7828POPC   C3B37425   7.704  12.110   7.953
 7828POPC   C4B37426   7.611  12.186   7.653
 7829POPC   NC337427   5.886  23.670   9.453
 7829POPC   PO437428   5.859  23.754   9.153
 7829POPC   GL137429   5.874  23.669   8.853
 7829POPC   GL237430   5.995  23.777   8.853
 7829POPC   C1A37431   5.866  23.749   8.553
 7829POPC   D2A37432   5.917  23.751   8.253
 7829POPC   C3A37433   5.838  23.728   7.953
 7829POPC   C4A37434   5.830  23.689   7.653
 7829POPC   C1B37435   6.163  23.701   8.553
 7829POPC   C2B37436   6.141  23.788   8.253
 7829POPC   C3B37437   6.076  23.693   7.953
 7829POPC   C4B37438   6.128  23.780   7.653
 7830POPC   NC337439  26.794   9.004   9.453
 7830POPC   PO437440  26.821   8.993   9.153
 7830POPC   GL137441  26.866   8.938   8.853
 7830POPC   GL237442  26.673   8.958   8.853
 7830POPC   C1A37443  26.787   8.966   8.553
 7830POPC   D2A37444  26.843   8.960   8.253
 7830POPC   C3A37445  26.842   8.960   7.953
 7830POPC   C4A37446  26.844   9.010   7.653
 7830POPC   C1B37447  26.531   8.868   8.553
 7830POPC   C2B37448  26.615   8.960   8.253
 7830POPC   C3B37449  26.537   8.901   7.953
 7830POPC   C4B37450  26.616   8.949   7.653
 7831POPC   NC337451  19.075  26.049   9.453
 7831POPC   PO437452  19.030  26.038   9.153
 7831POPC   GL137453  19.097  26.088   8.853
 7831POPC   GL237454  19.076  25.960   8.853
 7831POPC   C1A37455  19.015  26.073   8.553
 7831POPC   D2A37456  19.024  26.023   8.253
 7831POPC   C3A37457  19.108  26.007   7.953
 7831POPC   C4A37458  19.010  26.014   7.653
 7831POPC   C1B37459  19.091  25.815   8.553
 7831POPC   C2B37460  19.068  25.765   8.253
 7831POPC   C3B37461  19.118  25.750   7.953
 7831POPC   C4B37462  19.052  25.804   7.653
 7832POPC   NC337463  15.964  42.312   9.453
 7832POPC   PO437464  15.968  42.368   9.153
 7832POPC   GL137465  15.919  42.373   8.853
 7832POPC   GL237466  15.972  42.435   8.853
 7832POPC   C1A37467  15.969  42.289   8.553
 7832POPC   D2A37468  16.004  42.290   8.253
 7832POPC   C3A37469  15.966  42.288   7.953
 7832POPC   C4A37470  15.988  42.357   7.653
 7832POPC   C1B37471  15.969  42.534   8.553
 7832POPC   C2B37472  16.022  42.545   8.253
 7832POPC   C3B37473  15.957  42.573   7.953
 7832POPC   C4B37474  16.021  42.540   7.653
 7833POPC   NC337475  12.867  22.164   9.453
 7833POPC   PO437476  12.842  22.199   9.153
 7833POPC   GL137477  12.892  22.157   8.853
 7833POPC   GL237478  12.797  22.253   8.853
 7833POPC   C1A37479  12.847  22.202   8.553
 7833POPC   D2A37480  12.891  22.170   8.253
 7833POPC   C3A37481  12.822  22.169   7.953
 7833POPC   C4A37482  12.824  22.175   7.653
 7833POPC   C1B37483  12.676  22.377   8.553
 7833POPC   C2B37484  12.668  22.302   8.253
 7833POPC   C3B37485  12.632  22.322   7.953
 7833POPC   C4B37486  12.631  22.347   7.653
 7834POPC   NC337487  37.676  33.806   9.453
 7834POPC   PO437488  37.699  33.831   9.153
 7834POPC   GL137489  37.704  33.758   8.853
 7834POPC   GL237490  37.609  33.936   8.853
 7834POPC   C1A37491  37.659  33.771   8.553
 7834POPC   D2A37492  37.697  33.809   8.253
 7834POPC   C3A37493  37.728  33.824   7.953
 7834POPC   C4A37494  37.637  33.769   7.653
 7834POPC   C1B37495  37.561  34.042   8.553
 7834POPC   C2B37496  37.584  34.050   8.253
 7834POPC   C3B37497  37.583  34.063   7.953
 7834POPC   C4B37498  37.590  34.027   7.653
 7835POPC   NC337499   8.986   9.736   9.453
 7835POPC   PO437500   8.931   9.750   9.153
 7835POPC   GL137501   8.971   9.778   8.853
 7835POPC   GL237502   8.946   9.655   8.853
 7835POPC   C1A37503   8.987   9.777   8.553
 7835POPC   D2A37504   8.941   9.724   8.253
 7835POPC   C3A37505   9.008   9.705   7.953
 7835POPC   C4A37506   9.013   9.753   7.653
 7835POPC   C1B37507   8.834   9.544   8.553
 7835POPC   C2B37508   8.909   9.485   8.253
 7835POPC   C3B37509   8.846   9.530   7.953
 7835POPC   C4B37510   8.911   9.560   7.653
 7836POPC   NC337511  24.492  42.363   9.453
 7836POPC   PO437512  24.529  42.331   9.153
 7836POPC   GL137513  24.505  42.295   8.853
 7836POPC   GL237514  24.594  42.406   8.853
 7836POPC   C1A37515  24.460  42.331   8.553
 7836POPC   D2A37516  24.528  42.345   8.253
 7836POPC   C3A37517  24.509  42.289   7.953
 7836POPC   C4A37518  24.490  42.299   7.653
 7836POPC   C1B37519  24.688  42.486   8.553
 7836POPC   C2B37520  24.625  42.565   8.253
 7836POPC   C3B37521  24.667  42.483   7.953
 7836POPC   C4B37522  24.616  42.546   7.653
 7837POPC   NC337523  14.432  10.572   9.453
 7837POPC   PO437524  14.447  10.524   9.153
 7837POPC   GL137525  14.364  10.493   8.853
 7837POPC   GL237526  14.386  10.372   8.853
 7837POPC   C1A37527  14.417  10.555   8.553
 7837POPC   D2A37528  14.369  10.480   8.253
 7837POPC   C3A37529  14.384  10.528   7.953
 7837POPC   C4A37530  14.433  10.548   7.653
 7837POPC   C1B37531  14.273  10.283   8.553
 7837POPC   C2B37532  14.305  10.335   8.253
 7837POPC   C3B37533  14.335  10.296   7.953
 7837POPC   C4B37534  14.298  10.319   7.653
 7838POPC   NC337535  22.919  22.914   9.453
 7838POPC   PO437536  22.979  22.954   9.153
 7838POPC   GL137537  22.905  22.963   8.853
 7838POPC   GL237538  23.077  22.890   8.853
 7838POPC   C1A37539  22.894  22.926   8.553
 7838POPC   D2A37540  22.910  22.967   8.253
 7838POPC   C3A37541  22.949  22.899   7.953
 7838POPC   C4A37542  22.987  22.918   7.653
 7838POPC   C1B37543  23.142  22.941   8.553
 7838POPC   C2B37544  23.229  22.863   8.253
 7838POPC   C3B37545  23.157  22.896   7.953
 7838POPC   C4B37546  23.225  22.871   7.653
 7839POPC   NC337547   1.170  30.712   9.453
 7839POPC   PO437548   1.187  30.664   9.153
 7839POPC   GL137549   1.177  30.704   8.853
 7839POPC   GL237550   1.229  30.541   8.853
 7839POPC   C1A37551   1.244  30.703   8.553
 7839POPC   D2A37552   1.199  30.681   8.253
 7839POPC   C3A37553   1.226  30.705   7.953
 7839POPC   C4A37554   1.181  30.694   7.653
 7839POPC   C1B37555   1.280  30.487   8.553
 7839POPC   C2B37556   1.254  30.444   8.253
 7839POPC   C3B37557   1.232  30.496   7.953
 7839POPC   C4B37558   1.290  30.492   7.653
 7840POPC   NC337559  29.179  43.072   9.453
 7840POPC   PO437560  29.183  43.081   9.153
 7840POPC   GL137561  29.138  43.148   8.853
 7840POPC   GL237562  28.980  43.070   8.853
 7840POPC   C1A37563  29.112  43.084   8.553
 7840POPC   D2A37564  29.097  43.113   8.253
 7840POPC   C3A37565  29.129  43.155   7.953
 7840POPC   C4A37566  29.182  43.147   7.653
 7840POPC   C1B37567  28.912  43.028   8.553
 7840POPC   C2B37568  28.869  43.040   8.253
 7840POPC   C3B37569  28.939  43.081   7.953
 7840POPC   C4B37570  28.938  43.100   7.653
 7841POPC   NC337571   6.685  25.257   9.453
 7841POPC   PO437572   6.650  25.251   9.153
 7841POPC   GL137573   6.661  25.302   8.853
 7841POPC   GL237574   6.611  25.138   8.853
 7841POPC   C1A37575   6.686  25.293   8.553
 7841POPC   D2A37576   6.601  25.249   8.253
 7841POPC   C3A37577   6.673  25.278   7.953
 7841POPC   C4A37578   6.689  25.223   7.653
 7841POPC   C1B37579   6.585  25.017   8.553
 7841POPC   C2B37580   6.613  24.978   8.253
 7841POPC   C3B37581   6.635  25.032   7.953
 7841POPC   C4B37582   6.572  25.011   7.653
 7842POPC   NC337583  32.213   2.754   9.453
 7842POPC   PO437584  32.271   2.798   9.153
 7842POPC   GL137585  32.200   2.778   8.853
 7842POPC   GL237586  32.325   2.779   8.853
 7842POPC   C1A37587  32.287   2.782   8.553
 7842POPC   D2A37588  32.241   2.742   8.253
 7842POPC   C3A37589  32.221   2.791   7.953
 7842POPC   C4A37590  32.260   2.803   7.653
 7842POPC   C1B37591  32.529   2.740   8.553
 7842POPC   C2B37592  32.488   2.767   8.253
 7842POPC   C3B37593  32.450   2.752   7.953
 7842POPC   C4B37594  32.465   2.784   7.653
 7843POPC   NC337595  38.457   5.892   9.453
 7843POPC   PO437596  38.408   5.884   9.153
 7843POPC   GL137597  38.496   5.913   8.853
 7843POPC   GL237598  38.298   5.841   8.853
 7843POPC   C1A37599  38.505   5.831   8.553
 7843POPC   D2A37600  38.473   5.894   8.253
 7843POPC   C3A37601  38.431   5.918   7.953
 7843POPC   C4A37602  38.490   5.822   7.653
 7843POPC   C1B37603  38.243   5.807   8.553
 7843POPC   C2B37604  38.239   5.823   8.253
 7843POPC   C3B37605  38.214   5.814   7.953
 7843POPC   C4B37606  38.174   5.765   7.653
 7844POPC   NC337607   6.694  12.050   9.453
 7844POPC   PO437608   6.603  12.074   9.153
 7844POPC   GL137609   6.614  12.093   8.853
 7844POPC   GL237610   6.568  11.931   8.853
 7844POPC   C1A37611   6.665  12.080   8.553
 7844POPC   D2A37612   6.609  12.046   8.253
 7844POPC   C3A37613   6.606  12.027   7.953
 7844POPC   C4A37614   6.666  12.092   7.653
 7844POPC   C1B37615   6.626  11.842   8.553
 7844POPC   C2B37616   6.561  11.804   8.253
 7844POPC   C3B37617   6.573  11.832   7.953
 7844POPC   C4B37618   6.541  11.787   7.653
 7845POPC   NC337619  36.923  17.514   9.453
 7845POPC   PO437620  36.910  17.538   9.153
 7845POPC   GL137621  36.884  17.495   8.853
 7845POPC   GL237622  36.891  17.404   8.853
 7845POPC   C1A37623  36.883  17.524   8.553
 7845POPC   D2A37624  36.888  17.553   8.253
 7845POPC   C3A37625  36.901  17.496   7.953
 7845POPC   C4A37626  36.895  17.469   7.653
 7845POPC   C1B37627  36.736  17.325   8.553
 7845POPC   C2B37628  36.747  17.247   8.253
 7845POPC   C3B37629  36.825  17.253   7.953
 7845POPC   C4B37630  36.819  17.285   7.653
 7846POPC   NC337631  38.450   8.233   9.453
 7846POPC   PO437632  38.453   8.187   9.153
 7846POPC   GL137633  38.410   8.189   8.853
 7846POPC   GL237634  38.438   8.357   8.853
 7846POPC   C1A37635  38.409   8.209   8.553
 7846POPC   D2A37636  38.467   8.192   8.253
 7846POPC   C3A37637  38.459   8.152   7.953
 7846POPC   C4A37638  38.469   8.230   7.653
 7846POPC   C1B37639  38.386   8.403   8.553
 7846POPC   C2B37640  38.353   8.413   8.253
 7846POPC   C3B37641  38.381   8.418   7.953
 7846POPC   C4B37642  38.434   8.391   7.653
 7847POPC   NC337643  29.098  23.717   9.453
 7847POPC   PO437644  29.110  23.709   9.153
 7847POPC   GL137645  29.105  23.692   8.853
 7847POPC   GL237646  29.130  23.879   8.853
 7847POPC   C1A37647  29.187  23.724   8.553
 7847POPC   D2A37648  29.152  23.699   8.253
 7847POPC   C3A37649  29.180  23.703   7.953
 7847POPC   C4A37650  29.158  23.758   7.653
 7847POPC   C1B37651  29.125  23.945   8.553
 7847POPC   C2B37652  29.177  23.986   8.253
 7847POPC   C3B37653  29.100  23.932   7.953
 7847POPC   C4B37654  29.149  23.954   7.653
 7848POPC   NC337655  17.496  37.680   9.453
 7848POPC   PO437656  17.541  37.711   9.153
 7848POPC   GL137657  17.543  37.653   8.853
 7848POPC   GL237658  17.680  37.647   8.853
 7848POPC   C1A37659  17.542  37.631   8.553
 7848POPC   D2A37660  17.460  37.715   8.253
 7848POPC   C3A37661  17.486  37.712   7.953
 7848POPC   C4A37662  17.542  37.659   7.653
 7848POPC   C1B37663  17.789  37.689   8.553
 7848POPC   C2B37664  17.719  37.652   8.253
 7848POPC   C3B37665  17.773  37.676   7.953
 7848POPC   C4B37666  17.728  37.640   7.653
 7849POPC   NC337667  24.464  14.383   9.453
 7849POPC   PO437668  24.485  14.427   9.153
 7849POPC   GL137669  24.519  14.404   8.853
 7849POPC   GL237670  24.470  14.283   8.853
 7849POPC   C1A37671  24.459  14.361   8.553
 7849POPC   D2A37672  24.485  14.422   8.253
 7849POPC   C3A37673  24.476  14.442   7.953
 7849POPC   C4A37674  24.473  14.421   7.653
 7849POPC   C1B37675  24.380  14.208   8.553
 7849POPC   C2B37676  24.409  14.131   8.253
 7849POPC   C3B37677  24.358  14.200   7.953
 7849POPC   C4B37678  24.368  14.138   7.653
 7850POPC   NC337679  31.518  28.412   9.453
 7850POPC   PO437680  31.440  28.364   9.153
 7850POPC   GL137681  31.481  28.394   8.853
 7850POPC   GL237682  31.580  28.319   8.853
 7850POPC   C1A37683  31.509  28.361   8.553
 7850POPC   D2A37684  31.428  28.326   8.253
 7850POPC   C3A37685  31.489  28.327   7.953
 7850POPC   C4A37686  31.504  28.324   7.653
 7850POPC   C1B37687  31.713  28.349   8.553
 7850POPC   C2B37688  31.697  28.299   8.253
 7850POPC   C3B37689  31.703  28.290   7.953
 7850POPC   C4B37690  31.770  28.347   7.653
 7851POPC   NC337691  37.699  34.554   9.453
 7851POPC   PO437692  37.688  34.599   9.153
 7851POPC   GL137693  37.697  34.581   8.853
 7851POPC   GL237694  37.569  34.611   8.853
 7851POPC   C1A37695  37.703  34.624   8.553
 7851POPC   D2A37696  37.686  34.596   8.253
 7851POPC   C3A37697  37.657  34.624   7.953
 7851POPC   C4A37698  37.704  34.537   7.653
 7851POPC   C1B37699  37.479  34.637   8.553
 7851POPC   C2B37700  37.441  34.582   8.253
 7851POPC   C3B37701  37.470  34.582   7.953
 7851POPC   C4B37702  37.454  34.585   7.653
 7852POPC   NC337703  32.255  12.084   9.453
 7852POPC   PO437704  32.230  12.074   9.153
 7852POPC   GL137705  32.204  12.094   8.853
 7852POPC   GL237706  32.209  11.902   8.853
 7852POPC   C1A37707  32.292  12.072   8.553
 7852POPC   D2A37708  32.251  12.114   8.253
 7852POPC   C3A37709  32.208  12.036   7.953
 7852POPC   C4A37710  32.267  12.053   7.653
 7852POPC   C1B37711  32.213  11.858   8.553
 7852POPC   C2B37712  32.246  11.812   8.253
 7852POPC   C3B37713  32.246  11.784   7.953
 7852POPC   C4B37714  32.191  11.812   7.653
 7853POPC   NC337715   8.169  13.610   9.453
 7853POPC   PO437716   8.235  13.611   9.153
 7853POPC   GL137717   8.229  13.619   8.853
 7853POPC   GL237718   8.238  13.547   8.853
 7853POPC   C1A37719   8.170  13.629   8.553
 7853POPC   D2A37720   8.210  13.604   8.253
 7853POPC   C3A37721   8.160  13.644   7.953
 7853POPC   C4A37722   8.216  13.598   7.653
 7853POPC   C1B37723   8.253  13.403   8.553
 7853POPC   C2B37724   8.233  13.423   8.253
 7853POPC   C3B37725   8.220  13.392   7.953
 7853POPC   C4B37726   8.253  13.377   7.653
 7854POPC   NC337727  12.104   8.182   9.453
 7854POPC   PO437728  12.031   8.245   9.153
 7854POPC   GL137729  12.103   8.241   8.853
 7854POPC   GL237730  11.993   8.251   8.853
 7854POPC   C1A37731  12.035   8.236   8.553
 7854POPC   D2A37732  12.124   8.168   8.253
 7854POPC   C3A37733  12.056   8.168   7.953
 7854POPC   C4A37734  12.054   8.216   7.653
 7854POPC   C1B37735  11.896   8.282   8.553
 7854POPC   C2B37736  11.842   8.337   8.253
 7854POPC   C3B37737  11.904   8.298   7.953
 7854POPC   C4B37738  11.825   8.286   7.653
 7855POPC   NC337739  12.098   7.451   9.453
 7855POPC   PO437740  12.086   7.373   9.153
 7855POPC   GL137741  12.095   7.391   8.853
 7855POPC   GL237742  12.085   7.257   8.853
 7855POPC   C1A37743  12.027   7.403   8.553
 7855POPC   D2A37744  12.086   7.386   8.253
 7855POPC   C3A37745  12.066   7.429   7.953
 7855POPC   C4A37746  12.055   7.464   7.653
 7855POPC   C1B37747  12.133   7.190   8.553
 7855POPC   C2B37748  12.138   7.211   8.253
 7855POPC   C3B37749  12.105   7.150   7.953
 7855POPC   C4B37750  12.057   7.144   7.653
 7856POPC   NC337751   5.889  22.137   9.453
 7856POPC   PO437752   5.840  22.165   9.153
 7856POPC   GL137753   5.858  22.116   8.853
 7856POPC   GL237754   5.783  22.053   8.853
 7856POPC   C1A37755   5.851  22.149   8.553
 7856POPC   D2A37756   5.875  22.143   8.253
 7856POPC   C3A37757   5.828  22.147   7.953
 7856POPC   C4A37758   5.891  22.147   7.653
 7856POPC   C1B37759   5.634  22.023   8.553
 7856POPC   C2B37760   5.685  22.017   8.253
 7856POPC   C3B37761   5.654  21.990   7.953
 7856POPC   C4B37762   5.717  21.955   7.653
 7857POPC   NC337763  37.715  18.239   9.453
 7857POPC   PO437764  37.694  18.301   9.153
 7857POPC   GL137765  37.670  18.272   8.853
 7857POPC   GL237766  37.684  18.138   8.853
 7857POPC   C1A37767  37.681  18.249   8.553
 7857POPC   D2A37768  37.635  18.291   8.253
 7857POPC   C3A37769  37.710  18.240   7.953
 7857POPC   C4A37770  37.726  18.287   7.653
 7857POPC   C1B37771  37.791  18.044   8.553
 7857POPC   C2B37772  37.805  18.075   8.253
 7857POPC   C3B37773  37.797  18.066   7.953
 7857POPC   C4B37774  37.798  18.009   7.653
 7858POPC   NC337775   5.836  31.512   9.453
 7858POPC   PO437776   5.910  31.444   9.153
 7858POPC   GL137777   5.846  31.426   8.853
 7858POPC   GL237778   5.860  31.369   8.853
 7858POPC   C1A37779   5.867  31.481   8.553
 7858POPC   D2A37780   5.887  31.480   8.253
 7858POPC   C3A37781   5.895  31.502   7.953
 7858POPC   C4A37782   5.903  31.470   7.653
 7858POPC   C1B37783   5.912  31.180   8.553
 7858POPC   C2B37784   5.949  31.247   8.253
 7858POPC   C3B37785   5.899  31.264   7.953
 7858POPC   C4B37786   5.929  31.229   7.653
 7859POPC   NC337787  12.897  39.985   9.453
 7859POPC   PO437788  12.841  39.995   9.153
 7859POPC   GL137789  12.853  40.043   8.853
 7859POPC   GL237790  12.741  40.003   8.853
 7859POPC   C1A37791  12.806  40.010   8.553
 7859POPC   D2A37792  12.833  40.000   8.253
 7859POPC   C3A37793  12.818  40.001   7.953
 7859POPC   C4A37794  12.856  39.958   7.653
 7859POPC   C1B37795  12.570  39.900   8.553
 7859POPC   C2B37796  12.614  39.977   8.253
 7859POPC   C3B37797  12.659  39.904   7.953
 7859POPC   C4B37798  12.642  39.901   7.653
 7860POPC   NC337799  32.203  12.806   9.453
 7860POPC   PO437800  32.238  12.825   9.153
 7860POPC   GL137801  32.236  12.804   8.853
 7860POPC   GL237802  32.158  12.902   8.853
 7860POPC   C1A37803  32.259  12.892   8.553
 7860POPC   D2A37804  32.227  12.887   8.253
 7860POPC   C3A37805  32.231  12.852   7.953
 7860POPC   C4A37806  32.251  12.832   7.653
 7860POPC   C1B37807  32.003  12.824   8.553
 7860POPC   C2B37808  32.034  12.877   8.253
 7860POPC   C3B37809  31.993  12.860   7.953
 7860POPC   C4B37810  31.969  12.844   7.653
 7861POPC   NC337811   5.873  21.425   9.453
 7861POPC   PO437812   5.895  21.397   9.153
 7861POPC   GL137813   5.822  21.433   8.853
 7861POPC   GL237814   5.984  21.478   8.853
 7861POPC   C1A37815   5.839  21.426   8.553
 7861POPC   D2A37816   5.861  21.414   8.253
 7861POPC   C3A37817   5.896  21.375   7.953
 7861POPC   C4A37818   5.873  21.412   7.653
 7861POPC   C1B37819   6.056  21.538   8.553
 7861POPC   C2B37820   6.066  21.539   8.253
 7861POPC   C3B37821   6.086  21.459   7.953
 7861POPC   C4B37822   6.044  21.458   7.653
 7862POPC   NC337823  21.371  22.905   9.453
 7862POPC   PO437824  21.378  22.937   9.153
 7862POPC   GL137825  21.401  22.960   8.853
 7862POPC   GL237826  21.498  22.850   8.853
 7862POPC   C1A37827  21.362  22.960   8.553
 7862POPC   D2A37828  21.370  22.954   8.253
 7862POPC   C3A37829  21.339  22.940   7.953
 7862POPC   C4A37830  21.358  22.982   7.653
 7862POPC   C1B37831  21.641  22.875   8.553
 7862POPC   C2B37832  21.662  22.858   8.253
 7862POPC   C3B37833  21.600  22.885   7.953
 7862POPC   C4B37834  21.650  22.799   7.653
 7863POPC   NC337835  42.315  13.653   9.453
 7863POPC   PO437836  42.314  13.593   9.153
 7863POPC   GL137837  42.296  13.665   8.853
 7863POPC   GL237838  42.187  13.728   8.853
 7863POPC   C1A37839  42.377  13.656   8.553
 7863POPC   D2A37840  42.379  13.629   8.253
 7863POPC   C3A37841  42.314  13.665   7.953
 7863POPC   C4A37842  42.309  13.654   7.653
 7863POPC   C1B37843  42.120  13.757   8.553
 7863POPC   C2B37844  42.126  13.696   8.253
 7863POPC   C3B37845  42.138  13.774   7.953
 7863POPC   C4B37846  42.070  13.748   7.653
 7864POPC   NC337847  24.448  12.100   9.453
 7864POPC   PO437848  24.533  12.090   9.153
 7864POPC   GL137849  24.473  12.101   8.853
 7864POPC   GL237850  24.528  12.212   8.853
 7864POPC   C1A37851  24.519  12.078   8.553
 7864POPC   D2A37852  24.472  12.125   8.253
 7864POPC   C3A37853  24.463  12.123   7.953
 7864POPC   C4A37854  24.510  12.120   7.653
 7864POPC   C1B37855  24.482  12.370   8.553
 7864POPC   C2B37856  24.502  12.304   8.253
 7864POPC   C3B37857  24.560  12.328   7.953
 7864POPC   C4B37858  24.548  12.367   7.653
 7865POPC   NC337859  23.747  12.821   9.453
 7865POPC   PO437860  23.758  12.899   9.153
 7865POPC   GL137861  23.762  12.807   8.853
 7865POPC   GL237862  23.691  12.732   8.853
 7865POPC   C1A37863  23.698  12.871   8.553
 7865POPC   D2A37864  23.743  12.837   8.253
 7865POPC   C3A37865  23.732  12.824   7.953
 7865POPC   C4A37866  23.732  12.819   7.653
 7865POPC   C1B37867  23.630  12.586   8.553
 7865POPC   C2B37868  23.705  12.621   8.253
 7865POPC   C3B37869  23.710  12.569   7.953
 7865POPC   C4B37870  23.661  12.629   7.653
 7866POPC   NC337871  22.159   1.254   9.453
 7866POPC   PO437872  22.135   1.250   9.153
 7866POPC   GL137873  22.205   1.186   8.853
 7866POPC   GL237874  21.990   1.206   8.853
 7866POPC   C1A37875  22.142   1.257   8.553
 7866POPC   D2A37876  22.156   1.212   8.253
 7866POPC   C3A37877  22.172   1.219   7.953
 7866POPC   C4A37878  22.167   1.198   7.653
 7866POPC   C1B37879  21.945   1.159   8.553
 7866POPC   C2B37880  21.962   1.154   8.253
 7866POPC   C3B37881  21.866   1.204   7.953
 7866POPC   C4B37882  21.922   1.221   7.653
 7867POPC   NC337883  39.269  39.971   9.453
 7867POPC   PO437884  39.204  39.971   9.153
 7867POPC   GL137885  39.260  40.000   8.853
 7867POPC   GL237886  39.319  39.977   8.853
 7867POPC   C1A37887  39.214  40.018   8.553
 7867POPC   D2A37888  39.263  40.037   8.253
 7867POPC   C3A37889  39.250  39.978   7.953
 7867POPC   C4A37890  39.189  39.970   7.653
 7867POPC   C1B37891  39.469  39.977   8.553
 7867POPC   C2B37892  39.478  39.908   8.253
 7867POPC   C3B37893  39.468  39.979   7.953
 7867POPC   C4B37894  39.446  39.898   7.653
 7868POPC   NC337895  26.050  19.097   9.453
 7868POPC   PO437896  26.062  19.071   9.153
 7868POPC   GL137897  26.048  19.027   8.853
 7868POPC   GL237898  26.152  19.008   8.853
 7868POPC   C1A37899  25.997  19.043   8.553
 7868POPC   D2A37900  26.008  19.027   8.253
 7868POPC   C3A37901  26.070  19.081   7.953
 7868POPC   C4A37902  26.078  19.018   7.653
 7868POPC   C1B37903  26.308  19.033   8.553
 7868POPC   C2B37904  26.276  18.982   8.253
 7868POPC   C3B37905  26.305  18.998   7.953
 7868POPC   C4B37906  26.301  19.025   7.653
 7869POPC   NC337907  21.406  30.681   9.453
 7869POPC   PO437908  21.346  30.678   9.153
 7869POPC   GL137909  21.407  30.692   8.853
 7869POPC   GL237910  21.410  30.867   8.853
 7869POPC   C1A37911  21.417  30.655   8.553
 7869POPC   D2A37912  21.407  30.736   8.253
 7869POPC   C3A37913  21.352  30.727   7.953
 7869POPC   C4A37914  21.405  30.741   7.653
 7869POPC   C1B37915  21.420  30.916   8.553
 7869POPC   C2B37916  21.356  30.908   8.253
 7869POPC   C3B37917  21.416  30.932   7.953
 7869POPC   C4B37918  21.365  30.930   7.653
 7870POPC   NC337919  19.873  25.276   9.453
 7870POPC   PO437920  19.845  25.224   9.153
 7870POPC   GL137921  19.849  25.236   8.853
 7870POPC   GL237922  19.945  25.195   8.853
 7870POPC   C1A37923  19.826  25.296   8.553
 7870POPC   D2A37924  19.868  25.282   8.253
 7870POPC   C3A37925  19.803  25.240   7.953
 7870POPC   C4A37926  19.843  25.287   7.653
 7870POPC   C1B37927  20.096  25.174   8.553
 7870POPC   C2B37928  20.015  25.206   8.253
 7870POPC   C3B37929  20.094  25.176   7.953
 7870POPC   C4B37930  20.090  25.187   7.653
 7871POPC   NC337931  30.717  26.011   9.453
 7871POPC   PO437932  30.673  26.052   9.153
 7871POPC   GL137933  30.693  26.020   8.853
 7871POPC   GL237934  30.596  26.156   8.853
 7871POPC   C1A37935  30.649  26.035   8.553
 7871POPC   D2A37936  30.684  26.054   8.253
 7871POPC   C3A37937  30.651  26.077   7.953
 7871POPC   C4A37938  30.710  26.030   7.653
 7871POPC   C1B37939  30.517  26.218   8.553
 7871POPC   C2B37940  30.524  26.265   8.253
 7871POPC   C3B37941  30.554  26.195   7.953
 7871POPC   C4B37942  30.567  26.224   7.653
 7872POPC   NC337943   0.455  17.522   9.453
 7872POPC   PO437944   0.447  17.556   9.153
 7872POPC   GL137945   0.434  17.511   8.853
 7872POPC   GL237946   0.534  17.588   8.853
 7872POPC   C1A37947   0.415  17.549   8.553
 7872POPC   D2A37948   0.396  17.541   8.253
 7872POPC   C3A37949   0.461  17.465   7.953
 7872POPC   C4A37950   0.408  17.461   7.653
 7872POPC   C1B37951   0.651  17.649   8.553
 7872POPC   C2B37952   0.679  17.697   8.253
 7872POPC   C3B37953   0.617  17.706   7.953
 7872POPC   C4B37954   0.674  17.649   7.653
 7873POPC   NC337955  42.306  28.347   9.453
 7873POPC   PO437956  42.305  28.353   9.153
 7873POPC   GL137957  42.350  28.375   8.853
 7873POPC   GL237958  42.455  28.370   8.853
 7873POPC   C1A37959  42.377  28.392   8.553
 7873POPC   D2A37960  42.376  28.355   8.253
 7873POPC   C3A37961  42.354  28.368   7.953
 7873POPC   C4A37962  42.343  28.352   7.653
 7873POPC   C1B37963  42.542  28.280   8.553
 7873POPC   C2B37964  42.585  28.250   8.253
 7873POPC   C3B37965  42.535  28.264   7.953
 7873POPC   C4B37966  42.529  28.280   7.653
 7874POPC   NC337967  21.431   9.001   9.453
 7874POPC   PO437968  21.371   8.932   9.153
 7874POPC   GL137969  21.389   8.973   8.853
 7874POPC   GL237970  21.441   8.909   8.853
 7874POPC   C1A37971  21.407   8.980   8.553
 7874POPC   D2A37972  21.345   9.012   8.253
 7874POPC   C3A37973  21.412   9.007   7.953
 7874POPC   C4A37974  21.411   8.975   7.653
 7874POPC   C1B37975  21.542   8.763   8.553
 7874POPC   C2B37976  21.461   8.768   8.253
 7874POPC   C3B37977  21.503   8.773   7.953
 7874POPC   C4B37978  21.474   8.709   7.653
 7875POPC   NC337979   6.666  32.254   9.453
 7875POPC   PO437980   6.663  32.298   9.153
 7875POPC   GL137981   6.674  32.214   8.853
 7875POPC   GL237982   6.578  32.116   8.853
 7875POPC   C1A37983   6.684  32.258   8.553
 7875POPC   D2A37984   6.640  32.211   8.253
 7875POPC   C3A37985   6.648  32.282   7.953
 7875POPC   C4A37986   6.691  32.240   7.653
 7875POPC   C1B37987   6.480  32.001   8.553
 7875POPC   C2B37988   6.515  32.032   8.253
 7875POPC   C3B37989   6.458  32.033   7.953
 7875POPC   C4B37990   6.490  32.042   7.653
 7876POPC   NC337991  34.608  18.278   9.453
 7876POPC   PO437992  34.587  18.278   9.153
 7876POPC   GL137993  34.588  18.321   8.853
 7876POPC   GL237994  34.642  18.386   8.853
 7876POPC   C1A37995  34.546  18.244   8.553
 7876POPC   D2A37996  34.528  18.272   8.253
 7876POPC   C3A37997  34.561  18.281   7.953
 7876POPC   C4A37998  34.539  18.265   7.653
 7876POPC   C1B37999  34.826  18.388   8.553
 7876POPC   C2B38000  34.769  18.349   8.253
 7876POPC   C3B38001  34.785  18.357   7.953
 7876POPC   C4B38002  34.808  18.376   7.653
 7877POPC   NC338003  18.269  32.248   9.453
 7877POPC   PO438004  18.296  32.236   9.153
 7877POPC   GL138005  18.290  32.267   8.853
 7877POPC   GL238006  18.431  32.286   8.853
 7877POPC   C1A38007  18.292  32.285   8.553
 7877POPC   D2A38008  18.282  32.296   8.253
 7877POPC   C3A38009  18.290  32.221   7.953
 7877POPC   C4A38010  18.292  32.261   7.653
 7877POPC   C1B38011  18.516  32.369   8.553
 7877POPC   C2B38012  18.445  32.375   8.253
 7877POPC   C3B38013  18.502  32.376   7.953
 7877POPC   C4B38014  18.498  32.414   7.653
 7878POPC   NC338015   1.228  12.052   9.453
 7878POPC   PO438016   1.177  12.101   9.153
 7878POPC   GL138017   1.245  12.049   8.853
 7878POPC   GL238018   1.125  12.097   8.853
 7878POPC   C1A38019   1.252  12.085   8.553
 7878POPC   D2A38020   1.186  12.106   8.253
 7878POPC   C3A38021   1.172  12.040   7.953
 7878POPC   C4A38022   1.177  12.053   7.653
 7878POPC   C1B38023   0.957  12.165   8.553
 7878POPC   C2B38024   1.038  12.226   8.253
 7878POPC   C3B38025   0.999  12.158   7.953
 7878POPC   C4B38026   0.983  12.153   7.653
 7879POPC   NC338027   8.929   6.643   9.453
 7879POPC   PO438028   9.015   6.673   9.153
 7879POPC   GL138029   8.952   6.675   8.853
 7879POPC   GL238030   8.970   6.533   8.853
 7879POPC   C1A38031   8.932   6.660   8.553
 7879POPC   D2A38032   8.984   6.654   8.253
 7879POPC   C3A38033   8.941   6.669   7.953
 7879POPC   C4A38034   8.979   6.691   7.653
 7879POPC   C1B38035   8.908   6.399   8.553
 7879POPC   C2B38036   8.885   6.366   8.253
 7879POPC   C3B38037   8.895   6.436   7.953
 7879POPC   C4B38038   8.969   6.373   7.653
 7880POPC   NC338039  37.680  35.313   9.453
 7880POPC   PO438040  37.665  35.366   9.153
 7880POPC   GL138041  37.631  35.307   8.853
 7880POPC   GL238042  37.739  35.269   8.853
 7880POPC   C1A38043  37.668  35.388   8.553
 7880POPC   D2A38044  37.720  35.363   8.253
 7880POPC   C3A38045  37.724  35.317   7.953
 7880POPC   C4A38046  37.641  35.395   7.653
 7880POPC   C1B38047  37.846  35.212   8.553
 7880POPC   C2B38048  37.874  35.228   8.253
 7880POPC   C3B38049  37.884  35.192   7.953
 7880POPC   C4B38050  37.898  35.271   7.653
 7881POPC   NC338051  22.980   8.214   9.453
 7881POPC   PO438052  22.919   8.202   9.153
 7881POPC   GL138053  22.899   8.154   8.853
 7881POPC   GL238054  22.837   8.333   8.853
 7881POPC   C1A38055  22.978   8.154   8.553
 7881POPC   D2A38056  22.934   8.191   8.253
 7881POPC   C3A38057  22.936   8.244   7.953
 7881POPC   C4A38058  22.959   8.229   7.653
 7881POPC   C1B38059  22.842   8.427   8.553
 7881POPC   C2B38060  22.844   8.386   8.253
 7881POPC   C3B38061  22.797   8.467   7.953
 7881POPC   C4B38062  22.878   8.433   7.653
 7882POPC   NC338063  36.089  16.751   9.453
 7882POPC   PO438064  36.096  16.731   9.153
 7882POPC   GL138065  36.130  16.687   8.853
 7882POPC   GL238066  36.078  16.833   8.853
 7882POPC   C1A38067  36.125  16.731   8.553
 7882POPC   D2A38068  36.094  16.754   8.253
 7882POPC   C3A38069  36.142  16.748   7.953
 7882POPC   C4A38070  36.144  16.700   7.653
 7882POPC   C1B38071  36.030  16.933   8.553
 7882POPC   C2B38072  36.110  17.021   8.253
 7882POPC   C3B38073  36.082  16.933   7.953
 7882POPC   C4B38074  36.124  17.020   7.653
 7883POPC   NC338075  12.104   6.607   9.453
 7883POPC   PO438076  12.095   6.659   9.153
 7883POPC   GL138077  12.071   6.695   8.853
 7883POPC   GL238078  11.986   6.522   8.853
 7883POPC   C1A38079  12.080   6.630   8.553
 7883POPC   D2A38080  12.123   6.676   8.253
 7883POPC   C3A38081  12.107   6.634   7.953
 7883POPC   C4A38082  12.100   6.675   7.653
 7883POPC   C1B38083  11.959   6.499   8.553
 7883POPC   C2B38084  11.918   6.485   8.253
 7883POPC   C3B38085  11.925   6.467   7.953
 7883POPC   C4B38086  11.937   6.478   7.653
 7884POPC   NC338087  43.927   1.987   9.453
 7884POPC   PO438088  43.884   1.976   9.153
 7884POPC   GL138089  43.905   1.990   8.853
 7884POPC   GL238090  43.780   2.030   8.853
 7884POPC   C1A38091  43.891   2.012   8.553
 7884POPC   D2A38092  43.919   2.036   8.253
 7884POPC   C3A38093  43.836   2.039   7.953
 7884POPC   C4A38094  43.849   1.961   7.653
 7884POPC   C1B38095  43.656   1.984   8.553
 7884POPC   C2B38096  43.603   2.024   8.253
 7884POPC   C3B38097  43.615   2.045   7.953
 7884POPC   C4B38098  43.629   2.068   7.653
 7885POPC   NC338099   8.158  39.254   9.453
 7885POPC   PO438100   8.240  39.262   9.153
 7885POPC   GL138101   8.191  39.273   8.853
 7885POPC   GL238102   8.271  39.348   8.853
 7885POPC   C1A38103   8.170  39.279   8.553
 7885POPC   D2A38104   8.220  39.185   8.253
 7885POPC   C3A38105   8.179  39.275   7.953
 7885POPC   C4A38106   8.177  39.191   7.653
 7885POPC   C1B38107   8.304  39.424   8.553
 7885POPC   C2B38108   8.323  39.425   8.253
 7885POPC   C3B38109   8.261  39.477   7.953
 7885POPC   C4B38110   8.287  39.482   7.653
 7886POPC   NC338111  10.559  31.447   9.453
 7886POPC   PO438112  10.561  31.435   9.153
 7886POPC   GL138113  10.526  31.494   8.853
 7886POPC   GL238114  10.656  31.480   8.853
 7886POPC   C1A38115  10.521  31.462   8.553
 7886POPC   D2A38116  10.561  31.471   8.253
 7886POPC   C3A38117  10.514  31.518   7.953
 7886POPC   C4A38118  10.524  31.426   7.653
 7886POPC   C1B38119  10.788  31.576   8.553
 7886POPC   C2B38120  10.718  31.537   8.253
 7886POPC   C3B38121  10.708  31.600   7.953
 7886POPC   C4B38122  10.741  31.553   7.653
 7887POPC   NC338123   0.484  44.651   9.453
 7887POPC   PO438124   0.445  44.711   9.153
 7887POPC   GL138125   0.393  44.693   8.853
 7887POPC   GL238126   0.555  44.777   8.853
 7887POPC   C1A38127   0.469  44.626   8.553
 7887POPC   D2A38128   0.456  44.710   8.253
 7887POPC   C3A38129   0.467  44.677   7.953
 7887POPC   C4A38130   0.485  44.641   7.653
 7887POPC   C1B38131   0.619  44.832   8.553
 7887POPC   C2B38132   0.652  44.779   8.253
 7887POPC   C3B38133   0.652  44.763   7.953
 7887POPC   C4B38134   0.687  44.795   7.653
 7888POPC   NC338135  33.001  12.048   9.453
 7888POPC   PO438136  33.045  12.045   9.153
 7888POPC   GL138137  33.001  12.074   8.853
 7888POPC   GL238138  33.030  12.214   8.853
 7888POPC   C1A38139  33.047  12.050   8.553
 7888POPC   D2A38140  33.004  12.039   8.253
 7888POPC   C3A38141  32.991  12.076   7.953
 7888POPC   C4A38142  33.071  12.097   7.653
 7888POPC   C1B38143  33.044  12.293   8.553
 7888POPC   C2B38144  32.965  12.290   8.253
 7888POPC   C3B38145  32.974  12.329   7.953
 7888POPC   C4B38146  32.960  12.282   7.653
 7889POPC   NC338147   0.486  25.275   9.453
 7889POPC   PO438148   0.434  25.255   9.153
 7889POPC   GL138149   0.441  25.273   8.853
 7889POPC   GL238150   0.428  25.364   8.853
 7889POPC   C1A38151   0.446  25.272   8.553
 7889POPC   D2A38152   0.460  25.315   8.253
 7889POPC   C3A38153   0.429  25.309   7.953
 7889POPC   C4A38154   0.439  25.271   7.653
 7889POPC   C1B38155   0.537  25.537   8.553
 7889POPC   C2B38156   0.545  25.531   8.253
 7889POPC   C3B38157   0.463  25.510   7.953
 7889POPC   C4B38158   0.548  25.540   7.653
 7890POPC   NC338159  36.132  12.860   9.453
 7890POPC   PO438160  36.151  12.825   9.153
 7890POPC   GL138161  36.120  12.875   8.853
 7890POPC   GL238162  36.180  12.937   8.853
 7890POPC   C1A38163  36.139  12.814   8.553
 7890POPC   D2A38164  36.107  12.858   8.253
 7890POPC   C3A38165  36.131  12.860   7.953
 7890POPC   C4A38166  36.177  12.825   7.653
 7890POPC   C1B38167  36.328  13.080   8.553
 7890POPC   C2B38168  36.237  13.014   8.253
 7890POPC   C3B38169  36.271  13.096   7.953
 7890POPC   C4B38170  36.326  13.043   7.653
 7891POPC   NC338171  37.651  36.095   9.453
 7891POPC   PO438172  37.711  36.146   9.153
 7891POPC   GL138173  37.706  36.092   8.853
 7891POPC   GL238174  37.700  36.251   8.853
 7891POPC   C1A38175  37.644  36.107   8.553
 7891POPC   D2A38176  37.633  36.097   8.253
 7891POPC   C3A38177  37.674  36.173   7.953
 7891POPC   C4A38178  37.675  36.086   7.653
 7891POPC   C1B38179  37.664  36.413   8.553
 7891POPC   C2B38180  37.672  36.349   8.253
 7891POPC   C3B38181  37.653  36.386   7.953
 7891POPC   C4B38182  37.697  36.329   7.653
 7892POPC   NC338183   7.392  44.667   9.453
 7892POPC   PO438184   7.425  44.626   9.153
 7892POPC   GL138185   7.426  44.624   8.853
 7892POPC   GL238186   7.578  44.595   8.853
 7892POPC   C1A38187   7.432  44.614   8.553
 7892POPC   D2A38188   7.392  44.669   8.253
 7892POPC   C3A38189   7.410  44.660   7.953
 7892POPC   C4A38190   7.398  44.707   7.653
 7892POPC   C1B38191   7.686  44.588   8.553
 7892POPC   C2B38192   7.658  44.569   8.253
 7892POPC   C3B38193   7.690  44.620   7.953
 7892POPC   C4B38194   7.675  44.620   7.653
 7893POPC   NC338195  40.739  11.272   9.453
 7893POPC   PO438196  40.747  11.315   9.153
 7893POPC   GL138197  40.829  11.315   8.853
 7893POPC   GL238198  40.951  11.247   8.853
 7893POPC   C1A38199  40.803  11.274   8.553
 7893POPC   D2A38200  40.777  11.345   8.253
 7893POPC   C3A38201  40.787  11.259   7.953
 7893POPC   C4A38202  40.832  11.315   7.653
 7893POPC   C1B38203  41.010  11.199   8.553
 7893POPC   C2B38204  41.076  11.228   8.253
 7893POPC   C3B38205  40.985  11.271   7.953
 7893POPC   C4B38206  41.028  11.201   7.653
 7894POPC   NC338207  37.716  23.715   9.453
 7894POPC   PO438208  37.647  23.670   9.153
 7894POPC   GL138209  37.648  23.742   8.853
 7894POPC   GL238210  37.600  23.729   8.853
 7894POPC   C1A38211  37.683  23.710   8.553
 7894POPC   D2A38212  37.688  23.698   8.253
 7894POPC   C3A38213  37.666  23.743   7.953
 7894POPC   C4A38214  37.671  23.670   7.653
 7894POPC   C1B38215  37.397  23.656   8.553
 7894POPC   C2B38216  37.410  23.695   8.253
 7894POPC   C3B38217  37.472  23.622   7.953
 7894POPC   C4B38218  37.414  23.659   7.653
 7895POPC   NC338219  22.208  16.721   9.453
 7895POPC   PO438220  22.151  16.765   9.153
 7895POPC   GL138221  22.156  16.720   8.853
 7895POPC   GL238222  22.273  16.718   8.853
 7895POPC   C1A38223  22.160  16.732   8.553
 7895POPC   D2A38224  22.113  16.684   8.253
 7895POPC   C3A38225  22.155  16.711   7.953
 7895POPC   C4A38226  22.171  16.689   7.653
 7895POPC   C1B38227  22.433  16.680   8.553
 7895POPC   C2B38228  22.369  16.723   8.253
 7895POPC   C3B38229  22.379  16.647   7.953
 7895POPC   C4B38230  22.459  16.677   7.653
 7896POPC   NC338231  43.930  23.708   9.453
 7896POPC   PO438232  43.856  23.675   9.153
 7896POPC   GL138233  43.881  23.749   8.853
 7896POPC   GL238234  44.002  23.782   8.853
 7896POPC   C1A38235  43.926  23.762   8.553
 7896POPC   D2A38236  43.880  23.735   8.253
 7896POPC   C3A38237  43.876  23.753   7.953
 7896POPC   C4A38238  43.932  23.675   7.653
 7896POPC   C1B38239  44.108  23.795   8.553
 7896POPC   C2B38240  44.096  23.794   8.253
 7896POPC   C3B38241  44.158  23.857   7.953
 7896POPC   C4B38242  44.100  23.865   7.653
 7897POPC   NC338243  43.934   4.269   9.453
 7897POPC   PO438244  43.924   4.278   9.153
 7897POPC   GL138245  43.894   4.326   8.853
 7897POPC   GL238246  43.922   4.413   8.853
 7897POPC   C1A38247  43.909   4.324   8.553
 7897POPC   D2A38248  43.877   4.275   8.253
 7897POPC   C3A38249  43.899   4.350   7.953
 7897POPC   C4A38250  43.913   4.271   7.653
 7897POPC   C1B38251  44.019   4.544   8.553
 7897POPC   C2B38252  43.997   4.523   8.253
 7897POPC   C3B38253  44.015   4.590   7.953
 7897POPC   C4B38254  43.933   4.499   7.653
 7898POPC   NC338255  39.966  19.808   9.453
 7898POPC   PO438256  39.998  19.862   9.153
 7898POPC   GL138257  40.001  19.852   8.853
 7898POPC   GL238258  39.901  19.806   8.853
 7898POPC   C1A38259  40.043  19.830   8.553
 7898POPC   D2A38260  39.978  19.883   8.253
 7898POPC   C3A38261  39.986  19.864   7.953
 7898POPC   C4A38262  40.026  19.818   7.653
 7898POPC   C1B38263  39.801  19.861   8.553
 7898POPC   C2B38264  39.718  19.848   8.253
 7898POPC   C3B38265  39.747  19.866   7.953
 7898POPC   C4B38266  39.732  19.866   7.653
 7899POPC   NC338267  34.585  28.333   9.453
 7899POPC   PO438268  34.590  28.397   9.153
 7899POPC   GL138269  34.575  28.368   8.853
 7899POPC   GL238270  34.670  28.463   8.853
 7899POPC   C1A38271  34.561  28.404   8.553
 7899POPC   D2A38272  34.626  28.320   8.253
 7899POPC   C3A38273  34.620  28.382   7.953
 7899POPC   C4A38274  34.598  28.377   7.653
 7899POPC   C1B38275  34.793  28.547   8.553
 7899POPC   C2B38276  34.757  28.485   8.253
 7899POPC   C3B38277  34.822  28.555   7.953
 7899POPC   C4B38278  34.769  28.487   7.653
 7900POPC   NC338279   1.227  33.809   9.453
 7900POPC   PO438280   1.223  33.815   9.153
 7900POPC   GL138281   1.192  33.811   8.853
 7900POPC   GL238282   1.206  33.879   8.853
 7900POPC   C1A38283   1.255  33.799   8.553
 7900POPC   D2A38284   1.253  33.816   8.253
 7900POPC   C3A38285   1.183  33.790   7.953
 7900POPC   C4A38286   1.222  33.769   7.653
 7900POPC   C1B38287   1.255  34.031   8.553
 7900POPC   C2B38288   1.232  34.014   8.253
 7900POPC   C3B38289   1.237  34.016   7.953
 7900POPC   C4B38290   1.293  34.027   7.653
 7901POPC   NC338291  35.365   3.507   9.453
 7901POPC   PO438292  35.313   3.525   9.153
 7901POPC   GL138293  35.324   3.566   8.853
 7901POPC   GL238294  35.461   3.566   8.853
 7901POPC   C1A38295  35.394   3.547   8.553
 7901POPC   D2A38296  35.347   3.541   8.253
 7901POPC   C3A38297  35.335   3.537   7.953
 7901POPC   C4A38298  35.322   3.498   7.653
 7901POPC   C1B38299  35.561   3.544   8.553
 7901POPC   C2B38300  35.643   3.610   8.253
 7901POPC   C3B38301  35.610   3.615   7.953
 7901POPC   C4B38302  35.580   3.585   7.653
 7902POPC   NC338303  27.582  37.677   9.453
 7902POPC   PO438304  27.621  37.693   9.153
 7902POPC   GL138305  27.583  37.633   8.853
 7902POPC   GL238306  27.553  37.555   8.853
 7902POPC   C1A38307  27.553  37.654   8.553
 7902POPC   D2A38308  27.585  37.701   8.253
 7902POPC   C3A38309  27.569  37.633   7.953
 7902POPC   C4A38310  27.583  37.643   7.653
 7902POPC   C1B38311  27.525  37.453   8.553
 7902POPC   C2B38312  27.504  37.458   8.253
 7902POPC   C3B38313  27.504  37.423   7.953
 7902POPC   C4B38314  27.515  37.451   7.653
 7903POPC   NC338315   9.699  40.796   9.453
 7903POPC   PO438316   9.722  40.750   9.153
 7903POPC   GL138317   9.712  40.820   8.853
 7903POPC   GL238318   9.874  40.714   8.853
 7903POPC   C1A38319   9.750  40.734   8.553
 7903POPC   D2A38320   9.790  40.755   8.253
 7903POPC   C3A38321   9.755  40.802   7.953
 7903POPC   C4A38322   9.779  40.814   7.653
 7903POPC   C1B38323  10.001  40.756   8.553
 7903POPC   C2B38324  10.022  40.750   8.253
 7903POPC   C3B38325  10.026  40.730   7.953
 7903POPC   C4B38326  10.007  40.686   7.653
 7904POPC   NC338327  27.627  12.802   5.553
 7904POPC   PO438328  27.624  12.898   5.853
 7904POPC   GL138329  27.572  12.844   6.153
 7904POPC   GL238330  27.622  12.682   6.153
 7904POPC   C1A38331  27.571  12.867   6.453
 7904POPC   D2A38332  27.555  12.839   6.753
 7904POPC   C3A38333  27.550  12.862   7.053
 7904POPC   C4A38334  27.620  12.826   7.353
 7904POPC   C1B38335  27.618  12.614   6.453
 7904POPC   C2B38336  27.578  12.572   6.753
 7904POPC   C3B38337  27.587  12.560   7.053
 7904POPC   C4B38338  27.631  12.623   7.353
 7905POPC   NC338339  33.770  25.992   5.553
 7905POPC   PO438340  33.836  26.064   5.853
 7905POPC   GL138341  33.768  25.991   6.153
 7905POPC   GL238342  33.729  26.111   6.153
 7905POPC   C1A38343  33.752  26.047   6.453
 7905POPC   D2A38344  33.802  25.996   6.753
 7905POPC   C3A38345  33.790  26.082   7.053
 7905POPC   C4A38346  33.822  26.040   7.353
 7905POPC   C1B38347  33.717  26.250   6.453
 7905POPC   C2B38348  33.676  26.247   6.753
 7905POPC   C3B38349  33.695  26.256   7.053
 7905POPC   C4B38350  33.634  26.223   7.353
 7906POPC   NC338351  18.259  21.405   5.553
 7906POPC   PO438352  18.304  21.341   5.853
 7906POPC   GL138353  18.239  21.345   6.153
 7906POPC   GL238354  18.403  21.410   6.153
 7906POPC   C1A38355  18.244  21.343   6.453
 7906POPC   D2A38356  18.255  21.339   6.753
 7906POPC   C3A38357  18.259  21.346   7.053
 7906POPC   C4A38358  18.246  21.344   7.353
 7906POPC   C1B38359  18.477  21.513   6.453
 7906POPC   C2B38360  18.492  21.543   6.753
 7906POPC   C3B38361  18.494  21.518   7.053
 7906POPC   C4B38362  18.456  21.578   7.353
 7907POPC   NC338363  11.328   4.344   5.553
 7907POPC   PO438364  11.270   4.364   5.853
 7907POPC   GL138365  11.332   4.341   6.153
 7907POPC   GL238366  11.393   4.318   6.153
 7907POPC   C1A38367  11.276   4.334   6.453
 7907POPC   D2A38368  11.305   4.275   6.753
 7907POPC   C3A38369  11.340   4.307   7.053
 7907POPC   C4A38370  11.299   4.358   7.353
 7907POPC   C1B38371  11.524   4.379   6.453
 7907POPC   C2B38372  11.586   4.392   6.753
 7907POPC   C3B38373  11.569   4.325   7.053
 7907POPC   C4B38374  11.515   4.335   7.353
 7908POPC   NC338375   0.433   5.075   5.553
 7908POPC   PO438376   0.477   5.071   5.853
 7908POPC   GL138377   0.427   5.101   6.153
 7908POPC   GL238378   0.483   4.982   6.153
 7908POPC   C1A38379   0.395   5.050   6.453
 7908POPC   D2A38380   0.477   5.124   6.753
 7908POPC   C3A38381   0.437   5.090   7.053
 7908POPC   C4A38382   0.481   5.054   7.353
 7908POPC   C1B38383   0.601   4.859   6.453
 7908POPC   C2B38384   0.611   4.860   6.753
 7908POPC   C3B38385   0.584   4.937   7.053
 7908POPC   C4B38386   0.558   4.948   7.353
 7909POPC   NC338387   8.226  42.288   5.553
 7909POPC   PO438388   8.154  42.334   5.853
 7909POPC   GL138389   8.224  42.383   6.153
 7909POPC   GL238390   8.111  42.183   6.153
 7909POPC   C1A38391   8.148  42.320   6.453
 7909POPC   D2A38392   8.186  42.294   6.753
 7909POPC   C3A38393   8.189  42.292   7.053
 7909POPC   C4A38394   8.169  42.333   7.353
 7909POPC   C1B38395   8.081  42.133   6.453
 7909POPC   C2B38396   8.098  42.118   6.753
 7909POPC   C3B38397   8.056  42.134   7.053
 7909POPC   C4B38398   8.063  42.131   7.353
 7910POPC   NC338399   2.813  25.314   5.553
 7910POPC   PO438400   2.731  25.306   5.853
 7910POPC   GL138401   2.808  25.264   6.153
 7910POPC   GL238402   2.669  25.171   6.153
 7910POPC   C1A38403   2.733  25.262   6.453
 7910POPC   D2A38404   2.806  25.246   6.753
 7910POPC   C3A38405   2.786  25.234   7.053
 7910POPC   C4A38406   2.799  25.276   7.353
 7910POPC   C1B38407   2.531  25.095   6.453
 7910POPC   C2B38408   2.573  25.128   6.753
 7910POPC   C3B38409   2.552  25.139   7.053
 7910POPC   C4B38410   2.514  25.116   7.353
 7911POPC   NC338411  19.075  22.927   5.553
 7911POPC   PO438412  19.095  22.929   5.853
 7911POPC   GL138413  19.063  22.925   6.153
 7911POPC   GL238414  19.079  23.043   6.153
 7911POPC   C1A38415  19.091  22.988   6.453
 7911POPC   D2A38416  19.065  22.934   6.753
 7911POPC   C3A38417  19.081  22.920   7.053
 7911POPC   C4A38418  19.102  22.980   7.353
 7911POPC   C1B38419  19.163  23.167   6.453
 7911POPC   C2B38420  19.159  23.176   6.753
 7911POPC   C3B38421  19.106  23.224   7.053
 7911POPC   C4B38422  19.145  23.177   7.353
 7912POPC   NC338423  28.328   5.050   5.553
 7912POPC   PO438424  28.328   5.055   5.853
 7912POPC   GL138425  28.331   5.059   6.153
 7912POPC   GL238426  28.397   5.165   6.153
 7912POPC   C1A38427  28.362   5.092   6.453
 7912POPC   D2A38428  28.335   5.045   6.753
 7912POPC   C3A38429  28.320   5.113   7.053
 7912POPC   C4A38430  28.412   5.130   7.353
 7912POPC   C1B38431  28.439   5.281   6.453
 7912POPC   C2B38432  28.445   5.360   6.753
 7912POPC   C3B38433  28.424   5.301   7.053
 7912POPC   C4B38434  28.475   5.304   7.353
 7913POPC   NC338435  19.864   4.331   5.553
 7913POPC   PO438436  19.872   4.317   5.853
 7913POPC   GL138437  19.810   4.338   6.153
 7913POPC   GL238438  20.004   4.307   6.153
 7913POPC   C1A38439  19.855   4.350   6.453
 7913POPC   D2A38440  19.800   4.366   6.753
 7913POPC   C3A38441  19.849   4.349   7.053
 7913POPC   C4A38442  19.870   4.317   7.353
 7913POPC   C1B38443  20.084   4.357   6.453
 7913POPC   C2B38444  20.097   4.393   6.753
 7913POPC   C3B38445  20.074   4.356   7.053
 7913POPC   C4B38446  20.071   4.384   7.353
 7914POPC   NC338447  36.864  36.080   5.553
 7914POPC   PO438448  36.878  36.138   5.853
 7914POPC   GL138449  36.899  36.097   6.153
 7914POPC   GL238450  36.961  36.049   6.153
 7914POPC   C1A38451  36.940  36.172   6.453
 7914POPC   D2A38452  36.932  36.078   6.753
 7914POPC   C3A38453  36.893  36.095   7.053
 7914POPC   C4A38454  36.882  36.126   7.353
 7914POPC   C1B38455  36.906  35.890   6.453
 7914POPC   C2B38456  36.920  35.880   6.753
 7914POPC   C3B38457  36.912  35.844   7.053
 7914POPC   C4B38458  36.968  35.851   7.353
 7915POPC   NC338459  22.193   9.739   5.553
 7915POPC   PO438460  22.117   9.723   5.853
 7915POPC   GL138461  22.138   9.793   6.153
 7915POPC   GL238462  22.295   9.768   6.153
 7915POPC   C1A38463  22.207   9.742   6.453
 7915POPC   D2A38464  22.122   9.790   6.753
 7915POPC   C3A38465  22.117   9.752   7.053
 7915POPC   C4A38466  22.169   9.785   7.353
 7915POPC   C1B38467  22.437   9.814   6.453
 7915POPC   C2B38468  22.384   9.865   6.753
 7915POPC   C3B38469  22.345   9.864   7.053
 7915POPC   C4B38470  22.422   9.832   7.353
 7916POPC   NC338471  16.772  28.363   5.553
 7916POPC   PO438472  16.738  28.389   5.853
 7916POPC   GL138473  16.747  28.344   6.153
 7916POPC   GL238474  16.822  28.501   6.153
 7916POPC   C1A38475  16.741  28.359   6.453
 7916POPC   D2A38476  16.735  28.358   6.753
 7916POPC   C3A38477  16.709  28.380   7.053
 7916POPC   C4A38478  16.721  28.363   7.353
 7916POPC   C1B38479  16.896  28.622   6.453
 7916POPC   C2B38480  16.907  28.553   6.753
 7916POPC   C3B38481  16.812  28.563   7.053
 7916POPC   C4B38482  16.824  28.616   7.353
 7917POPC   NC338483  34.612  32.976   5.553
 7917POPC   PO438484  34.595  32.984   5.853
 7917POPC   GL138485  34.534  33.023   6.153
 7917POPC   GL238486  34.646  32.870   6.153
 7917POPC   C1A38487  34.537  32.991   6.453
 7917POPC   D2A38488  34.623  33.045   6.753
 7917POPC   C3A38489  34.599  33.007   7.053
 7917POPC   C4A38490  34.602  33.043   7.353
 7917POPC   C1B38491  34.691  32.757   6.453
 7917POPC   C2B38492  34.690  32.743   6.753
 7917POPC   C3B38493  34.673  32.803   7.053
 7917POPC   C4B38494  34.644  32.781   7.353
 7918POPC   NC338495  33.058   0.407   5.553
 7918POPC   PO438496  32.977   0.454   5.853
 7918POPC   GL138497  33.068   0.424   6.153
 7918POPC   GL238498  32.931   0.469   6.153
 7918POPC   C1A38499  32.980   0.431   6.453
 7918POPC   D2A38500  33.009   0.411   6.753
 7918POPC   C3A38501  33.055   0.483   7.053
 7918POPC   C4A38502  33.067   0.420   7.353
 7918POPC   C1B38503  32.768   0.429   6.453
 7918POPC   C2B38504  32.787   0.463   6.753
 7918POPC   C3B38505  32.744   0.440   7.053
 7918POPC   C4B38506  32.734   0.433   7.353
 7919POPC   NC338507  26.080  32.984   5.553
 7919POPC   PO438508  26.008  32.984   5.853
 7919POPC   GL138509  26.004  32.998   6.153
 7919POPC   GL238510  26.121  32.919   6.153
 7919POPC   C1A38511  26.012  33.031   6.453
 7919POPC   D2A38512  26.079  33.035   6.753
 7919POPC   C3A38513  25.995  33.073   7.053
 7919POPC   C4A38514  26.026  33.025   7.353
 7919POPC   C1B38515  26.125  32.824   6.453
 7919POPC   C2B38516  26.189  32.826   6.753
 7919POPC   C3B38517  26.144  32.852   7.053
 7919POPC   C4B38518  26.147  32.787   7.353
 7920POPC   NC338519   9.792   1.261   5.553
 7920POPC   PO438520   9.757   1.242   5.853
 7920POPC   GL138521   9.745   1.190   6.153
 7920POPC   GL238522   9.762   1.328   6.153
 7920POPC   C1A38523   9.782   1.246   6.453
 7920POPC   D2A38524   9.701   1.231   6.753
 7920POPC   C3A38525   9.766   1.240   7.053
 7920POPC   C4A38526   9.786   1.198   7.353
 7920POPC   C1B38527   9.665   1.410   6.453
 7920POPC   C2B38528   9.656   1.453   6.753
 7920POPC   C3B38529   9.635   1.442   7.053
 7920POPC   C4B38530   9.729   1.472   7.353
 7921POPC   NC338531  44.688  22.964   5.553
 7921POPC   PO438532  44.697  22.971   5.853
 7921POPC   GL138533  44.701  22.976   6.153
 7921POPC   GL238534  44.790  22.918   6.153
 7921POPC   C1A38535  44.651  22.931   6.453
 7921POPC   D2A38536  44.613  22.910   6.753
 7921POPC   C3A38537  44.706  22.938   7.053
 7921POPC   C4A38538  44.646  22.973   7.353
 7921POPC   C1B38539  44.886  22.884   6.453
 7921POPC   C2B38540  44.930  22.892   6.753
 7921POPC   C3B38541  44.900  22.818   7.053
 7921POPC   C4B38542  44.868  22.841   7.353
 7922POPC   NC338543  40.779  12.895   5.553
 7922POPC   PO438544  40.755  12.870   5.853
 7922POPC   GL138545  40.793  12.901   6.153
 7922POPC   GL238546  40.719  12.934   6.153
 7922POPC   C1A38547  40.778  12.884   6.453
 7922POPC   D2A38548  40.804  12.881   6.753
 7922POPC   C3A38549  40.758  12.843   7.053
 7922POPC   C4A38550  40.820  12.861   7.353
 7922POPC   C1B38551  40.583  12.951   6.453
 7922POPC   C2B38552  40.541  12.970   6.753
 7922POPC   C3B38553  40.600  12.961   7.053
 7922POPC   C4B38554  40.575  13.009   7.353
 7923POPC   NC338555  44.654  40.016   5.553
 7923POPC   PO438556  44.677  40.040   5.853
 7923POPC   GL138557  44.661  40.002   6.153
 7923POPC   GL238558  44.650  40.078   6.153
 7923POPC   C1A38559  44.658  40.053   6.453
 7923POPC   D2A38560  44.645  39.992   6.753
 7923POPC   C3A38561  44.661  39.986   7.053
 7923POPC   C4A38562  44.708  40.054   7.353
 7923POPC   C1B38563  44.602  40.269   6.453
 7923POPC   C2B38564  44.516  40.250   6.753
 7923POPC   C3B38565  44.517  40.194   7.053
 7923POPC   C4B38566  44.605  40.232   7.353
 7924POPC   NC338567   1.177  14.440   5.553
 7924POPC   PO438568   1.242  14.428   5.853
 7924POPC   GL138569   1.238  14.401   6.153
 7924POPC   GL238570   1.340  14.535   6.153
 7924POPC   C1A38571   1.179  14.426   6.453
 7924POPC   D2A38572   1.213  14.392   6.753
 7924POPC   C3A38573   1.244  14.408   7.053
 7924POPC   C4A38574   1.244  14.420   7.353
 7924POPC   C1B38575   1.346  14.615   6.453
 7924POPC   C2B38576   1.355  14.562   6.753
 7924POPC   C3B38577   1.385  14.537   7.053
 7924POPC   C4B38578   1.354  14.555   7.353
 7925POPC   NC338579   3.541  32.269   5.553
 7925POPC   PO438580   3.540  32.266   5.853
 7925POPC   GL138581   3.518  32.246   6.153
 7925POPC   GL238582   3.455  32.343   6.153
 7925POPC   C1A38583   3.540  32.248   6.453
 7925POPC   D2A38584   3.532  32.239   6.753
 7925POPC   C3A38585   3.529  32.207   7.053
 7925POPC   C4A38586   3.534  32.279   7.353
 7925POPC   C1B38587   3.319  32.378   6.453
 7925POPC   C2B38588   3.349  32.380   6.753
 7925POPC   C3B38589   3.292  32.390   7.053
 7925POPC   C4B38590   3.306  32.396   7.353
 7926POPC   NC338591  20.638  13.645   5.553
 7926POPC   PO438592  20.649  13.640   5.853
 7926POPC   GL138593  20.594  13.617   6.153
 7926POPC   GL238594  20.468  13.569   6.153
 7926POPC   C1A38595  20.630  13.620   6.453
 7926POPC   D2A38596  20.617  13.602   6.753
 7926POPC   C3A38597  20.659  13.591   7.053
 7926POPC   C4A38598  20.624  13.613   7.353
 7926POPC   C1B38599  20.387  13.507   6.453
 7926POPC   C2B38600  20.452  13.514   6.753
 7926POPC   C3B38601  20.375  13.450   7.053
 7926POPC   C4B38602  20.430  13.492   7.353
 7927POPC   NC338603  23.706  16.764   5.553
 7927POPC   PO438604  23.668  16.718   5.853
 7927POPC   GL138605  23.669  16.781   6.153
 7927POPC   GL238606  23.555  16.730   6.153
 7927POPC   C1A38607  23.758  16.770   6.453
 7927POPC   D2A38608  23.686  16.762   6.753
 7927POPC   C3A38609  23.743  16.765   7.053
 7927POPC   C4A38610  23.741  16.687   7.353
 7927POPC   C1B38611  23.426  16.622   6.453
 7927POPC   C2B38612  23.474  16.640   6.753
 7927POPC   C3B38613  23.479  16.667   7.053
 7927POPC   C4B38614  23.511  16.641   7.353
 7928POPC   NC338615  27.569  11.349   5.553
 7928POPC   PO438616  27.604  11.339   5.853
 7928POPC   GL138617  27.595  11.316   6.153
 7928POPC   GL238618  27.474  11.310   6.153
 7928POPC   C1A38619  27.579  11.285   6.453
 7928POPC   D2A38620  27.598  11.318   6.753
 7928POPC   C3A38621  27.603  11.258   7.053
 7928POPC   C4A38622  27.632  11.315   7.353
 7928POPC   C1B38623  27.330  11.357   6.453
 7928POPC   C2B38624  27.374  11.338   6.753
 7928POPC   C3B38625  27.361  11.330   7.053
 7928POPC   C4B38626  27.375  11.330   7.353
 7929POPC   NC338627  41.519  39.990   5.553
 7929POPC   PO438628  41.569  40.011   5.853
 7929POPC   GL138629  41.539  39.977   6.153
 7929POPC   GL238630  41.601  39.890   6.153
 7929POPC   C1A38631  41.590  40.007   6.453
 7929POPC   D2A38632  41.608  40.022   6.753
 7929POPC   C3A38633  41.562  40.021   7.053
 7929POPC   C4A38634  41.551  40.054   7.353
 7929POPC   C1B38635  41.641  39.769   6.453
 7929POPC   C2B38636  41.724  39.792   6.753
 7929POPC   C3B38637  41.721  39.770   7.053
 7929POPC   C4B38638  41.677  39.816   7.353
 7930POPC   NC338639  40.812   0.484   5.553
 7930POPC   PO438640  40.772   0.391   5.853
 7930POPC   GL138641  40.761   0.440   6.153
 7930POPC   GL238642  40.695   0.305   6.153
 7930POPC   C1A38643  40.828   0.421   6.453
 7930POPC   D2A38644  40.789   0.421   6.753
 7930POPC   C3A38645  40.794   0.417   7.053
 7930POPC   C4A38646  40.766   0.398   7.353
 7930POPC   C1B38647  40.622   0.254   6.453
 7930POPC   C2B38648  40.651   0.282   6.753
 7930POPC   C3B38649  40.568   0.259   7.053
 7930POPC   C4B38650  40.602   0.256   7.353
 7931POPC   NC338651  37.640  13.601   5.553
 7931POPC   PO438652  37.727  13.654   5.853
 7931POPC   GL138653  37.721  13.583   6.153
 7931POPC   GL238654  37.703  13.693   6.153
 7931POPC   C1A38655  37.677  13.661   6.453
 7931POPC   D2A38656  37.689  13.587   6.753
 7931POPC   C3A38657  37.646  13.661   7.053
 7931POPC   C4A38658  37.635  13.652   7.353
 7931POPC   C1B38659  37.819  13.782   6.453
 7931POPC   C2B38660  37.806  13.798   6.753
 7931POPC   C3B38661  37.859  13.807   7.053
 7931POPC   C4B38662  37.846  13.856   7.353
 7932POPC   NC338663  32.213   4.363   5.553
 7932POPC   PO438664  32.289   4.351   5.853
 7932POPC   GL138665  32.243   4.329   6.153
 7932POPC   GL238666  32.308   4.392   6.153
 7932POPC   C1A38667  32.296   4.309   6.453
 7932POPC   D2A38668  32.297   4.319   6.753
 7932POPC   C3A38669  32.263   4.326   7.053
 7932POPC   C4A38670  32.239   4.363   7.353
 7932POPC   C1B38671  32.443   4.520   6.453
 7932POPC   C2B38672  32.467   4.523   6.753
 7932POPC   C3B38673  32.401   4.469   7.053
 7932POPC   C4B38674  32.432   4.527   7.353
 7933POPC   NC338675  37.661  22.947   5.553
 7933POPC   PO438676  37.706  22.938   5.853
 7933POPC   GL138677  37.680  22.899   6.153
 7933POPC   GL238678  37.834  22.904   6.153
 7933POPC   C1A38679  37.679  22.944   6.453
 7933POPC   D2A38680  37.686  22.976   6.753
 7933POPC   C3A38681  37.726  22.932   7.053
 7933POPC   C4A38682  37.643  22.925   7.353
 7933POPC   C1B38683  37.978  22.956   6.453
 7933POPC   C2B38684  37.926  22.895   6.753
 7933POPC   C3B38685  37.945  22.955   7.053
 7933POPC   C4B38686  37.941  22.927   7.353
 7934POPC   NC338687  38.427  19.039   5.553
 7934POPC   PO438688  38.490  19.041   5.853
 7934POPC   GL138689  38.464  19.086   6.153
 7934POPC   GL238690  38.316  19.032   6.153
 7934POPC   C1A38691  38.473  19.107   6.453
 7934POPC   D2A38692  38.489  19.051   6.753
 7934POPC   C3A38693  38.462  19.015   7.053
 7934POPC   C4A38694  38.500  19.036   7.353
 7934POPC   C1B38695  38.225  19.036   6.453
 7934POPC   C2B38696  38.254  19.049   6.753
 7934POPC   C3B38697  38.178  19.083   7.053
 7934POPC   C4B38698  38.242  19.065   7.353
 7935POPC   NC338699  43.869   5.083   5.553
 7935POPC   PO438700  43.846   5.096   5.853
 7935POPC   GL138701  43.887   5.044   6.153
 7935POPC   GL238702  43.800   5.013   6.153
 7935POPC   C1A38703  43.890   5.075   6.453
 7935POPC   D2A38704  43.922   5.053   6.753
 7935POPC   C3A38705  43.845   5.130   7.053
 7935POPC   C4A38706  43.920   5.142   7.353
 7935POPC   C1B38707  43.645   4.992   6.453
 7935POPC   C2B38708  43.603   5.066   6.753
 7935POPC   C3B38709  43.619   5.069   7.053
 7935POPC   C4B38710  43.617   5.063   7.353
 7936POPC   NC338711  29.172  41.532   5.553
 7936POPC   PO438712  29.096  41.581   5.853
 7936POPC   GL138713  29.149  41.534   6.153
 7936POPC   GL238714  29.235  41.525   6.153
 7936POPC   C1A38715  29.128  41.534   6.453
 7936POPC   D2A38716  29.151  41.585   6.753
 7936POPC   C3A38717  29.128  41.547   7.053
 7936POPC   C4A38718  29.115  41.593   7.353
 7936POPC   C1B38719  29.440  41.538   6.453
 7936POPC   C2B38720  29.418  41.504   6.753
 7936POPC   C3B38721  29.440  41.534   7.053
 7936POPC   C4B38722  29.387  41.496   7.353
 7937POPC   NC338723   4.350  43.123   5.553
 7937POPC   PO438724   4.315  43.146   5.853
 7937POPC   GL138725   4.319  43.141   6.153
 7937POPC   GL238726   4.370  43.045   6.153
 7937POPC   C1A38727   4.288  43.080   6.453
 7937POPC   D2A38728   4.313  43.134   6.753
 7937POPC   C3A38729   4.326  43.150   7.053
 7937POPC   C4A38730   4.271  43.091   7.353
 7937POPC   C1B38731   4.438  42.901   6.453
 7937POPC   C2B38732   4.431  42.953   6.753
 7937POPC   C3B38733   4.513  42.908   7.053
 7937POPC   C4B38734   4.421  42.911   7.353
 7938POPC   NC338735  16.720   8.973   5.553
 7938POPC   PO438736  16.749   8.952   5.853
 7938POPC   GL138737  16.724   8.939   6.153
 7938POPC   GL238738  16.738   8.830   6.153
 7938POPC   C1A38739  16.697   8.963   6.453
 7938POPC   D2A38740  16.687   8.936   6.753
 7938POPC   C3A38741  16.721   9.016   7.053
 7938POPC   C4A38742  16.751   9.002   7.353
 7938POPC   C1B38743  16.809   8.719   6.453
 7938POPC   C2B38744  16.838   8.760   6.753
 7938POPC   C3B38745  16.860   8.732   7.053
 7938POPC   C4B38746  16.856   8.724   7.353
 7939POPC   NC338747  26.039  44.675   5.553
 7939POPC   PO438748  26.035  44.626   5.853
 7939POPC   GL138749  26.012  44.711   6.153
 7939POPC   GL238750  25.943  44.533   6.153
 7939POPC   C1A38751  26.050  44.684   6.453
 7939POPC   D2A38752  26.075  44.615   6.753
 7939POPC   C3A38753  26.050  44.661   7.053
 7939POPC   C4A38754  25.999  44.636   7.353
 7939POPC   C1B38755  25.904  44.443   6.453
 7939POPC   C2B38756  25.860  44.475   6.753
 7939POPC   C3B38757  25.900  44.458   7.053
 7939POPC   C4B38758  25.867  44.471   7.353
 7940POPC   NC338759  16.741   3.494   5.553
 7940POPC   PO438760  16.694   3.564   5.853
 7940POPC   GL138761  16.746   3.534   6.153
 7940POPC   GL238762  16.575   3.504   6.153
 7940POPC   C1A38763  16.758   3.507   6.453
 7940POPC   D2A38764  16.731   3.569   6.753
 7940POPC   C3A38765  16.703   3.519   7.053
 7940POPC   C4A38766  16.751   3.555   7.353
 7940POPC   C1B38767  16.478   3.562   6.453
 7940POPC   C2B38768  16.517   3.559   6.753
 7940POPC   C3B38769  16.531   3.560   7.053
 7940POPC   C4B38770  16.449   3.538   7.353
 7941POPC   NC338771  30.741  29.132   5.553
 7941POPC   PO438772  30.685  29.180   5.853
 7941POPC   GL138773  30.698  29.166   6.153
 7941POPC   GL238774  30.702  29.271   6.153
 7941POPC   C1A38775  30.733  29.188   6.453
 7941POPC   D2A38776  30.691  29.133   6.753
 7941POPC   C3A38777  30.722  29.179   7.053
 7941POPC   C4A38778  30.696  29.100   7.353
 7941POPC   C1B38779  30.851  29.360   6.453
 7941POPC   C2B38780  30.766  29.392   6.753
 7941POPC   C3B38781  30.791  29.385   7.053
 7941POPC   C4B38782  30.848  29.335   7.353
 7942POPC   NC338783   8.167  36.097   5.553
 7942POPC   PO438784   8.228  36.146   5.853
 7942POPC   GL138785   8.171  36.127   6.153
 7942POPC   GL238786   8.271  36.100   6.153
 7942POPC   C1A38787   8.226  36.135   6.453
 7942POPC   D2A38788   8.178  36.126   6.753
 7942POPC   C3A38789   8.233  36.165   7.053
 7942POPC   C4A38790   8.194  36.144   7.353
 7942POPC   C1B38791   8.445  36.132   6.453
 7942POPC   C2B38792   8.433  36.103   6.753
 7942POPC   C3B38793   8.464  36.062   7.053
 7942POPC   C4B38794   8.492  36.078   7.353
 7943POPC   NC338795  37.711   7.405   5.553
 7943POPC   PO438796  37.632   7.374   5.853
 7943POPC   GL138797  37.679   7.405   6.153
 7943POPC   GL238798  37.763   7.475   6.153
 7943POPC   C1A38799  37.698   7.461   6.453
 7943POPC   D2A38800  37.666   7.438   6.753
 7943POPC   C3A38801  37.649   7.391   7.053
 7943POPC   C4A38802  37.651   7.377   7.353
 7943POPC   C1B38803  37.847   7.554   6.453
 7943POPC   C2B38804  37.844   7.626   6.753
 7943POPC   C3B38805  37.897   7.578   7.053
 7943POPC   C4B38806  37.890   7.582   7.353
 7944POPC   NC338807  17.514  23.700   5.553
 7944POPC   PO438808  17.556  23.720   5.853
 7944POPC   GL138809  17.542  23.693   6.153
 7944POPC   GL238810  17.452  23.800   6.153
 7944POPC   C1A38811  17.457  23.702   6.453
 7944POPC   D2A38812  17.466  23.677   6.753
 7944POPC   C3A38813  17.555  23.696   7.053
 7944POPC   C4A38814  17.529  23.664   7.353
 7944POPC   C1B38815  17.336  23.904   6.453
 7944POPC   C2B38816  17.359  23.876   6.753
 7944POPC   C3B38817  17.363  23.931   7.053
 7944POPC   C4B38818  17.347  23.890   7.353
 7945POPC   NC338819  19.848  43.918   5.553
 7945POPC   PO438820  19.877  43.860   5.853
 7945POPC   GL138821  19.851  43.921   6.153
 7945POPC   GL238822  19.881  43.993   6.153
 7945POPC   C1A38823  19.875  43.879   6.453
 7945POPC   D2A38824  19.827  43.929   6.753
 7945POPC   C3A38825  19.824  43.841   7.053
 7945POPC   C4A38826  19.840  43.859   7.353
 7945POPC   C1B38827  19.902  44.162   6.453
 7945POPC   C2B38828  19.910  44.150   6.753
 7945POPC   C3B38829  19.829  44.131   7.053
 7945POPC   C4B38830  19.876  44.157   7.353
 7946POPC   NC338831  41.510   7.404   5.553
 7946POPC   PO438832  41.550   7.394   5.853
 7946POPC   GL138833  41.564   7.461   6.153
 7946POPC   GL238834  41.679   7.373   6.153
 7946POPC   C1A38835  41.552   7.457   6.453
 7946POPC   D2A38836  41.576   7.427   6.753
 7946POPC   C3A38837  41.540   7.442   7.053
 7946POPC   C4A38838  41.552   7.395   7.353
 7946POPC   C1B38839  41.758   7.289   6.453
 7946POPC   C2B38840  41.828   7.316   6.753
 7946POPC   C3B38841  41.744   7.273   7.053
 7946POPC   C4B38842  41.797   7.330   7.353
 7947POPC   NC338843   0.438  25.262   5.553
 7947POPC   PO438844   0.486  25.234   5.853
 7947POPC   GL138845   0.484  25.298   6.153
 7947POPC   GL238846   0.358  25.411   6.153
 7947POPC   C1A38847   0.481  25.226   6.453
 7947POPC   D2A38848   0.399  25.236   6.753
 7947POPC   C3A38849   0.457  25.296   7.053
 7947POPC   C4A38850   0.445  25.263   7.353
 7947POPC   C1B38851   0.302  25.529   6.453
 7947POPC   C2B38852   0.349  25.484   6.753
 7947POPC   C3B38853   0.352  25.459   7.053
 7947POPC   C4B38854   0.346  25.522   7.353
 7948POPC   NC338855   6.671  34.588   5.553
 7948POPC   PO438856   6.647  34.605   5.853
 7948POPC   GL138857   6.683  34.552   6.153
 7948POPC   GL238858   6.587  34.426   6.153
 7948POPC   C1A38859   6.613  34.599   6.453
 7948POPC   D2A38860   6.641  34.572   6.753
 7948POPC   C3A38861   6.615  34.529   7.053
 7948POPC   C4A38862   6.634  34.527   7.353
 7948POPC   C1B38863   6.522  34.417   6.453
 7948POPC   C2B38864   6.540  34.346   6.753
 7948POPC   C3B38865   6.510  34.396   7.053
 7948POPC   C4B38866   6.536  34.333   7.353
 7949POPC   NC338867  23.713  26.821   5.553
 7949POPC   PO438868  23.741  26.771   5.853
 7949POPC   GL138869  23.758  26.775   6.153
 7949POPC   GL238870  23.868  26.790   6.153
 7949POPC   C1A38871  23.698  26.813   6.453
 7949POPC   D2A38872  23.735  26.811   6.753
 7949POPC   C3A38873  23.733  26.856   7.053
 7949POPC   C4A38874  23.754  26.776   7.353
 7949POPC   C1B38875  23.891  26.652   6.453
 7949POPC   C2B38876  23.934  26.702   6.753
 7949POPC   C3B38877  23.956  26.734   7.053
 7949POPC   C4B38878  23.981  26.659   7.353
 7950POPC   NC338879  39.269  15.951   5.553
 7950POPC   PO438880  39.258  15.927   5.853
 7950POPC   GL138881  39.268  15.969   6.153
 7950POPC   GL238882  39.148  15.896   6.153
 7950POPC   C1A38883  39.193  15.969   6.453
 7950POPC   D2A38884  39.205  15.936   6.753
 7950POPC   C3A38885  39.187  15.986   7.053
 7950POPC   C4A38886  39.228  15.931   7.353
 7950POPC   C1B38887  39.067  15.770   6.453
 7950POPC   C2B38888  39.065  15.827   6.753
 7950POPC   C3B38889  39.020  15.734   7.053
 7950POPC   C4B38890  39.082  15.802   7.353
 7951POPC   NC338891  40.809  33.807   5.553
 7951POPC   PO438892  40.751  33.757   5.853
 7951POPC   GL138893  40.784  33.849   6.153
 7951POPC   GL238894  40.608  33.755   6.153
 7951POPC   C1A38895  40.802  33.823   6.453
 7951POPC   D2A38896  40.739  33.764   6.753
 7951POPC   C3A38897  40.755  33.767   7.053
 7951POPC   C4A38898  40.751  33.806   7.353
 7951POPC   C1B38899  40.513  33.812   6.453
 7951POPC   C2B38900  40.502  33.797   6.753
 7951POPC   C3B38901  40.539  33.790   7.053
 7951POPC   C4B38902  40.535  33.761   7.353
 7952POPC   NC338903  22.115  10.532   5.553
 7952POPC   PO438904  22.187  10.552   5.853
 7952POPC   GL138905  22.118  10.483   6.153
 7952POPC   GL238906  22.089  10.437   6.153
 7952POPC   C1A38907  22.147  10.568   6.453
 7952POPC   D2A38908  22.150  10.490   6.753
 7952POPC   C3A38909  22.177  10.515   7.053
 7952POPC   C4A38910  22.202  10.478   7.353
 7952POPC   C1B38911  22.039  10.343   6.453
 7952POPC   C2B38912  22.058  10.264   6.753
 7952POPC   C3B38913  22.079  10.276   7.053
 7952POPC   C4B38914  22.000  10.296   7.353
 7953POPC   NC338915   9.754   6.637   5.553
 7953POPC   PO438916   9.795   6.663   5.853
 7953POPC   GL138917   9.790   6.670   6.153
 7953POPC   GL238918   9.692   6.614   6.153
 7953POPC   C1A38919   9.788   6.690   6.453
 7953POPC   D2A38920   9.784   6.657   6.753
 7953POPC   C3A38921   9.756   6.693   7.053
 7953POPC   C4A38922   9.728   6.667   7.353
 7953POPC   C1B38923   9.585   6.516   6.453
 7953POPC   C2B38924   9.511   6.455   6.753
 7953POPC   C3B38925   9.504   6.528   7.053
 7953POPC   C4B38926   9.594   6.459   7.353
 7954POPC   NC338927  43.078  29.177   5.553
 7954POPC   PO438928  43.081  29.184   5.853
 7954POPC   GL138929  43.061  29.177   6.153
 7954POPC   GL238930  43.200  29.230   6.153
 7954POPC   C1A38931  43.125  29.144   6.453
 7954POPC   D2A38932  43.146  29.192   6.753
 7954POPC   C3A38933  43.073  29.140   7.053
 7954POPC   C4A38934  43.129  29.155   7.353
 7954POPC   C1B38935  43.261  29.384   6.453
 7954POPC   C2B38936  43.183  29.335   6.753
 7954POPC   C3B38937  43.271  29.377   7.053
 7954POPC   C4B38938  43.223  29.347   7.353
 7955POPC   NC338939  35.330  33.034   5.553
 7955POPC   PO438940  35.359  33.049   5.853
 7955POPC   GL138941  35.348  33.042   6.153
 7955POPC   GL238942  35.271  33.032   6.153
 7955POPC   C1A38943  35.303  33.046   6.453
 7955POPC   D2A38944  35.347  33.006   6.753
 7955POPC   C3A38945  35.347  33.036   7.053
 7955POPC   C4A38946  35.332  33.000   7.353
 7955POPC   C1B38947  35.125  33.109   6.453
 7955POPC   C2B38948  35.123  33.095   6.753
 7955POPC   C3B38949  35.063  33.115   7.053
 7955POPC   C4B38950  35.143  33.048   7.353
 7956POPC   NC338951   8.932  26.009   5.553
 7956POPC   PO438952   9.009  26.068   5.853
 7956POPC   GL138953   8.941  26.020   6.153
 7956POPC   GL238954   9.028  26.163   6.153
 7956POPC   C1A38955   8.987  26.048   6.453
 7956POPC   D2A38956   8.987  26.010   6.753
 7956POPC   C3A38957   8.946  25.996   7.053
 7956POPC   C4A38958   8.939  26.020   7.353
 7956POPC   C1B38959   8.979  26.274   6.453
 7956POPC   C2B38960   9.001  26.248   6.753
 7956POPC   C3B38961   8.996  26.241   7.053
 7956POPC   C4B38962   9.002  26.243   7.353
 7957POPC   NC338963   0.443  18.288   5.553
 7957POPC   PO438964   0.416  18.274   5.853
 7957POPC   GL138965   0.403  18.239   6.153
 7957POPC   GL238966   0.521  18.384   6.153
 7957POPC   C1A38967   0.430  18.287   6.453
 7957POPC   D2A38968   0.392  18.233   6.753
 7957POPC   C3A38969   0.421  18.237   7.053
 7957POPC   C4A38970   0.439  18.281   7.353
 7957POPC   C1B38971   0.582  18.452   6.453
 7957POPC   C2B38972   0.581  18.464   6.753
 7957POPC   C3B38973   0.629  18.469   7.053
 7957POPC   C4B38974   0.652  18.448   7.353
 7958POPC   NC338975  43.099  40.039   5.553
 7958POPC   PO438976  43.077  39.964   5.853
 7958POPC   GL138977  43.122  40.034   6.153
 7958POPC   GL238978  42.995  39.928   6.153
 7958POPC   C1A38979  43.084  40.004   6.453
 7958POPC   D2A38980  43.086  39.974   6.753
 7958POPC   C3A38981  43.090  39.967   7.053
 7958POPC   C4A38982  43.157  40.023   7.353
 7958POPC   C1B38983  42.875  39.849   6.453
 7958POPC   C2B38984  42.893  39.842   6.753
 7958POPC   C3B38985  42.849  39.843   7.053
 7958POPC   C4B38986  42.863  39.916   7.353
 7959POPC   NC338987  32.223  37.703   5.553
 7959POPC   PO438988  32.199  37.694   5.853
 7959POPC   GL138989  32.221  37.635   6.153
 7959POPC   GL238990  32.348  37.580   6.153
 7959POPC   C1A38991  32.206  37.685   6.453
 7959POPC   D2A38992  32.220  37.709   6.753
 7959POPC   C3A38993  32.268  37.716   7.053
 7959POPC   C4A38994  32.233  37.682   7.353
 7959POPC   C1B38995  32.447  37.585   6.453
 7959POPC   C2B38996  32.428  37.567   6.753
 7959POPC   C3B38997  32.516  37.557   7.053
 7959POPC   C4B38998  32.446  37.608   7.353
 7960POPC   NC338999  30.741  12.848   5.553
 7960POPC   PO439000  30.657  12.888   5.853
 7960POPC   GL139001  30.716  12.824   6.153
 7960POPC   GL239002  30.767  12.883   6.153
 7960POPC   C1A39003  30.695  12.897   6.453
 7960POPC   D2A39004  30.736  12.894   6.753
 7960POPC   C3A39005  30.709  12.829   7.053
 7960POPC   C4A39006  30.669  12.890   7.353
 7960POPC   C1B39007  30.911  13.015   6.453
 7960POPC   C2B39008  30.952  12.929   6.753
 7960POPC   C3B39009  30.920  13.016   7.053
 7960POPC   C4B39010  30.906  13.014   7.353
 7961POPC   NC339011   5.903  34.533   5.553
 7961POPC   PO439012   5.838  34.557   5.853
 7961POPC   GL139013   5.891  34.591   6.153
 7961POPC   GL239014   6.006  34.537   6.153
 7961POPC   C1A39015   5.821  34.580   6.453
 7961POPC   D2A39016   5.861  34.532   6.753
 7961POPC   C3A39017   5.894  34.599   7.053
 7961POPC   C4A39018   5.893  34.550   7.353
 7961POPC   C1B39019   6.117  34.566   6.453
 7961POPC   C2B39020   6.164  34.504   6.753
 7961POPC   C3B39021   6.156  34.503   7.053
 7961POPC   C4B39022   6.078  34.532   7.353
 7962POPC   NC339023  32.984  37.672   5.553
 7962POPC   PO439024  33.029  37.687   5.853
 7962POPC   GL139025  33.032  37.724   6.153
 7962POPC   GL239026  33.013  37.779   6.153
 7962POPC   C1A39027  32.996  37.653   6.453
 7962POPC   D2A39028  32.996  37.665   6.753
 7962POPC   C3A39029  32.980  37.639   7.053
 7962POPC   C4A39030  33.021  37.685   7.353
 7962POPC   C1B39031  32.974  37.916   6.453
 7962POPC   C2B39032  32.915  37.874   6.753
 7962POPC   C3B39033  32.967  37.936   7.053
 7962POPC   C4B39034  32.984  37.954   7.353
 7963POPC   NC339035  12.836   5.066   5.553
 7963POPC   PO439036  12.845   5.106   5.853
 7963POPC   GL139037  12.827   5.105   6.153
 7963POPC   GL239038  12.777   5.127   6.153
 7963POPC   C1A39039  12.895   5.133   6.453
 7963POPC   D2A39040  12.866   5.071   6.753
 7963POPC   C3A39041  12.845   5.097   7.053
 7963POPC   C4A39042  12.863   5.051   7.353
 7963POPC   C1B39043  12.565   5.136   6.453
 7963POPC   C2B39044  12.660   5.132   6.753
 7963POPC   C3B39045  12.567   5.171   7.053
 7963POPC   C4B39046  12.626   5.144   7.353
 7964POPC   NC339047  42.289  12.816   5.553
 7964POPC   PO439048  42.372  12.886   5.853
 7964POPC   GL139049  42.361  12.819   6.153
 7964POPC   GL239050  42.441  12.748   6.153
 7964POPC   C1A39051  42.375  12.831   6.453
 7964POPC   D2A39052  42.375  12.818   6.753
 7964POPC   C3A39053  42.289  12.845   7.053
 7964POPC   C4A39054  42.296  12.874   7.353
 7964POPC   C1B39055  42.512  12.762   6.453
 7964POPC   C2B39056  42.516  12.730   6.753
 7964POPC   C3B39057  42.526  12.759   7.053
 7964POPC   C4B39058  42.588  12.761   7.353
 7965POPC   NC339059  31.474  36.099   5.553
 7965POPC   PO439060  31.511  36.115   5.853
 7965POPC   GL139061  31.443  36.177   6.153
 7965POPC   GL239062  31.569  36.273   6.153
 7965POPC   C1A39063  31.452  36.097   6.453
 7965POPC   D2A39064  31.510  36.091   6.753
 7965POPC   C3A39065  31.499  36.115   7.053
 7965POPC   C4A39066  31.470  36.177   7.353
 7965POPC   C1B39067  31.630  36.334   6.453
 7965POPC   C2B39068  31.634  36.297   6.753
 7965POPC   C3B39069  31.643  36.304   7.053
 7965POPC   C4B39070  31.662  36.311   7.353
 7966POPC   NC339071  32.218  33.050   5.553
 7966POPC   PO439072  32.287  33.034   5.853
 7966POPC   GL139073  32.284  32.981   6.153
 7966POPC   GL239074  32.304  33.112   6.153
 7966POPC   C1A39075  32.279  33.042   6.453
 7966POPC   D2A39076  32.204  33.038   6.753
 7966POPC   C3A39077  32.262  33.017   7.053
 7966POPC   C4A39078  32.253  33.066   7.353
 7966POPC   C1B39079  32.415  33.124   6.453
 7966POPC   C2B39080  32.448  33.181   6.753
 7966POPC   C3B39081  32.421  33.176   7.053
 7966POPC   C4B39082  32.471  33.137   7.353
 7967POPC   NC339083  15.937  43.890   5.553
 7967POPC   PO439084  15.926  43.903   5.853
 7967POPC   GL139085  15.944  43.871   6.153
 7967POPC   GL239086  15.951  44.021   6.153
 7967POPC   C1A39087  15.913  43.889   6.453
 7967POPC   D2A39088  15.999  43.920   6.753
 7967POPC   C3A39089  15.928  43.934   7.053
 7967POPC   C4A39090  15.945  43.849   7.353
 7967POPC   C1B39091  16.003  44.134   6.453
 7967POPC   C2B39092  15.977  44.154   6.753
 7967POPC   C3B39093  16.047  44.160   7.053
 7967POPC   C4B39094  16.048  44.093   7.353
 7968POPC   NC339095  41.524  18.315   5.553
 7968POPC   PO439096  41.564  18.273   5.853
 7968POPC   GL139097  41.540  18.249   6.153
 7968POPC   GL239098  41.481  18.208   6.153
 7968POPC   C1A39099  41.592  18.330   6.453
 7968POPC   D2A39100  41.574  18.260   6.753
 7968POPC   C3A39101  41.530  18.256   7.053
 7968POPC   C4A39102  41.540  18.298   7.353
 7968POPC   C1B39103  41.379  18.175   6.453
 7968POPC   C2B39104  41.399  18.141   6.753
 7968POPC   C3B39105  41.316  18.098   7.053
 7968POPC   C4B39106  41.344  18.171   7.353
 7969POPC   NC339107  15.948  39.193   5.553
 7969POPC   PO439108  15.921  39.239   5.853
 7969POPC   GL139109  15.963  39.256   6.153
 7969POPC   GL239110  15.995  39.080   6.153
 7969POPC   C1A39111  15.938  39.275   6.453
 7969POPC   D2A39112  15.959  39.278   6.753
 7969POPC   C3A39113  16.001  39.200   7.053
 7969POPC   C4A39114  15.999  39.199   7.353
 7969POPC   C1B39115  16.016  39.010   6.453
 7969POPC   C2B39116  16.050  39.039   6.753
 7969POPC   C3B39117  15.995  38.944   7.053
 7969POPC   C4B39118  16.027  39.041   7.353
 7970POPC   NC339119  23.753  22.210   5.553
 7970POPC   PO439120  23.758  22.205   5.853
 7970POPC   GL139121  23.742  22.136   6.153
 7970POPC   GL239122  23.616  22.133   6.153
 7970POPC   C1A39123  23.756  22.145   6.453
 7970POPC   D2A39124  23.762  22.117   6.753
 7970POPC   C3A39125  23.708  22.171   7.053
 7970POPC   C4A39126  23.683  22.161   7.353
 7970POPC   C1B39127  23.495  22.131   6.453
 7970POPC   C2B39128  23.444  22.117   6.753
 7970POPC   C3B39129  23.445  22.115   7.053
 7970POPC   C4B39130  23.504  22.135   7.353
 7971POPC   NC339131   8.187  22.181   5.553
 7971POPC   PO439132   8.220  22.189   5.853
 7971POPC   GL139133   8.173  22.190   6.153
 7971POPC   GL239134   8.335  22.095   6.153
 7971POPC   C1A39135   8.235  22.181   6.453
 7971POPC   D2A39136   8.216  22.175   6.753
 7971POPC   C3A39137   8.181  22.157   7.053
 7971POPC   C4A39138   8.183  22.126   7.353
 7971POPC   C1B39139   8.386  22.019   6.453
 7971POPC   C2B39140   8.427  22.043   6.753
 7971POPC   C3B39141   8.436  22.033   7.053
 7971POPC   C4B39142   8.447  22.021   7.353
 7972POPC   NC339143  17.489  36.125   5.553
 7972POPC   PO439144  17.489  36.132   5.853
 7972POPC   GL139145  17.476  36.105   6.153
 7972POPC   GL239146  17.664  36.148   6.153
 7972POPC   C1A39147  17.507  36.086   6.453
 7972POPC   D2A39148  17.486  36.153   6.753
 7972POPC   C3A39149  17.535  36.081   7.053
 7972POPC   C4A39150  17.502  36.137   7.353
 7972POPC   C1B39151  17.706  36.070   6.453
 7972POPC   C2B39152  17.714  36.068   6.753
 7972POPC   C3B39153  17.730  36.089   7.053
 7972POPC   C4B39154  17.739  36.139   7.353
 7973POPC   NC339155  39.252  25.257   5.553
 7973POPC   PO439156  39.236  25.251   5.853
 7973POPC   GL139157  39.212  25.276   6.153
 7973POPC   GL239158  39.372  25.340   6.153
 7973POPC   C1A39159  39.202  25.254   6.453
 7973POPC   D2A39160  39.249  25.297   6.753
 7973POPC   C3A39161  39.246  25.220   7.053
 7973POPC   C4A39162  39.183  25.290   7.353
 7973POPC   C1B39163  39.470  25.368   6.453
 7973POPC   C2B39164  39.421  25.348   6.753
 7973POPC   C3B39165  39.501  25.394   7.053
 7973POPC   C4B39166  39.504  25.333   7.353
 7974POPC   NC339167  12.901  10.517   5.553
 7974POPC   PO439168  12.803  10.545   5.853
 7974POPC   GL139169  12.853  10.553   6.153
 7974POPC   GL239170  12.755  10.522   6.153
 7974POPC   C1A39171  12.861  10.502   6.453
 7974POPC   D2A39172  12.884  10.501   6.753
 7974POPC   C3A39173  12.889  10.480   7.053
 7974POPC   C4A39174  12.873  10.489   7.353
 7974POPC   C1B39175  12.586  10.578   6.453
 7974POPC   C2B39176  12.626  10.531   6.753
 7974POPC   C3B39177  12.606  10.589   7.053
 7974POPC   C4B39178  12.638  10.519   7.353
 7975POPC   NC339179  27.610  23.753   5.553
 7975POPC   PO439180  27.636  23.711   5.853
 7975POPC   GL139181  27.558  23.686   6.153
 7975POPC   GL239182  27.523  23.625   6.153
 7975POPC   C1A39183  27.629  23.693   6.453
 7975POPC   D2A39184  27.621  23.718   6.753
 7975POPC   C3A39185  27.591  23.761   7.053
 7975POPC   C4A39186  27.559  23.688   7.353
 7975POPC   C1B39187  27.358  23.633   6.453
 7975POPC   C2B39188  27.362  23.567   6.753
 7975POPC   C3B39189  27.387  23.563   7.053
 7975POPC   C4B39190  27.324  23.644   7.353
 7976POPC   NC339191  15.141  39.233   5.553
 7976POPC   PO439192  15.171  39.225   5.853
 7976POPC   GL139193  15.173  39.205   6.153
 7976POPC   GL239194  15.290  39.201   6.153
 7976POPC   C1A39195  15.190  39.205   6.453
 7976POPC   D2A39196  15.139  39.249   6.753
 7976POPC   C3A39197  15.182  39.221   7.053
 7976POPC   C4A39198  15.192  39.217   7.353
 7976POPC   C1B39199  15.389  39.119   6.453
 7976POPC   C2B39200  15.443  39.061   6.753
 7976POPC   C3B39201  15.386  39.132   7.053
 7976POPC   C4B39202  15.393  39.153   7.353
 7977POPC   NC339203  30.669  37.675   5.553
 7977POPC   PO439204  30.675  37.657   5.853
 7977POPC   GL139205  30.696  37.653   6.153
 7977POPC   GL239206  30.753  37.579   6.153
 7977POPC   C1A39207  30.736  37.642   6.453
 7977POPC   D2A39208  30.701  37.662   6.753
 7977POPC   C3A39209  30.653  37.691   7.053
 7977POPC   C4A39210  30.731  37.661   7.353
 7977POPC   C1B39211  30.870  37.470   6.453
 7977POPC   C2B39212  30.850  37.449   6.753
 7977POPC   C3B39213  30.836  37.490   7.053
 7977POPC   C4B39214  30.869  37.440   7.353
 7978POPC   NC339215   6.641  27.621   5.553
 7978POPC   PO439216   6.653  27.585   5.853
 7978POPC   GL139217   6.648  27.587   6.153
 7978POPC   GL239218   6.702  27.699   6.153
 7978POPC   C1A39219   6.626  27.642   6.453
 7978POPC   D2A39220   6.635  27.583   6.753
 7978POPC   C3A39221   6.612  27.568   7.053
 7978POPC   C4A39222   6.679  27.574   7.353
 7978POPC   C1B39223   6.735  27.846   6.453
 7978POPC   C2B39224   6.798  27.809   6.753
 7978POPC   C3B39225   6.740  27.842   7.053
 7978POPC   C4B39226   6.810  27.822   7.353
 7979POPC   NC339227  21.405  39.266   5.553
 7979POPC   PO439228  21.385  39.189   5.853
 7979POPC   GL139229  21.342  39.186   6.153
 7979POPC   GL239230  21.371  39.335   6.153
 7979POPC   C1A39231  21.393  39.197   6.453
 7979POPC   D2A39232  21.429  39.192   6.753
 7979POPC   C3A39233  21.409  39.195   7.053
 7979POPC   C4A39234  21.412  39.265   7.353
 7979POPC   C1B39235  21.265  39.488   6.453
 7979POPC   C2B39236  21.273  39.476   6.753
 7979POPC   C3B39237  21.246  39.436   7.053
 7979POPC   C4B39238  21.231  39.443   7.353
 7980POPC   NC339239  19.852  25.278   5.553
 7980POPC   PO439240  19.822  25.243   5.853
 7980POPC   GL139241  19.839  25.312   6.153
 7980POPC   GL239242  19.762  25.297   6.153
 7980POPC   C1A39243  19.862  25.307   6.453
 7980POPC   D2A39244  19.867  25.243   6.753
 7980POPC   C3A39245  19.815  25.276   7.053
 7980POPC   C4A39246  19.809  25.223   7.353
 7980POPC   C1B39247  19.559  25.331   6.453
 7980POPC   C2B39248  19.573  25.320   6.753
 7980POPC   C3B39249  19.562  25.383   7.053
 7980POPC   C4B39250  19.557  25.402   7.353
 7981POPC   NC339251  26.052  11.266   5.553
 7981POPC   PO439252  26.061  11.299   5.853
 7981POPC   GL139253  26.064  11.255   6.153
 7981POPC   GL239254  26.131  11.284   6.153
 7981POPC   C1A39255  26.041  11.334   6.453
 7981POPC   D2A39256  26.010  11.262   6.753
 7981POPC   C3A39257  26.057  11.268   7.053
 7981POPC   C4A39258  26.086  11.313   7.353
 7981POPC   C1B39259  26.227  11.155   6.453
 7981POPC   C2B39260  26.256  11.167   6.753
 7981POPC   C3B39261  26.230  11.148   7.053
 7981POPC   C4B39262  26.254  11.203   7.353
 7982POPC   NC339263  26.796   4.323   5.553
 7982POPC   PO439264  26.820   4.274   5.853
 7982POPC   GL139265  26.804   4.301   6.153
 7982POPC   GL239266  26.729   4.325   6.153
 7982POPC   C1A39267  26.860   4.344   6.453
 7982POPC   D2A39268  26.801   4.272   6.753
 7982POPC   C3A39269  26.795   4.362   7.053
 7982POPC   C4A39270  26.843   4.317   7.353
 7982POPC   C1B39271  26.559   4.395   6.453
 7982POPC   C2B39272  26.616   4.352   6.753
 7982POPC   C3B39273  26.586   4.393   7.053
 7982POPC   C4B39274  26.600   4.397   7.353
 7983POPC   NC339275  19.827  28.387   5.553
 7983POPC   PO439276  19.864  28.417   5.853
 7983POPC   GL139277  19.843  28.373   6.153
 7983POPC   GL239278  19.702  28.399   6.153
 7983POPC   C1A39279  19.835  28.345   6.453
 7983POPC   D2A39280  19.828  28.339   6.753
 7983POPC   C3A39281  19.863  28.334   7.053
 7983POPC   C4A39282  19.785  28.367   7.353
 7983POPC   C1B39283  19.596  28.429   6.453
 7983POPC   C2B39284  19.596  28.438   6.753
 7983POPC   C3B39285  19.551  28.438   7.053
 7983POPC   C4B39286  19.634  28.397   7.353
 7984POPC   NC339287  17.498  37.662   5.553
 7984POPC   PO439288  17.492  37.631   5.853
 7984POPC   GL139289  17.554  37.661   6.153
 7984POPC   GL239290  17.519  37.825   6.153
 7984POPC   C1A39291  17.484  37.725   6.453
 7984POPC   D2A39292  17.524  37.706   6.753
 7984POPC   C3A39293  17.552  37.656   7.053
 7984POPC   C4A39294  17.515  37.726   7.353
 7984POPC   C1B39295  17.439  37.943   6.453
 7984POPC   C2B39296  17.525  37.922   6.753
 7984POPC   C3B39297  17.464  37.904   7.053
 7984POPC   C4B39298  17.527  37.930   7.353
 7985POPC   NC339299  18.321  41.564   5.553
 7985POPC   PO439300  18.247  41.582   5.853
 7985POPC   GL139301  18.246  41.539   6.153
 7985POPC   GL239302  18.249  41.670   6.153
 7985POPC   C1A39303  18.332  41.520   6.453
 7985POPC   D2A39304  18.327  41.514   6.753
 7985POPC   C3A39305  18.332  41.608   7.053
 7985POPC   C4A39306  18.245  41.528   7.353
 7985POPC   C1B39307  18.177  41.760   6.453
 7985POPC   C2B39308  18.176  41.791   6.753
 7985POPC   C3B39309  18.228  41.803   7.053
 7985POPC   C4B39310  18.252  41.758   7.353
 7986POPC   NC339311  40.753   2.039   5.553
 7986POPC   PO439312  40.808   2.025   5.853
 7986POPC   GL139313  40.777   1.978   6.153
 7986POPC   GL239314  40.697   2.029   6.153
 7986POPC   C1A39315  40.766   1.960   6.453
 7986POPC   D2A39316  40.775   2.004   6.753
 7986POPC   C3A39317  40.755   1.956   7.053
 7986POPC   C4A39318  40.762   2.004   7.353
 7986POPC   C1B39319  40.483   1.973   6.453
 7986POPC   C2B39320  40.539   2.026   6.753
 7986POPC   C3B39321  40.564   1.967   7.053
 7986POPC   C4B39322  40.483   1.995   7.353
 7987POPC   NC339323  31.423  33.818   5.553
 7987POPC   PO439324  31.503  33.783   5.853
 7987POPC   GL139325  31.476  33.781   6.153
 7987POPC   GL239326  31.560  33.813   6.153
 7987POPC   C1A39327  31.465  33.833   6.453
 7987POPC   D2A39328  31.497  33.843   6.753
 7987POPC   C3A39329  31.442  33.755   7.053
 7987POPC   C4A39330  31.461  33.818   7.353
 7987POPC   C1B39331  31.754  33.830   6.453
 7987POPC   C2B39332  31.725  33.805   6.753
 7987POPC   C3B39333  31.714  33.842   7.053
 7987POPC   C4B39334  31.738  33.853   7.353
 7988POPC   NC339335  26.844   2.012   5.553
 7988POPC   PO439336  26.850   2.000   5.853
 7988POPC   GL139337  26.809   1.980   6.153
 7988POPC   GL239338  26.743   2.072   6.153
 7988POPC   C1A39339  26.818   1.979   6.453
 7988POPC   D2A39340  26.856   1.969   6.753
 7988POPC   C3A39341  26.848   1.961   7.053
 7988POPC   C4A39342  26.852   2.036   7.353
 7988POPC   C1B39343  26.649   2.200   6.453
 7988POPC   C2B39344  26.647   2.185   6.753
 7988POPC   C3B39345  26.672   2.165   7.053
 7988POPC   C4B39346  26.665   2.200   7.353
 7989POPC   NC339347  40.804  35.317   5.553
 7989POPC   PO439348  40.818  35.387   5.853
 7989POPC   GL139349  40.818  35.350   6.153
 7989POPC   GL239350  40.763  35.474   6.153
 7989POPC   C1A39351  40.814  35.389   6.453
 7989POPC   D2A39352  40.792  35.356   6.753
 7989POPC   C3A39353  40.830  35.325   7.053
 7989POPC   C4A39354  40.825  35.371   7.353
 7989POPC   C1B39355  40.731  35.579   6.453
 7989POPC   C2B39356  40.758  35.568   6.753
 7989POPC   C3B39357  40.769  35.625   7.053
 7989POPC   C4B39358  40.742  35.597   7.353
 7990POPC   NC339359  18.244  26.800   5.553
 7990POPC   PO439360  18.264  26.849   5.853
 7990POPC   GL139361  18.301  26.848   6.153
 7990POPC   GL239362  18.268  26.737   6.153
 7990POPC   C1A39363  18.250  26.772   6.453
 7990POPC   D2A39364  18.289  26.816   6.753
 7990POPC   C3A39365  18.247  26.776   7.053
 7990POPC   C4A39366  18.253  26.784   7.353
 7990POPC   C1B39367  18.282  26.607   6.453
 7990POPC   C2B39368  18.319  26.619   6.753
 7990POPC   C3B39369  18.325  26.616   7.053
 7990POPC   C4B39370  18.279  26.618   7.353
 7991POPC   NC339371   8.216  29.106   5.553
 7991POPC   PO439372   8.154  29.124   5.853
 7991POPC   GL139373   8.237  29.095   6.153
 7991POPC   GL239374   8.120  29.290   6.153
 7991POPC   C1A39375   8.243  29.187   6.453
 7991POPC   D2A39376   8.147  29.102   6.753
 7991POPC   C3A39377   8.147  29.126   7.053
 7991POPC   C4A39378   8.209  29.188   7.353
 7991POPC   C1B39379   8.116  29.352   6.453
 7991POPC   C2B39380   8.069  29.375   6.753
 7991POPC   C3B39381   8.105  29.341   7.053
 7991POPC   C4B39382   8.089  29.382   7.353
 7992POPC   NC339383  40.767  38.502   5.553
 7992POPC   PO439384  40.734  38.448   5.853
 7992POPC   GL139385  40.747  38.476   6.153
 7992POPC   GL239386  40.790  38.328   6.153
 7992POPC   C1A39387  40.782  38.487   6.453
 7992POPC   D2A39388  40.826  38.418   6.753
 7992POPC   C3A39389  40.787  38.479   7.053
 7992POPC   C4A39390  40.795  38.492   7.353
 7992POPC   C1B39391  40.842  38.232   6.453
 7992POPC   C2B39392  40.916  38.216   6.753
 7992POPC   C3B39393  40.922  38.245   7.053
 7992POPC   C4B39394  40.899  38.179   7.353
 7993POPC   NC339395  15.221  19.873   5.553
 7993POPC   PO439396  15.203  19.883   5.853
 7993POPC   GL139397  15.198  19.817   6.153
 7993POPC   GL239398  15.134  19.951   6.153
 7993POPC   C1A39399  15.155  19.863   6.453
 7993POPC   D2A39400  15.211  19.800   6.753
 7993POPC   C3A39401  15.220  19.802   7.053
 7993POPC   C4A39402  15.212  19.811   7.353
 7993POPC   C1B39403  15.069  20.044   6.453
 7993POPC   C2B39404  15.123  20.029   6.753
 7993POPC   C3B39405  15.103  20.085   7.053
 7993POPC   C4B39406  15.151  20.046   7.353
 7994POPC   NC339407  19.804  16.696   5.553
 7994POPC   PO439408  19.806  16.758   5.853
 7994POPC   GL139409  19.827  16.774   6.153
 7994POPC   GL239410  19.775  16.618   6.153
 7994POPC   C1A39411  19.802  16.734   6.453
 7994POPC   D2A39412  19.802  16.771   6.753
 7994POPC   C3A39413  19.883  16.685   7.053
 7994POPC   C4A39414  19.839  16.709   7.353
 7994POPC   C1B39415  19.786  16.487   6.453
 7994POPC   C2B39416  19.773  16.506   6.753
 7994POPC   C3B39417  19.780  16.467   7.053
 7994POPC   C4B39418  19.711  16.523   7.353
 7995POPC   NC339419  23.737  17.530   5.553
 7995POPC   PO439420  23.715  17.516   5.853
 7995POPC   GL139421  23.666  17.492   6.153
 7995POPC   GL239422  23.809  17.488   6.153
 7995POPC   C1A39423  23.671  17.538   6.453
 7995POPC   D2A39424  23.715  17.550   6.753
 7995POPC   C3A39425  23.703  17.552   7.053
 7995POPC   C4A39426  23.763  17.519   7.353
 7995POPC   C1B39427  23.942  17.430   6.453
 7995POPC   C2B39428  23.971  17.461   6.753
 7995POPC   C3B39429  23.929  17.456   7.053
 7995POPC   C4B39430  23.911  17.453   7.353
 7996POPC   NC339431   9.740  19.101   5.553
 7996POPC   PO439432   9.785  19.071   5.853
 7996POPC   GL139433   9.773  19.011   6.153
 7996POPC   GL239434   9.833  18.945   6.153
 7996POPC   C1A39435   9.713  19.078   6.453
 7996POPC   D2A39436   9.780  19.028   6.753
 7996POPC   C3A39437   9.727  19.010   7.053
 7996POPC   C4A39438   9.755  19.102   7.353
 7996POPC   C1B39439   9.895  18.799   6.453
 7996POPC   C2B39440   9.807  18.836   6.753
 7996POPC   C3B39441   9.874  18.860   7.053
 7996POPC   C4B39442   9.847  18.875   7.353
 7997POPC   NC339443  43.893   8.996   5.553
 7997POPC   PO439444  43.909   9.020   5.853
 7997POPC   GL139445  43.926   8.926   6.153
 7997POPC   GL239446  43.956   8.879   6.153
 7997POPC   C1A39447  43.863   9.005   6.453
 7997POPC   D2A39448  43.867   8.986   6.753
 7997POPC   C3A39449  43.849   8.926   7.053
 7997POPC   C4A39450  43.844   8.990   7.353
 7997POPC   C1B39451  44.074   8.829   6.453
 7997POPC   C2B39452  44.048   8.829   6.753
 7997POPC   C3B39453  44.057   8.822   7.053
 7997POPC   C4B39454  44.090   8.789   7.353
 7998POPC   NC339455  24.457  36.912   5.553
 7998POPC   PO439456  24.448  36.858   5.853
 7998POPC   GL139457  24.472  36.889   6.153
 7998POPC   GL239458  24.626  36.843   6.153
 7998POPC   C1A39459  24.482  36.877   6.453
 7998POPC   D2A39460  24.448  36.941   6.753
 7998POPC   C3A39461  24.497  36.886   7.053
 7998POPC   C4A39462  24.515  36.863   7.353
 7998POPC   C1B39463  24.726  36.792   6.453
 7998POPC   C2B39464  24.687  36.839   6.753
 7998POPC   C3B39465  24.706  36.820   7.053
 7998POPC   C4B39466  24.738  36.847   7.353
 7999POPC   NC339467   4.333   1.256   5.553
 7999POPC   PO439468   4.311   1.166   5.853
 7999POPC   GL139469   4.269   1.214   6.153
 7999POPC   GL239470   4.304   1.333   6.153
 7999POPC   C1A39471   4.365   1.227   6.453
 7999POPC   D2A39472   4.296   1.198   6.753
 7999POPC   C3A39473   4.319   1.198   7.053
 7999POPC   C4A39474   4.302   1.185   7.353
 7999POPC   C1B39475   4.297   1.474   6.453
 7999POPC   C2B39476   4.352   1.493   6.753
 7999POPC   C3B39477   4.312   1.494   7.053
 7999POPC   C4B39478   4.319   1.492   7.353
 8000POPC   NC339479  29.927  23.714   5.553
 8000POPC   PO439480  29.924  23.712   5.853
 8000POPC   GL139481  29.897  23.725   6.153
 8000POPC   GL239482  29.859  23.624   6.153
 8000POPC   C1A39483  29.880  23.742   6.453
 8000POPC   D2A39484  29.964  23.683   6.753
 8000POPC   C3A39485  29.897  23.708   7.053
 8000POPC   C4A39486  29.963  23.707   7.353
 8000POPC   C1B39487  29.702  23.606   6.453
 8000POPC   C2B39488  29.709  23.532   6.753
 8000POPC   C3B39489  29.751  23.573   7.053
 8000POPC   C4B39490  29.731  23.550   7.353
 8001POPC   NC339491  12.824  16.713   5.553
 8001POPC   PO439492  12.885  16.733   5.853
 8001POPC   GL139493  12.811  16.761   6.153
 8001POPC   GL239494  12.846  16.631   6.153
 8001POPC   C1A39495  12.857  16.701   6.453
 8001POPC   D2A39496  12.841  16.685   6.753
 8001POPC   C3A39497  12.839  16.765   7.053
 8001POPC   C4A39498  12.807  16.729   7.353
 8001POPC   C1B39499  12.895  16.452   6.453
 8001POPC   C2B39500  12.801  16.521   6.753
 8001POPC   C3B39501  12.849  16.438   7.053
 8001POPC   C4B39502  12.813  16.449   7.353
 8002POPC   NC339503   5.048  26.854   5.553
 8002POPC   PO439504   5.104  26.852   5.853
 8002POPC   GL139505   5.059  26.862   6.153
 8002POPC   GL239506   5.162  26.899   6.153
 8002POPC   C1A39507   5.133  26.857   6.453
 8002POPC   D2A39508   5.058  26.815   6.753
 8002POPC   C3A39509   5.095  26.854   7.053
 8002POPC   C4A39510   5.115  26.824   7.353
 8002POPC   C1B39511   5.157  27.023   6.453
 8002POPC   C2B39512   5.168  27.054   6.753
 8002POPC   C3B39513   5.137  27.086   7.053
 8002POPC   C4B39514   5.117  27.088   7.353
 8003POPC   NC339515  25.285  13.636   5.553
 8003POPC   PO439516  25.232  13.610   5.853
 8003POPC   GL139517  25.310  13.634   6.153
 8003POPC   GL239518  25.338  13.543   6.153
 8003POPC   C1A39519  25.223  13.621   6.453
 8003POPC   D2A39520  25.253  13.598   6.753
 8003POPC   C3A39521  25.256  13.658   7.053
 8003POPC   C4A39522  25.314  13.610   7.353
 8003POPC   C1B39523  25.380  13.452   6.453
 8003POPC   C2B39524  25.390  13.402   6.753
 8003POPC   C3B39525  25.386  13.446   7.053
 8003POPC   C4B39526  25.343  13.442   7.353
 8004POPC   NC339527  39.233   8.937   5.553
 8004POPC   PO439528  39.197   8.960   5.853
 8004POPC   GL139529  39.232   8.976   6.153
 8004POPC   GL239530  39.263   8.813   6.153
 8004POPC   C1A39531  39.254   8.978   6.453
 8004POPC   D2A39532  39.242   8.948   6.753
 8004POPC   C3A39533  39.190   8.966   7.053
 8004POPC   C4A39534  39.221   8.929   7.353
 8004POPC   C1B39535  39.301   8.722   6.453
 8004POPC   C2B39536  39.332   8.732   6.753
 8004POPC   C3B39537  39.310   8.718   7.053
 8004POPC   C4B39538  39.298   8.686   7.353
 8005POPC   NC339539   3.542   4.321   5.553
 8005POPC   PO439540   3.499   4.354   5.853
 8005POPC   GL139541   3.519   4.329   6.153
 8005POPC   GL239542   3.678   4.356   6.153
 8005POPC   C1A39543   3.526   4.292   6.453
 8005POPC   D2A39544   3.524   4.273   6.753
 8005POPC   C3A39545   3.546   4.282   7.053
 8005POPC   C4A39546   3.533   4.317   7.353
 8005POPC   C1B39547   3.749   4.320   6.453
 8005POPC   C2B39548   3.745   4.344   6.753
 8005POPC   C3B39549   3.782   4.352   7.053
 8005POPC   C4B39550   3.834   4.307   7.353
 8006POPC   NC339551  34.610  16.698   5.553
 8006POPC   PO439552  34.614  16.710   5.853
 8006POPC   GL139553  34.565  16.708   6.153
 8006POPC   GL239554  34.689  16.754   6.153
 8006POPC   C1A39555  34.583  16.687   6.453
 8006POPC   D2A39556  34.593  16.744   6.753
 8006POPC   C3A39557  34.526  16.726   7.053
 8006POPC   C4A39558  34.576  16.748   7.353
 8006POPC   C1B39559  34.793  16.800   6.453
 8006POPC   C2B39560  34.774  16.773   6.753
 8006POPC   C3B39561  34.855  16.732   7.053
 8006POPC   C4B39562  34.803  16.739   7.353
 8007POPC   NC339563  38.410  28.397   5.553
 8007POPC   PO439564  38.470  28.414   5.853
 8007POPC   GL139565  38.455  28.355   6.153
 8007POPC   GL239566  38.283  28.414   6.153
 8007POPC   C1A39567  38.423  28.343   6.453
 8007POPC   D2A39568  38.489  28.345   6.753
 8007POPC   C3A39569  38.501  28.377   7.053
 8007POPC   C4A39570  38.449  28.368   7.353
 8007POPC   C1B39571  38.244  28.331   6.453
 8007POPC   C2B39572  38.165  28.383   6.753
 8007POPC   C3B39573  38.253  28.383   7.053
 8007POPC   C4B39574  38.226  28.349   7.353
 8008POPC   NC339575  28.384  34.559   5.553
 8008POPC   PO439576  28.344  34.571   5.853
 8008POPC   GL139577  28.342  34.585   6.153
 8008POPC   GL239578  28.498  34.691   6.153
 8008POPC   C1A39579  28.391  34.552   6.453
 8008POPC   D2A39580  28.356  34.546   6.753
 8008POPC   C3A39581  28.332  34.566   7.053
 8008POPC   C4A39582  28.393  34.604   7.353
 8008POPC   C1B39583  28.583  34.724   6.453
 8008POPC   C2B39584  28.601  34.731   6.753
 8008POPC   C3B39585  28.544  34.719   7.053
 8008POPC   C4B39586  28.566  34.752   7.353
 8009POPC   NC339587   3.557  31.451   5.553
 8009POPC   PO439588   3.586  31.471   5.853
 8009POPC   GL139589   3.563  31.478   6.153
 8009POPC   GL239590   3.613  31.403   6.153
 8009POPC   C1A39591   3.543  31.478   6.453
 8009POPC   D2A39592   3.498  31.498   6.753
 8009POPC   C3A39593   3.547  31.513   7.053
 8009POPC   C4A39594   3.587  31.479   7.353
 8009POPC   C1B39595   3.722  31.323   6.453
 8009POPC   C2B39596   3.687  31.260   6.753
 8009POPC   C3B39597   3.700  31.312   7.053
 8009POPC   C4B39598   3.651  31.302   7.353
 8010POPC   NC339599  14.408   2.716   5.553
 8010POPC   PO439600  14.393   2.791   5.853
 8010POPC   GL139601  14.360   2.780   6.153
 8010POPC   GL239602  14.247   2.691   6.153
 8010POPC   C1A39603  14.412   2.736   6.453
 8010POPC   D2A39604  14.377   2.814   6.753
 8010POPC   C3A39605  14.390   2.749   7.053
 8010POPC   C4A39606  14.362   2.730   7.353
 8010POPC   C1B39607  14.133   2.648   6.453
 8010POPC   C2B39608  14.194   2.706   6.753
 8010POPC   C3B39609  14.206   2.673   7.053
 8010POPC   C4B39610  14.197   2.702   7.353
 8011POPC   NC339611  15.181   8.162   5.553
 8011POPC   PO439612  15.202   8.205   5.853
 8011POPC   GL139613  15.147   8.200   6.153
 8011POPC   GL239614  15.161   8.116   6.153
 8011POPC   C1A39615  15.140   8.162   6.453
 8011POPC   D2A39616  15.214   8.166   6.753
 8011POPC   C3A39617  15.178   8.229   7.053
 8011POPC   C4A39618  15.145   8.189   7.353
 8011POPC   C1B39619  15.094   8.018   6.453
 8011POPC   C2B39620  15.071   8.018   6.753
 8011POPC   C3B39621  15.015   7.946   7.053
 8011POPC   C4B39622  15.097   7.990   7.353
 8012POPC   NC339623  41.523  13.648   5.553
 8012POPC   PO439624  41.519  13.641   5.853
 8012POPC   GL139625  41.543  13.648   6.153
 8012POPC   GL239626  41.581  13.736   6.153
 8012POPC   C1A39627  41.558  13.621   6.453
 8012POPC   D2A39628  41.607  13.614   6.753
 8012POPC   C3A39629  41.520  13.652   7.053
 8012POPC   C4A39630  41.527  13.652   7.353
 8012POPC   C1B39631  41.525  13.846   6.453
 8012POPC   C2B39632  41.577  13.836   6.753
 8012POPC   C3B39633  41.574  13.839   7.053
 8012POPC   C4B39634  41.503  13.887   7.353
 8013POPC   NC339635  37.630   9.739   5.553
 8013POPC   PO439636  37.696   9.797   5.853
 8013POPC   GL139637  37.693   9.759   6.153
 8013POPC   GL239638  37.762   9.879   6.153
 8013POPC   C1A39639  37.654   9.734   6.453
 8013POPC   D2A39640  37.686   9.773   6.753
 8013POPC   C3A39641  37.648   9.796   7.053
 8013POPC   C4A39642  37.649   9.758   7.353
 8013POPC   C1B39643  37.840   9.937   6.453
 8013POPC   C2B39644  37.873   9.909   6.753
 8013POPC   C3B39645  37.818   9.914   7.053
 8013POPC   C4B39646  37.793   9.907   7.353
 8014POPC   NC339647   9.777  36.125   5.553
 8014POPC   PO439648   9.716  36.114   5.853
 8014POPC   GL139649   9.765  36.088   6.153
 8014POPC   GL239650   9.904  36.157   6.153
 8014POPC   C1A39651   9.796  36.078   6.453
 8014POPC   D2A39652   9.754  36.171   6.753
 8014POPC   C3A39653   9.747  36.117   7.053
 8014POPC   C4A39654   9.784  36.134   7.353
 8014POPC   C1B39655   9.959  36.127   6.453
 8014POPC   C2B39656   9.964  36.131   6.753
 8014POPC   C3B39657  10.019  36.054   7.053
 8014POPC   C4B39658  10.007  36.102   7.353
 8015POPC   NC339659  16.716  36.141   5.553
 8015POPC   PO439660  16.748  36.136   5.853
 8015POPC   GL139661  16.736  36.109   6.153
 8015POPC   GL239662  16.885  36.175   6.153
 8015POPC   C1A39663  16.719  36.080   6.453
 8015POPC   D2A39664  16.746  36.108   6.753
 8015POPC   C3A39665  16.726  36.136   7.053
 8015POPC   C4A39666  16.756  36.087   7.353
 8015POPC   C1B39667  16.952  36.154   6.453
 8015POPC   C2B39668  16.976  36.107   6.753
 8015POPC   C3B39669  16.937  36.105   7.053
 8015POPC   C4B39670  16.962  36.160   7.353
 8016POPC   NC339671  14.375  23.750   5.553
 8016POPC   PO439672  14.429  23.664   5.853
 8016POPC   GL139673  14.441  23.725   6.153
 8016POPC   GL239674  14.522  23.632   6.153
 8016POPC   C1A39675  14.447  23.737   6.453
 8016POPC   D2A39676  14.442  23.738   6.753
 8016POPC   C3A39677  14.438  23.729   7.053
 8016POPC   C4A39678  14.372  23.708   7.353
 8016POPC   C1B39679  14.539  23.469   6.453
 8016POPC   C2B39680  14.603  23.502   6.753
 8016POPC   C3B39681  14.506  23.475   7.053
 8016POPC   C4B39682  14.553  23.504   7.353
 8017POPC   NC339683  31.436   4.345   5.553
 8017POPC   PO439684  31.465   4.346   5.853
 8017POPC   GL139685  31.468   4.303   6.153
 8017POPC   GL239686  31.402   4.371   6.153
 8017POPC   C1A39687  31.506   4.299   6.453
 8017POPC   D2A39688  31.495   4.312   6.753
 8017POPC   C3A39689  31.428   4.295   7.053
 8017POPC   C4A39690  31.428   4.317   7.353
 8017POPC   C1B39691  31.270   4.438   6.453
 8017POPC   C2B39692  31.315   4.492   6.753
 8017POPC   C3B39693  31.281   4.508   7.053
 8017POPC   C4B39694  31.270   4.518   7.353
 8018POPC   NC339695  31.431  42.383   5.553
 8018POPC   PO439696  31.511  42.287   5.853
 8018POPC   GL139697  31.439  42.299   6.153
 8018POPC   GL239698  31.541  42.282   6.153
 8018POPC   C1A39699  31.457  42.309   6.453
 8018POPC   D2A39700  31.480  42.346   6.753
 8018POPC   C3A39701  31.474  42.362   7.053
 8018POPC   C4A39702  31.437  42.331   7.353
 8018POPC   C1B39703  31.689  42.160   6.453
 8018POPC   C2B39704  31.664  42.202   6.753
 8018POPC   C3B39705  31.617  42.134   7.053
 8018POPC   C4B39706  31.692  42.131   7.353
 8019POPC   NC339707  37.682   5.842   5.553
 8019POPC   PO439708  37.636   5.856   5.853
 8019POPC   GL139709  37.651   5.845   6.153
 8019POPC   GL239710  37.749   5.963   6.153
 8019POPC   C1A39711  37.699   5.851   6.453
 8019POPC   D2A39712  37.632   5.877   6.753
 8019POPC   C3A39713  37.687   5.918   7.053
 8019POPC   C4A39714  37.659   5.829   7.353
 8019POPC   C1B39715  37.949   5.972   6.453
 8019POPC   C2B39716  37.906   6.020   6.753
 8019POPC   C3B39717  37.939   5.932   7.053
 8019POPC   C4B39718  37.891   5.968   7.353
 8020POPC   NC339719  27.637  41.515   5.553
 8020POPC   PO439720  27.615  41.601   5.853
 8020POPC   GL139721  27.547  41.540   6.153
 8020POPC   GL239722  27.506  41.642   6.153
 8020POPC   C1A39723  27.553  41.560   6.453
 8020POPC   D2A39724  27.557  41.597   6.753
 8020POPC   C3A39725  27.631  41.599   7.053
 8020POPC   C4A39726  27.595  41.590   7.353
 8020POPC   C1B39727  27.425  41.761   6.453
 8020POPC   C2B39728  27.410  41.735   6.753
 8020POPC   C3B39729  27.419  41.748   7.053
 8020POPC   C4B39730  27.416  41.728   7.353
 8021POPC   NC339731  18.251   2.785   5.553
 8021POPC   PO439732  18.331   2.725   5.853
 8021POPC   GL139733  18.260   2.743   6.153
 8021POPC   GL239734  18.273   2.841   6.153
 8021POPC   C1A39735  18.244   2.766   6.453
 8021POPC   D2A39736  18.296   2.761   6.753
 8021POPC   C3A39737  18.234   2.719   7.053
 8021POPC   C4A39738  18.307   2.763   7.353
 8021POPC   C1B39739  18.179   2.957   6.453
 8021POPC   C2B39740  18.150   2.982   6.753
 8021POPC   C3B39741  18.180   3.027   7.053
 8021POPC   C4B39742  18.181   3.012   7.353
 8022POPC   NC339743  36.881   5.879   5.553
 8022POPC   PO439744  36.950   5.847   5.853
 8022POPC   GL139745  36.942   5.829   6.153
 8022POPC   GL239746  37.010   5.932   6.153
 8022POPC   C1A39747  36.940   5.826   6.453
 8022POPC   D2A39748  36.945   5.859   6.753
 8022POPC   C3A39749  36.931   5.873   7.053
 8022POPC   C4A39750  36.890   5.856   7.353
 8022POPC   C1B39751  37.171   5.920   6.453
 8022POPC   C2B39752  37.099   5.965   6.753
 8022POPC   C3B39753  37.116   5.959   7.053
 8022POPC   C4B39754  37.117   5.924   7.353
 8023POPC   NC339755  39.216  37.712   5.553
 8023POPC   PO439756  39.199  37.676   5.853
 8023POPC   GL139757  39.236  37.673   6.153
 8023POPC   GL239758  39.108  37.574   6.153
 8023POPC   C1A39759  39.221  37.690   6.453
 8023POPC   D2A39760  39.199  37.701   6.753
 8023POPC   C3A39761  39.244  37.681   7.053
 8023POPC   C4A39762  39.243  37.644   7.353
 8023POPC   C1B39763  39.091  37.478   6.453
 8023POPC   C2B39764  39.012  37.458   6.753
 8023POPC   C3B39765  39.070  37.507   7.053
 8023POPC   C4B39766  39.021  37.509   7.353
 8024POPC   NC339767  31.513   8.968   5.553
 8024POPC   PO439768  31.472   9.018   5.853
 8024POPC   GL139769  31.425   8.980   6.153
 8024POPC   GL239770  31.550   8.835   6.153
 8024POPC   C1A39771  31.493   8.959   6.453
 8024POPC   D2A39772  31.511   8.978   6.753
 8024POPC   C3A39773  31.463   9.001   7.053
 8024POPC   C4A39774  31.423   9.008   7.353
 8024POPC   C1B39775  31.536   8.705   6.453
 8024POPC   C2B39776  31.591   8.788   6.753
 8024POPC   C3B39777  31.551   8.744   7.053
 8024POPC   C4B39778  31.598   8.760   7.353
 8025POPC   NC339779   5.118  39.257   5.553
 8025POPC   PO439780   5.078  39.261   5.853
 8025POPC   GL139781   5.060  39.247   6.153
 8025POPC   GL239782   5.196  39.234   6.153
 8025POPC   C1A39783   5.071  39.273   6.453
 8025POPC   D2A39784   5.060  39.208   6.753
 8025POPC   C3A39785   5.049  39.185   7.053
 8025POPC   C4A39786   5.124  39.217   7.353
 8025POPC   C1B39787   5.272  39.378   6.453
 8025POPC   C2B39788   5.316  39.381   6.753
 8025POPC   C3B39789   5.275  39.287   7.053
 8025POPC   C4B39790   5.358  39.307   7.353
 8026POPC   NC339791  32.258   1.242   5.553
 8026POPC   PO439792  32.245   1.211   5.853
 8026POPC   GL139793  32.281   1.202   6.153
 8026POPC   GL239794  32.172   1.278   6.153
 8026POPC   C1A39795  32.290   1.243   6.453
 8026POPC   D2A39796  32.284   1.254   6.753
 8026POPC   C3A39797  32.205   1.194   7.053
 8026POPC   C4A39798  32.275   1.183   7.353
 8026POPC   C1B39799  32.080   1.447   6.453
 8026POPC   C2B39800  32.099   1.399   6.753
 8026POPC   C3B39801  32.068   1.406   7.053
 8026POPC   C4B39802  32.103   1.432   7.353
 8027POPC   NC339803   4.324  43.885   5.553
 8027POPC   PO439804   4.351  43.853   5.853
 8027POPC   GL139805   4.347  43.898   6.153
 8027POPC   GL239806   4.235  43.805   6.153
 8027POPC   C1A39807   4.349  43.875   6.453
 8027POPC   D2A39808   4.271  43.854   6.753
 8027POPC   C3A39809   4.267  43.895   7.053
 8027POPC   C4A39810   4.328  43.837   7.353
 8027POPC   C1B39811   4.070  43.787   6.453
 8027POPC   C2B39812   4.125  43.730   6.753
 8027POPC   C3B39813   4.134  43.801   7.053
 8027POPC   C4B39814   4.124  43.710   7.353
 8028POPC   NC339815  29.950  42.339   5.553
 8028POPC   PO439816  29.907  42.299   5.853
 8028POPC   GL139817  29.893  42.357   6.153
 8028POPC   GL239818  30.028  42.304   6.153
 8028POPC   C1A39819  29.921  42.357   6.453
 8028POPC   D2A39820  29.923  42.346   6.753
 8028POPC   C3A39821  29.968  42.319   7.053
 8028POPC   C4A39822  29.935  42.342   7.353
 8028POPC   C1B39823  30.148  42.249   6.453
 8028POPC   C2B39824  30.203  42.294   6.753
 8028POPC   C3B39825  30.141  42.288   7.053
 8028POPC   C4B39826  30.216  42.297   7.353
 8029POPC   NC339827   6.662  11.298   5.553
 8029POPC   PO439828   6.626  11.296   5.853
 8029POPC   GL139829   6.623  11.294   6.153
 8029POPC   GL239830   6.661  11.181   6.153
 8029POPC   C1A39831   6.681  11.280   6.453
 8029POPC   D2A39832   6.653  11.265   6.753
 8029POPC   C3A39833   6.680  11.262   7.053
 8029POPC   C4A39834   6.694  11.285   7.353
 8029POPC   C1B39835   6.717  11.039   6.453
 8029POPC   C2B39836   6.680  11.068   6.753
 8029POPC   C3B39837   6.739  11.014   7.053
 8029POPC   C4B39838   6.744  11.055   7.353
 8030POPC   NC339839  43.886  22.147   5.553
 8030POPC   PO439840  43.856  22.154   5.853
 8030POPC   GL139841  43.887  22.184   6.153
 8030POPC   GL239842  44.002  22.247   6.153
 8030POPC   C1A39843  43.837  22.143   6.453
 8030POPC   D2A39844  43.866  22.124   6.753
 8030POPC   C3A39845  43.848  22.119   7.053
 8030POPC   C4A39846  43.847  22.143   7.353
 8030POPC   C1B39847  44.077  22.291   6.453
 8030POPC   C2B39848  44.078  22.237   6.753
 8030POPC   C3B39849  44.057  22.326   7.053
 8030POPC   C4B39850  44.058  22.255   7.353
 8031POPC   NC339851   5.822   9.738   5.553
 8031POPC   PO439852   5.876   9.757   5.853
 8031POPC   GL139853   5.862   9.768   6.153
 8031POPC   GL239854   5.789   9.641   6.153
 8031POPC   C1A39855   5.889   9.699   6.453
 8031POPC   D2A39856   5.889   9.795   6.753
 8031POPC   C3A39857   5.857   9.783   7.053
 8031POPC   C4A39858   5.917   9.773   7.353
 8031POPC   C1B39859   5.654   9.600   6.453
 8031POPC   C2B39860   5.700   9.572   6.753
 8031POPC   C3B39861   5.741   9.524   7.053
 8031POPC   C4B39862   5.678   9.558   7.353
 8032POPC   NC339863  37.642   8.958   5.553
 8032POPC   PO439864  37.648   8.978   5.853
 8032POPC   GL139865  37.710   8.999   6.153
 8032POPC   GL239866  37.778   9.005   6.153
 8032POPC   C1A39867  37.704   8.994   6.453
 8032POPC   D2A39868  37.719   9.015   6.753
 8032POPC   C3A39869  37.699   8.943   7.053
 8032POPC   C4A39870  37.725   8.926   7.353
 8032POPC   C1B39871  37.867   9.108   6.453
 8032POPC   C2B39872  37.924   9.129   6.753
 8032POPC   C3B39873  37.899   9.150   7.053
 8032POPC   C4B39874  37.880   9.132   7.353
 8033POPC   NC339875   0.424   6.597   5.553
 8033POPC   PO439876   0.406   6.640   5.853
 8033POPC   GL139877   0.462   6.677   6.153
 8033POPC   GL239878   0.500   6.585   6.153
 8033POPC   C1A39879   0.428   6.638   6.453
 8033POPC   D2A39880   0.399   6.670   6.753
 8033POPC   C3A39881   0.455   6.610   7.053
 8033POPC   C4A39882   0.400   6.619   7.353
 8033POPC   C1B39883   0.611   6.519   6.453
 8033POPC   C2B39884   0.665   6.547   6.753
 8033POPC   C3B39885   0.606   6.495   7.053
 8033POPC   C4B39886   0.687   6.562   7.353
 8034POPC   NC339887  32.990   5.121   5.553
 8034POPC   PO439888  33.068   5.075   5.853
 8034POPC   GL139889  33.032   5.057   6.153
 8034POPC   GL239890  32.973   5.156   6.153
 8034POPC   C1A39891  33.013   5.092   6.453
 8034POPC   D2A39892  33.069   5.050   6.753
 8034POPC   C3A39893  33.025   5.102   7.053
 8034POPC   C4A39894  33.056   5.053   7.353
 8034POPC   C1B39895  32.819   5.266   6.453
 8034POPC   C2B39896  32.844   5.227   6.753
 8034POPC   C3B39897  32.814   5.290   7.053
 8034POPC   C4B39898  32.851   5.303   7.353
 8035POPC   NC339899  27.605   1.940   5.553
 8035POPC   PO439900  27.639   1.981   5.853
 8035POPC   GL139901  27.544   1.941   6.153
 8035POPC   GL239902  27.542   2.043   6.153
 8035POPC   C1A39903  27.642   1.982   6.453
 8035POPC   D2A39904  27.599   1.977   6.753
 8035POPC   C3A39905  27.597   1.961   7.053
 8035POPC   C4A39906  27.566   1.987   7.353
 8035POPC   C1B39907  27.423   2.206   6.453
 8035POPC   C2B39908  27.487   2.167   6.753
 8035POPC   C3B39909  27.453   2.234   7.053
 8035POPC   C4B39910  27.452   2.225   7.353
 8036POPC   NC339911  39.227  17.500   5.553
 8036POPC   PO439912  39.253  17.553   5.853
 8036POPC   GL139913  39.233  17.482   6.153
 8036POPC   GL239914  39.172  17.602   6.153
 8036POPC   C1A39915  39.196  17.483   6.453
 8036POPC   D2A39916  39.189  17.547   6.753
 8036POPC   C3A39917  39.210  17.476   7.053
 8036POPC   C4A39918  39.196  17.525   7.353
 8036POPC   C1B39919  39.020  17.610   6.453
 8036POPC   C2B39920  39.047  17.676   6.753
 8036POPC   C3B39921  39.009  17.629   7.053
 8036POPC   C4B39922  38.969  17.678   7.353
 8037POPC   NC339923  18.317  27.575   5.553
 8037POPC   PO439924  18.274  27.620   5.853
 8037POPC   GL139925  18.236  27.574   6.153
 8037POPC   GL239926  18.411  27.667   6.153
 8037POPC   C1A39927  18.248  27.628   6.453
 8037POPC   D2A39928  18.287  27.602   6.753
 8037POPC   C3A39929  18.296  27.640   7.053
 8037POPC   C4A39930  18.303  27.594   7.353
 8037POPC   C1B39931  18.503  27.768   6.453
 8037POPC   C2B39932  18.487  27.735   6.753
 8037POPC   C3B39933  18.438  27.699   7.053
 8037POPC   C4B39934  18.462  27.706   7.353
 8038POPC   NC339935  41.515   8.957   5.553
 8038POPC   PO439936  41.518   8.941   5.853
 8038POPC   GL139937  41.588   8.994   6.153
 8038POPC   GL239938  41.622   8.914   6.153
 8038POPC   C1A39939  41.527   8.990   6.453
 8038POPC   D2A39940  41.599   9.005   6.753
 8038POPC   C3A39941  41.602   9.020   7.053
 8038POPC   C4A39942  41.563   8.971   7.353
 8038POPC   C1B39943  41.772   8.794   6.453
 8038POPC   C2B39944  41.773   8.843   6.753
 8038POPC   C3B39945  41.713   8.808   7.053
 8038POPC   C4B39946  41.760   8.828   7.353
 8039POPC   NC339947  19.877  27.546   5.553
 8039POPC   PO439948  19.879  27.629   5.853
 8039POPC   GL139949  19.808  27.580   6.153
 8039POPC   GL239950  19.759  27.643   6.153
 8039POPC   C1A39951  19.792  27.544   6.453
 8039POPC   D2A39952  19.857  27.555   6.753
 8039POPC   C3A39953  19.817  27.614   7.053
 8039POPC   C4A39954  19.794  27.600   7.353
 8039POPC   C1B39955  19.695  27.736   6.453
 8039POPC   C2B39956  19.692  27.791   6.753
 8039POPC   C3B39957  19.637  27.789   7.053
 8039POPC   C4B39958  19.617  27.745   7.353
 8040POPC   NC339959   9.014  19.875   5.553
 8040POPC   PO439960   8.996  19.821   5.853
 8040POPC   GL139961   9.008  19.841   6.153
 8040POPC   GL239962   8.900  19.792   6.153
 8040POPC   C1A39963   9.012  19.803   6.453
 8040POPC   D2A39964   8.930  19.881   6.753
 8040POPC   C3A39965   8.997  19.810   7.053
 8040POPC   C4A39966   8.975  19.833   7.353
 8040POPC   C1B39967   8.821  19.622   6.453
 8040POPC   C2B39968   8.747  19.668   6.753
 8040POPC   C3B39969   8.796  19.674   7.053
 8040POPC   C4B39970   8.798  19.689   7.353
 8041POPC   NC339971  36.866   7.397   5.553
 8041POPC   PO439972  36.924   7.450   5.853
 8041POPC   GL139973  36.939   7.409   6.153
 8041POPC   GL239974  36.766   7.352   6.153
 8041POPC   C1A39975  36.923   7.421   6.453
 8041POPC   D2A39976  36.923   7.432   6.753
 8041POPC   C3A39977  36.952   7.442   7.053
 8041POPC   C4A39978  36.856   7.414   7.353
 8041POPC   C1B39979  36.703   7.356   6.453
 8041POPC   C2B39980  36.712   7.337   6.753
 8041POPC   C3B39981  36.700   7.335   7.053
 8041POPC   C4B39982  36.637   7.333   7.353
 8042POPC   NC339983  13.589  44.668   5.553
 8042POPC   PO439984  13.660  44.628   5.853
 8042POPC   GL139985  13.620  44.694   6.153
 8042POPC   GL239986  13.660  44.802   6.153
 8042POPC   C1A39987  13.668  44.656   6.453
 8042POPC   D2A39988  13.605  44.642   6.753
 8042POPC   C3A39989  13.661  44.636   7.053
 8042POPC   C4A39990  13.636  44.674   7.353
 8042POPC   C1B39991  13.700  44.886   6.453
 8042POPC   C2B39992  13.755  44.859   6.753
 8042POPC   C3B39993  13.755  44.920   7.053
 8042POPC   C4B39994  13.692  44.945   7.353
 8043POPC   NC339995  12.815   8.215   5.553
 8043POPC   PO439996  12.826   8.186   5.853
 8043POPC   GL139997  12.893   8.218   6.153
 8043POPC   GL239998  12.903   8.293   6.153
 8043POPC   C1A39999  12.859   8.242   6.453
 8043POPC   D2A40000  12.855   8.191   6.753
 8043POPC   C3A40001  12.865   8.191   7.053
 8043POPC   C4A40002  12.871   8.152   7.353
 8043POPC   C1B40003  12.832   8.453   6.453
 8043POPC   C2B40004  12.858   8.487   6.753
 8043POPC   C3B40005  12.910   8.439   7.053
 8043POPC   C4B40006  12.850   8.462   7.353
 8044POPC   NC340007  43.119  28.395   5.553
 8044POPC   PO440008  43.104  28.363   5.853
 8044POPC   GL140009  43.150  28.354   6.153
 8044POPC   GL240010  42.987  28.279   6.153
 8044POPC   C1A40011  43.140  28.365   6.453
 8044POPC   D2A40012  43.138  28.348   6.753
 8044POPC   C3A40013  43.119  28.323   7.053
 8044POPC   C4A40014  43.101  28.338   7.353
 8044POPC   C1B40015  42.868  28.313   6.453
 8044POPC   C2B40016  42.915  28.281   6.753
 8044POPC   C3B40017  42.878  28.235   7.053
 8044POPC   C4B40018  42.917  28.313   7.353
 8045POPC   NC340019  44.631  35.325   5.553
 8045POPC   PO440020  44.679  35.391   5.853
 8045POPC   GL140021  44.681  35.386   6.153
 8045POPC   GL240022  44.504  35.371   6.153
 8045POPC   C1A40023  44.665  35.315   6.453
 8045POPC   D2A40024  44.625  35.376   6.753
 8045POPC   C3A40025  44.618  35.349   7.053
 8045POPC   C4A40026  44.621  35.333   7.353
 8045POPC   C1B40027  44.427  35.326   6.453
 8045POPC   C2B40028  44.421  35.301   6.753
 8045POPC   C3B40029  44.367  35.372   7.053
 8045POPC   C4B40030  44.367  35.309   7.353
 8046POPC   NC340031  32.274   5.910   5.553
 8046POPC   PO440032  32.285   5.913   5.853
 8046POPC   GL140033  32.205   5.891   6.153
 8046POPC   GL240034  32.385   5.886   6.153
 8046POPC   C1A40035  32.201   5.896   6.453
 8046POPC   D2A40036  32.234   5.906   6.753
 8046POPC   C3A40037  32.291   5.874   7.053
 8046POPC   C4A40038  32.249   5.855   7.353
 8046POPC   C1B40039  32.524   5.965   6.453
 8046POPC   C2B40040  32.524   5.977   6.753
 8046POPC   C3B40041  32.541   5.929   7.053
 8046POPC   C4B40042  32.487   5.923   7.353
 8047POPC   NC340043   6.686  26.864   5.553
 8047POPC   PO440044   6.608  26.803   5.853
 8047POPC   GL140045   6.647  26.841   6.153
 8047POPC   GL240046   6.637  26.923   6.153
 8047POPC   C1A40047   6.652  26.861   6.453
 8047POPC   D2A40048   6.611  26.810   6.753
 8047POPC   C3A40049   6.654  26.805   7.053
 8047POPC   C4A40050   6.664  26.771   7.353
 8047POPC   C1B40051   6.582  27.094   6.453
 8047POPC   C2B40052   6.576  27.093   6.753
 8047POPC   C3B40053   6.503  27.066   7.053
 8047POPC   C4B40054   6.514  27.081   7.353
 8048POPC   NC340055   6.606  12.028   5.553
 8048POPC   PO440056   6.617  12.080   5.853
 8048POPC   GL140057   6.676  12.113   6.153
 8048POPC   GL240058   6.768  12.054   6.153
 8048POPC   C1A40059   6.613  12.086   6.453
 8048POPC   D2A40060   6.638  12.110   6.753
 8048POPC   C3A40061   6.626  12.036   7.053
 8048POPC   C4A40062   6.617  12.068   7.353
 8048POPC   C1B40063   6.936  12.139   6.453
 8048POPC   C2B40064   6.883  12.102   6.753
 8048POPC   C3B40065   6.932  12.114   7.053
 8048POPC   C4B40066   6.866  12.110   7.353
 8049POPC   NC340067  39.268   6.612   5.553
 8049POPC   PO440068  39.233   6.677   5.853
 8049POPC   GL140069  39.246   6.604   6.153
 8049POPC   GL240070  39.308   6.570   6.153
 8049POPC   C1A40071  39.208   6.658   6.453
 8049POPC   D2A40072  39.253   6.598   6.753
 8049POPC   C3A40073  39.217   6.629   7.053
 8049POPC   C4A40074  39.200   6.661   7.353
 8049POPC   C1B40075  39.361   6.453   6.453
 8049POPC   C2B40076  39.269   6.371   6.753
 8049POPC   C3B40077  39.316   6.414   7.053
 8049POPC   C4B40078  39.302   6.458   7.353
 8050POPC   NC340079  36.858  19.820   5.553
 8050POPC   PO440080  36.915  19.796   5.853
 8050POPC   GL140081  36.950  19.816   6.153
 8050POPC   GL240082  36.816  19.807   6.153
 8050POPC   C1A40083  36.861  19.837   6.453
 8050POPC   D2A40084  36.899  19.875   6.753
 8050POPC   C3A40085  36.889  19.812   7.053
 8050POPC   C4A40086  36.883  19.814   7.353
 8050POPC   C1B40087  36.699  19.877   6.453
 8050POPC   C2B40088  36.673  19.910   6.753
 8050POPC   C3B40089  36.631  19.839   7.053
 8050POPC   C4B40090  36.669  19.844   7.353
 8051POPC   NC340091  29.121  31.449   5.553
 8051POPC   PO440092  29.161  31.488   5.853
 8051POPC   GL140093  29.153  31.510   6.153
 8051POPC   GL240094  29.280  31.543   6.153
 8051POPC   C1A40095  29.144  31.425   6.453
 8051POPC   D2A40096  29.194  31.488   6.753
 8051POPC   C3A40097  29.183  31.448   7.053
 8051POPC   C4A40098  29.182  31.453   7.353
 8051POPC   C1B40099  29.412  31.534   6.453
 8051POPC   C2B40100  29.437  31.515   6.753
 8051POPC   C3B40101  29.440  31.542   7.053
 8051POPC   C4B40102  29.353  31.531   7.353
 8052POPC   NC340103  13.604  18.272   5.553
 8052POPC   PO440104  13.598  18.293   5.853
 8052POPC   GL140105  13.619  18.306   6.153
 8052POPC   GL240106  13.616  18.133   6.153
 8052POPC   C1A40107  13.630  18.249   6.453
 8052POPC   D2A40108  13.615  18.321   6.753
 8052POPC   C3A40109  13.654  18.247   7.053
 8052POPC   C4A40110  13.653  18.242   7.353
 8052POPC   C1B40111  13.573  18.071   6.453
 8052POPC   C2B40112  13.603  18.030   6.753
 8052POPC   C3B40113  13.541  18.065   7.053
 8052POPC   C4B40114  13.544  18.074   7.353
 8053POPC   NC340115  10.522  40.736   5.553
 8053POPC   PO440116  10.556  40.805   5.853
 8053POPC   GL140117  10.517  40.751   6.153
 8053POPC   GL240118  10.376  40.810   6.153
 8053POPC   C1A40119  10.562  40.744   6.453
 8053POPC   D2A40120  10.490  40.799   6.753
 8053POPC   C3A40121  10.497  40.774   7.053
 8053POPC   C4A40122  10.493  40.739   7.353
 8053POPC   C1B40123  10.278  40.824   6.453
 8053POPC   C2B40124  10.270  40.852   6.753
 8053POPC   C3B40125  10.260  40.801   7.053
 8053POPC   C4B40126  10.242  40.866   7.353
 8054POPC   NC340127   2.024  16.750   5.553
 8054POPC   PO440128   1.967  16.683   5.853
 8054POPC   GL140129   2.022  16.727   6.153
 8054POPC   GL240130   1.873  16.640   6.153
 8054POPC   C1A40131   1.965  16.736   6.453
 8054POPC   D2A40132   1.961  16.747   6.753
 8054POPC   C3A40133   1.988  16.752   7.053
 8054POPC   C4A40134   1.941  16.760   7.353
 8054POPC   C1B40135   1.802  16.582   6.453
 8054POPC   C2B40136   1.833  16.543   6.753
 8054POPC   C3B40137   1.804  16.598   7.053
 8054POPC   C4B40138   1.762  16.602   7.353
 8055POPC   NC340139  36.164  32.279   5.553
 8055POPC   PO440140  36.169  32.259   5.853
 8055POPC   GL140141  36.098  32.253   6.153
 8055POPC   GL240142  36.056  32.353   6.153
 8055POPC   C1A40143  36.175  32.275   6.453
 8055POPC   D2A40144  36.163  32.207   6.753
 8055POPC   C3A40145  36.118  32.210   7.053
 8055POPC   C4A40146  36.161  32.205   7.353
 8055POPC   C1B40147  36.016  32.516   6.453
 8055POPC   C2B40148  36.054  32.440   6.753
 8055POPC   C3B40149  36.016  32.431   7.053
 8055POPC   C4B40150  35.973  32.449   7.353
 8056POPC   NC340151   9.734  27.566   5.553
 8056POPC   PO440152   9.735  27.575   5.853
 8056POPC   GL140153   9.797  27.555   6.153
 8056POPC   GL240154   9.707  27.505   6.153
 8056POPC   C1A40155   9.746  27.605   6.453
 8056POPC   D2A40156   9.726  27.627   6.753
 8056POPC   C3A40157   9.702  27.583   7.053
 8056POPC   C4A40158   9.764  27.597   7.353
 8056POPC   C1B40159   9.657  27.360   6.453
 8056POPC   C2B40160   9.611  27.362   6.753
 8056POPC   C3B40161   9.601  27.331   7.053
 8056POPC   C4B40162   9.648  27.392   7.353
 8057POPC   NC340163  37.702   6.605   5.553
 8057POPC   PO440164  37.696   6.645   5.853
 8057POPC   GL140165  37.705   6.615   6.153
 8057POPC   GL240166  37.552   6.597   6.153
 8057POPC   C1A40167  37.719   6.664   6.453
 8057POPC   D2A40168  37.660   6.600   6.753
 8057POPC   C3A40169  37.682   6.619   7.053
 8057POPC   C4A40170  37.682   6.597   7.353
 8057POPC   C1B40171  37.397   6.574   6.453
 8057POPC   C2B40172  37.469   6.562   6.753
 8057POPC   C3B40173  37.440   6.576   7.053
 8057POPC   C4B40174  37.397   6.524   7.353
 8058POPC   NC340175  30.663   1.947   5.553
 8058POPC   PO440176  30.657   1.980   5.853
 8058POPC   GL140177  30.683   2.017   6.153
 8058POPC   GL240178  30.746   1.908   6.153
 8058POPC   C1A40179  30.674   1.996   6.453
 8058POPC   D2A40180  30.681   2.028   6.753
 8058POPC   C3A40181  30.717   2.019   7.053
 8058POPC   C4A40182  30.732   2.028   7.353
 8058POPC   C1B40183  30.785   1.699   6.453
 8058POPC   C2B40184  30.689   1.770   6.753
 8058POPC   C3B40185  30.707   1.736   7.053
 8058POPC   C4B40186  30.774   1.784   7.353
 8059POPC   NC340187  36.092  28.329   5.553
 8059POPC   PO440188  36.100  28.405   5.853
 8059POPC   GL140189  36.143  28.333   6.153
 8059POPC   GL240190  36.217  28.314   6.153
 8059POPC   C1A40191  36.122  28.369   6.453
 8059POPC   D2A40192  36.176  28.387   6.753
 8059POPC   C3A40193  36.136  28.384   7.053
 8059POPC   C4A40194  36.165  28.361   7.353
 8059POPC   C1B40195  36.399  28.318   6.453
 8059POPC   C2B40196  36.390  28.383   6.753
 8059POPC   C3B40197  36.343  28.390   7.053
 8059POPC   C4B40198  36.411  28.352   7.353
 8060POPC   NC340199  11.308  36.143   5.553
 8060POPC   PO440200  11.295  36.132   5.853
 8060POPC   GL140201  11.329  36.123   6.153
 8060POPC   GL240202  11.426  36.001   6.153
 8060POPC   C1A40203  11.275  36.125   6.453
 8060POPC   D2A40204  11.337  36.173   6.753
 8060POPC   C3A40205  11.350  36.119   7.053
 8060POPC   C4A40206  11.332  36.110   7.353
 8060POPC   C1B40207  11.512  35.933   6.453
 8060POPC   C2B40208  11.467  36.001   6.753
 8060POPC   C3B40209  11.478  36.009   7.053
 8060POPC   C4B40210  11.448  35.935   7.353
 8061POPC   NC340211  17.479  22.130   5.553
 8061POPC   PO440212  17.474  22.150   5.853
 8061POPC   GL140213  17.504  22.167   6.153
 8061POPC   GL240214  17.411  22.054   6.153
 8061POPC   C1A40215  17.490  22.131   6.453
 8061POPC   D2A40216  17.485  22.174   6.753
 8061POPC   C3A40217  17.550  22.172   7.053
 8061POPC   C4A40218  17.532  22.200   7.353
 8061POPC   C1B40219  17.391  21.968   6.453
 8061POPC   C2B40220  17.323  21.931   6.753
 8061POPC   C3B40221  17.389  21.938   7.053
 8061POPC   C4B40222  17.358  21.960   7.353
 8062POPC   NC340223   8.957  18.300   5.553
 8062POPC   PO440224   8.976  18.260   5.853
 8062POPC   GL140225   8.943  18.298   6.153
 8062POPC   GL240226   8.879  18.375   6.153
 8062POPC   C1A40227   8.951  18.313   6.453
 8062POPC   D2A40228   8.976  18.244   6.753
 8062POPC   C3A40229   8.923  18.329   7.053
 8062POPC   C4A40230   9.001  18.292   7.353
 8062POPC   C1B40231   8.845  18.471   6.453
 8062POPC   C2B40232   8.765  18.446   6.753
 8062POPC   C3B40233   8.797  18.471   7.053
 8062POPC   C4B40234   8.803  18.520   7.353
 8063POPC   NC340235  22.206  18.271   5.553
 8063POPC   PO440236  22.204  18.261   5.853
 8063POPC   GL140237  22.125  18.280   6.153
 8063POPC   GL240238  22.157  18.212   6.153
 8063POPC   C1A40239  22.170  18.290   6.453
 8063POPC   D2A40240  22.163  18.284   6.753
 8063POPC   C3A40241  22.153  18.234   7.053
 8063POPC   C4A40242  22.158  18.247   7.353
 8063POPC   C1B40243  22.065  18.016   6.453
 8063POPC   C2B40244  22.079  18.066   6.753
 8063POPC   C3B40245  22.033  18.045   7.053
 8063POPC   C4B40246  22.088  18.028   7.353
 8064POPC   NC340247   6.662   9.724   5.553
 8064POPC   PO440248   6.602   9.794   5.853
 8064POPC   GL140249   6.693   9.744   6.153
 8064POPC   GL240250   6.710   9.658   6.153
 8064POPC   C1A40251   6.671   9.750   6.453
 8064POPC   D2A40252   6.633   9.731   6.753
 8064POPC   C3A40253   6.613   9.796   7.053
 8064POPC   C4A40254   6.614   9.758   7.353
 8064POPC   C1B40255   6.718   9.523   6.453
 8064POPC   C2B40256   6.712   9.535   6.753
 8064POPC   C3B40257   6.695   9.542   7.053
 8064POPC   C4B40258   6.668   9.514   7.353
 8065POPC   NC340259  11.303  17.460   5.553
 8065POPC   PO440260  11.313  17.483   5.853
 8065POPC   GL140261  11.253  17.531   6.153
 8065POPC   GL240262  11.403  17.590   6.153
 8065POPC   C1A40263  11.293  17.486   6.453
 8065POPC   D2A40264  11.334  17.507   6.753
 8065POPC   C3A40265  11.315  17.528   7.053
 8065POPC   C4A40266  11.337  17.547   7.353
 8065POPC   C1B40267  11.502  17.559   6.453
 8065POPC   C2B40268  11.573  17.584   6.753
 8065POPC   C3B40269  11.562  17.594   7.053
 8065POPC   C4B40270  11.562  17.608   7.353
 8066POPC   NC340271  12.082  26.046   5.553
 8066POPC   PO440272  12.045  26.028   5.853
 8066POPC   GL140273  12.081  26.049   6.153
 8066POPC   GL240274  12.190  25.945   6.153
 8066POPC   C1A40275  12.046  26.001   6.453
 8066POPC   D2A40276  12.071  26.014   6.753
 8066POPC   C3A40277  12.099  26.085   7.053
 8066POPC   C4A40278  12.080  26.084   7.353
 8066POPC   C1B40279  12.263  25.817   6.453
 8066POPC   C2B40280  12.226  25.830   6.753
 8066POPC   C3B40281  12.273  25.858   7.053
 8066POPC   C4B40282  12.251  25.885   7.353
 8067POPC   NC340283  12.837  26.833   5.553
 8067POPC   PO440284  12.816  26.825   5.853
 8067POPC   GL140285  12.888  26.793   6.153
 8067POPC   GL240286  12.916  26.735   6.153
 8067POPC   C1A40287  12.873  26.828   6.453
 8067POPC   D2A40288  12.889  26.831   6.753
 8067POPC   C3A40289  12.805  26.787   7.053
 8067POPC   C4A40290  12.845  26.856   7.353
 8067POPC   C1B40291  13.027  26.601   6.453
 8067POPC   C2B40292  12.998  26.615   6.753
 8067POPC   C3B40293  13.068  26.624   7.053
 8067POPC   C4B40294  12.976  26.629   7.353
 8068POPC   NC340295  26.840   7.380   5.553
 8068POPC   PO440296  26.791   7.440   5.853
 8068POPC   GL140297  26.836   7.436   6.153
 8068POPC   GL240298  26.755   7.492   6.153
 8068POPC   C1A40299  26.863   7.419   6.453
 8068POPC   D2A40300  26.801   7.455   6.753
 8068POPC   C3A40301  26.774   7.461   7.053
 8068POPC   C4A40302  26.849   7.445   7.353
 8068POPC   C1B40303  26.753   7.690   6.453
 8068POPC   C2B40304  26.745   7.658   6.753
 8068POPC   C3B40305  26.769   7.646   7.053
 8068POPC   C4B40306  26.753   7.649   7.353
 8069POPC   NC340307  31.459  11.278   5.553
 8069POPC   PO440308  31.500  11.305   5.853
 8069POPC   GL140309  31.464  11.252   6.153
 8069POPC   GL240310  31.594  11.330   6.153
 8069POPC   C1A40311  31.516  11.315   6.453
 8069POPC   D2A40312  31.440  11.345   6.753
 8069POPC   C3A40313  31.423  11.344   7.053
 8069POPC   C4A40314  31.460  11.303   7.353
 8069POPC   C1B40315  31.733  11.294   6.453
 8069POPC   C2B40316  31.746  11.247   6.753
 8069POPC   C3B40317  31.720  11.333   7.053
 8069POPC   C4B40318  31.695  11.254   7.353
 8070POPC   NC340319  42.306  39.230   5.553
 8070POPC   PO440320  42.358  39.187   5.853
 8070POPC   GL140321  42.315  39.196   6.153
 8070POPC   GL240322  42.266  39.116   6.153
 8070POPC   C1A40323  42.384  39.256   6.453
 8070POPC   D2A40324  42.363  39.257   6.753
 8070POPC   C3A40325  42.382  39.275   7.053
 8070POPC   C4A40326  42.318  39.186   7.353
 8070POPC   C1B40327  42.212  38.956   6.453
 8070POPC   C2B40328  42.216  38.957   6.753
 8070POPC   C3B40329  42.244  39.002   7.053
 8070POPC   C4B40330  42.204  39.013   7.353
 8071POPC   NC340331  23.709  26.029   5.553
 8071POPC   PO440332  23.734  26.036   5.853
 8071POPC   GL140333  23.758  26.082   6.153
 8071POPC   GL240334  23.804  26.189   6.153
 8071POPC   C1A40335  23.732  26.075   6.453
 8071POPC   D2A40336  23.739  26.006   6.753
 8071POPC   C3A40337  23.700  26.071   7.053
 8071POPC   C4A40338  23.686  26.058   7.353
 8071POPC   C1B40339  23.886  26.254   6.453
 8071POPC   C2B40340  23.881  26.222   6.753
 8071POPC   C3B40341  23.851  26.291   7.053
 8071POPC   C4B40342  23.819  26.207   7.353
 8072POPC   NC340343  23.744  19.024   5.553
 8072POPC   PO440344  23.694  19.064   5.853
 8072POPC   GL140345  23.729  19.024   6.153
 8072POPC   GL240346  23.875  19.053   6.153
 8072POPC   C1A40347  23.687  19.076   6.453
 8072POPC   D2A40348  23.693  19.058   6.753
 8072POPC   C3A40349  23.732  19.073   7.053
 8072POPC   C4A40350  23.734  19.099   7.353
 8072POPC   C1B40351  24.001  19.091   6.453
 8072POPC   C2B40352  23.960  19.042   6.753
 8072POPC   C3B40353  23.991  19.032   7.053
 8072POPC   C4B40354  23.998  19.020   7.353
 8073POPC   NC340355  32.246  39.989   5.553
 8073POPC   PO440356  32.204  39.990   5.853
 8073POPC   GL140357  32.222  39.990   6.153
 8073POPC   GL240358  32.121  40.100   6.153
 8073POPC   C1A40359  32.251  40.038   6.453
 8073POPC   D2A40360  32.287  39.989   6.753
 8073POPC   C3A40361  32.258  39.967   7.053
 8073POPC   C4A40362  32.209  39.981   7.353
 8073POPC   C1B40363  32.062  40.150   6.453
 8073POPC   C2B40364  32.070  40.098   6.753
 8073POPC   C3B40365  31.995  40.176   7.053
 8073POPC   C4B40366  31.996  40.128   7.353
 8074POPC   NC340367  20.590  11.330   5.553
 8074POPC   PO440368  20.567  11.269   5.853
 8074POPC   GL140369  20.610  11.303   6.153
 8074POPC   GL240370  20.510  11.207   6.153
 8074POPC   C1A40371  20.575  11.336   6.453
 8074POPC   D2A40372  20.588  11.253   6.753
 8074POPC   C3A40373  20.565  11.260   7.053
 8074POPC   C4A40374  20.654  11.315   7.353
 8074POPC   C1B40375  20.415  11.103   6.453
 8074POPC   C2B40376  20.454  11.118   6.753
 8074POPC   C3B40377  20.471  11.106   7.053
 8074POPC   C4B40378  20.432  11.157   7.353
 8075POPC   NC340379  41.569  33.002   5.553
 8075POPC   PO440380  41.586  33.006   5.853
 8075POPC   GL140381  41.553  33.054   6.153
 8075POPC   GL240382  41.546  33.160   6.153
 8075POPC   C1A40383  41.579  33.037   6.453
 8075POPC   D2A40384  41.564  33.001   6.753
 8075POPC   C3A40385  41.518  33.054   7.053
 8075POPC   C4A40386  41.608  33.001   7.353
 8075POPC   C1B40387  41.497  33.216   6.453
 8075POPC   C2B40388  41.407  33.219   6.753
 8075POPC   C3B40389  41.487  33.290   7.053
 8075POPC   C4B40390  41.489  33.272   7.353
 8076POPC   NC340391  35.379  19.795   5.553
 8076POPC   PO440392  35.388  19.864   5.853
 8076POPC   GL140393  35.310  19.809   6.153
 8076POPC   GL240394  35.304  19.760   6.153
 8076POPC   C1A40395  35.377  19.851   6.453
 8076POPC   D2A40396  35.314  19.878   6.753
 8076POPC   C3A40397  35.371  19.814   7.053
 8076POPC   C4A40398  35.393  19.785   7.353
 8076POPC   C1B40399  35.284  19.639   6.453
 8076POPC   C2B40400  35.261  19.635   6.753
 8076POPC   C3B40401  35.342  19.544   7.053
 8076POPC   C4B40402  35.349  19.570   7.353
 8077POPC   NC340403  22.960  18.245   5.553
 8077POPC   PO440404  22.968  18.246   5.853
 8077POPC   GL140405  22.906  18.235   6.153
 8077POPC   GL240406  23.012  18.355   6.153
 8077POPC   C1A40407  22.909  18.243   6.453
 8077POPC   D2A40408  22.955  18.292   6.753
 8077POPC   C3A40409  22.948  18.322   7.053
 8077POPC   C4A40410  22.897  18.314   7.353
 8077POPC   C1B40411  23.083  18.412   6.453
 8077POPC   C2B40412  23.120  18.492   6.753
 8077POPC   C3B40413  23.163  18.488   7.053
 8077POPC   C4B40414  23.153  18.417   7.353
 8078POPC   NC340415  25.243  18.246   5.553
 8078POPC   PO440416  25.264  18.258   5.853
 8078POPC   GL140417  25.253  18.271   6.153
 8078POPC   GL240418  25.340  18.340   6.153
 8078POPC   C1A40419  25.269  18.235   6.453
 8078POPC   D2A40420  25.279  18.262   6.753
 8078POPC   C3A40421  25.260  18.312   7.053
 8078POPC   C4A40422  25.273  18.320   7.353
 8078POPC   C1B40423  25.495  18.344   6.453
 8078POPC   C2B40424  25.553  18.323   6.753
 8078POPC   C3B40425  25.476  18.325   7.053
 8078POPC   C4B40426  25.543  18.364   7.353
 8079POPC   NC340427  43.074  39.220   5.553
 8079POPC   PO440428  43.136  39.240   5.853
 8079POPC   GL140429  43.142  39.197   6.153
 8079POPC   GL240430  43.099  39.124   6.153
 8079POPC   C1A40431  43.095  39.221   6.453
 8079POPC   D2A40432  43.133  39.184   6.753
 8079POPC   C3A40433  43.077  39.217   7.053
 8079POPC   C4A40434  43.074  39.221   7.353
 8079POPC   C1B40435  43.089  39.029   6.453
 8079POPC   C2B40436  43.080  39.015   6.753
 8079POPC   C3B40437  43.156  38.988   7.053
 8079POPC   C4B40438  43.136  38.971   7.353
 8080POPC   NC340439   0.419  19.080   5.553
 8080POPC   PO440440   0.482  19.028   5.853
 8080POPC   GL140441   0.439  19.077   6.153
 8080POPC   GL240442   0.542  18.985   6.153
 8080POPC   C1A40443   0.482  19.062   6.453
 8080POPC   D2A40444   0.483  19.048   6.753
 8080POPC   C3A40445   0.390  19.099   7.053
 8080POPC   C4A40446   0.398  19.038   7.353
 8080POPC   C1B40447   0.669  19.007   6.453
 8080POPC   C2B40448   0.657  18.913   6.753
 8080POPC   C3B40449   0.687  18.979   7.053
 8080POPC   C4B40450   0.658  18.947   7.353
 8081POPC   NC340451   4.287   7.422   5.553
 8081POPC   PO440452   4.358   7.384   5.853
 8081POPC   GL140453   4.272   7.455   6.153
 8081POPC   GL240454   4.246   7.572   6.153
 8081POPC   C1A40455   4.298   7.411   6.453
 8081POPC   D2A40456   4.309   7.457   6.753
 8081POPC   C3A40457   4.364   7.423   7.053
 8081POPC   C4A40458   4.334   7.414   7.353
 8081POPC   C1B40459   4.290   7.675   6.453
 8081POPC   C2B40460   4.275   7.696   6.753
 8081POPC   C3B40461   4.222   7.677   7.053
 8081POPC   C4B40462   4.304   7.686   7.353
 8082POPC   NC340463  39.250  33.047   5.553
 8082POPC   PO440464  39.234  33.044   5.853
 8082POPC   GL140465  39.240  32.987   6.153
 8082POPC   GL240466  39.312  33.071   6.153
 8082POPC   C1A40467  39.218  33.042   6.453
 8082POPC   D2A40468  39.274  32.978   6.753
 8082POPC   C3A40469  39.210  33.006   7.053
 8082POPC   C4A40470  39.195  33.055   7.353
 8082POPC   C1B40471  39.495  33.074   6.453
 8082POPC   C2B40472  39.447  33.000   6.753
 8082POPC   C3B40473  39.497  33.052   7.053
 8082POPC   C4B40474  39.434  33.072   7.353
 8083POPC   NC340475  24.442   8.210   5.553
 8083POPC   PO440476  24.467   8.154   5.853
 8083POPC   GL140477  24.480   8.234   6.153
 8083POPC   GL240478  24.328   8.216   6.153
 8083POPC   C1A40479  24.451   8.188   6.453
 8083POPC   D2A40480  24.474   8.211   6.753
 8083POPC   C3A40481  24.458   8.180   7.053
 8083POPC   C4A40482  24.454   8.220   7.353
 8083POPC   C1B40483  24.228   8.184   6.453
 8083POPC   C2B40484  24.196   8.191   6.753
 8083POPC   C3B40485  24.236   8.232   7.053
 8083POPC   C4B40486  24.240   8.160   7.353
 8084POPC   NC340487  20.658  10.488   5.553
 8084POPC   PO440488  20.576  10.545   5.853
 8084POPC   GL140489  20.561  10.562   6.153
 8084POPC   GL240490  20.694  10.551   6.153
 8084POPC   C1A40491  20.629  10.548   6.453
 8084POPC   D2A40492  20.649  10.539   6.753
 8084POPC   C3A40493  20.612  10.535   7.053
 8084POPC   C4A40494  20.626  10.526   7.353
 8084POPC   C1B40495  20.782  10.706   6.453
 8084POPC   C2B40496  20.826  10.651   6.753
 8084POPC   C3B40497  20.818  10.664   7.053
 8084POPC   C4B40498  20.862  10.674   7.353
 8085POPC   NC340499  42.313  40.038   5.553
 8085POPC   PO440500  42.351  39.984   5.853
 8085POPC   GL140501  42.364  39.965   6.153
 8085POPC   GL240502  42.358  39.871   6.153
 8085POPC   C1A40503  42.294  39.969   6.453
 8085POPC   D2A40504  42.364  40.007   6.753
 8085POPC   C3A40505  42.365  40.054   7.053
 8085POPC   C4A40506  42.310  39.988   7.353
 8085POPC   C1B40507  42.396  39.749   6.453
 8085POPC   C2B40508  42.310  39.721   6.753
 8085POPC   C3B40509  42.344  39.738   7.053
 8085POPC   C4B40510  42.399  39.797   7.353
 8086POPC   NC340511  22.919  26.850   5.553
 8086POPC   PO440512  22.943  26.834   5.853
 8086POPC   GL140513  22.960  26.791   6.153
 8086POPC   GL240514  22.980  26.882   6.153
 8086POPC   C1A40515  22.925  26.833   6.453
 8086POPC   D2A40516  22.926  26.821   6.753
 8086POPC   C3A40517  22.950  26.800   7.053
 8086POPC   C4A40518  22.987  26.802   7.353
 8086POPC   C1B40519  23.100  26.972   6.453
 8086POPC   C2B40520  23.064  27.004   6.753
 8086POPC   C3B40521  23.120  27.068   7.053
 8086POPC   C4B40522  23.100  27.026   7.353
 8087POPC   NC340523  26.846  19.019   5.553
 8087POPC   PO440524  26.859  19.069   5.853
 8087POPC   GL140525  26.825  19.080   6.153
 8087POPC   GL240526  26.910  19.055   6.153
 8087POPC   C1A40527  26.777  19.025   6.453
 8087POPC   D2A40528  26.826  19.096   6.753
 8087POPC   C3A40529  26.852  19.100   7.053
 8087POPC   C4A40530  26.793  19.040   7.353
 8087POPC   C1B40531  27.110  19.084   6.453
 8087POPC   C2B40532  27.061  19.028   6.753
 8087POPC   C3B40533  27.067  19.029   7.053
 8087POPC   C4B40534  27.064  19.081   7.353
 8088POPC   NC340535  10.513   8.227   5.553
 8088POPC   PO440536  10.518   8.207   5.853
 8088POPC   GL140537  10.565   8.161   6.153
 8088POPC   GL240538  10.693   8.137   6.153
 8088POPC   C1A40539  10.493   8.153   6.453
 8088POPC   D2A40540  10.571   8.162   6.753
 8088POPC   C3A40541  10.517   8.175   7.053
 8088POPC   C4A40542  10.552   8.243   7.353
 8088POPC   C1B40543  10.809   8.156   6.453
 8088POPC   C2B40544  10.743   8.142   6.753
 8088POPC   C3B40545  10.805   8.142   7.053
 8088POPC   C4B40546  10.760   8.094   7.353
 8089POPC   NC340547  13.587   7.380   5.553
 8089POPC   PO440548  13.614   7.421   5.853
 8089POPC   GL140549  13.655   7.393   6.153
 8089POPC   GL240550  13.729   7.502   6.153
 8089POPC   C1A40551  13.586   7.423   6.453
 8089POPC   D2A40552  13.580   7.397   6.753
 8089POPC   C3A40553  13.642   7.432   7.053
 8089POPC   C4A40554  13.644   7.390   7.353
 8089POPC   C1B40555  13.797   7.634   6.453
 8089POPC   C2B40556  13.737   7.622   6.753
 8089POPC   C3B40557  13.792   7.663   7.053
 8089POPC   C4B40558  13.787   7.627   7.353
 8090POPC   NC340559   3.555   0.389   5.553
 8090POPC   PO440560   3.588   0.403   5.853
 8090POPC   GL140561   3.522   0.388   6.153
 8090POPC   GL240562   3.625   0.512   6.153
 8090POPC   C1A40563   3.557   0.484   6.453
 8090POPC   D2A40564   3.548   0.425   6.753
 8090POPC   C3A40565   3.552   0.458   7.053
 8090POPC   C4A40566   3.533   0.458   7.353
 8090POPC   C1B40567   3.778   0.641   6.453
 8090POPC   C2B40568   3.720   0.588   6.753
 8090POPC   C3B40569   3.744   0.607   7.053
 8090POPC   C4B40570   3.712   0.601   7.353
 8091POPC   NC340571  41.552   4.316   5.553
 8091POPC   PO440572  41.590   4.299   5.853
 8091POPC   GL140573  41.554   4.340   6.153
 8091POPC   GL240574  41.552   4.205   6.153
 8091POPC   C1A40575  41.603   4.330   6.453
 8091POPC   D2A40576  41.578   4.272   6.753
 8091POPC   C3A40577  41.561   4.308   7.053
 8091POPC   C4A40578  41.514   4.320   7.353
 8091POPC   C1B40579  41.610   4.097   6.453
 8091POPC   C2B40580  41.599   4.055   6.753
 8091POPC   C3B40581  41.663   4.085   7.053
 8091POPC   C4B40582  41.574   4.101   7.353
 8092POPC   NC340583  18.247  25.994   5.553
 8092POPC   PO440584  18.251  26.060   5.853
 8092POPC   GL140585  18.236  26.054   6.153
 8092POPC   GL240586  18.283  25.970   6.153
 8092POPC   C1A40587  18.241  26.055   6.453
 8092POPC   D2A40588  18.283  26.001   6.753
 8092POPC   C3A40589  18.284  26.028   7.053
 8092POPC   C4A40590  18.279  26.072   7.353
 8092POPC   C1B40591  18.144  25.821   6.453
 8092POPC   C2B40592  18.159  25.799   6.753
 8092POPC   C3B40593  18.159  25.770   7.053
 8092POPC   C4B40594  18.158  25.771   7.353
 8093POPC   NC340595  33.065  15.177   5.553
 8093POPC   PO440596  33.063  15.186   5.853
 8093POPC   GL140597  32.995  15.165   6.153
 8093POPC   GL240598  32.862  15.268   6.153
 8093POPC   C1A40599  33.058  15.218   6.453
 8093POPC   D2A40600  32.997  15.167   6.753
 8093POPC   C3A40601  33.030  15.152   7.053
 8093POPC   C4A40602  32.983  15.205   7.353
 8093POPC   C1B40603  32.848  15.279   6.453
 8093POPC   C2B40604  32.778  15.282   6.753
 8093POPC   C3B40605  32.767  15.282   7.053
 8093POPC   C4B40606  32.821  15.307   7.353
 8094POPC   NC340607  29.950   1.260   5.553
 8094POPC   PO440608  29.899   1.224   5.853
 8094POPC   GL140609  29.912   1.228   6.153
 8094POPC   GL240610  30.010   1.226   6.153
 8094POPC   C1A40611  29.909   1.168   6.453
 8094POPC   D2A40612  29.873   1.174   6.753
 8094POPC   C3A40613  29.956   1.243   7.053
 8094POPC   C4A40614  29.898   1.240   7.353
 8094POPC   C1B40615  30.217   1.203   6.453
 8094POPC   C2B40616  30.199   1.281   6.753
 8094POPC   C3B40617  30.210   1.222   7.053
 8094POPC   C4B40618  30.166   1.257   7.353
 8095POPC   NC340619  25.279  11.330   5.553
 8095POPC   PO440620  25.275  11.295   5.853
 8095POPC   GL140621  25.257  11.310   6.153
 8095POPC   GL240622  25.366  11.292   6.153
 8095POPC   C1A40623  25.287  11.292   6.453
 8095POPC   D2A40624  25.284  11.278   6.753
 8095POPC   C3A40625  25.313  11.331   7.053
 8095POPC   C4A40626  25.256  11.316   7.353
 8095POPC   C1B40627  25.555  11.237   6.453
 8095POPC   C2B40628  25.461  11.209   6.753
 8095POPC   C3B40629  25.542  11.277   7.053
 8095POPC   C4B40630  25.511  11.260   7.353
 8096POPC   NC340631   3.575  43.137   5.553
 8096POPC   PO440632   3.577  43.150   5.853
 8096POPC   GL140633   3.551  43.134   6.153
 8096POPC   GL240634   3.523  43.232   6.153
 8096POPC   C1A40635   3.502  43.085   6.453
 8096POPC   D2A40636   3.493  43.120   6.753
 8096POPC   C3A40637   3.560  43.155   7.053
 8096POPC   C4A40638   3.518  43.105   7.353
 8096POPC   C1B40639   3.396  43.336   6.453
 8096POPC   C2B40640   3.408  43.307   6.753
 8096POPC   C3B40641   3.444  43.362   7.053
 8096POPC   C4B40642   3.431  43.370   7.353
 8097POPC   NC340643  39.265  13.660   5.553
 8097POPC   PO440644  39.245  13.578   5.853
 8097POPC   GL140645  39.182  13.601   6.153
 8097POPC   GL240646  39.099  13.580   6.153
 8097POPC   C1A40647  39.223  13.592   6.453
 8097POPC   D2A40648  39.260  13.627   6.753
 8097POPC   C3A40649  39.211  13.599   7.053
 8097POPC   C4A40650  39.268  13.663   7.353
 8097POPC   C1B40651  38.943  13.640   6.453
 8097POPC   C2B40652  38.933  13.621   6.753
 8097POPC   C3B40653  38.949  13.575   7.053
 8097POPC   C4B40654  38.989  13.588   7.353
 8098POPC   NC340655  36.933  22.156   5.553
 8098POPC   PO440656  36.854  22.130   5.853
 8098POPC   GL140657  36.902  22.114   6.153
 8098POPC   GL240658  36.961  22.279   6.153
 8098POPC   C1A40659  36.929  22.115   6.453
 8098POPC   D2A40660  36.886  22.129   6.753
 8098POPC   C3A40661  36.876  22.129   7.053
 8098POPC   C4A40662  36.912  22.200   7.353
 8098POPC   C1B40663  36.998  22.370   6.453
 8098POPC   C2B40664  36.982  22.401   6.753
 8098POPC   C3B40665  36.986  22.405   7.053
 8098POPC   C4B40666  36.945  22.389   7.353
 8099POPC   NC340667  33.042  43.916   5.553
 8099POPC   PO440668  33.046  43.908   5.853
 8099POPC   GL140669  33.045  43.930   6.153
 8099POPC   GL240670  33.007  43.982   6.153
 8099POPC   C1A40671  33.013  43.898   6.453
 8099POPC   D2A40672  33.006  43.849   6.753
 8099POPC   C3A40673  33.071  43.936   7.053
 8099POPC   C4A40674  33.040  43.889   7.353
 8099POPC   C1B40675  33.063  44.148   6.453
 8099POPC   C2B40676  33.058  44.127   6.753
 8099POPC   C3B40677  33.052  44.088   7.053
 8099POPC   C4B40678  32.999  44.128   7.353
 8100POPC   NC340679   5.126  44.643   5.553
 8100POPC   PO440680   5.143  44.657   5.853
 8100POPC   GL140681   5.052  44.703   6.153
 8100POPC   GL240682   5.029  44.771   6.153
 8100POPC   C1A40683   5.053  44.700   6.453
 8100POPC   D2A40684   5.091  44.651   6.753
 8100POPC   C3A40685   5.142  44.646   7.053
 8100POPC   C4A40686   5.060  44.706   7.353
 8100POPC   C1B40687   5.035  44.879   6.453
 8100POPC   C2B40688   4.994  44.874   6.753
 8100POPC   C3B40689   4.996  44.930   7.053
 8100POPC   C4B40690   5.026  44.905   7.353
 8101POPC   NC340691  35.314   2.721   5.553
 8101POPC   PO440692  35.323   2.802   5.853
 8101POPC   GL140693  35.364   2.728   6.153
 8101POPC   GL240694  35.199   2.766   6.153
 8101POPC   C1A40695  35.386   2.746   6.453
 8101POPC   D2A40696  35.383   2.806   6.753
 8101POPC   C3A40697  35.330   2.757   7.053
 8101POPC   C4A40698  35.311   2.745   7.353
 8101POPC   C1B40699  35.071   2.704   6.453
 8101POPC   C2B40700  35.073   2.696   6.753
 8101POPC   C3B40701  35.109   2.698   7.053
 8101POPC   C4B40702  35.085   2.733   7.353
 8102POPC   NC340703  32.250  15.219   5.553
 8102POPC   PO440704  32.279  15.189   5.853
 8102POPC   GL140705  32.289  15.194   6.153
 8102POPC   GL240706  32.369  15.058   6.153
 8102POPC   C1A40707  32.270  15.157   6.453
 8102POPC   D2A40708  32.262  15.228   6.753
 8102POPC   C3A40709  32.267  15.224   7.053
 8102POPC   C4A40710  32.221  15.215   7.353
 8102POPC   C1B40711  32.452  14.988   6.453
 8102POPC   C2B40712  32.470  15.011   6.753
 8102POPC   C3B40713  32.486  15.036   7.053
 8102POPC   C4B40714  32.403  15.010   7.353
 8103POPC   NC340715   5.045  22.895   5.553
 8103POPC   PO440716   5.069  22.915   5.853
 8103POPC   GL140717   5.073  22.935   6.153
 8103POPC   GL240718   4.984  22.819   6.153
 8103POPC   C1A40719   5.046  22.950   6.453
 8103POPC   D2A40720   5.105  22.913   6.753
 8103POPC   C3A40721   5.059  22.983   7.053
 8103POPC   C4A40722   5.086  22.947   7.353
 8103POPC   C1B40723   4.916  22.699   6.453
 8103POPC   C2B40724   4.993  22.775   6.753
 8103POPC   C3B40725   4.906  22.706   7.053
 8103POPC   C4B40726   4.999  22.731   7.353
 8104POPC   NC340727  22.167   0.418   5.553
 8104POPC   PO440728  22.201   0.482   5.853
 8104POPC   GL140729  22.168   0.473   6.153
 8104POPC   GL240730  22.090   0.561   6.153
 8104POPC   C1A40731  22.131   0.402   6.453
 8104POPC   D2A40732  22.141   0.398   6.753
 8104POPC   C3A40733  22.128   0.406   7.053
 8104POPC   C4A40734  22.201   0.483   7.353
 8104POPC   C1B40735  21.985   0.642   6.453
 8104POPC   C2B40736  21.948   0.589   6.753
 8104POPC   C3B40737  21.962   0.586   7.053
 8104POPC   C4B40738  21.956   0.555   7.353
 8105POPC   NC340739  20.645  25.295   5.553
 8105POPC   PO440740  20.627  25.218   5.853
 8105POPC   GL140741  20.639  25.262   6.153
 8105POPC   GL240742  20.501  25.396   6.153
 8105POPC   C1A40743  20.570  25.227   6.453
 8105POPC   D2A40744  20.632  25.225   6.753
 8105POPC   C3A40745  20.633  25.245   7.053
 8105POPC   C4A40746  20.604  25.229   7.353
 8105POPC   C1B40747  20.474  25.433   6.453
 8105POPC   C2B40748  20.402  25.481   6.753
 8105POPC   C3B40749  20.478  25.399   7.053
 8105POPC   C4B40750  20.465  25.463   7.353
 8106POPC   NC340751  41.537  43.903   5.553
 8106POPC   PO440752  41.573  43.874   5.853
 8106POPC   GL140753  41.574  43.893   6.153
 8106POPC   GL240754  41.546  43.722   6.153
 8106POPC   C1A40755  41.562  43.870   6.453
 8106POPC   D2A40756  41.575  43.879   6.753
 8106POPC   C3A40757  41.528  43.927   7.053
 8106POPC   C4A40758  41.531  43.868   7.353
 8106POPC   C1B40759  41.558  43.652   6.453
 8106POPC   C2B40760  41.497  43.661   6.753
 8106POPC   C3B40761  41.545  43.625   7.053
 8106POPC   C4B40762  41.561  43.649   7.353
 8107POPC   NC340763  36.869  38.445   5.553
 8107POPC   PO440764  36.942  38.444   5.853
 8107POPC   GL140765  36.860  38.413   6.153
 8107POPC   GL240766  36.956  38.542   6.153
 8107POPC   C1A40767  36.943  38.412   6.453
 8107POPC   D2A40768  36.932  38.464   6.753
 8107POPC   C3A40769  36.951  38.417   7.053
 8107POPC   C4A40770  36.944  38.483   7.353
 8107POPC   C1B40771  37.076  38.611   6.453
 8107POPC   C2B40772  37.081  38.579   6.753
 8107POPC   C3B40773  37.132  38.599   7.053
 8107POPC   C4B40774  37.146  38.594   7.353
 8108POPC   NC340775   9.006  11.313   5.553
 8108POPC   PO440776   8.947  11.256   5.853
 8108POPC   GL140777   8.984  11.286   6.153
 8108POPC   GL240778   8.950  11.190   6.153
 8108POPC   C1A40779   8.984  11.299   6.453
 8108POPC   D2A40780   9.014  11.307   6.753
 8108POPC   C3A40781   8.974  11.268   7.053
 8108POPC   C4A40782   8.994  11.314   7.353
 8108POPC   C1B40783   8.913  11.093   6.453
 8108POPC   C2B40784   8.943  11.031   6.753
 8108POPC   C3B40785   8.907  11.067   7.053
 8108POPC   C4B40786   8.921  11.062   7.353
 8109POPC   NC340787  11.305  23.675   5.553
 8109POPC   PO440788  11.267  23.699   5.853
 8109POPC   GL140789  11.331  23.736   6.153
 8109POPC   GL240790  11.217  23.726   6.153
 8109POPC   C1A40791  11.271  23.675   6.453
 8109POPC   D2A40792  11.276  23.684   6.753
 8109POPC   C3A40793  11.261  23.691   7.053
 8109POPC   C4A40794  11.307  23.718   7.353
 8109POPC   C1B40795  11.019  23.684   6.453
 8109POPC   C2B40796  11.086  23.625   6.753
 8109POPC   C3B40797  11.105  23.635   7.053
 8109POPC   C4B40798  11.016  23.609   7.353
 8110POPC   NC340799   7.465  27.572   5.553
 8110POPC   PO440800   7.399  27.563   5.853
 8110POPC   GL140801   7.387  27.566   6.153
 8110POPC   GL240802   7.523  27.512   6.153
 8110POPC   C1A40803   7.410  27.623   6.453
 8110POPC   D2A40804   7.393  27.587   6.753
 8110POPC   C3A40805   7.384  27.620   7.053
 8110POPC   C4A40806   7.467  27.567   7.353
 8110POPC   C1B40807   7.640  27.484   6.453
 8110POPC   C2B40808   7.579  27.415   6.753
 8110POPC   C3B40809   7.661  27.413   7.053
 8110POPC   C4B40810   7.580  27.404   7.353
 8111POPC   NC340811  21.366   8.982   5.553
 8111POPC   PO440812  21.339   9.014   5.853
 8111POPC   GL140813  21.364   9.019   6.153
 8111POPC   GL240814  21.313   8.985   6.153
 8111POPC   C1A40815  21.352   8.997   6.453
 8111POPC   D2A40816  21.416   8.925   6.753
 8111POPC   C3A40817  21.435   8.960   7.053
 8111POPC   C4A40818  21.419   8.960   7.353
 8111POPC   C1B40819  21.111   8.932   6.453
 8111POPC   C2B40820  21.158   8.889   6.753
 8111POPC   C3B40821  21.197   8.913   7.053
 8111POPC   C4B40822  21.168   8.865   7.353
 8112POPC   NC340823  42.293  40.811   5.553
 8112POPC   PO440824  42.346  40.796   5.853
 8112POPC   GL140825  42.383  40.775   6.153
 8112POPC   GL240826  42.205  40.844   6.153
 8112POPC   C1A40827  42.316  40.779   6.453
 8112POPC   D2A40828  42.331  40.779   6.753
 8112POPC   C3A40829  42.321  40.770   7.053
 8112POPC   C4A40830  42.375  40.782   7.353
 8112POPC   C1B40831  42.154  40.948   6.453
 8112POPC   C2B40832  42.114  40.917   6.753
 8112POPC   C3B40833  42.130  40.948   7.053
 8112POPC   C4B40834  42.106  40.893   7.353
 8113POPC   NC340835  26.796  14.445   5.553
 8113POPC   PO440836  26.790  14.373   5.853
 8113POPC   GL140837  26.817  14.448   6.153
 8113POPC   GL240838  26.795  14.289   6.153
 8113POPC   C1A40839  26.781  14.415   6.453
 8113POPC   D2A40840  26.786  14.404   6.753
 8113POPC   C3A40841  26.837  14.377   7.053
 8113POPC   C4A40842  26.848  14.419   7.353
 8113POPC   C1B40843  26.672  14.146   6.453
 8113POPC   C2B40844  26.732  14.160   6.753
 8113POPC   C3B40845  26.674  14.232   7.053
 8113POPC   C4B40846  26.718  14.239   7.353
 8114POPC   NC340847  43.131   5.897   5.553
 8114POPC   PO440848  43.118   5.916   5.853
 8114POPC   GL140849  43.149   5.887   6.153
 8114POPC   GL240850  43.014   5.966   6.153
 8114POPC   C1A40851  43.081   5.911   6.453
 8114POPC   D2A40852  43.076   5.829   6.753
 8114POPC   C3A40853  43.155   5.884   7.053
 8114POPC   C4A40854  43.147   5.895   7.353
 8114POPC   C1B40855  42.894   6.013   6.453
 8114POPC   C2B40856  42.860   6.019   6.753
 8114POPC   C3B40857  42.905   6.046   7.053
 8114POPC   C4B40858  42.919   6.006   7.353
 8115POPC   NC340859  37.704  16.731   5.553
 8115POPC   PO440860  37.660  16.757   5.853
 8115POPC   GL140861  37.675  16.740   6.153
 8115POPC   GL240862  37.599  16.821   6.153
 8115POPC   C1A40863  37.673  16.712   6.453
 8115POPC   D2A40864  37.715  16.751   6.753
 8115POPC   C3A40865  37.656  16.707   7.053
 8115POPC   C4A40866  37.670  16.763   7.353
 8115POPC   C1B40867  37.475  16.862   6.453
 8115POPC   C2B40868  37.525  16.873   6.753
 8115POPC   C3B40869  37.437  16.925   7.053
 8115POPC   C4B40870  37.500  16.909   7.353
 8116POPC   NC340871   0.434  26.016   5.553
 8116POPC   PO440872   0.462  26.026   5.853
 8116POPC   GL140873   0.464  26.039   6.153
 8116POPC   GL240874   0.515  25.975   6.153
 8116POPC   C1A40875   0.473  25.996   6.453
 8116POPC   D2A40876   0.400  25.995   6.753
 8116POPC   C3A40877   0.452  26.082   7.053
 8116POPC   C4A40878   0.459  26.085   7.353
 8116POPC   C1B40879   0.582  25.810   6.453
 8116POPC   C2B40880   0.495  25.801   6.753
 8116POPC   C3B40881   0.550  25.792   7.053
 8116POPC   C4B40882   0.553  25.855   7.353
 8117POPC   NC340883  15.146  41.579   5.553
 8117POPC   PO440884  15.174  41.599   5.853
 8117POPC   GL140885  15.130  41.562   6.153
 8117POPC   GL240886  15.254  41.489   6.153
 8117POPC   C1A40887  15.212  41.528   6.453
 8117POPC   D2A40888  15.147  41.595   6.753
 8117POPC   C3A40889  15.167  41.518   7.053
 8117POPC   C4A40890  15.226  41.549   7.353
 8117POPC   C1B40891  15.364  41.394   6.453
 8117POPC   C2B40892  15.283  41.325   6.753
 8117POPC   C3B40893  15.282  41.337   7.053
 8117POPC   C4B40894  15.303  41.343   7.353
 8118POPC   NC340895  10.514  12.816   5.553
 8118POPC   PO440896  10.547  12.822   5.853
 8118POPC   GL140897  10.499  12.874   6.153
 8118POPC   GL240898  10.475  12.908   6.153
 8118POPC   C1A40899  10.504  12.861   6.453
 8118POPC   D2A40900  10.521  12.851   6.753
 8118POPC   C3A40901  10.524  12.894   7.053
 8118POPC   C4A40902  10.508  12.898   7.353
 8118POPC   C1B40903  10.362  13.022   6.453
 8118POPC   C2B40904  10.278  13.009   6.753
 8118POPC   C3B40905  10.285  13.013   7.053
 8118POPC   C4B40906  10.294  13.035   7.353
 8119POPC   NC340907  22.205  44.688   5.553
 8119POPC   PO440908  22.140  44.673   5.853
 8119POPC   GL140909  22.132  44.682   6.153
 8119POPC   GL240910  22.287  44.666   6.153
 8119POPC   C1A40911  22.140  44.691   6.453
 8119POPC   D2A40912  22.200  44.674   6.753
 8119POPC   C3A40913  22.119  44.692   7.053
 8119POPC   C4A40914  22.157  44.674   7.353
 8119POPC   C1B40915  22.365  44.777   6.453
 8119POPC   C2B40916  22.389  44.729   6.753
 8119POPC   C3B40917  22.404  44.780   7.053
 8119POPC   C4B40918  22.378  44.783   7.353
 8120POPC   NC340919   4.358  23.717   5.553
 8120POPC   PO440920   4.313  23.733   5.853
 8120POPC   GL140921   4.309  23.739   6.153
 8120POPC   GL240922   4.329  23.864   6.153
 8120POPC   C1A40923   4.345  23.689   6.453
 8120POPC   D2A40924   4.314  23.676   6.753
 8120POPC   C3A40925   4.335  23.667   7.053
 8120POPC   C4A40926   4.357  23.751   7.353
 8120POPC   C1B40927   4.233  23.981   6.453
 8120POPC   C2B40928   4.205  23.973   6.753
 8120POPC   C3B40929   4.210  23.937   7.053
 8120POPC   C4B40930   4.221  23.954   7.353
 8121POPC   NC340931  36.094  19.807   5.553
 8121POPC   PO440932  36.136  19.884   5.853
 8121POPC   GL140933  36.153  19.855   6.153
 8121POPC   GL240934  35.977  19.799   6.153
 8121POPC   C1A40935  36.101  19.799   6.453
 8121POPC   D2A40936  36.114  19.866   6.753
 8121POPC   C3A40937  36.113  19.806   7.053
 8121POPC   C4A40938  36.175  19.842   7.353
 8121POPC   C1B40939  35.873  19.822   6.453
 8121POPC   C2B40940  35.905  19.829   6.753
 8121POPC   C3B40941  35.835  19.825   7.053
 8121POPC   C4B40942  35.866  19.799   7.353
 8122POPC   NC340943  29.189   8.231   5.553
 8122POPC   PO440944  29.147   8.225   5.853
 8122POPC   GL140945  29.097   8.164   6.153
 8122POPC   GL240946  29.028   8.105   6.153
 8122POPC   C1A40947  29.142   8.213   6.453
 8122POPC   D2A40948  29.191   8.154   6.753
 8122POPC   C3A40949  29.152   8.175   7.053
 8122POPC   C4A40950  29.095   8.207   7.353
 8122POPC   C1B40951  28.978   7.971   6.453
 8122POPC   C2B40952  28.943   8.028   6.753
 8122POPC   C3B40953  29.021   8.026   7.053
 8122POPC   C4B40954  29.008   8.005   7.353
 8123POPC   NC340955   5.901  27.575   5.553
 8123POPC   PO440956   5.884  27.616   5.853
 8123POPC   GL140957   5.825  27.574   6.153
 8123POPC   GL240958   5.959  27.508   6.153
 8123POPC   C1A40959   5.864  27.575   6.453
 8123POPC   D2A40960   5.854  27.609   6.753
 8123POPC   C3A40961   5.885  27.632   7.053
 8123POPC   C4A40962   5.855  27.603   7.353
 8123POPC   C1B40963   6.041  27.397   6.453
 8123POPC   C2B40964   6.095  27.470   6.753
 8123POPC   C3B40965   6.052  27.465   7.053
 8123POPC   C4B40966   6.091  27.421   7.353
 8124POPC   NC340967  28.381  10.503   5.553
 8124POPC   PO440968  28.375  10.564   5.853
 8124POPC   GL140969  28.394  10.559   6.153
 8124POPC   GL240970  28.482  10.393   6.153
 8124POPC   C1A40971  28.388  10.532   6.453
 8124POPC   D2A40972  28.393  10.492   6.753
 8124POPC   C3A40973  28.352  10.559   7.053
 8124POPC   C4A40974  28.370  10.548   7.353
 8124POPC   C1B40975  28.509  10.379   6.453
 8124POPC   C2B40976  28.529  10.343   6.753
 8124POPC   C3B40977  28.521  10.307   7.053
 8124POPC   C4B40978  28.527  10.314   7.353
 8125POPC   NC340979  40.830   6.676   5.553
 8125POPC   PO440980  40.744   6.602   5.853
 8125POPC   GL140981  40.765   6.599   6.153
 8125POPC   GL240982  40.824   6.753   6.153
 8125POPC   C1A40983  40.766   6.691   6.453
 8125POPC   D2A40984  40.831   6.685   6.753
 8125POPC   C3A40985  40.766   6.614   7.053
 8125POPC   C4A40986  40.781   6.632   7.353
 8125POPC   C1B40987  40.834   6.887   6.453
 8125POPC   C2B40988  40.900   6.886   6.753
 8125POPC   C3B40989  40.829   6.892   7.053
 8125POPC   C4B40990  40.829   6.888   7.353
 8126POPC   NC340991  44.676  20.629   5.553
 8126POPC   PO440992  44.617  20.593   5.853
 8126POPC   GL140993  44.641  20.598   6.153
 8126POPC   GL240994  44.552  20.655   6.153
 8126POPC   C1A40995  44.618  20.595   6.453
 8126POPC   D2A40996  44.663  20.616   6.753
 8126POPC   C3A40997  44.646  20.651   7.053
 8126POPC   C4A40998  44.681  20.575   7.353
 8126POPC   C1B40999  44.398  20.665   6.453
 8126POPC   C2B41000  44.459  20.689   6.753
 8126POPC   C3B41001  44.457  20.698   7.053
 8126POPC   C4B41002  44.408  20.656   7.353
 8127POPC   NC341003  15.206  25.239   5.553
 8127POPC   PO441004  15.226  25.239   5.853
 8127POPC   GL141005  15.148  25.264   6.153
 8127POPC   GL241006  15.224  25.125   6.153
 8127POPC   C1A41007  15.206  25.233   6.453
 8127POPC   D2A41008  15.216  25.265   6.753
 8127POPC   C3A41009  15.178  25.256   7.053
 8127POPC   C4A41010  15.164  25.315   7.353
 8127POPC   C1B41011  15.305  25.119   6.453
 8127POPC   C2B41012  15.342  25.092   6.753
 8127POPC   C3B41013  15.323  25.128   7.053
 8127POPC   C4B41014  15.391  25.115   7.353
 8128POPC   NC341015  38.448   1.955   5.553
 8128POPC   PO441016  38.424   1.982   5.853
 8128POPC   GL141017  38.438   1.996   6.153
 8128POPC   GL241018  38.335   2.038   6.153
 8128POPC   C1A41019  38.501   2.028   6.453
 8128POPC   D2A41020  38.490   2.025   6.753
 8128POPC   C3A41021  38.451   2.008   7.053
 8128POPC   C4A41022  38.426   1.983   7.353
 8128POPC   C1B41023  38.236   2.096   6.453
 8128POPC   C2B41024  38.286   2.125   6.753
 8128POPC   C3B41025  38.263   2.140   7.053
 8128POPC   C4B41026  38.263   2.105   7.353
 8129POPC   NC341027   2.744   1.970   5.553
 8129POPC   PO441028   2.767   1.955   5.853
 8129POPC   GL141029   2.727   2.016   6.153
 8129POPC   GL241030   2.805   2.140   6.153
 8129POPC   C1A41031   2.748   1.982   6.453
 8129POPC   D2A41032   2.802   1.972   6.753
 8129POPC   C3A41033   2.813   2.025   7.053
 8129POPC   C4A41034   2.802   1.972   7.353
 8129POPC   C1B41035   2.821   2.258   6.453
 8129POPC   C2B41036   2.770   2.267   6.753
 8129POPC   C3B41037   2.854   2.192   7.053
 8129POPC   C4B41038   2.797   2.255   7.353
 8130POPC   NC341039   4.300  37.697   5.553
 8130POPC   PO441040   4.348  37.679   5.853
 8130POPC   GL141041   4.269  37.714   6.153
 8130POPC   GL241042   4.202  37.676   6.153
 8130POPC   C1A41043   4.313  37.679   6.453
 8130POPC   D2A41044   4.311  37.691   6.753
 8130POPC   C3A41045   4.315  37.673   7.053
 8130POPC   C4A41046   4.304  37.727   7.353
 8130POPC   C1B41047   4.098  37.682   6.453
 8130POPC   C2B41048   4.062  37.742   6.753
 8130POPC   C3B41049   4.081  37.743   7.053
 8130POPC   C4B41050   4.027  37.654   7.353
 8131POPC   NC341051  17.546   7.452   5.553
 8131POPC   PO441052  17.511   7.396   5.853
 8131POPC   GL141053  17.466   7.380   6.153
 8131POPC   GL241054  17.587   7.510   6.153
 8131POPC   C1A41055  17.506   7.376   6.453
 8131POPC   D2A41056  17.494   7.467   6.753
 8131POPC   C3A41057  17.553   7.463   7.053
 8131POPC   C4A41058  17.505   7.470   7.353
 8131POPC   C1B41059  17.680   7.634   6.453
 8131POPC   C2B41060  17.687   7.589   6.753
 8131POPC   C3B41061  17.653   7.653   7.053
 8131POPC   C4B41062  17.681   7.657   7.353
 8132POPC   NC341063  36.115  13.579   5.553
 8132POPC   PO441064  36.146  13.586   5.853
 8132POPC   GL141065  36.119  13.677   6.153
 8132POPC   GL241066  36.030  13.694   6.153
 8132POPC   C1A41067  36.089  13.630   6.453
 8132POPC   D2A41068  36.101  13.648   6.753
 8132POPC   C3A41069  36.177  13.599   7.053
 8132POPC   C4A41070  36.170  13.639   7.353
 8132POPC   C1B41071  35.918  13.642   6.453
 8132POPC   C2B41072  35.888  13.662   6.753
 8132POPC   C3B41073  35.919  13.683   7.053
 8132POPC   C4B41074  35.876  13.706   7.353
 8133POPC   NC341075   2.791   9.742   5.553
 8133POPC   PO441076   2.809   9.705   5.853
 8133POPC   GL141077   2.805   9.785   6.153
 8133POPC   GL241078   2.747   9.920   6.153
 8133POPC   C1A41079   2.769   9.709   6.453
 8133POPC   D2A41080   2.782   9.756   6.753
 8133POPC   C3A41081   2.810   9.748   7.053
 8133POPC   C4A41082   2.763   9.769   7.353
 8133POPC   C1B41083   2.704  10.019   6.453
 8133POPC   C2B41084   2.709  10.040   6.753
 8133POPC   C3B41085   2.737  10.038   7.053
 8133POPC   C4B41086   2.729  10.002   7.353
 8134POPC   NC341087  34.538  14.442   5.553
 8134POPC   PO441088  34.538  14.393   5.853
 8134POPC   GL141089  34.601  14.409   6.153
 8134POPC   GL241090  34.675  14.355   6.153
 8134POPC   C1A41091  34.556  14.442   6.453
 8134POPC   D2A41092  34.565  14.406   6.753
 8134POPC   C3A41093  34.540  14.380   7.053
 8134POPC   C4A41094  34.557  14.388   7.353
 8134POPC   C1B41095  34.797  14.357   6.453
 8134POPC   C2B41096  34.794  14.396   6.753
 8134POPC   C3B41097  34.850  14.326   7.053
 8134POPC   C4B41098  34.854  14.336   7.353
 8135POPC   NC341099  38.434  44.697   5.553
 8135POPC   PO441100  38.430  44.615   5.853
 8135POPC   GL141101  38.453  44.686   6.153
 8135POPC   GL241102  38.361  44.786   6.153
 8135POPC   C1A41103  38.494  44.698   6.453
 8135POPC   D2A41104  38.447  44.668   6.753
 8135POPC   C3A41105  38.488  44.660   7.053
 8135POPC   C4A41106  38.492  44.687   7.353
 8135POPC   C1B41107  38.273  44.858   6.453
 8135POPC   C2B41108  38.312  44.822   6.753
 8135POPC   C3B41109  38.331  44.876   7.053
 8135POPC   C4B41110  38.254  44.815   7.353
 8136POPC   NC341111  43.121  36.953   5.553
 8136POPC   PO441112  43.101  36.925   5.853
 8136POPC   GL141113  43.068  36.938   6.153
 8136POPC   GL241114  43.118  36.972   6.153
 8136POPC   C1A41115  43.117  36.921   6.453
 8136POPC   D2A41116  43.158  36.905   6.753
 8136POPC   C3A41117  43.094  36.914   7.053
 8136POPC   C4A41118  43.098  36.885   7.353
 8136POPC   C1B41119  43.209  37.104   6.453
 8136POPC   C2B41120  43.200  37.166   6.753
 8136POPC   C3B41121  43.205  37.147   7.053
 8136POPC   C4B41122  43.169  37.119   7.353
 8137POPC   NC341123   1.206  13.628   5.553
 8137POPC   PO441124   1.181  13.596   5.853
 8137POPC   GL141125   1.228  13.587   6.153
 8137POPC   GL241126   1.211  13.695   6.153
 8137POPC   C1A41127   1.235  13.596   6.453
 8137POPC   D2A41128   1.183  13.623   6.753
 8137POPC   C3A41129   1.261  13.635   7.053
 8137POPC   C4A41130   1.244  13.600   7.353
 8137POPC   C1B41131   1.130  13.872   6.453
 8137POPC   C2B41132   1.120  13.848   6.753
 8137POPC   C3B41133   1.168  13.876   7.053
 8137POPC   C4B41134   1.091  13.833   7.353
 8138POPC   NC341135  27.608   9.787   5.553
 8138POPC   PO441136  27.546   9.719   5.853
 8138POPC   GL141137  27.555   9.750   6.153
 8138POPC   GL241138  27.515   9.657   6.153
 8138POPC   C1A41139  27.547   9.733   6.453
 8138POPC   D2A41140  27.563   9.731   6.753
 8138POPC   C3A41141  27.619   9.726   7.053
 8138POPC   C4A41142  27.605   9.737   7.353
 8138POPC   C1B41143  27.430   9.556   6.453
 8138POPC   C2B41144  27.370   9.567   6.753
 8138POPC   C3B41145  27.347   9.653   7.053
 8138POPC   C4B41146  27.347   9.559   7.353
 8139POPC   NC341147  31.487   8.209   5.553
 8139POPC   PO441148  31.472   8.189   5.853
 8139POPC   GL141149  31.496   8.181   6.153
 8139POPC   GL241150  31.522   8.269   6.153
 8139POPC   C1A41151  31.519   8.154   6.453
 8139POPC   D2A41152  31.480   8.200   6.753
 8139POPC   C3A41153  31.460   8.176   7.053
 8139POPC   C4A41154  31.461   8.158   7.353
 8139POPC   C1B41155  31.562   8.372   6.453
 8139POPC   C2B41156  31.539   8.466   6.753
 8139POPC   C3B41157  31.617   8.468   7.053
 8139POPC   C4B41158  31.584   8.443   7.353
 8140POPC   NC341159  16.753  22.173   5.553
 8140POPC   PO441160  16.725  22.208   5.853
 8140POPC   GL141161  16.747  22.154   6.153
 8140POPC   GL241162  16.591  22.201   6.153
 8140POPC   C1A41163  16.751  22.161   6.453
 8140POPC   D2A41164  16.739  22.212   6.753
 8140POPC   C3A41165  16.779  22.113   7.053
 8140POPC   C4A41166  16.752  22.141   7.353
 8140POPC   C1B41167  16.485  22.241   6.453
 8140POPC   C2B41168  16.506  22.263   6.753
 8140POPC   C3B41169  16.446  22.186   7.053
 8140POPC   C4B41170  16.523  22.207   7.353
 8141POPC   NC341171  26.798  15.958   5.553
 8141POPC   PO441172  26.852  15.954   5.853
 8141POPC   GL141173  26.837  15.909   6.153
 8141POPC   GL241174  26.968  15.971   6.153
 8141POPC   C1A41175  26.838  15.966   6.453
 8141POPC   D2A41176  26.827  15.984   6.753
 8141POPC   C3A41177  26.792  15.925   7.053
 8141POPC   C4A41178  26.820  15.948   7.353
 8141POPC   C1B41179  27.026  15.973   6.453
 8141POPC   C2B41180  27.114  15.899   6.753
 8141POPC   C3B41181  27.032  15.894   7.053
 8141POPC   C4B41182  27.115  15.988   7.353
 8142POPC   NC341183   4.362  41.521   5.553
 8142POPC   PO441184   4.361  41.594   5.853
 8142POPC   GL141185   4.306  41.539   6.153
 8142POPC   GL241186   4.338  41.407   6.153
 8142POPC   C1A41187   4.300  41.592   6.453
 8142POPC   D2A41188   4.343  41.511   6.753
 8142POPC   C3A41189   4.309  41.534   7.053
 8142POPC   C4A41190   4.289  41.525   7.353
 8142POPC   C1B41191   4.456  41.321   6.453
 8142POPC   C2B41192   4.410  41.382   6.753
 8142POPC   C3B41193   4.440  41.327   7.053
 8142POPC   C4B41194   4.455  41.367   7.353
 8143POPC   NC341195  12.896  43.917   5.553
 8143POPC   PO441196  12.828  43.850   5.853
 8143POPC   GL141197  12.805  43.868   6.153
 8143POPC   GL241198  12.707  43.917   6.153
 8143POPC   C1A41199  12.845  43.877   6.453
 8143POPC   D2A41200  12.846  43.909   6.753
 8143POPC   C3A41201  12.848  43.849   7.053
 8143POPC   C4A41202  12.853  43.930   7.353
 8143POPC   C1B41203  12.562  43.929   6.453
 8143POPC   C2B41204  12.552  43.900   6.753
 8143POPC   C3B41205  12.624  43.890   7.053
 8143POPC   C4B41206  12.586  43.888   7.353
 8144POPC   NC341207  27.632  32.226   5.553
 8144POPC   PO441208  27.609  32.211   5.853
 8144POPC   GL141209  27.599  32.243   6.153
 8144POPC   GL241210  27.556  32.361   6.153
 8144POPC   C1A41211  27.551  32.248   6.453
 8144POPC   D2A41212  27.555  32.220   6.753
 8144POPC   C3A41213  27.598  32.209   7.053
 8144POPC   C4A41214  27.621  32.276   7.353
 8144POPC   C1B41215  27.463  32.406   6.453
 8144POPC   C2B41216  27.424  32.486   6.753
 8144POPC   C3B41217  27.475  32.463   7.053
 8144POPC   C4B41218  27.411  32.465   7.353
 8145POPC   NC341219  20.567  18.312   5.553
 8145POPC   PO441220  20.645  18.305   5.853
 8145POPC   GL141221  20.642  18.305   6.153
 8145POPC   GL241222  20.772  18.281   6.153
 8145POPC   C1A41223  20.628  18.236   6.453
 8145POPC   D2A41224  20.627  18.283   6.753
 8145POPC   C3A41225  20.581  18.314   7.053
 8145POPC   C4A41226  20.605  18.257   7.353
 8145POPC   C1B41227  20.851  18.342   6.453
 8145POPC   C2B41228  20.874  18.273   6.753
 8145POPC   C3B41229  20.847  18.350   7.053
 8145POPC   C4B41230  20.823  18.306   7.353
 8146POPC   NC341231  37.670   2.784   5.553
 8146POPC   PO441232  37.710   2.754   5.853
 8146POPC   GL141233  37.636   2.719   6.153
 8146POPC   GL241234  37.737   2.638   6.153
 8146POPC   C1A41235  37.654   2.792   6.453
 8146POPC   D2A41236  37.681   2.781   6.753
 8146POPC   C3A41237  37.689   2.747   7.053
 8146POPC   C4A41238  37.640   2.805   7.353
 8146POPC   C1B41239  37.803   2.582   6.453
 8146POPC   C2B41240  37.873   2.591   6.753
 8146POPC   C3B41241  37.863   2.603   7.053
 8146POPC   C4B41242  37.788   2.610   7.353
 8147POPC   NC341243  15.167   8.938   5.553
 8147POPC   PO441244  15.181   8.950   5.853
 8147POPC   GL141245  15.134   8.934   6.153
 8147POPC   GL241246  15.202   8.838   6.153
 8147POPC   C1A41247  15.214   8.968   6.453
 8147POPC   D2A41248  15.213   8.923   6.753
 8147POPC   C3A41249  15.227   8.935   7.053
 8147POPC   C4A41250  15.166   8.971   7.353
 8147POPC   C1B41251  15.195   8.689   6.453
 8147POPC   C2B41252  15.242   8.690   6.753
 8147POPC   C3B41253  15.186   8.728   7.053
 8147POPC   C4B41254  15.209   8.726   7.353
 8148POPC   NC341255  28.357   9.789   5.553
 8148POPC   PO441256  28.346   9.735   5.853
 8148POPC   GL141257  28.331   9.760   6.153
 8148POPC   GL241258  28.255   9.629   6.153
 8148POPC   C1A41259  28.354   9.727   6.453
 8148POPC   D2A41260  28.401   9.731   6.753
 8148POPC   C3A41261  28.325   9.748   7.053
 8148POPC   C4A41262  28.330   9.754   7.353
 8148POPC   C1B41263  28.216   9.547   6.453
 8148POPC   C2B41264  28.134   9.619   6.753
 8148POPC   C3B41265  28.136   9.611   7.053
 8148POPC   C4B41266  28.200   9.571   7.353
 8149POPC   NC341267  19.051  21.342   5.553
 8149POPC   PO441268  19.053  21.432   5.853
 8149POPC   GL141269  19.082  21.404   6.153
 8149POPC   GL241270  19.149  21.320   6.153
 8149POPC   C1A41271  19.068  21.429   6.453
 8149POPC   D2A41272  19.098  21.405   6.753
 8149POPC   C3A41273  19.026  21.393   7.053
 8149POPC   C4A41274  19.038  21.430   7.353
 8149POPC   C1B41275  19.293  21.244   6.453
 8149POPC   C2B41276  19.226  21.235   6.753
 8149POPC   C3B41277  19.241  21.192   7.053
 8149POPC   C4B41278  19.226  21.175   7.353
 8150POPC   NC341279  38.454  11.262   5.553
 8150POPC   PO441280  38.427  11.326   5.853
 8150POPC   GL141281  38.405  11.312   6.153
 8150POPC   GL241282  38.329  11.195   6.153
 8150POPC   C1A41283  38.497  11.348   6.453
 8150POPC   D2A41284  38.462  11.330   6.753
 8150POPC   C3A41285  38.483  11.328   7.053
 8150POPC   C4A41286  38.407  11.308   7.353
 8150POPC   C1B41287  38.323  11.127   6.453
 8150POPC   C2B41288  38.262  11.123   6.753
 8150POPC   C3B41289  38.253  11.060   7.053
 8150POPC   C4B41290  38.326  11.131   7.353
 8151POPC   NC341291  16.707  12.083   5.553
 8151POPC   PO441292  16.748  12.071   5.853
 8151POPC   GL141293  16.701  12.034   6.153
 8151POPC   GL241294  16.613  12.220   6.153
 8151POPC   C1A41295  16.764  12.111   6.453
 8151POPC   D2A41296  16.753  12.118   6.753
 8151POPC   C3A41297  16.702  12.049   7.053
 8151POPC   C4A41298  16.764  12.075   7.353
 8151POPC   C1B41299  16.580  12.296   6.453
 8151POPC   C2B41300  16.528  12.314   6.753
 8151POPC   C3B41301  16.552  12.309   7.053
 8151POPC   C4B41302  16.601  12.288   7.353
 8152POPC   NC341303   9.758  23.754   5.553
 8152POPC   PO441304   9.721  23.674   5.853
 8152POPC   GL141305   9.736  23.697   6.153
 8152POPC   GL241306   9.675  23.645   6.153
 8152POPC   C1A41307   9.719  23.698   6.453
 8152POPC   D2A41308   9.700  23.682   6.753
 8152POPC   C3A41309   9.766  23.675   7.053
 8152POPC   C4A41310   9.704  23.667   7.353
 8152POPC   C1B41311   9.537  23.557   6.453
 8152POPC   C2B41312   9.606  23.520   6.753
 8152POPC   C3B41313   9.550  23.485   7.053
 8152POPC   C4B41314   9.592  23.556   7.353
 8153POPC   NC341315  20.561   2.770   5.553
 8153POPC   PO441316  20.640   2.750   5.853
 8153POPC   GL141317  20.648   2.718   6.153
 8153POPC   GL241318  20.546   2.741   6.153
 8153POPC   C1A41319  20.607   2.771   6.453
 8153POPC   D2A41320  20.632   2.804   6.753
 8153POPC   C3A41321  20.614   2.776   7.053
 8153POPC   C4A41322  20.585   2.747   7.353
 8153POPC   C1B41323  20.382   2.609   6.453
 8153POPC   C2B41324  20.343   2.624   6.753
 8153POPC   C3B41325  20.379   2.642   7.053
 8153POPC   C4B41326  20.387   2.655   7.353
 8154POPC   NC341327   4.286  12.096   5.553
 8154POPC   PO441328   4.280  12.068   5.853
 8154POPC   GL141329   4.298  12.092   6.153
 8154POPC   GL241330   4.152  12.139   6.153
 8154POPC   C1A41331   4.288  12.103   6.453
 8154POPC   D2A41332   4.319  12.124   6.753
 8154POPC   C3A41333   4.319  12.091   7.053
 8154POPC   C4A41334   4.343  12.043   7.353
 8154POPC   C1B41335   4.033  12.090   6.453
 8154POPC   C2B41336   4.089  12.162   6.753
 8154POPC   C3B41337   4.096  12.113   7.053
 8154POPC   C4B41338   4.032  12.127   7.353
 8155POPC   NC341339  12.121  27.623   5.553
 8155POPC   PO441340  12.091  27.617   5.853
 8155POPC   GL141341  12.039  27.569   6.153
 8155POPC   GL241342  12.172  27.665   6.153
 8155POPC   C1A41343  12.090  27.592   6.453
 8155POPC   D2A41344  12.041  27.592   6.753
 8155POPC   C3A41345  12.031  27.562   7.053
 8155POPC   C4A41346  12.032  27.602   7.353
 8155POPC   C1B41347  12.215  27.733   6.453
 8155POPC   C2B41348  12.230  27.731   6.753
 8155POPC   C3B41349  12.291  27.776   7.053
 8155POPC   C4B41350  12.226  27.724   7.353
 8156POPC   NC341351  17.550  11.325   5.553
 8156POPC   PO441352  17.520  11.298   5.853
 8156POPC   GL141353  17.491  11.337   6.153
 8156POPC   GL241354  17.389  11.299   6.153
 8156POPC   C1A41355  17.500  11.270   6.453
 8156POPC   D2A41356  17.481  11.262   6.753
 8156POPC   C3A41357  17.504  11.344   7.053
 8156POPC   C4A41358  17.481  11.276   7.353
 8156POPC   C1B41359  17.272  11.232   6.453
 8156POPC   C2B41360  17.300  11.163   6.753
 8156POPC   C3B41361  17.238  11.169   7.053
 8156POPC   C4B41362  17.273  11.154   7.353
 8157POPC   NC341363   1.238  23.705   5.553
 8157POPC   PO441364   1.233  23.725   5.853
 8157POPC   GL141365   1.186  23.716   6.153
 8157POPC   GL241366   1.137  23.677   6.153
 8157POPC   C1A41367   1.200  23.706   6.453
 8157POPC   D2A41368   1.259  23.707   6.753
 8157POPC   C3A41369   1.216  23.719   7.053
 8157POPC   C4A41370   1.168  23.701   7.353
 8157POPC   C1B41371   0.981  23.651   6.453
 8157POPC   C2B41372   0.917  23.656   6.753
 8157POPC   C3B41373   0.925  23.735   7.053
 8157POPC   C4B41374   0.949  23.697   7.353
 8158POPC   NC341375   8.175  29.927   5.553
 8158POPC   PO441376   8.236  29.961   5.853
 8158POPC   GL141377   8.242  29.933   6.153
 8158POPC   GL241378   8.155  30.043   6.153
 8158POPC   C1A41379   8.239  29.907   6.453
 8158POPC   D2A41380   8.205  29.890   6.753
 8158POPC   C3A41381   8.228  29.907   7.053
 8158POPC   C4A41382   8.202  29.893   7.353
 8158POPC   C1B41383   8.179  30.204   6.453
 8158POPC   C2B41384   8.145  30.216   6.753
 8158POPC   C3B41385   8.121  30.174   7.053
 8158POPC   C4B41386   8.139  30.178   7.353
 8159POPC   NC341387  10.496   5.069   5.553
 8159POPC   PO441388  10.548   5.085   5.853
 8159POPC   GL141389  10.503   5.073   6.153
 8159POPC   GL241390  10.570   5.008   6.153
 8159POPC   C1A41391  10.477   5.096   6.453
 8159POPC   D2A41392  10.500   5.111   6.753
 8159POPC   C3A41393  10.520   5.127   7.053
 8159POPC   C4A41394  10.547   5.094   7.353
 8159POPC   C1B41395  10.560   4.861   6.453
 8159POPC   C2B41396  10.596   4.810   6.753
 8159POPC   C3B41397  10.541   4.854   7.053
 8159POPC   C4B41398  10.632   4.851   7.353
 8160POPC   NC341399  34.605  23.703   5.553
 8160POPC   PO441400  34.546  23.735   5.853
 8160POPC   GL141401  34.612  23.665   6.153
 8160POPC   GL241402  34.466  23.638   6.153
 8160POPC   C1A41403  34.592  23.711   6.453
 8160POPC   D2A41404  34.571  23.761   6.753
 8160POPC   C3A41405  34.575  23.684   7.053
 8160POPC   C4A41406  34.611  23.675   7.353
 8160POPC   C1B41407  34.352  23.695   6.453
 8160POPC   C2B41408  34.349  23.608   6.753
 8160POPC   C3B41409  34.328  23.625   7.053
 8160POPC   C4B41410  34.337  23.613   7.353
 8161POPC   NC341411  35.315   9.776   5.553
 8161POPC   PO441412  35.401   9.723   5.853
 8161POPC   GL141413  35.368   9.793   6.153
 8161POPC   GL241414  35.339   9.662   6.153
 8161POPC   C1A41415  35.375   9.750   6.453
 8161POPC   D2A41416  35.348   9.769   6.753
 8161POPC   C3A41417  35.359   9.769   7.053
 8161POPC   C4A41418  35.350   9.789   7.353
 8161POPC   C1B41419  35.391   9.526   6.453
 8161POPC   C2B41420  35.400   9.534   6.753
 8161POPC   C3B41421  35.325   9.492   7.053
 8161POPC   C4B41422  35.404   9.491   7.353
 8162POPC   NC341423  40.821  40.750   5.553
 8162POPC   PO441424  40.768  40.805   5.853
 8162POPC   GL141425  40.766  40.827   6.153
 8162POPC   GL241426  40.726  40.650   6.153
 8162POPC   C1A41427  40.766  40.739   6.453
 8162POPC   D2A41428  40.796  40.738   6.753
 8162POPC   C3A41429  40.756  40.736   7.053
 8162POPC   C4A41430  40.797  40.781   7.353
 8162POPC   C1B41431  40.625  40.639   6.453
 8162POPC   C2B41432  40.579  40.566   6.753
 8162POPC   C3B41433  40.618  40.574   7.053
 8162POPC   C4B41434  40.623  40.642   7.353
 8163POPC   NC341435  44.682  44.625   5.553
 8163POPC   PO441436  44.655  44.653   5.853
 8163POPC   GL141437  44.654  44.659   6.153
 8163POPC   GL241438  44.514  44.602   6.153
 8163POPC   C1A41439  44.643  44.637   6.453
 8163POPC   D2A41440  44.637  44.647   6.753
 8163POPC   C3A41441  44.696  44.694   7.053
 8163POPC   C4A41442  44.617  44.626   7.353
 8163POPC   C1B41443  44.396  44.574   6.453
 8163POPC   C2B41444  44.468  44.560   6.753
 8163POPC   C3B41445  44.412  44.573   7.053
 8163POPC   C4B41446  44.398  44.557   7.353
 8164POPC   NC341447  35.401  31.430   5.553
 8164POPC   PO441448  35.351  31.425   5.853
 8164POPC   GL141449  35.365  31.467   6.153
 8164POPC   GL241450  35.371  31.341   6.153
 8164POPC   C1A41451  35.312  31.467   6.453
 8164POPC   D2A41452  35.353  31.446   6.753
 8164POPC   C3A41453  35.339  31.497   7.053
 8164POPC   C4A41454  35.384  31.447   7.353
 8164POPC   C1B41455  35.410  31.284   6.453
 8164POPC   C2B41456  35.461  31.218   6.753
 8164POPC   C3B41457  35.488  31.288   7.053
 8164POPC   C4B41458  35.502  31.272   7.353
 8165POPC   NC341459  35.350  15.959   5.553
 8165POPC   PO441460  35.309  15.909   5.853
 8165POPC   GL141461  35.392  15.951   6.153
 8165POPC   GL241462  35.432  15.827   6.153
 8165POPC   C1A41463  35.306  15.913   6.453
 8165POPC   D2A41464  35.332  15.987   6.753
 8165POPC   C3A41465  35.362  15.977   7.053
 8165POPC   C4A41466  35.373  15.965   7.353
 8165POPC   C1B41467  35.506  15.738   6.453
 8165POPC   C2B41468  35.554  15.781   6.753
 8165POPC   C3B41469  35.534  15.747   7.053
 8165POPC   C4B41470  35.531  15.742   7.353
 8166POPC   NC341471  25.297  40.026   5.553
 8166POPC   PO441472  25.265  40.006   5.853
 8166POPC   GL141473  25.277  39.980   6.153
 8166POPC   GL241474  25.128  39.925   6.153
 8166POPC   C1A41475  25.295  39.984   6.453
 8166POPC   D2A41476  25.231  39.959   6.753
 8166POPC   C3A41477  25.273  40.051   7.053
 8166POPC   C4A41478  25.228  39.991   7.353
 8166POPC   C1B41479  25.056  39.878   6.453
 8166POPC   C2B41480  25.116  39.888   6.753
 8166POPC   C3B41481  25.127  39.835   7.053
 8166POPC   C4B41482  25.111  39.888   7.353
 8167POPC   NC341483  27.595  25.312   5.553
 8167POPC   PO441484  27.552  25.262   5.853
 8167POPC   GL141485  27.573  25.314   6.153
 8167POPC   GL241486  27.659  25.332   6.153
 8167POPC   C1A41487  27.621  25.239   6.453
 8167POPC   D2A41488  27.635  25.255   6.753
 8167POPC   C3A41489  27.545  25.242   7.053
 8167POPC   C4A41490  27.574  25.217   7.353
 8167POPC   C1B41491  27.796  25.467   6.453
 8167POPC   C2B41492  27.757  25.424   6.753
 8167POPC   C3B41493  27.745  25.448   7.053
 8167POPC   C4B41494  27.796  25.475   7.353
 8168POPC   NC341495   1.260   1.173   5.553
 8168POPC   PO441496   1.221   1.254   5.853
 8168POPC   GL141497   1.169   1.255   6.153
 8168POPC   GL241498   1.133   1.307   6.153
 8168POPC   C1A41499   1.254   1.237   6.453
 8168POPC   D2A41500   1.231   1.248   6.753
 8168POPC   C3A41501   1.226   1.218   7.053
 8168POPC   C4A41502   1.196   1.259   7.353
 8168POPC   C1B41503   1.052   1.426   6.453
 8168POPC   C2B41504   1.042   1.441   6.753
 8168POPC   C3B41505   1.086   1.377   7.053
 8168POPC   C4B41506   1.058   1.418   7.353
 8169POPC   NC341507  29.918   0.466   5.553
 8169POPC   PO441508  29.947   0.431   5.853
 8169POPC   GL141509  29.886   0.435   6.153
 8169POPC   GL241510  29.826   0.524   6.153
 8169POPC   C1A41511  29.908   0.429   6.453
 8169POPC   D2A41512  29.945   0.458   6.753
 8169POPC   C3A41513  29.885   0.473   7.053
 8169POPC   C4A41514  29.921   0.426   7.353
 8169POPC   C1B41515  29.749   0.591   6.453
 8169POPC   C2B41516  29.675   0.560   6.753
 8169POPC   C3B41517  29.717   0.557   7.053
 8169POPC   C4B41518  29.721   0.577   7.353
 8170POPC   NC341519  23.667  19.807   5.553
 8170POPC   PO441520  23.734  19.813   5.853
 8170POPC   GL141521  23.666  19.801   6.153
 8170POPC   GL241522  23.587  19.898   6.153
 8170POPC   C1A41523  23.744  19.859   6.453
 8170POPC   D2A41524  23.754  19.811   6.753
 8170POPC   C3A41525  23.716  19.805   7.053
 8170POPC   C4A41526  23.708  19.845   7.353
 8170POPC   C1B41527  23.519  19.974   6.453
 8170POPC   C2B41528  23.499  19.981   6.753
 8170POPC   C3B41529  23.595  20.069   7.053
 8170POPC   C4B41530  23.501  20.017   7.353
 8171POPC   NC341531  26.078  36.111   5.553
 8171POPC   PO441532  26.034  36.116   5.853
 8171POPC   GL141533  26.069  36.120   6.153
 8171POPC   GL241534  26.015  35.981   6.153
 8171POPC   C1A41535  26.033  36.102   6.453
 8171POPC   D2A41536  26.075  36.158   6.753
 8171POPC   C3A41537  26.064  36.153   7.053
 8171POPC   C4A41538  26.059  36.122   7.353
 8171POPC   C1B41539  25.896  35.920   6.453
 8171POPC   C2B41540  25.839  35.901   6.753
 8171POPC   C3B41541  25.933  35.953   7.053
 8171POPC   C4B41542  25.904  35.934   7.353
 8172POPC   NC341543  18.245  11.330   5.553
 8172POPC   PO441544  18.306  11.274   5.853
 8172POPC   GL141545  18.308  11.339   6.153
 8172POPC   GL241546  18.403  11.431   6.153
 8172POPC   C1A41547  18.306  11.323   6.453
 8172POPC   D2A41548  18.314  11.331   6.753
 8172POPC   C3A41549  18.280  11.325   7.053
 8172POPC   C4A41550  18.317  11.325   7.353
 8172POPC   C1B41551  18.483  11.472   6.453
 8172POPC   C2B41552  18.443  11.447   6.753
 8172POPC   C3B41553  18.449  11.474   7.053
 8172POPC   C4B41554  18.435  11.490   7.353
 8173POPC   NC341555  20.564  27.611   5.553
 8173POPC   PO441556  20.645  27.582   5.853
 8173POPC   GL141557  20.593  27.591   6.153
 8173POPC   GL241558  20.690  27.762   6.153
 8173POPC   C1A41559  20.655  27.613   6.453
 8173POPC   D2A41560  20.592  27.616   6.753
 8173POPC   C3A41561  20.611  27.606   7.053
 8173POPC   C4A41562  20.619  27.556   7.353
 8173POPC   C1B41563  20.651  27.790   6.453
 8173POPC   C2B41564  20.687  27.868   6.753
 8173POPC   C3B41565  20.652  27.791   7.053
 8173POPC   C4B41566  20.651  27.788   7.353
 8174POPC   NC341567  22.944  23.684   5.553
 8174POPC   PO441568  22.908  23.683   5.853
 8174POPC   GL141569  22.938  23.740   6.153
 8174POPC   GL241570  22.837  23.631   6.153
 8174POPC   C1A41571  22.924  23.731   6.453
 8174POPC   D2A41572  22.942  23.704   6.753
 8174POPC   C3A41573  22.935  23.724   7.053
 8174POPC   C4A41574  22.956  23.739   7.353
 8174POPC   C1B41575  22.748  23.586   6.453
 8174POPC   C2B41576  22.682  23.663   6.753
 8174POPC   C3B41577  22.745  23.643   7.053
 8174POPC   C4B41578  22.689  23.616   7.353
 8175POPC   NC341579   6.654  26.036   5.553
 8175POPC   PO441580   6.595  26.051   5.853
 8175POPC   GL141581   6.652  26.089   6.153
 8175POPC   GL241582   6.580  25.953   6.153
 8175POPC   C1A41583   6.603  26.060   6.453
 8175POPC   D2A41584   6.654  26.079   6.753
 8175POPC   C3A41585   6.686  26.016   7.053
 8175POPC   C4A41586   6.645  26.085   7.353
 8175POPC   C1B41587   6.587  25.848   6.453
 8175POPC   C2B41588   6.532  25.770   6.753
 8175POPC   C3B41589   6.553  25.823   7.053
 8175POPC   C4B41590   6.552  25.826   7.353
 8176POPC   NC341591  25.998  16.706   5.553
 8176POPC   PO441592  26.070  16.739   5.853
 8176POPC   GL141593  26.068  16.750   6.153
 8176POPC   GL241594  26.182  16.698   6.153
 8176POPC   C1A41595  25.992  16.682   6.453
 8176POPC   D2A41596  26.033  16.745   6.753
 8176POPC   C3A41597  26.049  16.772   7.053
 8176POPC   C4A41598  26.013  16.722   7.353
 8176POPC   C1B41599  26.245  16.650   6.453
 8176POPC   C2B41600  26.260  16.707   6.753
 8176POPC   C3B41601  26.312  16.704   7.053
 8176POPC   C4B41602  26.258  16.635   7.353
 8177POPC   NC341603  29.966  32.976   5.553
 8177POPC   PO441604  29.970  33.061   5.853
 8177POPC   GL141605  29.886  33.067   6.153
 8177POPC   GL241606  29.834  33.047   6.153
 8177POPC   C1A41607  29.928  33.004   6.453
 8177POPC   D2A41608  29.912  33.007   6.753
 8177POPC   C3A41609  29.939  33.034   7.053
 8177POPC   C4A41610  29.954  33.073   7.353
 8177POPC   C1B41611  29.675  33.000   6.453
 8177POPC   C2B41612  29.684  33.033   6.753
 8177POPC   C3B41613  29.681  33.037   7.053
 8177POPC   C4B41614  29.703  32.958   7.353
 8178POPC   NC341615  27.548   6.650   5.553
 8178POPC   PO441616  27.610   6.601   5.853
 8178POPC   GL141617  27.605   6.613   6.153
 8178POPC   GL241618  27.759   6.597   6.153
 8178POPC   C1A41619  27.596   6.659   6.453
 8178POPC   D2A41620  27.574   6.639   6.753
 8178POPC   C3A41621  27.575   6.596   7.053
 8178POPC   C4A41622  27.610   6.619   7.353
 8178POPC   C1B41623  27.845   6.622   6.453
 8178POPC   C2B41624  27.812   6.590   6.753
 8178POPC   C3B41625  27.804   6.678   7.053
 8178POPC   C4B41626  27.846   6.607   7.353
 8179POPC   NC341627  42.379  21.357   5.553
 8179POPC   PO441628  42.363  21.363   5.853
 8179POPC   GL141629  42.304  21.427   6.153
 8179POPC   GL241630  42.419  21.344   6.153
 8179POPC   C1A41631  42.370  21.418   6.453
 8179POPC   D2A41632  42.347  21.414   6.753
 8179POPC   C3A41633  42.310  21.349   7.053
 8179POPC   C4A41634  42.341  21.341   7.353
 8179POPC   C1B41635  42.549  21.209   6.453
 8179POPC   C2B41636  42.565  21.252   6.753
 8179POPC   C3B41637  42.538  21.250   7.053
 8179POPC   C4B41638  42.544  21.300   7.353
 8180POPC   NC341639  28.324  13.630   5.553
 8180POPC   PO441640  28.325  13.656   5.853
 8180POPC   GL141641  28.410  13.628   6.153
 8180POPC   GL241642  28.479  13.574   6.153
 8180POPC   C1A41643  28.335  13.662   6.453
 8180POPC   D2A41644  28.341  13.613   6.753
 8180POPC   C3A41645  28.336  13.664   7.053
 8180POPC   C4A41646  28.368  13.667   7.353
 8180POPC   C1B41647  28.571  13.607   6.453
 8180POPC   C2B41648  28.601  13.625   6.753
 8180POPC   C3B41649  28.576  13.612   7.053
 8180POPC   C4B41650  28.642  13.615   7.353
 8181POPC   NC341651  35.387  35.367   5.553
 8181POPC   PO441652  35.324  35.339   5.853
 8181POPC   GL141653  35.335  35.316   6.153
 8181POPC   GL241654  35.509  35.358   6.153
 8181POPC   C1A41655  35.314  35.382   6.453
 8181POPC   D2A41656  35.328  35.323   6.753
 8181POPC   C3A41657  35.386  35.330   7.053
 8181POPC   C4A41658  35.328  35.324   7.353
 8181POPC   C1B41659  35.618  35.296   6.453
 8181POPC   C2B41660  35.639  35.280   6.753
 8181POPC   C3B41661  35.607  35.271   7.053
 8181POPC   C4B41662  35.611  35.291   7.353
 8182POPC   NC341663   1.950   1.197   5.553
 8182POPC   PO441664   1.979   1.174   5.853
 8182POPC   GL141665   1.981   1.192   6.153
 8182POPC   GL241666   2.072   1.267   6.153
 8182POPC   C1A41667   1.984   1.205   6.453
 8182POPC   D2A41668   2.036   1.259   6.753
 8182POPC   C3A41669   1.990   1.214   7.053
 8182POPC   C4A41670   2.022   1.206   7.353
 8182POPC   C1B41671   2.274   1.221   6.453
 8182POPC   C2B41672   2.206   1.280   6.753
 8182POPC   C3B41673   2.238   1.288   7.053
 8182POPC   C4B41674   2.222   1.246   7.353
 8183POPC   NC341675   1.182  24.465   5.553
 8183POPC   PO441676   1.173  24.504   5.853
 8183POPC   GL141677   1.229  24.505   6.153
 8183POPC   GL241678   1.058  24.438   6.153
 8183POPC   C1A41679   1.241  24.441   6.453
 8183POPC   D2A41680   1.259  24.462   6.753
 8183POPC   C3A41681   1.230  24.460   7.053
 8183POPC   C4A41682   1.205  24.470   7.353
 8183POPC   C1B41683   0.977  24.370   6.453
 8183POPC   C2B41684   0.961  24.330   6.753
 8183POPC   C3B41685   0.991  24.385   7.053
 8183POPC   C4B41686   1.032  24.375   7.353
 8184POPC   NC341687  19.816  26.805   5.553
 8184POPC   PO441688  19.868  26.802   5.853
 8184POPC   GL141689  19.854  26.838   6.153
 8184POPC   GL241690  19.877  26.982   6.153
 8184POPC   C1A41691  19.807  26.830   6.453
 8184POPC   D2A41692  19.829  26.804   6.753
 8184POPC   C3A41693  19.815  26.852   7.053
 8184POPC   C4A41694  19.884  26.842   7.353
 8184POPC   C1B41695  19.887  27.004   6.453
 8184POPC   C2B41696  19.880  27.080   6.753
 8184POPC   C3B41697  19.928  27.093   7.053
 8184POPC   C4B41698  19.874  27.037   7.353
 8185POPC   NC341699   3.551   9.716   5.553
 8185POPC   PO441700   3.520   9.758   5.853
 8185POPC   GL141701   3.555   9.774   6.153
 8185POPC   GL241702   3.495   9.842   6.153
 8185POPC   C1A41703   3.534   9.792   6.453
 8185POPC   D2A41704   3.546   9.772   6.753
 8185POPC   C3A41705   3.556   9.797   7.053
 8185POPC   C4A41706   3.554   9.758   7.353
 8185POPC   C1B41707   3.464   9.943   6.453
 8185POPC   C2B41708   3.423   9.953   6.753
 8185POPC   C3B41709   3.483   9.944   7.053
 8185POPC   C4B41710   3.475   9.978   7.353
 8186POPC   NC341711  33.843  18.293   5.553
 8186POPC   PO441712  33.767  18.327   5.853
 8186POPC   GL141713  33.829  18.284   6.153
 8186POPC   GL241714  33.874  18.341   6.153
 8186POPC   C1A41715  33.803  18.280   6.453
 8186POPC   D2A41716  33.798  18.254   6.753
 8186POPC   C3A41717  33.751  18.274   7.053
 8186POPC   C4A41718  33.822  18.247   7.353
 8186POPC   C1B41719  33.990  18.431   6.453
 8186POPC   C2B41720  33.984  18.462   6.753
 8186POPC   C3B41721  33.947  18.416   7.053
 8186POPC   C4B41722  34.029  18.495   7.353
 8187POPC   NC341723  38.490   8.177   5.553
 8187POPC   PO441724  38.458   8.153   5.853
 8187POPC   GL141725  38.467   8.177   6.153
 8187POPC   GL241726  38.580   8.176   6.153
 8187POPC   C1A41727  38.440   8.154   6.453
 8187POPC   D2A41728  38.469   8.177   6.753
 8187POPC   C3A41729  38.434   8.191   7.053
 8187POPC   C4A41730  38.432   8.179   7.353
 8187POPC   C1B41731  38.678   8.174   6.453
 8187POPC   C2B41732  38.670   8.181   6.753
 8187POPC   C3B41733  38.699   8.252   7.053
 8187POPC   C4B41734  38.657   8.255   7.353
 8188POPC   NC341735  22.139   8.924   5.553
 8188POPC   PO441736  22.115   8.929   5.853
 8188POPC   GL141737  22.175   8.950   6.153
 8188POPC   GL241738  22.205   8.858   6.153
 8188POPC   C1A41739  22.154   8.961   6.453
 8188POPC   D2A41740  22.133   8.961   6.753
 8188POPC   C3A41741  22.143   8.962   7.053
 8188POPC   C4A41742  22.186   8.940   7.353
 8188POPC   C1B41743  22.341   8.739   6.453
 8188POPC   C2B41744  22.360   8.783   6.753
 8188POPC   C3B41745  22.354   8.766   7.053
 8188POPC   C4B41746  22.331   8.804   7.353
 8189POPC   NC341747   8.947   9.712   5.553
 8189POPC   PO441748   8.938   9.758   5.853
 8189POPC   GL141749   8.991   9.795   6.153
 8189POPC   GL241750   8.836   9.734   6.153
 8189POPC   C1A41751   9.012   9.735   6.453
 8189POPC   D2A41752   8.923   9.706   6.753
 8189POPC   C3A41753   8.928   9.719   7.053
 8189POPC   C4A41754   9.006   9.797   7.353
 8189POPC   C1B41755   8.754   9.762   6.453
 8189POPC   C2B41756   8.721   9.762   6.753
 8189POPC   C3B41757   8.758   9.784   7.053
 8189POPC   C4B41758   8.737   9.785   7.353
 8190POPC   NC341759  41.552  22.980   5.553
 8190POPC   PO441760  41.600  22.950   5.853
 8190POPC   GL141761  41.604  22.940   6.153
 8190POPC   GL241762  41.491  22.958   6.153
 8190POPC   C1A41763  41.593  22.979   6.453
 8190POPC   D2A41764  41.576  22.932   6.753
 8190POPC   C3A41765  41.573  22.973   7.053
 8190POPC   C4A41766  41.554  22.948   7.353
 8190POPC   C1B41767  41.371  23.093   6.453
 8190POPC   C2B41768  41.298  23.031   6.753
 8190POPC   C3B41769  41.392  23.095   7.053
 8190POPC   C4B41770  41.365  23.091   7.353
 8191POPC   NC341771  44.688   5.893   5.553
 8191POPC   PO441772  44.701   5.869   5.853
 8191POPC   GL141773  44.641   5.833   6.153
 8191POPC   GL241774  44.564   5.826   6.153
 8191POPC   C1A41775  44.633   5.855   6.453
 8191POPC   D2A41776  44.673   5.822   6.753
 8191POPC   C3A41777  44.689   5.872   7.053
 8191POPC   C4A41778  44.710   5.844   7.353
 8191POPC   C1B41779  44.431   5.865   6.453
 8191POPC   C2B41780  44.459   5.883   6.753
 8191POPC   C3B41781  44.397   5.833   7.053
 8191POPC   C4B41782  44.409   5.900   7.353
 8192POPC   NC341783   1.206  30.675   5.553
 8192POPC   PO441784   1.191  30.675   5.853
 8192POPC   GL141785   1.199  30.724   6.153
 8192POPC   GL241786   1.096  30.762   6.153
 8192POPC   C1A41787   1.238  30.721   6.453
 8192POPC   D2A41788   1.203  30.685   6.753
 8192POPC   C3A41789   1.213  30.739   7.053
 8192POPC   C4A41790   1.262  30.682   7.353
 8192POPC   C1B41791   1.012  30.883   6.453
 8192POPC   C2B41792   1.007  30.844   6.753
 8192POPC   C3B41793   1.013  30.869   7.053
 8192POPC   C4B41794   1.056  30.894   7.353
 8193POPC   NC341795   9.790  35.350   5.553
 8193POPC   PO441796   9.709  35.324   5.853
 8193POPC   GL141797   9.759  35.352   6.153
 8193POPC   GL241798   9.858  35.302   6.153
 8193POPC   C1A41799   9.730  35.334   6.453
 8193POPC   D2A41800   9.755  35.386   6.753
 8193POPC   C3A41801   9.774  35.390   7.053
 8193POPC   C4A41802   9.758  35.306   7.353
 8193POPC   C1B41803   9.882  35.141   6.453
 8193POPC   C2B41804   9.920  35.157   6.753
 8193POPC   C3B41805   9.957  35.190   7.053
 8193POPC   C4B41806   9.943  35.143   7.353
 8194POPC   NC341807  27.557   5.899   5.553
 8194POPC   PO441808  27.616   5.886   5.853
 8194POPC   GL141809  27.567   5.824   6.153
 8194POPC   GL241810  27.498   5.981   6.153
 8194POPC   C1A41811  27.545   5.879   6.453
 8194POPC   D2A41812  27.556   5.911   6.753
 8194POPC   C3A41813  27.573   5.875   7.053
 8194POPC   C4A41814  27.635   5.842   7.353
 8194POPC   C1B41815  27.420   5.998   6.453
 8194POPC   C2B41816  27.456   6.091   6.753
 8194POPC   C3B41817  27.407   6.067   7.053
 8194POPC   C4B41818  27.395   6.083   7.353
 8195POPC   NC341819   2.795  41.538   5.553
 8195POPC   PO441820   2.756  41.515   5.853
 8195POPC   GL141821   2.731  41.562   6.153
 8195POPC   GL241822   2.798  41.623   6.153
 8195POPC   C1A41823   2.788  41.510   6.453
 8195POPC   D2A41824   2.807  41.574   6.753
 8195POPC   C3A41825   2.760  41.514   7.053
 8195POPC   C4A41826   2.790  41.573   7.353
 8195POPC   C1B41827   2.924  41.766   6.453
 8195POPC   C2B41828   2.849  41.825   6.753
 8195POPC   C3B41829   2.903  41.789   7.053
 8195POPC   C4B41830   2.902  41.810   7.353
 8196POPC   NC341831   1.183  20.599   5.553
 8196POPC   PO441832   1.182  20.625   5.853
 8196POPC   GL141833   1.179  20.621   6.153
 8196POPC   GL241834   1.163  20.686   6.153
 8196POPC   C1A41835   1.209  20.639   6.453
 8196POPC   D2A41836   1.181  20.657   6.753
 8196POPC   C3A41837   1.172  20.627   7.053
 8196POPC   C4A41838   1.198  20.605   7.353
 8196POPC   C1B41839   1.096  20.816   6.453
 8196POPC   C2B41840   1.090  20.801   6.753
 8196POPC   C3B41841   1.036  20.824   7.053
 8196POPC   C4B41842   1.080  20.779   7.353
 8197POPC   NC341843  39.254  16.770   5.553
 8197POPC   PO441844  39.231  16.728   5.853
 8197POPC   GL141845  39.238  16.770   6.153
 8197POPC   GL241846  39.190  16.894   6.153
 8197POPC   C1A41847  39.274  16.741   6.453
 8197POPC   D2A41848  39.262  16.730   6.753
 8197POPC   C3A41849  39.263  16.748   7.053
 8197POPC   C4A41850  39.273  16.774   7.353
 8197POPC   C1B41851  39.221  16.992   6.453
 8197POPC   C2B41852  39.276  16.985   6.753
 8197POPC   C3B41853  39.281  16.940   7.053
 8197POPC   C4B41854  39.213  16.992   7.353
 8198POPC   NC341855   6.681  44.644   5.553
 8198POPC   PO441856   6.668  44.691   5.853
 8198POPC   GL141857   6.691  44.675   6.153
 8198POPC   GL241858   6.712  44.782   6.153
 8198POPC   C1A41859   6.644  44.654   6.453
 8198POPC   D2A41860   6.616  44.672   6.753
 8198POPC   C3A41861   6.676  44.628   7.053
 8198POPC   C4A41862   6.678  44.614   7.353
 8198POPC   C1B41863   6.696  44.953   6.453
 8198POPC   C2B41864   6.681  44.934   6.753
 8198POPC   C3B41865   6.679  44.912   7.053
 8198POPC   C4B41866   6.704  44.890   7.353
 8199POPC   NC341867  40.737  15.178   5.553
 8199POPC   PO441868  40.816  15.147   5.853
 8199POPC   GL141869  40.746  15.182   6.153
 8199POPC   GL241870  40.752  15.053   6.153
 8199POPC   C1A41871  40.778  15.159   6.453
 8199POPC   D2A41872  40.796  15.149   6.753
 8199POPC   C3A41873  40.810  15.160   7.053
 8199POPC   C4A41874  40.758  15.160   7.353
 8199POPC   C1B41875  40.684  14.924   6.453
 8199POPC   C2B41876  40.688  14.962   6.753
 8199POPC   C3B41877  40.611  15.018   7.053
 8199POPC   C4B41878  40.611  14.988   7.353
 8200POPC   NC341879  18.328   4.322   5.553
 8200POPC   PO441880  18.308   4.319   5.853
 8200POPC   GL141881  18.302   4.362   6.153
 8200POPC   GL241882  18.183   4.275   6.153
 8200POPC   C1A41883  18.322   4.278   6.453
 8200POPC   D2A41884  18.320   4.274   6.753
 8200POPC   C3A41885  18.263   4.273   7.053
 8200POPC   C4A41886  18.298   4.364   7.353
 8200POPC   C1B41887  18.004   4.269   6.453
 8200POPC   C2B41888  18.003   4.290   6.753
 8200POPC   C3B41889  18.081   4.208   7.053
 8200POPC   C4B41890  17.999   4.294   7.353
 8201POPC   NC341891   3.553  23.699   5.553
 8201POPC   PO441892   3.524  23.688   5.853
 8201POPC   GL141893   3.574  23.752   6.153
 8201POPC   GL241894   3.491  23.614   6.153
 8201POPC   C1A41895   3.554  23.717   6.453
 8201POPC   D2A41896   3.508  23.723   6.753
 8201POPC   C3A41897   3.516  23.682   7.053
 8201POPC   C4A41898   3.579  23.730   7.353
 8201POPC   C1B41899   3.379  23.524   6.453
 8201POPC   C2B41900   3.448  23.449   6.753
 8201POPC   C3B41901   3.433  23.534   7.053
 8201POPC   C4B41902   3.457  23.501   7.353
 8202POPC   NC341903  33.798   6.659   5.553
 8202POPC   PO441904  33.831   6.688   5.853
 8202POPC   GL141905  33.821   6.686   6.153
 8202POPC   GL241906  33.763   6.561   6.153
 8202POPC   C1A41907  33.755   6.597   6.453
 8202POPC   D2A41908  33.802   6.634   6.753
 8202POPC   C3A41909  33.794   6.692   7.053
 8202POPC   C4A41910  33.822   6.671   7.353
 8202POPC   C1B41911  33.641   6.466   6.453
 8202POPC   C2B41912  33.707   6.429   6.753
 8202POPC   C3B41913  33.665   6.418   7.053
 8202POPC   C4B41914  33.673   6.424   7.353
 8203POPC   NC341915  14.427   4.323   5.553
 8203POPC   PO441916  14.354   4.317   5.853
 8203POPC   GL141917  14.392   4.313   6.153
 8203POPC   GL241918  14.341   4.455   6.153
 8203POPC   C1A41919  14.429   4.326   6.453
 8203POPC   D2A41920  14.368   4.312   6.753
 8203POPC   C3A41921  14.384   4.273   7.053
 8203POPC   C4A41922  14.360   4.275   7.353
 8203POPC   C1B41923  14.262   4.528   6.453
 8203POPC   C2B41924  14.252   4.567   6.753
 8203POPC   C3B41925  14.231   4.478   7.053
 8203POPC   C4B41926  14.231   4.476   7.353
 8204POPC   NC341927  38.502  15.149   5.553
 8204POPC   PO441928  38.446  15.189   5.853
 8204POPC   GL141929  38.480  15.160   6.153
 8204POPC   GL241930  38.386  15.264   6.153
 8204POPC   C1A41931  38.445  15.156   6.453
 8204POPC   D2A41932  38.471  15.132   6.753
 8204POPC   C3A41933  38.494  15.140   7.053
 8204POPC   C4A41934  38.451  15.131   7.353
 8204POPC   C1B41935  38.318  15.375   6.453
 8204POPC   C2B41936  38.363  15.364   6.753
 8204POPC   C3B41937  38.301  15.360   7.053
 8204POPC   C4B41938  38.298  15.421   7.353
 8205POPC   NC341939  40.748  36.933   5.553
 8205POPC   PO441940  40.766  36.889   5.853
 8205POPC   GL141941  40.815  36.917   6.153
 8205POPC   GL241942  40.736  37.008   6.153
 8205POPC   C1A41943  40.799  36.856   6.453
 8205POPC   D2A41944  40.741  36.946   6.753
 8205POPC   C3A41945  40.772  36.925   7.053
 8205POPC   C4A41946  40.781  36.917   7.353
 8205POPC   C1B41947  40.722  37.107   6.453
 8205POPC   C2B41948  40.781  37.182   6.753
 8205POPC   C3B41949  40.753  37.147   7.053
 8205POPC   C4B41950  40.754  37.122   7.353
 8206POPC   NC341951  43.123  37.643   5.553
 8206POPC   PO441952  43.088  37.636   5.853
 8206POPC   GL141953  43.102  37.663   6.153
 8206POPC   GL241954  43.014  37.662   6.153
 8206POPC   C1A41955  43.119  37.693   6.453
 8206POPC   D2A41956  43.063  37.699   6.753
 8206POPC   C3A41957  43.096  37.641   7.053
 8206POPC   C4A41958  43.129  37.640   7.353
 8206POPC   C1B41959  42.820  37.708   6.453
 8206POPC   C2B41960  42.828  37.686   6.753
 8206POPC   C3B41961  42.872  37.711   7.053
 8206POPC   C4B41962  42.899  37.664   7.353
 8207POPC   NC341963   1.958  33.777   5.553
 8207POPC   PO441964   1.982  33.840   5.853
 8207POPC   GL141965   1.973  33.774   6.153
 8207POPC   GL241966   2.119  33.794   6.153
 8207POPC   C1A41967   1.998  33.810   6.453
 8207POPC   D2A41968   1.991  33.806   6.753
 8207POPC   C3A41969   2.003  33.796   7.053
 8207POPC   C4A41970   1.991  33.761   7.353
 8207POPC   C1B41971   2.186  33.847   6.453
 8207POPC   C2B41972   2.188  33.882   6.753
 8207POPC   C3B41973   2.254  33.890   7.053
 8207POPC   C4B41974   2.259  33.907   7.353
 8208POPC   NC341975  44.690  23.704   5.553
 8208POPC   PO441976  44.708  23.712   5.853
 8208POPC   GL141977  44.709  23.723   6.153
 8208POPC   GL241978  44.626  23.623   6.153
 8208POPC   C1A41979  44.684  23.689   6.453
 8208POPC   D2A41980  44.621  23.750   6.753
 8208POPC   C3A41981  44.634  23.664   7.053
 8208POPC   C4A41982  44.652  23.708   7.353
 8208POPC   C1B41983  44.576  23.477   6.453
 8208POPC   C2B41984  44.617  23.486   6.753
 8208POPC   C3B41985  44.521  23.530   7.053
 8208POPC   C4B41986  44.560  23.464   7.353
 8209POPC   NC341987  41.521  19.869   5.553
 8209POPC   PO441988  41.586  19.880   5.853
 8209POPC   GL141989  41.547  19.862   6.153
 8209POPC   GL241990  41.692  19.794   6.153
 8209POPC   C1A41991  41.606  19.876   6.453
 8209POPC   D2A41992  41.581  19.867   6.753
 8209POPC   C3A41993  41.596  19.866   7.053
 8209POPC   C4A41994  41.548  19.818   7.353
 8209POPC   C1B41995  41.729  19.659   6.453
 8209POPC   C2B41996  41.776  19.689   6.753
 8209POPC   C3B41997  41.751  19.654   7.053
 8209POPC   C4B41998  41.779  19.736   7.353
 8210POPC   NC341999  15.145  40.055   5.553
 8210POPC   PO442000  15.211  40.015   5.853
 8210POPC   GL142001  15.163  40.027   6.153
 8210POPC   GL242002  15.290  39.946   6.153
 8210POPC   C1A42003  15.132  40.036   6.453
 8210POPC   D2A42004  15.166  40.002   6.753
 8210POPC   C3A42005  15.208  40.045   7.053
 8210POPC   C4A42006  15.226  40.042   7.353
 8210POPC   C1B42007  15.454  39.887   6.453
 8210POPC   C2B42008  15.442  39.898   6.753
 8210POPC   C3B42009  15.367  39.943   7.053
 8210POPC   C4B42010  15.445  39.950   7.353
 8211POPC   NC342011  19.104   5.885   5.553
 8211POPC   PO442012  19.015   5.887   5.853
 8211POPC   GL142013  19.018   5.881   6.153
 8211POPC   GL242014  18.936   5.972   6.153
 8211POPC   C1A42015  19.023   5.841   6.453
 8211POPC   D2A42016  19.088   5.918   6.753
 8211POPC   C3A42017  19.075   5.833   7.053
 8211POPC   C4A42018  19.041   5.891   7.353
 8211POPC   C1B42019  18.906   6.052   6.453
 8211POPC   C2B42020  18.859   6.079   6.753
 8211POPC   C3B42021  18.887   6.029   7.053
 8211POPC   C4B42022  18.859   6.079   7.353
 8212POPC   NC342023  38.414  12.869   5.553
 8212POPC   PO442024  38.498  12.842   5.853
 8212POPC   GL142025  38.499  12.889   6.153
 8212POPC   GL242026  38.415  12.777   6.153
 8212POPC   C1A42027  38.493  12.830   6.453
 8212POPC   D2A42028  38.489  12.817   6.753
 8212POPC   C3A42029  38.474  12.891   7.053
 8212POPC   C4A42030  38.428  12.868   7.353
 8212POPC   C1B42031  38.340  12.643   6.453
 8212POPC   C2B42032  38.347  12.638   6.753
 8212POPC   C3B42033  38.350  12.580   7.053
 8212POPC   C4B42034  38.358  12.638   7.353
 8213POPC   NC342035  42.334  23.694   5.553
 8213POPC   PO442036  42.369  23.685   5.853
 8213POPC   GL142037  42.316  23.712   6.153
 8213POPC   GL242038  42.235  23.646   6.153
 8213POPC   C1A42039  42.321  23.722   6.453
 8213POPC   D2A42040  42.333  23.665   6.753
 8213POPC   C3A42041  42.308  23.722   7.053
 8213POPC   C4A42042  42.297  23.682   7.353
 8213POPC   C1B42043  42.097  23.656   6.453
 8213POPC   C2B42044  42.074  23.634   6.753
 8213POPC   C3B42045  42.054  23.695   7.053
 8213POPC   C4B42046  42.125  23.619   7.353
 8214POPC   NC342047  19.803   0.476   5.553
 8214POPC   PO442048  19.810   0.427   5.853
 8214POPC   GL142049  19.837   0.407   6.153
 8214POPC   GL242050  19.976   0.367   6.153
 8214POPC   C1A42051  19.833   0.451   6.453
 8214POPC   D2A42052  19.844   0.477   6.753
 8214POPC   C3A42053  19.798   0.426   7.053
 8214POPC   C4A42054  19.867   0.393   7.353
 8214POPC   C1B42055  20.115   0.410   6.453
 8214POPC   C2B42056  20.112   0.348   6.753
 8214POPC   C3B42057  20.118   0.325   7.053
 8214POPC   C4B42058  20.067   0.402   7.353
 8215POPC   NC342059  28.400  33.032   5.553
 8215POPC   PO442060  28.418  32.978   5.853
 8215POPC   GL142061  28.345  32.985   6.153
 8215POPC   GL242062  28.310  33.066   6.153
 8215POPC   C1A42063  28.363  32.981   6.453
 8215POPC   D2A42064  28.384  33.004   6.753
 8215POPC   C3A42065  28.382  33.045   7.053
 8215POPC   C4A42066  28.363  33.000   7.353
 8215POPC   C1B42067  28.183  33.182   6.453
 8215POPC   C2B42068  28.116  33.192   6.753
 8215POPC   C3B42069  28.172  33.161   7.053
 8215POPC   C4B42070  28.136  33.173   7.353
 8216POPC   NC342071   1.946   8.202   5.553
 8216POPC   PO442072   1.986   8.197   5.853
 8216POPC   GL142073   1.957   8.206   6.153
 8216POPC   GL242074   2.055   8.116   6.153
 8216POPC   C1A42075   2.012   8.180   6.453
 8216POPC   D2A42076   2.017   8.221   6.753
 8216POPC   C3A42077   1.981   8.196   7.053
 8216POPC   C4A42078   1.963   8.186   7.353
 8216POPC   C1B42079   2.123   7.965   6.453
 8216POPC   C2B42080   2.112   7.940   6.753
 8216POPC   C3B42081   2.085   7.917   7.053
 8216POPC   C4B42082   2.048   7.965   7.353
 8217POPC   NC342083   5.099  43.116   5.553
 8217POPC   PO442084   5.098  43.094   5.853
 8217POPC   GL142085   5.108  43.077   6.153
 8217POPC   GL242086   5.115  43.188   6.153
 8217POPC   C1A42087   5.072  43.076   6.453
 8217POPC   D2A42088   5.133  43.140   6.753
 8217POPC   C3A42089   5.123  43.085   7.053
 8217POPC   C4A42090   5.078  43.108   7.353
 8217POPC   C1B42091   5.074  43.351   6.453
 8217POPC   C2B42092   5.082  43.362   6.753
 8217POPC   C3B42093   5.061  43.325   7.053
 8217POPC   C4B42094   5.052  43.313   7.353
 8218POPC   NC342095  25.294  19.803   5.553
 8218POPC   PO442096  25.286  19.836   5.853
 8218POPC   GL142097  25.264  19.823   6.153
 8218POPC   GL242098  25.158  19.908   6.153
 8218POPC   C1A42099  25.299  19.854   6.453
 8218POPC   D2A42100  25.237  19.863   6.753
 8218POPC   C3A42101  25.249  19.821   7.053
 8218POPC   C4A42102  25.270  19.820   7.353
 8218POPC   C1B42103  25.051  19.965   6.453
 8218POPC   C2B42104  25.060  19.929   6.753
 8218POPC   C3B42105  25.059  19.963   7.053
 8218POPC   C4B42106  25.033  19.984   7.353
 8219POPC   NC342107   7.431  25.242   5.553
 8219POPC   PO442108   7.428  25.299   5.853
 8219POPC   GL142109   7.415  25.221   6.153
 8219POPC   GL242110   7.443  25.096   6.153
 8219POPC   C1A42111   7.389  25.226   6.453
 8219POPC   D2A42112   7.465  25.265   6.753
 8219POPC   C3A42113   7.433  25.250   7.053
 8219POPC   C4A42114   7.462  25.271   7.353
 8219POPC   C1B42115   7.538  25.025   6.453
 8219POPC   C2B42116   7.442  25.058   6.753
 8219POPC   C3B42117   7.533  25.042   7.053
 8219POPC   C4B42118   7.506  25.072   7.353
 8220POPC   NC342119  10.559  36.131   5.553
 8220POPC   PO442120  10.549  36.153   5.853
 8220POPC   GL142121  10.500  36.149   6.153
 8220POPC   GL242122  10.654  36.196   6.153
 8220POPC   C1A42123  10.551  36.154   6.453
 8220POPC   D2A42124  10.490  36.140   6.753
 8220POPC   C3A42125  10.513  36.113   7.053
 8220POPC   C4A42126  10.513  36.102   7.353
 8220POPC   C1B42127  10.714  36.306   6.453
 8220POPC   C2B42128  10.752  36.331   6.753
 8220POPC   C3B42129  10.706  36.272   7.053
 8220POPC   C4B42130  10.740  36.339   7.353
 8221POPC   NC342131  10.519  30.655   5.553
 8221POPC   PO442132  10.538  30.685   5.853
 8221POPC   GL142133  10.484  30.658   6.153
 8221POPC   GL242134  10.356  30.682   6.153
 8221POPC   C1A42135  10.483  30.668   6.453
 8221POPC   D2A42136  10.555  30.658   6.753
 8221POPC   C3A42137  10.479  30.728   7.053
 8221POPC   C4A42138  10.555  30.739   7.353
 8221POPC   C1B42139  10.319  30.675   6.453
 8221POPC   C2B42140  10.246  30.652   6.753
 8221POPC   C3B42141  10.271  30.634   7.053
 8221POPC   C4B42142  10.234  30.669   7.353
 8222POPC   NC342143  36.938  12.045   5.553
 8222POPC   PO442144  36.916  12.105   5.853
 8222POPC   GL142145  36.917  12.115   6.153
 8222POPC   GL242146  36.818  11.970   6.153
 8222POPC   C1A42147  36.854  12.111   6.453
 8222POPC   D2A42148  36.894  12.121   6.753
 8222POPC   C3A42149  36.922  12.065   7.053
 8222POPC   C4A42150  36.890  12.054   7.353
 8222POPC   C1B42151  36.722  11.985   6.453
 8222POPC   C2B42152  36.722  11.993   6.753
 8222POPC   C3B42153  36.719  11.955   7.053
 8222POPC   C4B42154  36.717  11.943   7.353
 8223POPC   NC342155  11.342  13.584   5.553
 8223POPC   PO442156  11.272  13.651   5.853
 8223POPC   GL142157  11.297  13.633   6.153
 8223POPC   GL242158  11.460  13.647   6.153
 8223POPC   C1A42159  11.330  13.617   6.453
 8223POPC   D2A42160  11.274  13.603   6.753
 8223POPC   C3A42161  11.344  13.667   7.053
 8223POPC   C4A42162  11.300  13.586   7.353
 8223POPC   C1B42163  11.529  13.718   6.453
 8223POPC   C2B42164  11.495  13.676   6.753
 8223POPC   C3B42165  11.532  13.716   7.053
 8223POPC   C4B42166  11.501  13.684   7.353
 8224POPC   NC342167  33.044   7.381   5.553
 8224POPC   PO442168  33.014   7.424   5.853
 8224POPC   GL142169  33.052   7.413   6.153
 8224POPC   GL242170  33.051   7.581   6.153
 8224POPC   C1A42171  33.004   7.407   6.453
 8224POPC   D2A42172  33.002   7.394   6.753
 8224POPC   C3A42173  32.975   7.381   7.053
 8224POPC   C4A42174  33.064   7.376   7.353
 8224POPC   C1B42175  33.036   7.645   6.453
 8224POPC   C2B42176  33.095   7.712   6.753
 8224POPC   C3B42177  33.125   7.692   7.053
 8224POPC   C4B42178  33.117   7.686   7.353
 8225POPC   NC342179   1.215   5.899   5.553
 8225POPC   PO442180   1.215   5.843   5.853
 8225POPC   GL142181   1.240   5.831   6.153
 8225POPC   GL242182   1.227   5.696   6.153
 8225POPC   C1A42183   1.174   5.878   6.453
 8225POPC   D2A42184   1.226   5.856   6.753
 8225POPC   C3A42185   1.230   5.908   7.053
 8225POPC   C4A42186   1.177   5.850   7.353
 8225POPC   C1B42187   1.189   5.581   6.453
 8225POPC   C2B42188   1.172   5.640   6.753
 8225POPC   C3B42189   1.179   5.595   7.053
 8225POPC   C4B42190   1.165   5.650   7.353
 8226POPC   NC342191  36.140  33.060   5.553
 8226POPC   PO442192  36.078  33.063   5.853
 8226POPC   GL142193  36.124  33.073   6.153
 8226POPC   GL242194  36.251  33.021   6.153
 8226POPC   C1A42195  36.147  33.036   6.453
 8226POPC   D2A42196  36.107  33.053   6.753
 8226POPC   C3A42197  36.142  33.025   7.053
 8226POPC   C4A42198  36.092  32.976   7.353
 8226POPC   C1B42199  36.350  32.980   6.453
 8226POPC   C2B42200  36.369  32.929   6.753
 8226POPC   C3B42201  36.405  32.964   7.053
 8226POPC   C4B42202  36.340  32.965   7.353
 8227POPC   NC342203  15.923   9.783   5.553
 8227POPC   PO442204  15.940   9.778   5.853
 8227POPC   GL142205  15.982   9.710   6.153
 8227POPC   GL242206  15.805   9.762   6.153
 8227POPC   C1A42207  15.974   9.788   6.453
 8227POPC   D2A42208  15.919   9.719   6.753
 8227POPC   C3A42209  15.983   9.719   7.053
 8227POPC   C4A42210  15.944   9.797   7.353
 8227POPC   C1B42211  15.717   9.862   6.453
 8227POPC   C2B42212  15.761   9.829   6.753
 8227POPC   C3B42213  15.723   9.796   7.053
 8227POPC   C4B42214  15.742   9.819   7.353
 8228POPC   NC342215  19.050  16.689   5.553
 8228POPC   PO442216  19.026  16.743   5.853
 8228POPC   GL142217  19.050  16.703   6.153
 8228POPC   GL242218  19.171  16.778   6.153
 8228POPC   C1A42219  19.064  16.698   6.453
 8228POPC   D2A42220  19.085  16.702   6.753
 8228POPC   C3A42221  19.059  16.717   7.053
 8228POPC   C4A42222  19.053  16.747   7.353
 8228POPC   C1B42223  19.269  16.780   6.453
 8228POPC   C2B42224  19.269  16.684   6.753
 8228POPC   C3B42225  19.271  16.692   7.053
 8228POPC   C4B42226  19.358  16.725   7.353
 8229POPC   NC342227   6.652  29.937   5.553
 8229POPC   PO442228   6.633  29.968   5.853
 8229POPC   GL142229   6.654  29.969   6.153
 8229POPC   GL242230   6.624  29.829   6.153
 8229POPC   C1A42231   6.693  29.930   6.453
 8229POPC   D2A42232   6.602  29.885   6.753
 8229POPC   C3A42233   6.688  29.942   7.053
 8229POPC   C4A42234   6.599  29.919   7.353
 8229POPC   C1B42235   6.533  29.682   6.453
 8229POPC   C2B42236   6.597  29.726   6.753
 8229POPC   C3B42237   6.538  29.641   7.053
 8229POPC   C4B42238   6.563  29.673   7.353
 8230POPC   NC342239   2.746  36.086   5.553
 8230POPC   PO442240   2.760  36.173   5.853
 8230POPC   GL142241   2.769  36.118   6.153
 8230POPC   GL242242   2.841  36.193   6.153
 8230POPC   C1A42243   2.804  36.128   6.453
 8230POPC   D2A42244   2.794  36.163   6.753
 8230POPC   C3A42245   2.755  36.121   7.053
 8230POPC   C4A42246   2.771  36.083   7.353
 8230POPC   C1B42247   2.930  36.332   6.453
 8230POPC   C2B42248   2.913  36.363   6.753
 8230POPC   C3B42249   2.904  36.367   7.053
 8230POPC   C4B42250   2.864  36.315   7.353
 8231POPC   NC342251  43.076  23.677   5.553
 8231POPC   PO442252  43.147  23.753   5.853
 8231POPC   GL142253  43.104  23.740   6.153
 8231POPC   GL242254  43.154  23.773   6.153
 8231POPC   C1A42255  43.107  23.680   6.453
 8231POPC   D2A42256  43.092  23.752   6.753
 8231POPC   C3A42257  43.143  23.664   7.053
 8231POPC   C4A42258  43.092  23.683   7.353
 8231POPC   C1B42259  43.280  23.916   6.453
 8231POPC   C2B42260  43.197  23.897   6.753
 8231POPC   C3B42261  43.277  23.896   7.053
 8231POPC   C4B42262  43.220  23.943   7.353
 8232POPC   NC342263  23.678  12.851   5.553
 8232POPC   PO442264  23.699  12.841   5.853
 8232POPC   GL142265  23.671  12.893   6.153
 8232POPC   GL242266  23.592  12.866   6.153
 8232POPC   C1A42267  23.726  12.875   6.453
 8232POPC   D2A42268  23.729  12.898   6.753
 8232POPC   C3A42269  23.673  12.899   7.053
 8232POPC   C4A42270  23.705  12.837   7.353
 8232POPC   C1B42271  23.500  12.975   6.453
 8232POPC   C2B42272  23.490  12.878   6.753
 8232POPC   C3B42273  23.521  12.925   7.053
 8232POPC   C4B42274  23.442  12.948   7.353
 8233POPC   NC342275  15.164  42.363   5.553
 8233POPC   PO442276  15.174  42.308   5.853
 8233POPC   GL142277  15.177  42.296   6.153
 8233POPC   GL242278  15.248  42.266   6.153
 8233POPC   C1A42279  15.225  42.287   6.453
 8233POPC   D2A42280  15.180  42.353   6.753
 8233POPC   C3A42281  15.192  42.359   7.053
 8233POPC   C4A42282  15.151  42.299   7.353
 8233POPC   C1B42283  15.434  42.169   6.453
 8233POPC   C2B42284  15.432  42.255   6.753
 8233POPC   C3B42285  15.360  42.173   7.053
 8233POPC   C4B42286  15.382  42.219   7.353
 8234POPC   NC342287  28.333  40.806   5.553
 8234POPC   PO442288  28.340  40.799   5.853
 8234POPC   GL142289  28.357  40.810   6.153
 8234POPC   GL242290  28.254  40.759   6.153
 8234POPC   C1A42291  28.338  40.805   6.453
 8234POPC   D2A42292  28.418  40.824   6.753
 8234POPC   C3A42293  28.418  40.784   7.053
 8234POPC   C4A42294  28.386  40.793   7.353
 8234POPC   C1B42295  28.133  40.873   6.453
 8234POPC   C2B42296  28.157  40.837   6.753
 8234POPC   C3B42297  28.095  40.784   7.053
 8234POPC   C4B42298  28.120  40.791   7.353
 8235POPC   NC342299   1.987  10.552   5.553
 8235POPC   PO442300   1.954  10.554   5.853
 8235POPC   GL142301   1.990  10.521   6.153
 8235POPC   GL242302   1.905  10.533   6.153
 8235POPC   C1A42303   1.973  10.568   6.453
 8235POPC   D2A42304   2.016  10.517   6.753
 8235POPC   C3A42305   1.962  10.489   7.053
 8235POPC   C4A42306   2.006  10.517   7.353
 8235POPC   C1B42307   1.725  10.593   6.453
 8235POPC   C2B42308   1.762  10.610   6.753
 8235POPC   C3B42309   1.763  10.547   7.053
 8235POPC   C4B42310   1.780  10.582   7.353
 8236POPC   NC342311   0.436   2.754   5.553
 8236POPC   PO442312   0.471   2.756   5.853
 8236POPC   GL142313   0.481   2.812   6.153
 8236POPC   GL242314   0.558   2.886   6.153
 8236POPC   C1A42315   0.431   2.797   6.453
 8236POPC   D2A42316   0.436   2.769   6.753
 8236POPC   C3A42317   0.477   2.779   7.053
 8236POPC   C4A42318   0.469   2.806   7.353
 8236POPC   C1B42319   0.615   2.905   6.453
 8236POPC   C2B42320   0.618   2.884   6.753
 8236POPC   C3B42321   0.595   2.913   7.053
 8236POPC   C4B42322   0.608   2.881   7.353
 8237POPC   NC342323  26.053  20.636   5.553
 8237POPC   PO442324  26.045  20.575   5.853
 8237POPC   GL142325  26.087  20.618   6.153
 8237POPC   GL242326  25.928  20.677   6.153
 8237POPC   C1A42327  25.998  20.575   6.453
 8237POPC   D2A42328  26.077  20.573   6.753
 8237POPC   C3A42329  26.083  20.648   7.053
 8237POPC   C4A42330  26.050  20.649   7.353
 8237POPC   C1B42331  25.837  20.697   6.453
 8237POPC   C2B42332  25.800  20.701   6.753
 8237POPC   C3B42333  25.813  20.641   7.053
 8237POPC   C4B42334  25.789  20.624   7.353
 8238POPC   NC342335   5.879  22.958   5.553
 8238POPC   PO442336   5.876  22.924   5.853
 8238POPC   GL142337   5.840  22.935   6.153
 8238POPC   GL242338   5.944  22.997   6.153
 8238POPC   C1A42339   5.907  22.920   6.453
 8238POPC   D2A42340   5.821  22.908   6.753
 8238POPC   C3A42341   5.885  22.978   7.053
 8238POPC   C4A42342   5.877  22.962   7.353
 8238POPC   C1B42343   6.015  23.180   6.453
 8238POPC   C2B42344   6.017  23.149   6.753
 8238POPC   C3B42345   5.969  23.157   7.053
 8238POPC   C4B42346   6.001  23.143   7.353
 8239POPC   NC342347   1.977  35.396   5.553
 8239POPC   PO442348   1.956  35.367   5.853
 8239POPC   GL142349   2.029  35.322   6.153
 8239POPC   GL242350   1.856  35.368   6.153
 8239POPC   C1A42351   1.957  35.379   6.453
 8239POPC   D2A42352   2.032  35.321   6.753
 8239POPC   C3A42353   2.004  35.342   7.053
 8239POPC   C4A42354   1.998  35.349   7.353
 8239POPC   C1B42355   1.707  35.376   6.453
 8239POPC   C2B42356   1.722  35.346   6.753
 8239POPC   C3B42357   1.769  35.362   7.053
 8239POPC   C4B42358   1.744  35.303   7.353
 8240POPC   NC342359   6.604   9.016   5.553
 8240POPC   PO442360   6.622   8.955   5.853
 8240POPC   GL142361   6.679   8.983   6.153
 8240POPC   GL242362   6.741   8.969   6.153
 8240POPC   C1A42363   6.640   8.930   6.453
 8240POPC   D2A42364   6.671   8.956   6.753
 8240POPC   C3A42365   6.673   8.991   7.053
 8240POPC   C4A42366   6.632   8.982   7.353
 8240POPC   C1B42367   6.940   9.010   6.453
 8240POPC   C2B42368   6.851   8.963   6.753
 8240POPC   C3B42369   6.884   9.016   7.053
 8240POPC   C4B42370   6.850   8.962   7.353
 8241POPC   NC342371   3.580  12.846   5.553
 8241POPC   PO442372   3.542  12.881   5.853
 8241POPC   GL142373   3.577  12.872   6.153
 8241POPC   GL242374   3.444  12.752   6.153
 8241POPC   C1A42375   3.547  12.890   6.453
 8241POPC   D2A42376   3.569  12.819   6.753
 8241POPC   C3A42377   3.516  12.898   7.053
 8241POPC   C4A42378   3.522  12.862   7.353
 8241POPC   C1B42379   3.321  12.775   6.453
 8241POPC   C2B42380   3.350  12.736   6.753
 8241POPC   C3B42381   3.293  12.700   7.053
 8241POPC   C4B42382   3.304  12.745   7.353
 8242POPC   NC342383  29.875   6.600   5.553
 8242POPC   PO442384  29.887   6.615   5.853
 8242POPC   GL142385  29.942   6.692   6.153
 8242POPC   GL242386  29.983   6.723   6.153
 8242POPC   C1A42387  29.880   6.627   6.453
 8242POPC   D2A42388  29.905   6.618   6.753
 8242POPC   C3A42389  29.875   6.605   7.053
 8242POPC   C4A42390  29.904   6.610   7.353
 8242POPC   C1B42391  29.937   6.868   6.453
 8242POPC   C2B42392  29.992   6.938   6.753
 8242POPC   C3B42393  29.991   6.867   7.053
 8242POPC   C4B42394  29.996   6.896   7.353
 8243POPC   NC342395   1.949  36.140   5.553
 8243POPC   PO442396   2.011  36.130   5.853
 8243POPC   GL142397   2.024  36.100   6.153
 8243POPC   GL242398   1.895  36.190   6.153
 8243POPC   C1A42399   1.953  36.137   6.453
 8243POPC   D2A42400   2.002  36.100   6.753
 8243POPC   C3A42401   1.963  36.174   7.053
 8243POPC   C4A42402   2.001  36.088   7.353
 8243POPC   C1B42403   1.754  36.262   6.453
 8243POPC   C2B42404   1.766  36.215   6.753
 8243POPC   C3B42405   1.727  36.239   7.053
 8243POPC   C4B42406   1.773  36.259   7.353
 8244POPC   NC342407  16.748  25.272   5.553
 8244POPC   PO442408  16.760  25.243   5.853
 8244POPC   GL142409  16.686  25.258   6.153
 8244POPC   GL242410  16.644  25.388   6.153
 8244POPC   C1A42411  16.774  25.247   6.453
 8244POPC   D2A42412  16.693  25.267   6.753
 8244POPC   C3A42413  16.717  25.291   7.053
 8244POPC   C4A42414  16.740  25.310   7.353
 8244POPC   C1B42415  16.551  25.434   6.453
 8244POPC   C2B42416  16.539  25.428   6.753
 8244POPC   C3B42417  16.628  25.423   7.053
 8244POPC   C4B42418  16.559  25.428   7.353
 8245POPC   NC342419  40.802  28.348   5.553
 8245POPC   PO442420  40.826  28.329   5.853
 8245POPC   GL142421  40.750  28.414   6.153
 8245POPC   GL242422  40.751  28.243   6.153
 8245POPC   C1A42423  40.769  28.388   6.453
 8245POPC   D2A42424  40.753  28.336   6.753
 8245POPC   C3A42425  40.751  28.373   7.053
 8245POPC   C4A42426  40.774  28.402   7.353
 8245POPC   C1B42427  40.805  28.146   6.453
 8245POPC   C2B42428  40.751  28.077   6.753
 8245POPC   C3B42429  40.786  28.144   7.053
 8245POPC   C4B42430  40.832  28.125   7.353
 8246POPC   NC342431   2.779  39.209   5.553
 8246POPC   PO442432   2.800  39.270   5.853
 8246POPC   GL142433   2.730  39.265   6.153
 8246POPC   GL242434   2.793  39.354   6.153
 8246POPC   C1A42435   2.808  39.225   6.453
 8246POPC   D2A42436   2.718  39.234   6.753
 8246POPC   C3A42437   2.810  39.198   7.053
 8246POPC   C4A42438   2.738  39.191   7.353
 8246POPC   C1B42439   2.850  39.470   6.453
 8246POPC   C2B42440   2.811  39.499   6.753
 8246POPC   C3B42441   2.809  39.429   7.053
 8246POPC   C4B42442   2.831  39.472   7.353
 8247POPC   NC342443  31.491  15.921   5.553
 8247POPC   PO442444  31.431  15.910   5.853
 8247POPC   GL142445  31.483  15.939   6.153
 8247POPC   GL242446  31.350  15.942   6.153
 8247POPC   C1A42447  31.461  15.980   6.453
 8247POPC   D2A42448  31.439  15.908   6.753
 8247POPC   C3A42449  31.441  15.921   7.053
 8247POPC   C4A42450  31.477  15.944   7.353
 8247POPC   C1B42451  31.188  15.953   6.453
 8247POPC   C2B42452  31.212  15.999   6.753
 8247POPC   C3B42453  31.198  15.916   7.053
 8247POPC   C4B42454  31.220  15.944   7.353
 8248POPC   NC342455  26.066  43.931   5.553
 8248POPC   PO442456  26.078  43.847   5.853
 8248POPC   GL142457  26.036  43.903   6.153
 8248POPC   GL242458  25.945  43.933   6.153
 8248POPC   C1A42459  26.022  43.898   6.453
 8248POPC   D2A42460  26.070  43.894   6.753
 8248POPC   C3A42461  26.060  43.888   7.053
 8248POPC   C4A42462  26.079  43.891   7.353
 8248POPC   C1B42463  25.799  44.026   6.453
 8248POPC   C2B42464  25.861  43.984   6.753
 8248POPC   C3B42465  25.838  43.970   7.053
 8248POPC   C4B42466  25.771  44.012   7.353
 8249POPC   NC342467  21.342   8.170   5.553
 8249POPC   PO442468  21.364   8.218   5.853
 8249POPC   GL142469  21.366   8.174   6.153
 8249POPC   GL242470  21.416   8.113   6.153
 8249POPC   C1A42471  21.379   8.190   6.453
 8249POPC   D2A42472  21.433   8.238   6.753
 8249POPC   C3A42473  21.343   8.213   7.053
 8249POPC   C4A42474  21.404   8.237   7.353
 8249POPC   C1B42475  21.436   7.957   6.453
 8249POPC   C2B42476  21.360   7.912   6.753
 8249POPC   C3B42477  21.397   7.977   7.053
 8249POPC   C4B42478  21.372   7.953   7.353
 8250POPC   NC342479   8.975  40.770   5.553
 8250POPC   PO442480   9.019  40.769   5.853
 8250POPC   GL142481   8.941  40.773   6.153
 8250POPC   GL242482   9.039  40.637   6.153
 8250POPC   C1A42483   9.017  40.789   6.453
 8250POPC   D2A42484   8.986  40.804   6.753
 8250POPC   C3A42485   8.932  40.811   7.053
 8250POPC   C4A42486   8.965  40.737   7.353
 8250POPC   C1B42487   9.075  40.544   6.453
 8250POPC   C2B42488   9.036  40.579   6.753
 8250POPC   C3B42489   9.008  40.548   7.053
 8250POPC   C4B42490   9.037  40.540   7.353
 8251POPC   NC342491  13.611  40.051   5.553
 8251POPC   PO442492  13.602  39.961   5.853
 8251POPC   GL142493  13.636  39.975   6.153
 8251POPC   GL242494  13.708  40.116   6.153
 8251POPC   C1A42495  13.581  39.972   6.453
 8251POPC   D2A42496  13.659  40.035   6.753
 8251POPC   C3A42497  13.675  39.964   7.053
 8251POPC   C4A42498  13.604  39.993   7.353
 8251POPC   C1B42499  13.745  40.235   6.453
 8251POPC   C2B42500  13.705  40.256   6.753
 8251POPC   C3B42501  13.686  40.225   7.053
 8251POPC   C4B42502  13.709  40.277   7.353
 8252POPC   NC342503   4.348  34.598   5.553
 8252POPC   PO442504   4.336  34.584   5.853
 8252POPC   GL142505   4.328  34.611   6.153
 8252POPC   GL242506   4.284  34.453   6.153
 8252POPC   C1A42507   4.337  34.538   6.453
 8252POPC   D2A42508   4.278  34.613   6.753
 8252POPC   C3A42509   4.363  34.535   7.053
 8252POPC   C4A42510   4.355  34.608   7.353
 8252POPC   C1B42511   4.164  34.404   6.453
 8252POPC   C2B42512   4.217  34.359   6.753
 8252POPC   C3B42513   4.187  34.385   7.053
 8252POPC   C4B42514   4.206  34.409   7.353
 8253POPC   NC342515  20.619  26.832   5.553
 8253POPC   PO442516  20.639  26.796   5.853
 8253POPC   GL142517  20.649  26.857   6.153
 8253POPC   GL242518  20.679  26.933   6.153
 8253POPC   C1A42519  20.586  26.793   6.453
 8253POPC   D2A42520  20.649  26.797   6.753
 8253POPC   C3A42521  20.564  26.817   7.053
 8253POPC   C4A42522  20.645  26.777   7.353
 8253POPC   C1B42523  20.788  26.951   6.453
 8253POPC   C2B42524  20.781  26.978   6.753
 8253POPC   C3B42525  20.781  26.919   7.053
 8253POPC   C4B42526  20.852  26.993   7.353
 8254POPC   NC342527  44.642   7.375   5.553
 8254POPC   PO442528  44.702   7.440   5.853
 8254POPC   GL142529  44.631   7.450   6.153
 8254POPC   GL242530  44.735   7.526   6.153
 8254POPC   C1A42531  44.666   7.376   6.453
 8254POPC   D2A42532  44.626   7.438   6.753
 8254POPC   C3A42533  44.626   7.372   7.053
 8254POPC   C4A42534  44.637   7.408   7.353
 8254POPC   C1B42535  44.886   7.504   6.453
 8254POPC   C2B42536  44.834   7.501   6.753
 8254POPC   C3B42537  44.893   7.563   7.053
 8254POPC   C4B42538  44.876   7.498   7.353
 8255POPC   NC342539  43.872   2.023   5.553
 8255POPC   PO442540  43.861   1.957   5.853
 8255POPC   GL142541  43.864   2.034   6.153
 8255POPC   GL242542  43.850   1.907   6.153
 8255POPC   C1A42543  43.837   1.958   6.453
 8255POPC   D2A42544  43.867   2.003   6.753
 8255POPC   C3A42545  43.891   1.995   7.053
 8255POPC   C4A42546  43.875   2.025   7.353
 8255POPC   C1B42547  43.706   1.783   6.453
 8255POPC   C2B42548  43.687   1.771   6.753
 8255POPC   C3B42549  43.719   1.854   7.053
 8255POPC   C4B42550  43.715   1.837   7.353
 8256POPC   NC342551  44.648  32.232   5.553
 8256POPC   PO442552  44.636  32.224   5.853
 8256POPC   GL142553  44.676  32.246   6.153
 8256POPC   GL242554  44.599  32.111   6.153
 8256POPC   C1A42555  44.656  32.297   6.453
 8256POPC   D2A42556  44.710  32.248   6.753
 8256POPC   C3A42557  44.664  32.272   7.053
 8256POPC   C4A42558  44.663  32.219   7.353
 8256POPC   C1B42559  44.552  32.059   6.453
 8256POPC   C2B42560  44.523  32.041   6.753
 8256POPC   C3B42561  44.544  32.029   7.053
 8256POPC   C4B42562  44.538  32.015   7.353
 8257POPC   NC342563  34.555  35.378   5.553
 8257POPC   PO442564  34.557  35.365   5.853
 8257POPC   GL142565  34.547  35.393   6.153
 8257POPC   GL242566  34.459  35.265   6.153
 8257POPC   C1A42567  34.603  35.328   6.453
 8257POPC   D2A42568  34.532  35.328   6.753
 8257POPC   C3A42569  34.560  35.360   7.053
 8257POPC   C4A42570  34.617  35.354   7.353
 8257POPC   C1B42571  34.400  35.186   6.453
 8257POPC   C2B42572  34.416  35.169   6.753
 8257POPC   C3B42573  34.399  35.240   7.053
 8257POPC   C4B42574  34.364  35.219   7.353
 8258POPC   NC342575  28.404  20.586   5.553
 8258POPC   PO442576  28.410  20.586   5.853
 8258POPC   GL142577  28.405  20.610   6.153
 8258POPC   GL242578  28.295  20.646   6.153
 8258POPC   C1A42579  28.354  20.649   6.453
 8258POPC   D2A42580  28.411  20.624   6.753
 8258POPC   C3A42581  28.349  20.578   7.053
 8258POPC   C4A42582  28.414  20.624   7.353
 8258POPC   C1B42583  28.128  20.654   6.453
 8258POPC   C2B42584  28.149  20.702   6.753
 8258POPC   C3B42585  28.110  20.719   7.053
 8258POPC   C4B42586  28.099  20.725   7.353
 8259POPC   NC342587   8.998  30.695   5.553
 8259POPC   PO442588   8.938  30.734   5.853
 8259POPC   GL142589   8.953  30.734   6.153
 8259POPC   GL242590   9.054  30.779   6.153
 8259POPC   C1A42591   8.976  30.647   6.453
 8259POPC   D2A42592   8.998  30.664   6.753
 8259POPC   C3A42593   8.941  30.659   7.053
 8259POPC   C4A42594   8.946  30.739   7.353
 8259POPC   C1B42595   9.054  30.874   6.453
 8259POPC   C2B42596   9.078  30.882   6.753
 8259POPC   C3B42597   9.128  30.931   7.053
 8259POPC   C4B42598   9.132  30.871   7.353
 8260POPC   NC342599  39.977  12.116   5.553
 8260POPC   PO442600  40.008  12.107   5.853
 8260POPC   GL142601  39.968  12.111   6.153
 8260POPC   GL242602  40.072  11.912   6.153
 8260POPC   C1A42603  40.033  12.070   6.453
 8260POPC   D2A42604  39.990  12.123   6.753
 8260POPC   C3A42605  39.990  12.113   7.053
 8260POPC   C4A42606  39.960  12.063   7.353
 8260POPC   C1B42607  40.079  11.866   6.453
 8260POPC   C2B42608  40.105  11.845   6.753
 8260POPC   C3B42609  40.087  11.850   7.053
 8260POPC   C4B42610  40.038  11.833   7.353
 8261POPC   NC342611  24.496  31.473   5.553
 8261POPC   PO442612  24.494  31.516   5.853
 8261POPC   GL142613  24.498  31.458   6.153
 8261POPC   GL242614  24.443  31.592   6.153
 8261POPC   C1A42615  24.528  31.439   6.453
 8261POPC   D2A42616  24.496  31.465   6.753
 8261POPC   C3A42617  24.471  31.483   7.053
 8261POPC   C4A42618  24.538  31.506   7.353
 8261POPC   C1B42619  24.495  31.717   6.453
 8261POPC   C2B42620  24.418  31.763   6.753
 8261POPC   C3B42621  24.466  31.676   7.053
 8261POPC   C4B42622  24.476  31.722   7.353
 8262POPC   NC342623  30.717  44.695   5.553
 8262POPC   PO442624  30.740  44.695   5.853
 8262POPC   GL142625  30.741  44.656   6.153
 8262POPC   GL242626  30.580  44.710   6.153
 8262POPC   C1A42627  30.724  44.695   6.453
 8262POPC   D2A42628  30.690  44.623   6.753
 8262POPC   C3A42629  30.653  44.641   7.053
 8262POPC   C4A42630  30.689  44.620   7.353
 8262POPC   C1B42631  30.496  44.861   6.453
 8262POPC   C2B42632  30.536  44.839   6.753
 8262POPC   C3B42633  30.565  44.828   7.053
 8262POPC   C4B42634  30.524  44.804   7.353
 8263POPC   NC342635   5.895  41.511   5.553
 8263POPC   PO442636   5.911  41.589   5.853
 8263POPC   GL142637   5.880  41.545   6.153
 8263POPC   GL242638   5.888  41.722   6.153
 8263POPC   C1A42639   5.828  41.572   6.453
 8263POPC   D2A42640   5.851  41.509   6.753
 8263POPC   C3A42641   5.852  41.530   7.053
 8263POPC   C4A42642   5.883  41.555   7.353
 8263POPC   C1B42643   5.848  41.853   6.453
 8263POPC   C2B42644   5.822  41.814   6.753
 8263POPC   C3B42645   5.844  41.852   7.053
 8263POPC   C4B42646   5.845  41.815   7.353
 8264POPC   NC342647  21.383   0.422   5.553
 8264POPC   PO442648  21.408   0.485   5.853
 8264POPC   GL142649  21.358   0.456   6.153
 8264POPC   GL242650  21.492   0.422   6.153
 8264POPC   C1A42651  21.345   0.417   6.453
 8264POPC   D2A42652  21.411   0.415   6.753
 8264POPC   C3A42653  21.398   0.476   7.053
 8264POPC   C4A42654  21.426   0.407   7.353
 8264POPC   C1B42655  21.640   0.341   6.453
 8264POPC   C2B42656  21.651   0.366   6.753
 8264POPC   C3B42657  21.659   0.396   7.053
 8264POPC   C4B42658  21.655   0.355   7.353
 8265POPC   NC342659   4.268  42.358   5.553
 8265POPC   PO442660   4.356  42.361   5.853
 8265POPC   GL142661   4.284  42.383   6.153
 8265POPC   GL242662   4.156  42.285   6.153
 8265POPC   C1A42663   4.324  42.367   6.453
 8265POPC   D2A42664   4.329  42.336   6.753
 8265POPC   C3A42665   4.348  42.360   7.053
 8265POPC   C4A42666   4.282  42.336   7.353
 8265POPC   C1B42667   4.035  42.246   6.453
 8265POPC   C2B42668   4.101  42.292   6.753
 8265POPC   C3B42669   4.086  42.292   7.053
 8265POPC   C4B42670   4.083  42.323   7.353
 8266POPC   NC342671   4.279  35.383   5.553
 8266POPC   PO442672   4.319  35.338   5.853
 8266POPC   GL142673   4.333  35.351   6.153
 8266POPC   GL242674   4.437  35.401   6.153
 8266POPC   C1A42675   4.318  35.325   6.453
 8266POPC   D2A42676   4.366  35.369   6.753
 8266POPC   C3A42677   4.342  35.372   7.053
 8266POPC   C4A42678   4.304  35.326   7.353
 8266POPC   C1B42679   4.524  35.472   6.453
 8266POPC   C2B42680   4.527  35.420   6.753
 8266POPC   C3B42681   4.590  35.448   7.053
 8266POPC   C4B42682   4.536  35.442   7.353
 8267POPC   NC342683   2.810   8.981   5.553
 8267POPC   PO442684   2.772   8.927   5.853
 8267POPC   GL142685   2.815   9.000   6.153
 8267POPC   GL242686   2.643   9.045   6.153
 8267POPC   C1A42687   2.742   8.998   6.453
 8267POPC   D2A42688   2.748   8.999   6.753
 8267POPC   C3A42689   2.755   8.978   7.053
 8267POPC   C4A42690   2.793   8.980   7.353
 8267POPC   C1B42691   2.590   9.072   6.453
 8267POPC   C2B42692   2.552   9.103   6.753
 8267POPC   C3B42693   2.532   9.051   7.053
 8267POPC   C4B42694   2.519   9.066   7.353
 8268POPC   NC342695  37.644  12.110   5.553
 8268POPC   PO442696  37.687  12.101   5.853
 8268POPC   GL142697  37.702  12.119   6.153
 8268POPC   GL242698  37.743  12.169   6.153
 8268POPC   C1A42699  37.704  12.046   6.453
 8268POPC   D2A42700  37.648  12.121   6.753
 8268POPC   C3A42701  37.720  12.085   7.053
 8268POPC   C4A42702  37.651  12.052   7.353
 8268POPC   C1B42703  37.830  12.315   6.453
 8268POPC   C2B42704  37.865  12.281   6.753
 8268POPC   C3B42705  37.848  12.275   7.053
 8268POPC   C4B42706  37.855  12.315   7.353
 8269POPC   NC342707   9.728   7.432   5.553
 8269POPC   PO442708   9.760   7.464   5.853
 8269POPC   GL142709   9.796   7.371   6.153
 8269POPC   GL242710   9.715   7.342   6.153
 8269POPC   C1A42711   9.792   7.462   6.453
 8269POPC   D2A42712   9.730   7.437   6.753
 8269POPC   C3A42713   9.783   7.374   7.053
 8269POPC   C4A42714   9.765   7.423   7.353
 8269POPC   C1B42715   9.701   7.135   6.453
 8269POPC   C2B42716   9.725   7.163   6.753
 8269POPC   C3B42717   9.719   7.193   7.053
 8269POPC   C4B42718   9.702   7.152   7.353
 8270POPC   NC342719  44.686  12.803   5.553
 8270POPC   PO442720  44.647  12.824   5.853
 8270POPC   GL142721  44.651  12.876   6.153
 8270POPC   GL242722  44.739  12.861   6.153
 8270POPC   C1A42723  44.620  12.842   6.453
 8270POPC   D2A42724  44.678  12.900   6.753
 8270POPC   C3A42725  44.652  12.893   7.053
 8270POPC   C4A42726  44.650  12.890   7.353
 8270POPC   C1B42727  44.928  12.837   6.453
 8270POPC   C2B42728  44.913  12.863   6.753
 8270POPC   C3B42729  44.871  12.887   7.053
 8270POPC   C4B42730  44.899  12.824   7.353
 8271POPC   NC342731   5.082  37.632   5.553
 8271POPC   PO442732   5.142  37.728   5.853
 8271POPC   GL142733   5.071  37.675   6.153
 8271POPC   GL242734   4.937  37.664   6.153
 8271POPC   C1A42735   5.101  37.670   6.453
 8271POPC   D2A42736   5.103  37.661   6.753
 8271POPC   C3A42737   5.093  37.704   7.053
 8271POPC   C4A42738   5.128  37.688   7.353
 8271POPC   C1B42739   4.846  37.568   6.453
 8271POPC   C2B42740   4.832  37.652   6.753
 8271POPC   C3B42741   4.813  37.567   7.053
 8271POPC   C4B42742   4.896  37.632   7.353
 8272POPC   NC342743  16.735   9.718   5.553
 8272POPC   PO442744  16.683   9.776   5.853
 8272POPC   GL142745  16.719   9.765   6.153
 8272POPC   GL242746  16.856   9.764   6.153
 8272POPC   C1A42747  16.712   9.745   6.453
 8272POPC   D2A42748  16.697   9.776   6.753
 8272POPC   C3A42749  16.715   9.700   7.053
 8272POPC   C4A42750  16.710   9.727   7.353
 8272POPC   C1B42751  16.975   9.683   6.453
 8272POPC   C2B42752  16.966   9.709   6.753
 8272POPC   C3B42753  16.943   9.649   7.053
 8272POPC   C4B42754  16.947   9.702   7.353
 8273POPC   NC342755  19.067  38.460   5.553
 8273POPC   PO442756  19.043  38.496   5.853
 8273POPC   GL142757  19.041  38.473   6.153
 8273POPC   GL242758  19.214  38.452   6.153
 8273POPC   C1A42759  19.031  38.464   6.453
 8273POPC   D2A42760  19.059  38.462   6.753
 8273POPC   C3A42761  19.091  38.426   7.053
 8273POPC   C4A42762  19.050  38.489   7.353
 8273POPC   C1B42763  19.327  38.409   6.453
 8273POPC   C2B42764  19.274  38.420   6.753
 8273POPC   C3B42765  19.306  38.433   7.053
 8273POPC   C4B42766  19.278  38.424   7.353
 8274POPC   NC342767  40.025  21.343   5.553
 8274POPC   PO442768  39.998  21.364   5.853
 8274POPC   GL142769  40.009  21.383   6.153
 8274POPC   GL242770  40.140  21.448   6.153
 8274POPC   C1A42771  40.052  21.356   6.453
 8274POPC   D2A42772  39.965  21.381   6.753
 8274POPC   C3A42773  40.017  21.339   7.053
 8274POPC   C4A42774  40.042  21.350   7.353
 8274POPC   C1B42775  40.277  21.394   6.453
 8274POPC   C2B42776  40.245  21.416   6.753
 8274POPC   C3B42777  40.249  21.397   7.053
 8274POPC   C4B42778  40.264  21.455   7.353
 8275POPC   NC342779  20.624  19.789   5.553
 8275POPC   PO442780  20.567  19.816   5.853
 8275POPC   GL142781  20.641  19.799   6.153
 8275POPC   GL242782  20.491  19.726   6.153
 8275POPC   C1A42783  20.568  19.830   6.453
 8275POPC   D2A42784  20.583  19.880   6.753
 8275POPC   C3A42785  20.587  19.858   7.053
 8275POPC   C4A42786  20.639  19.843   7.353
 8275POPC   C1B42787  20.412  19.671   6.453
 8275POPC   C2B42788  20.430  19.662   6.753
 8275POPC   C3B42789  20.443  19.656   7.053
 8275POPC   C4B42790  20.438  19.655   7.353
 8276POPC   NC342791  37.691  28.413   5.553
 8276POPC   PO442792  37.651  28.340   5.853
 8276POPC   GL142793  37.657  28.347   6.153
 8276POPC   GL242794  37.540  28.387   6.153
 8276POPC   C1A42795  37.653  28.405   6.453
 8276POPC   D2A42796  37.671  28.352   6.753
 8276POPC   C3A42797  37.722  28.349   7.053
 8276POPC   C4A42798  37.718  28.363   7.353
 8276POPC   C1B42799  37.426  28.473   6.453
 8276POPC   C2B42800  37.422  28.501   6.753
 8276POPC   C3B42801  37.484  28.451   7.053
 8276POPC   C4B42802  37.404  28.460   7.353
 8277POPC   NC342803  42.370  37.675   5.553
 8277POPC   PO442804  42.301  37.683   5.853
 8277POPC   GL142805  42.337  37.724   6.153
 8277POPC   GL242806  42.478  37.596   6.153
 8277POPC   C1A42807  42.331  37.667   6.453
 8277POPC   D2A42808  42.375  37.681   6.753
 8277POPC   C3A42809  42.350  37.662   7.053
 8277POPC   C4A42810  42.372  37.659   7.353
 8277POPC   C1B42811  42.548  37.477   6.453
 8277POPC   C2B42812  42.548  37.499   6.753
 8277POPC   C3B42813  42.574  37.486   7.053
 8277POPC   C4B42814  42.558  37.551   7.353
 8278POPC   NC342815  32.270  29.160   5.553
 8278POPC   PO442816  32.234  29.184   5.853
 8278POPC   GL142817  32.230  29.168   6.153
 8278POPC   GL242818  32.149  29.257   6.153
 8278POPC   C1A42819  32.270  29.116   6.453
 8278POPC   D2A42820  32.266  29.160   6.753
 8278POPC   C3A42821  32.290  29.159   7.053
 8278POPC   C4A42822  32.217  29.118   7.353
 8278POPC   C1B42823  32.056  29.303   6.453
 8278POPC   C2B42824  32.033  29.275   6.753
 8278POPC   C3B42825  32.015  29.308   7.053
 8278POPC   C4B42826  31.993  29.273   7.353
 8279POPC   NC342827  41.522  37.690   5.553
 8279POPC   PO442828  41.575  37.661   5.853
 8279POPC   GL142829  41.570  37.708   6.153
 8279POPC   GL242830  41.428  37.670   6.153
 8279POPC   C1A42831  41.509  37.708   6.453
 8279POPC   D2A42832  41.534  37.696   6.753
 8279POPC   C3A42833  41.556  37.667   7.053
 8279POPC   C4A42834  41.578  37.648   7.353
 8279POPC   C1B42835  41.340  37.585   6.453
 8279POPC   C2B42836  41.319  37.608   6.753
 8279POPC   C3B42837  41.340  37.576   7.053
 8279POPC   C4B42838  41.316  37.546   7.353
 8280POPC   NC342839  44.636  11.315   5.553
 8280POPC   PO442840  44.679  11.349   5.853
 8280POPC   GL142841  44.680  11.323   6.153
 8280POPC   GL242842  44.576  11.309   6.153
 8280POPC   C1A42843  44.616  11.318   6.453
 8280POPC   D2A42844  44.677  11.265   6.753
 8280POPC   C3A42845  44.666  11.289   7.053
 8280POPC   C4A42846  44.625  11.295   7.353
 8280POPC   C1B42847  44.423  11.284   6.453
 8280POPC   C2B42848  44.447  11.241   6.753
 8280POPC   C3B42849  44.382  11.262   7.053
 8280POPC   C4B42850  44.454  11.274   7.353
 8281POPC   NC342851  12.072   0.456   5.553
 8281POPC   PO442852  12.071   0.434   5.853
 8281POPC   GL142853  12.072   0.483   6.153
 8281POPC   GL242854  11.948   0.374   6.153
 8281POPC   C1A42855  12.070   0.414   6.453
 8281POPC   D2A42856  12.041   0.407   6.753
 8281POPC   C3A42857  12.078   0.471   7.053
 8281POPC   C4A42858  12.057   0.432   7.353
 8281POPC   C1B42859  11.935   0.257   6.453
 8281POPC   C2B42860  11.920   0.212   6.753
 8281POPC   C3B42861  11.933   0.281   7.053
 8281POPC   C4B42862  11.877   0.252   7.353
 8282POPC   NC342863  17.517   3.586   5.553
 8282POPC   PO442864  17.532   3.577   5.853
 8282POPC   GL142865  17.551   3.574   6.153
 8282POPC   GL242866  17.456   3.670   6.153
 8282POPC   C1A42867  17.464   3.584   6.453
 8282POPC   D2A42868  17.490   3.540   6.753
 8282POPC   C3A42869  17.506   3.514   7.053
 8282POPC   C4A42870  17.529   3.522   7.353
 8282POPC   C1B42871  17.437   3.818   6.453
 8282POPC   C2B42872  17.472   3.774   6.753
 8282POPC   C3B42873  17.446   3.734   7.053
 8282POPC   C4B42874  17.429   3.793   7.353
 8283POPC   NC342875   6.659  35.397   5.553
 8283POPC   PO442876   6.605  35.356   5.853
 8283POPC   GL142877   6.685  35.367   6.153
 8283POPC   GL242878   6.559  35.424   6.153
 8283POPC   C1A42879   6.652  35.333   6.453
 8283POPC   D2A42880   6.694  35.344   6.753
 8283POPC   C3A42881   6.647  35.351   7.053
 8283POPC   C4A42882   6.655  35.333   7.353
 8283POPC   C1B42883   6.428  35.525   6.453
 8283POPC   C2B42884   6.432  35.519   6.753
 8283POPC   C3B42885   6.481  35.466   7.053
 8283POPC   C4B42886   6.433  35.511   7.353
 8284POPC   NC342887  38.452   2.800   5.553
 8284POPC   PO442888  38.444   2.784   5.853
 8284POPC   GL142889  38.481   2.734   6.153
 8284POPC   GL242890  38.339   2.753   6.153
 8284POPC   C1A42891  38.490   2.718   6.453
 8284POPC   D2A42892  38.502   2.775   6.753
 8284POPC   C3A42893  38.491   2.739   7.053
 8284POPC   C4A42894  38.414   2.722   7.353
 8284POPC   C1B42895  38.226   2.653   6.453
 8284POPC   C2B42896  38.178   2.705   6.753
 8284POPC   C3B42897  38.208   2.731   7.053
 8284POPC   C4B42898  38.190   2.727   7.353
 8285POPC   NC342899  11.295   1.957   5.553
 8285POPC   PO442900  11.333   1.986   5.853
 8285POPC   GL142901  11.272   2.006   6.153
 8285POPC   GL242902  11.402   2.050   6.153
 8285POPC   C1A42903  11.314   1.993   6.453
 8285POPC   D2A42904  11.255   1.997   6.753
 8285POPC   C3A42905  11.275   2.038   7.053
 8285POPC   C4A42906  11.260   2.023   7.353
 8285POPC   C1B42907  11.571   2.037   6.453
 8285POPC   C2B42908  11.542   2.029   6.753
 8285POPC   C3B42909  11.524   2.029   7.053
 8285POPC   C4B42910  11.515   2.064   7.353
 8286POPC   NC342911  39.280  26.032   5.553
 8286POPC   PO442912  39.215  26.038   5.853
 8286POPC   GL142913  39.196  26.020   6.153
 8286POPC   GL242914  39.286  25.907   6.153
 8286POPC   C1A42915  39.272  26.081   6.453
 8286POPC   D2A42916  39.241  26.063   6.753
 8286POPC   C3A42917  39.249  26.060   7.053
 8286POPC   C4A42918  39.262  26.025   7.353
 8286POPC   C1B42919  39.305  25.779   6.453
 8286POPC   C2B42920  39.221  25.832   6.753
 8286POPC   C3B42921  39.215  25.815   7.053
 8286POPC   C4B42922  39.267  25.836   7.353
 8287POPC   NC342923  32.254  15.910   5.553
 8287POPC   PO442924  32.207  15.927   5.853
 8287POPC   GL142925  32.204  15.932   6.153
 8287POPC   GL242926  32.310  16.032   6.153
 8287POPC   C1A42927  32.253  15.908   6.453
 8287POPC   D2A42928  32.284  15.912   6.753
 8287POPC   C3A42929  32.272  15.992   7.053
 8287POPC   C4A42930  32.288  15.948   7.353
 8287POPC   C1B42931  32.396  16.182   6.453
 8287POPC   C2B42932  32.410  16.174   6.753
 8287POPC   C3B42933  32.374  16.163   7.053
 8287POPC   C4B42934  32.399  16.182   7.353
 8288POPC   NC342935   3.565  33.764   5.553
 8288POPC   PO442936   3.545  33.770   5.853
 8288POPC   GL142937   3.564  33.757   6.153
 8288POPC   GL242938   3.659  33.826   6.153
 8288POPC   C1A42939   3.583  33.820   6.453
 8288POPC   D2A42940   3.505  33.810   6.753
 8288POPC   C3A42941   3.534  33.821   7.053
 8288POPC   C4A42942   3.533  33.782   7.353
 8288POPC   C1B42943   3.806  33.908   6.453
 8288POPC   C2B42944   3.810  33.897   6.753
 8288POPC   C3B42945   3.790  33.858   7.053
 8288POPC   C4B42946   3.742  33.916   7.353
 8289POPC   NC342947  20.574   4.271   5.553
 8289POPC   PO442948  20.571   4.334   5.853
 8289POPC   GL142949  20.582   4.354   6.153
 8289POPC   GL242950  20.497   4.359   6.153
 8289POPC   C1A42951  20.627   4.332   6.453
 8289POPC   D2A42952  20.644   4.312   6.753
 8289POPC   C3A42953  20.567   4.358   7.053
 8289POPC   C4A42954  20.595   4.299   7.353
 8289POPC   C1B42955  20.433   4.426   6.453
 8289POPC   C2B42956  20.423   4.444   6.753
 8289POPC   C3B42957  20.408   4.470   7.053
 8289POPC   C4B42958  20.434   4.445   7.353
 8290POPC   NC342959  25.309  34.620   5.553
 8290POPC   PO442960  25.252  34.570   5.853
 8290POPC   GL142961  25.291  34.580   6.153
 8290POPC   GL242962  25.208  34.684   6.153
 8290POPC   C1A42963  25.260  34.541   6.453
 8290POPC   D2A42964  25.286  34.581   6.753
 8290POPC   C3A42965  25.237  34.596   7.053
 8290POPC   C4A42966  25.251  34.593   7.353
 8290POPC   C1B42967  25.203  34.849   6.453
 8290POPC   C2B42968  25.230  34.814   6.753
 8290POPC   C3B42969  25.215  34.855   7.053
 8290POPC   C4B42970  25.238  34.793   7.353
 8291POPC   NC342971   2.009  42.292   5.553
 8291POPC   PO442972   1.983  42.309   5.853
 8291POPC   GL142973   1.947  42.301   6.153
 8291POPC   GL242974   2.095  42.382   6.153
 8291POPC   C1A42975   1.996  42.347   6.453
 8291POPC   D2A42976   1.948  42.337   6.753
 8291POPC   C3A42977   1.975  42.340   7.053
 8291POPC   C4A42978   1.950  42.366   7.353
 8291POPC   C1B42979   2.285  42.351   6.453
 8291POPC   C2B42980   2.281  42.371   6.753
 8291POPC   C3B42981   2.280  42.408   7.053
 8291POPC   C4B42982   2.230  42.333   7.353
 8292POPC   NC342983  32.276   2.790   5.553
 8292POPC   PO442984  32.257   2.781   5.853
 8292POPC   GL142985  32.239   2.759   6.153
 8292POPC   GL242986  32.096   2.851   6.153
 8292POPC   C1A42987  32.229   2.752   6.453
 8292POPC   D2A42988  32.278   2.791   6.753
 8292POPC   C3A42989  32.270   2.787   7.053
 8292POPC   C4A42990  32.233   2.808   7.353
 8292POPC   C1B42991  31.995   2.910   6.453
 8292POPC   C2B42992  32.079   2.915   6.753
 8292POPC   C3B42993  32.062   2.858   7.053
 8292POPC   C4B42994  32.035   2.949   7.353
 8293POPC   NC342995  32.984  26.802   5.553
 8293POPC   PO442996  33.036  26.793   5.853
 8293POPC   GL142997  33.019  26.780   6.153
 8293POPC   GL242998  32.933  26.816   6.153
 8293POPC   C1A42999  33.001  26.847   6.453
 8293POPC   D2A43000  33.059  26.852   6.753
 8293POPC   C3A43001  33.061  26.847   7.053
 8293POPC   C4A43002  32.984  26.805   7.353
 8293POPC   C1B43003  32.831  26.894   6.453
 8293POPC   C2B43004  32.777  26.906   6.753
 8293POPC   C3B43005  32.750  26.888   7.053
 8293POPC   C4B43006  32.772  26.871   7.353
 8294POPC   NC343007  15.194  27.582   5.553
 8294POPC   PO443008  15.154  27.554   5.853
 8294POPC   GL143009  15.215  27.543   6.153
 8294POPC   GL243010  15.042  27.546   6.153
 8294POPC   C1A43011  15.221  27.623   6.453
 8294POPC   D2A43012  15.164  27.606   6.753
 8294POPC   C3A43013  15.138  27.624   7.053
 8294POPC   C4A43014  15.131  27.578   7.353
 8294POPC   C1B43015  14.946  27.549   6.453
 8294POPC   C2B43016  14.951  27.567   6.753
 8294POPC   C3B43017  14.971  27.594   7.053
 8294POPC   C4B43018  14.946  27.550   7.353
 8295POPC   NC343019  36.856   1.947   5.553
 8295POPC   PO443020  36.896   1.953   5.853
 8295POPC   GL143021  36.922   2.016   6.153
 8295POPC   GL243022  36.792   2.097   6.153
 8295POPC   C1A43023  36.942   2.019   6.453
 8295POPC   D2A43024  36.855   2.030   6.753
 8295POPC   C3A43025  36.914   1.957   7.053
 8295POPC   C4A43026  36.933   1.972   7.353
 8295POPC   C1B43027  36.730   2.168   6.453
 8295POPC   C2B43028  36.652   2.088   6.753
 8295POPC   C3B43029  36.738   2.090   7.053
 8295POPC   C4B43030  36.668   2.125   7.353
 8296POPC   NC343031  27.620   8.194   5.553
 8296POPC   PO443032  27.579   8.191   5.853
 8296POPC   GL143033  27.549   8.214   6.153
 8296POPC   GL243034  27.498   8.148   6.153
 8296POPC   C1A43035  27.596   8.235   6.453
 8296POPC   D2A43036  27.603   8.169   6.753
 8296POPC   C3A43037  27.543   8.209   7.053
 8296POPC   C4A43038  27.627   8.167   7.353
 8296POPC   C1B43039  27.331   8.116   6.453
 8296POPC   C2B43040  27.349   8.103   6.753
 8296POPC   C3B43041  27.346   8.065   7.053
 8296POPC   C4B43042  27.382   8.146   7.353
 8297POPC   NC343043  37.630  40.797   5.553
 8297POPC   PO443044  37.687  40.775   5.853
 8297POPC   GL143045  37.652  40.801   6.153
 8297POPC   GL243046  37.579  40.774   6.153
 8297POPC   C1A43047  37.633  40.739   6.453
 8297POPC   D2A43048  37.660  40.820   6.753
 8297POPC   C3A43049  37.648  40.826   7.053
 8297POPC   C4A43050  37.658  40.823   7.353
 8297POPC   C1B43051  37.430  40.755   6.453
 8297POPC   C2B43052  37.397  40.722   6.753
 8297POPC   C3B43053  37.411  40.727   7.053
 8297POPC   C4B43054  37.398  40.716   7.353
 8298POPC   NC343055   8.205  13.588   5.553
 8298POPC   PO443056   8.223  13.588   5.853
 8298POPC   GL143057   8.209  13.629   6.153
 8298POPC   GL243058   8.076  13.596   6.153
 8298POPC   C1A43059   8.174  13.587   6.453
 8298POPC   D2A43060   8.212  13.612   6.753
 8298POPC   C3A43061   8.209  13.583   7.053
 8298POPC   C4A43062   8.159  13.675   7.353
 8298POPC   C1B43063   7.990  13.536   6.453
 8298POPC   C2B43064   7.964  13.561   6.753
 8298POPC   C3B43065   7.933  13.626   7.053
 8298POPC   C4B43066   7.920  13.547   7.353
 8299POPC   NC343067  26.018   7.409   5.553
 8299POPC   PO443068  26.081   7.428   5.853
 8299POPC   GL143069  26.006   7.422   6.153
 8299POPC   GL243070  26.053   7.258   6.153
 8299POPC   C1A43071  26.075   7.400   6.453
 8299POPC   D2A43072  26.074   7.432   6.753
 8299POPC   C3A43073  26.048   7.410   7.053
 8299POPC   C4A43074  26.062   7.412   7.353
 8299POPC   C1B43075  26.028   7.220   6.453
 8299POPC   C2B43076  26.032   7.175   6.753
 8299POPC   C3B43077  26.027   7.140   7.053
 8299POPC   C4B43078  26.038   7.195   7.353
 8300POPC   NC343079  19.836  11.347   5.553
 8300POPC   PO443080  19.833  11.251   5.853
 8300POPC   GL143081  19.792  11.310   6.153
 8300POPC   GL243082  19.768  11.330   6.153
 8300POPC   C1A43083  19.788  11.315   6.453
 8300POPC   D2A43084  19.844  11.270   6.753
 8300POPC   C3A43085  19.825  11.347   7.053
 8300POPC   C4A43086  19.808  11.334   7.353
 8300POPC   C1B43087  19.648  11.464   6.453
 8300POPC   C2B43088  19.646  11.503   6.753
 8300POPC   C3B43089  19.683  11.461   7.053
 8300POPC   C4B43090  19.590  11.490   7.353
 8301POPC   NC343091  22.987  39.224   5.553
 8301POPC   PO443092  22.898  39.183   5.853
 8301POPC   GL143093  22.911  39.189   6.153
 8301POPC   GL243094  23.021  39.109   6.153
 8301POPC   C1A43095  22.964  39.267   6.453
 8301POPC   D2A43096  22.941  39.186   6.753
 8301POPC   C3A43097  22.959  39.231   7.053
 8301POPC   C4A43098  22.962  39.201   7.353
 8301POPC   C1B43099  23.031  38.977   6.453
 8301POPC   C2B43100  23.048  39.032   6.753
 8301POPC   C3B43101  23.106  38.984   7.053
 8301POPC   C4B43102  23.028  38.974   7.353
 8302POPC   NC343103  37.631  20.634   5.553
 8302POPC   PO443104  37.644  20.630   5.853
 8302POPC   GL143105  37.636  20.619   6.153
 8302POPC   GL243106  37.638  20.561   6.153
 8302POPC   C1A43107  37.686  20.640   6.453
 8302POPC   D2A43108  37.653  20.638   6.753
 8302POPC   C3A43109  37.672  20.593   7.053
 8302POPC   C4A43110  37.696  20.625   7.353
 8302POPC   C1B43111  37.473  20.441   6.453
 8302POPC   C2B43112  37.491  20.481   6.753
 8302POPC   C3B43113  37.489  20.467   7.053
 8302POPC   C4B43114  37.495  20.468   7.353
 8303POPC   NC343115   8.188  20.595   5.553
 8303POPC   PO443116   8.207  20.587   5.853
 8303POPC   GL143117   8.207  20.598   6.153
 8303POPC   GL243118   8.295  20.579   6.153
 8303POPC   C1A43119   8.173  20.599   6.453
 8303POPC   D2A43120   8.154  20.627   6.753
 8303POPC   C3A43121   8.179  20.630   7.053
 8303POPC   C4A43122   8.220  20.643   7.353
 8303POPC   C1B43123   8.395  20.526   6.453
 8303POPC   C2B43124   8.468  20.503   6.753
 8303POPC   C3B43125   8.391  20.523   7.053
 8303POPC   C4B43126   8.409  20.578   7.353
 8304POPC   NC343127  24.454  14.410   5.553
 8304POPC   PO443128  24.526  14.417   5.853
 8304POPC   GL143129  24.491  14.432   6.153
 8304POPC   GL243130  24.437  14.304   6.153
 8304POPC   C1A43131  24.449  14.383   6.453
 8304POPC   D2A43132  24.503  14.443   6.753
 8304POPC   C3A43133  24.458  14.386   7.053
 8304POPC   C4A43134  24.531  14.403   7.353
 8304POPC   C1B43135  24.392  14.174   6.453
 8304POPC   C2B43136  24.366  14.146   6.753
 8304POPC   C3B43137  24.428  14.191   7.053
 8304POPC   C4B43138  24.353  14.126   7.353
 8305POPC   NC343139  21.373  41.539   5.553
 8305POPC   PO443140  21.360  41.569   5.853
 8305POPC   GL143141  21.338  41.584   6.153
 8305POPC   GL243142  21.379  41.405   6.153
 8305POPC   C1A43143  21.395  41.569   6.453
 8305POPC   D2A43144  21.340  41.570   6.753
 8305POPC   C3A43145  21.349  41.580   7.053
 8305POPC   C4A43146  21.392  41.592   7.353
 8305POPC   C1B43147  21.413  41.341   6.453
 8305POPC   C2B43148  21.368  41.354   6.753
 8305POPC   C3B43149  21.392  41.322   7.053
 8305POPC   C4B43150  21.339  41.318   7.353
 8306POPC   NC343151  12.881  22.146   5.553
 8306POPC   PO443152  12.870  22.201   5.853
 8306POPC   GL143153  12.881  22.138   6.153
 8306POPC   GL243154  12.958  22.120   6.153
 8306POPC   C1A43155  12.848  22.136   6.453
 8306POPC   D2A43156  12.878  22.210   6.753
 8306POPC   C3A43157  12.881  22.143   7.053
 8306POPC   C4A43158  12.808  22.131   7.353
 8306POPC   C1B43159  13.078  22.047   6.453
 8306POPC   C2B43160  13.108  22.107   6.753
 8306POPC   C3B43161  13.113  22.040   7.053
 8306POPC   C4B43162  13.109  22.070   7.353
 8307POPC   NC343163   1.965  15.212   5.553
 8307POPC   PO443164   1.967  15.134   5.853
 8307POPC   GL143165   2.015  15.176   6.153
 8307POPC   GL243166   2.090  15.313   6.153
 8307POPC   C1A43167   2.038  15.133   6.453
 8307POPC   D2A43168   1.980  15.143   6.753
 8307POPC   C3A43169   2.033  15.152   7.053
 8307POPC   C4A43170   1.947  15.192   7.353
 8307POPC   C1B43171   2.073  15.437   6.453
 8307POPC   C2B43172   2.069  15.423   6.753
 8307POPC   C3B43173   2.162  15.422   7.053
 8307POPC   C4B43174   2.141  15.440   7.353
 8308POPC   NC343175  38.428  30.704   5.553
 8308POPC   PO443176  38.425  30.689   5.853
 8308POPC   GL143177  38.409  30.668   6.153
 8308POPC   GL243178  38.394  30.822   6.153
 8308POPC   C1A43179  38.499  30.745   6.453
 8308POPC   D2A43180  38.487  30.694   6.753
 8308POPC   C3A43181  38.471  30.680   7.053
 8308POPC   C4A43182  38.472  30.697   7.353
 8308POPC   C1B43183  38.368  30.915   6.453
 8308POPC   C2B43184  38.312  30.877   6.753
 8308POPC   C3B43185  38.380  30.959   7.053
 8308POPC   C4B43186  38.353  30.934   7.353
 8309POPC   NC343187   6.625  21.381   5.553
 8309POPC   PO443188   6.660  21.398   5.853
 8309POPC   GL143189   6.668  21.435   6.153
 8309POPC   GL243190   6.609  21.282   6.153
 8309POPC   C1A43191   6.677  21.345   6.453
 8309POPC   D2A43192   6.602  21.409   6.753
 8309POPC   C3A43193   6.647  21.400   7.053
 8309POPC   C4A43194   6.625  21.343   7.353
 8309POPC   C1B43195   6.528  21.237   6.453
 8309POPC   C2B43196   6.500  21.142   6.753
 8309POPC   C3B43197   6.518  21.175   7.053
 8309POPC   C4B43198   6.496  21.184   7.353
 8310POPC   NC343199   5.854  40.823   5.553
 8310POPC   PO443200   5.885  40.771   5.853
 8310POPC   GL143201   5.853  40.790   6.153
 8310POPC   GL243202   5.925  40.829   6.153
 8310POPC   C1A43203   5.887  40.812   6.453
 8310POPC   D2A43204   5.845  40.813   6.753
 8310POPC   C3A43205   5.836  40.734   7.053
 8310POPC   C4A43206   5.872  40.778   7.353
 8310POPC   C1B43207   6.064  40.917   6.453
 8310POPC   C2B43208   6.090  40.896   6.753
 8310POPC   C3B43209   6.092  40.912   7.053
 8310POPC   C4B43210   6.033  40.902   7.353
 8311POPC   NC343211  36.868  16.715   5.553
 8311POPC   PO443212  36.863  16.740   5.853
 8311POPC   GL143213  36.882  16.717   6.153
 8311POPC   GL243214  36.869  16.625   6.153
 8311POPC   C1A43215  36.888  16.771   6.453
 8311POPC   D2A43216  36.911  16.765   6.753
 8311POPC   C3A43217  36.891  16.706   7.053
 8311POPC   C4A43218  36.928  16.758   7.353
 8311POPC   C1B43219  36.867  16.491   6.453
 8311POPC   C2B43220  36.810  16.486   6.753
 8311POPC   C3B43221  36.802  16.445   7.053
 8311POPC   C4B43222  36.887  16.445   7.353
 8312POPC   NC343223  28.378  15.949   5.553
 8312POPC   PO443224  28.337  15.910   5.853
 8312POPC   GL143225  28.365  15.996   6.153
 8312POPC   GL243226  28.274  15.937   6.153
 8312POPC   C1A43227  28.377  15.980   6.453
 8312POPC   D2A43228  28.394  15.948   6.753
 8312POPC   C3A43229  28.352  15.919   7.053
 8312POPC   C4A43230  28.330  15.940   7.353
 8312POPC   C1B43231  28.106  15.899   6.453
 8312POPC   C2B43232  28.175  15.910   6.753
 8312POPC   C3B43233  28.117  15.857   7.053
 8312POPC   C4B43234  28.165  15.936   7.353
 8313POPC   NC343235  17.477  29.169   5.553
 8313POPC   PO443236  17.494  29.132   5.853
 8313POPC   GL143237  17.502  29.123   6.153
 8313POPC   GL243238  17.654  29.096   6.153
 8313POPC   C1A43239  17.480  29.102   6.453
 8313POPC   D2A43240  17.458  29.104   6.753
 8313POPC   C3A43241  17.496  29.116   7.053
 8313POPC   C4A43242  17.478  29.161   7.353
 8313POPC   C1B43243  17.738  29.078   6.453
 8313POPC   C2B43244  17.727  29.077   6.753
 8313POPC   C3B43245  17.727  29.073   7.053
 8313POPC   C4B43246  17.780  29.006   7.353
 8314POPC   NC343247  31.425  29.901   5.553
 8314POPC   PO443248  31.436  29.969   5.853
 8314POPC   GL143249  31.484  29.917   6.153
 8314POPC   GL243250  31.572  29.873   6.153
 8314POPC   C1A43251  31.463  29.878   6.453
 8314POPC   D2A43252  31.470  29.905   6.753
 8314POPC   C3A43253  31.438  29.956   7.053
 8314POPC   C4A43254  31.494  29.894   7.353
 8314POPC   C1B43255  31.676  29.877   6.453
 8314POPC   C2B43256  31.665  29.795   6.753
 8314POPC   C3B43257  31.700  29.861   7.053
 8314POPC   C4B43258  31.720  29.877   7.353
 8315POPC   NC343259   2.019  39.278   5.553
 8315POPC   PO443260   1.958  39.230   5.853
 8315POPC   GL143261   2.030  39.192   6.153
 8315POPC   GL243262   1.884  39.348   6.153
 8315POPC   C1A43263   2.004  39.209   6.453
 8315POPC   D2A43264   2.015  39.202   6.753
 8315POPC   C3A43265   1.956  39.200   7.053
 8315POPC   C4A43266   1.997  39.254   7.353
 8315POPC   C1B43267   1.760  39.425   6.453
 8315POPC   C2B43268   1.746  39.386   6.753
 8315POPC   C3B43269   1.742  39.418   7.053
 8315POPC   C4B43270   1.785  39.425   7.353
 8316POPC   NC343271  38.499   3.570   5.553
 8316POPC   PO443272  38.490   3.546   5.853
 8316POPC   GL143273  38.444   3.575   6.153
 8316POPC   GL243274  38.478   3.409   6.153
 8316POPC   C1A43275  38.456   3.510   6.453
 8316POPC   D2A43276  38.463   3.546   6.753
 8316POPC   C3A43277  38.434   3.560   7.053
 8316POPC   C4A43278  38.424   3.573   7.353
 8316POPC   C1B43279  38.553   3.321   6.453
 8316POPC   C2B43280  38.521   3.270   6.753
 8316POPC   C3B43281  38.498   3.336   7.053
 8316POPC   C4B43282  38.506   3.285   7.353
 8317POPC   NC343283  43.063  14.414   5.553
 8317POPC   PO443284  43.139  14.440   5.853
 8317POPC   GL143285  43.151  14.401   6.153
 8317POPC   GL243286  43.037  14.292   6.153
 8317POPC   C1A43287  43.080  14.376   6.453
 8317POPC   D2A43288  43.097  14.393   6.753
 8317POPC   C3A43289  43.147  14.409   7.053
 8317POPC   C4A43290  43.146  14.396   7.353
 8317POPC   C1B43291  42.961  14.222   6.453
 8317POPC   C2B43292  43.026  14.205   6.753
 8317POPC   C3B43293  42.984  14.208   7.053
 8317POPC   C4B43294  43.033  14.170   7.353
 8318POPC   NC343295  20.646  44.648   5.553
 8318POPC   PO443296  20.641  44.614   5.853
 8318POPC   GL143297  20.567  44.655   6.153
 8318POPC   GL243298  20.593  44.578   6.153
 8318POPC   C1A43299  20.588  44.692   6.453
 8318POPC   D2A43300  20.562  44.678   6.753
 8318POPC   C3A43301  20.655  44.613   7.053
 8318POPC   C4A43302  20.572  44.635   7.353
 8318POPC   C1B43303  20.485  44.394   6.453
 8318POPC   C2B43304  20.495  44.462   6.753
 8318POPC   C3B43305  20.495  44.421   7.053
 8318POPC   C4B43306  20.559  44.392   7.353
 8319POPC   NC343307  24.447  33.067   5.553
 8319POPC   PO443308  24.475  33.054   5.853
 8319POPC   GL143309  24.526  33.021   6.153
 8319POPC   GL243310  24.450  33.129   6.153
 8319POPC   C1A43311  24.473  32.982   6.453
 8319POPC   D2A43312  24.471  33.011   6.753
 8319POPC   C3A43313  24.499  32.998   7.053
 8319POPC   C4A43314  24.517  32.985   7.353
 8319POPC   C1B43315  24.408  33.257   6.453
 8319POPC   C2B43316  24.366  33.238   6.753
 8319POPC   C3B43317  24.358  33.215   7.053
 8319POPC   C4B43318  24.444  33.220   7.353
 8320POPC   NC343319  43.877   0.463   5.553
 8320POPC   PO443320  43.932   0.433   5.853
 8320POPC   GL143321  43.932   0.413   6.153
 8320POPC   GL243322  44.033   0.364   6.153
 8320POPC   C1A43323  43.886   0.420   6.453
 8320POPC   D2A43324  43.885   0.471   6.753
 8320POPC   C3A43325  43.929   0.437   7.053
 8320POPC   C4A43326  43.928   0.463   7.353
 8320POPC   C1B43327  44.067   0.261   6.453
 8320POPC   C2B43328  44.094   0.280   6.753
 8320POPC   C3B43329  44.108   0.333   7.053
 8320POPC   C4B43330  44.072   0.257   7.353
 8321POPC   NC343331  41.573  12.819   5.553
 8321POPC   PO443332  41.605  12.814   5.853
 8321POPC   GL143333  41.596  12.849   6.153
 8321POPC   GL243334  41.645  12.963   6.153
 8321POPC   C1A43335  41.563  12.890   6.453
 8321POPC   D2A43336  41.579  12.877   6.753
 8321POPC   C3A43337  41.527  12.901   7.053
 8321POPC   C4A43338  41.588  12.894   7.353
 8321POPC   C1B43339  41.658  13.010   6.453
 8321POPC   C2B43340  41.750  13.094   6.753
 8321POPC   C3B43341  41.734  13.071   7.053
 8321POPC   C4B43342  41.746  13.012   7.353
 8322POPC   NC343343   2.752  14.396   5.553
 8322POPC   PO443344   2.770  14.443   5.853
 8322POPC   GL143345   2.791  14.427   6.153
 8322POPC   GL243346   2.818  14.473   6.153
 8322POPC   C1A43347   2.743  14.433   6.453
 8322POPC   D2A43348   2.799  14.395   6.753
 8322POPC   C3A43349   2.762  14.354   7.053
 8322POPC   C4A43350   2.794  14.437   7.353
 8322POPC   C1B43351   2.895  14.611   6.453
 8322POPC   C2B43352   2.975  14.538   6.753
 8322POPC   C3B43353   2.905  14.634   7.053
 8322POPC   C4B43354   2.892  14.635   7.353
 8323POPC   NC343355  11.335  20.585   5.553
 8323POPC   PO443356  11.278  20.649   5.853
 8323POPC   GL143357  11.330  20.657   6.153
 8323POPC   GL243358  11.138  20.559   6.153
 8323POPC   C1A43359  11.324  20.649   6.453
 8323POPC   D2A43360  11.331  20.576   6.753
 8323POPC   C3A43361  11.314  20.660   7.053
 8323POPC   C4A43362  11.337  20.561   7.353
 8323POPC   C1B43363  11.100  20.554   6.453
 8323POPC   C2B43364  11.061  20.563   6.753
 8323POPC   C3B43365  11.021  20.498   7.053
 8323POPC   C4B43366  11.078  20.484   7.353
 8324POPC   NC343367  12.065  19.063   5.553
 8324POPC   PO443368  12.110  19.059   5.853
 8324POPC   GL143369  12.090  19.040   6.153
 8324POPC   GL243370  12.227  19.013   6.153
 8324POPC   C1A43371  12.090  19.016   6.453
 8324POPC   D2A43372  12.063  19.056   6.753
 8324POPC   C3A43373  12.097  19.063   7.053
 8324POPC   C4A43374  12.044  19.087   7.353
 8324POPC   C1B43375  12.294  18.960   6.453
 8324POPC   C2B43376  12.291  18.985   6.753
 8324POPC   C3B43377  12.302  19.008   7.053
 8324POPC   C4B43378  12.265  18.969   7.353
 8325POPC   NC343379  36.866  30.672   5.553
 8325POPC   PO443380  36.946  30.718   5.853
 8325POPC   GL143381  36.857  30.711   6.153
 8325POPC   GL243382  36.967  30.810   6.153
 8325POPC   C1A43383  36.903  30.655   6.453
 8325POPC   D2A43384  36.877  30.653   6.753
 8325POPC   C3A43385  36.875  30.717   7.053
 8325POPC   C4A43386  36.951  30.716   7.353
 8325POPC   C1B43387  37.066  30.872   6.453
 8325POPC   C2B43388  37.138  30.814   6.753
 8325POPC   C3B43389  37.086  30.883   7.053
 8325POPC   C4B43390  37.138  30.861   7.353
 8326POPC   NC343391   5.097  33.760   5.553
 8326POPC   PO443392   5.062  33.834   5.853
 8326POPC   GL143393   5.104  33.820   6.153
 8326POPC   GL243394   4.992  33.831   6.153
 8326POPC   C1A43395   5.116  33.782   6.453
 8326POPC   D2A43396   5.060  33.825   6.753
 8326POPC   C3A43397   5.106  33.758   7.053
 8326POPC   C4A43398   5.113  33.753   7.353
 8326POPC   C1B43399   4.874  33.917   6.453
 8326POPC   C2B43400   4.901  33.862   6.753
 8326POPC   C3B43401   4.864  33.896   7.053
 8326POPC   C4B43402   4.872  33.875   7.353
 8327POPC   NC343403  36.141   6.605   5.553
 8327POPC   PO443404  36.082   6.595   5.853
 8327POPC   GL143405  36.149   6.616   6.153
 8327POPC   GL243406  36.223   6.730   6.153
 8327POPC   C1A43407  36.133   6.599   6.453
 8327POPC   D2A43408  36.096   6.608   6.753
 8327POPC   C3A43409  36.106   6.645   7.053
 8327POPC   C4A43410  36.172   6.622   7.353
 8327POPC   C1B43411  36.308   6.783   6.453
 8327POPC   C2B43412  36.297   6.782   6.753
 8327POPC   C3B43413  36.337   6.747   7.053
 8327POPC   C4B43414  36.305   6.825   7.353
 8328POPC   NC343415  20.642  41.530   5.553
 8328POPC   PO443416  20.615  41.563   5.853
 8328POPC   GL143417  20.613  41.570   6.153
 8328POPC   GL243418  20.683  41.570   6.153
 8328POPC   C1A43419  20.650  41.528   6.453
 8328POPC   D2A43420  20.563  41.574   6.753
 8328POPC   C3A43421  20.654  41.537   7.053
 8328POPC   C4A43422  20.638  41.542   7.353
 8328POPC   C1B43423  20.854  41.617   6.453
 8328POPC   C2B43424  20.888  41.584   6.753
 8328POPC   C3B43425  20.892  41.636   7.053
 8328POPC   C4B43426  20.858  41.660   7.353
 8329POPC   NC343427   9.705   8.923   5.553
 8329POPC   PO443428   9.706   9.019   5.853
 8329POPC   GL143429   9.746   9.022   6.153
 8329POPC   GL243430   9.697   9.077   6.153
 8329POPC   C1A43431   9.749   8.980   6.453
 8329POPC   D2A43432   9.731   8.979   6.753
 8329POPC   C3A43433   9.708   8.958   7.053
 8329POPC   C4A43434   9.748   8.927   7.353
 8329POPC   C1B43435   9.592   9.153   6.453
 8329POPC   C2B43436   9.652   9.192   6.753
 8329POPC   C3B43437   9.626   9.191   7.053
 8329POPC   C4B43438   9.605   9.220   7.353
 8330POPC   NC343439  40.793  21.395   5.553
 8330POPC   PO443440  40.811  21.349   5.853
 8330POPC   GL143441  40.831  21.343   6.153
 8330POPC   GL243442  40.631  21.288   6.153
 8330POPC   C1A43443  40.786  21.361   6.453
 8330POPC   D2A43444  40.794  21.398   6.753
 8330POPC   C3A43445  40.774  21.390   7.053
 8330POPC   C4A43446  40.780  21.379   7.353
 8330POPC   C1B43447  40.535  21.291   6.453
 8330POPC   C2B43448  40.550  21.301   6.753
 8330POPC   C3B43449  40.579  21.266   7.053
 8330POPC   C4B43450  40.550  21.285   7.353
 8331POPC   NC343451  23.724  40.018   5.553
 8331POPC   PO443452  23.746  39.994   5.853
 8331POPC   GL143453  23.711  39.975   6.153
 8331POPC   GL243454  23.701  39.900   6.153
 8331POPC   C1A43455  23.714  40.036   6.453
 8331POPC   D2A43456  23.753  39.994   6.753
 8331POPC   C3A43457  23.671  39.985   7.053
 8331POPC   C4A43458  23.702  39.978   7.353
 8331POPC   C1B43459  23.774  39.761   6.453
 8331POPC   C2B43460  23.794  39.759   6.753
 8331POPC   C3B43461  23.808  39.763   7.053
 8331POPC   C4B43462  23.781  39.737   7.353
 8332POPC   NC343463  34.546   8.209   5.553
 8332POPC   PO443464  34.571   8.156   5.853
 8332POPC   GL143465  34.534   8.235   6.153
 8332POPC   GL243466  34.512   8.086   6.153
 8332POPC   C1A43467  34.553   8.227   6.453
 8332POPC   D2A43468  34.620   8.210   6.753
 8332POPC   C3A43469  34.571   8.202   7.053
 8332POPC   C4A43470  34.623   8.169   7.353
 8332POPC   C1B43471  34.466   7.946   6.453
 8332POPC   C2B43472  34.430   7.978   6.753
 8332POPC   C3B43473  34.420   7.952   7.053
 8332POPC   C4B43474  34.468   7.960   7.353
 8333POPC   NC343475  26.084  41.569   5.553
 8333POPC   PO443476  26.015  41.602   5.853
 8333POPC   GL143477  26.008  41.596   6.153
 8333POPC   GL243478  26.041  41.457   6.153
 8333POPC   C1A43479  26.038  41.556   6.453
 8333POPC   D2A43480  26.067  41.525   6.753
 8333POPC   C3A43481  26.017  41.547   7.053
 8333POPC   C4A43482  26.059  41.537   7.353
 8333POPC   C1B43483  25.944  41.295   6.453
 8333POPC   C2B43484  25.951  41.336   6.753
 8333POPC   C3B43485  25.985  41.272   7.053
 8333POPC   C4B43486  25.936  41.299   7.353
 8334POPC   NC343487  11.275  26.840   5.553
 8334POPC   PO443488  11.307  26.787   5.853
 8334POPC   GL143489  11.334  26.824   6.153
 8334POPC   GL243490  11.391  26.715   6.153
 8334POPC   C1A43491  11.313  26.775   6.453
 8334POPC   D2A43492  11.348  26.819   6.753
 8334POPC   C3A43493  11.316  26.863   7.053
 8334POPC   C4A43494  11.338  26.778   7.353
 8334POPC   C1B43495  11.459  26.667   6.453
 8334POPC   C2B43496  11.468  26.685   6.753
 8334POPC   C3B43497  11.493  26.626   7.053
 8334POPC   C4B43498  11.469  26.676   7.353
 8335POPC   NC343499   4.307   8.924   5.553
 8335POPC   PO443500   4.273   8.935   5.853
 8335POPC   GL143501   4.299   8.966   6.153
 8335POPC   GL243502   4.367   8.829   6.153
 8335POPC   C1A43503   4.278   8.967   6.453
 8335POPC   D2A43504   4.295   8.984   6.753
 8335POPC   C3A43505   4.305   8.982   7.053
 8335POPC   C4A43506   4.290   8.988   7.353
 8335POPC   C1B43507   4.463   8.774   6.453
 8335POPC   C2B43508   4.428   8.827   6.753
 8335POPC   C3B43509   4.493   8.746   7.053
 8335POPC   C4B43510   4.503   8.749   7.353
 8336POPC   NC343511  25.295  14.396   5.553
 8336POPC   PO443512  25.256  14.412   5.853
 8336POPC   GL143513  25.270  14.389   6.153
 8336POPC   GL243514  25.304  14.545   6.153
 8336POPC   C1A43515  25.300  14.449   6.453
 8336POPC   D2A43516  25.312  14.453   6.753
 8336POPC   C3A43517  25.251  14.403   7.053
 8336POPC   C4A43518  25.314  14.431   7.353
 8336POPC   C1B43519  25.343  14.594   6.453
 8336POPC   C2B43520  25.385  14.684   6.753
 8336POPC   C3B43521  25.294  14.629   7.053
 8336POPC   C4B43522  25.323  14.603   7.353
 8337POPC   NC343523  12.114   5.907   5.553
 8337POPC   PO443524  12.046   5.850   5.853
 8337POPC   GL143525  12.072   5.872   6.153
 8337POPC   GL243526  12.027   6.011   6.153
 8337POPC   C1A43527  12.070   5.834   6.453
 8337POPC   D2A43528  12.111   5.841   6.753
 8337POPC   C3A43529  12.070   5.909   7.053
 8337POPC   C4A43530  12.111   5.851   7.353
 8337POPC   C1B43531  12.035   6.157   6.453
 8337POPC   C2B43532  12.009   6.159   6.753
 8337POPC   C3B43533  12.016   6.113   7.053
 8337POPC   C4B43534  12.080   6.073   7.353
 8338POPC   NC343535  19.023  39.231   5.553
 8338POPC   PO443536  19.012  39.190   5.853
 8338POPC   GL143537  19.036  39.222   6.153
 8338POPC   GL243538  19.157  39.192   6.153
 8338POPC   C1A43539  19.027  39.255   6.453
 8338POPC   D2A43540  19.089  39.246   6.753
 8338POPC   C3A43541  19.063  39.228   7.053
 8338POPC   C4A43542  19.030  39.256   7.353
 8338POPC   C1B43543  19.220  39.079   6.453
 8338POPC   C2B43544  19.238  39.100   6.753
 8338POPC   C3B43545  19.301  39.071   7.053
 8338POPC   C4B43546  19.225  39.097   7.353
 8339POPC   NC343547  22.159  24.509   5.553
 8339POPC   PO443548  22.153  24.498   5.853
 8339POPC   GL143549  22.137  24.474   6.153
 8339POPC   GL243550  22.280  24.553   6.153
 8339POPC   C1A43551  22.136  24.468   6.453
 8339POPC   D2A43552  22.134  24.453   6.753
 8339POPC   C3A43553  22.125  24.474   7.053
 8339POPC   C4A43554  22.112  24.446   7.353
 8339POPC   C1B43555  22.450  24.568   6.453
 8339POPC   C2B43556  22.362  24.564   6.753
 8339POPC   C3B43557  22.392  24.503   7.053
 8339POPC   C4B43558  22.406  24.563   7.353
 8340POPC   NC343559  23.730  25.292   5.553
 8340POPC   PO443560  23.673  25.243   5.853
 8340POPC   GL143561  23.701  25.285   6.153
 8340POPC   GL243562  23.825  25.335   6.153
 8340POPC   C1A43563  23.734  25.274   6.453
 8340POPC   D2A43564  23.760  25.232   6.753
 8340POPC   C3A43565  23.698  25.300   7.053
 8340POPC   C4A43566  23.739  25.255   7.353
 8340POPC   C1B43567  23.805  25.469   6.453
 8340POPC   C2B43568  23.799  25.501   6.753
 8340POPC   C3B43569  23.795  25.504   7.053
 8340POPC   C4B43570  23.867  25.495   7.353
 8341POPC   NC343571  29.169  33.045   5.553
 8341POPC   PO443572  29.120  33.043   5.853
 8341POPC   GL143573  29.155  33.061   6.153
 8341POPC   GL243574  29.062  32.950   6.153
 8341POPC   C1A43575  29.162  33.037   6.453
 8341POPC   D2A43576  29.147  33.074   6.753
 8341POPC   C3A43577  29.107  33.048   7.053
 8341POPC   C4A43578  29.109  33.062   7.353
 8341POPC   C1B43579  28.925  32.886   6.453
 8341POPC   C2B43580  28.902  32.888   6.753
 8341POPC   C3B43581  28.890  32.869   7.053
 8341POPC   C4B43582  28.973  32.904   7.353
 8342POPC   NC343583  36.892  32.287   5.553
 8342POPC   PO443584  36.913  32.228   5.853
 8342POPC   GL143585  36.887  32.277   6.153
 8342POPC   GL243586  37.028  32.312   6.153
 8342POPC   C1A43587  36.928  32.257   6.453
 8342POPC   D2A43588  36.887  32.281   6.753
 8342POPC   C3A43589  36.886  32.209   7.053
 8342POPC   C4A43590  36.869  32.260   7.353
 8342POPC   C1B43591  37.116  32.378   6.453
 8342POPC   C2B43592  37.107  32.295   6.753
 8342POPC   C3B43593  37.189  32.316   7.053
 8342POPC   C4B43594  37.174  32.339   7.353
 8343POPC   NC343595  30.675  25.998   5.553
 8343POPC   PO443596  30.726  25.998   5.853
 8343POPC   GL143597  30.701  26.053   6.153
 8343POPC   GL243598  30.728  25.967   6.153
 8343POPC   C1A43599  30.680  26.003   6.453
 8343POPC   D2A43600  30.650  25.994   6.753
 8343POPC   C3A43601  30.703  26.022   7.053
 8343POPC   C4A43602  30.661  26.082   7.353
 8343POPC   C1B43603  30.740  25.794   6.453
 8343POPC   C2B43604  30.811  25.833   6.753
 8343POPC   C3B43605  30.769  25.792   7.053
 8343POPC   C4B43606  30.755  25.825   7.353
 8344POPC   NC343607  17.529  19.086   5.553
 8344POPC   PO443608  17.540  19.035   5.853
 8344POPC   GL143609  17.513  19.065   6.153
 8344POPC   GL243610  17.523  19.201   6.153
 8344POPC   C1A43611  17.548  19.059   6.453
 8344POPC   D2A43612  17.464  19.069   6.753
 8344POPC   C3A43613  17.514  19.027   7.053
 8344POPC   C4A43614  17.506  19.032   7.353
 8344POPC   C1B43615  17.589  19.314   6.453
 8344POPC   C2B43616  17.567  19.268   6.753
 8344POPC   C3B43617  17.576  19.293   7.053
 8344POPC   C4B43618  17.603  19.259   7.353
 8345POPC   NC343619  10.488  32.982   5.553
 8345POPC   PO443620  10.511  33.028   5.853
 8345POPC   GL143621  10.499  33.042   6.153
 8345POPC   GL243622  10.632  33.126   6.153
 8345POPC   C1A43623  10.524  33.029   6.453
 8345POPC   D2A43624  10.511  32.980   6.753
 8345POPC   C3A43625  10.488  33.049   7.053
 8345POPC   C4A43626  10.542  33.045   7.353
 8345POPC   C1B43627  10.622  33.200   6.453
 8345POPC   C2B43628  10.665  33.237   6.753
 8345POPC   C3B43629  10.652  33.219   7.053
 8345POPC   C4B43630  10.649  33.228   7.353
 8346POPC   NC343631   9.743  17.533   5.553
 8346POPC   PO443632   9.789  17.538   5.853
 8346POPC   GL143633   9.782  17.470   6.153
 8346POPC   GL243634   9.584  17.417   6.153
 8346POPC   C1A43635   9.741  17.543   6.453
 8346POPC   D2A43636   9.707  17.457   6.753
 8346POPC   C3A43637   9.713  17.544   7.053
 8346POPC   C4A43638   9.754  17.530   7.353
 8346POPC   C1B43639   9.483  17.468   6.453
 8346POPC   C2B43640   9.546  17.374   6.753
 8346POPC   C3B43641   9.539  17.473   7.053
 8346POPC   C4B43642   9.553  17.451   7.353
 8347POPC   NC343643  30.723   6.685   5.553
 8347POPC   PO443644  30.657   6.630   5.853
 8347POPC   GL143645  30.657   6.677   6.153
 8347POPC   GL243646  30.642   6.503   6.153
 8347POPC   C1A43647  30.707   6.621   6.453
 8347POPC   D2A43648  30.671   6.619   6.753
 8347POPC   C3A43649  30.692   6.663   7.053
 8347POPC   C4A43650  30.651   6.638   7.353
 8347POPC   C1B43651  30.693   6.421   6.453
 8347POPC   C2B43652  30.706   6.350   6.753
 8347POPC   C3B43653  30.724   6.397   7.053
 8347POPC   C4B43654  30.635   6.360   7.353
 8348POPC   NC343655  40.791  44.688   5.553
 8348POPC   PO443656  40.802  44.653   5.853
 8348POPC   GL143657  40.769  44.621   6.153
 8348POPC   GL243658  40.755  44.787   6.153
 8348POPC   C1A43659  40.798  44.651   6.453
 8348POPC   D2A43660  40.760  44.670   6.753
 8348POPC   C3A43661  40.831  44.709   7.053
 8348POPC   C4A43662  40.759  44.637   7.353
 8348POPC   C1B43663  40.707  44.928   6.453
 8348POPC   C2B43664  40.686  44.838   6.753
 8348POPC   C3B43665  40.649  44.874   7.053
 8348POPC   C4B43666  40.667  44.878   7.353
 8349POPC   NC343667   8.242   0.454   5.553
 8349POPC   PO443668   8.202   0.397   5.853
 8349POPC   GL143669   8.233   0.458   6.153
 8349POPC   GL243670   8.089   0.281   6.153
 8349POPC   C1A43671   8.188   0.412   6.453
 8349POPC   D2A43672   8.147   0.438   6.753
 8349POPC   C3A43673   8.227   0.430   7.053
 8349POPC   C4A43674   8.178   0.395   7.353
 8349POPC   C1B43675   8.070   0.191   6.453
 8349POPC   C2B43676   8.048   0.211   6.753
 8349POPC   C3B43677   8.127   0.233   7.053
 8349POPC   C4B43678   8.105   0.174   7.353
 8350POPC   NC343679  28.384  44.667   5.553
 8350POPC   PO443680  28.354  44.679   5.853
 8350POPC   GL143681  28.378  44.654   6.153
 8350POPC   GL243682  28.239  44.736   6.153
 8350POPC   C1A43683  28.417  44.643   6.453
 8350POPC   D2A43684  28.379  44.680   6.753
 8350POPC   C3A43685  28.349  44.698   7.053
 8350POPC   C4A43686  28.379  44.652   7.353
 8350POPC   C1B43687  28.147  44.733   6.453
 8350POPC   C2B43688  28.100  44.719   6.753
 8350POPC   C3B43689  28.093  44.766   7.053
 8350POPC   C4B43690  28.175  44.766   7.353
 8351POPC   NC343691  14.373  41.512   5.553
 8351POPC   PO443692  14.413  41.587   5.853
 8351POPC   GL143693  14.416  41.524   6.153
 8351POPC   GL243694  14.281  41.466   6.153
 8351POPC   C1A43695  14.426  41.569   6.453
 8351POPC   D2A43696  14.367  41.536   6.753
 8351POPC   C3A43697  14.425  41.604   7.053
 8351POPC   C4A43698  14.414  41.556   7.353
 8351POPC   C1B43699  14.225  41.423   6.453
 8351POPC   C2B43700  14.153  41.430   6.753
 8351POPC   C3B43701  14.238  41.418   7.053
 8351POPC   C4B43702  14.206  41.457   7.353
 8352POPC   NC343703  26.772  19.821   5.553
 8352POPC   PO443704  26.851  19.788   5.853
 8352POPC   GL143705  26.844  19.854   6.153
 8352POPC   GL243706  26.741  19.795   6.153
 8352POPC   C1A43707  26.834  19.865   6.453
 8352POPC   D2A43708  26.813  19.876   6.753
 8352POPC   C3A43709  26.853  19.788   7.053
 8352POPC   C4A43710  26.806  19.832   7.353
 8352POPC   C1B43711  26.634  19.687   6.453
 8352POPC   C2B43712  26.612  19.764   6.753
 8352POPC   C3B43713  26.622  19.748   7.053
 8352POPC   C4B43714  26.629  19.749   7.353
 8353POPC   NC343715  36.149  29.187   5.553
 8353POPC   PO443716  36.102  29.141   5.853
 8353POPC   GL143717  36.111  29.193   6.153
 8353POPC   GL243718  36.163  29.082   6.153
 8353POPC   C1A43719  36.108  29.175   6.453
 8353POPC   D2A43720  36.170  29.112   6.753
 8353POPC   C3A43721  36.149  29.180   7.053
 8353POPC   C4A43722  36.129  29.144   7.353
 8353POPC   C1B43723  36.247  28.914   6.453
 8353POPC   C2B43724  36.238  28.920   6.753
 8353POPC   C3B43725  36.323  28.935   7.053
 8353POPC   C4B43726  36.317  28.950   7.353
 8354POPC   NC343727   8.992  32.273   5.553
 8354POPC   PO443728   8.949  32.225   5.853
 8354POPC   GL143729   8.988  32.253   6.153
 8354POPC   GL243730   9.093  32.263   6.153
 8354POPC   C1A43731   8.979  32.262   6.453
 8354POPC   D2A43732   8.930  32.206   6.753
 8354POPC   C3A43733   8.930  32.259   7.053
 8354POPC   C4A43734   9.020  32.201   7.353
 8354POPC   C1B43735   9.213  32.222   6.453
 8354POPC   C2B43736   9.208  32.188   6.753
 8354POPC   C3B43737   9.270  32.236   7.053
 8354POPC   C4B43738   9.188  32.234   7.353
 8355POPC   NC343739  32.210   3.577   5.553
 8355POPC   PO443740  32.272   3.562   5.853
 8355POPC   GL143741  32.274   3.578   6.153
 8355POPC   GL243742  32.216   3.657   6.153
 8355POPC   C1A43743  32.274   3.556   6.453
 8355POPC   D2A43744  32.291   3.560   6.753
 8355POPC   C3A43745  32.204   3.588   7.053
 8355POPC   C4A43746  32.225   3.509   7.353
 8355POPC   C1B43747  32.219   3.742   6.453
 8355POPC   C2B43748  32.195   3.748   6.753
 8355POPC   C3B43749  32.136   3.790   7.053
 8355POPC   C4B43750  32.155   3.749   7.353
 8356POPC   NC343751  38.426  32.993   5.553
 8356POPC   PO443752  38.479  33.058   5.853
 8356POPC   GL143753  38.407  32.975   6.153
 8356POPC   GL243754  38.390  32.995   6.153
 8356POPC   C1A43755  38.478  32.974   6.453
 8356POPC   D2A43756  38.422  32.977   6.753
 8356POPC   C3A43757  38.462  33.023   7.053
 8356POPC   C4A43758  38.406  32.999   7.353
 8356POPC   C1B43759  38.245  32.897   6.453
 8356POPC   C2B43760  38.275  32.915   6.753
 8356POPC   C3B43761  38.235  32.863   7.053
 8356POPC   C4B43762  38.281  32.901   7.353
 8357POPC   NC343763   2.750  44.647   5.553
 8357POPC   PO443764   2.803  44.649   5.853
 8357POPC   GL143765   2.731  44.711   6.153
 8357POPC   GL243766   2.613  44.647   6.153
 8357POPC   C1A43767   2.745  44.655   6.453
 8357POPC   D2A43768   2.778  44.695   6.753
 8357POPC   C3A43769   2.732  44.643   7.053
 8357POPC   C4A43770   2.763  44.686   7.353
 8357POPC   C1B43771   2.509  44.656   6.453
 8357POPC   C2B43772   2.478  44.681   6.753
 8357POPC   C3B43773   2.541  44.627   7.053
 8357POPC   C4B43774   2.529  44.714   7.353
 8358POPC   NC343775   8.212  10.555   5.553
 8358POPC   PO443776   8.159  10.492   5.853
 8358POPC   GL143777   8.191  10.518   6.153
 8358POPC   GL243778   8.317  10.593   6.153
 8358POPC   C1A43779   8.244  10.574   6.453
 8358POPC   D2A43780   8.207  10.535   6.753
 8358POPC   C3A43781   8.220  10.525   7.053
 8358POPC   C4A43782   8.245  10.574   7.353
 8358POPC   C1B43783   8.404  10.625   6.453
 8358POPC   C2B43784   8.352  10.638   6.753
 8358POPC   C3B43785   8.430  10.710   7.053
 8358POPC   C4B43786   8.397  10.627   7.353
 8359POPC   NC343787  15.165  26.015   5.553
 8359POPC   PO443788  15.137  26.090   5.853
 8359POPC   GL143789  15.158  26.043   6.153
 8359POPC   GL243790  15.196  26.154   6.153
 8359POPC   C1A43791  15.188  26.081   6.453
 8359POPC   D2A43792  15.181  26.015   6.753
 8359POPC   C3A43793  15.192  26.029   7.053
 8359POPC   C4A43794  15.213  26.073   7.353
 8359POPC   C1B43795  15.250  26.293   6.453
 8359POPC   C2B43796  15.295  26.287   6.753
 8359POPC   C3B43797  15.214  26.325   7.053
 8359POPC   C4B43798  15.229  26.281   7.353
 8360POPC   NC343799  42.355  17.491   5.553
 8360POPC   PO443800  42.334  17.460   5.853
 8360POPC   GL143801  42.382  17.543   6.153
 8360POPC   GL243802  42.422  17.479   6.153
 8360POPC   C1A43803  42.303  17.458   6.453
 8360POPC   D2A43804  42.346  17.502   6.753
 8360POPC   C3A43805  42.346  17.556   7.053
 8360POPC   C4A43806  42.315  17.528   7.353
 8360POPC   C1B43807  42.524  17.395   6.453
 8360POPC   C2B43808  42.547  17.398   6.753
 8360POPC   C3B43809  42.596  17.411   7.053
 8360POPC   C4B43810  42.572  17.409   7.353
 8361POPC   NC343811  40.786  15.939   5.553
 8361POPC   PO443812  40.740  15.957   5.853
 8361POPC   GL143813  40.802  15.982   6.153
 8361POPC   GL243814  40.745  15.855   6.153
 8361POPC   C1A43815  40.820  15.993   6.453
 8361POPC   D2A43816  40.828  16.004   6.753
 8361POPC   C3A43817  40.824  15.960   7.053
 8361POPC   C4A43818  40.802  15.944   7.353
 8361POPC   C1B43819  40.721  15.711   6.453
 8361POPC   C2B43820  40.760  15.735   6.753
 8361POPC   C3B43821  40.738  15.711   7.053
 8361POPC   C4B43822  40.807  15.738   7.353
 8362POPC   NC343823  36.142  31.483   5.553
 8362POPC   PO443824  36.148  31.515   5.853
 8362POPC   GL143825  36.105  31.433   6.153
 8362POPC   GL243826  36.074  31.621   6.153
 8362POPC   C1A43827  36.085  31.450   6.453
 8362POPC   D2A43828  36.168  31.431   6.753
 8362POPC   C3A43829  36.116  31.486   7.053
 8362POPC   C4A43830  36.109  31.452   7.353
 8362POPC   C1B43831  36.131  31.673   6.453
 8362POPC   C2B43832  36.134  31.763   6.753
 8362POPC   C3B43833  36.076  31.728   7.053
 8362POPC   C4B43834  36.076  31.686   7.353
 8363POPC   NC343835  17.463  24.539   5.553
 8363POPC   PO443836  17.549  24.455   5.853
 8363POPC   GL143837  17.499  24.506   6.153
 8363POPC   GL243838  17.568  24.598   6.153
 8363POPC   C1A43839  17.539  24.486   6.453
 8363POPC   D2A43840  17.504  24.512   6.753
 8363POPC   C3A43841  17.540  24.504   7.053
 8363POPC   C4A43842  17.549  24.520   7.353
 8363POPC   C1B43843  17.548  24.705   6.453
 8363POPC   C2B43844  17.536  24.779   6.753
 8363POPC   C3B43845  17.498  24.735   7.053
 8363POPC   C4B43846  17.518  24.765   7.353
 8364POPC   NC343847   1.235  17.461   5.553
 8364POPC   PO443848   1.203  17.506   5.853
 8364POPC   GL143849   1.238  17.472   6.153
 8364POPC   GL243850   1.187  17.412   6.153
 8364POPC   C1A43851   1.197  17.516   6.453
 8364POPC   D2A43852   1.212  17.523   6.753
 8364POPC   C3A43853   1.259  17.529   7.053
 8364POPC   C4A43854   1.166  17.489   7.353
 8364POPC   C1B43855   1.187  17.307   6.453
 8364POPC   C2B43856   1.177  17.223   6.753
 8364POPC   C3B43857   1.128  17.223   7.053
 8364POPC   C4B43858   1.141  17.241   7.353
 8365POPC   NC343859   9.730  42.347   5.553
 8365POPC   PO443860   9.714  42.328   5.853
 8365POPC   GL143861   9.759  42.354   6.153
 8365POPC   GL243862   9.864  42.415   6.153
 8365POPC   C1A43863   9.795  42.321   6.453
 8365POPC   D2A43864   9.765  42.333   6.753
 8365POPC   C3A43865   9.766  42.371   7.053
 8365POPC   C4A43866   9.762  42.377   7.353
 8365POPC   C1B43867   9.984  42.376   6.453
 8365POPC   C2B43868   9.951  42.392   6.753
 8365POPC   C3B43869   9.991  42.414   7.053
 8365POPC   C4B43870   9.935  42.373   7.353
 8366POPC   NC343871  25.290   9.750   5.553
 8366POPC   PO443872  25.312   9.787   5.853
 8366POPC   GL143873  25.309   9.780   6.153
 8366POPC   GL243874  25.214   9.632   6.153
 8366POPC   C1A43875  25.285   9.744   6.453
 8366POPC   D2A43876  25.235   9.728   6.753
 8366POPC   C3A43877  25.255   9.743   7.053
 8366POPC   C4A43878  25.292   9.710   7.353
 8366POPC   C1B43879  25.232   9.537   6.453
 8366POPC   C2B43880  25.186   9.482   6.753
 8366POPC   C3B43881  25.241   9.497   7.053
 8366POPC   C4B43882  25.222   9.479   7.353
 8367POPC   NC343883  25.259  19.012   5.553
 8367POPC   PO443884  25.259  19.053   5.853
 8367POPC   GL143885  25.250  19.074   6.153
 8367POPC   GL243886  25.153  18.938   6.153
 8367POPC   C1A43887  25.290  19.096   6.453
 8367POPC   D2A43888  25.259  19.013   6.753
 8367POPC   C3A43889  25.294  19.094   7.053
 8367POPC   C4A43890  25.255  19.076   7.353
 8367POPC   C1B43891  25.147  18.885   6.453
 8367POPC   C2B43892  25.088  18.868   6.753
 8367POPC   C3B43893  25.154  18.819   7.053
 8367POPC   C4B43894  25.163  18.874   7.353
 8368POPC   NC343895  32.245  31.514   5.553
 8368POPC   PO443896  32.272  31.462   5.853
 8368POPC   GL143897  32.272  31.449   6.153
 8368POPC   GL243898  32.406  31.453   6.153
 8368POPC   C1A43899  32.201  31.470   6.453
 8368POPC   D2A43900  32.284  31.514   6.753
 8368POPC   C3A43901  32.264  31.428   7.053
 8368POPC   C4A43902  32.210  31.475   7.353
 8368POPC   C1B43903  32.458  31.459   6.453
 8368POPC   C2B43904  32.475  31.526   6.753
 8368POPC   C3B43905  32.469  31.493   7.053
 8368POPC   C4B43906  32.456  31.445   7.353
 8369POPC   NC343907  22.918  22.937   5.553
 8369POPC   PO443908  22.960  22.929   5.853
 8369POPC   GL143909  22.894  22.927   6.153
 8369POPC   GL243910  23.072  22.863   6.153
 8369POPC   C1A43911  22.901  22.960   6.453
 8369POPC   D2A43912  22.889  22.913   6.753
 8369POPC   C3A43913  22.888  22.975   7.053
 8369POPC   C4A43914  22.888  22.951   7.353
 8369POPC   C1B43915  23.136  22.909   6.453
 8369POPC   C2B43916  23.138  22.883   6.753
 8369POPC   C3B43917  23.164  22.830   7.053
 8369POPC   C4B43918  23.142  22.880   7.353
 8370POPC   NC343919  22.973  19.021   5.553
 8370POPC   PO443920  22.911  19.041   5.853
 8370POPC   GL143921  22.966  19.105   6.153
 8370POPC   GL243922  23.022  19.097   6.153
 8370POPC   C1A43923  22.986  19.080   6.453
 8370POPC   D2A43924  22.899  19.096   6.753
 8370POPC   C3A43925  22.984  19.049   7.053
 8370POPC   C4A43926  22.963  19.051   7.353
 8370POPC   C1B43927  23.150  19.155   6.453
 8370POPC   C2B43928  23.135  19.188   6.753
 8370POPC   C3B43929  23.150  19.188   7.053
 8370POPC   C4B43930  23.171  19.182   7.353
 8371POPC   NC343931  26.787  23.721   5.553
 8371POPC   PO443932  26.817  23.671   5.853
 8371POPC   GL143933  26.790  23.672   6.153
 8371POPC   GL243934  26.868  23.857   6.153
 8371POPC   C1A43935  26.854  23.743   6.453
 8371POPC   D2A43936  26.816  23.737   6.753
 8371POPC   C3A43937  26.768  23.761   7.053
 8371POPC   C4A43938  26.839  23.739   7.353
 8371POPC   C1B43939  26.889  23.995   6.453
 8371POPC   C2B43940  26.914  23.935   6.753
 8371POPC   C3B43941  26.827  24.004   7.053
 8371POPC   C4B43942  26.833  23.993   7.353
 8372POPC   NC343943  43.857  29.130   5.553
 8372POPC   PO443944  43.861  29.159   5.853
 8372POPC   GL143945  43.846  29.159   6.153
 8372POPC   GL243946  44.058  29.210   6.153
 8372POPC   C1A43947  43.908  29.136   6.453
 8372POPC   D2A43948  43.846  29.162   6.753
 8372POPC   C3A43949  43.927  29.152   7.053
 8372POPC   C4A43950  43.913  29.112   7.353
 8372POPC   C1B43951  44.136  29.201   6.453
 8372POPC   C2B43952  44.159  29.219   6.753
 8372POPC   C3B43953  44.175  29.174   7.053
 8372POPC   C4B43954  44.131  29.232   7.353
 8373POPC   NC343955   7.381  36.927   5.553
 8373POPC   PO443956   7.418  36.932   5.853
 8373POPC   GL143957   7.392  36.938   6.153
 8373POPC   GL243958   7.445  36.798   6.153
 8373POPC   C1A43959   7.397  36.907   6.453
 8373POPC   D2A43960   7.466  36.902   6.753
 8373POPC   C3A43961   7.469  36.895   7.053
 8373POPC   C4A43962   7.430  36.949   7.353
 8373POPC   C1B43963   7.563  36.658   6.453
 8373POPC   C2B43964   7.556  36.695   6.753
 8373POPC   C3B43965   7.530  36.663   7.053
 8373POPC   C4B43966   7.509  36.679   7.353
 8374POPC   NC343967   9.744   2.783   5.553
 8374POPC   PO443968   9.711   2.761   5.853
 8374POPC   GL143969   9.761   2.778   6.153
 8374POPC   GL243970   9.625   2.823   6.153
 8374POPC   C1A43971   9.703   2.756   6.453
 8374POPC   D2A43972   9.782   2.792   6.753
 8374POPC   C3A43973   9.708   2.781   7.053
 8374POPC   C4A43974   9.773   2.748   7.353
 8374POPC   C1B43975   9.545   2.844   6.453
 8374POPC   C2B43976   9.515   2.836   6.753
 8374POPC   C3B43977   9.531   2.824   7.053
 8374POPC   C4B43978   9.551   2.887   7.353
 8375POPC   NC343979  20.636  23.761   5.553
 8375POPC   PO443980  20.640  23.685   5.853
 8375POPC   GL143981  20.649  23.674   6.153
 8375POPC   GL243982  20.616  23.841   6.153
 8375POPC   C1A43983  20.591  23.704   6.453
 8375POPC   D2A43984  20.571  23.703   6.753
 8375POPC   C3A43985  20.588  23.672   7.053
 8375POPC   C4A43986  20.633  23.701   7.353
 8375POPC   C1B43987  20.613  23.949   6.453
 8375POPC   C2B43988  20.624  23.935   6.753
 8375POPC   C3B43989  20.677  23.985   7.053
 8375POPC   C4B43990  20.625  24.000   7.353
 8376POPC   NC343991   1.239  38.415   5.553
 8376POPC   PO443992   1.238  38.467   5.853
 8376POPC   GL143993   1.235  38.434   6.153
 8376POPC   GL243994   1.079  38.423   6.153
 8376POPC   C1A43995   1.202  38.454   6.453
 8376POPC   D2A43996   1.208  38.452   6.753
 8376POPC   C3A43997   1.180  38.462   7.053
 8376POPC   C4A43998   1.193  38.411   7.353
 8376POPC   C1B43999   0.951  38.405   6.453
 8376POPC   C2B44000   1.011  38.442   6.753
 8376POPC   C3B44001   1.000  38.403   7.053
 8376POPC   C4B44002   0.955  38.384   7.353
 8377POPC   NC344003  12.888  12.098   5.553
 8377POPC   PO444004  12.852  12.068   5.853
 8377POPC   GL144005  12.842  12.101   6.153
 8377POPC   GL244006  12.812  11.933   6.153
 8377POPC   C1A44007  12.832  12.031   6.453
 8377POPC   D2A44008  12.834  12.045   6.753
 8377POPC   C3A44009  12.871  12.122   7.053
 8377POPC   C4A44010  12.822  12.044   7.353
 8377POPC   C1B44011  12.756  11.902   6.453
 8377POPC   C2B44012  12.752  11.852   6.753
 8377POPC   C3B44013  12.690  11.825   7.053
 8377POPC   C4B44014  12.771  11.826   7.353
 8378POPC   NC344015  36.923  13.582   5.553
 8378POPC   PO444016  36.863  13.642   5.853
 8378POPC   GL144017  36.899  13.630   6.153
 8378POPC   GL244018  36.974  13.743   6.153
 8378POPC   C1A44019  36.872  13.605   6.453
 8378POPC   D2A44020  36.914  13.664   6.753
 8378POPC   C3A44021  36.889  13.579   7.053
 8378POPC   C4A44022  36.895  13.581   7.353
 8378POPC   C1B44023  37.130  13.810   6.453
 8378POPC   C2B44024  37.121  13.773   6.753
 8378POPC   C3B44025  37.128  13.771   7.053
 8378POPC   C4B44026  37.115  13.748   7.353
 8379POPC   NC344027  10.491  26.055   5.553
 8379POPC   PO444028  10.519  26.068   5.853
 8379POPC   GL144029  10.478  26.074   6.153
 8379POPC   GL244030  10.505  26.121   6.153
 8379POPC   C1A44031  10.563  26.045   6.453
 8379POPC   D2A44032  10.506  26.021   6.753
 8379POPC   C3A44033  10.549  26.075   7.053
 8379POPC   C4A44034  10.568  26.066   7.353
 8379POPC   C1B44035  10.422  26.291   6.453
 8379POPC   C2B44036  10.403  26.305   6.753
 8379POPC   C3B44037  10.472  26.299   7.053
 8379POPC   C4B44038  10.439  26.304   7.353
 8380POPC   NC344039  34.598  36.877   5.553
 8380POPC   PO444040  34.613  36.906   5.853
 8380POPC   GL144041  34.599  36.922   6.153
 8380POPC   GL244042  34.645  36.790   6.153
 8380POPC   C1A44043  34.564  36.918   6.453
 8380POPC   D2A44044  34.625  36.882   6.753
 8380POPC   C3A44045  34.573  36.928   7.053
 8380POPC   C4A44046  34.537  36.889   7.353
 8380POPC   C1B44047  34.593  36.696   6.453
 8380POPC   C2B44048  34.651  36.627   6.753
 8380POPC   C3B44049  34.619  36.649   7.053
 8380POPC   C4B44050  34.600  36.685   7.353
 8381POPC   NC344051   4.351  39.203   5.553
 8381POPC   PO444052   4.319  39.227   5.853
 8381POPC   GL144053   4.327  39.267   6.153
 8381POPC   GL244054   4.364  39.391   6.153
 8381POPC   C1A44055   4.318  39.254   6.453
 8381POPC   D2A44056   4.310  39.238   6.753
 8381POPC   C3A44057   4.290  39.258   7.053
 8381POPC   C4A44058   4.284  39.203   7.353
 8381POPC   C1B44059   4.280  39.476   6.453
 8381POPC   C2B44060   4.352  39.478   6.753
 8381POPC   C3B44061   4.324  39.494   7.053
 8381POPC   C4B44062   4.351  39.469   7.353
 8382POPC   NC344063  28.369   6.689   5.553
 8382POPC   PO444064  28.334   6.685   5.853
 8382POPC   GL144065  28.333   6.598   6.153
 8382POPC   GL244066  28.286   6.714   6.153
 8382POPC   C1A44067  28.387   6.631   6.453
 8382POPC   D2A44068  28.340   6.648   6.753
 8382POPC   C3A44069  28.338   6.602   7.053
 8382POPC   C4A44070  28.407   6.674   7.353
 8382POPC   C1B44071  28.240   6.871   6.453
 8382POPC   C2B44072  28.284   6.879   6.753
 8382POPC   C3B44073  28.254   6.852   7.053
 8382POPC   C4B44074  28.216   6.868   7.353
 8383POPC   NC344075  10.514  18.318   5.553
 8383POPC   PO444076  10.482  18.254   5.853
 8383POPC   GL144077  10.541  18.326   6.153
 8383POPC   GL244078  10.443  18.240   6.153
 8383POPC   C1A44079  10.502  18.248   6.453
 8383POPC   D2A44080  10.548  18.234   6.753
 8383POPC   C3A44081  10.555  18.246   7.053
 8383POPC   C4A44082  10.568  18.239   7.353
 8383POPC   C1B44083  10.231  18.279   6.453
 8383POPC   C2B44084  10.257  18.204   6.753
 8383POPC   C3B44085  10.327  18.267   7.053
 8383POPC   C4B44086  10.273  18.252   7.353
 8384POPC   NC344087  28.400  33.781   5.553
 8384POPC   PO444088  28.353  33.813   5.853
 8384POPC   GL144089  28.404  33.822   6.153
 8384POPC   GL244090  28.354  33.715   6.153
 8384POPC   C1A44091  28.397  33.774   6.453
 8384POPC   D2A44092  28.407  33.767   6.753
 8384POPC   C3A44093  28.332  33.777   7.053
 8384POPC   C4A44094  28.412  33.771   7.353
 8384POPC   C1B44095  28.359  33.503   6.453
 8384POPC   C2B44096  28.384  33.594   6.753
 8384POPC   C3B44097  28.431  33.584   7.053
 8384POPC   C4B44098  28.446  33.550   7.353
 8385POPC   NC344099   5.900  29.158   5.553
 8385POPC   PO444100   5.824  29.151   5.853
 8385POPC   GL144101   5.900  29.140   6.153
 8385POPC   GL244102   5.860  29.273   6.153
 8385POPC   C1A44103   5.832  29.171   6.453
 8385POPC   D2A44104   5.909  29.102   6.753
 8385POPC   C3A44105   5.841  29.103   7.053
 8385POPC   C4A44106   5.878  29.107   7.353
 8385POPC   C1B44107   5.886  29.369   6.453
 8385POPC   C2B44108   5.934  29.356   6.753
 8385POPC   C3B44109   5.952  29.436   7.053
 8385POPC   C4B44110   5.956  29.434   7.353
 8386POPC   NC344111  32.230  44.648   5.553
 8386POPC   PO444112  32.236  44.672   5.853
 8386POPC   GL144113  32.266  44.626   6.153
 8386POPC   GL244114  32.325  44.736   6.153
 8386POPC   C1A44115  32.255  44.677   6.453
 8386POPC   D2A44116  32.297  44.658   6.753
 8386POPC   C3A44117  32.222  44.663   7.053
 8386POPC   C4A44118  32.217  44.645   7.353
 8386POPC   C1B44119  32.365  44.862   6.453
 8386POPC   C2B44120  32.427  44.807   6.753
 8386POPC   C3B44121  32.457  44.845   7.053
 8386POPC   C4B44122  32.427  44.800   7.353
 8387POPC   NC344123  43.898  12.111   5.553
 8387POPC   PO444124  43.917  12.093   5.853
 8387POPC   GL144125  43.875  12.051   6.153
 8387POPC   GL244126  43.732  12.086   6.153
 8387POPC   C1A44127  43.920  12.034   6.453
 8387POPC   D2A44128  43.839  12.092   6.753
 8387POPC   C3A44129  43.917  12.031   7.053
 8387POPC   C4A44130  43.901  12.064   7.353
 8387POPC   C1B44131  43.612  12.196   6.453
 8387POPC   C2B44132  43.642  12.213   6.753
 8387POPC   C3B44133  43.658  12.138   7.053
 8387POPC   C4B44134  43.639  12.147   7.353
 8388POPC   NC344135   0.441  42.355   5.553
 8388POPC   PO444136   0.409  42.287   5.853
 8388POPC   GL144137   0.438  42.384   6.153
 8388POPC   GL244138   0.375  42.231   6.153
 8388POPC   C1A44139   0.406  42.361   6.453
 8388POPC   D2A44140   0.400  42.354   6.753
 8388POPC   C3A44141   0.428  42.313   7.053
 8388POPC   C4A44142   0.410  42.378   7.353
 8388POPC   C1B44143   0.204  42.164   6.453
 8388POPC   C2B44144   0.271  42.191   6.753
 8388POPC   C3B44145   0.242  42.238   7.053
 8388POPC   C4B44146   0.220  42.157   7.353
 8389POPC   NC344147  12.863   7.382   5.553
 8389POPC   PO444148  12.811   7.437   5.853
 8389POPC   GL144149  12.868   7.375   6.153
 8389POPC   GL244150  12.817   7.320   6.153
 8389POPC   C1A44151  12.809   7.371   6.453
 8389POPC   D2A44152  12.862   7.410   6.753
 8389POPC   C3A44153  12.855   7.383   7.053
 8389POPC   C4A44154  12.806   7.441   7.353
 8389POPC   C1B44155  12.681   7.187   6.453
 8389POPC   C2B44156  12.778   7.230   6.753
 8389POPC   C3B44157  12.779   7.177   7.053
 8389POPC   C4B44158  12.714   7.237   7.353
 8390POPC   NC344159   1.958  14.375   5.553
 8390POPC   PO444160   2.007  14.422   5.853
 8390POPC   GL144161   2.012  14.396   6.153
 8390POPC   GL244162   1.856  14.432   6.153
 8390POPC   C1A44163   1.977  14.421   6.453
 8390POPC   D2A44164   1.944  14.364   6.753
 8390POPC   C3A44165   2.015  14.412   7.053
 8390POPC   C4A44166   1.958  14.441   7.353
 8390POPC   C1B44167   1.779  14.383   6.453
 8390POPC   C2B44168   1.734  14.368   6.753
 8390POPC   C3B44169   1.726  14.432   7.053
 8390POPC   C4B44170   1.749  14.368   7.353
 8391POPC   NC344171  26.827  43.878   5.553
 8391POPC   PO444172  26.772  43.864   5.853
 8391POPC   GL144173  26.818  43.898   6.153
 8391POPC   GL244174  26.844  43.745   6.153
 8391POPC   C1A44175  26.851  43.883   6.453
 8391POPC   D2A44176  26.851  43.921   6.753
 8391POPC   C3A44177  26.813  43.934   7.053
 8391POPC   C4A44178  26.769  43.852   7.353
 8391POPC   C1B44179  26.983  43.651   6.453
 8391POPC   C2B44180  26.924  43.728   6.753
 8391POPC   C3B44181  26.989  43.669   7.053
 8391POPC   C4B44182  26.973  43.733   7.353
 8392POPC   NC344183  12.085   3.574   5.553
 8392POPC   PO444184  12.092   3.568   5.853
 8392POPC   GL144185  12.117   3.501   6.153
 8392POPC   GL244186  11.944   3.480   6.153
 8392POPC   C1A44187  12.088   3.575   6.453
 8392POPC   D2A44188  12.076   3.549   6.753
 8392POPC   C3A44189  12.091   3.533   7.053
 8392POPC   C4A44190  12.081   3.500   7.353
 8392POPC   C1B44191  11.852   3.393   6.453
 8392POPC   C2B44192  11.850   3.424   6.753
 8392POPC   C3B44193  11.812   3.378   7.053
 8392POPC   C4B44194  11.805   3.378   7.353
 8393POPC   NC344195   4.276  36.882   5.553
 8393POPC   PO444196   4.318  36.898   5.853
 8393POPC   GL144197   4.354  36.854   6.153
 8393POPC   GL244198   4.435  36.832   6.153
 8393POPC   C1A44199   4.337  36.885   6.453
 8393POPC   D2A44200   4.275  36.950   6.753
 8393POPC   C3A44201   4.332  36.857   7.053
 8393POPC   C4A44202   4.341  36.882   7.353
 8393POPC   C1B44203   4.536  36.835   6.453
 8393POPC   C2B44204   4.585  36.847   6.753
 8393POPC   C3B44205   4.575  36.778   7.053
 8393POPC   C4B44206   4.566  36.767   7.353
 8394POPC   NC344207  10.526   6.675   5.553
 8394POPC   PO444208  10.490   6.609   5.853
 8394POPC   GL144209  10.563   6.679   6.153
 8394POPC   GL244210  10.584   6.729   6.153
 8394POPC   C1A44211  10.571   6.631   6.453
 8394POPC   D2A44212  10.474   6.638   6.753
 8394POPC   C3A44213  10.478   6.684   7.053
 8394POPC   C4A44214  10.480   6.665   7.353
 8394POPC   C1B44215  10.573   6.868   6.453
 8394POPC   C2B44216  10.635   6.900   6.753
 8394POPC   C3B44217  10.633   6.832   7.053
 8394POPC   C4B44218  10.583   6.867   7.353
 8395POPC   NC344219   2.799   6.618   5.553
 8395POPC   PO444220   2.733   6.630   5.853
 8395POPC   GL144221   2.721   6.659   6.153
 8395POPC   GL244222   2.652   6.772   6.153
 8395POPC   C1A44223   2.749   6.611   6.453
 8395POPC   D2A44224   2.798   6.650   6.753
 8395POPC   C3A44225   2.731   6.687   7.053
 8395POPC   C4A44226   2.781   6.614   7.353
 8395POPC   C1B44227   2.651   6.795   6.453
 8395POPC   C2B44228   2.618   6.834   6.753
 8395POPC   C3B44229   2.582   6.887   7.053
 8395POPC   C4B44230   2.584   6.890   7.353
 8396POPC   NC344231  30.680   5.835   5.553
 8396POPC   PO444232  30.711   5.845   5.853
 8396POPC   GL144233  30.743   5.894   6.153
 8396POPC   GL244234  30.634   6.002   6.153
 8396POPC   C1A44235  30.716   5.863   6.453
 8396POPC   D2A44236  30.668   5.831   6.753
 8396POPC   C3A44237  30.658   5.918   7.053
 8396POPC   C4A44238  30.743   5.898   7.353
 8396POPC   C1B44239  30.594   6.104   6.453
 8396POPC   C2B44240  30.539   6.120   6.753
 8396POPC   C3B44241  30.599   6.057   7.053
 8396POPC   C4B44242  30.598   6.094   7.353
 8397POPC   NC344243  21.360   1.946   5.553
 8397POPC   PO444244  21.354   1.989   5.853
 8397POPC   GL144245  21.429   2.006   6.153
 8397POPC   GL244246  21.514   1.901   6.153
 8397POPC   C1A44247  21.393   1.946   6.453
 8397POPC   D2A44248  21.403   2.000   6.753
 8397POPC   C3A44249  21.416   2.023   7.053
 8397POPC   C4A44250  21.418   1.950   7.353
 8397POPC   C1B44251  21.623   1.902   6.453
 8397POPC   C2B44252  21.639   1.881   6.753
 8397POPC   C3B44253  21.630   1.837   7.053
 8397POPC   C4B44254  21.603   1.811   7.353
 8398POPC   NC344255  41.518  34.593   5.553
 8398POPC   PO444256  41.607  34.621   5.853
 8398POPC   GL144257  41.554  34.559   6.153
 8398POPC   GL244258  41.484  34.446   6.153
 8398POPC   C1A44259  41.545  34.562   6.453
 8398POPC   D2A44260  41.578  34.543   6.753
 8398POPC   C3A44261  41.578  34.527   7.053
 8398POPC   C4A44262  41.518  34.566   7.353
 8398POPC   C1B44263  41.457  34.316   6.453
 8398POPC   C2B44264  41.497  34.386   6.753
 8398POPC   C3B44265  41.509  34.385   7.053
 8398POPC   C4B44266  41.518  34.336   7.353
 8399POPC   NC344267   4.283  24.502   5.553
 8399POPC   PO444268   4.345  24.486   5.853
 8399POPC   GL144269   4.312  24.488   6.153
 8399POPC   GL244270   4.220  24.550   6.153
 8399POPC   C1A44271   4.273  24.464   6.453
 8399POPC   D2A44272   4.335  24.508   6.753
 8399POPC   C3A44273   4.340  24.528   7.053
 8399POPC   C4A44274   4.312  24.461   7.353
 8399POPC   C1B44275   4.047  24.561   6.453
 8399POPC   C2B44276   4.083  24.525   6.753
 8399POPC   C3B44277   4.035  24.514   7.053
 8399POPC   C4B44278   4.082  24.527   7.353
 8400POPC   NC344279  38.468  36.859   5.553
 8400POPC   PO444280  38.455  36.929   5.853
 8400POPC   GL144281  38.441  36.882   6.153
 8400POPC   GL244282  38.361  36.865   6.153
 8400POPC   C1A44283  38.458  36.884   6.453
 8400POPC   D2A44284  38.461  36.922   6.753
 8400POPC   C3A44285  38.495  36.910   7.053
 8400POPC   C4A44286  38.409  36.923   7.353
 8400POPC   C1B44287  38.171  36.835   6.453
 8400POPC   C2B44288  38.236  36.865   6.753
 8400POPC   C3B44289  38.228  36.840   7.053
 8400POPC   C4B44290  38.220  36.832   7.353
 8401POPC   NC344291   9.711  22.899   5.553
 8401POPC   PO444292   9.765  22.909   5.853
 8401POPC   GL144293   9.707  22.889   6.153
 8401POPC   GL244294   9.812  22.836   6.153
 8401POPC   C1A44295   9.737  22.959   6.453
 8401POPC   D2A44296   9.750  22.940   6.753
 8401POPC   C3A44297   9.737  22.902   7.053
 8401POPC   C4A44298   9.764  22.970   7.353
 8401POPC   C1B44299   9.893  22.748   6.453
 8401POPC   C2B44300   9.926  22.762   6.753
 8401POPC   C3B44301   9.913  22.796   7.053
 8401POPC   C4B44302   9.911  22.797   7.353
 8402POPC   NC344303  44.652  15.158   5.553
 8402POPC   PO444304  44.626  15.162   5.853
 8402POPC   GL144305  44.710  15.141   6.153
 8402POPC   GL244306  44.595  15.346   6.153
 8402POPC   C1A44307  44.629  15.167   6.453
 8402POPC   D2A44308  44.635  15.157   6.753
 8402POPC   C3A44309  44.663  15.188   7.053
 8402POPC   C4A44310  44.677  15.154   7.353
 8402POPC   C1B44311  44.633  15.418   6.453
 8402POPC   C2B44312  44.603  15.430   6.753
 8402POPC   C3B44313  44.622  15.462   7.053
 8402POPC   C4B44314  44.578  15.385   7.353
 8403POPC   NC344315  35.383  10.560   5.553
 8403POPC   PO444316  35.336  10.527   5.853
 8403POPC   GL144317  35.377  10.492   6.153
 8403POPC   GL244318  35.436  10.572   6.153
 8403POPC   C1A44319  35.379  10.570   6.453
 8403POPC   D2A44320  35.319  10.509   6.753
 8403POPC   C3A44321  35.364  10.574   7.053
 8403POPC   C4A44322  35.325  10.551   7.353
 8403POPC   C1B44323  35.573  10.503   6.453
 8403POPC   C2B44324  35.624  10.510   6.753
 8403POPC   C3B44325  35.552  10.582   7.053
 8403POPC   C4B44326  35.647  10.538   7.353
 8404POPC   NC344327  26.072  42.322   5.553
 8404POPC   PO444328  26.026  42.384   5.853
 8404POPC   GL144329  25.993  42.379   6.153
 8404POPC   GL244330  26.201  42.265   6.153
 8404POPC   C1A44331  26.003  42.347   6.453
 8404POPC   D2A44332  26.026  42.356   6.753
 8404POPC   C3A44333  26.089  42.334   7.053
 8404POPC   C4A44334  26.049  42.340   7.353
 8404POPC   C1B44335  26.310  42.264   6.453
 8404POPC   C2B44336  26.271  42.260   6.753
 8404POPC   C3B44337  26.225  42.248   7.053
 8404POPC   C4B44338  26.268  42.270   7.353
 8405POPC   NC344339  21.347   9.727   5.553
 8405POPC   PO444340  21.407   9.707   5.853
 8405POPC   GL144341  21.387   9.776   6.153
 8405POPC   GL244342  21.444   9.624   6.153
 8405POPC   C1A44343  21.378   9.794   6.453
 8405POPC   D2A44344  21.422   9.751   6.753
 8405POPC   C3A44345  21.368   9.752   7.053
 8405POPC   C4A44346  21.365   9.746   7.353
 8405POPC   C1B44347  21.546   9.548   6.453
 8405POPC   C2B44348  21.567   9.601   6.753
 8405POPC   C3B44349  21.569   9.561   7.053
 8405POPC   C4B44350  21.558   9.571   7.353
 8406POPC   NC344351  41.594  29.946   5.553
 8406POPC   PO444352  41.513  29.959   5.853
 8406POPC   GL144353  41.546  29.968   6.153
 8406POPC   GL244354  41.485  29.760   6.153
 8406POPC   C1A44355  41.604  29.873   6.453
 8406POPC   D2A44356  41.554  29.914   6.753
 8406POPC   C3A44357  41.586  29.951   7.053
 8406POPC   C4A44358  41.511  29.970   7.353
 8406POPC   C1B44359  41.437  29.669   6.453
 8406POPC   C2B44360  41.467  29.689   6.753
 8406POPC   C3B44361  41.440  29.721   7.053
 8406POPC   C4B44362  41.460  29.650   7.353
 8407POPC   NC344363   5.066  24.490   5.553
 8407POPC   PO444364   5.046  24.531   5.853
 8407POPC   GL144365   5.139  24.537   6.153
 8407POPC   GL244366   5.004  24.548   6.153
 8407POPC   C1A44367   5.068  24.534   6.453
 8407POPC   D2A44368   5.065  24.444   6.753
 8407POPC   C3A44369   5.116  24.459   7.053
 8407POPC   C4A44370   5.051  24.457   7.353
 8407POPC   C1B44371   4.981  24.700   6.453
 8407POPC   C2B44372   4.932  24.713   6.753
 8407POPC   C3B44373   4.925  24.655   7.053
 8407POPC   C4B44374   4.892  24.703   7.353
 8408POPC   NC344375  16.733   5.838   5.553
 8408POPC   PO444376  16.684   5.825   5.853
 8408POPC   GL144377  16.688   5.884   6.153
 8408POPC   GL244378  16.758   5.765   6.153
 8408POPC   C1A44379  16.681   5.903   6.453
 8408POPC   D2A44380  16.769   5.835   6.753
 8408POPC   C3A44381  16.756   5.846   7.053
 8408POPC   C4A44382  16.712   5.878   7.353
 8408POPC   C1B44383  16.783   5.616   6.453
 8408POPC   C2B44384  16.750   5.663   6.753
 8408POPC   C3B44385  16.793   5.642   7.053
 8408POPC   C4B44386  16.825   5.622   7.353
 8409POPC   NC344387  26.019   9.748   5.553
 8409POPC   PO444388  26.014   9.794   5.853
 8409POPC   GL144389  26.000   9.730   6.153
 8409POPC   GL244390  26.063   9.820   6.153
 8409POPC   C1A44391  26.056   9.789   6.453
 8409POPC   D2A44392  25.996   9.729   6.753
 8409POPC   C3A44393  26.054   9.715   7.053
 8409POPC   C4A44394  26.051   9.759   7.353
 8409POPC   C1B44395  26.112   9.957   6.453
 8409POPC   C2B44396  26.117   9.954   6.753
 8409POPC   C3B44397  26.130   9.934   7.053
 8409POPC   C4B44398  26.137   9.990   7.353
 8410POPC   NC344399  18.295  22.903   5.553
 8410POPC   PO444400  18.255  22.977   5.853
 8410POPC   GL144401  18.270  22.950   6.153
 8410POPC   GL244402  18.191  22.928   6.153
 8410POPC   C1A44403  18.306  22.955   6.453
 8410POPC   D2A44404  18.254  22.918   6.753
 8410POPC   C3A44405  18.285  22.919   7.053
 8410POPC   C4A44406  18.261  22.926   7.353
 8410POPC   C1B44407  18.060  22.874   6.453
 8410POPC   C2B44408  18.011  22.840   6.753
 8410POPC   C3B44409  18.019  22.820   7.053
 8410POPC   C4B44410  18.000  22.820   7.353
 8411POPC   NC344411  37.721  34.563   5.553
 8411POPC   PO444412  37.635  34.608   5.853
 8411POPC   GL144413  37.676  34.571   6.153
 8411POPC   GL244414  37.782  34.457   6.153
 8411POPC   C1A44415  37.669  34.610   6.453
 8411POPC   D2A44416  37.661  34.570   6.753
 8411POPC   C3A44417  37.710  34.593   7.053
 8411POPC   C4A44418  37.630  34.621   7.353
 8411POPC   C1B44419  37.820  34.403   6.453
 8411POPC   C2B44420  37.771  34.384   6.753
 8411POPC   C3B44421  37.809  34.390   7.053
 8411POPC   C4B44422  37.868  34.349   7.353
 8412POPC   NC344423   7.380  11.253   5.553
 8412POPC   PO444424   7.439  11.309   5.853
 8412POPC   GL144425   7.460  11.265   6.153
 8412POPC   GL244426   7.443  11.206   6.153
 8412POPC   C1A44427   7.459  11.277   6.453
 8412POPC   D2A44428   7.399  11.272   6.753
 8412POPC   C3A44429   7.444  11.302   7.053
 8412POPC   C4A44430   7.382  11.348   7.353
 8412POPC   C1B44431   7.466  11.046   6.453
 8412POPC   C2B44432   7.430  11.026   6.753
 8412POPC   C3B44433   7.412  11.078   7.053
 8412POPC   C4B44434   7.417  11.021   7.353
 8413POPC   NC344435   7.458  32.272   5.553
 8413POPC   PO444436   7.436  32.216   5.853
 8413POPC   GL144437   7.436  32.227   6.153
 8413POPC   GL244438   7.523  32.268   6.153
 8413POPC   C1A44439   7.410  32.286   6.453
 8413POPC   D2A44440   7.461  32.262   6.753
 8413POPC   C3A44441   7.439  32.282   7.053
 8413POPC   C4A44442   7.389  32.271   7.353
 8413POPC   C1B44443   7.664  32.327   6.453
 8413POPC   C2B44444   7.637  32.252   6.753
 8413POPC   C3B44445   7.706  32.321   7.053
 8413POPC   C4B44446   7.639  32.302   7.353
 8414POPC   NC344447  39.200   4.341   5.553
 8414POPC   PO444448  39.269   4.340   5.853
 8414POPC   GL144449  39.225   4.281   6.153
 8414POPC   GL244450  39.258   4.183   6.153
 8414POPC   C1A44451  39.238   4.353   6.453
 8414POPC   D2A44452  39.185   4.367   6.753
 8414POPC   C3A44453  39.237   4.273   7.053
 8414POPC   C4A44454  39.279   4.358   7.353
 8414POPC   C1B44455  39.320   4.105   6.453
 8414POPC   C2B44456  39.324   4.091   6.753
 8414POPC   C3B44457  39.405   4.105   7.053
 8414POPC   C4B44458  39.317   4.080   7.353
 8415POPC   NC344459  34.535  27.624   5.553
 8415POPC   PO444460  34.554  27.626   5.853
 8415POPC   GL144461  34.610  27.561   6.153
 8415POPC   GL244462  34.481  27.659   6.153
 8415POPC   C1A44463  34.609  27.558   6.453
 8415POPC   D2A44464  34.528  27.592   6.753
 8415POPC   C3A44465  34.586  27.622   7.053
 8415POPC   C4A44466  34.542  27.580   7.353
 8415POPC   C1B44467  34.319  27.725   6.453
 8415POPC   C2B44468  34.314  27.709   6.753
 8415POPC   C3B44469  34.390  27.699   7.053
 8415POPC   C4B44470  34.331  27.634   7.353
 8416POPC   NC344471  44.697   0.475   5.553
 8416POPC   PO444472  44.632   0.437   5.853
 8416POPC   GL144473  44.633   0.476   6.153
 8416POPC   GL244474  44.748   0.453   6.153
 8416POPC   C1A44475  44.705   0.481   6.453
 8416POPC   D2A44476  44.625   0.487   6.753
 8416POPC   C3A44477  44.659   0.397   7.053
 8416POPC   C4A44478  44.615   0.463   7.353
 8416POPC   C1B44479  44.883   0.382   6.453
 8416POPC   C2B44480  44.870   0.425   6.753
 8416POPC   C3B44481  44.927   0.441   7.053
 8416POPC   C4B44482  44.870   0.459   7.353
 8417POPC   NC344483  28.405  23.746   5.553
 8417POPC   PO444484  28.338  23.666   5.853
 8417POPC   GL144485  28.326  23.691   6.153
 8417POPC   GL244486  28.316  23.784   6.153
 8417POPC   C1A44487  28.363  23.727   6.453
 8417POPC   D2A44488  28.362  23.729   6.753
 8417POPC   C3A44489  28.408  23.744   7.053
 8417POPC   C4A44490  28.328  23.681   7.353
 8417POPC   C1B44491  28.159  23.910   6.453
 8417POPC   C2B44492  28.144  23.867   6.753
 8417POPC   C3B44493  28.214  23.873   7.053
 8417POPC   C4B44494  28.210  23.855   7.353
 8418POPC   NC344495  11.304   2.806   5.553
 8418POPC   PO444496  11.294   2.727   5.853
 8418POPC   GL144497  11.266   2.764   6.153
 8418POPC   GL244498  11.346   2.653   6.153
 8418POPC   C1A44499  11.286   2.749   6.453
 8418POPC   D2A44500  11.291   2.776   6.753
 8418POPC   C3A44501  11.306   2.734   7.053
 8418POPC   C4A44502  11.293   2.769   7.353
 8418POPC   C1B44503  11.284   2.547   6.453
 8418POPC   C2B44504  11.305   2.499   6.753
 8418POPC   C3B44505  11.341   2.528   7.053
 8418POPC   C4B44506  11.301   2.515   7.353
 8419POPC   NC344507  25.285  42.375   5.553
 8419POPC   PO444508  25.233  42.328   5.853
 8419POPC   GL144509  25.267  42.377   6.153
 8419POPC   GL244510  25.326  42.377   6.153
 8419POPC   C1A44511  25.221  42.303   6.453
 8419POPC   D2A44512  25.273  42.334   6.753
 8419POPC   C3A44513  25.299  42.289   7.053
 8419POPC   C4A44514  25.307  42.313   7.353
 8419POPC   C1B44515  25.430  42.529   6.453
 8419POPC   C2B44516  25.476  42.491   6.753
 8419POPC   C3B44517  25.445  42.513   7.053
 8419POPC   C4B44518  25.429  42.506   7.353
 8420POPC   NC344519   9.759  18.321   5.553
 8420POPC   PO444520   9.744  18.242   5.853
 8420POPC   GL144521   9.711  18.274   6.153
 8420POPC   GL244522   9.614  18.257   6.153
 8420POPC   C1A44523   9.753  18.312   6.453
 8420POPC   D2A44524   9.759  18.278   6.753
 8420POPC   C3A44525   9.792  18.264   7.053
 8420POPC   C4A44526   9.788  18.299   7.353
 8420POPC   C1B44527   9.474  18.265   6.453
 8420POPC   C2B44528   9.454  18.205   6.753
 8420POPC   C3B44529   9.515  18.217   7.053
 8420POPC   C4B44530   9.517  18.243   7.353
 8421POPC   NC344531  24.481  41.512   5.553
 8421POPC   PO444532  24.500  41.509   5.853
 8421POPC   GL144533  24.452  41.551   6.153
 8421POPC   GL244534  24.586  41.551   6.153
 8421POPC   C1A44535  24.524  41.537   6.453
 8421POPC   D2A44536  24.505  41.525   6.753
 8421POPC   C3A44537  24.497  41.578   7.053
 8421POPC   C4A44538  24.463  41.551   7.353
 8421POPC   C1B44539  24.762  41.467   6.453
 8421POPC   C2B44540  24.751  41.444   6.753
 8421POPC   C3B44541  24.729  41.434   7.053
 8421POPC   C4B44542  24.693  41.476   7.353
 8422POPC   NC344543  42.322  36.937   5.553
 8422POPC   PO444544  42.305  36.861   5.853
 8422POPC   GL144545  42.373  36.911   6.153
 8422POPC   GL244546  42.236  36.793   6.153
 8422POPC   C1A44547  42.306  36.907   6.453
 8422POPC   D2A44548  42.335  36.869   6.753
 8422POPC   C3A44549  42.345  36.912   7.053
 8422POPC   C4A44550  42.306  36.869   7.353
 8422POPC   C1B44551  42.168  36.705   6.453
 8422POPC   C2B44552  42.159  36.750   6.753
 8422POPC   C3B44553  42.108  36.736   7.053
 8422POPC   C4B44554  42.164  36.719   7.353
 8423POPC   NC344555  40.797   4.337   5.553
 8423POPC   PO444556  40.802   4.358   5.853
 8423POPC   GL144557  40.776   4.273   6.153
 8423POPC   GL244558  40.727   4.455   6.153
 8423POPC   C1A44559  40.749   4.366   6.453
 8423POPC   D2A44560  40.751   4.336   6.753
 8423POPC   C3A44561  40.776   4.361   7.053
 8423POPC   C4A44562  40.806   4.319   7.353
 8423POPC   C1B44563  40.718   4.592   6.453
 8423POPC   C2B44564  40.717   4.539   6.753
 8423POPC   C3B44565  40.718   4.544   7.053
 8423POPC   C4B44566  40.664   4.518   7.353
 8424POPC   NC344567  32.201  34.603   5.553
 8424POPC   PO444568  32.252  34.588   5.853
 8424POPC   GL144569  32.270  34.606   6.153
 8424POPC   GL244570  32.167  34.679   6.153
 8424POPC   C1A44571  32.258  34.572   6.453
 8424POPC   D2A44572  32.289  34.566   6.753
 8424POPC   C3A44573  32.264  34.615   7.053
 8424POPC   C4A44574  32.259  34.560   7.353
 8424POPC   C1B44575  32.189  34.837   6.453
 8424POPC   C2B44576  32.115  34.850   6.753
 8424POPC   C3B44577  32.203  34.850   7.053
 8424POPC   C4B44578  32.201  34.835   7.353
 8425POPC   NC344579  40.046   6.634   5.553
 8425POPC   PO444580  39.989   6.603   5.853
 8425POPC   GL144581  40.003   6.600   6.153
 8425POPC   GL244582  40.106   6.612   6.153
 8425POPC   C1A44583  40.041   6.670   6.453
 8425POPC   D2A44584  39.970   6.617   6.753
 8425POPC   C3A44585  39.968   6.647   7.053
 8425POPC   C4A44586  40.000   6.662   7.353
 8425POPC   C1B44587  40.284   6.677   6.453
 8425POPC   C2B44588  40.286   6.662   6.753
 8425POPC   C3B44589  40.211   6.689   7.053
 8425POPC   C4B44590  40.212   6.622   7.353
 8426POPC   NC344591  22.983  12.842   5.553
 8426POPC   PO444592  22.915  12.805   5.853
 8426POPC   GL144593  22.922  12.893   6.153
 8426POPC   GL244594  22.888  13.007   6.153
 8426POPC   C1A44595  22.963  12.827   6.453
 8426POPC   D2A44596  22.962  12.819   6.753
 8426POPC   C3A44597  22.955  12.865   7.053
 8426POPC   C4A44598  22.902  12.898   7.353
 8426POPC   C1B44599  22.845  13.075   6.453
 8426POPC   C2B44600  22.860  13.131   6.753
 8426POPC   C3B44601  22.907  13.118   7.053
 8426POPC   C4B44602  22.831  13.062   7.353
 8427POPC   NC344603  19.844  13.594   5.553
 8427POPC   PO444604  19.863  13.673   5.853
 8427POPC   GL144605  19.859  13.642   6.153
 8427POPC   GL244606  20.002  13.634   6.153
 8427POPC   C1A44607  19.846  13.592   6.453
 8427POPC   D2A44608  19.839  13.665   6.753
 8427POPC   C3A44609  19.861  13.650   7.053
 8427POPC   C4A44610  19.786  13.588   7.353
 8427POPC   C1B44611  20.130  13.603   6.453
 8427POPC   C2B44612  20.043  13.619   6.753
 8427POPC   C3B44613  20.086  13.602   7.053
 8427POPC   C4B44614  20.125  13.632   7.353
 8428POPC   NC344615  29.152   8.986   5.553
 8428POPC   PO444616  29.156   8.971   5.853
 8428POPC   GL144617  29.146   9.018   6.153
 8428POPC   GL244618  29.080   9.046   6.153
 8428POPC   C1A44619  29.170   8.959   6.453
 8428POPC   D2A44620  29.140   8.966   6.753
 8428POPC   C3A44621  29.116   9.019   7.053
 8428POPC   C4A44622  29.136   8.996   7.353
 8428POPC   C1B44623  29.061   9.224   6.453
 8428POPC   C2B44624  29.025   9.257   6.753
 8428POPC   C3B44625  29.032   9.177   7.053
 8428POPC   C4B44626  29.114   9.245   7.353
 8429POPC   NC344627  41.519   0.390   5.553
 8429POPC   PO444628  41.567   0.399   5.853
 8429POPC   GL144629  41.517   0.418   6.153
 8429POPC   GL244630  41.635   0.305   6.153
 8429POPC   C1A44631  41.534   0.487   6.453
 8429POPC   D2A44632  41.576   0.412   6.753
 8429POPC   C3A44633  41.584   0.423   7.053
 8429POPC   C4A44634  41.575   0.486   7.353
 8429POPC   C1B44635  41.670   0.218   6.453
 8429POPC   C2B44636  41.697   0.250   6.753
 8429POPC   C3B44637  41.700   0.230   7.053
 8429POPC   C4B44638  41.690   0.189   7.353
 8430POPC   NC344639  14.415  42.378   5.553
 8430POPC   PO444640  14.382  42.290   5.853
 8430POPC   GL144641  14.438  42.343   6.153
 8430POPC   GL244642  14.244  42.379   6.153
 8430POPC   C1A44643  14.408  42.319   6.453
 8430POPC   D2A44644  14.378  42.324   6.753
 8430POPC   C3A44645  14.396  42.291   7.053
 8430POPC   C4A44646  14.393  42.319   7.353
 8430POPC   C1B44647  14.127  42.343   6.453
 8430POPC   C2B44648  14.163  42.388   6.753
 8430POPC   C3B44649  14.132  42.305   7.053
 8430POPC   C4B44650  14.176  42.330   7.353
 8431POPC   NC344651   5.129  32.287   5.553
 8431POPC   PO444652   5.121  32.262   5.853
 8431POPC   GL144653   5.082  32.298   6.153
 8431POPC   GL244654   5.013  32.277   6.153
 8431POPC   C1A44655   5.093  32.279   6.453
 8431POPC   D2A44656   5.108  32.232   6.753
 8431POPC   C3A44657   5.069  32.265   7.053
 8431POPC   C4A44658   5.121  32.250   7.353
 8431POPC   C1B44659   4.802  32.315   6.453
 8431POPC   C2B44660   4.864  32.296   6.753
 8431POPC   C3B44661   4.890  32.319   7.053
 8431POPC   C4B44662   4.853  32.336   7.353
 8432POPC   NC344663  32.286   5.099   5.553
 8432POPC   PO444664  32.252   5.102   5.853
 8432POPC   GL144665  32.273   5.063   6.153
 8432POPC   GL244666  32.268   4.961   6.153
 8432POPC   C1A44667  32.276   5.052   6.453
 8432POPC   D2A44668  32.266   5.064   6.753
 8432POPC   C3A44669  32.218   5.070   7.053
 8432POPC   C4A44670  32.200   5.108   7.353
 8432POPC   C1B44671  32.194   4.858   6.453
 8432POPC   C2B44672  32.168   4.843   6.753
 8432POPC   C3B44673  32.161   4.822   7.053
 8432POPC   C4B44674  32.201   4.827   7.353
 8433POPC   NC344675   9.755  12.889   5.553
 8433POPC   PO444676   9.737  12.857   5.853
 8433POPC   GL144677   9.708  12.835   6.153
 8433POPC   GL244678   9.710  12.725   6.153
 8433POPC   C1A44679   9.725  12.854   6.453
 8433POPC   D2A44680   9.785  12.802   6.753
 8433POPC   C3A44681   9.705  12.826   7.053
 8433POPC   C4A44682   9.702  12.863   7.353
 8433POPC   C1B44683   9.580  12.669   6.453
 8433POPC   C2B44684   9.593  12.610   6.753
 8433POPC   C3B44685   9.638  12.684   7.053
 8433POPC   C4B44686   9.594  12.659   7.353
 8434POPC   NC344687  12.110  22.921   5.553
 8434POPC   PO444688  12.111  22.986   5.853
 8434POPC   GL144689  12.054  22.932   6.153
 8434POPC   GL244690  12.137  23.025   6.153
 8434POPC   C1A44691  12.064  22.933   6.453
 8434POPC   D2A44692  12.109  22.966   6.753
 8434POPC   C3A44693  12.096  22.932   7.053
 8434POPC   C4A44694  12.045  22.922   7.353
 8434POPC   C1B44695  12.205  23.161   6.453
 8434POPC   C2B44696  12.264  23.123   6.753
 8434POPC   C3B44697  12.200  23.087   7.053
 8434POPC   C4B44698  12.257  23.147   7.353
 8435POPC   NC344699   2.747  40.048   5.553
 8435POPC   PO444700   2.776  40.049   5.853
 8435POPC   GL144701   2.716  40.039   6.153
 8435POPC   GL244702   2.850  40.076   6.153
 8435POPC   C1A44703   2.800  40.029   6.453
 8435POPC   D2A44704   2.778  39.960   6.753
 8435POPC   C3A44705   2.738  40.023   7.053
 8435POPC   C4A44706   2.740  39.974   7.353
 8435POPC   C1B44707   2.814  40.212   6.453
 8435POPC   C2B44708   2.847  40.284   6.753
 8435POPC   C3B44709   2.872  40.247   7.053
 8435POPC   C4B44710   2.883  40.192   7.353
 8436POPC   NC344711   9.765  37.678   5.553
 8436POPC   PO444712   9.734  37.696   5.853
 8436POPC   GL144713   9.770  37.725   6.153
 8436POPC   GL244714   9.663  37.665   6.153
 8436POPC   C1A44715   9.775  37.717   6.453
 8436POPC   D2A44716   9.784  37.669   6.753
 8436POPC   C3A44717   9.700  37.646   7.053
 8436POPC   C4A44718   9.700  37.719   7.353
 8436POPC   C1B44719   9.478  37.628   6.453
 8436POPC   C2B44720   9.513  37.680   6.753
 8436POPC   C3B44721   9.515  37.652   7.053
 8436POPC   C4B44722   9.509  37.654   7.353
 8437POPC   NC344723  17.471  25.285   5.553
 8437POPC   PO444724  17.498  25.299   5.853
 8437POPC   GL144725  17.545  25.283   6.153
 8437POPC   GL244726  17.441  25.356   6.153
 8437POPC   C1A44727  17.529  25.242   6.453
 8437POPC   D2A44728  17.553  25.298   6.753
 8437POPC   C3A44729  17.504  25.258   7.053
 8437POPC   C4A44730  17.502  25.226   7.353
 8437POPC   C1B44731  17.399  25.547   6.453
 8437POPC   C2B44732  17.462  25.535   6.753
 8437POPC   C3B44733  17.440  25.472   7.053
 8437POPC   C4B44734  17.381  25.455   7.353
 8438POPC   NC344735  36.165  30.729   5.553
 8438POPC   PO444736  36.162  30.721   5.853
 8438POPC   GL144737  36.101  30.671   6.153
 8438POPC   GL244738  36.210  30.735   6.153
 8438POPC   C1A44739  36.101  30.681   6.453
 8438POPC   D2A44740  36.173  30.734   6.753
 8438POPC   C3A44741  36.146  30.655   7.053
 8438POPC   C4A44742  36.173  30.654   7.353
 8438POPC   C1B44743  36.384  30.765   6.453
 8438POPC   C2B44744  36.347  30.821   6.753
 8438POPC   C3B44745  36.348  30.834   7.053
 8438POPC   C4B44746  36.355  30.833   7.353
 8439POPC   NC344747  35.321  44.695   5.553
 8439POPC   PO444748  35.329  44.693   5.853
 8439POPC   GL144749  35.402  44.616   6.153
 8439POPC   GL244750  35.347  44.538   6.153
 8439POPC   C1A44751  35.331  44.712   6.453
 8439POPC   D2A44752  35.307  44.628   6.753
 8439POPC   C3A44753  35.311  44.678   7.053
 8439POPC   C4A44754  35.374  44.671   7.353
 8439POPC   C1B44755  35.419  44.417   6.453
 8439POPC   C2B44756  35.432  44.451   6.753
 8439POPC   C3B44757  35.446  44.444   7.053
 8439POPC   C4B44758  35.371  44.414   7.353
 8440POPC   NC344759  23.699  18.252   5.553
 8440POPC   PO444760  23.691  18.268   5.853
 8440POPC   GL144761  23.707  18.274   6.153
 8440POPC   GL244762  23.608  18.193   6.153
 8440POPC   C1A44763  23.718  18.304   6.453
 8440POPC   D2A44764  23.727  18.332   6.753
 8440POPC   C3A44765  23.685  18.326   7.053
 8440POPC   C4A44766  23.698  18.314   7.353
 8440POPC   C1B44767  23.451  18.168   6.453
 8440POPC   C2B44768  23.518  18.205   6.753
 8440POPC   C3B44769  23.524  18.179   7.053
 8440POPC   C4B44770  23.460  18.161   7.353
 8441POPC   NC344771  17.508  30.746   5.553
 8441POPC   PO444772  17.460  30.713   5.853
 8441POPC   GL144773  17.467  30.726   6.153
 8441POPC   GL244774  17.403  30.747   6.153
 8441POPC   C1A44775  17.459  30.730   6.453
 8441POPC   D2A44776  17.498  30.731   6.753
 8441POPC   C3A44777  17.469  30.708   7.053
 8441POPC   C4A44778  17.515  30.653   7.353
 8441POPC   C1B44779  17.331  30.897   6.453
 8441POPC   C2B44780  17.332  30.871   6.753
 8441POPC   C3B44781  17.378  30.848   7.053
 8441POPC   C4B44782  17.336  30.908   7.353
 8442POPC   NC344783  29.120  42.349   5.553
 8442POPC   PO444784  29.126  42.349   5.853
 8442POPC   GL144785  29.132  42.338   6.153
 8442POPC   GL244786  29.205  42.266   6.153
 8442POPC   C1A44787  29.143  42.378   6.453
 8442POPC   D2A44788  29.113  42.285   6.753
 8442POPC   C3A44789  29.140  42.321   7.053
 8442POPC   C4A44790  29.134  42.301   7.353
 8442POPC   C1B44791  29.331  42.170   6.453
 8442POPC   C2B44792  29.331  42.171   6.753
 8442POPC   C3B44793  29.344  42.105   7.053
 8442POPC   C4B44794  29.350  42.122   7.353
 8443POPC   NC344795  30.680  38.455   5.553
 8443POPC   PO444796  30.706  38.415   5.853
 8443POPC   GL144797  30.683  38.460   6.153
 8443POPC   GL244798  30.642  38.484   6.153
 8443POPC   C1A44799  30.667  38.414   6.453
 8443POPC   D2A44800  30.673  38.440   6.753
 8443POPC   C3A44801  30.737  38.460   7.053
 8443POPC   C4A44802  30.669  38.420   7.353
 8443POPC   C1B44803  30.515  38.571   6.453
 8443POPC   C2B44804  30.509  38.585   6.753
 8443POPC   C3B44805  30.537  38.543   7.053
 8443POPC   C4B44806  30.475  38.556   7.353
 8444POPC   NC344807  12.840  44.683   5.553
 8444POPC   PO444808  12.815  44.672   5.853
 8444POPC   GL144809  12.846  44.627   6.153
 8444POPC   GL244810  12.817  44.824   6.153
 8444POPC   C1A44811  12.830  44.638   6.453
 8444POPC   D2A44812  12.874  44.707   6.753
 8444POPC   C3A44813  12.893  44.624   7.053
 8444POPC   C4A44814  12.859  44.696   7.353
 8444POPC   C1B44815  12.763  44.940   6.453
 8444POPC   C2B44816  12.814  44.863   6.753
 8444POPC   C3B44817  12.772  44.877   7.053
 8444POPC   C4B44818  12.795  44.892   7.353
 8445POPC   NC344819  23.739  42.349   5.553
 8445POPC   PO444820  23.746  42.312   5.853
 8445POPC   GL144821  23.672  42.368   6.153
 8445POPC   GL244822  23.630  42.208   6.153
 8445POPC   C1A44823  23.740  42.366   6.453
 8445POPC   D2A44824  23.762  42.365   6.753
 8445POPC   C3A44825  23.735  42.358   7.053
 8445POPC   C4A44826  23.703  42.318   7.353
 8445POPC   C1B44827  23.531  42.101   6.453
 8445POPC   C2B44828  23.542  42.137   6.753
 8445POPC   C3B44829  23.528  42.127   7.053
 8445POPC   C4B44830  23.557  42.122   7.353
 8446POPC   NC344831  39.202  18.236   5.553
 8446POPC   PO444832  39.232  18.246   5.853
 8446POPC   GL144833  39.200  18.246   6.153
 8446POPC   GL244834  39.392  18.235   6.153
 8446POPC   C1A44835  39.186  18.271   6.453
 8446POPC   D2A44836  39.182  18.238   6.753
 8446POPC   C3A44837  39.234  18.306   7.053
 8446POPC   C4A44838  39.196  18.237   7.353
 8446POPC   C1B44839  39.497  18.233   6.453
 8446POPC   C2B44840  39.448  18.190   6.753
 8446POPC   C3B44841  39.462  18.235   7.053
 8446POPC   C4B44842  39.460  18.237   7.353
 8447POPC   NC344843  16.753   7.380   5.553
 8447POPC   PO444844  16.687   7.448   5.853
 8447POPC   GL144845  16.766   7.445   6.153
 8447POPC   GL244846  16.795   7.308   6.153
 8447POPC   C1A44847  16.733   7.467   6.453
 8447POPC   D2A44848  16.758   7.464   6.753
 8447POPC   C3A44849  16.780   7.433   7.053
 8447POPC   C4A44850  16.759   7.418   7.353
 8447POPC   C1B44851  16.803   7.200   6.453
 8447POPC   C2B44852  16.765   7.187   6.753
 8447POPC   C3B44853  16.770   7.194   7.053
 8447POPC   C4B44854  16.828   7.205   7.353
 8448POPC   NC344855  20.659   8.985   5.553
 8448POPC   PO444856  20.604   8.948   5.853
 8448POPC   GL144857  20.566   8.989   6.153
 8448POPC   GL244858  20.515   8.889   6.153
 8448POPC   C1A44859  20.617   8.961   6.453
 8448POPC   D2A44860  20.623   9.019   6.753
 8448POPC   C3A44861  20.657   9.006   7.053
 8448POPC   C4A44862  20.650   8.932   7.353
 8448POPC   C1B44863  20.420   8.823   6.453
 8448POPC   C2B44864  20.381   8.846   6.753
 8448POPC   C3B44865  20.403   8.851   7.053
 8448POPC   C4B44866  20.434   8.797   7.353
 8449POPC   NC344867   0.407   8.974   5.553
 8449POPC   PO444868   0.418   8.959   5.853
 8449POPC   GL144869   0.458   8.964   6.153
 8449POPC   GL244870   0.552   9.039   6.153
 8449POPC   C1A44871   0.413   8.987   6.453
 8449POPC   D2A44872   0.414   8.964   6.753
 8449POPC   C3A44873   0.482   8.979   7.053
 8449POPC   C4A44874   0.462   9.005   7.353
 8449POPC   C1B44875   0.620   9.093   6.453
 8449POPC   C2B44876   0.658   9.040   6.753
 8449POPC   C3B44877   0.657   9.043   7.053
 8449POPC   C4B44878   0.702   9.110   7.353
 8450POPC   NC344879  39.976  19.803   5.553
 8450POPC   PO444880  40.019  19.786   5.853
 8450POPC   GL144881  40.005  19.845   6.153
 8450POPC   GL244882  40.003  19.965   6.153
 8450POPC   C1A44883  39.996  19.795   6.453
 8450POPC   D2A44884  40.013  19.790   6.753
 8450POPC   C3A44885  39.979  19.816   7.053
 8450POPC   C4A44886  40.048  19.883   7.353
 8450POPC   C1B44887  40.006  20.079   6.453
 8450POPC   C2B44888  40.035  20.130   6.753
 8450POPC   C3B44889  40.083  20.056   7.053
 8450POPC   C4B44890  40.078  20.130   7.353
 8451POPC   NC344891  16.720  22.977   5.553
 8451POPC   PO444892  16.691  22.987   5.853
 8451POPC   GL144893  16.701  22.933   6.153
 8451POPC   GL244894  16.839  22.845   6.153
 8451POPC   C1A44895  16.759  22.915   6.453
 8451POPC   D2A44896  16.764  22.904   6.753
 8451POPC   C3A44897  16.709  22.942   7.053
 8451POPC   C4A44898  16.772  22.895   7.353
 8451POPC   C1B44899  16.970  22.787   6.453
 8451POPC   C2B44900  16.969  22.756   6.753
 8451POPC   C3B44901  16.914  22.776   7.053
 8451POPC   C4B44902  16.909  22.814   7.353
 8452POPC   NC344903   1.181  43.867   5.553
 8452POPC   PO444904   1.256  43.926   5.853
 8452POPC   GL144905   1.253  43.918   6.153
 8452POPC   GL244906   1.264  43.788   6.153
 8452POPC   C1A44907   1.180  43.863   6.453
 8452POPC   D2A44908   1.180  43.890   6.753
 8452POPC   C3A44909   1.219  43.916   7.053
 8452POPC   C4A44910   1.254  43.899   7.353
 8452POPC   C1B44911   1.351  43.698   6.453
 8452POPC   C2B44912   1.317  43.640   6.753
 8452POPC   C3B44913   1.343  43.669   7.053
 8452POPC   C4B44914   1.357  43.684   7.353
 8453POPC   NC344915  34.561  19.876   5.553
 8453POPC   PO444916  34.581  19.864   5.853
 8453POPC   GL144917  34.544  19.870   6.153
 8453POPC   GL244918  34.460  19.832   6.153
 8453POPC   C1A44919  34.535  19.823   6.453
 8453POPC   D2A44920  34.600  19.809   6.753
 8453POPC   C3A44921  34.594  19.800   7.053
 8453POPC   C4A44922  34.529  19.837   7.353
 8453POPC   C1B44923  34.377  19.926   6.453
 8453POPC   C2B44924  34.341  19.853   6.753
 8453POPC   C3B44925  34.364  19.849   7.053
 8453POPC   C4B44926  34.328  19.867   7.353
 8454POPC   NC344927  12.039  22.146   5.553
 8454POPC   PO444928  12.088  22.169   5.853
 8454POPC   GL144929  12.083  22.148   6.153
 8454POPC   GL244930  12.187  22.084   6.153
 8454POPC   C1A44931  12.070  22.179   6.453
 8454POPC   D2A44932  12.092  22.198   6.753
 8454POPC   C3A44933  12.063  22.186   7.053
 8454POPC   C4A44934  12.057  22.194   7.353
 8454POPC   C1B44935  12.297  22.014   6.453
 8454POPC   C2B44936  12.259  21.990   6.753
 8454POPC   C3B44937  12.311  21.983   7.053
 8454POPC   C4B44938  12.321  22.015   7.353
 8455POPC   NC344939  26.083  15.930   5.553
 8455POPC   PO444940  26.053  15.909   5.853
 8455POPC   GL144941  26.020  15.929   6.153
 8455POPC   GL244942  26.047  15.860   6.153
 8455POPC   C1A44943  26.034  15.935   6.453
 8455POPC   D2A44944  26.076  15.945   6.753
 8455POPC   C3A44945  26.041  15.976   7.053
 8455POPC   C4A44946  26.067  15.946   7.353
 8455POPC   C1B44947  25.953  15.700   6.453
 8455POPC   C2B44948  26.007  15.723   6.753
 8455POPC   C3B44949  26.043  15.756   7.053
 8455POPC   C4B44950  25.981  15.676   7.353
 8456POPC   NC344951  33.821  43.105   5.553
 8456POPC   PO444952  33.828  43.063   5.853
 8456POPC   GL144953  33.817  43.140   6.153
 8456POPC   GL244954  33.924  43.098   6.153
 8456POPC   C1A44955  33.842  43.106   6.453
 8456POPC   D2A44956  33.773  43.143   6.753
 8456POPC   C3A44957  33.812  43.068   7.053
 8456POPC   C4A44958  33.831  43.081   7.353
 8456POPC   C1B44959  34.034  43.150   6.453
 8456POPC   C2B44960  34.061  43.217   6.753
 8456POPC   C3B44961  34.003  43.151   7.053
 8456POPC   C4B44962  34.028  43.136   7.353
 8457POPC   NC344963   3.501  32.985   5.553
 8457POPC   PO444964   3.563  32.997   5.853
 8457POPC   GL144965   3.517  33.000   6.153
 8457POPC   GL244966   3.544  33.153   6.153
 8457POPC   C1A44967   3.541  33.043   6.453
 8457POPC   D2A44968   3.559  33.061   6.753
 8457POPC   C3A44969   3.558  33.004   7.053
 8457POPC   C4A44970   3.559  33.055   7.353
 8457POPC   C1B44971   3.693  33.223   6.453
 8457POPC   C2B44972   3.615  33.253   6.753
 8457POPC   C3B44973   3.686  33.213   7.053
 8457POPC   C4B44974   3.668  33.213   7.353
 8458POPC   NC344975  22.981  12.063   5.553
 8458POPC   PO444976  22.946  12.103   5.853
 8458POPC   GL144977  22.896  12.066   6.153
 8458POPC   GL244978  22.819  12.156   6.153
 8458POPC   C1A44979  22.980  12.052   6.453
 8458POPC   D2A44980  22.978  12.092   6.753
 8458POPC   C3A44981  22.978  12.090   7.053
 8458POPC   C4A44982  22.907  12.117   7.353
 8458POPC   C1B44983  22.754  12.139   6.453
 8458POPC   C2B44984  22.666  12.194   6.753
 8458POPC   C3B44985  22.727  12.123   7.053
 8458POPC   C4B44986  22.746  12.199   7.353
 8459POPC   NC344987  19.788  22.972   5.553
 8459POPC   PO444988  19.825  22.963   5.853
 8459POPC   GL144989  19.829  22.984   6.153
 8459POPC   GL244990  19.811  22.845   6.153
 8459POPC   C1A44991  19.871  22.913   6.453
 8459POPC   D2A44992  19.785  22.972   6.753
 8459POPC   C3A44993  19.803  22.926   7.053
 8459POPC   C4A44994  19.837  22.901   7.353
 8459POPC   C1B44995  19.798  22.651   6.453
 8459POPC   C2B44996  19.851  22.658   6.753
 8459POPC   C3B44997  19.802  22.709   7.053
 8459POPC   C4B44998  19.801  22.720   7.353
 8460POPC   NC344999  18.275   7.448   5.553
 8460POPC   PO445000  18.245   7.395   5.853
 8460POPC   GL145001  18.256   7.433   6.153
 8460POPC   GL245002  18.226   7.378   6.153
 8460POPC   C1A45003  18.314   7.465   6.453
 8460POPC   D2A45004  18.257   7.417   6.753
 8460POPC   C3A45005  18.330   7.468   7.053
 8460POPC   C4A45006  18.259   7.398   7.353
 8460POPC   C1B45007  18.058   7.254   6.453
 8460POPC   C2B45008  18.130   7.255   6.753
 8460POPC   C3B45009  18.045   7.250   7.053
 8460POPC   C4B45010  18.067   7.285   7.353
 8461POPC   NC345011  41.541  11.312   5.553
 8461POPC   PO445012  41.586  11.297   5.853
 8461POPC   GL145013  41.524  11.277   6.153
 8461POPC   GL245014  41.597  11.457   6.153
 8461POPC   C1A45015  41.558  11.280   6.453
 8461POPC   D2A45016  41.525  11.297   6.753
 8461POPC   C3A45017  41.603  11.287   7.053
 8461POPC   C4A45018  41.572  11.278   7.353
 8461POPC   C1B45019  41.596  11.536   6.453
 8461POPC   C2B45020  41.528  11.558   6.753
 8461POPC   C3B45021  41.530  11.501   7.053
 8461POPC   C4B45022  41.554  11.547   7.353
 8462POPC   NC345023  22.907   9.789   5.553
 8462POPC   PO445024  22.931   9.718   5.853
 8462POPC   GL145025  22.902   9.717   6.153
 8462POPC   GL245026  22.839   9.716   6.153
 8462POPC   C1A45027  22.945   9.712   6.453
 8462POPC   D2A45028  22.916   9.730   6.753
 8462POPC   C3A45029  22.967   9.744   7.053
 8462POPC   C4A45030  22.945   9.788   7.353
 8462POPC   C1B45031  22.743   9.617   6.453
 8462POPC   C2B45032  22.777   9.606   6.753
 8462POPC   C3B45033  22.722   9.604   7.053
 8462POPC   C4B45034  22.762   9.608   7.353
 8463POPC   NC345035  40.762   5.908   5.553
 8463POPC   PO445036  40.772   5.895   5.853
 8463POPC   GL145037  40.820   5.911   6.153
 8463POPC   GL245038  40.882   5.764   6.153
 8463POPC   C1A45039  40.805   5.855   6.453
 8463POPC   D2A45040  40.811   5.904   6.753
 8463POPC   C3A45041  40.797   5.866   7.053
 8463POPC   C4A45042  40.830   5.909   7.353
 8463POPC   C1B45043  40.904   5.641   6.453
 8463POPC   C2B45044  40.984   5.677   6.753
 8463POPC   C3B45045  40.966   5.641   7.053
 8463POPC   C4B45046  40.938   5.705   7.353
 8464POPC   NC345047  11.299  36.935   5.553
 8464POPC   PO445048  11.312  36.946   5.853
 8464POPC   GL145049  11.259  36.920   6.153
 8464POPC   GL245050  11.180  36.914   6.153
 8464POPC   C1A45051  11.331  36.947   6.453
 8464POPC   D2A45052  11.299  36.888   6.753
 8464POPC   C3A45053  11.253  36.890   7.053
 8464POPC   C4A45054  11.259  36.950   7.353
 8464POPC   C1B45055  11.022  36.876   6.453
 8464POPC   C2B45056  11.058  36.802   6.753
 8464POPC   C3B45057  11.069  36.798   7.053
 8464POPC   C4B45058  11.093  36.853   7.353
 8465POPC   NC345059  11.313  19.818   5.553
 8465POPC   PO445060  11.344  19.785   5.853
 8465POPC   GL145061  11.335  19.790   6.153
 8465POPC   GL245062  11.207  19.866   6.153
 8465POPC   C1A45063  11.289  19.821   6.453
 8465POPC   D2A45064  11.259  19.865   6.753
 8465POPC   C3A45065  11.283  19.818   7.053
 8465POPC   C4A45066  11.283  19.823   7.353
 8465POPC   C1B45067  11.021  19.806   6.453
 8465POPC   C2B45068  11.039  19.771   6.753
 8465POPC   C3B45069  11.016  19.803   7.053
 8465POPC   C4B45070  11.003  19.826   7.353
 8466POPC   NC345071  38.448  34.599   5.553
 8466POPC   PO445072  38.468  34.590   5.853
 8466POPC   GL145073  38.438  34.589   6.153
 8466POPC   GL245074  38.316  34.575   6.153
 8466POPC   C1A45075  38.454  34.586   6.453
 8466POPC   D2A45076  38.444  34.574   6.753
 8466POPC   C3A45077  38.473  34.572   7.053
 8466POPC   C4A45078  38.481  34.608   7.353
 8466POPC   C1B45079  38.193  34.603   6.453
 8466POPC   C2B45080  38.251  34.628   6.753
 8466POPC   C3B45081  38.164  34.614   7.053
 8466POPC   C4B45082  38.197  34.574   7.353
 8467POPC   NC345083   8.212  37.677   5.553
 8467POPC   PO445084   8.227  37.709   5.853
 8467POPC   GL145085   8.165  37.675   6.153
 8467POPC   GL245086   8.226  37.817   6.153
 8467POPC   C1A45087   8.176  37.682   6.453
 8467POPC   D2A45088   8.168  37.685   6.753
 8467POPC   C3A45089   8.178  37.632   7.053
 8467POPC   C4A45090   8.223  37.713   7.353
 8467POPC   C1B45091   8.296  37.905   6.453
 8467POPC   C2B45092   8.308  37.888   6.753
 8467POPC   C3B45093   8.348  37.896   7.053
 8467POPC   C4B45094   8.327  37.894   7.353
 8468POPC   NC345095  22.207  26.056   5.553
 8468POPC   PO445096  22.134  26.024   5.853
 8468POPC   GL145097  22.143  26.059   6.153
 8468POPC   GL245098  22.085  26.192   6.153
 8468POPC   C1A45099  22.140  26.012   6.453
 8468POPC   D2A45100  22.191  26.016   6.753
 8468POPC   C3A45101  22.180  26.064   7.053
 8468POPC   C4A45102  22.130  26.066   7.353
 8468POPC   C1B45103  22.039  26.289   6.453
 8468POPC   C2B45104  22.069  26.311   6.753
 8468POPC   C3B45105  22.118  26.298   7.053
 8468POPC   C4B45106  22.128  26.323   7.353
 8469POPC   NC345107  37.669   1.211   5.553
 8469POPC   PO445108  37.660   1.218   5.853
 8469POPC   GL145109  37.696   1.175   6.153
 8469POPC   GL245110  37.548   1.282   6.153
 8469POPC   C1A45111  37.722   1.184   6.453
 8469POPC   D2A45112  37.700   1.178   6.753
 8469POPC   C3A45113  37.720   1.247   7.053
 8469POPC   C4A45114  37.686   1.242   7.353
 8469POPC   C1B45115  37.431   1.241   6.453
 8469POPC   C2B45116  37.441   1.294   6.753
 8469POPC   C3B45117  37.410   1.226   7.053
 8469POPC   C4B45118  37.469   1.219   7.353
 8470POPC   NC345119  19.871   8.205   5.553
 8470POPC   PO445120  19.789   8.160   5.853
 8470POPC   GL145121  19.810   8.170   6.153
 8470POPC   GL245122  19.732   8.207   6.153
 8470POPC   C1A45123  19.789   8.191   6.453
 8470POPC   D2A45124  19.799   8.207   6.753
 8470POPC   C3A45125  19.822   8.193   7.053
 8470POPC   C4A45126  19.828   8.239   7.353
 8470POPC   C1B45127  19.598   8.231   6.453
 8470POPC   C2B45128  19.611   8.230   6.753
 8470POPC   C3B45129  19.588   8.253   7.053
 8470POPC   C4B45130  19.584   8.282   7.353
 8471POPC   NC345131   2.781  43.113   5.553
 8471POPC   PO445132   2.757  43.153   5.853
 8471POPC   GL145133   2.772  43.083   6.153
 8471POPC   GL245134   2.741  43.236   6.153
 8471POPC   C1A45135   2.746  43.146   6.453
 8471POPC   D2A45136   2.794  43.126   6.753
 8471POPC   C3A45137   2.779  43.135   7.053
 8471POPC   C4A45138   2.810  43.116   7.353
 8471POPC   C1B45139   2.705  43.397   6.453
 8471POPC   C2B45140   2.723  43.403   6.753
 8471POPC   C3B45141   2.698  43.360   7.053
 8471POPC   C4B45142   2.746  43.310   7.353
 8472POPC   NC345143  24.525  16.758   5.553
 8472POPC   PO445144  24.450  16.713   5.853
 8472POPC   GL145145  24.452  16.682   6.153
 8472POPC   GL245146  24.542  16.623   6.153
 8472POPC   C1A45147  24.538  16.695   6.453
 8472POPC   D2A45148  24.474  16.704   6.753
 8472POPC   C3A45149  24.518  16.730   7.053
 8472POPC   C4A45150  24.443  16.719   7.353
 8472POPC   C1B45151  24.555  16.498   6.453
 8472POPC   C2B45152  24.577  16.475   6.753
 8472POPC   C3B45153  24.562  16.512   7.053
 8472POPC   C4B45154  24.526  16.446   7.353
 8473POPC   NC345155   5.913  28.330   5.553
 8473POPC   PO445156   5.830  28.351   5.853
 8473POPC   GL145157   5.836  28.352   6.153
 8473POPC   GL245158   5.775  28.399   6.153
 8473POPC   C1A45159   5.909  28.392   6.453
 8473POPC   D2A45160   5.891  28.336   6.753
 8473POPC   C3A45161   5.866  28.343   7.053
 8473POPC   C4A45162   5.907  28.376   7.353
 8473POPC   C1B45163   5.595  28.382   6.453
 8473POPC   C2B45164   5.616  28.409   6.753
 8473POPC   C3B45165   5.614  28.434   7.053
 8473POPC   C4B45166   5.638  28.353   7.353
 8474POPC   NC345167  26.812  37.637   5.553
 8474POPC   PO445168  26.768  37.654   5.853
 8474POPC   GL145169  26.839  37.718   6.153
 8474POPC   GL245170  26.849  37.563   6.153
 8474POPC   C1A45171  26.838  37.707   6.453
 8474POPC   D2A45172  26.828  37.706   6.753
 8474POPC   C3A45173  26.836  37.630   7.053
 8474POPC   C4A45174  26.799  37.697   7.353
 8474POPC   C1B45175  26.864  37.449   6.453
 8474POPC   C2B45176  26.858  37.414   6.753
 8474POPC   C3B45177  26.892  37.405   7.053
 8474POPC   C4B45178  26.912  37.459   7.353
 8475POPC   NC345179  40.034  15.162   5.553
 8475POPC   PO445180  39.996  15.181   5.853
 8475POPC   GL145181  40.025  15.193   6.153
 8475POPC   GL245182  39.970  15.047   6.153
 8475POPC   C1A45183  39.982  15.202   6.453
 8475POPC   D2A45184  40.023  15.171   6.753
 8475POPC   C3A45185  39.981  15.167   7.053
 8475POPC   C4A45186  39.971  15.188   7.353
 8475POPC   C1B45187  39.996  14.950   6.453
 8475POPC   C2B45188  40.014  14.884   6.753
 8475POPC   C3B45189  39.957  14.914   7.053
 8475POPC   C4B45190  39.957  14.893   7.353
 8476POPC   NC345191  39.999  22.955   5.553
 8476POPC   PO445192  40.026  22.962   5.853
 8476POPC   GL145193  39.989  22.918   6.153
 8476POPC   GL245194  40.113  22.883   6.153
 8476POPC   C1A45195  39.989  22.926   6.453
 8476POPC   D2A45196  40.020  22.952   6.753
 8476POPC   C3A45197  39.969  22.931   7.053
 8476POPC   C4A45198  39.965  22.974   7.353
 8476POPC   C1B45199  40.170  22.723   6.453
 8476POPC   C2B45200  40.125  22.715   6.753
 8476POPC   C3B45201  40.221  22.761   7.053
 8476POPC   C4B45202  40.215  22.742   7.353
 8477POPC   NC345203  34.585  19.088   5.553
 8477POPC   PO445204  34.590  19.065   5.853
 8477POPC   GL145205  34.625  19.099   6.153
 8477POPC   GL245206  34.496  19.151   6.153
 8477POPC   C1A45207  34.534  19.087   6.453
 8477POPC   D2A45208  34.558  19.071   6.753
 8477POPC   C3A45209  34.533  19.083   7.053
 8477POPC   C4A45210  34.581  19.094   7.353
 8477POPC   C1B45211  34.415  19.181   6.453
 8477POPC   C2B45212  34.371  19.201   6.753
 8477POPC   C3B45213  34.413  19.264   7.053
 8477POPC   C4B45214  34.365  19.179   7.353
 8478POPC   NC345215  43.074  20.655   5.553
 8478POPC   PO445216  43.111  20.652   5.853
 8478POPC   GL145217  43.125  20.630   6.153
 8478POPC   GL245218  43.140  20.779   6.153
 8478POPC   C1A45219  43.090  20.569   6.453
 8478POPC   D2A45220  43.146  20.597   6.753
 8478POPC   C3A45221  43.092  20.561   7.053
 8478POPC   C4A45222  43.087  20.641   7.353
 8478POPC   C1B45223  43.173  20.865   6.453
 8478POPC   C2B45224  43.188  20.897   6.753
 8478POPC   C3B45225  43.134  20.840   7.053
 8478POPC   C4B45226  43.111  20.837   7.353
 8479POPC   NC345227  31.477  26.070   5.553
 8479POPC   PO445228  31.514  26.001   5.853
 8479POPC   GL145229  31.443  26.009   6.153
 8479POPC   GL245230  31.375  25.935   6.153
 8479POPC   C1A45231  31.460  26.045   6.453
 8479POPC   D2A45232  31.486  25.996   6.753
 8479POPC   C3A45233  31.429  25.993   7.053
 8479POPC   C4A45234  31.510  26.056   7.353
 8479POPC   C1B45235  31.358  25.857   6.453
 8479POPC   C2B45236  31.304  25.858   6.753
 8479POPC   C3B45237  31.289  25.833   7.053
 8479POPC   C4B45238  31.269  25.820   7.353
 8480POPC   NC345239  22.942  21.396   5.553
 8480POPC   PO445240  22.960  21.406   5.853
 8480POPC   GL145241  22.975  21.341   6.153
 8480POPC   GL245242  23.045  21.402   6.153
 8480POPC   C1A45243  22.980  21.436   6.453
 8480POPC   D2A45244  22.937  21.391   6.753
 8480POPC   C3A45245  22.977  21.397   7.053
 8480POPC   C4A45246  22.947  21.429   7.353
 8480POPC   C1B45247  23.199  21.478   6.453
 8480POPC   C2B45248  23.116  21.492   6.753
 8480POPC   C3B45249  23.132  21.542   7.053
 8480POPC   C4B45250  23.133  21.443   7.353
 8481POPC   NC345251  43.067  21.435   5.553
 8481POPC   PO445252  43.075  21.352   5.853
 8481POPC   GL145253  43.083  21.337   6.153
 8481POPC   GL245254  43.162  21.533   6.153
 8481POPC   C1A45255  43.120  21.352   6.453
 8481POPC   D2A45256  43.066  21.359   6.753
 8481POPC   C3A45257  43.109  21.426   7.053
 8481POPC   C4A45258  43.093  21.367   7.353
 8481POPC   C1B45259  43.197  21.566   6.453
 8481POPC   C2B45260  43.253  21.654   6.753
 8481POPC   C3B45261  43.241  21.614   7.053
 8481POPC   C4B45262  43.216  21.614   7.353
 8482POPC   NC345263  40.779  32.995   5.553
 8482POPC   PO445264  40.756  32.999   5.853
 8482POPC   GL145265  40.818  33.033   6.153
 8482POPC   GL245266  40.887  33.031   6.153
 8482POPC   C1A45267  40.761  33.057   6.453
 8482POPC   D2A45268  40.756  33.002   6.753
 8482POPC   C3A45269  40.817  32.999   7.053
 8482POPC   C4A45270  40.741  32.991   7.353
 8482POPC   C1B45271  41.008  33.072   6.453
 8482POPC   C2B45272  40.978  33.105   6.753
 8482POPC   C3B45273  40.965  33.153   7.053
 8482POPC   C4B45274  41.043  33.109   7.353
 8483POPC   NC345275  39.249  36.128   5.553
 8483POPC   PO445276  39.279  36.153   5.853
 8483POPC   GL145277  39.205  36.122   6.153
 8483POPC   GL245278  39.160  36.268   6.153
 8483POPC   C1A45279  39.189  36.149   6.453
 8483POPC   D2A45280  39.267  36.080   6.753
 8483POPC   C3A45281  39.261  36.089   7.053
 8483POPC   C4A45282  39.218  36.131   7.353
 8483POPC   C1B45283  39.071  36.291   6.453
 8483POPC   C2B45284  39.089  36.379   6.753
 8483POPC   C3B45285  39.131  36.353   7.053
 8483POPC   C4B45286  39.122  36.381   7.353
 8484POPC   NC345287  22.920  15.979   5.553
 8484POPC   PO445288  22.897  16.005   5.853
 8484POPC   GL145289  22.917  15.923   6.153
 8484POPC   GL245290  22.941  16.083   6.153
 8484POPC   C1A45291  22.931  15.990   6.453
 8484POPC   D2A45292  22.964  16.002   6.753
 8484POPC   C3A45293  22.966  15.935   7.053
 8484POPC   C4A45294  22.967  15.987   7.353
 8484POPC   C1B45295  23.077  16.164   6.453
 8484POPC   C2B45296  23.057  16.226   6.753
 8484POPC   C3B45297  23.047  16.200   7.053
 8484POPC   C4B45298  23.071  16.221   7.353
 8485POPC   NC345299  23.710   8.964   5.553
 8485POPC   PO445300  23.664   8.975   5.853
 8485POPC   GL145301  23.734   8.925   6.153
 8485POPC   GL245302  23.735   8.843   6.153
 8485POPC   C1A45303  23.760   8.992   6.453
 8485POPC   D2A45304  23.710   8.929   6.753
 8485POPC   C3A45305  23.758   8.987   7.053
 8485POPC   C4A45306  23.714   9.013   7.353
 8485POPC   C1B45307  23.691   8.681   6.453
 8485POPC   C2B45308  23.715   8.677   6.753
 8485POPC   C3B45309  23.715   8.681   7.053
 8485POPC   C4B45310  23.663   8.754   7.353
 8486POPC   NC345311  44.680  31.491   5.553
 8486POPC   PO445312  44.631  31.458   5.853
 8486POPC   GL145313  44.658  31.462   6.153
 8486POPC   GL245314  44.737  31.389   6.153
 8486POPC   C1A45315  44.662  31.445   6.453
 8486POPC   D2A45316  44.637  31.481   6.753
 8486POPC   C3A45317  44.650  31.427   7.053
 8486POPC   C4A45318  44.618  31.476   7.353
 8486POPC   C1B45319  44.781  31.226   6.453
 8486POPC   C2B45320  44.752  31.292   6.753
 8486POPC   C3B45321  44.824  31.243   7.053
 8486POPC   C4B45322  44.838  31.282   7.353
 8487POPC   NC345323  12.064   8.162   5.553
 8487POPC   PO445324  12.083   8.231   5.853
 8487POPC   GL145325  12.071   8.167   6.153
 8487POPC   GL245326  12.136   8.308   6.153
 8487POPC   C1A45327  12.050   8.216   6.453
 8487POPC   D2A45328  12.087   8.232   6.753
 8487POPC   C3A45329  12.089   8.197   7.053
 8487POPC   C4A45330  12.095   8.208   7.353
 8487POPC   C1B45331  12.153   8.442   6.453
 8487POPC   C2B45332  12.212   8.433   6.753
 8487POPC   C3B45333  12.138   8.425   7.053
 8487POPC   C4B45334  12.221   8.394   7.353
 8488POPC   NC345335  11.265  40.026   5.553
 8488POPC   PO445336  11.276  39.987   5.853
 8488POPC   GL145337  11.295  40.015   6.153
 8488POPC   GL245338  11.145  40.009   6.153
 8488POPC   C1A45339  11.326  39.983   6.453
 8488POPC   D2A45340  11.321  39.962   6.753
 8488POPC   C3A45341  11.292  39.985   7.053
 8488POPC   C4A45342  11.262  40.054   7.353
 8488POPC   C1B45343  11.027  39.965   6.453
 8488POPC   C2B45344  11.035  39.962   6.753
 8488POPC   C3B45345  11.034  39.996   7.053
 8488POPC   C4B45346  11.007  39.950   7.353
 8489POPC   NC345347   1.990   8.961   5.553
 8489POPC   PO445348   1.940   8.985   5.853
 8489POPC   GL145349   2.021   9.014   6.153
 8489POPC   GL245350   1.968   9.078   6.153
 8489POPC   C1A45351   1.962   8.990   6.453
 8489POPC   D2A45352   2.026   9.019   6.753
 8489POPC   C3A45353   2.023   9.019   7.053
 8489POPC   C4A45354   1.944   8.967   7.353
 8489POPC   C1B45355   2.037   9.183   6.453
 8489POPC   C2B45356   2.022   9.209   6.753
 8489POPC   C3B45357   2.034   9.258   7.053
 8489POPC   C4B45358   2.034   9.243   7.353
 8490POPC   NC345359  12.861  38.453   5.553
 8490POPC   PO445360  12.855  38.459   5.853
 8490POPC   GL145361  12.834  38.481   6.153
 8490POPC   GL245362  12.700  38.483   6.153
 8490POPC   C1A45363  12.828  38.494   6.453
 8490POPC   D2A45364  12.840  38.412   6.753
 8490POPC   C3A45365  12.855  38.473   7.053
 8490POPC   C4A45366  12.839  38.444   7.353
 8490POPC   C1B45367  12.642  38.460   6.453
 8490POPC   C2B45368  12.629  38.497   6.753
 8490POPC   C3B45369  12.651  38.426   7.053
 8490POPC   C4B45370  12.576  38.457   7.353
 8491POPC   NC345371   2.730   0.471   5.553
 8491POPC   PO445372   2.727   0.398   5.853
 8491POPC   GL145373   2.753   0.433   6.153
 8491POPC   GL245374   2.791   0.361   6.153
 8491POPC   C1A45375   2.727   0.479   6.453
 8491POPC   D2A45376   2.752   0.429   6.753
 8491POPC   C3A45377   2.769   0.469   7.053
 8491POPC   C4A45378   2.719   0.408   7.353
 8491POPC   C1B45379   2.848   0.159   6.453
 8491POPC   C2B45380   2.853   0.227   6.753
 8491POPC   C3B45381   2.784   0.228   7.053
 8491POPC   C4B45382   2.807   0.151   7.353
 8492POPC   NC345383  30.686  42.333   5.553
 8492POPC   PO445384  30.737  42.304   5.853
 8492POPC   GL145385  30.731  42.339   6.153
 8492POPC   GL245386  30.620  42.448   6.153
 8492POPC   C1A45387  30.705  42.343   6.453
 8492POPC   D2A45388  30.650  42.382   6.753
 8492POPC   C3A45389  30.667  42.356   7.053
 8492POPC   C4A45390  30.696  42.358   7.353
 8492POPC   C1B45391  30.639  42.569   6.453
 8492POPC   C2B45392  30.626  42.601   6.753
 8492POPC   C3B45393  30.597  42.615   7.053
 8492POPC   C4B45394  30.594  42.591   7.353
 8493POPC   NC345395  42.343  10.551   5.553
 8493POPC   PO445396  42.346  10.506   5.853
 8493POPC   GL145397  42.370  10.561   6.153
 8493POPC   GL245398  42.266  10.568   6.153
 8493POPC   C1A45399  42.300  10.475   6.453
 8493POPC   D2A45400  42.305  10.552   6.753
 8493POPC   C3A45401  42.312  10.539   7.053
 8493POPC   C4A45402  42.303  10.504   7.353
 8493POPC   C1B45403  42.141  10.639   6.453
 8493POPC   C2B45404  42.090  10.621   6.753
 8493POPC   C3B45405  42.070  10.604   7.053
 8493POPC   C4B45406  42.113  10.644   7.353
 8494POPC   NC345407  42.319  35.400   5.553
 8494POPC   PO445408  42.352  35.370   5.853
 8494POPC   GL145409  42.358  35.382   6.153
 8494POPC   GL245410  42.248  35.327   6.153
 8494POPC   C1A45411  42.324  35.329   6.453
 8494POPC   D2A45412  42.350  35.397   6.753
 8494POPC   C3A45413  42.366  35.365   7.053
 8494POPC   C4A45414  42.297  35.378   7.353
 8494POPC   C1B45415  42.081  35.198   6.453
 8494POPC   C2B45416  42.092  35.235   6.753
 8494POPC   C3B45417  42.093  35.174   7.053
 8494POPC   C4B45418  42.090  35.264   7.353
 8495POPC   NC345419   0.432  20.601   5.553
 8495POPC   PO445420   0.407  20.584   5.853
 8495POPC   GL145421   0.454  20.568   6.153
 8495POPC   GL245422   0.462  20.689   6.153
 8495POPC   C1A45423   0.476  20.598   6.453
 8495POPC   D2A45424   0.471  20.598   6.753
 8495POPC   C3A45425   0.422  20.573   7.053
 8495POPC   C4A45426   0.486  20.571   7.353
 8495POPC   C1B45427   0.466  20.891   6.453
 8495POPC   C2B45428   0.407  20.818   6.753
 8495POPC   C3B45429   0.393  20.865   7.053
 8495POPC   C4B45430   0.416  20.835   7.353
 8496POPC   NC345431  29.141   2.785   5.553
 8496POPC   PO445432  29.146   2.803   5.853
 8496POPC   GL145433  29.161   2.741   6.153
 8496POPC   GL245434  29.221   2.688   6.153
 8496POPC   C1A45435  29.156   2.729   6.453
 8496POPC   D2A45436  29.116   2.748   6.753
 8496POPC   C3A45437  29.155   2.769   7.053
 8496POPC   C4A45438  29.144   2.811   7.353
 8496POPC   C1B45439  29.206   2.492   6.453
 8496POPC   C2B45440  29.222   2.550   6.753
 8496POPC   C3B45441  29.251   2.549   7.053
 8496POPC   C4B45442  29.204   2.498   7.353
 8497POPC   NC345443  19.101  20.640   5.553
 8497POPC   PO445444  19.067  20.580   5.853
 8497POPC   GL145445  19.015  20.595   6.153
 8497POPC   GL245446  19.201  20.593   6.153
 8497POPC   C1A45447  19.011  20.648   6.453
 8497POPC   D2A45448  19.089  20.634   6.753
 8497POPC   C3A45449  19.017  20.621   7.053
 8497POPC   C4A45450  19.024  20.649   7.353
 8497POPC   C1B45451  19.324  20.683   6.453
 8497POPC   C2B45452  19.332  20.642   6.753
 8497POPC   C3B45453  19.263  20.676   7.053
 8497POPC   C4B45454  19.279  20.611   7.353
 8498POPC   NC345455  26.777   6.622   5.553
 8498POPC   PO445456  26.828   6.621   5.853
 8498POPC   GL145457  26.820   6.676   6.153
 8498POPC   GL245458  26.901   6.748   6.153
 8498POPC   C1A45459  26.778   6.623   6.453
 8498POPC   D2A45460  26.841   6.600   6.753
 8498POPC   C3A45461  26.841   6.671   7.053
 8498POPC   C4A45462  26.824   6.612   7.353
 8498POPC   C1B45463  26.940   6.881   6.453
 8498POPC   C2B45464  26.948   6.872   6.753
 8498POPC   C3B45465  26.992   6.896   7.053
 8498POPC   C4B45466  26.903   6.822   7.353
 8499POPC   NC345467   8.961  28.407   5.553
 8499POPC   PO445468   8.979  28.350   5.853
 8499POPC   GL145469   8.926  28.356   6.153
 8499POPC   GL245470   9.131  28.330   6.153
 8499POPC   C1A45471   9.021  28.374   6.453
 8499POPC   D2A45472   9.012  28.335   6.753
 8499POPC   C3A45473   8.991  28.418   7.053
 8499POPC   C4A45474   8.968  28.390   7.353
 8499POPC   C1B45475   9.176  28.232   6.453
 8499POPC   C2B45476   9.184  28.199   6.753
 8499POPC   C3B45477   9.226  28.292   7.053
 8499POPC   C4B45478   9.183  28.218   7.353
 8500POPC   NC345479  34.526   1.219   5.553
 8500POPC   PO445480  34.621   1.202   5.853
 8500POPC   GL145481  34.526   1.217   6.153
 8500POPC   GL245482  34.464   1.248   6.153
 8500POPC   C1A45483  34.557   1.241   6.453
 8500POPC   D2A45484  34.621   1.171   6.753
 8500POPC   C3A45485  34.607   1.238   7.053
 8500POPC   C4A45486  34.534   1.248   7.353
 8500POPC   C1B45487  34.292   1.209   6.453
 8500POPC   C2B45488  34.335   1.215   6.753
 8500POPC   C3B45489  34.362   1.247   7.053
 8500POPC   C4B45490  34.346   1.209   7.353
 8501POPC   NC345491  12.830  26.087   5.553
 8501POPC   PO445492  12.866  26.048   5.853
 8501POPC   GL145493  12.893  26.051   6.153
 8501POPC   GL245494  12.827  25.910   6.153
 8501POPC   C1A45495  12.805  25.994   6.453
 8501POPC   D2A45496  12.838  26.028   6.753
 8501POPC   C3A45497  12.817  26.051   7.053
 8501POPC   C4A45498  12.881  26.008   7.353
 8501POPC   C1B45499  12.865  25.828   6.453
 8501POPC   C2B45500  12.915  25.814   6.753
 8501POPC   C3B45501  12.898  25.824   7.053
 8501POPC   C4B45502  12.921  25.763   7.353
 8502POPC   NC345503  25.303  41.534   5.553
 8502POPC   PO445504  25.302  41.552   5.853
 8502POPC   GL145505  25.228  41.578   6.153
 8502POPC   GL245506  25.370  41.612   6.153
 8502POPC   C1A45507  25.300  41.576   6.453
 8502POPC   D2A45508  25.277  41.517   6.753
 8502POPC   C3A45509  25.285  41.538   7.053
 8502POPC   C4A45510  25.231  41.563   7.353
 8502POPC   C1B45511  25.488  41.704   6.453
 8502POPC   C2B45512  25.495  41.695   6.753
 8502POPC   C3B45513  25.448  41.743   7.053
 8502POPC   C4B45514  25.440  41.697   7.353
 8503POPC   NC345515  19.815  19.802   5.553
 8503POPC   PO445516  19.872  19.796   5.853
 8503POPC   GL145517  19.865  19.846   6.153
 8503POPC   GL245518  19.746  19.804   6.153
 8503POPC   C1A45519  19.808  19.835   6.453
 8503POPC   D2A45520  19.843  19.811   6.753
 8503POPC   C3A45521  19.876  19.831   7.053
 8503POPC   C4A45522  19.838  19.814   7.353
 8503POPC   C1B45523  19.578  19.803   6.453
 8503POPC   C2B45524  19.573  19.779   6.753
 8503POPC   C3B45525  19.586  19.787   7.053
 8503POPC   C4B45526  19.575  19.847   7.353
 8504POPC   NC345527   1.945  19.065   5.553
 8504POPC   PO445528   2.037  19.090   5.853
 8504POPC   GL145529   2.013  19.052   6.153
 8504POPC   GL245530   1.932  19.142   6.153
 8504POPC   C1A45531   1.965  19.098   6.453
 8504POPC   D2A45532   1.999  19.106   6.753
 8504POPC   C3A45533   1.945  19.108   7.053
 8504POPC   C4A45534   2.014  19.068   7.353
 8504POPC   C1B45535   1.860  19.216   6.453
 8504POPC   C2B45536   1.825  19.306   6.753
 8504POPC   C3B45537   1.884  19.229   7.053
 8504POPC   C4B45538   1.852  19.255   7.353
 8505POPC   NC345539  31.449  13.596   5.553
 8505POPC   PO445540  31.515  13.642   5.853
 8505POPC   GL145541  31.519  13.657   6.153
 8505POPC   GL245542  31.435  13.791   6.153
 8505POPC   C1A45543  31.432  13.606   6.453
 8505POPC   D2A45544  31.429  13.581   6.753
 8505POPC   C3A45545  31.514  13.640   7.053
 8505POPC   C4A45546  31.440  13.624   7.353
 8505POPC   C1B45547  31.425  13.877   6.453
 8505POPC   C2B45548  31.400  13.880   6.753
 8505POPC   C3B45549  31.366  13.830   7.053
 8505POPC   C4B45550  31.463  13.917   7.353
 8506POPC   NC345551   0.409  32.289   5.553
 8506POPC   PO445552   0.431  32.260   5.853
 8506POPC   GL145553   0.474  32.219   6.153
 8506POPC   GL245554   0.373  32.090   6.153
 8506POPC   C1A45555   0.483  32.294   6.453
 8506POPC   D2A45556   0.438  32.240   6.753
 8506POPC   C3A45557   0.392  32.267   7.053
 8506POPC   C4A45558   0.398  32.243   7.353
 8506POPC   C1B45559   0.289  32.064   6.453
 8506POPC   C2B45560   0.373  32.028   6.753
 8506POPC   C3B45561   0.322  32.054   7.053
 8506POPC   C4B45562   0.291  32.027   7.353
 8507POPC   NC345563  17.522   8.933   5.553
 8507POPC   PO445564  17.556   8.933   5.853
 8507POPC   GL145565  17.473   8.958   6.153
 8507POPC   GL245566  17.374   9.013   6.153
 8507POPC   C1A45567  17.459   9.014   6.453
 8507POPC   D2A45568  17.518   8.978   6.753
 8507POPC   C3A45569  17.478   8.941   7.053
 8507POPC   C4A45570  17.511   8.982   7.353
 8507POPC   C1B45571  17.287   9.035   6.453
 8507POPC   C2B45572  17.280   9.012   6.753
 8507POPC   C3B45573  17.251   9.037   7.053
 8507POPC   C4B45574  17.261   9.075   7.353
 8508POPC   NC345575  36.170  37.712   5.553
 8508POPC   PO445576  36.090  37.667   5.853
 8508POPC   GL145577  36.166  37.659   6.153
 8508POPC   GL245578  36.093  37.542   6.153
 8508POPC   C1A45579  36.144  37.701   6.453
 8508POPC   D2A45580  36.093  37.641   6.753
 8508POPC   C3A45581  36.114  37.684   7.053
 8508POPC   C4A45582  36.117  37.668   7.353
 8508POPC   C1B45583  36.191  37.388   6.453
 8508POPC   C2B45584  36.145  37.436   6.753
 8508POPC   C3B45585  36.187  37.402   7.053
 8508POPC   C4B45586  36.199  37.404   7.353
 8509POPC   NC345587  27.598  13.643   5.553
 8509POPC   PO445588  27.573  13.652   5.853
 8509POPC   GL145589  27.564  13.614   6.153
 8509POPC   GL245590  27.539  13.705   6.153
 8509POPC   C1A45591  27.588  13.629   6.453
 8509POPC   D2A45592  27.611  13.651   6.753
 8509POPC   C3A45593  27.576  13.583   7.053
 8509POPC   C4A45594  27.589  13.588   7.353
 8509POPC   C1B45595  27.372  13.789   6.453
 8509POPC   C2B45596  27.409  13.813   6.753
 8509POPC   C3B45597  27.439  13.838   7.053
 8509POPC   C4B45598  27.451  13.838   7.353
 8510POPC   NC345599  43.856  20.576   5.553
 8510POPC   PO445600  43.892  20.645   5.853
 8510POPC   GL145601  43.927  20.603   6.153
 8510POPC   GL245602  43.994  20.562   6.153
 8510POPC   C1A45603  43.862  20.623   6.453
 8510POPC   D2A45604  43.863  20.594   6.753
 8510POPC   C3A45605  43.843  20.623   7.053
 8510POPC   C4A45606  43.899  20.600   7.353
 8510POPC   C1B45607  44.178  20.581   6.453
 8510POPC   C2B45608  44.094  20.505   6.753
 8510POPC   C3B45609  44.095  20.528   7.053
 8510POPC   C4B45610  44.162  20.595   7.353
 8511POPC   NC345611  24.460  40.050   5.553
 8511POPC   PO445612  24.442  40.010   5.853
 8511POPC   GL145613  24.454  40.026   6.153
 8511POPC   GL245614  24.486  39.850   6.153
 8511POPC   C1A45615  24.462  39.962   6.453
 8511POPC   D2A45616  24.463  40.048   6.753
 8511POPC   C3A45617  24.473  40.033   7.053
 8511POPC   C4A45618  24.509  39.989   7.353
 8511POPC   C1B45619  24.471  39.796   6.453
 8511POPC   C2B45620  24.418  39.767   6.753
 8511POPC   C3B45621  24.493  39.772   7.053
 8511POPC   C4B45622  24.423  39.730   7.353
 8512POPC   NC345623  36.858  29.163   5.553
 8512POPC   PO445624  36.953  29.181   5.853
 8512POPC   GL145625  36.876  29.191   6.153
 8512POPC   GL245626  36.988  29.214   6.153
 8512POPC   C1A45627  36.896  29.157   6.453
 8512POPC   D2A45628  36.906  29.139   6.753
 8512POPC   C3A45629  36.916  29.170   7.053
 8512POPC   C4A45630  36.899  29.102   7.353
 8512POPC   C1B45631  37.140  29.251   6.453
 8512POPC   C2B45632  37.133  29.304   6.753
 8512POPC   C3B45633  37.068  29.289   7.053
 8512POPC   C4B45634  37.089  29.300   7.353
 8513POPC   NC345635   3.562  36.924   5.553
 8513POPC   PO445636   3.561  36.913   5.853
 8513POPC   GL145637   3.540  36.934   6.153
 8513POPC   GL245638   3.631  36.849   6.153
 8513POPC   C1A45639   3.530  36.916   6.453
 8513POPC   D2A45640   3.541  36.890   6.753
 8513POPC   C3A45641   3.564  36.949   7.053
 8513POPC   C4A45642   3.570  36.929   7.353
 8513POPC   C1B45643   3.751  36.786   6.453
 8513POPC   C2B45644   3.779  36.756   6.753
 8513POPC   C3B45645   3.697  36.734   7.053
 8513POPC   C4B45646   3.750  36.723   7.353
 8514POPC   NC345647  10.524  44.620   5.553
 8514POPC   PO445648  10.568  44.680   5.853
 8514POPC   GL145649  10.557  44.631   6.153
 8514POPC   GL245650  10.445  44.699   6.153
 8514POPC   C1A45651  10.536  44.650   6.453
 8514POPC   D2A45652  10.557  44.712   6.753
 8514POPC   C3A45653  10.535  44.708   7.053
 8514POPC   C4A45654  10.559  44.655   7.353
 8514POPC   C1B45655  10.318  44.666   6.453
 8514POPC   C2B45656  10.225  44.666   6.753
 8514POPC   C3B45657  10.316  44.607   7.053
 8514POPC   C4B45658  10.253  44.680   7.353
 8515POPC   NC345659  42.384   8.241   5.553
 8515POPC   PO445660  42.298   8.157   5.853
 8515POPC   GL145661  42.330   8.198   6.153
 8515POPC   GL245662  42.323   8.360   6.153
 8515POPC   C1A45663  42.368   8.184   6.453
 8515POPC   D2A45664  42.290   8.220   6.753
 8515POPC   C3A45665  42.356   8.155   7.053
 8515POPC   C4A45666  42.305   8.170   7.353
 8515POPC   C1B45667  42.345   8.463   6.453
 8515POPC   C2B45668  42.341   8.483   6.753
 8515POPC   C3B45669  42.361   8.413   7.053
 8515POPC   C4B45670  42.317   8.419   7.353
 8516POPC   NC345671  42.298  33.814   5.553
 8516POPC   PO445672  42.356  33.826   5.853
 8516POPC   GL145673  42.353  33.788   6.153
 8516POPC   GL245674  42.465  33.895   6.153
 8516POPC   C1A45675  42.353  33.819   6.453
 8516POPC   D2A45676  42.305  33.825   6.753
 8516POPC   C3A45677  42.313  33.774   7.053
 8516POPC   C4A45678  42.343  33.797   7.353
 8516POPC   C1B45679  42.491  34.019   6.453
 8516POPC   C2B45680  42.516  33.943   6.753
 8516POPC   C3B45681  42.561  33.948   7.053
 8516POPC   C4B45682  42.517  34.018   7.353
 8517POPC   NC345683  10.567  22.160   5.553
 8517POPC   PO445684  10.484  22.134   5.853
 8517POPC   GL145685  10.508  22.201   6.153
 8517POPC   GL245686  10.457  22.049   6.153
 8517POPC   C1A45687  10.562  22.161   6.453
 8517POPC   D2A45688  10.567  22.161   6.753
 8517POPC   C3A45689  10.557  22.143   7.053
 8517POPC   C4A45690  10.479  22.189   7.353
 8517POPC   C1B45691  10.366  21.896   6.453
 8517POPC   C2B45692  10.393  21.913   6.753
 8517POPC   C3B45693  10.449  21.988   7.053
 8517POPC   C4B45694  10.393  21.931   7.353
 8518POPC   NC345695  12.092   6.630   5.553
 8518POPC   PO445696  12.098   6.668   5.853
 8518POPC   GL145697  12.122   6.672   6.153
 8518POPC   GL245698  11.992   6.497   6.153
 8518POPC   C1A45699  12.090   6.695   6.453
 8518POPC   D2A45700  12.081   6.624   6.753
 8518POPC   C3A45701  12.088   6.619   7.053
 8518POPC   C4A45702  12.093   6.603   7.353
 8518POPC   C1B45703  11.962   6.409   6.453
 8518POPC   C2B45704  12.004   6.448   6.753
 8518POPC   C3B45705  12.000   6.445   7.053
 8518POPC   C4B45706  11.965   6.414   7.353
 8519POPC   NC345707   1.262  33.800   5.553
 8519POPC   PO445708   1.172  33.787   5.853
 8519POPC   GL145709   1.212  33.752   6.153
 8519POPC   GL245710   1.071  33.761   6.153
 8519POPC   C1A45711   1.234  33.816   6.453
 8519POPC   D2A45712   1.237  33.824   6.753
 8519POPC   C3A45713   1.251  33.790   7.053
 8519POPC   C4A45714   1.261  33.831   7.353
 8519POPC   C1B45715   0.925  33.729   6.453
 8519POPC   C2B45716   0.979  33.770   6.753
 8519POPC   C3B45717   0.939  33.727   7.053
 8519POPC   C4B45718   0.995  33.750   7.353
 8520POPC   NC345719  43.896  43.887   5.553
 8520POPC   PO445720  43.933  43.895   5.853
 8520POPC   GL145721  43.874  43.883   6.153
 8520POPC   GL245722  43.949  43.747   6.153
 8520POPC   C1A45723  43.875  43.912   6.453
 8520POPC   D2A45724  43.854  43.887   6.753
 8520POPC   C3A45725  43.855  43.872   7.053
 8520POPC   C4A45726  43.853  43.893   7.353
 8520POPC   C1B45727  43.948  43.595   6.453
 8520POPC   C2B45728  43.942  43.662   6.753
 8520POPC   C3B45729  43.917  43.650   7.053
 8520POPC   C4B45730  43.914  43.660   7.353
 8521POPC   NC345731  16.747  35.348   5.553
 8521POPC   PO445732  16.703  35.317   5.853
 8521POPC   GL145733  16.753  35.365   6.153
 8521POPC   GL245734  16.733  35.206   6.153
 8521POPC   C1A45735  16.697  35.367   6.453
 8521POPC   D2A45736  16.722  35.305   6.753
 8521POPC   C3A45737  16.690  35.379   7.053
 8521POPC   C4A45738  16.685  35.355   7.353
 8521POPC   C1B45739  16.832  35.151   6.453
 8521POPC   C2B45740  16.797  35.117   6.753
 8521POPC   C3B45741  16.787  35.155   7.053
 8521POPC   C4B45742  16.797  35.109   7.353
 8522POPC   NC345743  42.291  32.979   5.553
 8522POPC   PO445744  42.298  33.023   5.853
 8522POPC   GL145745  42.330  32.997   6.153
 8522POPC   GL245746  42.204  33.110   6.153
 8522POPC   C1A45747  42.373  33.057   6.453
 8522POPC   D2A45748  42.365  33.015   6.753
 8522POPC   C3A45749  42.375  33.048   7.053
 8522POPC   C4A45750  42.345  32.994   7.353
 8522POPC   C1B45751  42.135  33.049   6.453
 8522POPC   C2B45752  42.079  33.128   6.753
 8522POPC   C3B45753  42.109  33.140   7.053
 8522POPC   C4B45754  42.137  33.115   7.353
 8523POPC   NC345755  25.247  12.822   5.553
 8523POPC   PO445756  25.253  12.825   5.853
 8523POPC   GL145757  25.309  12.827   6.153
 8523POPC   GL245758  25.282  13.008   6.153
 8523POPC   C1A45759  25.275  12.819   6.453
 8523POPC   D2A45760  25.225  12.891   6.753
 8523POPC   C3A45761  25.291  12.872   7.053
 8523POPC   C4A45762  25.232  12.887   7.353
 8523POPC   C1B45763  25.236  13.101   6.453
 8523POPC   C2B45764  25.216  13.126   6.753
 8523POPC   C3B45765  25.260  13.060   7.053
 8523POPC   C4B45766  25.224  13.137   7.353
 8524POPC   NC345767   7.418  44.625   5.553
 8524POPC   PO445768   7.394  44.631   5.853
 8524POPC   GL145769   7.404  44.708   6.153
 8524POPC   GL245770   7.426  44.562   6.153
 8524POPC   C1A45771   7.447  44.684   6.453
 8524POPC   D2A45772   7.431  44.705   6.753
 8524POPC   C3A45773   7.425  44.678   7.053
 8524POPC   C4A45774   7.439  44.612   7.353
 8524POPC   C1B45775   7.466  44.372   6.453
 8524POPC   C2B45776   7.382  44.424   6.753
 8524POPC   C3B45777   7.437  44.385   7.053
 8524POPC   C4B45778   7.406  44.397   7.353
 8525POPC   NC345779  18.254  40.829   5.553
 8525POPC   PO445780  18.306  40.807   5.853
 8525POPC   GL145781  18.300  40.762   6.153
 8525POPC   GL245782  18.416  40.804   6.153
 8525POPC   C1A45783  18.325  40.758   6.453
 8525POPC   D2A45784  18.249  40.766   6.753
 8525POPC   C3A45785  18.284  40.752   7.053
 8525POPC   C4A45786  18.315  40.781   7.353
 8525POPC   C1B45787  18.565  40.762   6.453
 8525POPC   C2B45788  18.528  40.777   6.753
 8525POPC   C3B45789  18.523  40.780   7.053
 8525POPC   C4B45790  18.563  40.786   7.353
 8526POPC   NC345791  26.050   8.160   5.553
 8526POPC   PO445792  26.073   8.167   5.853
 8526POPC   GL145793  26.001   8.213   6.153
 8526POPC   GL245794  25.953   8.327   6.153
 8526POPC   C1A45795  26.020   8.153   6.453
 8526POPC   D2A45796  26.062   8.149   6.753
 8526POPC   C3A45797  26.034   8.219   7.053
 8526POPC   C4A45798  26.041   8.224   7.353
 8526POPC   C1B45799  25.837   8.395   6.453
 8526POPC   C2B45800  25.897   8.362   6.753
 8526POPC   C3B45801  25.832   8.332   7.053
 8526POPC   C4B45802  25.886   8.399   7.353
 8527POPC   NC345803   0.402  24.529   5.553
 8527POPC   PO445804   0.438  24.494   5.853
 8527POPC   GL145805   0.412  24.492   6.153
 8527POPC   GL245806   0.359  24.362   6.153
 8527POPC   C1A45807   0.401  24.498   6.453
 8527POPC   D2A45808   0.419  24.459   6.753
 8527POPC   C3A45809   0.476  24.524   7.053
 8527POPC   C4A45810   0.432  24.472   7.353
 8527POPC   C1B45811   0.334  24.237   6.453
 8527POPC   C2B45812   0.364  24.262   6.753
 8527POPC   C3B45813   0.343  24.294   7.053
 8527POPC   C4B45814   0.351  24.298   7.353
 8528POPC   NC345815  18.263  37.693   5.553
 8528POPC   PO445816  18.279  37.660   5.853
 8528POPC   GL145817  18.239  37.708   6.153
 8528POPC   GL245818  18.255  37.589   6.153
 8528POPC   C1A45819  18.261  37.709   6.453
 8528POPC   D2A45820  18.304  37.630   6.753
 8528POPC   C3A45821  18.270  37.676   7.053
 8528POPC   C4A45822  18.300  37.702   7.353
 8528POPC   C1B45823  18.224  37.428   6.453
 8528POPC   C2B45824  18.256  37.433   6.753
 8528POPC   C3B45825  18.310  37.436   7.053
 8528POPC   C4B45826  18.273  37.398   7.353
 8529POPC   NC345827  41.526   9.721   5.553
 8529POPC   PO445828  41.575   9.786   5.853
 8529POPC   GL145829  41.529   9.719   6.153
 8529POPC   GL245830  41.529   9.842   6.153
 8529POPC   C1A45831  41.602   9.752   6.453
 8529POPC   D2A45832  41.576   9.732   6.753
 8529POPC   C3A45833  41.518   9.713   7.053
 8529POPC   C4A45834  41.541   9.767   7.353
 8529POPC   C1B45835  41.566   9.952   6.453
 8529POPC   C2B45836  41.522   9.975   6.753
 8529POPC   C3B45837  41.562  10.019   7.053
 8529POPC   C4B45838  41.594  10.038   7.353
 8530POPC   NC345839  29.157  15.218   5.553
 8530POPC   PO445840  29.103  15.220   5.853
 8530POPC   GL145841  29.172  15.218   6.153
 8530POPC   GL245842  29.101  15.286   6.153
 8530POPC   C1A45843  29.120  15.218   6.453
 8530POPC   D2A45844  29.153  15.189   6.753
 8530POPC   C3A45845  29.125  15.208   7.053
 8530POPC   C4A45846  29.149  15.181   7.353
 8530POPC   C1B45847  29.128  15.392   6.453
 8530POPC   C2B45848  29.119  15.425   6.753
 8530POPC   C3B45849  29.115  15.401   7.053
 8530POPC   C4B45850  29.106  15.416   7.353
 8531POPC   NC345851  43.841  19.834   5.553
 8531POPC   PO445852  43.895  19.798   5.853
 8531POPC   GL145853  43.905  19.837   6.153
 8531POPC   GL245854  43.811  19.747   6.153
 8531POPC   C1A45855  43.877  19.828   6.453
 8531POPC   D2A45856  43.859  19.785   6.753
 8531POPC   C3A45857  43.872  19.841   7.053
 8531POPC   C4A45858  43.895  19.878   7.353
 8531POPC   C1B45859  43.752  19.638   6.453
 8531POPC   C2B45860  43.773  19.607   6.753
 8531POPC   C3B45861  43.732  19.582   7.053
 8531POPC   C4B45862  43.735  19.582   7.353
 8532POPC   NC345863   5.841  35.396   5.553
 8532POPC   PO445864   5.868  35.391   5.853
 8532POPC   GL145865   5.860  35.319   6.153
 8532POPC   GL245866   6.022  35.297   6.153
 8532POPC   C1A45867   5.846  35.317   6.453
 8532POPC   D2A45868   5.910  35.364   6.753
 8532POPC   C3A45869   5.850  35.388   7.053
 8532POPC   C4A45870   5.911  35.305   7.353
 8532POPC   C1B45871   6.087  35.318   6.453
 8532POPC   C2B45872   6.119  35.319   6.753
 8532POPC   C3B45873   6.090  35.389   7.053
 8532POPC   C4B45874   6.081  35.318   7.353
 8533POPC   NC345875  21.397  27.583   5.553
 8533POPC   PO445876  21.382  27.599   5.853
 8533POPC   GL145877  21.405  27.588   6.153
 8533POPC   GL245878  21.278  27.456   6.153
 8533POPC   C1A45879  21.377  27.634   6.453
 8533POPC   D2A45880  21.398  27.547   6.753
 8533POPC   C3A45881  21.372  27.615   7.053
 8533POPC   C4A45882  21.425  27.623   7.353
 8533POPC   C1B45883  21.228  27.350   6.453
 8533POPC   C2B45884  21.234  27.358   6.753
 8533POPC   C3B45885  21.269  27.359   7.053
 8533POPC   C4B45886  21.209  27.383   7.353
 8534POPC   NC345887  41.536   2.019   5.553
 8534POPC   PO445888  41.519   1.990   5.853
 8534POPC   GL145889  41.552   2.023   6.153
 8534POPC   GL245890  41.570   2.140   6.153
 8534POPC   C1A45891  41.550   2.003   6.453
 8534POPC   D2A45892  41.577   1.947   6.753
 8534POPC   C3A45893  41.520   1.967   7.053
 8534POPC   C4A45894  41.552   1.964   7.353
 8534POPC   C1B45895  41.555   2.257   6.453
 8534POPC   C2B45896  41.488   2.242   6.753
 8534POPC   C3B45897  41.553   2.229   7.053
 8534POPC   C4B45898  41.538   2.258   7.353
 8535POPC   NC345899   8.985  22.942   5.553
 8535POPC   PO445900   8.954  22.951   5.853
 8535POPC   GL145901   9.020  22.956   6.153
 8535POPC   GL245902   8.912  22.836   6.153
 8535POPC   C1A45903   8.999  22.973   6.453
 8535POPC   D2A45904   8.946  22.948   6.753
 8535POPC   C3A45905   8.939  22.928   7.053
 8535POPC   C4A45906   8.927  22.895   7.353
 8535POPC   C1B45907   8.934  22.736   6.453
 8535POPC   C2B45908   8.929  22.686   6.753
 8535POPC   C3B45909   8.866  22.713   7.053
 8535POPC   C4B45910   8.889  22.721   7.353
 8536POPC   NC345911  43.123  22.203   5.553
 8536POPC   PO445912  43.135  22.122   5.853
 8536POPC   GL145913  43.064  22.204   6.153
 8536POPC   GL245914  43.016  22.087   6.153
 8536POPC   C1A45915  43.081  22.176   6.453
 8536POPC   D2A45916  43.098  22.128   6.753
 8536POPC   C3A45917  43.075  22.169   7.053
 8536POPC   C4A45918  43.066  22.118   7.353
 8536POPC   C1B45919  42.842  22.084   6.453
 8536POPC   C2B45920  42.876  22.089   6.753
 8536POPC   C3B45921  42.906  22.097   7.053
 8536POPC   C4B45922  42.839  22.040   7.353
 8537POPC   NC345923  41.566   6.617   5.553
 8537POPC   PO445924  41.593   6.650   5.853
 8537POPC   GL145925  41.523   6.616   6.153
 8537POPC   GL245926  41.529   6.786   6.153
 8537POPC   C1A45927  41.554   6.670   6.453
 8537POPC   D2A45928  41.593   6.616   6.753
 8537POPC   C3A45929  41.511   6.654   7.053
 8537POPC   C4A45930  41.591   6.661   7.353
 8537POPC   C1B45931  41.472   6.815   6.453
 8537POPC   C2B45932  41.406   6.830   6.753
 8537POPC   C3B45933  41.486   6.903   7.053
 8537POPC   C4B45934  41.427   6.880   7.353
 8538POPC   NC345935  26.859  38.436   5.553
 8538POPC   PO445936  26.848  38.503   5.853
 8538POPC   GL145937  26.841  38.442   6.153
 8538POPC   GL245938  26.895  38.362   6.153
 8538POPC   C1A45939  26.841  38.426   6.453
 8538POPC   D2A45940  26.832  38.473   6.753
 8538POPC   C3A45941  26.787  38.425   7.053
 8538POPC   C4A45942  26.860  38.406   7.353
 8538POPC   C1B45943  26.999  38.326   6.453
 8538POPC   C2B45944  27.020  38.394   6.753
 8538POPC   C3B45945  27.046  38.385   7.053
 8538POPC   C4B45946  27.071  38.351   7.353
 8539POPC   NC345947   1.179   9.732   5.553
 8539POPC   PO445948   1.244   9.725   5.853
 8539POPC   GL145949   1.173   9.722   6.153
 8539POPC   GL245950   1.266   9.788   6.153
 8539POPC   C1A45951   1.263   9.731   6.453
 8539POPC   D2A45952   1.255   9.771   6.753
 8539POPC   C3A45953   1.184   9.747   7.053
 8539POPC   C4A45954   1.174   9.736   7.353
 8539POPC   C1B45955   1.440   9.914   6.453
 8539POPC   C2B45956   1.445   9.938   6.753
 8539POPC   C3B45957   1.386   9.850   7.053
 8539POPC   C4B45958   1.405   9.887   7.353
 8540POPC   NC345959  12.119  11.282   5.553
 8540POPC   PO445960  12.084  11.268   5.853
 8540POPC   GL145961  12.106  11.347   6.153
 8540POPC   GL245962  12.155  11.386   6.153
 8540POPC   C1A45963  12.073  11.251   6.453
 8540POPC   D2A45964  12.043  11.293   6.753
 8540POPC   C3A45965  12.066  11.293   7.053
 8540POPC   C4A45966  12.051  11.250   7.353
 8540POPC   C1B45967  12.216  11.482   6.453
 8540POPC   C2B45968  12.225  11.543   6.753
 8540POPC   C3B45969  12.234  11.517   7.053
 8540POPC   C4B45970  12.182  11.525   7.353
 8541POPC   NC345971  15.990   2.730   5.553
 8541POPC   PO445972  15.998   2.716   5.853
 8541POPC   GL145973  15.911   2.788   6.153
 8541POPC   GL245974  15.910   2.916   6.153
 8541POPC   C1A45975  15.986   2.789   6.453
 8541POPC   D2A45976  15.966   2.808   6.753
 8541POPC   C3A45977  15.991   2.799   7.053
 8541POPC   C4A45978  15.991   2.813   7.353
 8541POPC   C1B45979  15.997   3.026   6.453
 8541POPC   C2B45980  15.924   3.024   6.753
 8541POPC   C3B45981  15.916   3.010   7.053
 8541POPC   C4B45982  15.982   3.062   7.353
 8542POPC   NC345983  29.134  24.535   5.553
 8542POPC   PO445984  29.152  24.536   5.853
 8542POPC   GL145985  29.145  24.512   6.153
 8542POPC   GL245986  29.125  24.357   6.153
 8542POPC   C1A45987  29.187  24.457   6.453
 8542POPC   D2A45988  29.107  24.534   6.753
 8542POPC   C3A45989  29.185  24.473   7.053
 8542POPC   C4A45990  29.136  24.537   7.353
 8542POPC   C1B45991  29.137  24.198   6.453
 8542POPC   C2B45992  29.192  24.200   6.753
 8542POPC   C3B45993  29.184  24.198   7.053
 8542POPC   C4B45994  29.230  24.249   7.353
 8543POPC   NC345995  10.515  33.799   5.553
 8543POPC   PO445996  10.539  33.757   5.853
 8543POPC   GL145997  10.489  33.831   6.153
 8543POPC   GL245998  10.450  33.879   6.153
 8543POPC   C1A45999  10.497  33.782   6.453
 8543POPC   D2A46000  10.481  33.838   6.753
 8543POPC   C3A46001  10.493  33.789   7.053
 8543POPC   C4A46002  10.537  33.825   7.353
 8543POPC   C1B46003  10.272  33.892   6.453
 8543POPC   C2B46004  10.289  33.962   6.753
 8543POPC   C3B46005  10.273  33.922   7.053
 8543POPC   C4B46006  10.298  33.925   7.353
 8544POPC   NC346007  19.841   2.751   5.553
 8544POPC   PO446008  19.802   2.750   5.853
 8544POPC   GL146009  19.813   2.792   6.153
 8544POPC   GL246010  19.913   2.859   6.153
 8544POPC   C1A46011  19.880   2.766   6.453
 8544POPC   D2A46012  19.797   2.759   6.753
 8544POPC   C3A46013  19.796   2.769   7.053
 8544POPC   C4A46014  19.864   2.756   7.353
 8544POPC   C1B46015  19.975   2.967   6.453
 8544POPC   C2B46016  19.951   2.939   6.753
 8544POPC   C3B46017  19.999   2.994   7.053
 8544POPC   C4B46018  20.033   2.999   7.353
 8545POPC   NC346019  40.787   2.766   5.553
 8545POPC   PO446020  40.735   2.783   5.853
 8545POPC   GL146021  40.808   2.767   6.153
 8545POPC   GL246022  40.654   2.623   6.153
 8545POPC   C1A46023  40.803   2.769   6.453
 8545POPC   D2A46024  40.797   2.754   6.753
 8545POPC   C3A46025  40.820   2.805   7.053
 8545POPC   C4A46026  40.763   2.778   7.353
 8545POPC   C1B46027  40.626   2.621   6.453
 8545POPC   C2B46028  40.583   2.576   6.753
 8545POPC   C3B46029  40.661   2.593   7.053
 8545POPC   C4B46030  40.578   2.573   7.353
 8546POPC   NC346031  24.516  42.384   5.553
 8546POPC   PO446032  24.522  42.356   5.853
 8546POPC   GL146033  24.475  42.355   6.153
 8546POPC   GL246034  24.573  42.486   6.153
 8546POPC   C1A46035  24.450  42.305   6.453
 8546POPC   D2A46036  24.519  42.371   6.753
 8546POPC   C3A46037  24.440  42.326   7.053
 8546POPC   C4A46038  24.483  42.362   7.353
 8546POPC   C1B46039  24.622  42.518   6.453
 8546POPC   C2B46040  24.637  42.590   6.753
 8546POPC   C3B46041  24.594  42.517   7.053
 8546POPC   C4B46042  24.631  42.505   7.353
 8547POPC   NC346043  22.972  38.420   5.553
 8547POPC   PO446044  22.891  38.485   5.853
 8547POPC   GL146045  22.970  38.435   6.153
 8547POPC   GL246046  22.801  38.450   6.153
 8547POPC   C1A46047  22.957  38.424   6.453
 8547POPC   D2A46048  22.953  38.419   6.753
 8547POPC   C3A46049  22.946  38.459   7.053
 8547POPC   C4A46050  22.913  38.443   7.353
 8547POPC   C1B46051  22.701  38.479   6.453
 8547POPC   C2B46052  22.741  38.541   6.753
 8547POPC   C3B46053  22.665  38.533   7.053
 8547POPC   C4B46054  22.678  38.569   7.353
 8548POPC   NC346055  16.759   1.171   5.553
 8548POPC   PO446056  16.713   1.199   5.853
 8548POPC   GL146057  16.711   1.213   6.153
 8548POPC   GL246058  16.703   1.344   6.153
 8548POPC   C1A46059  16.706   1.164   6.453
 8548POPC   D2A46060  16.727   1.243   6.753
 8548POPC   C3A46061  16.742   1.232   7.053
 8548POPC   C4A46062  16.706   1.255   7.353
 8548POPC   C1B46063  16.641   1.400   6.453
 8548POPC   C2B46064  16.589   1.386   6.753
 8548POPC   C3B46065  16.616   1.420   7.053
 8548POPC   C4B46066  16.544   1.447   7.353
 8549POPC   NC346067  12.045  10.523   5.553
 8549POPC   PO446068  12.109  10.555   5.853
 8549POPC   GL146069  12.027  10.574   6.153
 8549POPC   GL246070  12.046  10.380   6.153
 8549POPC   C1A46071  12.071  10.502   6.453
 8549POPC   D2A46072  12.042  10.511   6.753
 8549POPC   C3A46073  12.056  10.569   7.053
 8549POPC   C4A46074  12.123  10.523   7.353
 8549POPC   C1B46075  12.058  10.303   6.453
 8549POPC   C2B46076  12.139  10.233   6.753
 8549POPC   C3B46077  12.110  10.324   7.053
 8549POPC   C4B46078  12.055  10.290   7.353
 8550POPC   NC346079  42.327  41.536   5.553
 8550POPC   PO446080  42.298  41.606   5.853
 8550POPC   GL146081  42.321  41.603   6.153
 8550POPC   GL246082  42.486  41.619   6.153
 8550POPC   C1A46083  42.289  41.555   6.453
 8550POPC   D2A46084  42.297  41.553   6.753
 8550POPC   C3A46085  42.377  41.579   7.053
 8550POPC   C4A46086  42.361  41.561   7.353
 8550POPC   C1B46087  42.580  41.621   6.453
 8550POPC   C2B46088  42.549  41.619   6.753
 8550POPC   C3B46089  42.579  41.640   7.053
 8550POPC   C4B46090  42.600  41.602   7.353
 8551POPC   NC346091   5.913  20.588   5.553
 8551POPC   PO446092   5.829  20.611   5.853
 8551POPC   GL146093   5.909  20.637   6.153
 8551POPC   GL246094   5.787  20.608   6.153
 8551POPC   C1A46095   5.850  20.574   6.453
 8551POPC   D2A46096   5.868  20.623   6.753
 8551POPC   C3A46097   5.896  20.639   7.053
 8551POPC   C4A46098   5.842  20.627   7.353
 8551POPC   C1B46099   5.594  20.576   6.453
 8551POPC   C2B46100   5.603  20.493   6.753
 8551POPC   C3B46101   5.653  20.556   7.053
 8551POPC   C4B46102   5.662  20.523   7.353
 8552POPC   NC346103  36.946  26.052   5.553
 8552POPC   PO446104  36.886  26.050   5.853
 8552POPC   GL146105  36.869  26.041   6.153
 8552POPC   GL246106  36.967  25.940   6.153
 8552POPC   C1A46107  36.904  26.041   6.453
 8552POPC   D2A46108  36.878  26.073   6.753
 8552POPC   C3A46109  36.945  26.091   7.053
 8552POPC   C4A46110  36.873  26.027   7.353
 8552POPC   C1B46111  36.972  25.818   6.453
 8552POPC   C2B46112  36.973  25.857   6.753
 8552POPC   C3B46113  37.021  25.825   7.053
 8552POPC   C4B46114  37.053  25.786   7.353
 8553POPC   NC346115  27.582  33.063   5.553
 8553POPC   PO446116  27.596  32.978   5.853
 8553POPC   GL146117  27.638  33.014   6.153
 8553POPC   GL246118  27.706  33.046   6.153
 8553POPC   C1A46119  27.576  32.999   6.453
 8553POPC   D2A46120  27.570  33.060   6.753
 8553POPC   C3A46121  27.564  32.980   7.053
 8553POPC   C4A46122  27.577  33.016   7.353
 8553POPC   C1B46123  27.780  33.145   6.453
 8553POPC   C2B46124  27.750  33.153   6.753
 8553POPC   C3B46125  27.769  33.161   7.053
 8553POPC   C4B46126  27.751  33.164   7.353
 8554POPC   NC346127   7.460  12.098   5.553
 8554POPC   PO446128   7.400  12.095   5.853
 8554POPC   GL146129   7.414  12.120   6.153
 8554POPC   GL246130   7.559  12.119   6.153
 8554POPC   C1A46131   7.372  12.079   6.453
 8554POPC   D2A46132   7.451  12.039   6.753
 8554POPC   C3A46133   7.380  12.096   7.053
 8554POPC   C4A46134   7.467  12.104   7.353
 8554POPC   C1B46135   7.644  12.118   6.453
 8554POPC   C2B46136   7.665  12.161   6.753
 8554POPC   C3B46137   7.652  12.138   7.053
 8554POPC   C4B46138   7.684  12.154   7.353
 8555POPC   NC346139  11.258   8.194   5.553
 8555POPC   PO446140  11.316   8.188   5.853
 8555POPC   GL146141  11.283   8.180   6.153
 8555POPC   GL246142  11.421   8.139   6.153
 8555POPC   C1A46143  11.334   8.163   6.453
 8555POPC   D2A46144  11.285   8.220   6.753
 8555POPC   C3A46145  11.322   8.172   7.053
 8555POPC   C4A46146  11.252   8.228   7.353
 8555POPC   C1B46147  11.534   8.148   6.453
 8555POPC   C2B46148  11.588   8.110   6.753
 8555POPC   C3B46149  11.495   8.173   7.053
 8555POPC   C4B46150  11.579   8.151   7.353
 8556POPC   NC346151   8.997  22.167   5.553
 8556POPC   PO446152   8.987  22.170   5.853
 8556POPC   GL146153   8.999  22.201   6.153
 8556POPC   GL246154   8.868  22.059   6.153
 8556POPC   C1A46155   8.925  22.184   6.453
 8556POPC   D2A46156   8.999  22.194   6.753
 8556POPC   C3A46157   8.923  22.155   7.053
 8556POPC   C4A46158   8.989  22.113   7.353
 8556POPC   C1B46159   8.835  21.905   6.453
 8556POPC   C2B46160   8.881  21.982   6.753
 8556POPC   C3B46161   8.897  21.904   7.053
 8556POPC   C4B46162   8.898  21.950   7.353
 8557POPC   NC346163  28.324  12.850   5.553
 8557POPC   PO446164  28.389  12.845   5.853
 8557POPC   GL146165  28.373  12.900   6.153
 8557POPC   GL246166  28.273  13.011   6.153
 8557POPC   C1A46167  28.348  12.869   6.453
 8557POPC   D2A46168  28.332  12.815   6.753
 8557POPC   C3A46169  28.392  12.834   7.053
 8557POPC   C4A46170  28.406  12.837   7.353
 8557POPC   C1B46171  28.307  13.109   6.453
 8557POPC   C2B46172  28.281  13.105   6.753
 8557POPC   C3B46173  28.243  13.076   7.053
 8557POPC   C4B46174  28.251  13.096   7.353
 8558POPC   NC346175   0.434  11.259   5.553
 8558POPC   PO446176   0.429  11.273   5.853
 8558POPC   GL146177   0.398  11.274   6.153
 8558POPC   GL246178   0.381  11.221   6.153
 8558POPC   C1A46179   0.420  11.258   6.453
 8558POPC   D2A46180   0.462  11.303   6.753
 8558POPC   C3A46181   0.447  11.349   7.053
 8558POPC   C4A46182   0.486  11.277   7.353
 8558POPC   C1B46183   0.318  11.073   6.453
 8558POPC   C2B46184   0.377  11.050   6.753
 8558POPC   C3B46185   0.316  11.115   7.053
 8558POPC   C4B46186   0.356  11.028   7.353
 8559POPC   NC346187  33.840   8.219   5.553
 8559POPC   PO446188  33.815   8.173   5.853
 8559POPC   GL146189  33.788   8.245   6.153
 8559POPC   GL246190  33.868   8.039   6.153
 8559POPC   C1A46191  33.751   8.245   6.453
 8559POPC   D2A46192  33.790   8.229   6.753
 8559POPC   C3A46193  33.776   8.176   7.053
 8559POPC   C4A46194  33.815   8.162   7.353
 8559POPC   C1B46195  33.890   7.947   6.453
 8559POPC   C2B46196  33.958   8.000   6.753
 8559POPC   C3B46197  33.914   7.938   7.053
 8559POPC   C4B46198  33.952   7.946   7.353
 8560POPC   NC346199  26.072  12.106   5.553
 8560POPC   PO446200  26.004  12.104   5.853
 8560POPC   GL146201  26.014  12.028   6.153
 8560POPC   GL246202  25.944  12.176   6.153
 8560POPC   C1A46203  26.068  12.073   6.453
 8560POPC   D2A46204  26.068  12.094   6.753
 8560POPC   C3A46205  25.996  12.117   7.053
 8560POPC   C4A46206  26.015  12.065   7.353
 8560POPC   C1B46207  25.832  12.225   6.453
 8560POPC   C2B46208  25.800  12.245   6.753
 8560POPC   C3B46209  25.839  12.229   7.053
 8560POPC   C4B46210  25.815  12.212   7.353
 8561POPC   NC346211  28.384  40.012   5.553
 8561POPC   PO446212  28.397  39.995   5.853
 8561POPC   GL146213  28.401  40.024   6.153
 8561POPC   GL246214  28.483  40.122   6.153
 8561POPC   C1A46215  28.347  40.015   6.453
 8561POPC   D2A46216  28.405  39.983   6.753
 8561POPC   C3A46217  28.321  39.988   7.053
 8561POPC   C4A46218  28.369  40.006   7.353
 8561POPC   C1B46219  28.507  40.167   6.453
 8561POPC   C2B46220  28.516  40.238   6.753
 8561POPC   C3B46221  28.552  40.178   7.053
 8561POPC   C4B46222  28.489  40.214   7.353
 8562POPC   NC346223  43.849  14.449   5.553
 8562POPC   PO446224  43.921  14.442   5.853
 8562POPC   GL146225  43.920  14.406   6.153
 8562POPC   GL246226  43.811  14.485   6.153
 8562POPC   C1A46227  43.925  14.406   6.453
 8562POPC   D2A46228  43.873  14.377   6.753
 8562POPC   C3A46229  43.836  14.397   7.053
 8562POPC   C4A46230  43.902  14.354   7.353
 8562POPC   C1B46231  43.697  14.554   6.453
 8562POPC   C2B46232  43.720  14.619   6.753
 8562POPC   C3B46233  43.732  14.616   7.053
 8562POPC   C4B46234  43.721  14.615   7.353
 8563POPC   NC346235  27.578  10.535   5.553
 8563POPC   PO446236  27.585  10.560   5.853
 8563POPC   GL146237  27.552  10.559   6.153
 8563POPC   GL246238  27.617  10.435   6.153
 8563POPC   C1A46239  27.554  10.546   6.453
 8563POPC   D2A46240  27.610  10.504   6.753
 8563POPC   C3A46241  27.605  10.485   7.053
 8563POPC   C4A46242  27.563  10.479   7.353
 8563POPC   C1B46243  27.612  10.273   6.453
 8563POPC   C2B46244  27.536  10.266   6.753
 8563POPC   C3B46245  27.580  10.265   7.053
 8563POPC   C4B46246  27.585  10.247   7.353
 8564POPC   NC346247  27.636  33.824   5.553
 8564POPC   PO446248  27.549  33.849   5.853
 8564POPC   GL146249  27.548  33.788   6.153
 8564POPC   GL246250  27.543  33.675   6.153
 8564POPC   C1A46251  27.581  33.848   6.453
 8564POPC   D2A46252  27.615  33.804   6.753
 8564POPC   C3A46253  27.641  33.799   7.053
 8564POPC   C4A46254  27.576  33.762   7.353
 8564POPC   C1B46255  27.476  33.584   6.453
 8564POPC   C2B46256  27.539  33.570   6.753
 8564POPC   C3B46257  27.461  33.576   7.053
 8564POPC   C4B46258  27.466  33.608   7.353
 8565POPC   NC346259  21.371  19.865   5.553
 8565POPC   PO446260  21.363  19.829   5.853
 8565POPC   GL146261  21.435  19.849   6.153
 8565POPC   GL246262  21.276  19.792   6.153
 8565POPC   C1A46263  21.395  19.858   6.453
 8565POPC   D2A46264  21.428  19.807   6.753
 8565POPC   C3A46265  21.340  19.869   7.053
 8565POPC   C4A46266  21.366  19.822   7.353
 8565POPC   C1B46267  21.126  19.791   6.453
 8565POPC   C2B46268  21.160  19.827   6.753
 8565POPC   C3B46269  21.147  19.753   7.053
 8565POPC   C4B46270  21.155  19.814   7.353
 8566POPC   NC346271  25.289   6.668   5.553
 8566POPC   PO446272  25.234   6.666   5.853
 8566POPC   GL146273  25.265   6.691   6.153
 8566POPC   GL246274  25.172   6.559   6.153
 8566POPC   C1A46275  25.240   6.654   6.453
 8566POPC   D2A46276  25.314   6.694   6.753
 8566POPC   C3A46277  25.238   6.639   7.053
 8566POPC   C4A46278  25.302   6.630   7.353
 8566POPC   C1B46279  25.121   6.455   6.453
 8566POPC   C2B46280  25.075   6.503   6.753
 8566POPC   C3B46281  25.094   6.452   7.053
 8566POPC   C4B46282  25.078   6.524   7.353
 8567POPC   NC346283  36.880  37.666   5.553
 8567POPC   PO446284  36.899  37.698   5.853
 8567POPC   GL146285  36.886  37.687   6.153
 8567POPC   GL246286  36.777  37.706   6.153
 8567POPC   C1A46287  36.867  37.639   6.453
 8567POPC   D2A46288  36.939  37.693   6.753
 8567POPC   C3A46289  36.939  37.715   7.053
 8567POPC   C4A46290  36.885  37.700   7.353
 8567POPC   C1B46291  36.666  37.686   6.453
 8567POPC   C2B46292  36.626  37.662   6.753
 8567POPC   C3B46293  36.617  37.700   7.053
 8567POPC   C4B46294  36.676  37.707   7.353
 8568POPC   NC346295   8.965  23.674   5.553
 8568POPC   PO446296   8.951  23.673   5.853
 8568POPC   GL146297   8.984  23.719   6.153
 8568POPC   GL246298   8.996  23.842   6.153
 8568POPC   C1A46299   8.967  23.668   6.453
 8568POPC   D2A46300   9.005  23.749   6.753
 8568POPC   C3A46301   8.928  23.711   7.053
 8568POPC   C4A46302   8.993  23.702   7.353
 8568POPC   C1B46303   8.916  23.994   6.453
 8568POPC   C2B46304   8.890  23.976   6.753
 8568POPC   C3B46305   8.912  24.002   7.053
 8568POPC   C4B46306   8.916  23.975   7.353
 8569POPC   NC346307  16.754  36.894   5.553
 8569POPC   PO446308  16.698  36.926   5.853
 8569POPC   GL146309  16.757  36.865   6.153
 8569POPC   GL246310  16.578  36.809   6.153
 8569POPC   C1A46311  16.705  36.915   6.453
 8569POPC   D2A46312  16.761  36.928   6.753
 8569POPC   C3A46313  16.738  36.901   7.053
 8569POPC   C4A46314  16.716  36.893   7.353
 8569POPC   C1B46315  16.553  36.769   6.453
 8569POPC   C2B46316  16.568  36.740   6.753
 8569POPC   C3B46317  16.548  36.718   7.053
 8569POPC   C4B46318  16.537  36.729   7.353
 8570POPC   NC346319  43.128  34.574   5.553
 8570POPC   PO446320  43.125  34.594   5.853
 8570POPC   GL146321  43.148  34.572   6.153
 8570POPC   GL246322  43.207  34.615   6.153
 8570POPC   C1A46323  43.090  34.607   6.453
 8570POPC   D2A46324  43.160  34.550   6.753
 8570POPC   C3A46325  43.156  34.533   7.053
 8570POPC   C4A46326  43.078  34.580   7.353
 8570POPC   C1B46327  43.271  34.740   6.453
 8570POPC   C2B46328  43.331  34.801   6.753
 8570POPC   C3B46329  43.317  34.801   7.053
 8570POPC   C4B46330  43.302  34.749   7.353
 8571POPC   NC346331   9.761  41.563   5.553
 8571POPC   PO446332   9.778  41.596   5.853
 8571POPC   GL146333   9.787  41.565   6.153
 8571POPC   GL246334   9.616  41.635   6.153
 8571POPC   C1A46335   9.742  41.574   6.453
 8571POPC   D2A46336   9.732  41.548   6.753
 8571POPC   C3A46337   9.737  41.527   7.053
 8571POPC   C4A46338   9.706  41.581   7.353
 8571POPC   C1B46339   9.536  41.671   6.453
 8571POPC   C2B46340   9.524  41.611   6.753
 8571POPC   C3B46341   9.548  41.588   7.053
 8571POPC   C4B46342   9.496  41.627   7.353
 8572POPC   NC346343  10.533  23.730   5.553
 8572POPC   PO446344  10.558  23.741   5.853
 8572POPC   GL146345  10.499  23.719   6.153
 8572POPC   GL246346  10.478  23.550   6.153
 8572POPC   C1A46347  10.502  23.720   6.453
 8572POPC   D2A46348  10.554  23.737   6.753
 8572POPC   C3A46349  10.544  23.731   7.053
 8572POPC   C4A46350  10.573  23.685   7.353
 8572POPC   C1B46351  10.400  23.462   6.453
 8572POPC   C2B46352  10.443  23.516   6.753
 8572POPC   C3B46353  10.378  23.527   7.053
 8572POPC   C4B46354  10.396  23.472   7.353
 8573POPC   NC346355  34.625  15.158   5.553
 8573POPC   PO446356  34.559  15.162   5.853
 8573POPC   GL146357  34.605  15.195   6.153
 8573POPC   GL246358  34.716  15.150   6.153
 8573POPC   C1A46359  34.549  15.180   6.453
 8573POPC   D2A46360  34.570  15.181   6.753
 8573POPC   C3A46361  34.554  15.223   7.053
 8573POPC   C4A46362  34.599  15.218   7.353
 8573POPC   C1B46363  34.844  15.184   6.453
 8573POPC   C2B46364  34.810  15.117   6.753
 8573POPC   C3B46365  34.859  15.112   7.053
 8573POPC   C4B46366  34.790  15.098   7.353
 8574POPC   NC346367  41.509  43.125   5.553
 8574POPC   PO446368  41.589  43.131   5.853
 8574POPC   GL146369  41.577  43.152   6.153
 8574POPC   GL246370  41.479  43.178   6.153
 8574POPC   C1A46371  41.584  43.105   6.453
 8574POPC   D2A46372  41.530  43.088   6.753
 8574POPC   C3A46373  41.564  43.148   7.053
 8574POPC   C4A46374  41.576  43.137   7.353
 8574POPC   C1B46375  41.324  43.276   6.453
 8574POPC   C2B46376  41.309  43.268   6.753
 8574POPC   C3B46377  41.388  43.262   7.053
 8574POPC   C4B46378  41.356  43.263   7.353
 8575POPC   NC346379  33.770  32.293   5.553
 8575POPC   PO446380  33.786  32.296   5.853
 8575POPC   GL146381  33.804  32.225   6.153
 8575POPC   GL246382  33.839  32.092   6.153
 8575POPC   C1A46383  33.762  32.224   6.453
 8575POPC   D2A46384  33.837  32.234   6.753
 8575POPC   C3A46385  33.824  32.279   7.053
 8575POPC   C4A46386  33.756  32.201   7.353
 8575POPC   C1B46387  33.784  32.039   6.453
 8575POPC   C2B46388  33.805  31.962   6.753
 8575POPC   C3B46389  33.837  31.964   7.053
 8575POPC   C4B46390  33.782  31.967   7.353
 8576POPC   NC346391   0.485  10.541   5.553
 8576POPC   PO446392   0.394  10.567   5.853
 8576POPC   GL146393   0.391  10.514   6.153
 8576POPC   GL246394   0.318  10.510   6.153
 8576POPC   C1A46395   0.427  10.531   6.453
 8576POPC   D2A46396   0.484  10.535   6.753
 8576POPC   C3A46397   0.393  10.503   7.053
 8576POPC   C4A46398   0.462  10.507   7.353
 8576POPC   C1B46399   0.179  10.568   6.453
 8576POPC   C2B46400   0.227  10.534   6.753
 8576POPC   C3B46401   0.164  10.622   7.053
 8576POPC   C4B46402   0.231  10.533   7.353
 8577POPC   NC346403  35.329  37.707   5.553
 8577POPC   PO446404  35.354  37.694   5.853
 8577POPC   GL146405  35.390  37.644   6.153
 8577POPC   GL246406  35.291  37.802   6.153
 8577POPC   C1A46407  35.386  37.675   6.453
 8577POPC   D2A46408  35.344  37.690   6.753
 8577POPC   C3A46409  35.335  37.695   7.053
 8577POPC   C4A46410  35.391  37.650   7.353
 8577POPC   C1B46411  35.188  37.838   6.453
 8577POPC   C2B46412  35.170  37.862   6.753
 8577POPC   C3B46413  35.194  37.837   7.053
 8577POPC   C4B46414  35.207  37.924   7.353
 8578POPC   NC346415  26.771  12.883   5.553
 8578POPC   PO446416  26.776  12.884   5.853
 8578POPC   GL146417  26.814  12.891   6.153
 8578POPC   GL246418  26.770  12.943   6.153
 8578POPC   C1A46419  26.833  12.882   6.453
 8578POPC   D2A46420  26.865  12.857   6.753
 8578POPC   C3A46421  26.789  12.874   7.053
 8578POPC   C4A46422  26.857  12.850   7.353
 8578POPC   C1B46423  26.615  13.071   6.453
 8578POPC   C2B46424  26.700  13.083   6.753
 8578POPC   C3B46425  26.699  13.021   7.053
 8578POPC   C4B46426  26.693  13.070   7.353
 8579POPC   NC346427   6.644  41.509   5.553
 8579POPC   PO446428   6.613  41.584   5.853
 8579POPC   GL146429   6.598  41.523   6.153
 8579POPC   GL246430   6.551  41.521   6.153
 8579POPC   C1A46431   6.680  41.557   6.453
 8579POPC   D2A46432   6.626  41.569   6.753
 8579POPC   C3A46433   6.646  41.527   7.053
 8579POPC   C4A46434   6.626  41.583   7.353
 8579POPC   C1B46435   6.437  41.468   6.453
 8579POPC   C2B46436   6.448  41.506   6.753
 8579POPC   C3B46437   6.454  41.471   7.053
 8579POPC   C4B46438   6.430  41.459   7.353
 8580POPC   NC346439  40.024  11.325   5.553
 8580POPC   PO446440  39.985  11.321   5.853
 8580POPC   GL146441  39.967  11.316   6.153
 8580POPC   GL246442  39.902  11.211   6.153
 8580POPC   C1A46443  39.977  11.275   6.453
 8580POPC   D2A46444  40.019  11.267   6.753
 8580POPC   C3A46445  40.054  11.254   7.053
 8580POPC   C4A46446  39.959  11.254   7.353
 8580POPC   C1B46447  39.794  11.114   6.453
 8580POPC   C2B46448  39.818  11.099   6.753
 8580POPC   C3B46449  39.783  11.145   7.053
 8580POPC   C4B46450  39.815  11.192   7.353
 8581POPC   NC346451  20.582  20.647   5.553
 8581POPC   PO446452  20.584  20.565   5.853
 8581POPC   GL146453  20.579  20.645   6.153
 8581POPC   GL246454  20.687  20.543   6.153
 8581POPC   C1A46455  20.604  20.583   6.453
 8581POPC   D2A46456  20.637  20.585   6.753
 8581POPC   C3A46457  20.646  20.610   7.053
 8581POPC   C4A46458  20.621  20.645   7.353
 8581POPC   C1B46459  20.784  20.490   6.453
 8581POPC   C2B46460  20.762  20.476   6.753
 8581POPC   C3B46461  20.799  20.488   7.053
 8581POPC   C4B46462  20.754  20.413   7.353
 8582POPC   NC346463  30.728  30.739   5.553
 8582POPC   PO446464  30.702  30.661   5.853
 8582POPC   GL146465  30.667  30.733   6.153
 8582POPC   GL246466  30.610  30.686   6.153
 8582POPC   C1A46467  30.691  30.739   6.453
 8582POPC   D2A46468  30.744  30.735   6.753
 8582POPC   C3A46469  30.731  30.650   7.053
 8582POPC   C4A46470  30.647  30.669   7.353
 8582POPC   C1B46471  30.459  30.623   6.453
 8582POPC   C2B46472  30.439  30.534   6.753
 8582POPC   C3B46473  30.427  30.561   7.053
 8582POPC   C4B46474  30.491  30.611   7.353
 8583POPC   NC346475  43.116  24.469   5.553
 8583POPC   PO446476  43.074  24.510   5.853
 8583POPC   GL146477  43.074  24.519   6.153
 8583POPC   GL246478  43.277  24.548   6.153
 8583POPC   C1A46479  43.130  24.487   6.453
 8583POPC   D2A46480  43.073  24.472   6.753
 8583POPC   C3A46481  43.071  24.474   7.053
 8583POPC   C4A46482  43.089  24.482   7.353
 8583POPC   C1B46483  43.353  24.515   6.453
 8583POPC   C2B46484  43.400  24.535   6.753
 8583POPC   C3B46485  43.302  24.533   7.053
 8583POPC   C4B46486  43.308  24.568   7.353
 8584POPC   NC346487  40.003  28.328   5.553
 8584POPC   PO446488  39.983  28.325   5.853
 8584POPC   GL146489  40.034  28.414   6.153
 8584POPC   GL246490  40.046  28.273   6.153
 8584POPC   C1A46491  39.964  28.379   6.453
 8584POPC   D2A46492  39.958  28.392   6.753
 8584POPC   C3A46493  40.016  28.338   7.053
 8584POPC   C4A46494  39.987  28.352   7.353
 8584POPC   C1B46495  40.050  28.075   6.453
 8584POPC   C2B46496  40.039  28.080   6.753
 8584POPC   C3B46497  40.017  28.089   7.053
 8584POPC   C4B46498  40.030  28.144   7.353
 8585POPC   NC346499  12.876  29.096   5.553
 8585POPC   PO446500  12.827  29.190   5.853
 8585POPC   GL146501  12.805  29.151   6.153
 8585POPC   GL246502  12.692  29.131   6.153
 8585POPC   C1A46503  12.830  29.102   6.453
 8585POPC   D2A46504  12.818  29.149   6.753
 8585POPC   C3A46505  12.883  29.128   7.053
 8585POPC   C4A46506  12.826  29.148   7.353
 8585POPC   C1B46507  12.598  29.004   6.453
 8585POPC   C2B46508  12.650  29.040   6.753
 8585POPC   C3B46509  12.668  29.059   7.053
 8585POPC   C4B46510  12.616  29.086   7.353
 8586POPC   NC346511   5.853  11.277   5.553
 8586POPC   PO446512   5.900  11.282   5.853
 8586POPC   GL146513   5.842  11.324   6.153
 8586POPC   GL246514   5.843  11.359   6.153
 8586POPC   C1A46515   5.819  11.326   6.453
 8586POPC   D2A46516   5.866  11.339   6.753
 8586POPC   C3A46517   5.859  11.344   7.053
 8586POPC   C4A46518   5.879  11.257   7.353
 8586POPC   C1B46519   5.745  11.498   6.453
 8586POPC   C2B46520   5.771  11.547   6.753
 8586POPC   C3B46521   5.785  11.537   7.053
 8586POPC   C4B46522   5.698  11.510   7.353
 8587POPC   NC346523   6.643  22.970   5.553
 8587POPC   PO446524   6.598  22.900   5.853
 8587POPC   GL146525   6.601  22.945   6.153
 8587POPC   GL246526   6.779  23.068   6.153
 8587POPC   C1A46527   6.647  22.895   6.453
 8587POPC   D2A46528   6.692  22.903   6.753
 8587POPC   C3A46529   6.689  22.933   7.053
 8587POPC   C4A46530   6.625  22.977   7.353
 8587POPC   C1B46531   6.844  23.091   6.453
 8587POPC   C2B46532   6.804  23.070   6.753
 8587POPC   C3B46533   6.867  23.150   7.053
 8587POPC   C4B46534   6.858  23.150   7.353
 8588POPC   NC346535  42.302  31.436   5.553
 8588POPC   PO446536  42.315  31.521   5.853
 8588POPC   GL146537  42.376  31.481   6.153
 8588POPC   GL246538  42.465  31.566   6.153
 8588POPC   C1A46539  42.339  31.430   6.453
 8588POPC   D2A46540  42.308  31.449   6.753
 8588POPC   C3A46541  42.339  31.513   7.053
 8588POPC   C4A46542  42.377  31.502   7.353
 8588POPC   C1B46543  42.474  31.682   6.453
 8588POPC   C2B46544  42.459  31.689   6.753
 8588POPC   C3B46545  42.554  31.677   7.053
 8588POPC   C4B46546  42.511  31.653   7.353
 8589POPC   NC346547  10.490  17.524   5.553
 8589POPC   PO446548  10.505  17.492   5.853
 8589POPC   GL146549  10.493  17.552   6.153
 8589POPC   GL246550  10.628  17.475   6.153
 8589POPC   C1A46551  10.517  17.554   6.453
 8589POPC   D2A46552  10.491  17.489   6.753
 8589POPC   C3A46553  10.506  17.476   7.053
 8589POPC   C4A46554  10.554  17.491   7.353
 8589POPC   C1B46555  10.737  17.448   6.453
 8589POPC   C2B46556  10.799  17.362   6.753
 8589POPC   C3B46557  10.732  17.373   7.053
 8589POPC   C4B46558  10.713  17.381   7.353
 8590POPC   NC346559  11.344   5.093   5.553
 8590POPC   PO446560  11.343   5.136   5.853
 8590POPC   GL146561  11.334   5.100   6.153
 8590POPC   GL246562  11.147   5.076   6.153
 8590POPC   C1A46563  11.307   5.057   6.453
 8590POPC   D2A46564  11.307   5.052   6.753
 8590POPC   C3A46565  11.296   5.120   7.053
 8590POPC   C4A46566  11.319   5.130   7.353
 8590POPC   C1B46567  11.103   5.000   6.453
 8590POPC   C2B46568  11.117   4.998   6.753
 8590POPC   C3B46569  11.091   5.011   7.053
 8590POPC   C4B46570  11.039   5.012   7.353
 8591POPC   NC346571  26.054  14.450   5.553
 8591POPC   PO446572  26.068  14.368   5.853
 8591POPC   GL146573  26.050  14.363   6.153
 8591POPC   GL246574  26.187  14.420   6.153
 8591POPC   C1A46575  25.998  14.365   6.453
 8591POPC   D2A46576  26.021  14.392   6.753
 8591POPC   C3A46577  26.024  14.409   7.053
 8591POPC   C4A46578  26.091  14.447   7.353
 8591POPC   C1B46579  26.256  14.423   6.453
 8591POPC   C2B46580  26.257  14.401   6.753
 8591POPC   C3B46581  26.271  14.429   7.053
 8591POPC   C4B46582  26.244  14.472   7.353
 8592POPC   NC346583   8.929  31.423   5.553
 8592POPC   PO446584   9.019  31.449   5.853
 8592POPC   GL146585   8.949  31.503   6.153
 8592POPC   GL246586   8.962  31.592   6.153
 8592POPC   C1A46587   8.987  31.467   6.453
 8592POPC   D2A46588   8.945  31.458   6.753
 8592POPC   C3A46589   8.968  31.515   7.053
 8592POPC   C4A46590   8.935  31.500   7.353
 8592POPC   C1B46591   8.900  31.663   6.453
 8592POPC   C2B46592   8.841  31.696   6.753
 8592POPC   C3B46593   8.845  31.723   7.053
 8592POPC   C4B46594   8.890  31.718   7.353
 8593POPC   NC346595  15.141  22.905   5.553
 8593POPC   PO446596  15.198  22.983   5.853
 8593POPC   GL146597  15.180  22.948   6.153
 8593POPC   GL246598  15.267  23.027   6.153
 8593POPC   C1A46599  15.137  22.933   6.453
 8593POPC   D2A46600  15.162  22.988   6.753
 8593POPC   C3A46601  15.154  22.923   7.053
 8593POPC   C4A46602  15.202  22.918   7.353
 8593POPC   C1B46603  15.400  23.032   6.453
 8593POPC   C2B46604  15.396  23.077   6.753
 8593POPC   C3B46605  15.358  23.077   7.053
 8593POPC   C4B46606  15.430  23.059   7.353
 8594POPC   NC346607   7.452  26.808   5.553
 8594POPC   PO446608   7.425  26.830   5.853
 8594POPC   GL146609   7.392  26.844   6.153
 8594POPC   GL246610   7.309  26.901   6.153
 8594POPC   C1A46611   7.372  26.785   6.453
 8594POPC   D2A46612   7.450  26.786   6.753
 8594POPC   C3A46613   7.447  26.777   7.053
 8594POPC   C4A46614   7.413  26.830   7.353
 8594POPC   C1B46615   7.210  27.025   6.453
 8594POPC   C2B46616   7.218  27.026   6.753
 8594POPC   C3B46617   7.295  26.984   7.053
 8594POPC   C4B46618   7.226  27.026   7.353
 8595POPC   NC346619  23.694   8.202   5.553
 8595POPC   PO446620  23.682   8.200   5.853
 8595POPC   GL146621  23.721   8.166   6.153
 8595POPC   GL246622  23.672   8.316   6.153
 8595POPC   C1A46623  23.763   8.217   6.453
 8595POPC   D2A46624  23.681   8.177   6.753
 8595POPC   C3A46625  23.754   8.179   7.053
 8595POPC   C4A46626  23.734   8.234   7.353
 8595POPC   C1B46627  23.541   8.375   6.453
 8595POPC   C2B46628  23.552   8.387   6.753
 8595POPC   C3B46629  23.493   8.410   7.053
 8595POPC   C4B46630  23.544   8.355   7.353
 8596POPC   NC346631  11.258  26.013   5.553
 8596POPC   PO446632  11.254  26.083   5.853
 8596POPC   GL146633  11.298  26.090   6.153
 8596POPC   GL246634  11.378  25.995   6.153
 8596POPC   C1A46635  11.327  26.085   6.453
 8596POPC   D2A46636  11.316  26.088   6.753
 8596POPC   C3A46637  11.285  26.001   7.053
 8596POPC   C4A46638  11.322  26.014   7.353
 8596POPC   C1B46639  11.535  25.944   6.453
 8596POPC   C2B46640  11.540  25.853   6.753
 8596POPC   C3B46641  11.532  25.870   7.053
 8596POPC   C4B46642  11.523  25.908   7.353
 8597POPC   NC346643  40.803   3.570   5.553
 8597POPC   PO446644  40.780   3.563   5.853
 8597POPC   GL146645  40.752   3.509   6.153
 8597POPC   GL246646  40.847   3.461   6.153
 8597POPC   C1A46647  40.755   3.573   6.453
 8597POPC   D2A46648  40.771   3.563   6.753
 8597POPC   C3A46649  40.742   3.534   7.053
 8597POPC   C4A46650  40.795   3.503   7.353
 8597POPC   C1B46651  40.959   3.332   6.453
 8597POPC   C2B46652  40.990   3.383   6.753
 8597POPC   C3B46653  40.972   3.326   7.053
 8597POPC   C4B46654  40.964   3.357   7.353
 8598POPC   NC346655  30.707   9.729   5.553
 8598POPC   PO446656  30.737   9.774   5.853
 8598POPC   GL146657  30.665   9.791   6.153
 8598POPC   GL246658  30.776   9.863   6.153
 8598POPC   C1A46659  30.665   9.782   6.453
 8598POPC   D2A46660  30.678   9.716   6.753
 8598POPC   C3A46661  30.703   9.764   7.053
 8598POPC   C4A46662  30.661   9.758   7.353
 8598POPC   C1B46663  30.817   9.959   6.453
 8598POPC   C2B46664  30.847   9.983   6.753
 8598POPC   C3B46665  30.788  10.025   7.053
 8598POPC   C4B46666  30.778   9.984   7.353
 8599POPC   NC346667  36.141   5.912   5.553
 8599POPC   PO446668  36.174   5.837   5.853
 8599POPC   GL146669  36.092   5.866   6.153
 8599POPC   GL246670  36.255   5.929   6.153
 8599POPC   C1A46671  36.131   5.869   6.453
 8599POPC   D2A46672  36.125   5.896   6.753
 8599POPC   C3A46673  36.110   5.907   7.053
 8599POPC   C4A46674  36.132   5.881   7.353
 8599POPC   C1B46675  36.308   6.039   6.453
 8599POPC   C2B46676  36.278   6.079   6.753
 8599POPC   C3B46677  36.355   6.076   7.053
 8599POPC   C4B46678  36.305   6.011   7.353
 8600POPC   NC346679  28.386   4.318   5.553
 8600POPC   PO446680  28.408   4.364   5.853
 8600POPC   GL146681  28.348   4.283   6.153
 8600POPC   GL246682  28.254   4.436   6.153
 8600POPC   C1A46683  28.361   4.290   6.453
 8600POPC   D2A46684  28.371   4.342   6.753
 8600POPC   C3A46685  28.387   4.281   7.053
 8600POPC   C4A46686  28.368   4.332   7.353
 8600POPC   C1B46687  28.204   4.565   6.453
 8600POPC   C2B46688  28.231   4.474   6.753
 8600POPC   C3B46689  28.177   4.516   7.053
 8600POPC   C4B46690  28.239   4.479   7.353
 8601POPC   NC346691  33.764  12.037   5.553
 8601POPC   PO446692  33.800  12.041   5.853
 8601POPC   GL146693  33.809  12.056   6.153
 8601POPC   GL246694  33.723  12.053   6.153
 8601POPC   C1A46695  33.800  12.076   6.453
 8601POPC   D2A46696  33.801  12.110   6.753
 8601POPC   C3A46697  33.827  12.099   7.053
 8601POPC   C4A46698  33.781  12.057   7.353
 8601POPC   C1B46699  33.511  12.105   6.453
 8601POPC   C2B46700  33.572  12.118   6.753
 8601POPC   C3B46701  33.572  12.043   7.053
 8601POPC   C4B46702  33.503  12.027   7.353
 8602POPC   NC346703  40.798  34.546   5.553
 8602POPC   PO446704  40.791  34.527   5.853
 8602POPC   GL146705  40.820  34.555   6.153
 8602POPC   GL246706  40.922  34.577   6.153
 8602POPC   C1A46707  40.807  34.594   6.453
 8602POPC   D2A46708  40.744  34.548   6.753
 8602POPC   C3A46709  40.747  34.531   7.053
 8602POPC   C4A46710  40.832  34.554   7.353
 8602POPC   C1B46711  41.028  34.635   6.453
 8602POPC   C2B46712  41.032  34.647   6.753
 8602POPC   C3B46713  40.988  34.637   7.053
 8602POPC   C4B46714  41.070  34.642   7.353
 8603POPC   NC346715   3.552  35.356   5.553
 8603POPC   PO446716   3.503  35.355   5.853
 8603POPC   GL146717   3.541  35.394   6.153
 8603POPC   GL246718   3.638  35.314   6.153
 8603POPC   C1A46719   3.509  35.351   6.453
 8603POPC   D2A46720   3.516  35.368   6.753
 8603POPC   C3A46721   3.523  35.385   7.053
 8603POPC   C4A46722   3.493  35.347   7.353
 8603POPC   C1B46723   3.742  35.260   6.453
 8603POPC   C2B46724   3.722  35.205   6.753
 8603POPC   C3B46725   3.722  35.263   7.053
 8603POPC   C4B46726   3.760  35.198   7.353
 8604POPC   NC346727  11.286  33.763   5.553
 8604POPC   PO446728  11.264  33.792   5.853
 8604POPC   GL146729  11.298  33.798   6.153
 8604POPC   GL246730  11.211  33.706   6.153
 8604POPC   C1A46731  11.341  33.842   6.453
 8604POPC   D2A46732  11.343  33.790   6.753
 8604POPC   C3A46733  11.311  33.836   7.053
 8604POPC   C4A46734  11.316  33.830   7.353
 8604POPC   C1B46735  11.145  33.623   6.453
 8604POPC   C2B46736  11.111  33.652   6.753
 8604POPC   C3B46737  11.077  33.666   7.053
 8604POPC   C4B46738  11.094  33.618   7.353
 8605POPC   NC346739  19.877  40.775   5.553
 8605POPC   PO446740  19.805  40.764   5.853
 8605POPC   GL146741  19.818  40.832   6.153
 8605POPC   GL246742  19.747  40.754   6.153
 8605POPC   C1A46743  19.832  40.756   6.453
 8605POPC   D2A46744  19.798  40.759   6.753
 8605POPC   C3A46745  19.861  40.808   7.053
 8605POPC   C4A46746  19.830  40.753   7.353
 8605POPC   C1B46747  19.565  40.679   6.453
 8605POPC   C2B46748  19.552  40.738   6.753
 8605POPC   C3B46749  19.635  40.739   7.053
 8605POPC   C4B46750  19.651  40.666   7.353
 8606POPC   NC346751   5.909  30.655   5.553
 8606POPC   PO446752   5.835  30.701   5.853
 8606POPC   GL146753   5.822  30.682   6.153
 8606POPC   GL246754   5.846  30.597   6.153
 8606POPC   C1A46755   5.854  30.660   6.453
 8606POPC   D2A46756   5.896  30.742   6.753
 8606POPC   C3A46757   5.914  30.672   7.053
 8606POPC   C4A46758   5.916  30.700   7.353
 8606POPC   C1B46759   5.899  30.425   6.453
 8606POPC   C2B46760   5.822  30.424   6.753
 8606POPC   C3B46761   5.884  30.454   7.053
 8606POPC   C4B46762   5.866  30.439   7.353
 8607POPC   NC346763  22.153  17.535   5.553
 8607POPC   PO446764  22.139  17.483   5.853
 8607POPC   GL146765  22.113  17.520   6.153
 8607POPC   GL246766  22.208  17.640   6.153
 8607POPC   C1A46767  22.155  17.472   6.453
 8607POPC   D2A46768  22.131  17.520   6.753
 8607POPC   C3A46769  22.163  17.537   7.053
 8607POPC   C4A46770  22.177  17.479   7.353
 8607POPC   C1B46771  22.235  17.764   6.453
 8607POPC   C2B46772  22.305  17.753   6.753
 8607POPC   C3B46773  22.312  17.779   7.053
 8607POPC   C4B46774  22.275  17.716   7.353
 8608POPC   NC346775  12.082   2.810   5.553
 8608POPC   PO446776  12.042   2.718   5.853
 8608POPC   GL146777  12.102   2.746   6.153
 8608POPC   GL246778  11.907   2.752   6.153
 8608POPC   C1A46779  12.104   2.776   6.453
 8608POPC   D2A46780  12.085   2.774   6.753
 8608POPC   C3A46781  12.105   2.786   7.053
 8608POPC   C4A46782  12.069   2.736   7.353
 8608POPC   C1B46783  11.800   2.724   6.453
 8608POPC   C2B46784  11.810   2.792   6.753
 8608POPC   C3B46785  11.819   2.762   7.053
 8608POPC   C4B46786  11.787   2.767   7.353
 8609POPC   NC346787   1.979  22.145   5.553
 8609POPC   PO446788   2.031  22.204   5.853
 8609POPC   GL146789   1.970  22.136   6.153
 8609POPC   GL246790   2.089  22.147   6.153
 8609POPC   C1A46791   2.030  22.122   6.453
 8609POPC   D2A46792   2.038  22.176   6.753
 8609POPC   C3A46793   1.962  22.193   7.053
 8609POPC   C4A46794   1.983  22.210   7.353
 8609POPC   C1B46795   2.203  22.213   6.453
 8609POPC   C2B46796   2.221  22.211   6.753
 8609POPC   C3B46797   2.256  22.189   7.053
 8609POPC   C4B46798   2.215  22.213   7.353
 8610POPC   NC346799  37.672  43.862   5.553
 8610POPC   PO446800  37.665  43.907   5.853
 8610POPC   GL146801  37.717  43.879   6.153
 8610POPC   GL246802  37.786  43.897   6.153
 8610POPC   C1A46803  37.697  43.839   6.453
 8610POPC   D2A46804  37.712  43.856   6.753
 8610POPC   C3A46805  37.675  43.858   7.053
 8610POPC   C4A46806  37.651  43.930   7.353
 8610POPC   C1B46807  37.872  44.049   6.453
 8610POPC   C2B46808  37.853  44.021   6.753
 8610POPC   C3B46809  37.854  44.017   7.053
 8610POPC   C4B46810  37.916  44.055   7.353
 8611POPC   NC346811  36.857  44.653   5.553
 8611POPC   PO446812  36.924  44.682   5.853
 8611POPC   GL146813  36.918  44.707   6.153
 8611POPC   GL246814  37.015  44.605   6.153
 8611POPC   C1A46815  36.868  44.629   6.453
 8611POPC   D2A46816  36.951  44.689   6.753
 8611POPC   C3A46817  36.932  44.663   7.053
 8611POPC   C4A46818  36.857  44.615   7.353
 8611POPC   C1B46819  37.094  44.486   6.453
 8611POPC   C2B46820  37.038  44.474   6.753
 8611POPC   C3B46821  37.129  44.517   7.053
 8611POPC   C4B46822  37.119  44.527   7.353
 8612POPC   NC346823  38.473   6.606   5.553
 8612POPC   PO446824  38.419   6.609   5.853
 8612POPC   GL146825  38.445   6.674   6.153
 8612POPC   GL246826  38.574   6.696   6.153
 8612POPC   C1A46827  38.472   6.628   6.453
 8612POPC   D2A46828  38.426   6.675   6.753
 8612POPC   C3A46829  38.427   6.625   7.053
 8612POPC   C4A46830  38.503   6.611   7.353
 8612POPC   C1B46831  38.663   6.764   6.453
 8612POPC   C2B46832  38.722   6.751   6.753
 8612POPC   C3B46833  38.726   6.720   7.053
 8612POPC   C4B46834  38.717   6.711   7.353
 8613POPC   NC346835  37.725  33.798   5.553
 8613POPC   PO446836  37.659  33.807   5.853
 8613POPC   GL146837  37.707  33.766   6.153
 8613POPC   GL246838  37.725  33.934   6.153
 8613POPC   C1A46839  37.727  33.806   6.453
 8613POPC   D2A46840  37.678  33.783   6.753
 8613POPC   C3A46841  37.672  33.827   7.053
 8613POPC   C4A46842  37.702  33.777   7.353
 8613POPC   C1B46843  37.744  34.050   6.453
 8613POPC   C2B46844  37.706  34.049   6.753
 8613POPC   C3B46845  37.656  34.004   7.053
 8613POPC   C4B46846  37.743  34.016   7.353
 8614POPC   NC346847  19.012  19.089   5.553
 8614POPC   PO446848  19.096  19.089   5.853
 8614POPC   GL146849  19.022  19.036   6.153
 8614POPC   GL246850  19.117  19.165   6.153
 8614POPC   C1A46851  19.055  19.052   6.453
 8614POPC   D2A46852  19.104  19.079   6.753
 8614POPC   C3A46853  19.025  19.100   7.053
 8614POPC   C4A46854  19.051  19.031   7.353
 8614POPC   C1B46855  19.067  19.271   6.453
 8614POPC   C2B46856  19.088  19.324   6.753
 8614POPC   C3B46857  19.128  19.287   7.053
 8614POPC   C4B46858  19.052  19.329   7.353
 8615POPC   NC346859  21.425  43.901   5.553
 8615POPC   PO446860  21.398  43.887   5.853
 8615POPC   GL146861  21.372  43.899   6.153
 8615POPC   GL246862  21.291  43.925   6.153
 8615POPC   C1A46863  21.384  43.856   6.453
 8615POPC   D2A46864  21.429  43.903   6.753
 8615POPC   C3A46865  21.348  43.914   7.053
 8615POPC   C4A46866  21.393  43.930   7.353
 8615POPC   C1B46867  21.187  44.004   6.453
 8615POPC   C2B46868  21.199  44.021   6.753
 8615POPC   C3B46869  21.170  44.033   7.053
 8615POPC   C4B46870  21.118  43.999   7.353
 8616POPC   NC346871   2.784  32.995   5.553
 8616POPC   PO446872   2.805  33.005   5.853
 8616POPC   GL146873   2.722  33.048   6.153
 8616POPC   GL246874   2.757  33.188   6.153
 8616POPC   C1A46875   2.787  33.072   6.453
 8616POPC   D2A46876   2.770  32.985   6.753
 8616POPC   C3A46877   2.772  33.064   7.053
 8616POPC   C4A46878   2.770  33.051   7.353
 8616POPC   C1B46879   2.749  33.255   6.453
 8616POPC   C2B46880   2.774  33.308   6.753
 8616POPC   C3B46881   2.770  33.297   7.053
 8616POPC   C4B46882   2.827  33.237   7.353
 8617POPC   NC346883   1.193   7.445   5.553
 8617POPC   PO446884   1.219   7.374   5.853
 8617POPC   GL146885   1.252   7.461   6.153
 8617POPC   GL246886   1.184   7.291   6.153
 8617POPC   C1A46887   1.191   7.403   6.453
 8617POPC   D2A46888   1.188   7.440   6.753
 8617POPC   C3A46889   1.246   7.451   7.053
 8617POPC   C4A46890   1.179   7.418   7.353
 8617POPC   C1B46891   1.198   7.199   6.453
 8617POPC   C2B46892   1.202   7.193   6.753
 8617POPC   C3B46893   1.140   7.137   7.053
 8617POPC   C4B46894   1.131   7.224   7.353
 8618POPC   NC346895  36.930  22.959   5.553
 8618POPC   PO446896  36.934  22.908   5.853
 8618POPC   GL146897  36.856  22.986   6.153
 8618POPC   GL246898  36.987  23.105   6.153
 8618POPC   C1A46899  36.862  22.950   6.453
 8618POPC   D2A46900  36.937  22.918   6.753
 8618POPC   C3A46901  36.925  22.933   7.053
 8618POPC   C4A46902  36.884  22.901   7.353
 8618POPC   C1B46903  36.930  23.129   6.453
 8618POPC   C2B46904  36.928  23.136   6.753
 8618POPC   C3B46905  36.927  23.184   7.053
 8618POPC   C4B46906  36.923  23.190   7.353
 8619POPC   NC346907  44.689  19.822   5.553
 8619POPC   PO446908  44.617  19.829   5.853
 8619POPC   GL146909  44.707  19.793   6.153
 8619POPC   GL246910  44.775  19.883   6.153
 8619POPC   C1A46911  44.698  19.863   6.453
 8619POPC   D2A46912  44.712  19.840   6.753
 8619POPC   C3A46913  44.664  19.827   7.053
 8619POPC   C4A46914  44.710  19.871   7.353
 8619POPC   C1B46915  44.814  20.046   6.453
 8619POPC   C2B46916  44.820  19.988   6.753
 8619POPC   C3B46917  44.848  19.993   7.053
 8619POPC   C4B46918  44.808  20.009   7.353
 8620POPC   NC346919  34.536   6.610   5.553
 8620POPC   PO446920  34.584   6.683   5.853
 8620POPC   GL146921  34.624   6.674   6.153
 8620POPC   GL246922  34.644   6.753   6.153
 8620POPC   C1A46923  34.550   6.651   6.453
 8620POPC   D2A46924  34.560   6.669   6.753
 8620POPC   C3A46925  34.567   6.670   7.053
 8620POPC   C4A46926  34.535   6.610   7.353
 8620POPC   C1B46927  34.686   6.854   6.453
 8620POPC   C2B46928  34.657   6.809   6.753
 8620POPC   C3B46929  34.725   6.826   7.053
 8620POPC   C4B46930  34.676   6.891   7.353
 8621POPC   NC346931  33.020  15.909   5.553
 8621POPC   PO446932  33.027  15.993   5.853
 8621POPC   GL146933  33.017  15.993   6.153
 8621POPC   GL246934  33.137  15.897   6.153
 8621POPC   C1A46935  33.069  15.917   6.453
 8621POPC   D2A46936  32.981  15.921   6.753
 8621POPC   C3A46937  33.026  15.951   7.053
 8621POPC   C4A46938  33.051  15.978   7.353
 8621POPC   C1B46939  33.249  15.856   6.453
 8621POPC   C2B46940  33.234  15.879   6.753
 8621POPC   C3B46941  33.252  15.862   7.053
 8621POPC   C4B46942  33.252  15.794   7.353
 8622POPC   NC346943   9.749   0.402   5.553
 8622POPC   PO446944   9.706   0.475   5.853
 8622POPC   GL146945   9.760   0.398   6.153
 8622POPC   GL246946   9.852   0.566   6.153
 8622POPC   C1A46947   9.724   0.463   6.453
 8622POPC   D2A46948   9.798   0.396   6.753
 8622POPC   C3A46949   9.744   0.397   7.053
 8622POPC   C4A46950   9.725   0.425   7.353
 8622POPC   C1B46951   9.889   0.622   6.453
 8622POPC   C2B46952   9.934   0.653   6.753
 8622POPC   C3B46953   9.924   0.593   7.053
 8622POPC   C4B46954   9.933   0.570   7.353
 8623POPC   NC346955  26.030   8.926   5.553
 8623POPC   PO446956  26.080   8.958   5.853
 8623POPC   GL146957  26.038   9.004   6.153
 8623POPC   GL246958  25.938   9.069   6.153
 8623POPC   C1A46959  26.088   8.941   6.453
 8623POPC   D2A46960  26.025   8.992   6.753
 8623POPC   C3A46961  26.058   8.960   7.053
 8623POPC   C4A46962  26.077   8.925   7.353
 8623POPC   C1B46963  25.913   9.138   6.453
 8623POPC   C2B46964  25.887   9.109   6.753
 8623POPC   C3B46965  25.859   9.160   7.053
 8623POPC   C4B46966  25.878   9.145   7.353
 8624POPC   NC346967  34.578  25.217   5.553
 8624POPC   PO446968  34.601  25.247   5.853
 8624POPC   GL146969  34.534  25.307   6.153
 8624POPC   GL246970  34.407  25.255   6.153
 8624POPC   C1A46971  34.591  25.269   6.453
 8624POPC   D2A46972  34.532  25.270   6.753
 8624POPC   C3A46973  34.615  25.306   7.053
 8624POPC   C4A46974  34.528  25.293   7.353
 8624POPC   C1B46975  34.361  25.194   6.453
 8624POPC   C2B46976  34.334  25.205   6.753
 8624POPC   C3B46977  34.329  25.155   7.053
 8624POPC   C4B46978  34.302  25.248   7.353
 8625POPC   NC346979  33.033   9.735   5.553
 8625POPC   PO446980  32.991   9.770   5.853
 8625POPC   GL146981  33.050   9.768   6.153
 8625POPC   GL246982  32.863   9.765   6.153
 8625POPC   C1A46983  33.014   9.699   6.453
 8625POPC   D2A46984  33.006   9.771   6.753
 8625POPC   C3A46985  32.978   9.774   7.053
 8625POPC   C4A46986  32.979   9.735   7.353
 8625POPC   C1B46987  32.748   9.783   6.453
 8625POPC   C2B46988  32.748   9.763   6.753
 8625POPC   C3B46989  32.772   9.714   7.053
 8625POPC   C4B46990  32.820   9.764   7.353
 8626POPC   NC346991   9.765  21.364   5.553
 8626POPC   PO446992   9.730  21.417   5.853
 8626POPC   GL146993   9.744  21.398   6.153
 8626POPC   GL246994   9.628  21.311   6.153
 8626POPC   C1A46995   9.734  21.369   6.453
 8626POPC   D2A46996   9.796  21.413   6.753
 8626POPC   C3A46997   9.707  21.429   7.053
 8626POPC   C4A46998   9.731  21.416   7.353
 8626POPC   C1B46999   9.520  21.267   6.453
 8626POPC   C2B47000   9.536  21.188   6.753
 8626POPC   C3B47001   9.561  21.232   7.053
 8626POPC   C4B47002   9.547  21.248   7.353
 8627POPC   NC347003  31.470   0.422   5.553
 8627POPC   PO447004  31.461   0.454   5.853
 8627POPC   GL147005  31.423   0.477   6.153
 8627POPC   GL247006  31.566   0.408   6.153
 8627POPC   C1A47007  31.485   0.464   6.453
 8627POPC   D2A47008  31.500   0.435   6.753
 8627POPC   C3A47009  31.504   0.404   7.053
 8627POPC   C4A47010  31.449   0.398   7.353
 8627POPC   C1B47011  31.708   0.430   6.453
 8627POPC   C2B47012  31.765   0.355   6.753
 8627POPC   C3B47013  31.675   0.401   7.053
 8627POPC   C4B47014  31.758   0.349   7.353
 8628POPC   NC347015  21.383  44.672   5.553
 8628POPC   PO447016  21.403  44.678   5.853
 8628POPC   GL147017  21.399  44.673   6.153
 8628POPC   GL247018  21.531  44.673   6.153
 8628POPC   C1A47019  21.367  44.618   6.453
 8628POPC   D2A47020  21.366  44.702   6.753
 8628POPC   C3A47021  21.395  44.671   7.053
 8628POPC   C4A47022  21.436  44.709   7.353
 8628POPC   C1B47023  21.600  44.783   6.453
 8628POPC   C2B47024  21.580  44.731   6.753
 8628POPC   C3B47025  21.656  44.763   7.053
 8628POPC   C4B47026  21.638  44.728   7.353
 8629POPC   NC347027  34.536  11.314   5.553
 8629POPC   PO447028  34.573  11.340   5.853
 8629POPC   GL147029  34.593  11.264   6.153
 8629POPC   GL247030  34.459  11.213   6.153
 8629POPC   C1A47031  34.569  11.292   6.453
 8629POPC   D2A47032  34.625  11.271   6.753
 8629POPC   C3A47033  34.549  11.331   7.053
 8629POPC   C4A47034  34.530  11.329   7.353
 8629POPC   C1B47035  34.355  11.198   6.453
 8629POPC   C2B47036  34.324  11.112   6.753
 8629POPC   C3B47037  34.402  11.159   7.053
 8629POPC   C4B47038  34.380  11.112   7.353
 8630POPC   NC347039  32.199   8.928   5.553
 8630POPC   PO447040  32.207   8.980   5.853
 8630POPC   GL147041  32.263   8.971   6.153
 8630POPC   GL247042  32.111   9.051   6.153
 8630POPC   C1A47043  32.230   8.968   6.453
 8630POPC   D2A47044  32.199   8.982   6.753
 8630POPC   C3A47045  32.200   8.947   7.053
 8630POPC   C4A47046  32.251   8.976   7.353
 8630POPC   C1B47047  32.006   9.149   6.453
 8630POPC   C2B47048  32.084   9.072   6.753
 8630POPC   C3B47049  32.035   9.157   7.053
 8630POPC   C4B47050  32.086   9.132   7.353
 8631POPC   NC347051  26.793  36.132   5.553
 8631POPC   PO447052  26.779  36.175   5.853
 8631POPC   GL147053  26.767  36.089   6.153
 8631POPC   GL247054  26.648  36.114   6.153
 8631POPC   C1A47055  26.814  36.175   6.453
 8631POPC   D2A47056  26.851  36.157   6.753
 8631POPC   C3A47057  26.846  36.136   7.053
 8631POPC   C4A47058  26.861  36.129   7.353
 8631POPC   C1B47059  26.592  36.178   6.453
 8631POPC   C2B47060  26.578  36.141   6.753
 8631POPC   C3B47061  26.587  36.168   7.053
 8631POPC   C4B47062  26.538  36.121   7.353
 8632POPC   NC347063  30.730   0.487   5.553
 8632POPC   PO447064  30.657   0.431   5.853
 8632POPC   GL147065  30.664   0.409   6.153
 8632POPC   GL247066  30.832   0.519   6.153
 8632POPC   C1A47067  30.659   0.437   6.453
 8632POPC   D2A47068  30.668   0.485   6.753
 8632POPC   C3A47069  30.707   0.433   7.053
 8632POPC   C4A47070  30.682   0.463   7.353
 8632POPC   C1B47071  30.901   0.556   6.453
 8632POPC   C2B47072  30.920   0.494   6.753
 8632POPC   C3B47073  30.956   0.490   7.053
 8632POPC   C4B47074  30.968   0.536   7.353
 8633POPC   NC347075  21.425  20.641   5.553
 8633POPC   PO447076  21.358  20.655   5.853
 8633POPC   GL147077  21.373  20.582   6.153
 8633POPC   GL247078  21.414  20.679   6.153
 8633POPC   C1A47079  21.421  20.615   6.453
 8633POPC   D2A47080  21.342  20.596   6.753
 8633POPC   C3A47081  21.428  20.562   7.053
 8633POPC   C4A47082  21.377  20.645   7.353
 8633POPC   C1B47083  21.560  20.803   6.453
 8633POPC   C2B47084  21.509  20.809   6.753
 8633POPC   C3B47085  21.585  20.814   7.053
 8633POPC   C4B47086  21.557  20.804   7.353
 8634POPC   NC347087  12.811   8.943   5.553
 8634POPC   PO447088  12.847   9.013   5.853
 8634POPC   GL147089  12.813   8.975   6.153
 8634POPC   GL247090  12.765   8.995   6.153
 8634POPC   C1A47091  12.842   8.998   6.453
 8634POPC   D2A47092  12.878   9.019   6.753
 8634POPC   C3A47093  12.843   8.931   7.053
 8634POPC   C4A47094  12.887   8.947   7.353
 8634POPC   C1B47095  12.671   9.071   6.453
 8634POPC   C2B47096  12.596   9.069   6.753
 8634POPC   C3B47097  12.589   9.100   7.053
 8634POPC   C4B47098  12.638   9.108   7.353
 8635POPC   NC347099  26.069  30.669   5.553
 8635POPC   PO447100  26.027  30.728   5.853
 8635POPC   GL147101  26.089  30.728   6.153
 8635POPC   GL247102  26.153  30.759   6.153
 8635POPC   C1A47103  25.995  30.674   6.453
 8635POPC   D2A47104  26.069  30.683   6.753
 8635POPC   C3A47105  26.071  30.677   7.053
 8635POPC   C4A47106  26.048  30.665   7.353
 8635POPC   C1B47107  26.141  30.861   6.453
 8635POPC   C2B47108  26.202  30.894   6.753
 8635POPC   C3B47109  26.154  30.883   7.053
 8635POPC   C4B47110  26.201  30.908   7.353
 8636POPC   NC347111  33.841  13.655   5.553
 8636POPC   PO447112  33.752  13.588   5.853
 8636POPC   GL147113  33.845  13.657   6.153
 8636POPC   GL247114  33.852  13.752   6.153
 8636POPC   C1A47115  33.778  13.650   6.453
 8636POPC   D2A47116  33.845  13.607   6.753
 8636POPC   C3A47117  33.761  13.670   7.053
 8636POPC   C4A47118  33.819  13.676   7.353
 8636POPC   C1B47119  34.028  13.805   6.453
 8636POPC   C2B47120  33.984  13.827   6.753
 8636POPC   C3B47121  33.984  13.761   7.053
 8636POPC   C4B47122  34.018  13.765   7.353
 8637POPC   NC347123  43.123  35.379   5.553
 8637POPC   PO447124  43.146  35.354   5.853
 8637POPC   GL147125  43.066  35.350   6.153
 8637POPC   GL247126  43.030  35.254   6.153
 8637POPC   C1A47127  43.118  35.320   6.453
 8637POPC   D2A47128  43.139  35.310   6.753
 8637POPC   C3A47129  43.141  35.344   7.053
 8637POPC   C4A47130  43.140  35.313   7.353
 8637POPC   C1B47131  42.942  35.203   6.453
 8637POPC   C2B47132  42.947  35.226   6.753
 8637POPC   C3B47133  42.882  35.225   7.053
 8637POPC   C4B47134  42.949  35.229   7.353
 8638POPC   NC347135   7.433  10.521   5.553
 8638POPC   PO447136   7.412  10.540   5.853
 8638POPC   GL147137   7.403  10.559   6.153
 8638POPC   GL247138   7.393  10.600   6.153
 8638POPC   C1A47139   7.440  10.535   6.453
 8638POPC   D2A47140   7.448  10.488   6.753
 8638POPC   C3A47141   7.448  10.476   7.053
 8638POPC   C4A47142   7.468  10.487   7.353
 8638POPC   C1B47143   7.386  10.726   6.453
 8638POPC   C2B47144   7.413  10.757   6.753
 8638POPC   C3B47145   7.419  10.812   7.053
 8638POPC   C4B47146   7.347  10.774   7.353
 8639POPC   NC347147  12.817  21.393   5.553
 8639POPC   PO447148  12.817  21.419   5.853
 8639POPC   GL147149  12.819  21.389   6.153
 8639POPC   GL247150  12.939  21.365   6.153
 8639POPC   C1A47151  12.822  21.386   6.453
 8639POPC   D2A47152  12.850  21.422   6.753
 8639POPC   C3A47153  12.836  21.413   7.053
 8639POPC   C4A47154  12.847  21.361   7.353
 8639POPC   C1B47155  13.140  21.289   6.453
 8639POPC   C2B47156  13.107  21.365   6.753
 8639POPC   C3B47157  13.135  21.363   7.053
 8639POPC   C4B47158  13.109  21.280   7.353
 8640POPC   NC347159  31.441  29.107   5.553
 8640POPC   PO447160  31.433  29.120   5.853
 8640POPC   GL147161  31.442  29.132   6.153
 8640POPC   GL247162  31.345  29.250   6.153
 8640POPC   C1A47163  31.442  29.188   6.453
 8640POPC   D2A47164  31.512  29.141   6.753
 8640POPC   C3A47165  31.466  29.173   7.053
 8640POPC   C4A47166  31.431  29.160   7.353
 8640POPC   C1B47167  31.285  29.260   6.453
 8640POPC   C2B47168  31.252  29.294   6.753
 8640POPC   C3B47169  31.302  29.261   7.053
 8640POPC   C4B47170  31.209  29.225   7.353
 8641POPC   NC347171  22.158  40.823   5.553
 8641POPC   PO447172  22.204  40.780   5.853
 8641POPC   GL147173  22.180  40.806   6.153
 8641POPC   GL247174  22.042  40.789   6.153
 8641POPC   C1A47175  22.185  40.749   6.453
 8641POPC   D2A47176  22.189  40.807   6.753
 8641POPC   C3A47177  22.173  40.818   7.053
 8641POPC   C4A47178  22.121  40.823   7.353
 8641POPC   C1B47179  21.947  40.771   6.453
 8641POPC   C2B47180  21.897  40.775   6.753
 8641POPC   C3B47181  21.905  40.732   7.053
 8641POPC   C4B47182  21.961  40.691   7.353
 8642POPC   NC347183  23.713  11.317   5.553
 8642POPC   PO447184  23.694  11.311   5.853
 8642POPC   GL147185  23.759  11.255   6.153
 8642POPC   GL247186  23.609  11.267   6.153
 8642POPC   C1A47187  23.761  11.312   6.453
 8642POPC   D2A47188  23.745  11.303   6.753
 8642POPC   C3A47189  23.678  11.251   7.053
 8642POPC   C4A47190  23.730  11.290   7.353
 8642POPC   C1B47191  23.455  11.274   6.453
 8642POPC   C2B47192  23.452  11.272   6.753
 8642POPC   C3B47193  23.429  11.246   7.053
 8642POPC   C4B47194  23.469  11.265   7.353
 8643POPC   NC347195  21.429  11.318   5.553
 8643POPC   PO447196  21.391  11.325   5.853
 8643POPC   GL147197  21.374  11.254   6.153
 8643POPC   GL247198  21.519  11.324   6.153
 8643POPC   C1A47199  21.351  11.316   6.453
 8643POPC   D2A47200  21.389  11.260   6.753
 8643POPC   C3A47201  21.353  11.330   7.053
 8643POPC   C4A47202  21.379  11.283   7.353
 8643POPC   C1B47203  21.655  11.255   6.453
 8643POPC   C2B47204  21.674  11.243   6.753
 8643POPC   C3B47205  21.626  11.307   7.053
 8643POPC   C4B47206  21.588  11.269   7.353
 8644POPC   NC347207  34.613   1.947   5.553
 8644POPC   PO447208  34.583   1.998   5.853
 8644POPC   GL147209  34.620   1.948   6.153
 8644POPC   GL247210  34.672   2.021   6.153
 8644POPC   C1A47211  34.529   1.972   6.453
 8644POPC   D2A47212  34.535   1.955   6.753
 8644POPC   C3A47213  34.577   2.032   7.053
 8644POPC   C4A47214  34.574   2.034   7.353
 8644POPC   C1B47215  34.795   2.002   6.453
 8644POPC   C2B47216  34.817   1.986   6.753
 8644POPC   C3B47217  34.837   1.984   7.053
 8644POPC   C4B47218  34.859   2.032   7.353
 8645POPC   NC347219   5.902  33.838   5.553
 8645POPC   PO447220   5.863  33.811   5.853
 8645POPC   GL147221   5.875  33.823   6.153
 8645POPC   GL247222   5.703  33.793   6.153
 8645POPC   C1A47223   5.871  33.784   6.453
 8645POPC   D2A47224   5.858  33.778   6.753
 8645POPC   C3A47225   5.890  33.834   7.053
 8645POPC   C4A47226   5.908  33.811   7.353
 8645POPC   C1B47227   5.594  33.812   6.453
 8645POPC   C2B47228   5.670  33.892   6.753
 8645POPC   C3B47229   5.583  33.892   7.053
 8645POPC   C4B47230   5.619  33.837   7.353
 8646POPC   NC347231  17.488   8.200   5.553
 8646POPC   PO447232  17.504   8.161   5.853
 8646POPC   GL147233  17.480   8.197   6.153
 8646POPC   GL247234  17.555   8.254   6.153
 8646POPC   C1A47235  17.554   8.239   6.453
 8646POPC   D2A47236  17.498   8.205   6.753
 8646POPC   C3A47237  17.467   8.165   7.053
 8646POPC   C4A47238  17.509   8.241   7.353
 8646POPC   C1B47239  17.709   8.443   6.453
 8646POPC   C2B47240  17.619   8.346   6.753
 8646POPC   C3B47241  17.704   8.425   7.053
 8646POPC   C4B47242  17.634   8.404   7.353
 8647POPC   NC347243  11.338  31.434   5.553
 8647POPC   PO447244  11.265  31.511   5.853
 8647POPC   GL147245  11.307  31.440   6.153
 8647POPC   GL247246  11.434  31.466   6.153
 8647POPC   C1A47247  11.339  31.436   6.453
 8647POPC   D2A47248  11.287  31.443   6.753
 8647POPC   C3A47249  11.301  31.496   7.053
 8647POPC   C4A47250  11.289  31.474   7.353
 8647POPC   C1B47251  11.564  31.475   6.453
 8647POPC   C2B47252  11.544  31.476   6.753
 8647POPC   C3B47253  11.591  31.522   7.053
 8647POPC   C4B47254  11.586  31.502   7.353
 8648POPC   NC347255  19.069  23.759   5.553
 8648POPC   PO447256  19.076  23.696   5.853
 8648POPC   GL147257  19.040  23.731   6.153
 8648POPC   GL247258  19.131  23.638   6.153
 8648POPC   C1A47259  19.060  23.692   6.453
 8648POPC   D2A47260  19.083  23.666   6.753
 8648POPC   C3A47261  19.012  23.665   7.053
 8648POPC   C4A47262  19.101  23.695   7.353
 8648POPC   C1B47263  19.202  23.492   6.453
 8648POPC   C2B47264  19.241  23.499   6.753
 8648POPC   C3B47265  19.256  23.533   7.053
 8648POPC   C4B47266  19.276  23.591   7.353
 8649POPC   NC347267   5.122  25.216   5.553
 8649POPC   PO447268   5.086  25.280   5.853
 8649POPC   GL147269   5.131  25.283   6.153
 8649POPC   GL247270   5.216  25.199   6.153
 8649POPC   C1A47271   5.057  25.299   6.453
 8649POPC   D2A47272   5.121  25.216   6.753
 8649POPC   C3A47273   5.048  25.306   7.053
 8649POPC   C4A47274   5.054  25.289   7.353
 8649POPC   C1B47275   5.286  25.175   6.453
 8649POPC   C2B47276   5.333  25.099   6.753
 8649POPC   C3B47277   5.258  25.120   7.053
 8649POPC   C4B47278   5.309  25.087   7.353
 8650POPC   NC347279  22.177  19.831   5.553
 8650POPC   PO447280  22.149  19.815   5.853
 8650POPC   GL147281  22.164  19.878   6.153
 8650POPC   GL247282  22.156  19.755   6.153
 8650POPC   C1A47283  22.191  19.806   6.453
 8650POPC   D2A47284  22.161  19.800   6.753
 8650POPC   C3A47285  22.156  19.824   7.053
 8650POPC   C4A47286  22.125  19.851   7.353
 8650POPC   C1B47287  22.056  19.582   6.453
 8650POPC   C2B47288  22.053  19.645   6.753
 8650POPC   C3B47289  22.082  19.568   7.053
 8650POPC   C4B47290  22.065  19.591   7.353
 8651POPC   NC347291  33.843   7.440   5.553
 8651POPC   PO447292  33.785   7.463   5.853
 8651POPC   GL147293  33.774   7.435   6.153
 8651POPC   GL247294  33.657   7.322   6.153
 8651POPC   C1A47295  33.791   7.444   6.453
 8651POPC   D2A47296  33.811   7.450   6.753
 8651POPC   C3A47297  33.824   7.460   7.053
 8651POPC   C4A47298  33.832   7.458   7.353
 8651POPC   C1B47299  33.630   7.290   6.453
 8651POPC   C2B47300  33.638   7.209   6.753
 8651POPC   C3B47301  33.580   7.270   7.053
 8651POPC   C4B47302  33.613   7.280   7.353
 8652POPC   NC347303  10.568   9.019   5.553
 8652POPC   PO447304  10.552   8.991   5.853
 8652POPC   GL147305  10.568   8.986   6.153
 8652POPC   GL247306  10.544   8.856   6.153
 8652POPC   C1A47307  10.479   8.995   6.453
 8652POPC   D2A47308  10.484   8.937   6.753
 8652POPC   C3A47309  10.565   8.942   7.053
 8652POPC   C4A47310  10.565   8.955   7.353
 8652POPC   C1B47311  10.500   8.772   6.453
 8652POPC   C2B47312  10.467   8.735   6.753
 8652POPC   C3B47313  10.526   8.767   7.053
 8652POPC   C4B47314  10.479   8.705   7.353
 8653POPC   NC347315  29.949  43.134   5.553
 8653POPC   PO447316  29.877  43.075   5.853
 8653POPC   GL147317  29.877  43.118   6.153
 8653POPC   GL247318  30.005  43.174   6.153
 8653POPC   C1A47319  29.916  43.129   6.453
 8653POPC   D2A47320  29.875  43.064   6.753
 8653POPC   C3A47321  29.887  43.142   7.053
 8653POPC   C4A47322  29.873  43.126   7.353
 8653POPC   C1B47323  30.121  43.182   6.453
 8653POPC   C2B47324  30.162  43.122   6.753
 8653POPC   C3B47325  30.188  43.127   7.053
 8653POPC   C4B47326  30.152  43.198   7.353
 8654POPC   NC347327  10.482  36.904   5.553
 8654POPC   PO447328  10.550  36.904   5.853
 8654POPC   GL147329  10.525  36.855   6.153
 8654POPC   GL247330  10.400  36.839   6.153
 8654POPC   C1A47331  10.478  36.859   6.453
 8654POPC   D2A47332  10.492  36.867   6.753
 8654POPC   C3A47333  10.520  36.900   7.053
 8654POPC   C4A47334  10.551  36.943   7.353
 8654POPC   C1B47335  10.316  36.734   6.453
 8654POPC   C2B47336  10.355  36.800   6.753
 8654POPC   C3B47337  10.291  36.734   7.053
 8654POPC   C4B47338  10.364  36.813   7.353
 8655POPC   NC347339  29.186  17.498   5.553
 8655POPC   PO447340  29.187  17.515   5.853
 8655POPC   GL147341  29.115  17.507   6.153
 8655POPC   GL247342  29.020  17.571   6.153
 8655POPC   C1A47343  29.154  17.515   6.453
 8655POPC   D2A47344  29.165  17.477   6.753
 8655POPC   C3A47345  29.104  17.522   7.053
 8655POPC   C4A47346  29.166  17.502   7.353
 8655POPC   C1B47347  28.923  17.668   6.453
 8655POPC   C2B47348  28.921  17.599   6.753
 8655POPC   C3B47349  28.903  17.653   7.053
 8655POPC   C4B47350  28.891  17.678   7.353
 8656POPC   NC347351  11.254  14.386   5.553
 8656POPC   PO447352  11.286  14.417   5.853
 8656POPC   GL147353  11.299  14.423   6.153
 8656POPC   GL247354  11.373  14.339   6.153
 8656POPC   C1A47355  11.348  14.449   6.453
 8656POPC   D2A47356  11.346  14.428   6.753
 8656POPC   C3A47357  11.258  14.436   7.053
 8656POPC   C4A47358  11.265  14.358   7.353
 8656POPC   C1B47359  11.514  14.377   6.453
 8656POPC   C2B47360  11.585  14.324   6.753
 8656POPC   C3B47361  11.507  14.333   7.053
 8656POPC   C4B47362  11.521  14.377   7.353
 8657POPC   NC347363  14.360   7.416   5.553
 8657POPC   PO447364  14.371   7.419   5.853
 8657POPC   GL147365  14.433   7.460   6.153
 8657POPC   GL247366  14.480   7.526   6.153
 8657POPC   C1A47367  14.430   7.437   6.453
 8657POPC   D2A47368  14.420   7.459   6.753
 8657POPC   C3A47369  14.432   7.388   7.053
 8657POPC   C4A47370  14.430   7.402   7.353
 8657POPC   C1B47371  14.515   7.659   6.453
 8657POPC   C2B47372  14.506   7.679   6.753
 8657POPC   C3B47373  14.557   7.638   7.053
 8657POPC   C4B47374  14.566   7.637   7.353
 8658POPC   NC347375   1.240  12.835   5.553
 8658POPC   PO447376   1.209  12.805   5.853
 8658POPC   GL147377   1.234  12.857   6.153
 8658POPC   GL247378   1.322  12.692   6.153
 8658POPC   C1A47379   1.246  12.892   6.453
 8658POPC   D2A47380   1.190  12.857   6.753
 8658POPC   C3A47381   1.213  12.844   7.053
 8658POPC   C4A47382   1.235  12.844   7.353
 8658POPC   C1B47383   1.347  12.672   6.453
 8658POPC   C2B47384   1.321  12.680   6.753
 8658POPC   C3B47385   1.345  12.585   7.053
 8658POPC   C4B47386   1.301  12.623   7.353
 8659POPC   NC347387  31.484   2.773   5.553
 8659POPC   PO447388  31.471   2.790   5.853
 8659POPC   GL147389  31.519   2.793   6.153
 8659POPC   GL247390  31.310   2.746   6.153
 8659POPC   C1A47391  31.493   2.778   6.453
 8659POPC   D2A47392  31.445   2.720   6.753
 8659POPC   C3A47393  31.423   2.733   7.053
 8659POPC   C4A47394  31.458   2.719   7.353
 8659POPC   C1B47395  31.264   2.823   6.453
 8659POPC   C2B47396  31.178   2.801   6.753
 8659POPC   C3B47397  31.177   2.774   7.053
 8659POPC   C4B47398  31.261   2.743   7.353
 8660POPC   NC347399  39.255  39.238   5.553
 8660POPC   PO447400  39.212  39.226   5.853
 8660POPC   GL147401  39.239  39.239   6.153
 8660POPC   GL247402  39.064  39.236   6.153
 8660POPC   C1A47403  39.184  39.248   6.453
 8660POPC   D2A47404  39.210  39.199   6.753
 8660POPC   C3A47405  39.238  39.207   7.053
 8660POPC   C4A47406  39.242  39.219   7.353
 8660POPC   C1B47407  38.948  39.300   6.453
 8660POPC   C2B47408  39.002  39.248   6.753
 8660POPC   C3B47409  38.961  39.268   7.053
 8660POPC   C4B47410  39.004  39.284   7.353
 8661POPC   NC347411  32.992  29.910   5.553
 8661POPC   PO447412  33.049  29.942   5.853
 8661POPC   GL147413  32.993  29.904   6.153
 8661POPC   GL247414  32.938  29.878   6.153
 8661POPC   C1A47415  33.052  29.935   6.453
 8661POPC   D2A47416  33.039  29.876   6.753
 8661POPC   C3A47417  33.063  29.894   7.053
 8661POPC   C4A47418  33.072  29.950   7.353
 8661POPC   C1B47419  32.758  29.815   6.453
 8661POPC   C2B47420  32.775  29.875   6.753
 8661POPC   C3B47421  32.790  29.829   7.053
 8661POPC   C4B47422  32.754  29.799   7.353
 8662POPC   NC347423  23.709  31.461   5.553
 8662POPC   PO447424  23.713  31.458   5.853
 8662POPC   GL147425  23.721  31.515   6.153
 8662POPC   GL247426  23.792  31.320   6.153
 8662POPC   C1A47427  23.721  31.493   6.453
 8662POPC   D2A47428  23.735  31.500   6.753
 8662POPC   C3A47429  23.726  31.428   7.053
 8662POPC   C4A47430  23.703  31.480   7.353
 8662POPC   C1B47431  23.800  31.222   6.453
 8662POPC   C2B47432  23.862  31.244   6.753
 8662POPC   C3B47433  23.885  31.267   7.053
 8662POPC   C4B47434  23.872  31.250   7.353
 8663POPC   NC347435  33.757  16.717   5.553
 8663POPC   PO447436  33.834  16.724   5.853
 8663POPC   GL147437  33.763  16.726   6.153
 8663POPC   GL247438  33.960  16.663   6.153
 8663POPC   C1A47439  33.803  16.721   6.453
 8663POPC   D2A47440  33.780  16.695   6.753
 8663POPC   C3A47441  33.817  16.781   7.053
 8663POPC   C4A47442  33.820  16.756   7.353
 8663POPC   C1B47443  33.992  16.606   6.453
 8663POPC   C2B47444  34.048  16.591   6.753
 8663POPC   C3B47445  34.062  16.597   7.053
 8663POPC   C4B47446  34.045  16.669   7.353
 8664POPC   NC347447   8.235  25.235   5.553
 8664POPC   PO447448   8.174  25.300   5.853
 8664POPC   GL147449   8.165  25.263   6.153
 8664POPC   GL247450   8.239  25.144   6.153
 8664POPC   C1A47451   8.215  25.259   6.453
 8664POPC   D2A47452   8.192  25.312   6.753
 8664POPC   C3A47453   8.215  25.223   7.053
 8664POPC   C4A47454   8.215  25.309   7.353
 8664POPC   C1B47455   8.205  25.029   6.453
 8664POPC   C2B47456   8.231  24.968   6.753
 8664POPC   C3B47457   8.207  24.969   7.053
 8664POPC   C4B47458   8.174  25.044   7.353
 8665POPC   NC347459   9.780  34.567   5.553
 8665POPC   PO447460   9.776  34.625   5.853
 8665POPC   GL147461   9.746  34.591   6.153
 8665POPC   GL247462   9.688  34.714   6.153
 8665POPC   C1A47463   9.719  34.615   6.453
 8665POPC   D2A47464   9.758  34.538   6.753
 8665POPC   C3A47465   9.789  34.580   7.053
 8665POPC   C4A47466   9.747  34.616   7.353
 8665POPC   C1B47467   9.766  34.810   6.453
 8665POPC   C2B47468   9.693  34.873   6.753
 8665POPC   C3B47469   9.699  34.830   7.053
 8665POPC   C4B47470   9.730  34.856   7.353
 8666POPC   NC347471  44.616  13.666   5.553
 8666POPC   PO447472  44.667  13.612   5.853
 8666POPC   GL147473  44.707  13.606   6.153
 8666POPC   GL247474  44.629  13.471   6.153
 8666POPC   C1A47475  44.703  13.627   6.453
 8666POPC   D2A47476  44.619  13.665   6.753
 8666POPC   C3A47477  44.681  13.579   7.053
 8666POPC   C4A47478  44.623  13.664   7.353
 8666POPC   C1B47479  44.591  13.348   6.453
 8666POPC   C2B47480  44.633  13.405   6.753
 8666POPC   C3B47481  44.639  13.343   7.053
 8666POPC   C4B47482  44.634  13.422   7.353
 8667POPC   NC347483  29.128  37.713   5.553
 8667POPC   PO447484  29.189  37.676   5.853
 8667POPC   GL147485  29.113  37.723   6.153
 8667POPC   GL247486  29.048  37.709   6.153
 8667POPC   C1A47487  29.135  37.718   6.453
 8667POPC   D2A47488  29.166  37.633   6.753
 8667POPC   C3A47489  29.153  37.693   7.053
 8667POPC   C4A47490  29.159  37.727   7.353
 8667POPC   C1B47491  28.918  37.793   6.453
 8667POPC   C2B47492  28.975  37.801   6.753
 8667POPC   C3B47493  28.917  37.816   7.053
 8667POPC   C4B47494  28.953  37.791   7.353
 8668POPC   NC347495  22.941  44.627   5.553
 8668POPC   PO447496  22.932  44.627   5.853
 8668POPC   GL147497  22.952  44.677   6.153
 8668POPC   GL247498  22.845  44.622   6.153
 8668POPC   C1A47499  22.962  44.710   6.453
 8668POPC   D2A47500  22.917  44.662   6.753
 8668POPC   C3A47501  22.953  44.623   7.053
 8668POPC   C4A47502  22.953  44.649   7.353
 8668POPC   C1B47503  22.730  44.699   6.453
 8668POPC   C2B47504  22.653  44.667   6.753
 8668POPC   C3B47505  22.684  44.653   7.053
 8668POPC   C4B47506  22.684  44.717   7.353
 8669POPC   NC347507   8.215  22.937   5.553
 8669POPC   PO447508   8.242  22.914   5.853
 8669POPC   GL147509   8.168  22.910   6.153
 8669POPC   GL247510   8.340  23.019   6.153
 8669POPC   C1A47511   8.240  22.977   6.453
 8669POPC   D2A47512   8.240  22.960   6.753
 8669POPC   C3A47513   8.214  22.904   7.053
 8669POPC   C4A47514   8.242  22.900   7.353
 8669POPC   C1B47515   8.398  23.032   6.453
 8669POPC   C2B47516   8.431  23.027   6.753
 8669POPC   C3B47517   8.406  23.074   7.053
 8669POPC   C4B47518   8.382  23.042   7.353
 8670POPC   NC347519   8.981  12.039   5.553
 8670POPC   PO447520   8.961  12.073   5.853
 8670POPC   GL147521   8.924  12.046   6.153
 8670POPC   GL247522   8.879  11.947   6.153
 8670POPC   C1A47523   8.940  12.113   6.453
 8670POPC   D2A47524   8.948  12.117   6.753
 8670POPC   C3A47525   8.963  12.053   7.053
 8670POPC   C4A47526   8.951  12.097   7.353
 8670POPC   C1B47527   8.814  11.864   6.453
 8670POPC   C2B47528   8.802  11.913   6.753
 8670POPC   C3B47529   8.762  11.908   7.053
 8670POPC   C4B47530   8.751  11.905   7.353
 8671POPC   NC347531  19.821   8.932   5.553
 8671POPC   PO447532  19.793   9.011   5.853
 8671POPC   GL147533  19.830   9.016   6.153
 8671POPC   GL247534  19.936   8.815   6.153
 8671POPC   C1A47535  19.852   8.966   6.453
 8671POPC   D2A47536  19.803   8.990   6.753
 8671POPC   C3A47537  19.820   8.947   7.053
 8671POPC   C4A47538  19.813   9.019   7.353
 8671POPC   C1B47539  19.937   8.715   6.453
 8671POPC   C2B47540  19.945   8.757   6.753
 8671POPC   C3B47541  19.949   8.777   7.053
 8671POPC   C4B47542  19.950   8.789   7.353
 8672POPC   NC347543   0.483  16.002   5.553
 8672POPC   PO447544   0.424  15.971   5.853
 8672POPC   GL147545   0.398  15.906   6.153
 8672POPC   GL247546   0.340  15.871   6.153
 8672POPC   C1A47547   0.403  15.916   6.453
 8672POPC   D2A47548   0.420  15.951   6.753
 8672POPC   C3A47549   0.466  15.951   7.053
 8672POPC   C4A47550   0.401  15.909   7.353
 8672POPC   C1B47551   0.378  15.729   6.453
 8672POPC   C2B47552   0.347  15.735   6.753
 8672POPC   C3B47553   0.382  15.717   7.053
 8672POPC   C4B47554   0.388  15.776   7.353
 8673POPC   NC347555  32.221  16.701   5.553
 8673POPC   PO447556  32.270  16.772   5.853
 8673POPC   GL147557  32.260  16.699   6.153
 8673POPC   GL247558  32.302  16.849   6.153
 8673POPC   C1A47559  32.281  16.747   6.453
 8673POPC   D2A47560  32.298  16.759   6.753
 8673POPC   C3A47561  32.255  16.729   7.053
 8673POPC   C4A47562  32.216  16.700   7.353
 8673POPC   C1B47563  32.254  17.022   6.453
 8673POPC   C2B47564  32.273  16.971   6.753
 8673POPC   C3B47565  32.274  16.987   7.053
 8673POPC   C4B47566  32.243  16.953   7.353
 8674POPC   NC347567   8.239  26.048   5.553
 8674POPC   PO447568   8.239  26.088   5.853
 8674POPC   GL147569   8.172  26.014   6.153
 8674POPC   GL247570   8.155  25.961   6.153
 8674POPC   C1A47571   8.237  26.035   6.453
 8674POPC   D2A47572   8.188  26.030   6.753
 8674POPC   C3A47573   8.213  26.017   7.053
 8674POPC   C4A47574   8.219  26.011   7.353
 8674POPC   C1B47575   8.073  25.798   6.453
 8674POPC   C2B47576   8.065  25.843   6.753
 8674POPC   C3B47577   8.060  25.864   7.053
 8674POPC   C4B47578   8.096  25.819   7.353
 8675POPC   NC347579   5.141  10.551   5.553
 8675POPC   PO447580   5.046  10.516   5.853
 8675POPC   GL147581   5.141  10.524   6.153
 8675POPC   GL247582   5.082  10.600   6.153
 8675POPC   C1A47583   5.062  10.485   6.453
 8675POPC   D2A47584   5.138  10.563   6.753
 8675POPC   C3A47585   5.124  10.523   7.053
 8675POPC   C4A47586   5.079  10.573   7.353
 8675POPC   C1B47587   5.013  10.756   6.453
 8675POPC   C2B47588   5.015  10.748   6.753
 8675POPC   C3B47589   5.050  10.791   7.053
 8675POPC   C4B47590   4.973  10.767   7.353
 8676POPC   NC347591  12.089  28.341   5.553
 8676POPC   PO447592  12.051  28.329   5.853
 8676POPC   GL147593  12.103  28.323   6.153
 8676POPC   GL247594  12.116  28.230   6.153
 8676POPC   C1A47595  12.041  28.327   6.453
 8676POPC   D2A47596  12.098  28.395   6.753
 8676POPC   C3A47597  12.083  28.412   7.053
 8676POPC   C4A47598  12.060  28.392   7.353
 8676POPC   C1B47599  12.195  28.154   6.453
 8676POPC   C2B47600  12.185  28.186   6.753
 8676POPC   C3B47601  12.159  28.137   7.053
 8676POPC   C4B47602  12.177  28.133   7.353
 8677POPC   NC347603  23.698  15.939   5.553
 8677POPC   PO447604  23.692  15.923   5.853
 8677POPC   GL147605  23.731  15.924   6.153
 8677POPC   GL247606  23.804  16.028   6.153
 8677POPC   C1A47607  23.670  15.980   6.453
 8677POPC   D2A47608  23.736  15.912   6.753
 8677POPC   C3A47609  23.706  16.005   7.053
 8677POPC   C4A47610  23.742  15.953   7.353
 8677POPC   C1B47611  23.887  16.084   6.453
 8677POPC   C2B47612  23.952  16.066   6.753
 8677POPC   C3B47613  23.911  16.084   7.053
 8677POPC   C4B47614  23.917  16.075   7.353
 8678POPC   NC347615   1.253  43.073   5.553
 8678POPC   PO447616   1.167  43.089   5.853
 8678POPC   GL147617   1.208  43.150   6.153
 8678POPC   GL247618   1.223  43.247   6.153
 8678POPC   C1A47619   1.242  43.061   6.453
 8678POPC   D2A47620   1.171  43.112   6.753
 8678POPC   C3A47621   1.231  43.126   7.053
 8678POPC   C4A47622   1.179  43.127   7.353
 8678POPC   C1B47623   1.145  43.370   6.453
 8678POPC   C2B47624   1.142  43.374   6.753
 8678POPC   C3B47625   1.131  43.362   7.053
 8678POPC   C4B47626   1.181  43.313   7.353
 8679POPC   NC347627  20.580   9.759   5.553
 8679POPC   PO447628  20.608   9.714   5.853
 8679POPC   GL147629  20.569   9.715   6.153
 8679POPC   GL247630  20.673   9.587   6.153
 8679POPC   C1A47631  20.579   9.726   6.453
 8679POPC   D2A47632  20.598   9.777   6.753
 8679POPC   C3A47633  20.652   9.729   7.053
 8679POPC   C4A47634  20.657   9.706   7.353
 8679POPC   C1B47635  20.707   9.554   6.453
 8679POPC   C2B47636  20.715   9.517   6.753
 8679POPC   C3B47637  20.721   9.544   7.053
 8679POPC   C4B47638  20.676   9.466   7.353
 8680POPC   NC347639   5.116   8.923   5.553
 8680POPC   PO447640   5.129   8.986   5.853
 8680POPC   GL147641   5.079   8.950   6.153
 8680POPC   GL247642   5.172   8.902   6.153
 8680POPC   C1A47643   5.111   8.957   6.453
 8680POPC   D2A47644   5.089   9.014   6.753
 8680POPC   C3A47645   5.101   8.928   7.053
 8680POPC   C4A47646   5.066   9.014   7.353
 8680POPC   C1B47647   5.287   8.881   6.453
 8680POPC   C2B47648   5.342   8.903   6.753
 8680POPC   C3B47649   5.325   8.895   7.053
 8680POPC   C4B47650   5.353   8.851   7.353
 8681POPC   NC347651  31.494  18.301   5.553
 8681POPC   PO447652  31.468  18.307   5.853
 8681POPC   GL147653  31.471  18.300   6.153
 8681POPC   GL247654  31.463  18.417   6.153
 8681POPC   C1A47655  31.507  18.286   6.453
 8681POPC   D2A47656  31.453  18.293   6.753
 8681POPC   C3A47657  31.434  18.308   7.053
 8681POPC   C4A47658  31.474  18.263   7.353
 8681POPC   C1B47659  31.485  18.508   6.453
 8681POPC   C2B47660  31.455  18.573   6.753
 8681POPC   C3B47661  31.483  18.521   7.053
 8681POPC   C4B47662  31.494  18.566   7.353
 8682POPC   NC347663  18.242  22.185   5.553
 8682POPC   PO447664  18.272  22.189   5.853
 8682POPC   GL147665  18.264  22.184   6.153
 8682POPC   GL247666  18.344  22.129   6.153
 8682POPC   C1A47667  18.283  22.178   6.453
 8682POPC   D2A47668  18.244  22.200   6.753
 8682POPC   C3A47669  18.327  22.120   7.053
 8682POPC   C4A47670  18.296  22.154   7.353
 8682POPC   C1B47671  18.538  22.044   6.453
 8682POPC   C2B47672  18.482  21.991   6.753
 8682POPC   C3B47673  18.525  22.059   7.053
 8682POPC   C4B47674  18.512  21.982   7.353
 8683POPC   NC347675  27.632  38.502   5.553
 8683POPC   PO447676  27.585  38.429   5.853
 8683POPC   GL147677  27.605  38.438   6.153
 8683POPC   GL247678  27.497  38.389   6.153
 8683POPC   C1A47679  27.615  38.430   6.453
 8683POPC   D2A47680  27.562  38.430   6.753
 8683POPC   C3A47681  27.608  38.412   7.053
 8683POPC   C4A47682  27.630  38.467   7.353
 8683POPC   C1B47683  27.338  38.373   6.453
 8683POPC   C2B47684  27.361  38.307   6.753
 8683POPC   C3B47685  27.411  38.355   7.053
 8683POPC   C4B47686  27.409  38.316   7.353
 8684POPC   NC347687  12.863  12.832   5.553
 8684POPC   PO447688  12.816  12.847   5.853
 8684POPC   GL147689  12.890  12.812   6.153
 8684POPC   GL247690  12.753  12.878   6.153
 8684POPC   C1A47691  12.825  12.867   6.453
 8684POPC   D2A47692  12.871  12.821   6.753
 8684POPC   C3A47693  12.877  12.827   7.053
 8684POPC   C4A47694  12.827  12.882   7.353
 8684POPC   C1B47695  12.625  12.874   6.453
 8684POPC   C2B47696  12.641  12.795   6.753
 8684POPC   C3B47697  12.559  12.855   7.053
 8684POPC   C4B47698  12.618  12.816   7.353
 8685POPC   NC347699  44.695   9.726   5.553
 8685POPC   PO447700  44.695   9.777   5.853
 8685POPC   GL147701  44.629   9.775   6.153
 8685POPC   GL247702  44.586   9.620   6.153
 8685POPC   C1A47703  44.677   9.769   6.453
 8685POPC   D2A47704  44.670   9.735   6.753
 8685POPC   C3A47705  44.656   9.774   7.053
 8685POPC   C4A47706  44.693   9.721   7.353
 8685POPC   C1B47707  44.560   9.512   6.453
 8685POPC   C2B47708  44.486   9.521   6.753
 8685POPC   C3B47709  44.500   9.573   7.053
 8685POPC   C4B47710  44.490   9.562   7.353
 8686POPC   NC347711  19.084  32.240   5.553
 8686POPC   PO447712  19.045  32.223   5.853
 8686POPC   GL147713  19.044  32.265   6.153
 8686POPC   GL247714  18.981  32.385   6.153
 8686POPC   C1A47715  19.086  32.238   6.453
 8686POPC   D2A47716  19.036  32.270   6.753
 8686POPC   C3A47717  19.100  32.296   7.053
 8686POPC   C4A47718  19.017  32.264   7.353
 8686POPC   C1B47719  18.961  32.450   6.453
 8686POPC   C2B47720  18.954  32.483   6.753
 8686POPC   C3B47721  18.993  32.456   7.053
 8686POPC   C4B47722  18.981  32.470   7.353
 8687POPC   NC347723  24.453  24.465   5.553
 8687POPC   PO447724  24.482  24.464   5.853
 8687POPC   GL147725  24.532  24.527   6.153
 8687POPC   GL247726  24.620  24.401   6.153
 8687POPC   C1A47727  24.460  24.472   6.453
 8687POPC   D2A47728  24.525  24.520   6.753
 8687POPC   C3A47729  24.496  24.537   7.053
 8687POPC   C4A47730  24.480  24.531   7.353
 8687POPC   C1B47731  24.698  24.330   6.453
 8687POPC   C2B47732  24.671  24.333   6.753
 8687POPC   C3B47733  24.670  24.350   7.053
 8687POPC   C4B47734  24.696  24.356   7.353
 8688POPC   NC347735  13.582  23.753   5.553
 8688POPC   PO447736  13.641  23.760   5.853
 8688POPC   GL147737  13.651  23.744   6.153
 8688POPC   GL247738  13.558  23.712   6.153
 8688POPC   C1A47739  13.642  23.673   6.453
 8688POPC   D2A47740  13.584  23.731   6.753
 8688POPC   C3A47741  13.676  23.750   7.053
 8688POPC   C4A47742  13.632  23.677   7.353
 8688POPC   C1B47743  13.405  23.603   6.453
 8688POPC   C2B47744  13.410  23.632   6.753
 8688POPC   C3B47745  13.431  23.666   7.053
 8688POPC   C4B47746  13.438  23.640   7.353
 8689POPC   NC347747   4.315   8.191   5.553
 8689POPC   PO447748   4.283   8.193   5.853
 8689POPC   GL147749   4.346   8.200   6.153
 8689POPC   GL247750   4.322   8.332   6.153
 8689POPC   C1A47751   4.307   8.224   6.453
 8689POPC   D2A47752   4.311   8.212   6.753
 8689POPC   C3A47753   4.340   8.190   7.053
 8689POPC   C4A47754   4.309   8.189   7.353
 8689POPC   C1B47755   4.310   8.422   6.453
 8689POPC   C2B47756   4.341   8.471   6.753
 8689POPC   C3B47757   4.295   8.494   7.053
 8689POPC   C4B47758   4.351   8.472   7.353
 8690POPC   NC347759  33.033  33.000   5.553
 8690POPC   PO447760  33.025  33.047   5.853
 8690POPC   GL147761  32.986  33.008   6.153
 8690POPC   GL247762  32.991  33.139   6.153
 8690POPC   C1A47763  33.067  33.033   6.453
 8690POPC   D2A47764  32.980  33.055   6.753
 8690POPC   C3A47765  33.034  33.018   7.053
 8690POPC   C4A47766  33.073  32.984   7.353
 8690POPC   C1B47767  32.914  33.286   6.453
 8690POPC   C2B47768  32.881  33.234   6.753
 8690POPC   C3B47769  32.874  33.216   7.053
 8690POPC   C4B47770  32.941  33.204   7.353
 8691POPC   NC347771  37.641  42.289   5.553
 8691POPC   PO447772  37.698  42.372   5.853
 8691POPC   GL147773  37.716  42.326   6.153
 8691POPC   GL247774  37.620  42.228   6.153
 8691POPC   C1A47775  37.706  42.287   6.453
 8691POPC   D2A47776  37.685  42.313   6.753
 8691POPC   C3A47777  37.654  42.327   7.053
 8691POPC   C4A47778  37.647  42.307   7.353
 8691POPC   C1B47779  37.585  42.128   6.453
 8691POPC   C2B47780  37.556  42.088   6.753
 8691POPC   C3B47781  37.533  42.076   7.053
 8691POPC   C4B47782  37.589  42.067   7.353
 8692POPC   NC347783   2.004  37.687   5.553
 8692POPC   PO447784   2.038  37.657   5.853
 8692POPC   GL147785   2.030  37.647   6.153
 8692POPC   GL247786   1.958  37.817   6.153
 8692POPC   C1A47787   2.014  37.652   6.453
 8692POPC   D2A47788   1.968  37.695   6.753
 8692POPC   C3A47789   2.023  37.666   7.053
 8692POPC   C4A47790   1.998  37.705   7.353
 8692POPC   C1B47791   1.980  37.880   6.453
 8692POPC   C2B47792   1.980  37.950   6.753
 8692POPC   C3B47793   2.034  37.909   7.053
 8692POPC   C4B47794   2.014  37.969   7.353
 8693POPC   NC347795  22.904  29.904   5.553
 8693POPC   PO447796  22.907  29.901   5.853
 8693POPC   GL147797  22.936  29.950   6.153
 8693POPC   GL247798  23.027  29.946   6.153
 8693POPC   C1A47799  22.952  29.889   6.453
 8693POPC   D2A47800  22.974  29.952   6.753
 8693POPC   C3A47801  22.973  29.898   7.053
 8693POPC   C4A47802  22.957  29.878   7.353
 8693POPC   C1B47803  23.108  30.081   6.453
 8693POPC   C2B47804  23.137  30.057   6.753
 8693POPC   C3B47805  23.122  30.047   7.053
 8693POPC   C4B47806  23.182  30.039   7.353
 8694POPC   NC347807  28.356   2.033   5.553
 8694POPC   PO447808  28.331   2.011   5.853
 8694POPC   GL147809  28.373   1.959   6.153
 8694POPC   GL247810  28.443   1.936   6.153
 8694POPC   C1A47811  28.373   2.040   6.453
 8694POPC   D2A47812  28.333   2.010   6.753
 8694POPC   C3A47813  28.378   1.999   7.053
 8694POPC   C4A47814  28.401   2.029   7.353
 8694POPC   C1B47815  28.590   1.899   6.453
 8694POPC   C2B47816  28.574   1.908   6.753
 8694POPC   C3B47817  28.658   1.930   7.053
 8694POPC   C4B47818  28.646   1.940   7.353
 8695POPC   NC347819  25.242  22.929   5.553
 8695POPC   PO447820  25.217  22.944   5.853
 8695POPC   GL147821  25.269  22.911   6.153
 8695POPC   GL247822  25.163  23.014   6.153
 8695POPC   C1A47823  25.248  22.892   6.453
 8695POPC   D2A47824  25.263  22.952   6.753
 8695POPC   C3A47825  25.248  22.898   7.053
 8695POPC   C4A47826  25.274  22.978   7.353
 8695POPC   C1B47827  25.057  23.132   6.453
 8695POPC   C2B47828  25.106  23.142   6.753
 8695POPC   C3B47829  25.116  23.092   7.053
 8695POPC   C4B47830  25.065  23.070   7.353
 8696POPC   NC347831   1.253  10.513   5.553
 8696POPC   PO447832   1.188  10.521   5.853
 8696POPC   GL147833   1.194  10.482   6.153
 8696POPC   GL247834   1.356  10.541   6.153
 8696POPC   C1A47835   1.213  10.515   6.453
 8696POPC   D2A47836   1.250  10.524   6.753
 8696POPC   C3A47837   1.197  10.491   7.053
 8696POPC   C4A47838   1.164  10.487   7.353
 8696POPC   C1B47839   1.467  10.669   6.453
 8696POPC   C2B47840   1.395  10.688   6.753
 8696POPC   C3B47841   1.477  10.670   7.053
 8696POPC   C4B47842   1.431  10.634   7.353
 8697POPC   NC347843  43.889  26.034   5.553
 8697POPC   PO447844  43.935  26.068   5.853
 8697POPC   GL147845  43.853  26.014   6.153
 8697POPC   GL247846  44.015  25.966   6.153
 8697POPC   C1A47847  43.866  26.040   6.453
 8697POPC   D2A47848  43.867  26.065   6.753
 8697POPC   C3A47849  43.926  26.030   7.053
 8697POPC   C4A47850  43.851  26.050   7.353
 8697POPC   C1B47851  44.165  25.947   6.453
 8697POPC   C2B47852  44.113  25.975   6.753
 8697POPC   C3B47853  44.146  25.970   7.053
 8697POPC   C4B47854  44.109  25.974   7.353
 8698POPC   NC347855  43.145   1.190   5.553
 8698POPC   PO447856  43.147   1.186   5.853
 8698POPC   GL147857  43.127   1.217   6.153
 8698POPC   GL247858  43.027   1.139   6.153
 8698POPC   C1A47859  43.089   1.206   6.453
 8698POPC   D2A47860  43.131   1.222   6.753
 8698POPC   C3A47861  43.064   1.185   7.053
 8698POPC   C4A47862  43.088   1.206   7.353
 8698POPC   C1B47863  43.018   1.020   6.453
 8698POPC   C2B47864  42.926   0.987   6.753
 8698POPC   C3B47865  42.925   0.960   7.053
 8698POPC   C4B47866  42.931   0.964   7.353
 8699POPC   NC347867  42.311  15.934   5.553
 8699POPC   PO447868  42.383  15.955   5.853
 8699POPC   GL147869  42.338  15.931   6.153
 8699POPC   GL247870  42.308  16.121   6.153
 8699POPC   C1A47871  42.337  15.998   6.453
 8699POPC   D2A47872  42.324  15.989   6.753
 8699POPC   C3A47873  42.361  15.910   7.053
 8699POPC   C4A47874  42.344  15.932   7.353
 8699POPC   C1B47875  42.297  16.251   6.453
 8699POPC   C2B47876  42.335  16.234   6.753
 8699POPC   C3B47877  42.336  16.229   7.053
 8699POPC   C4B47878  42.332  16.176   7.353
 8700POPC   NC347879  12.102  29.138   5.553
 8700POPC   PO447880  12.072  29.153   5.853
 8700POPC   GL147881  12.049  29.180   6.153
 8700POPC   GL247882  11.947  29.026   6.153
 8700POPC   C1A47883  12.062  29.106   6.453
 8700POPC   D2A47884  12.099  29.171   6.753
 8700POPC   C3A47885  12.114  29.156   7.053
 8700POPC   C4A47886  12.087  29.187   7.353
 8700POPC   C1B47887  11.875  29.043   6.453
 8700POPC   C2B47888  11.897  28.990   6.753
 8700POPC   C3B47889  11.856  28.989   7.053
 8700POPC   C4B47890  11.903  29.040   7.353
 8701POPC   NC347891  19.108   9.754   5.553
 8701POPC   PO447892  19.065   9.728   5.853
 8701POPC   GL147893  19.063   9.707   6.153
 8701POPC   GL247894  19.116   9.639   6.153
 8701POPC   C1A47895  19.079   9.728   6.453
 8701POPC   D2A47896  19.098   9.709   6.753
 8701POPC   C3A47897  19.068   9.710   7.053
 8701POPC   C4A47898  19.074   9.764   7.353
 8701POPC   C1B47899  19.264   9.619   6.453
 8701POPC   C2B47900  19.247   9.626   6.753
 8701POPC   C3B47901  19.287   9.581   7.053
 8701POPC   C4B47902  19.206   9.621   7.353
 8702POPC   NC347903  33.798  29.182   5.553
 8702POPC   PO447904  33.844  29.113   5.853
 8702POPC   GL147905  33.800  29.172   6.153
 8702POPC   GL247906  33.847  29.107   6.153
 8702POPC   C1A47907  33.763  29.100   6.453
 8702POPC   D2A47908  33.794  29.135   6.753
 8702POPC   C3A47909  33.751  29.177   7.053
 8702POPC   C4A47910  33.795  29.163   7.353
 8702POPC   C1B47911  33.990  28.968   6.453
 8702POPC   C2B47912  34.028  29.017   6.753
 8702POPC   C3B47913  34.025  28.987   7.053
 8702POPC   C4B47914  33.956  28.969   7.353
 8703POPC   NC347915  18.267  36.918   5.553
 8703POPC   PO447916  18.245  36.950   5.853
 8703POPC   GL147917  18.328  36.934   6.153
 8703POPC   GL247918  18.375  36.988   6.153
 8703POPC   C1A47919  18.240  36.932   6.453
 8703POPC   D2A47920  18.237  36.877   6.753
 8703POPC   C3A47921  18.238  36.861   7.053
 8703POPC   C4A47922  18.250  36.933   7.353
 8703POPC   C1B47923  18.439  37.057   6.453
 8703POPC   C2B47924  18.466  37.099   6.753
 8703POPC   C3B47925  18.469  37.103   7.053
 8703POPC   C4B47926  18.468  37.101   7.353
 8704POPC   NC347927  40.043  33.009   5.553
 8704POPC   PO447928  39.969  33.053   5.853
 8704POPC   GL147929  40.024  33.015   6.153
 8704POPC   GL247930  40.070  33.078   6.153
 8704POPC   C1A47931  39.973  33.057   6.453
 8704POPC   D2A47932  40.051  33.048   6.753
 8704POPC   C3A47933  39.997  32.986   7.053
 8704POPC   C4A47934  39.996  33.021   7.353
 8704POPC   C1B47935  40.203  33.119   6.453
 8704POPC   C2B47936  40.215  33.160   6.753
 8704POPC   C3B47937  40.218  33.141   7.053
 8704POPC   C4B47938  40.216  33.174   7.353
 8705POPC   NC347939  44.667   5.066   5.553
 8705POPC   PO447940  44.650   5.052   5.853
 8705POPC   GL147941  44.614   5.051   6.153
 8705POPC   GL247942  44.626   5.157   6.153
 8705POPC   C1A47943  44.663   5.072   6.453
 8705POPC   D2A47944  44.682   5.117   6.753
 8705POPC   C3A47945  44.692   5.142   7.053
 8705POPC   C4A47946  44.617   5.054   7.353
 8705POPC   C1B47947  44.561   5.357   6.453
 8705POPC   C2B47948  44.512   5.322   6.753
 8705POPC   C3B47949  44.532   5.334   7.053
 8705POPC   C4B47950  44.543   5.307   7.353
 8706POPC   NC347951  12.895   6.665   5.553
 8706POPC   PO447952  12.874   6.600   5.853
 8706POPC   GL147953  12.851   6.633   6.153
 8706POPC   GL247954  12.896   6.820   6.153
 8706POPC   C1A47955  12.822   6.673   6.453
 8706POPC   D2A47956  12.821   6.636   6.753
 8706POPC   C3A47957  12.865   6.692   7.053
 8706POPC   C4A47958  12.868   6.683   7.353
 8706POPC   C1B47959  12.873   6.878   6.453
 8706POPC   C2B47960  12.876   6.847   6.753
 8706POPC   C3B47961  12.872   6.908   7.053
 8706POPC   C4B47962  12.833   6.876   7.353
 8707POPC   NC347963  30.714  13.582   5.553
 8707POPC   PO447964  30.672  13.586   5.853
 8707POPC   GL147965  30.715  13.640   6.153
 8707POPC   GL247966  30.649  13.518   6.153
 8707POPC   C1A47967  30.730  13.642   6.453
 8707POPC   D2A47968  30.655  13.654   6.753
 8707POPC   C3A47969  30.735  13.643   7.053
 8707POPC   C4A47970  30.686  13.586   7.353
 8707POPC   C1B47971  30.679  13.356   6.453
 8707POPC   C2B47972  30.615  13.337   6.753
 8707POPC   C3B47973  30.671  13.417   7.053
 8707POPC   C4B47974  30.688  13.421   7.353
 8708POPC   NC347975  30.651  15.984   5.553
 8708POPC   PO447976  30.735  15.986   5.853
 8708POPC   GL147977  30.664  15.913   6.153
 8708POPC   GL247978  30.726  15.815   6.153
 8708POPC   C1A47979  30.710  15.963   6.453
 8708POPC   D2A47980  30.722  15.968   6.753
 8708POPC   C3A47981  30.716  15.924   7.053
 8708POPC   C4A47982  30.675  15.963   7.353
 8708POPC   C1B47983  30.732  15.718   6.453
 8708POPC   C2B47984  30.715  15.702   6.753
 8708POPC   C3B47985  30.758  15.719   7.053
 8708POPC   C4B47986  30.771  15.676   7.353
 8709POPC   NC347987  40.033  12.821   5.553
 8709POPC   PO447988  39.973  12.817   5.853
 8709POPC   GL147989  40.035  12.820   6.153
 8709POPC   GL247990  40.110  12.948   6.153
 8709POPC   C1A47991  40.036  12.815   6.453
 8709POPC   D2A47992  39.990  12.856   6.753
 8709POPC   C3A47993  40.018  12.852   7.053
 8709POPC   C4A47994  40.019  12.889   7.353
 8709POPC   C1B47995  40.240  13.016   6.453
 8709POPC   C2B47996  40.266  12.961   6.753
 8709POPC   C3B47997  40.257  13.008   7.053
 8709POPC   C4B47998  40.186  12.956   7.353
 8710POPC   NC347999  31.446  31.474   5.553
 8710POPC   PO448000  31.467  31.487   5.853
 8710POPC   GL148001  31.510  31.484   6.153
 8710POPC   GL248002  31.307  31.542   6.153
 8710POPC   C1A48003  31.454  31.521   6.453
 8710POPC   D2A48004  31.427  31.487   6.753
 8710POPC   C3A48005  31.489  31.462   7.053
 8710POPC   C4A48006  31.515  31.464   7.353
 8710POPC   C1B48007  31.215  31.484   6.453
 8710POPC   C2B48008  31.206  31.538   6.753
 8710POPC   C3B48009  31.210  31.557   7.053
 8710POPC   C4B48010  31.236  31.490   7.353
 8711POPC   NC348011  10.496   5.844   5.553
 8711POPC   PO448012  10.515   5.879   5.853
 8711POPC   GL148013  10.512   5.860   6.153
 8711POPC   GL248014  10.485   5.787   6.153
 8711POPC   C1A48015  10.500   5.890   6.453
 8711POPC   D2A48016  10.573   5.848   6.753
 8711POPC   C3A48017  10.504   5.873   7.053
 8711POPC   C4A48018  10.496   5.850   7.353
 8711POPC   C1B48019  10.354   5.645   6.453
 8711POPC   C2B48020  10.306   5.731   6.753
 8711POPC   C3B48021  10.311   5.718   7.053
 8711POPC   C4B48022  10.323   5.725   7.353
 8712POPC   NC348023   9.725  28.345   5.553
 8712POPC   PO448024   9.745  28.347   5.853
 8712POPC   GL148025   9.783  28.354   6.153
 8712POPC   GL248026   9.903  28.367   6.153
 8712POPC   C1A48027   9.797  28.416   6.453
 8712POPC   D2A48028   9.750  28.385   6.753
 8712POPC   C3A48029   9.788  28.322   7.053
 8712POPC   C4A48030   9.733  28.336   7.353
 8712POPC   C1B48031   9.950  28.258   6.453
 8712POPC   C2B48032   9.941  28.279   6.753
 8712POPC   C3B48033   9.939  28.276   7.053
 8712POPC   C4B48034   9.973  28.327   7.353
 8713POPC   NC348035  42.287  38.496   5.553
 8713POPC   PO448036  42.328  38.497   5.853
 8713POPC   GL148037  42.326  38.464   6.153
 8713POPC   GL248038  42.493  38.482   6.153
 8713POPC   C1A48039  42.384  38.449   6.453
 8713POPC   D2A48040  42.377  38.483   6.753
 8713POPC   C3A48041  42.294  38.461   7.053
 8713POPC   C4A48042  42.361  38.486   7.353
 8713POPC   C1B48043  42.605  38.608   6.453
 8713POPC   C2B48044  42.538  38.562   6.753
 8713POPC   C3B48045  42.515  38.542   7.053
 8713POPC   C4B48046  42.515  38.541   7.353
 8714POPC   NC348047  36.928  17.514   5.553
 8714POPC   PO448048  36.881  17.511   5.853
 8714POPC   GL148049  36.877  17.528   6.153
 8714POPC   GL248050  37.066  17.434   6.153
 8714POPC   C1A48051  36.941  17.546   6.453
 8714POPC   D2A48052  36.939  17.535   6.753
 8714POPC   C3A48053  36.943  17.537   7.053
 8714POPC   C4A48054  36.905  17.527   7.353
 8714POPC   C1B48055  37.189  17.496   6.453
 8714POPC   C2B48056  37.109  17.494   6.753
 8714POPC   C3B48057  37.104  17.495   7.053
 8714POPC   C4B48058  37.103  17.414   7.353
 8715POPC   NC348059   2.800  22.122   5.553
 8715POPC   PO448060   2.790  22.141   5.853
 8715POPC   GL148061   2.810  22.166   6.153
 8715POPC   GL248062   2.874  22.135   6.153
 8715POPC   C1A48063   2.794  22.201   6.453
 8715POPC   D2A48064   2.803  22.211   6.753
 8715POPC   C3A48065   2.726  22.171   7.053
 8715POPC   C4A48066   2.724  22.198   7.353
 8715POPC   C1B48067   2.991  22.003   6.453
 8715POPC   C2B48068   2.967  22.057   6.753
 8715POPC   C3B48069   2.936  22.000   7.053
 8715POPC   C4B48070   3.001  22.059   7.353
 8716POPC   NC348071  33.845  12.827   5.553
 8716POPC   PO448072  33.783  12.859   5.853
 8716POPC   GL148073  33.796  12.854   6.153
 8716POPC   GL248074  33.855  12.767   6.153
 8716POPC   C1A48075  33.818  12.834   6.453
 8716POPC   D2A48076  33.777  12.816   6.753
 8716POPC   C3A48077  33.812  12.850   7.053
 8716POPC   C4A48078  33.790  12.806   7.353
 8716POPC   C1B48079  33.874  12.592   6.453
 8716POPC   C2B48080  33.865  12.617   6.753
 8716POPC   C3B48081  33.836  12.617   7.053
 8716POPC   C4B48082  33.831  12.654   7.353
 8717POPC   NC348083  39.218  29.895   5.553
 8717POPC   PO448084  39.251  29.894   5.853
 8717POPC   GL148085  39.224  29.937   6.153
 8717POPC   GL248086  39.380  29.928   6.153
 8717POPC   C1A48087  39.209  29.927   6.453
 8717POPC   D2A48088  39.247  29.920   6.753
 8717POPC   C3A48089  39.258  29.905   7.053
 8717POPC   C4A48090  39.209  29.920   7.353
 8717POPC   C1B48091  39.453  29.877   6.453
 8717POPC   C2B48092  39.441  29.921   6.753
 8717POPC   C3B48093  39.521  29.874   7.053
 8717POPC   C4B48094  39.462  29.929   7.353
 8718POPC   NC348095  40.738  11.330   5.553
 8718POPC   PO448096  40.742  11.296   5.853
 8718POPC   GL148097  40.762  11.317   6.153
 8718POPC   GL248098  40.820  11.231   6.153
 8718POPC   C1A48099  40.802  11.319   6.453
 8718POPC   D2A48100  40.827  11.308   6.753
 8718POPC   C3A48101  40.818  11.281   7.053
 8718POPC   C4A48102  40.771  11.283   7.353
 8718POPC   C1B48103  40.886  11.074   6.453
 8718POPC   C2B48104  40.887  11.133   6.753
 8718POPC   C3B48105  40.943  11.070   7.053
 8718POPC   C4B48106  40.878  11.109   7.353
 8719POPC   NC348107  40.016  17.556   5.553
 8719POPC   PO448108  39.990  17.465   5.853
 8719POPC   GL148109  39.968  17.527   6.153
 8719POPC   GL248110  40.169  17.504   6.153
 8719POPC   C1A48111  40.020  17.514   6.453
 8719POPC   D2A48112  40.015  17.535   6.753
 8719POPC   C3A48113  39.962  17.472   7.053
 8719POPC   C4A48114  40.049  17.484   7.353
 8719POPC   C1B48115  40.269  17.611   6.453
 8719POPC   C2B48116  40.191  17.587   6.753
 8719POPC   C3B48117  40.287  17.631   7.053
 8719POPC   C4B48118  40.264  17.599   7.353
 8720POPC   NC348119  41.513  26.010   5.553
 8720POPC   PO448120  41.588  26.063   5.853
 8720POPC   GL148121  41.528  26.051   6.153
 8720POPC   GL248122  41.684  26.059   6.153
 8720POPC   C1A48123  41.513  26.063   6.453
 8720POPC   D2A48124  41.576  26.086   6.753
 8720POPC   C3A48125  41.587  26.062   7.053
 8720POPC   C4A48126  41.563  26.033   7.353
 8720POPC   C1B48127  41.763  26.163   6.453
 8720POPC   C2B48128  41.792  26.136   6.753
 8720POPC   C3B48129  41.741  26.194   7.053
 8720POPC   C4B48130  41.799  26.188   7.353
 8721POPC   NC348131  21.372  26.794   5.553
 8721POPC   PO448132  21.374  26.807   5.853
 8721POPC   GL148133  21.389  26.834   6.153
 8721POPC   GL248134  21.340  26.948   6.153
 8721POPC   C1A48135  21.429  26.812   6.453
 8721POPC   D2A48136  21.369  26.854   6.753
 8721POPC   C3A48137  21.362  26.797   7.053
 8721POPC   C4A48138  21.359  26.848   7.353
 8721POPC   C1B48139  21.398  27.062   6.453
 8721POPC   C2B48140  21.360  27.035   6.753
 8721POPC   C3B48141  21.391  27.042   7.053
 8721POPC   C4B48142  21.399  27.059   7.353
 8722POPC   NC348143   0.479  33.009   5.553
 8722POPC   PO448144   0.439  33.070   5.853
 8722POPC   GL148145   0.420  33.035   6.153
 8722POPC   GL248146   0.534  32.973   6.153
 8722POPC   C1A48147   0.454  33.015   6.453
 8722POPC   D2A48148   0.439  33.011   6.753
 8722POPC   C3A48149   0.476  32.974   7.053
 8722POPC   C4A48150   0.415  33.070   7.353
 8722POPC   C1B48151   0.607  32.871   6.453
 8722POPC   C2B48152   0.644  32.942   6.753
 8722POPC   C3B48153   0.650  32.873   7.053
 8722POPC   C4B48154   0.626  32.912   7.353
 8723POPC   NC348155   0.453  31.510   5.553
 8723POPC   PO448156   0.459  31.483   5.853
 8723POPC   GL148157   0.462  31.504   6.153
 8723POPC   GL248158   0.295  31.505   6.153
 8723POPC   C1A48159   0.448  31.481   6.453
 8723POPC   D2A48160   0.427  31.515   6.753
 8723POPC   C3A48161   0.429  31.513   7.053
 8723POPC   C4A48162   0.456  31.481   7.353
 8723POPC   C1B48163   0.235  31.461   6.453
 8723POPC   C2B48164   0.176  31.506   6.753
 8723POPC   C3B48165   0.209  31.536   7.053
 8723POPC   C4B48166   0.176  31.471   7.353
 8724POPC   NC348167  33.051  26.001   5.553
 8724POPC   PO448168  32.975  26.057   5.853
 8724POPC   GL148169  32.976  26.073   6.153
 8724POPC   GL248170  33.007  25.940   6.153
 8724POPC   C1A48171  33.001  25.997   6.453
 8724POPC   D2A48172  33.017  26.042   6.753
 8724POPC   C3A48173  33.011  26.072   7.053
 8724POPC   C4A48174  33.033  26.056   7.353
 8724POPC   C1B48175  33.090  25.767   6.453
 8724POPC   C2B48176  33.057  25.795   6.753
 8724POPC   C3B48177  33.028  25.765   7.053
 8724POPC   C4B48178  33.085  25.842   7.353
 8725POPC   NC348179   5.892  36.912   5.553
 8725POPC   PO448180   5.894  36.933   5.853
 8725POPC   GL148181   5.890  36.862   6.153
 8725POPC   GL248182   5.741  37.011   6.153
 8725POPC   C1A48183   5.906  36.872   6.453
 8725POPC   D2A48184   5.826  36.917   6.753
 8725POPC   C3A48185   5.826  36.890   7.053
 8725POPC   C4A48186   5.861  36.925   7.353
 8725POPC   C1B48187   5.688  37.074   6.453
 8725POPC   C2B48188   5.720  37.051   6.753
 8725POPC   C3B48189   5.659  37.045   7.053
 8725POPC   C4B48190   5.699  37.139   7.353
 8726POPC   NC348191  28.388  37.642   5.553
 8726POPC   PO448192  28.404  37.726   5.853
 8726POPC   GL148193  28.354  37.720   6.153
 8726POPC   GL248194  28.306  37.762   6.153
 8726POPC   C1A48195  28.361  37.632   6.453
 8726POPC   D2A48196  28.415  37.678   6.753
 8726POPC   C3A48197  28.333  37.679   7.053
 8726POPC   C4A48198  28.358  37.691   7.353
 8726POPC   C1B48199  28.183  37.933   6.453
 8726POPC   C2B48200  28.190  37.884   6.753
 8726POPC   C3B48201  28.192  37.836   7.053
 8726POPC   C4B48202  28.242  37.871   7.353
 8727POPC   NC348203  43.859   6.690   5.553
 8727POPC   PO448204  43.921   6.662   5.853
 8727POPC   GL148205  43.912   6.636   6.153
 8727POPC   GL248206  44.010   6.656   6.153
 8727POPC   C1A48207  43.891   6.606   6.453
 8727POPC   D2A48208  43.918   6.667   6.753
 8727POPC   C3A48209  43.897   6.663   7.053
 8727POPC   C4A48210  43.838   6.600   7.353
 8727POPC   C1B48211  44.131   6.720   6.453
 8727POPC   C2B48212  44.129   6.800   6.753
 8727POPC   C3B48213  44.136   6.790   7.053
 8727POPC   C4B48214  44.154   6.724   7.353
 8728POPC   NC348215  36.886  29.944   5.553
 8728POPC   PO448216  36.920  29.908   5.853
 8728POPC   GL148217  36.910  29.908   6.153
 8728POPC   GL248218  36.901  29.780   6.153
 8728POPC   C1A48219  36.932  29.875   6.453
 8728POPC   D2A48220  36.925  29.896   6.753
 8728POPC   C3A48221  36.878  29.925   7.053
 8728POPC   C4A48222  36.858  29.940   7.353
 8728POPC   C1B48223  36.841  29.680   6.453
 8728POPC   C2B48224  36.869  29.637   6.753
 8728POPC   C3B48225  36.888  29.683   7.053
 8728POPC   C4B48226  36.910  29.658   7.353
 8729POPC   NC348227  38.499  29.944   5.553
 8729POPC   PO448228  38.482  29.949   5.853
 8729POPC   GL148229  38.436  29.958   6.153
 8729POPC   GL248230  38.412  29.848   6.153
 8729POPC   C1A48231  38.461  29.910   6.453
 8729POPC   D2A48232  38.435  29.955   6.753
 8729POPC   C3A48233  38.416  29.947   7.053
 8729POPC   C4A48234  38.480  29.936   7.353
 8729POPC   C1B48235  38.385  29.667   6.453
 8729POPC   C2B48236  38.388  29.643   6.753
 8729POPC   C3B48237  38.373  29.733   7.053
 8729POPC   C4B48238  38.414  29.651   7.353
 8730POPC   NC348239   8.203   8.978   5.553
 8730POPC   PO448240   8.211   9.016   5.853
 8730POPC   GL148241   8.228   8.968   6.153
 8730POPC   GL248242   8.124   8.895   6.153
 8730POPC   C1A48243   8.158   8.929   6.453
 8730POPC   D2A48244   8.219   8.959   6.753
 8730POPC   C3A48245   8.218   8.951   7.053
 8730POPC   C4A48246   8.210   8.957   7.353
 8730POPC   C1B48247   8.122   8.762   6.453
 8730POPC   C2B48248   8.112   8.781   6.753
 8730POPC   C3B48249   8.107   8.701   7.053
 8730POPC   C4B48250   8.067   8.791   7.353
 8731POPC   NC348251  15.151  20.591   5.553
 8731POPC   PO448252  15.141  20.588   5.853
 8731POPC   GL148253  15.173  20.573   6.153
 8731POPC   GL248254  15.327  20.637   6.153
 8731POPC   C1A48255  15.226  20.640   6.453
 8731POPC   D2A48256  15.140  20.654   6.753
 8731POPC   C3A48257  15.183  20.650   7.053
 8731POPC   C4A48258  15.140  20.633   7.353
 8731POPC   C1B48259  15.402  20.621   6.453
 8731POPC   C2B48260  15.394  20.642   6.753
 8731POPC   C3B48261  15.421  20.648   7.053
 8731POPC   C4B48262  15.451  20.696   7.353
 8732POPC   NC348263  29.138  13.659   5.553
 8732POPC   PO448264  29.131  13.612   5.853
 8732POPC   GL148265  29.132  13.668   6.153
 8732POPC   GL248266  29.224  13.676   6.153
 8732POPC   C1A48267  29.182  13.588   6.453
 8732POPC   D2A48268  29.125  13.671   6.753
 8732POPC   C3A48269  29.099  13.597   7.053
 8732POPC   C4A48270  29.134  13.634   7.353
 8732POPC   C1B48271  29.333  13.724   6.453
 8732POPC   C2B48272  29.409  13.668   6.753
 8732POPC   C3B48273  29.424  13.702   7.053
 8732POPC   C4B48274  29.395  13.696   7.353
 8733POPC   NC348275   1.965  24.480   5.553
 8733POPC   PO448276   1.946  24.463   5.853
 8733POPC   GL148277   1.948  24.521   6.153
 8733POPC   GL248278   1.956  24.650   6.153
 8733POPC   C1A48279   1.962  24.465   6.453
 8733POPC   D2A48280   1.941  24.481   6.753
 8733POPC   C3A48281   2.039  24.448   7.053
 8733POPC   C4A48282   2.037  24.489   7.353
 8733POPC   C1B48283   2.000  24.729   6.453
 8733POPC   C2B48284   1.969  24.750   6.753
 8733POPC   C3B48285   2.050  24.698   7.053
 8733POPC   C4B48286   2.001  24.772   7.353
 8734POPC   NC348287  17.557  12.029   5.553
 8734POPC   PO448288  17.481  12.083   5.853
 8734POPC   GL148289  17.475  12.052   6.153
 8734POPC   GL248290  17.394  12.016   6.153
 8734POPC   C1A48291  17.466  12.110   6.453
 8734POPC   D2A48292  17.459  12.031   6.753
 8734POPC   C3A48293  17.539  12.102   7.053
 8734POPC   C4A48294  17.555  12.029   7.353
 8734POPC   C1B48295  17.265  11.922   6.453
 8734POPC   C2B48296  17.330  12.005   6.753
 8734POPC   C3B48297  17.253  11.973   7.053
 8734POPC   C4B48298  17.256  11.948   7.353
 8735POPC   NC348299  19.079   2.730   5.553
 8735POPC   PO448300  19.035   2.794   5.853
 8735POPC   GL148301  19.013   2.794   6.153
 8735POPC   GL248302  19.080   2.857   6.153
 8735POPC   C1A48303  19.029   2.761   6.453
 8735POPC   D2A48304  19.018   2.730   6.753
 8735POPC   C3A48305  19.012   2.733   7.053
 8735POPC   C4A48306  19.087   2.751   7.353
 8735POPC   C1B48307  18.952   2.989   6.453
 8735POPC   C2B48308  18.972   2.996   6.753
 8735POPC   C3B48309  19.041   3.036   7.053
 8735POPC   C4B48310  19.004   3.026   7.353
 8736POPC   NC348311   4.322  22.196   5.553
 8736POPC   PO448312   4.356  22.211   5.853
 8736POPC   GL148313   4.335  22.156   6.153
 8736POPC   GL248314   4.273  22.075   6.153
 8736POPC   C1A48315   4.329  22.150   6.453
 8736POPC   D2A48316   4.312  22.187   6.753
 8736POPC   C3A48317   4.360  22.201   7.053
 8736POPC   C4A48318   4.295  22.150   7.353
 8736POPC   C1B48319   4.246  21.970   6.453
 8736POPC   C2B48320   4.191  21.943   6.753
 8736POPC   C3B48321   4.257  21.928   7.053
 8736POPC   C4B48322   4.232  21.964   7.353
 8737POPC   NC348323  15.153  43.925   5.553
 8737POPC   PO448324  15.177  43.884   5.853
 8737POPC   GL148325  15.174  43.915   6.153
 8737POPC   GL248326  15.163  44.047   6.153
 8737POPC   C1A48327  15.167  43.913   6.453
 8737POPC   D2A48328  15.200  43.927   6.753
 8737POPC   C3A48329  15.175  43.858   7.053
 8737POPC   C4A48330  15.160  43.931   7.353
 8737POPC   C1B48331  15.164  44.184   6.453
 8737POPC   C2B48332  15.130  44.165   6.753
 8737POPC   C3B48333  15.132  44.177   7.053
 8737POPC   C4B48334  15.146  44.098   7.353
 8738POPC   NC348335   0.449  19.805   5.553
 8738POPC   PO448336   0.477  19.854   5.853
 8738POPC   GL148337   0.434  19.793   6.153
 8738POPC   GL248338   0.355  19.703   6.153
 8738POPC   C1A48339   0.458  19.823   6.453
 8738POPC   D2A48340   0.399  19.798   6.753
 8738POPC   C3A48341   0.430  19.853   7.053
 8738POPC   C4A48342   0.472  19.825   7.353
 8738POPC   C1B48343   0.252  19.621   6.453
 8738POPC   C2B48344   0.231  19.699   6.753
 8738POPC   C3B48345   0.288  19.632   7.053
 8738POPC   C4B48346   0.264  19.711   7.353
 8739POPC   NC348347  11.285  22.145   5.553
 8739POPC   PO448348  11.289  22.158   5.853
 8739POPC   GL148349  11.269  22.202   6.153
 8739POPC   GL248350  11.329  21.998   6.153
 8739POPC   C1A48351  11.349  22.166   6.453
 8739POPC   D2A48352  11.292  22.199   6.753
 8739POPC   C3A48353  11.291  22.148   7.053
 8739POPC   C4A48354  11.287  22.178   7.353
 8739POPC   C1B48355  11.360  21.920   6.453
 8739POPC   C2B48356  11.362  21.954   6.753
 8739POPC   C3B48357  11.272  21.888   7.053
 8739POPC   C4B48358  11.294  21.916   7.353
 8740POPC   NC348359  36.941  34.553   5.553
 8740POPC   PO448360  36.902  34.541   5.853
 8740POPC   GL148361  36.869  34.618   6.153
 8740POPC   GL248362  36.987  34.476   6.153
 8740POPC   C1A48363  36.854  34.609   6.453
 8740POPC   D2A48364  36.952  34.605   6.753
 8740POPC   C3A48365  36.893  34.553   7.053
 8740POPC   C4A48366  36.939  34.542   7.353
 8740POPC   C1B48367  37.050  34.411   6.453
 8740POPC   C2B48368  37.108  34.396   6.753
 8740POPC   C3B48369  37.069  34.430   7.053
 8740POPC   C4B48370  37.118  34.461   7.353
 8741POPC   NC348371  17.545  20.576   5.553
 8741POPC   PO448372  17.521  20.591   5.853
 8741POPC   GL148373  17.533  20.577   6.153
 8741POPC   GL248374  17.546  20.500   6.153
 8741POPC   C1A48375  17.517  20.612   6.453
 8741POPC   D2A48376  17.491  20.594   6.753
 8741POPC   C3A48377  17.506  20.598   7.053
 8741POPC   C4A48378  17.467  20.637   7.353
 8741POPC   C1B48379  17.626  20.391   6.453
 8741POPC   C2B48380  17.649  20.381   6.753
 8741POPC   C3B48381  17.642  20.401   7.053
 8741POPC   C4B48382  17.627  20.346   7.353
 8742POPC   NC348383  32.986   1.972   5.553
 8742POPC   PO448384  33.026   1.944   5.853
 8742POPC   GL148385  32.984   2.036   6.153
 8742POPC   GL248386  33.086   2.100   6.153
 8742POPC   C1A48387  32.995   2.023   6.453
 8742POPC   D2A48388  32.998   1.952   6.753
 8742POPC   C3A48389  33.007   2.016   7.053
 8742POPC   C4A48390  33.032   1.966   7.353
 8742POPC   C1B48391  33.141   2.270   6.453
 8742POPC   C2B48392  33.058   2.257   6.753
 8742POPC   C3B48393  33.127   2.219   7.053
 8742POPC   C4B48394  33.077   2.249   7.353
 8743POPC   NC348395  34.529  34.546   5.553
 8743POPC   PO448396  34.608  34.548   5.853
 8743POPC   GL148397  34.552  34.582   6.153
 8743POPC   GL248398  34.715  34.543   6.153
 8743POPC   C1A48399  34.601  34.540   6.453
 8743POPC   D2A48400  34.596  34.573   6.753
 8743POPC   C3A48401  34.620  34.559   7.053
 8743POPC   C4A48402  34.621  34.557   7.353
 8743POPC   C1B48403  34.845  34.569   6.453
 8743POPC   C2B48404  34.792  34.482   6.753
 8743POPC   C3B48405  34.849  34.505   7.053
 8743POPC   C4B48406  34.843  34.518   7.353
 8744POPC   NC348407  40.056  43.873   5.553
 8744POPC   PO448408  39.982  43.860   5.853
 8744POPC   GL148409  40.028  43.853   6.153
 8744POPC   GL248410  39.893  43.850   6.153
 8744POPC   C1A48411  40.039  43.930   6.453
 8744POPC   D2A48412  39.984  43.897   6.753
 8744POPC   C3A48413  40.035  43.925   7.053
 8744POPC   C4A48414  40.033  43.933   7.353
 8744POPC   C1B48415  39.796  43.891   6.453
 8744POPC   C2B48416  39.771  43.895   6.753
 8744POPC   C3B48417  39.731  43.883   7.053
 8744POPC   C4B48418  39.772  43.823   7.353
 8745POPC   NC348419  39.240  43.894   5.553
 8745POPC   PO448420  39.218  43.851   5.853
 8745POPC   GL148421  39.195  43.910   6.153
 8745POPC   GL248422  39.232  43.783   6.153
 8745POPC   C1A48423  39.280  43.888   6.453
 8745POPC   D2A48424  39.271  43.935   6.753
 8745POPC   C3A48425  39.243  43.880   7.053
 8745POPC   C4A48426  39.229  43.865   7.353
 8745POPC   C1B48427  39.243  43.674   6.453
 8745POPC   C2B48428  39.295  43.651   6.753
 8745POPC   C3B48429  39.296  43.628   7.053
 8745POPC   C4B48430  39.293  43.673   7.353
 8746POPC   NC348431  36.887  10.476   5.553
 8746POPC   PO448432  36.886  10.517   5.853
 8746POPC   GL148433  36.886  10.554   6.153
 8746POPC   GL248434  36.764  10.489   6.153
 8746POPC   C1A48435  36.952  10.479   6.453
 8746POPC   D2A48436  36.925  10.539   6.753
 8746POPC   C3A48437  36.947  10.494   7.053
 8746POPC   C4A48438  36.928  10.494   7.353
 8746POPC   C1B48439  36.691  10.492   6.453
 8746POPC   C2B48440  36.678  10.406   6.753
 8746POPC   C3B48441  36.683  10.472   7.053
 8746POPC   C4B48442  36.711  10.452   7.353
 8747POPC   NC348443   1.212  36.145   5.553
 8747POPC   PO448444   1.214  36.128   5.853
 8747POPC   GL148445   1.194  36.127   6.153
 8747POPC   GL248446   1.079  36.096   6.153
 8747POPC   C1A48447   1.217  36.152   6.453
 8747POPC   D2A48448   1.212  36.146   6.753
 8747POPC   C3A48449   1.182  36.134   7.053
 8747POPC   C4A48450   1.247  36.137   7.353
 8747POPC   C1B48451   1.026  36.006   6.453
 8747POPC   C2B48452   0.996  35.965   6.753
 8747POPC   C3B48453   1.004  35.958   7.053
 8747POPC   C4B48454   1.055  35.993   7.353
 8748POPC   NC348455  22.975  24.500   5.553
 8748POPC   PO448456  22.907  24.488   5.853
 8748POPC   GL148457  22.931  24.463   6.153
 8748POPC   GL248458  22.817  24.522   6.153
 8748POPC   C1A48459  22.965  24.532   6.453
 8748POPC   D2A48460  22.903  24.480   6.753
 8748POPC   C3A48461  22.909  24.497   7.053
 8748POPC   C4A48462  22.900  24.456   7.353
 8748POPC   C1B48463  22.777  24.681   6.453
 8748POPC   C2B48464  22.776  24.618   6.753
 8748POPC   C3B48465  22.777  24.666   7.053
 8748POPC   C4B48466  22.781  24.613   7.353
 8749POPC   NC348467   7.431  12.887   5.553
 8749POPC   PO448468   7.469  12.894   5.853
 8749POPC   GL148469   7.461  12.828   6.153
 8749POPC   GL248470   7.292  12.820   6.153
 8749POPC   C1A48471   7.381  12.901   6.453
 8749POPC   D2A48472   7.401  12.875   6.753
 8749POPC   C3A48473   7.393  12.820   7.053
 8749POPC   C4A48474   7.401  12.857   7.353
 8749POPC   C1B48475   7.201  12.695   6.453
 8749POPC   C2B48476   7.228  12.745   6.753
 8749POPC   C3B48477   7.229  12.746   7.053
 8749POPC   C4B48478   7.166  12.741   7.353
 8750POPC   NC348479  35.401   5.116   5.553
 8750POPC   PO448480  35.362   5.072   5.853
 8750POPC   GL148481  35.382   5.142   6.153
 8750POPC   GL248482  35.314   5.202   6.153
 8750POPC   C1A48483  35.386   5.095   6.453
 8750POPC   D2A48484  35.358   5.131   6.753
 8750POPC   C3A48485  35.321   5.090   7.053
 8750POPC   C4A48486  35.324   5.113   7.353
 8750POPC   C1B48487  35.299   5.353   6.453
 8750POPC   C2B48488  35.343   5.372   6.753
 8750POPC   C3B48489  35.346   5.330   7.053
 8750POPC   C4B48490  35.349   5.309   7.353
 8751POPC   NC348491  25.227  36.165   5.553
 8751POPC   PO448492  25.245  36.109   5.853
 8751POPC   GL148493  25.217  36.078   6.153
 8751POPC   GL248494  25.258  36.018   6.153
 8751POPC   C1A48495  25.288  36.139   6.453
 8751POPC   D2A48496  25.244  36.148   6.753
 8751POPC   C3A48497  25.290  36.170   7.053
 8751POPC   C4A48498  25.224  36.111   7.353
 8751POPC   C1B48499  25.194  35.871   6.453
 8751POPC   C2B48500  25.263  35.896   6.753
 8751POPC   C3B48501  25.215  35.878   7.053
 8751POPC   C4B48502  25.191  35.837   7.353
 8752POPC   NC348503  11.345   6.659   5.553
 8752POPC   PO448504  11.257   6.681   5.853
 8752POPC   GL148505  11.269   6.695   6.153
 8752POPC   GL248506  11.223   6.571   6.153
 8752POPC   C1A48507  11.318   6.638   6.453
 8752POPC   D2A48508  11.298   6.671   6.753
 8752POPC   C3A48509  11.291   6.686   7.053
 8752POPC   C4A48510  11.275   6.680   7.353
 8752POPC   C1B48511  11.038   6.515   6.453
 8752POPC   C2B48512  11.069   6.533   6.753
 8752POPC   C3B48513  11.112   6.507   7.053
 8752POPC   C4B48514  11.044   6.540   7.353
 8753POPC   NC348515  42.369  29.901   5.553
 8753POPC   PO448516  42.320  29.876   5.853
 8753POPC   GL148517  42.371  29.891   6.153
 8753POPC   GL248518  42.260  29.849   6.153
 8753POPC   C1A48519  42.360  29.966   6.453
 8753POPC   D2A48520  42.380  29.888   6.753
 8753POPC   C3A48521  42.355  29.919   7.053
 8753POPC   C4A48522  42.308  29.889   7.353
 8753POPC   C1B48523  42.167  29.840   6.453
 8753POPC   C2B48524  42.083  29.799   6.753
 8753POPC   C3B48525  42.139  29.821   7.053
 8753POPC   C4B48526  42.100  29.770   7.353
 8754POPC   NC348527  38.435  16.685   5.553
 8754POPC   PO448528  38.488  16.747   5.853
 8754POPC   GL148529  38.423  16.765   6.153
 8754POPC   GL248530  38.380  16.854   6.153
 8754POPC   C1A48531  38.477  16.772   6.453
 8754POPC   D2A48532  38.484  16.761   6.753
 8754POPC   C3A48533  38.435  16.692   7.053
 8754POPC   C4A48534  38.464  16.721   7.353
 8754POPC   C1B48535  38.318  16.910   6.453
 8754POPC   C2B48536  38.309  16.896   6.753
 8754POPC   C3B48537  38.255  16.913   7.053
 8754POPC   C4B48538  38.260  16.915   7.353
 8755POPC   NC348539  16.711  19.077   5.553
 8755POPC   PO448540  16.751  19.044   5.853
 8755POPC   GL148541  16.708  19.037   6.153
 8755POPC   GL248542  16.642  18.945   6.153
 8755POPC   C1A48543  16.751  19.057   6.453
 8755POPC   D2A48544  16.706  19.040   6.753
 8755POPC   C3A48545  16.693  19.030   7.053
 8755POPC   C4A48546  16.719  19.021   7.353
 8755POPC   C1B48547  16.630  18.781   6.453
 8755POPC   C2B48548  16.644  18.790   6.753
 8755POPC   C3B48549  16.630  18.857   7.053
 8755POPC   C4B48550  16.620  18.858   7.353
 8756POPC   NC348551  44.671  43.065   5.553
 8756POPC   PO448552  44.624  43.084   5.853
 8756POPC   GL148553  44.703  43.159   6.153
 8756POPC   GL248554  44.785  43.121   6.153
 8756POPC   C1A48555  44.680  43.142   6.453
 8756POPC   D2A48556  44.656  43.088   6.753
 8756POPC   C3A48557  44.692  43.119   7.053
 8756POPC   C4A48558  44.697  43.140   7.353
 8756POPC   C1B48559  44.953  43.111   6.453
 8756POPC   C2B48560  44.913  43.017   6.753
 8756POPC   C3B48561  44.912  43.026   7.053
 8756POPC   C4B48562  44.909  43.046   7.353
 8757POPC   NC348563  39.961   2.025   5.553
 8757POPC   PO448564  39.978   1.957   5.853
 8757POPC   GL148565  39.983   1.953   6.153
 8757POPC   GL248566  40.163   2.038   6.153
 8757POPC   C1A48567  40.033   1.972   6.453
 8757POPC   D2A48568  40.016   2.021   6.753
 8757POPC   C3A48569  40.035   1.996   7.053
 8757POPC   C4A48570  39.967   2.006   7.353
 8757POPC   C1B48571  40.282   1.958   6.453
 8757POPC   C2B48572  40.208   2.017   6.753
 8757POPC   C3B48573  40.303   1.985   7.053
 8757POPC   C4B48574  40.263   1.973   7.353
 8758POPC   NC348575  37.689  21.429   5.553
 8758POPC   PO448576  37.704  21.385   5.853
 8758POPC   GL148577  37.675  21.419   6.153
 8758POPC   GL248578  37.594  21.392   6.153
 8758POPC   C1A48579  37.658  21.365   6.453
 8758POPC   D2A48580  37.708  21.402   6.753
 8758POPC   C3A48581  37.687  21.346   7.053
 8758POPC   C4A48582  37.640  21.421   7.353
 8758POPC   C1B48583  37.406  21.529   6.453
 8758POPC   C2B48584  37.488  21.524   6.753
 8758POPC   C3B48585  37.464  21.494   7.053
 8758POPC   C4B48586  37.464  21.493   7.353
 8759POPC   NC348587  40.735   1.170   5.553
 8759POPC   PO448588  40.801   1.211   5.853
 8759POPC   GL148589  40.826   1.199   6.153
 8759POPC   GL248590  40.708   1.283   6.153
 8759POPC   C1A48591  40.762   1.168   6.453
 8759POPC   D2A48592  40.820   1.243   6.753
 8759POPC   C3A48593  40.807   1.205   7.053
 8759POPC   C4A48594  40.759   1.259   7.353
 8759POPC   C1B48595  40.554   1.309   6.453
 8759POPC   C2B48596  40.600   1.331   6.753
 8759POPC   C3B48597  40.544   1.373   7.053
 8759POPC   C4B48598  40.545   1.344   7.353
 8760POPC   NC348599  42.352  28.411   5.553
 8760POPC   PO448600  42.380  28.353   5.853
 8760POPC   GL148601  42.323  28.375   6.153
 8760POPC   GL248602  42.226  28.258   6.153
 8760POPC   C1A48603  42.287  28.320   6.453
 8760POPC   D2A48604  42.301  28.394   6.753
 8760POPC   C3A48605  42.365  28.339   7.053
 8760POPC   C4A48606  42.344  28.384   7.353
 8760POPC   C1B48607  42.183  28.176   6.453
 8760POPC   C2B48608  42.162  28.123   6.753
 8760POPC   C3B48609  42.187  28.188   7.053
 8760POPC   C4B48610  42.181  28.108   7.353
 8761POPC   NC348611   3.582  22.964   5.553
 8761POPC   PO448612   3.509  22.927   5.853
 8761POPC   GL148613   3.499  22.918   6.153
 8761POPC   GL248614   3.416  22.949   6.153
 8761POPC   C1A48615   3.539  22.970   6.453
 8761POPC   D2A48616   3.538  22.899   6.753
 8761POPC   C3A48617   3.494  22.896   7.053
 8761POPC   C4A48618   3.589  22.956   7.353
 8761POPC   C1B48619   3.265  22.908   6.453
 8761POPC   C2B48620   3.307  22.941   6.753
 8761POPC   C3B48621   3.332  22.961   7.053
 8761POPC   C4B48622   3.331  22.912   7.353
 8762POPC   NC348623  10.535  29.937   5.553
 8762POPC   PO448624  10.480  29.888   5.853
 8762POPC   GL148625  10.482  29.889   6.153
 8762POPC   GL248626  10.386  30.007   6.153
 8762POPC   C1A48627  10.513  29.896   6.453
 8762POPC   D2A48628  10.541  29.901   6.753
 8762POPC   C3A48629  10.540  29.948   7.053
 8762POPC   C4A48630  10.560  29.916   7.353
 8762POPC   C1B48631  10.263  29.991   6.453
 8762POPC   C2B48632  10.266  30.059   6.753
 8762POPC   C3B48633  10.314  30.025   7.053
 8762POPC   C4B48634  10.302  30.019   7.353
 8763POPC   NC348635  41.593  35.342   5.553
 8763POPC   PO448636  41.587  35.343   5.853
 8763POPC   GL148637  41.578  35.306   6.153
 8763POPC   GL248638  41.497  35.304   6.153
 8763POPC   C1A48639  41.511  35.395   6.453
 8763POPC   D2A48640  41.570  35.334   6.753
 8763POPC   C3A48641  41.567  35.334   7.053
 8763POPC   C4A48642  41.594  35.363   7.353
 8763POPC   C1B48643  41.359  35.172   6.453
 8763POPC   C2B48644  41.387  35.244   6.753
 8763POPC   C3B48645  41.372  35.231   7.053
 8763POPC   C4B48646  41.346  35.201   7.353
 8764POPC   NC348647   8.244   7.380   5.553
 8764POPC   PO448648   8.166   7.432   5.853
 8764POPC   GL148649   8.178   7.427   6.153
 8764POPC   GL248650   8.288   7.407   6.153
 8764POPC   C1A48651   8.198   7.384   6.453
 8764POPC   D2A48652   8.156   7.420   6.753
 8764POPC   C3A48653   8.245   7.434   7.053
 8764POPC   C4A48654   8.203   7.459   7.353
 8764POPC   C1B48655   8.479   7.312   6.453
 8764POPC   C2B48656   8.390   7.382   6.753
 8764POPC   C3B48657   8.392   7.332   7.053
 8764POPC   C4B48658   8.397   7.319   7.353
 8765POPC   NC348659  41.577  36.902   5.553
 8765POPC   PO448660  41.533  36.919   5.853
 8765POPC   GL148661  41.520  36.887   6.153
 8765POPC   GL248662  41.592  37.050   6.153
 8765POPC   C1A48663  41.532  36.873   6.453
 8765POPC   D2A48664  41.537  36.885   6.753
 8765POPC   C3A48665  41.537  36.920   7.053
 8765POPC   C4A48666  41.581  36.936   7.353
 8765POPC   C1B48667  41.593  37.117   6.453
 8765POPC   C2B48668  41.567  37.178   6.753
 8765POPC   C3B48669  41.529  37.131   7.053
 8765POPC   C4B48670  41.618  37.161   7.353
 8766POPC   NC348671  30.661   5.065   5.553
 8766POPC   PO448672  30.712   5.120   5.853
 8766POPC   GL148673  30.686   5.044   6.153
 8766POPC   GL248674  30.776   5.085   6.153
 8766POPC   C1A48675  30.704   5.089   6.453
 8766POPC   D2A48676  30.720   5.091   6.753
 8766POPC   C3A48677  30.686   5.047   7.053
 8766POPC   C4A48678  30.650   5.121   7.353
 8766POPC   C1B48679  30.917   5.110   6.453
 8766POPC   C2B48680  30.913   5.164   6.753
 8766POPC   C3B48681  30.898   5.208   7.053
 8766POPC   C4B48682  30.980   5.185   7.353
 8767POPC   NC348683  15.177  28.405   5.553
 8767POPC   PO448684  15.150  28.366   5.853
 8767POPC   GL148685  15.191  28.406   6.153
 8767POPC   GL248686  15.117  28.264   6.153
 8767POPC   C1A48687  15.158  28.335   6.453
 8767POPC   D2A48688  15.134  28.377   6.753
 8767POPC   C3A48689  15.154  28.328   7.053
 8767POPC   C4A48690  15.157  28.384   7.353
 8767POPC   C1B48691  15.100  28.075   6.453
 8767POPC   C2B48692  15.196  28.154   6.753
 8767POPC   C3B48693  15.180  28.167   7.053
 8767POPC   C4B48694  15.158  28.121   7.353
 8768POPC   NC348695  35.369   4.309   5.553
 8768POPC   PO448696  35.346   4.338   5.853
 8768POPC   GL148697  35.352   4.278   6.153
 8768POPC   GL248698  35.327   4.214   6.153
 8768POPC   C1A48699  35.389   4.312   6.453
 8768POPC   D2A48700  35.313   4.361   6.753
 8768POPC   C3A48701  35.381   4.293   7.053
 8768POPC   C4A48702  35.306   4.347   7.353
 8768POPC   C1B48703  35.174   4.071   6.453
 8768POPC   C2B48704  35.226   4.094   6.753
 8768POPC   C3B48705  35.250   4.090   7.053
 8768POPC   C4B48706  35.214   4.120   7.353
 8769POPC   NC348707  16.744  26.775   5.553
 8769POPC   PO448708  16.768  26.785   5.853
 8769POPC   GL148709  16.779  26.835   6.153
 8769POPC   GL248710  16.859  26.755   6.153
 8769POPC   C1A48711  16.765  26.795   6.453
 8769POPC   D2A48712  16.738  26.836   6.753
 8769POPC   C3A48713  16.746  26.849   7.053
 8769POPC   C4A48714  16.694  26.835   7.353
 8769POPC   C1B48715  16.895  26.695   6.453
 8769POPC   C2B48716  16.953  26.695   6.753
 8769POPC   C3B48717  16.907  26.687   7.053
 8769POPC   C4B48718  16.942  26.659   7.353
 8770POPC   NC348719  10.506  42.291   5.553
 8770POPC   PO448720  10.528  42.288   5.853
 8770POPC   GL148721  10.518  42.298   6.153
 8770POPC   GL248722  10.601  42.193   6.153
 8770POPC   C1A48723  10.499  42.313   6.453
 8770POPC   D2A48724  10.504  42.300   6.753
 8770POPC   C3A48725  10.572  42.331   7.053
 8770POPC   C4A48726  10.526  42.316   7.353
 8770POPC   C1B48727  10.657  42.087   6.453
 8770POPC   C2B48728  10.684  42.137   6.753
 8770POPC   C3B48729  10.691  42.096   7.053
 8770POPC   C4B48730  10.688  42.124   7.353
 8771POPC   NC348731  27.581  14.370   5.553
 8771POPC   PO448732  27.558  14.363   5.853
 8771POPC   GL148733  27.620  14.449   6.153
 8771POPC   GL248734  27.473  14.424   6.153
 8771POPC   C1A48735  27.606  14.386   6.453
 8771POPC   D2A48736  27.599  14.389   6.753
 8771POPC   C3A48737  27.573  14.397   7.053
 8771POPC   C4A48738  27.642  14.369   7.353
 8771POPC   C1B48739  27.404  14.447   6.453
 8771POPC   C2B48740  27.378  14.465   6.753
 8771POPC   C3B48741  27.306  14.517   7.053
 8771POPC   C4B48742  27.339  14.524   7.353
 8772POPC   NC348743  22.116  26.855   5.553
 8772POPC   PO448744  22.138  26.786   5.853
 8772POPC   GL148745  22.135  26.809   6.153
 8772POPC   GL248746  22.270  26.962   6.153
 8772POPC   C1A48747  22.154  26.778   6.453
 8772POPC   D2A48748  22.197  26.814   6.753
 8772POPC   C3A48749  22.133  26.800   7.053
 8772POPC   C4A48750  22.208  26.849   7.353
 8772POPC   C1B48751  22.333  27.072   6.453
 8772POPC   C2B48752  22.303  27.038   6.753
 8772POPC   C3B48753  22.300  27.005   7.053
 8772POPC   C4B48754  22.257  27.057   7.353
 8773POPC   NC348755  31.465  27.603   5.553
 8773POPC   PO448756  31.511  27.556   5.853
 8773POPC   GL148757  31.471  27.609   6.153
 8773POPC   GL248758  31.570  27.687   6.153
 8773POPC   C1A48759  31.510  27.634   6.453
 8773POPC   D2A48760  31.498  27.638   6.753
 8773POPC   C3A48761  31.445  27.585   7.053
 8773POPC   C4A48762  31.464  27.607   7.353
 8773POPC   C1B48763  31.570  27.839   6.453
 8773POPC   C2B48764  31.593  27.831   6.753
 8773POPC   C3B48765  31.553  27.809   7.053
 8773POPC   C4B48766  31.593  27.846   7.353
 8774POPC   NC348767  26.028   0.440   5.553
 8774POPC   PO448768  25.992   0.400   5.853
 8774POPC   GL148769  26.069   0.415   6.153
 8774POPC   GL248770  26.189   0.394   6.153
 8774POPC   C1A48771  26.020   0.406   6.453
 8774POPC   D2A48772  26.078   0.487   6.753
 8774POPC   C3A48773  26.048   0.450   7.053
 8774POPC   C4A48774  26.079   0.431   7.353
 8774POPC   C1B48775  26.325   0.395   6.453
 8774POPC   C2B48776  26.262   0.408   6.753
 8774POPC   C3B48777  26.285   0.373   7.053
 8774POPC   C4B48778  26.245   0.402   7.353
 8775POPC   NC348779   0.397   0.432   5.553
 8775POPC   PO448780   0.416   0.455   5.853
 8775POPC   GL148781   0.459   0.487   6.153
 8775POPC   GL248782   0.349   0.538   6.153
 8775POPC   C1A48783   0.468   0.462   6.453
 8775POPC   D2A48784   0.468   0.447   6.753
 8775POPC   C3A48785   0.409   0.456   7.053
 8775POPC   C4A48786   0.432   0.470   7.353
 8775POPC   C1B48787   0.243   0.673   6.453
 8775POPC   C2B48788   0.294   0.604   6.753
 8775POPC   C3B48789   0.288   0.677   7.053
 8775POPC   C4B48790   0.273   0.630   7.353
 8776POPC   NC348791   9.769  38.427   5.553
 8776POPC   PO448792   9.768  38.419   5.853
 8776POPC   GL148793   9.761  38.462   6.153
 8776POPC   GL248794   9.696  38.554   6.153
 8776POPC   C1A48795   9.729  38.460   6.453
 8776POPC   D2A48796   9.750  38.452   6.753
 8776POPC   C3A48797   9.735  38.454   7.053
 8776POPC   C4A48798   9.783  38.469   7.353
 8776POPC   C1B48799   9.653  38.705   6.453
 8776POPC   C2B48800   9.683  38.663   6.753
 8776POPC   C3B48801   9.695  38.732   7.053
 8776POPC   C4B48802   9.686  38.646   7.353
 8777POPC   NC348803  28.372  35.401   5.553
 8777POPC   PO448804  28.349  35.373   5.853
 8777POPC   GL148805  28.321  35.344   6.153
 8777POPC   GL248806  28.506  35.351   6.153
 8777POPC   C1A48807  28.334  35.332   6.453
 8777POPC   D2A48808  28.359  35.366   6.753
 8777POPC   C3A48809  28.417  35.315   7.053
 8777POPC   C4A48810  28.369  35.375   7.353
 8777POPC   C1B48811  28.605  35.279   6.453
 8777POPC   C2B48812  28.580  35.285   6.753
 8777POPC   C3B48813  28.660  35.305   7.053
 8777POPC   C4B48814  28.563  35.267   7.353
 8778POPC   NC348815  39.188   1.215   5.553
 8778POPC   PO448816  39.278   1.241   5.853
 8778POPC   GL148817  39.260   1.229   6.153
 8778POPC   GL248818  39.242   1.138   6.153
 8778POPC   C1A48819  39.223   1.253   6.453
 8778POPC   D2A48820  39.261   1.178   6.753
 8778POPC   C3A48821  39.225   1.209   7.053
 8778POPC   C4A48822  39.192   1.181   7.353
 8778POPC   C1B48823  39.204   0.937   6.453
 8778POPC   C2B48824  39.285   0.965   6.753
 8778POPC   C3B48825  39.238   0.954   7.053
 8778POPC   C4B48826  39.210   0.973   7.353
 8779POPC   NC348827  30.731  31.447   5.553
 8779POPC   PO448828  30.699  31.489   5.853
 8779POPC   GL148829  30.726  31.482   6.153
 8779POPC   GL248830  30.671  31.319   6.153
 8779POPC   C1A48831  30.726  31.455   6.453
 8779POPC   D2A48832  30.731  31.501   6.753
 8779POPC   C3A48833  30.654  31.459   7.053
 8779POPC   C4A48834  30.718  31.476   7.353
 8779POPC   C1B48835  30.552  31.271   6.453
 8779POPC   C2B48836  30.608  31.298   6.753
 8779POPC   C3B48837  30.567  31.273   7.053
 8779POPC   C4B48838  30.537  31.274   7.353
 8780POPC   NC348839  25.230  22.120   5.553
 8780POPC   PO448840  25.310  22.122   5.853
 8780POPC   GL148841  25.297  22.158   6.153
 8780POPC   GL248842  25.295  22.251   6.153
 8780POPC   C1A48843  25.231  22.163   6.453
 8780POPC   D2A48844  25.256  22.131   6.753
 8780POPC   C3A48845  25.305  22.173   7.053
 8780POPC   C4A48846  25.287  22.189   7.353
 8780POPC   C1B48847  25.437  22.344   6.453
 8780POPC   C2B48848  25.417  22.339   6.753
 8780POPC   C3B48849  25.430  22.382   7.053
 8780POPC   C4B48850  25.433  22.401   7.353
 8781POPC   NC348851  34.537  20.648   5.553
 8781POPC   PO448852  34.582  20.639   5.853
 8781POPC   GL148853  34.589  20.623   6.153
 8781POPC   GL248854  34.468  20.547   6.153
 8781POPC   C1A48855  34.526  20.590   6.453
 8781POPC   D2A48856  34.532  20.625   6.753
 8781POPC   C3A48857  34.581  20.617   7.053
 8781POPC   C4A48858  34.597  20.649   7.353
 8781POPC   C1B48859  34.283  20.587   6.453
 8781POPC   C2B48860  34.360  20.602   6.753
 8781POPC   C3B48861  34.312  20.592   7.053
 8781POPC   C4B48862  34.371  20.546   7.353
 8782POPC   NC348863  39.230   9.703   5.553
 8782POPC   PO448864  39.230   9.787   5.853
 8782POPC   GL148865  39.235   9.730   6.153
 8782POPC   GL248866  39.140   9.814   6.153
 8782POPC   C1A48867  39.266   9.724   6.453
 8782POPC   D2A48868  39.265   9.752   6.753
 8782POPC   C3A48869  39.190   9.745   7.053
 8782POPC   C4A48870  39.204   9.708   7.353
 8782POPC   C1B48871  38.963   9.847   6.453
 8782POPC   C2B48872  38.945   9.804   6.753
 8782POPC   C3B48873  38.976   9.817   7.053
 8782POPC   C4B48874  38.967   9.857   7.353
 8783POPC   NC348875  22.943  43.913   5.553
 8783POPC   PO448876  22.905  43.895   5.853
 8783POPC   GL148877  22.932  43.869   6.153
 8783POPC   GL248878  22.886  43.776   6.153
 8783POPC   C1A48879  22.933  43.882   6.453
 8783POPC   D2A48880  22.930  43.923   6.753
 8783POPC   C3A48881  22.897  43.840   7.053
 8783POPC   C4A48882  22.967  43.837   7.353
 8783POPC   C1B48883  22.736  43.727   6.453
 8783POPC   C2B48884  22.779  43.696   6.753
 8783POPC   C3B48885  22.746  43.697   7.053
 8783POPC   C4B48886  22.790  43.717   7.353
 8784POPC   NC348887   2.027  12.048   5.553
 8784POPC   PO448888   1.951  12.083   5.853
 8784POPC   GL148889   1.972  12.117   6.153
 8784POPC   GL248890   2.094  12.187   6.153
 8784POPC   C1A48891   2.002  12.054   6.453
 8784POPC   D2A48892   2.030  12.043   6.753
 8784POPC   C3A48893   1.969  12.043   7.053
 8784POPC   C4A48894   2.038  12.034   7.353
 8784POPC   C1B48895   2.165  12.300   6.453
 8784POPC   C2B48896   2.141  12.289   6.753
 8784POPC   C3B48897   2.144  12.231   7.053
 8784POPC   C4B48898   2.192  12.272   7.353
 8785POPC   NC348899  12.074  19.868   5.553
 8785POPC   PO448900  12.059  19.788   5.853
 8785POPC   GL148901  12.103  19.847   6.153
 8785POPC   GL248902  12.152  19.907   6.153
 8785POPC   C1A48903  12.057  19.841   6.453
 8785POPC   D2A48904  12.108  19.877   6.753
 8785POPC   C3A48905  12.058  19.828   7.053
 8785POPC   C4A48906  12.105  19.871   7.353
 8785POPC   C1B48907  12.279  19.884   6.453
 8785POPC   C2B48908  12.361  19.941   6.753
 8785POPC   C3B48909  12.357  19.921   7.053
 8785POPC   C4B48910  12.338  19.901   7.353
 8786POPC   NC348911   4.358  44.650   5.553
 8786POPC   PO448912   4.333  44.634   5.853
 8786POPC   GL148913   4.302  44.685   6.153
 8786POPC   GL248914   4.356  44.801   6.153
 8786POPC   C1A48915   4.272  44.615   6.453
 8786POPC   D2A48916   4.313  44.679   6.753
 8786POPC   C3A48917   4.299  44.639   7.053
 8786POPC   C4A48918   4.312  44.633   7.353
 8786POPC   C1B48919   4.381  44.868   6.453
 8786POPC   C2B48920   4.376  44.876   6.753
 8786POPC   C3B48921   4.337  44.953   7.053
 8786POPC   C4B48922   4.322  44.916   7.353
 8787POPC   NC348923  14.435  19.812   5.553
 8787POPC   PO448924  14.422  19.810   5.853
 8787POPC   GL148925  14.406  19.838   6.153
 8787POPC   GL248926  14.443  19.968   6.153
 8787POPC   C1A48927  14.409  19.880   6.453
 8787POPC   D2A48928  14.375  19.803   6.753
 8787POPC   C3A48929  14.381  19.884   7.053
 8787POPC   C4A48930  14.452  19.845   7.353
 8787POPC   C1B48931  14.465  20.098   6.453
 8787POPC   C2B48932  14.470  20.056   6.753
 8787POPC   C3B48933  14.391  20.077   7.053
 8787POPC   C4B48934  14.413  20.104   7.353
 8788POPC   NC348935  43.115  10.508   5.553
 8788POPC   PO448936  43.112  10.570   5.853
 8788POPC   GL148937  43.075  10.517   6.153
 8788POPC   GL248938  43.170  10.598   6.153
 8788POPC   C1A48939  43.090  10.521   6.453
 8788POPC   D2A48940  43.107  10.531   6.753
 8788POPC   C3A48941  43.073  10.522   7.053
 8788POPC   C4A48942  43.065  10.522   7.353
 8788POPC   C1B48943  43.186  10.769   6.453
 8788POPC   C2B48944  43.235  10.772   6.753
 8788POPC   C3B48945  43.218  10.727   7.053
 8788POPC   C4B48946  43.146  10.751   7.353
 8789POPC   NC348947  37.682  43.075   5.553
 8789POPC   PO448948  37.707  43.136   5.853
 8789POPC   GL148949  37.679  43.151   6.153
 8789POPC   GL248950  37.795  43.158   6.153
 8789POPC   C1A48951  37.712  43.105   6.453
 8789POPC   D2A48952  37.674  43.160   6.753
 8789POPC   C3A48953  37.697  43.155   7.053
 8789POPC   C4A48954  37.639  43.077   7.353
 8789POPC   C1B48955  37.892  43.257   6.453
 8789POPC   C2B48956  37.855  43.267   6.753
 8789POPC   C3B48957  37.893  43.281   7.053
 8789POPC   C4B48958  37.906  43.281   7.353
 8790POPC   NC348959   4.327  22.930   5.553
 8790POPC   PO448960   4.298  22.927   5.853
 8790POPC   GL148961   4.284  22.930   6.153
 8790POPC   GL248962   4.248  22.902   6.153
 8790POPC   C1A48963   4.314  22.966   6.453
 8790POPC   D2A48964   4.340  22.972   6.753
 8790POPC   C3A48965   4.342  22.934   7.053
 8790POPC   C4A48966   4.358  22.899   7.353
 8790POPC   C1B48967   4.054  22.781   6.453
 8790POPC   C2B48968   4.107  22.819   6.753
 8790POPC   C3B48969   4.083  22.823   7.053
 8790POPC   C4B48970   4.066  22.835   7.353
 8791POPC   NC348971  29.939  16.752   5.553
 8791POPC   PO448972  29.900  16.750   5.853
 8791POPC   GL148973  29.877  16.731   6.153
 8791POPC   GL248974  29.997  16.604   6.153
 8791POPC   C1A48975  29.920  16.739   6.453
 8791POPC   D2A48976  29.932  16.747   6.753
 8791POPC   C3A48977  29.875  16.729   7.053
 8791POPC   C4A48978  29.927  16.682   7.353
 8791POPC   C1B48979  29.951  16.492   6.453
 8791POPC   C2B48980  29.986  16.455   6.753
 8791POPC   C3B48981  30.015  16.504   7.053
 8791POPC   C4B48982  29.976  16.534   7.353
 8792POPC   NC348983   2.782  19.042   5.553
 8792POPC   PO448984   2.765  19.023   5.853
 8792POPC   GL148985   2.742  19.036   6.153
 8792POPC   GL248986   2.630  19.084   6.153
 8792POPC   C1A48987   2.802  19.010   6.453
 8792POPC   D2A48988   2.761  19.009   6.753
 8792POPC   C3A48989   2.798  19.016   7.053
 8792POPC   C4A48990   2.785  19.062   7.353
 8792POPC   C1B48991   2.553  19.096   6.453
 8792POPC   C2B48992   2.518  19.047   6.753
 8792POPC   C3B48993   2.484  19.107   7.053
 8792POPC   C4B48994   2.477  19.108   7.353
 8793POPC   NC348995  43.138  27.628   5.553
 8793POPC   PO448996  43.075  27.548   5.853
 8793POPC   GL148997  43.092  27.637   6.153
 8793POPC   GL248998  43.229  27.629   6.153
 8793POPC   C1A48999  43.080  27.612   6.453
 8793POPC   D2A49000  43.128  27.571   6.753
 8793POPC   C3A49001  43.137  27.566   7.053
 8793POPC   C4A49002  43.072  27.596   7.353
 8793POPC   C1B49003  43.351  27.639   6.453
 8793POPC   C2B49004  43.362  27.589   6.753
 8793POPC   C3B49005  43.360  27.581   7.053
 8793POPC   C4B49006  43.383  27.613   7.353
 8794POPC   NC349007  26.090  33.807   5.553
 8794POPC   PO449008  26.003  33.826   5.853
 8794POPC   GL149009  26.055  33.754   6.153
 8794POPC   GL249010  26.154  33.820   6.153
 8794POPC   C1A49011  26.054  33.769   6.453
 8794POPC   D2A49012  26.048  33.787   6.753
 8794POPC   C3A49013  26.063  33.813   7.053
 8794POPC   C4A49014  26.037  33.820   7.353
 8794POPC   C1B49015  26.274  33.877   6.453
 8794POPC   C2B49016  26.275  33.858   6.753
 8794POPC   C3B49017  26.274  33.868   7.053
 8794POPC   C4B49018  26.248  33.863   7.353
 8795POPC   NC349019  29.952   7.459   5.553
 8795POPC   PO449020  29.969   7.402   5.853
 8795POPC   GL149021  29.927   7.447   6.153
 8795POPC   GL249022  29.885   7.281   6.153
 8795POPC   C1A49023  29.961   7.379   6.453
 8795POPC   D2A49024  29.906   7.431   6.753
 8795POPC   C3A49025  29.871   7.386   7.053
 8795POPC   C4A49026  29.969   7.385   7.353
 8795POPC   C1B49027  29.778   7.191   6.453
 8795POPC   C2B49028  29.801   7.171   6.753
 8795POPC   C3B49029  29.775   7.156   7.053
 8795POPC   C4B49030  29.856   7.198   7.353
 8796POPC   NC349031   0.391  17.555   5.553
 8796POPC   PO449032   0.478  17.522   5.853
 8796POPC   GL149033   0.419  17.525   6.153
 8796POPC   GL249034   0.558  17.503   6.153
 8796POPC   C1A49035   0.463  17.478   6.453
 8796POPC   D2A49036   0.455  17.470   6.753
 8796POPC   C3A49037   0.469  17.483   7.053
 8796POPC   C4A49038   0.488  17.533   7.353
 8796POPC   C1B49039   0.647  17.419   6.453
 8796POPC   C2B49040   0.625  17.438   6.753
 8796POPC   C3B49041   0.664  17.369   7.053
 8796POPC   C4B49042   0.646  17.392   7.353
 8797POPC   NC349043  43.114   5.122   5.553
 8797POPC   PO449044  43.068   5.142   5.853
 8797POPC   GL149045  43.149   5.062   6.153
 8797POPC   GL249046  43.198   5.206   6.153
 8797POPC   C1A49047  43.113   5.109   6.453
 8797POPC   D2A49048  43.114   5.102   6.753
 8797POPC   C3A49049  43.149   5.074   7.053
 8797POPC   C4A49050  43.110   5.133   7.353
 8797POPC   C1B49051  43.244   5.285   6.453
 8797POPC   C2B49052  43.277   5.323   6.753
 8797POPC   C3B49053  43.278   5.310   7.053
 8797POPC   C4B49054  43.215   5.347   7.353
 8798POPC   NC349055   6.600  25.273   5.553
 8798POPC   PO449056   6.614  25.297   5.853
 8798POPC   GL149057   6.646  25.279   6.153
 8798POPC   GL249058   6.633  25.428   6.153
 8798POPC   C1A49059   6.614  25.308   6.453
 8798POPC   D2A49060   6.669  25.313   6.753
 8798POPC   C3A49061   6.666  25.221   7.053
 8798POPC   C4A49062   6.638  25.230   7.353
 8798POPC   C1B49063   6.694  25.546   6.453
 8798POPC   C2B49064   6.618  25.475   6.753
 8798POPC   C3B49065   6.708  25.520   7.053
 8798POPC   C4B49066   6.696  25.470   7.353
 8799POPC   NC349067  16.775  39.983   5.553
 8799POPC   PO449068  16.763  40.010   5.853
 8799POPC   GL149069  16.741  40.034   6.153
 8799POPC   GL249070  16.865  40.108   6.153
 8799POPC   C1A49071  16.725  40.007   6.453
 8799POPC   D2A49072  16.763  40.048   6.753
 8799POPC   C3A49073  16.750  40.023   7.053
 8799POPC   C4A49074  16.722  40.038   7.353
 8799POPC   C1B49075  16.873  40.176   6.453
 8799POPC   C2B49076  16.893  40.209   6.753
 8799POPC   C3B49077  16.914  40.175   7.053
 8799POPC   C4B49078  16.959  40.222   7.353
 8800POPC   NC349079  37.723  29.181   5.553
 8800POPC   PO449080  37.707  29.099   5.853
 8800POPC   GL149081  37.722  29.159   6.153
 8800POPC   GL249082  37.635  29.046   6.153
 8800POPC   C1A49083  37.657  29.157   6.453
 8800POPC   D2A49084  37.670  29.157   6.753
 8800POPC   C3A49085  37.669  29.195   7.053
 8800POPC   C4A49086  37.714  29.100   7.353
 8800POPC   C1B49087  37.504  29.015   6.453
 8800POPC   C2B49088  37.503  28.956   6.753
 8800POPC   C3B49089  37.536  28.956   7.053
 8800POPC   C4B49090  37.533  28.951   7.353
 8801POPC   NC349091  33.008  24.490   5.553
 8801POPC   PO449092  33.015  24.475   5.853
 8801POPC   GL149093  33.008  24.489   6.153
 8801POPC   GL249094  33.097  24.388   6.153
 8801POPC   C1A49095  33.001  24.443   6.453
 8801POPC   D2A49096  33.063  24.535   6.753
 8801POPC   C3A49097  33.028  24.490   7.053
 8801POPC   C4A49098  33.060  24.473   7.353
 8801POPC   C1B49099  33.216  24.255   6.453
 8801POPC   C2B49100  33.219  24.312   6.753
 8801POPC   C3B49101  33.209  24.273   7.053
 8801POPC   C4B49102  33.215  24.331   7.353
 8802POPC   NC349103  40.786   5.064   5.553
 8802POPC   PO449104  40.821   5.136   5.853
 8802POPC   GL149105  40.741   5.067   6.153
 8802POPC   GL249106  40.870   5.129   6.153
 8802POPC   C1A49107  40.794   5.140   6.453
 8802POPC   D2A49108  40.806   5.131   6.753
 8802POPC   C3A49109  40.759   5.119   7.053
 8802POPC   C4A49110  40.755   5.078   7.353
 8802POPC   C1B49111  40.932   5.277   6.453
 8802POPC   C2B49112  40.998   5.247   6.753
 8802POPC   C3B49113  40.968   5.246   7.053
 8802POPC   C4B49114  40.925   5.306   7.353
 8803POPC   NC349115  29.949  29.951   5.553
 8803POPC   PO449116  29.970  29.968   5.853
 8803POPC   GL149117  29.934  29.963   6.153
 8803POPC   GL249118  29.888  30.058   6.153
 8803POPC   C1A49119  29.949  29.961   6.453
 8803POPC   D2A49120  29.918  29.962   6.753
 8803POPC   C3A49121  29.944  29.943   7.053
 8803POPC   C4A49122  29.879  29.918   7.353
 8803POPC   C1B49123  29.877  30.196   6.453
 8803POPC   C2B49124  29.876  30.177   6.753
 8803POPC   C3B49125  29.837  30.177   7.053
 8803POPC   C4B49126  29.815  30.192   7.353
 8804POPC   NC349127  11.292   3.515   5.553
 8804POPC   PO449128  11.308   3.553   5.853
 8804POPC   GL149129  11.257   3.558   6.153
 8804POPC   GL249130  11.365   3.440   6.153
 8804POPC   C1A49131  11.270   3.578   6.453
 8804POPC   D2A49132  11.292   3.558   6.753
 8804POPC   C3A49133  11.297   3.508   7.053
 8804POPC   C4A49134  11.289   3.518   7.353
 8804POPC   C1B49135  11.505   3.447   6.453
 8804POPC   C2B49136  11.497   3.396   6.753
 8804POPC   C3B49137  11.566   3.441   7.053
 8804POPC   C4B49138  11.475   3.433   7.353
 8805POPC   NC349139  41.582  42.321   5.553
 8805POPC   PO449140  41.512  42.301   5.853
 8805POPC   GL149141  41.534  42.321   6.153
 8805POPC   GL249142  41.458  42.252   6.153
 8805POPC   C1A49143  41.604  42.374   6.453
 8805POPC   D2A49144  41.585  42.291   6.753
 8805POPC   C3A49145  41.521  42.358   7.053
 8805POPC   C4A49146  41.563  42.304   7.353
 8805POPC   C1B49147  41.363  42.194   6.453
 8805POPC   C2B49148  41.357  42.163   6.753
 8805POPC   C3B49149  41.405  42.225   7.053
 8805POPC   C4B49150  41.338  42.206   7.353
 8806POPC   NC349151  29.924   5.102   5.553
 8806POPC   PO449152  29.903   5.044   5.853
 8806POPC   GL149153  29.956   5.078   6.153
 8806POPC   GL249154  29.937   5.171   6.153
 8806POPC   C1A49155  29.945   5.135   6.453
 8806POPC   D2A49156  29.952   5.049   6.753
 8806POPC   C3A49157  29.950   5.065   7.053
 8806POPC   C4A49158  29.898   5.063   7.353
 8806POPC   C1B49159  29.976   5.296   6.453
 8806POPC   C2B49160  30.042   5.291   6.753
 8806POPC   C3B49161  29.979   5.290   7.053
 8806POPC   C4B49162  30.030   5.312   7.353
 8807POPC   NC349163  19.841  38.476   5.553
 8807POPC   PO449164  19.878  38.445   5.853
 8807POPC   GL149165  19.871  38.446   6.153
 8807POPC   GL249166  19.898  38.568   6.153
 8807POPC   C1A49167  19.834  38.472   6.453
 8807POPC   D2A49168  19.821  38.476   6.753
 8807POPC   C3A49169  19.850  38.437   7.053
 8807POPC   C4A49170  19.862  38.457   7.353
 8807POPC   C1B49171  19.855  38.752   6.453
 8807POPC   C2B49172  19.884  38.740   6.753
 8807POPC   C3B49173  19.907  38.731   7.053
 8807POPC   C4B49174  19.867  38.724   7.353
 8808POPC   NC349175  10.529  22.953   5.553
 8808POPC   PO449176  10.524  22.938   5.853
 8808POPC   GL149177  10.567  22.920   6.153
 8808POPC   GL249178  10.646  23.025   6.153
 8808POPC   C1A49179  10.564  22.979   6.453
 8808POPC   D2A49180  10.499  22.963   6.753
 8808POPC   C3A49181  10.537  22.968   7.053
 8808POPC   C4A49182  10.560  22.937   7.353
 8808POPC   C1B49183  10.756  23.040   6.453
 8808POPC   C2B49184  10.726  23.070   6.753
 8808POPC   C3B49185  10.679  23.125   7.053
 8808POPC   C4B49186  10.700  23.100   7.353
 8809POPC   NC349187  32.983  30.721   5.553
 8809POPC   PO449188  33.070  30.715   5.853
 8809POPC   GL149189  33.012  30.683   6.153
 8809POPC   GL249190  32.892  30.598   6.153
 8809POPC   C1A49191  33.047  30.717   6.453
 8809POPC   D2A49192  33.048  30.721   6.753
 8809POPC   C3A49193  32.980  30.715   7.053
 8809POPC   C4A49194  32.984  30.672   7.353
 8809POPC   C1B49195  32.885  30.480   6.453
 8809POPC   C2B49196  32.850  30.523   6.753
 8809POPC   C3B49197  32.810  30.480   7.053
 8809POPC   C4B49198  32.860  30.513   7.353
 8810POPC   NC349199  35.401  28.385   5.553
 8810POPC   PO449200  35.386  28.339   5.853
 8810POPC   GL149201  35.394  28.381   6.153
 8810POPC   GL249202  35.467  28.368   6.153
 8810POPC   C1A49203  35.326  28.384   6.453
 8810POPC   D2A49204  35.398  28.384   6.753
 8810POPC   C3A49205  35.372  28.348   7.053
 8810POPC   C4A49206  35.361  28.321   7.353
 8810POPC   C1B49207  35.553  28.332   6.453
 8810POPC   C2B49208  35.593  28.409   6.753
 8810POPC   C3B49209  35.625  28.337   7.053
 8810POPC   C4B49210  35.559  28.423   7.353
 8811POPC   NC349211  13.653   0.475   5.553
 8811POPC   PO449212  13.655   0.467   5.853
 8811POPC   GL149213  13.635   0.396   6.153
 8811POPC   GL249214  13.560   0.532   6.153
 8811POPC   C1A49215  13.625   0.430   6.453
 8811POPC   D2A49216  13.674   0.438   6.753
 8811POPC   C3A49217  13.592   0.427   7.053
 8811POPC   C4A49218  13.614   0.450   7.353
 8811POPC   C1B49219  13.386   0.613   6.453
 8811POPC   C2B49220  13.456   0.572   6.753
 8811POPC   C3B49221  13.438   0.549   7.053
 8811POPC   C4B49222  13.406   0.551   7.353
 8812POPC   NC349223   7.468  33.037   5.553
 8812POPC   PO449224   7.459  33.020   5.853
 8812POPC   GL149225   7.404  33.037   6.153
 8812POPC   GL249226   7.350  32.904   6.153
 8812POPC   C1A49227   7.394  33.054   6.453
 8812POPC   D2A49228   7.446  32.999   6.753
 8812POPC   C3A49229   7.461  33.047   7.053
 8812POPC   C4A49230   7.426  33.073   7.353
 8812POPC   C1B49231   7.283  32.816   6.453
 8812POPC   C2B49232   7.219  32.868   6.753
 8812POPC   C3B49233   7.242  32.828   7.053
 8812POPC   C4B49234   7.206  32.899   7.353
 8813POPC   NC349235  19.098  43.934   5.553
 8813POPC   PO449236  19.078  43.933   5.853
 8813POPC   GL149237  19.047  43.842   6.153
 8813POPC   GL249238  19.043  43.960   6.153
 8813POPC   C1A49239  19.048  43.906   6.453
 8813POPC   D2A49240  19.023  43.867   6.753
 8813POPC   C3A49241  19.054  43.919   7.053
 8813POPC   C4A49242  19.070  43.925   7.353
 8813POPC   C1B49243  19.015  44.112   6.453
 8813POPC   C2B49244  18.969  44.149   6.753
 8813POPC   C3B49245  18.984  44.142   7.053
 8813POPC   C4B49246  18.993  44.096   7.353
 8814POPC   NC349247  25.245   0.415   5.553
 8814POPC   PO449248  25.311   0.482   5.853
 8814POPC   GL149249  25.254   0.452   6.153
 8814POPC   GL249250  25.262   0.335   6.153
 8814POPC   C1A49251  25.243   0.461   6.453
 8814POPC   D2A49252  25.276   0.447   6.753
 8814POPC   C3A49253  25.223   0.397   7.053
 8814POPC   C4A49254  25.228   0.428   7.353
 8814POPC   C1B49255  25.183   0.176   6.453
 8814POPC   C2B49256  25.126   0.245   6.753
 8814POPC   C3B49257  25.130   0.252   7.053
 8814POPC   C4B49258  25.178   0.203   7.353
 8815POPC   NC349259  37.662   3.575   5.553
 8815POPC   PO449260  37.706   3.584   5.853
 8815POPC   GL149261  37.653   3.579   6.153
 8815POPC   GL249262  37.799   3.683   6.153
 8815POPC   C1A49263  37.729   3.493   6.453
 8815POPC   D2A49264  37.657   3.500   6.753
 8815POPC   C3A49265  37.632   3.578   7.053
 8815POPC   C4A49266  37.722   3.507   7.353
 8815POPC   C1B49267  37.822   3.768   6.453
 8815POPC   C2B49268  37.843   3.730   6.753
 8815POPC   C3B49269  37.802   3.774   7.053
 8815POPC   C4B49270  37.817   3.712   7.353
 8816POPC   NC349271   0.467   7.448   5.553
 8816POPC   PO449272   0.388   7.389   5.853
 8816POPC   GL149273   0.429   7.423   6.153
 8816POPC   GL249274   0.266   7.477   6.153
 8816POPC   C1A49275   0.486   7.432   6.453
 8816POPC   D2A49276   0.469   7.371   6.753
 8816POPC   C3A49277   0.402   7.409   7.053
 8816POPC   C4A49278   0.483   7.414   7.353
 8816POPC   C1B49279   0.182   7.499   6.453
 8816POPC   C2B49280   0.240   7.495   6.753
 8816POPC   C3B49281   0.206   7.434   7.053
 8816POPC   C4B49282   0.237   7.460   7.353
 8817POPC   NC349283  11.313  24.511   5.553
 8817POPC   PO449284  11.313  24.451   5.853
 8817POPC   GL149285  11.270  24.517   6.153
 8817POPC   GL249286  11.318  24.337   6.153
 8817POPC   C1A49287  11.312  24.520   6.453
 8817POPC   D2A49288  11.280  24.442   6.753
 8817POPC   C3A49289  11.298  24.467   7.053
 8817POPC   C4A49290  11.321  24.474   7.353
 8817POPC   C1B49291  11.400  24.269   6.453
 8817POPC   C2B49292  11.334  24.248   6.753
 8817POPC   C3B49293  11.350  24.235   7.053
 8817POPC   C4B49294  11.380  24.288   7.353
 8818POPC   NC349295  39.973   3.556   5.553
 8818POPC   PO449296  40.022   3.590   5.853
 8818POPC   GL149297  40.026   3.528   6.153
 8818POPC   GL249298  39.920   3.566   6.153
 8818POPC   C1A49299  39.964   3.533   6.453
 8818POPC   D2A49300  40.047   3.533   6.753
 8818POPC   C3A49301  39.985   3.508   7.053
 8818POPC   C4A49302  40.023   3.525   7.353
 8818POPC   C1B49303  39.755   3.568   6.453
 8818POPC   C2B49304  39.810   3.595   6.753
 8818POPC   C3B49305  39.720   3.630   7.053
 8818POPC   C4B49306  39.794   3.630   7.353
 8819POPC   NC349307   1.184   0.397   5.553
 8819POPC   PO449308   1.235   0.413   5.853
 8819POPC   GL149309   1.248   0.482   6.153
 8819POPC   GL249310   1.158   0.562   6.153
 8819POPC   C1A49311   1.226   0.427   6.453
 8819POPC   D2A49312   1.225   0.473   6.753
 8819POPC   C3A49313   1.209   0.442   7.053
 8819POPC   C4A49314   1.202   0.473   7.353
 8819POPC   C1B49315   1.095   0.664   6.453
 8819POPC   C2B49316   1.105   0.664   6.753
 8819POPC   C3B49317   1.138   0.704   7.053
 8819POPC   C4B49318   1.168   0.648   7.353
 8820POPC   NC349319  13.579  10.500   5.553
 8820POPC   PO449320  13.631  10.518   5.853
 8820POPC   GL149321  13.628  10.573   6.153
 8820POPC   GL249322  13.662  10.436   6.153
 8820POPC   C1A49323  13.643  10.547   6.453
 8820POPC   D2A49324  13.675  10.491   6.753
 8820POPC   C3A49325  13.676  10.542   7.053
 8820POPC   C4A49326  13.632  10.528   7.353
 8820POPC   C1B49327  13.585  10.239   6.453
 8820POPC   C2B49328  13.565  10.323   6.753
 8820POPC   C3B49329  13.619  10.283   7.053
 8820POPC   C4B49330  13.659  10.243   7.353
 8821POPC   NC349331  43.932  19.080   5.553
 8821POPC   PO449332  43.933  19.073   5.853
 8821POPC   GL149333  43.884  19.028   6.153
 8821POPC   GL249334  44.016  19.169   6.153
 8821POPC   C1A49335  43.902  19.090   6.453
 8821POPC   D2A49336  43.866  19.098   6.753
 8821POPC   C3A49337  43.865  19.087   7.053
 8821POPC   C4A49338  43.903  19.082   7.353
 8821POPC   C1B49339  44.088  19.228   6.453
 8821POPC   C2B49340  44.078  19.188   6.753
 8821POPC   C3B49341  44.112  19.230   7.053
 8821POPC   C4B49342  44.065  19.209   7.353
 8822POPC   NC349343  22.118   1.244   5.553
 8822POPC   PO449344  22.169   1.263   5.853
 8822POPC   GL149345  22.128   1.248   6.153
 8822POPC   GL249346  22.146   1.298   6.153
 8822POPC   C1A49347  22.140   1.215   6.453
 8822POPC   D2A49348  22.186   1.230   6.753
 8822POPC   C3A49349  22.179   1.248   7.053
 8822POPC   C4A49350  22.117   1.253   7.353
 8822POPC   C1B49351  22.125   1.442   6.453
 8822POPC   C2B49352  22.162   1.422   6.753
 8822POPC   C3B49353  22.085   1.491   7.053
 8822POPC   C4B49354  22.099   1.501   7.353
 8823POPC   NC349355  13.668  43.924   5.553
 8823POPC   PO449356  13.652  43.935   5.853
 8823POPC   GL149357  13.649  43.903   6.153
 8823POPC   GL249358  13.656  44.008   6.153
 8823POPC   C1A49359  13.621  43.858   6.453
 8823POPC   D2A49360  13.634  43.915   6.753
 8823POPC   C3A49361  13.596  43.875   7.053
 8823POPC   C4A49362  13.626  43.866   7.353
 8823POPC   C1B49363  13.639  44.149   6.453
 8823POPC   C2B49364  13.627  44.127   6.753
 8823POPC   C3B49365  13.655  44.115   7.053
 8823POPC   C4B49366  13.661  44.091   7.353
 8824POPC   NC349367  13.632  40.765   5.553
 8824POPC   PO449368  13.599  40.812   5.853
 8824POPC   GL149369  13.626  40.803   6.153
 8824POPC   GL249370  13.698  40.828   6.153
 8824POPC   C1A49371  13.591  40.778   6.453
 8824POPC   D2A49372  13.588  40.784   6.753
 8824POPC   C3A49373  13.620  40.794   7.053
 8824POPC   C4A49374  13.593  40.752   7.353
 8824POPC   C1B49375  13.818  40.963   6.453
 8824POPC   C2B49376  13.811  40.965   6.753
 8824POPC   C3B49377  13.774  40.989   7.053
 8824POPC   C4B49378  13.814  40.979   7.353
 8825POPC   NC349379  11.348   9.006   5.553
 8825POPC   PO449380  11.298   8.981   5.853
 8825POPC   GL149381  11.334   8.996   6.153
 8825POPC   GL249382  11.207   9.088   6.153
 8825POPC   C1A49383  11.256   8.971   6.453
 8825POPC   D2A49384  11.318   8.992   6.753
 8825POPC   C3A49385  11.329   9.014   7.053
 8825POPC   C4A49386  11.261   9.005   7.353
 8825POPC   C1B49387  11.117   9.165   6.453
 8825POPC   C2B49388  11.146   9.194   6.753
 8825POPC   C3B49389  11.119   9.196   7.053
 8825POPC   C4B49390  11.089   9.182   7.353
 8826POPC   NC349391  40.753  19.015   5.553
 8826POPC   PO449392  40.737  19.066   5.853
 8826POPC   GL149393  40.779  19.026   6.153
 8826POPC   GL249394  40.854  19.017   6.153
 8826POPC   C1A49395  40.818  19.070   6.453
 8826POPC   D2A49396  40.735  19.090   6.753
 8826POPC   C3A49397  40.773  19.103   7.053
 8826POPC   C4A49398  40.743  19.081   7.353
 8826POPC   C1B49399  40.976  18.951   6.453
 8826POPC   C2B49400  40.964  18.929   6.753
 8826POPC   C3B49401  40.991  18.946   7.053
 8826POPC   C4B49402  41.027  18.932   7.353
 8827POPC   NC349403  12.884   4.276   5.553
 8827POPC   PO449404  12.842   4.276   5.853
 8827POPC   GL149405  12.829   4.271   6.153
 8827POPC   GL249406  12.800   4.401   6.153
 8827POPC   C1A49407  12.844   4.274   6.453
 8827POPC   D2A49408  12.853   4.278   6.753
 8827POPC   C3A49409  12.846   4.309   7.053
 8827POPC   C4A49410  12.852   4.320   7.353
 8827POPC   C1B49411  12.639   4.442   6.453
 8827POPC   C2B49412  12.661   4.447   6.753
 8827POPC   C3B49413  12.698   4.476   7.053
 8827POPC   C4B49414  12.607   4.442   7.353
 8828POPC   NC349415  38.478  31.501   5.553
 8828POPC   PO449416  38.411  31.470   5.853
 8828POPC   GL149417  38.464  31.488   6.153
 8828POPC   GL249418  38.501  31.618   6.153
 8828POPC   C1A49419  38.448  31.482   6.453
 8828POPC   D2A49420  38.433  31.454   6.753
 8828POPC   C3A49421  38.432  31.447   7.053
 8828POPC   C4A49422  38.408  31.453   7.353
 8828POPC   C1B49423  38.601  31.706   6.453
 8828POPC   C2B49424  38.583  31.719   6.753
 8828POPC   C3B49425  38.604  31.694   7.053
 8828POPC   C4B49426  38.569  31.680   7.353
 8829POPC   NC349427   7.464  42.311   5.553
 8829POPC   PO449428   7.385  42.316   5.853
 8829POPC   GL149429   7.389  42.364   6.153
 8829POPC   GL249430   7.368  42.171   6.153
 8829POPC   C1A49431   7.466  42.360   6.453
 8829POPC   D2A49432   7.434  42.304   6.753
 8829POPC   C3A49433   7.450  42.377   7.053
 8829POPC   C4A49434   7.457  42.303   7.353
 8829POPC   C1B49435   7.326  42.070   6.453
 8829POPC   C2B49436   7.328  42.104   6.753
 8829POPC   C3B49437   7.322  42.102   7.053
 8829POPC   C4B49438   7.344  42.095   7.353
 8830POPC   NC349439  18.300  40.044   5.553
 8830POPC   PO449440  18.267  40.019   5.853
 8830POPC   GL149441  18.287  40.052   6.153
 8830POPC   GL249442  18.116  39.936   6.153
 8830POPC   C1A49443  18.293  39.968   6.453
 8830POPC   D2A49444  18.308  39.994   6.753
 8830POPC   C3A49445  18.285  40.053   7.053
 8830POPC   C4A49446  18.273  40.046   7.353
 8830POPC   C1B49447  18.022  39.914   6.453
 8830POPC   C2B49448  18.086  39.905   6.753
 8830POPC   C3B49449  18.008  39.924   7.053
 8830POPC   C4B49450  18.067  39.921   7.353
 8831POPC   NC349451  26.851  24.537   5.553
 8831POPC   PO449452  26.802  24.450   5.853
 8831POPC   GL149453  26.860  24.483   6.153
 8831POPC   GL249454  26.680  24.432   6.153
 8831POPC   C1A49455  26.791  24.505   6.453
 8831POPC   D2A49456  26.852  24.451   6.753
 8831POPC   C3A49457  26.848  24.462   7.053
 8831POPC   C4A49458  26.858  24.463   7.353
 8831POPC   C1B49459  26.577  24.362   6.453
 8831POPC   C2B49460  26.614  24.435   6.753
 8831POPC   C3B49461  26.626  24.436   7.053
 8831POPC   C4B49462  26.553  24.450   7.353
 8832POPC   NC349463  19.880  10.537   5.553
 8832POPC   PO449464  19.850  10.518   5.853
 8832POPC   GL149465  19.826  10.507   6.153
 8832POPC   GL249466  19.918  10.670   6.153
 8832POPC   C1A49467  19.875  10.567   6.453
 8832POPC   D2A49468  19.870  10.506   6.753
 8832POPC   C3A49469  19.844  10.542   7.053
 8832POPC   C4A49470  19.871  10.493   7.353
 8832POPC   C1B49471  19.931  10.721   6.453
 8832POPC   C2B49472  19.904  10.760   6.753
 8832POPC   C3B49473  19.946  10.739   7.053
 8832POPC   C4B49474  19.953  10.763   7.353
 8833POPC   NC349475  15.998   8.179   5.553
 8833POPC   PO449476  15.987   8.201   5.853
 8833POPC   GL149477  15.984   8.230   6.153
 8833POPC   GL249478  15.820   8.211   6.153
 8833POPC   C1A49479  15.922   8.162   6.453
 8833POPC   D2A49480  15.931   8.225   6.753
 8833POPC   C3A49481  15.959   8.190   7.053
 8833POPC   C4A49482  15.994   8.226   7.353
 8833POPC   C1B49483  15.765   8.254   6.453
 8833POPC   C2B49484  15.697   8.269   6.753
 8833POPC   C3B49485  15.762   8.283   7.053
 8833POPC   C4B49486  15.718   8.246   7.353
 8834POPC   NC349487  44.627  42.319   5.553
 8834POPC   PO449488  44.681  42.289   5.853
 8834POPC   GL149489  44.705  42.377   6.153
 8834POPC   GL249490  44.754  42.292   6.153
 8834POPC   C1A49491  44.662  42.305   6.453
 8834POPC   D2A49492  44.637  42.364   6.753
 8834POPC   C3A49493  44.693  42.382   7.053
 8834POPC   C4A49494  44.646  42.285   7.353
 8834POPC   C1B49495  44.930  42.307   6.453
 8834POPC   C2B49496  44.909  42.270   6.753
 8834POPC   C3B49497  44.898  42.243   7.053
 8834POPC   C4B49498  44.936  42.298   7.353
 8835POPC   NC349499  31.464  26.843   5.553
 8835POPC   PO449500  31.441  26.771   5.853
 8835POPC   GL149501  31.455  26.862   6.153
 8835POPC   GL249502  31.460  26.680   6.153
 8835POPC   C1A49503  31.485  26.860   6.453
 8835POPC   D2A49504  31.518  26.830   6.753
 8835POPC   C3A49505  31.450  26.843   7.053
 8835POPC   C4A49506  31.446  26.774   7.353
 8835POPC   C1B49507  31.441  26.529   6.453
 8835POPC   C2B49508  31.463  26.523   6.753
 8835POPC   C3B49509  31.435  26.578   7.053
 8835POPC   C4B49510  31.428  26.597   7.353
 8836POPC   NC349511  33.803  22.130   5.553
 8836POPC   PO449512  33.762  22.179   5.853
 8836POPC   GL149513  33.830  22.158   6.153
 8836POPC   GL249514  33.703  22.108   6.153
 8836POPC   C1A49515  33.755  22.196   6.453
 8836POPC   D2A49516  33.789  22.116   6.753
 8836POPC   C3A49517  33.792  22.192   7.053
 8836POPC   C4A49518  33.787  22.160   7.353
 8836POPC   C1B49519  33.535  22.090   6.453
 8836POPC   C2B49520  33.566  22.054   6.753
 8836POPC   C3B49521  33.562  22.096   7.053
 8836POPC   C4B49522  33.567  22.047   7.353
 8837POPC   NC349523  22.968   6.639   5.553
 8837POPC   PO449524  22.889   6.605   5.853
 8837POPC   GL149525  22.952   6.657   6.153
 8837POPC   GL249526  23.044   6.749   6.153
 8837POPC   C1A49527  22.911   6.631   6.453
 8837POPC   D2A49528  22.900   6.613   6.753
 8837POPC   C3A49529  22.956   6.646   7.053
 8837POPC   C4A49530  22.982   6.652   7.353
 8837POPC   C1B49531  23.169   6.775   6.453
 8837POPC   C2B49532  23.158   6.787   6.753
 8837POPC   C3B49533  23.147   6.754   7.053
 8837POPC   C4B49534  23.165   6.743   7.353
 8838POPC   NC349535   6.648  38.487   5.553
 8838POPC   PO449536   6.614  38.456   5.853
 8838POPC   GL149537   6.644  38.490   6.153
 8838POPC   GL249538   6.752  38.529   6.153
 8838POPC   C1A49539   6.655  38.432   6.453
 8838POPC   D2A49540   6.615  38.416   6.753
 8838POPC   C3A49541   6.596  38.407   7.053
 8838POPC   C4A49542   6.624  38.436   7.353
 8838POPC   C1B49543   6.794  38.704   6.453
 8838POPC   C2B49544   6.738  38.691   6.753
 8838POPC   C3B49545   6.759  38.643   7.053
 8838POPC   C4B49546   6.808  38.699   7.353
 8839POPC   NC349547  20.635  31.485   5.553
 8839POPC   PO449548  20.616  31.491   5.853
 8839POPC   GL149549  20.585  31.452   6.153
 8839POPC   GL249550  20.543  31.589   6.153
 8839POPC   C1A49551  20.652  31.505   6.453
 8839POPC   D2A49552  20.621  31.444   6.753
 8839POPC   C3A49553  20.598  31.469   7.053
 8839POPC   C4A49554  20.576  31.424   7.353
 8839POPC   C1B49555  20.403  31.613   6.453
 8839POPC   C2B49556  20.448  31.597   6.753
 8839POPC   C3B49557  20.373  31.636   7.053
 8839POPC   C4B49558  20.453  31.611   7.353
 8840POPC   NC349559  15.955   7.469   5.553
 8840POPC   PO449560  15.995   7.417   5.853
 8840POPC   GL149561  15.964   7.425   6.153
 8840POPC   GL249562  15.857   7.371   6.153
 8840POPC   C1A49563  15.906   7.383   6.453
 8840POPC   D2A49564  15.958   7.373   6.753
 8840POPC   C3A49565  15.959   7.461   7.053
 8840POPC   C4A49566  15.916   7.430   7.353
 8840POPC   C1B49567  15.792   7.228   6.453
 8840POPC   C2B49568  15.790   7.200   6.753
 8840POPC   C3B49569  15.841   7.258   7.053
 8840POPC   C4B49570  15.789   7.215   7.353
 8841POPC   NC349571  19.062  12.126   5.553
 8841POPC   PO449572  19.055  12.064   5.853
 8841POPC   GL149573  19.061  12.050   6.153
 8841POPC   GL249574  19.059  11.999   6.153
 8841POPC   C1A49575  19.055  12.038   6.453
 8841POPC   D2A49576  19.062  12.105   6.753
 8841POPC   C3A49577  19.048  12.053   7.053
 8841POPC   C4A49578  19.093  12.086   7.353
 8841POPC   C1B49579  18.963  11.840   6.453
 8841POPC   C2B49580  19.048  11.869   6.753
 8841POPC   C3B49581  18.966  11.853   7.053
 8841POPC   C4B49582  19.033  11.808   7.353
 8842POPC   NC349583  36.903  43.927   5.553
 8842POPC   PO449584  36.938  43.875   5.853
 8842POPC   GL149585  36.913  43.863   6.153
 8842POPC   GL249586  36.949  43.715   6.153
 8842POPC   C1A49587  36.945  43.837   6.453
 8842POPC   D2A49588  36.910  43.882   6.753
 8842POPC   C3A49589  36.865  43.909   7.053
 8842POPC   C4A49590  36.941  43.895   7.353
 8842POPC   C1B49591  36.929  43.658   6.453
 8842POPC   C2B49592  36.928  43.661   6.753
 8842POPC   C3B49593  36.912  43.643   7.053
 8842POPC   C4B49594  36.865  43.640   7.353
 8843POPC   NC349595  17.495  33.752   5.553
 8843POPC   PO449596  17.543  33.760   5.853
 8843POPC   GL149597  17.515  33.794   6.153
 8843POPC   GL249598  17.619  33.837   6.153
 8843POPC   C1A49599  17.520  33.813   6.453
 8843POPC   D2A49600  17.479  33.825   6.753
 8843POPC   C3A49601  17.500  33.839   7.053
 8843POPC   C4A49602  17.539  33.750   7.353
 8843POPC   C1B49603  17.745  33.936   6.453
 8843POPC   C2B49604  17.691  33.886   6.753
 8843POPC   C3B49605  17.690  33.870   7.053
 8843POPC   C4B49606  17.742  33.884   7.353
 8844POPC   NC349607  10.493   1.175   5.553
 8844POPC   PO449608  10.490   1.228   5.853
 8844POPC   GL149609  10.558   1.189   6.153
 8844POPC   GL249610  10.555   1.060   6.153
 8844POPC   C1A49611  10.488   1.214   6.453
 8844POPC   D2A49612  10.510   1.182   6.753
 8844POPC   C3A49613  10.520   1.226   7.053
 8844POPC   C4A49614  10.515   1.200   7.353
 8844POPC   C1B49615  10.603   0.985   6.453
 8844POPC   C2B49616  10.512   0.932   6.753
 8844POPC   C3B49617  10.529   0.973   7.053
 8844POPC   C4B49618  10.508   0.923   7.353
 8845POPC   NC349619   5.852  43.867   5.553
 8845POPC   PO449620   5.878  43.934   5.853
 8845POPC   GL149621   5.842  43.915   6.153
 8845POPC   GL249622   5.974  43.899   6.153
 8845POPC   C1A49623   5.826  43.884   6.453
 8845POPC   D2A49624   5.917  43.869   6.753
 8845POPC   C3A49625   5.853  43.845   7.053
 8845POPC   C4A49626   5.834  43.911   7.353
 8845POPC   C1B49627   6.087  43.953   6.453
 8845POPC   C2B49628   6.054  43.930   6.753
 8845POPC   C3B49629   6.060  43.956   7.053
 8845POPC   C4B49630   6.116  43.926   7.353
 8846POPC   NC349631   9.738  24.521   5.553
 8846POPC   PO449632   9.708  24.508   5.853
 8846POPC   GL149633   9.703  24.525   6.153
 8846POPC   GL249634   9.790  24.584   6.153
 8846POPC   C1A49635   9.778  24.512   6.453
 8846POPC   D2A49636   9.742  24.499   6.753
 8846POPC   C3A49637   9.718  24.508   7.053
 8846POPC   C4A49638   9.732  24.532   7.353
 8846POPC   C1B49639   9.800  24.703   6.453
 8846POPC   C2B49640   9.758  24.695   6.753
 8846POPC   C3B49641   9.771  24.772   7.053
 8846POPC   C4B49642   9.749  24.742   7.353
 8847POPC   NC349643  29.146   6.628   5.553
 8847POPC   PO449644  29.095   6.627   5.853
 8847POPC   GL149645  29.177   6.687   6.153
 8847POPC   GL249646  29.201   6.740   6.153
 8847POPC   C1A49647  29.152   6.625   6.453
 8847POPC   D2A49648  29.099   6.644   6.753
 8847POPC   C3A49649  29.187   6.620   7.053
 8847POPC   C4A49650  29.141   6.649   7.353
 8847POPC   C1B49651  29.117   6.922   6.453
 8847POPC   C2B49652  29.172   6.908   6.753
 8847POPC   C3B49653  29.156   6.885   7.053
 8847POPC   C4B49654  29.141   6.903   7.353
 8848POPC   NC349655  33.770  28.381   5.553
 8848POPC   PO449656  33.831  28.325   5.853
 8848POPC   GL149657  33.831  28.331   6.153
 8848POPC   GL249658  33.801  28.230   6.153
 8848POPC   C1A49659  33.784  28.410   6.453
 8848POPC   D2A49660  33.830  28.418   6.753
 8848POPC   C3A49661  33.782  28.337   7.053
 8848POPC   C4A49662  33.801  28.395   7.353
 8848POPC   C1B49663  33.825  28.077   6.453
 8848POPC   C2B49664  33.825  28.165   6.753
 8848POPC   C3B49665  33.802  28.078   7.053
 8848POPC   C4B49666  33.787  28.094   7.353
 8849POPC   NC349667  19.016  12.805   5.553
 8849POPC   PO449668  19.019  12.833   5.853
 8849POPC   GL149669  19.013  12.879   6.153
 8849POPC   GL249670  18.971  12.774   6.153
 8849POPC   C1A49671  19.018  12.872   6.453
 8849POPC   D2A49672  19.066  12.848   6.753
 8849POPC   C3A49673  19.037  12.832   7.053
 8849POPC   C4A49674  19.064  12.829   7.353
 8849POPC   C1B49675  18.966  12.603   6.453
 8849POPC   C2B49676  18.891  12.614   6.753
 8849POPC   C3B49677  18.921  12.680   7.053
 8849POPC   C4B49678  18.982  12.622   7.353
 8850POPC   NC349679  19.800  15.162   5.553
 8850POPC   PO449680  19.819  15.215   5.853
 8850POPC   GL149681  19.815  15.228   6.153
 8850POPC   GL249682  19.897  15.121   6.153
 8850POPC   C1A49683  19.818  15.163   6.453
 8850POPC   D2A49684  19.851  15.150   6.753
 8850POPC   C3A49685  19.797  15.221   7.053
 8850POPC   C4A49686  19.860  15.160   7.353
 8850POPC   C1B49687  19.976  14.930   6.453
 8850POPC   C2B49688  19.933  14.993   6.753
 8850POPC   C3B49689  19.996  14.984   7.053
 8850POPC   C4B49690  19.954  14.977   7.353
 8851POPC   NC349691  26.010  22.949   5.553
 8851POPC   PO449692  25.994  22.931   5.853
 8851POPC   GL149693  26.022  22.892   6.153
 8851POPC   GL249694  26.035  22.808   6.153
 8851POPC   C1A49695  26.019  22.967   6.453
 8851POPC   D2A49696  26.067  22.919   6.753
 8851POPC   C3A49697  26.024  22.976   7.053
 8851POPC   C4A49698  26.054  22.920   7.353
 8851POPC   C1B49699  25.954  22.673   6.453
 8851POPC   C2B49700  25.952  22.658   6.753
 8851POPC   C3B49701  26.003  22.722   7.053
 8851POPC   C4B49702  25.975  22.677   7.353
 8852POPC   NC349703  37.655  19.096   5.553
 8852POPC   PO449704  37.716  19.048   5.853
 8852POPC   GL149705  37.691  19.084   6.153
 8852POPC   GL249706  37.732  19.175   6.153
 8852POPC   C1A49707  37.642  19.091   6.453
 8852POPC   D2A49708  37.713  19.067   6.753
 8852POPC   C3A49709  37.635  19.100   7.053
 8852POPC   C4A49710  37.721  19.051   7.353
 8852POPC   C1B49711  37.857  19.194   6.453
 8852POPC   C2B49712  37.852  19.191   6.753
 8852POPC   C3B49713  37.885  19.254   7.053
 8852POPC   C4B49714  37.854  19.224   7.353
 8853POPC   NC349715  30.685  33.778   5.553
 8853POPC   PO449716  30.674  33.775   5.853
 8853POPC   GL149717  30.746  33.830   6.153
 8853POPC   GL249718  30.667  33.961   6.153
 8853POPC   C1A49719  30.725  33.768   6.453
 8853POPC   D2A49720  30.719  33.832   6.753
 8853POPC   C3A49721  30.696  33.800   7.053
 8853POPC   C4A49722  30.706  33.768   7.353
 8853POPC   C1B49723  30.697  34.000   6.453
 8853POPC   C2B49724  30.692  34.083   6.753
 8853POPC   C3B49725  30.722  34.083   7.053
 8853POPC   C4B49726  30.712  34.010   7.353
 8854POPC   NC349727  15.196  10.515   5.553
 8854POPC   PO449728  15.220  10.572   5.853
 8854POPC   GL149729  15.217  10.487   6.153
 8854POPC   GL249730  15.100  10.461   6.153
 8854POPC   C1A49731  15.226  10.543   6.453
 8854POPC   D2A49732  15.180  10.544   6.753
 8854POPC   C3A49733  15.139  10.554   7.053
 8854POPC   C4A49734  15.189  10.517   7.353
 8854POPC   C1B49735  14.975  10.447   6.453
 8854POPC   C2B49736  14.974  10.411   6.753
 8854POPC   C3B49737  14.983  10.444   7.053
 8854POPC   C4B49738  14.927  10.405   7.353
 8855POPC   NC349739  18.247  12.056   5.553
 8855POPC   PO449740  18.286  12.053   5.853
 8855POPC   GL149741  18.260  12.115   6.153
 8855POPC   GL249742  18.149  12.090   6.153
 8855POPC   C1A49743  18.257  12.073   6.453
 8855POPC   D2A49744  18.332  12.063   6.753
 8855POPC   C3A49745  18.289  12.075   7.053
 8855POPC   C4A49746  18.272  12.066   7.353
 8855POPC   C1B49747  18.020  12.186   6.453
 8855POPC   C2B49748  18.080  12.197   6.753
 8855POPC   C3B49749  18.048  12.230   7.053
 8855POPC   C4B49750  18.048  12.144   7.353
 8856POPC   NC349751  43.149  43.118   5.553
 8856POPC   PO449752  43.108  43.113   5.853
 8856POPC   GL149753  43.083  43.069   6.153
 8856POPC   GL249754  43.037  43.039   6.153
 8856POPC   C1A49755  43.082  43.116   6.453
 8856POPC   D2A49756  43.135  43.119   6.753
 8856POPC   C3A49757  43.148  43.096   7.053
 8856POPC   C4A49758  43.104  43.084   7.353
 8856POPC   C1B49759  43.033  42.854   6.453
 8856POPC   C2B49760  43.012  42.904   6.753
 8856POPC   C3B49761  42.981  42.928   7.053
 8856POPC   C4B49762  43.014  42.871   7.353
 8857POPC   NC349763   2.806   5.887   5.553
 8857POPC   PO449764   2.744   5.871   5.853
 8857POPC   GL149765   2.738   5.875   6.153
 8857POPC   GL249766   2.807   5.960   6.153
 8857POPC   C1A49767   2.753   5.836   6.453
 8857POPC   D2A49768   2.780   5.916   6.753
 8857POPC   C3A49769   2.744   5.841   7.053
 8857POPC   C4A49770   2.801   5.823   7.353
 8857POPC   C1B49771   2.976   5.996   6.453
 8857POPC   C2B49772   2.896   6.003   6.753
 8857POPC   C3B49773   2.919   6.039   7.053
 8857POPC   C4B49774   2.957   6.089   7.353
 8858POPC   NC349775  40.825  27.552   5.553
 8858POPC   PO449776  40.786  27.608   5.853
 8858POPC   GL149777  40.787  27.632   6.153
 8858POPC   GL249778  40.705  27.624   6.153
 8858POPC   C1A49779  40.823  27.641   6.453
 8858POPC   D2A49780  40.754  27.564   6.753
 8858POPC   C3A49781  40.831  27.614   7.053
 8858POPC   C4A49782  40.808  27.562   7.353
 8858POPC   C1B49783  40.513  27.640   6.453
 8858POPC   C2B49784  40.522  27.608   6.753
 8858POPC   C3B49785  40.584  27.686   7.053
 8858POPC   C4B49786  40.494  27.610   7.353
 8859POPC   NC349787  26.003  35.319   5.553
 8859POPC   PO449788  26.027  35.376   5.853
 8859POPC   GL149789  26.086  35.331   6.153
 8859POPC   GL249790  26.156  35.453   6.153
 8859POPC   C1A49791  26.089  35.373   6.453
 8859POPC   D2A49792  26.063  35.390   6.753
 8859POPC   C3A49793  26.035  35.323   7.053
 8859POPC   C4A49794  26.078  35.333   7.353
 8859POPC   C1B49795  26.289  35.447   6.453
 8859POPC   C2B49796  26.281  35.481   6.753
 8859POPC   C3B49797  26.266  35.476   7.053
 8859POPC   C4B49798  26.304  35.486   7.353
 8860POPC   NC349799  22.987  40.800   5.553
 8860POPC   PO449800  22.974  40.780   5.853
 8860POPC   GL149801  22.958  40.757   6.153
 8860POPC   GL249802  23.067  40.664   6.153
 8860POPC   C1A49803  22.966  40.798   6.453
 8860POPC   D2A49804  22.960  40.805   6.753
 8860POPC   C3A49805  22.915  40.813   7.053
 8860POPC   C4A49806  22.957  40.811   7.353
 8860POPC   C1B49807  23.142  40.582   6.453
 8860POPC   C2B49808  23.158  40.630   6.753
 8860POPC   C3B49809  23.094  40.608   7.053
 8860POPC   C4B49810  23.077  40.598   7.353
 8861POPC   NC349811  17.516  41.534   5.553
 8861POPC   PO449812  17.555  41.542   5.853
 8861POPC   GL149813  17.486  41.510   6.153
 8861POPC   GL249814  17.479  41.424   6.153
 8861POPC   C1A49815  17.517  41.515   6.453
 8861POPC   D2A49816  17.492  41.587   6.753
 8861POPC   C3A49817  17.508  41.556   7.053
 8861POPC   C4A49818  17.508  41.529   7.353
 8861POPC   C1B49819  17.436  41.298   6.453
 8861POPC   C2B49820  17.469  41.323   6.753
 8861POPC   C3B49821  17.514  41.279   7.053
 8861POPC   C4B49822  17.469  41.325   7.353
 8862POPC   NC349823  43.895   9.745   5.553
 8862POPC   PO449824  43.858   9.726   5.853
 8862POPC   GL149825  43.845   9.720   6.153
 8862POPC   GL249826  43.857   9.846   6.153
 8862POPC   C1A49827  43.868   9.758   6.453
 8862POPC   D2A49828  43.903   9.699   6.753
 8862POPC   C3A49829  43.873   9.791   7.053
 8862POPC   C4A49830  43.901   9.783   7.353
 8862POPC   C1B49831  43.913   9.964   6.453
 8862POPC   C2B49832  43.952  10.011   6.753
 8862POPC   C3B49833  43.947  10.033   7.053
 8862POPC   C4B49834  43.910  10.021   7.353
 8863POPC   NC349835  33.821  24.453   5.553
 8863POPC   PO449836  33.769  24.489   5.853
 8863POPC   GL149837  33.757  24.463   6.153
 8863POPC   GL249838  33.816  24.551   6.153
 8863POPC   C1A49839  33.770  24.503   6.453
 8863POPC   D2A49840  33.807  24.510   6.753
 8863POPC   C3A49841  33.766  24.449   7.053
 8863POPC   C4A49842  33.774  24.506   7.353
 8863POPC   C1B49843  33.958  24.674   6.453
 8863POPC   C2B49844  33.895  24.735   6.753
 8863POPC   C3B49845  33.919  24.716   7.053
 8863POPC   C4B49846  33.922  24.659   7.353
 8864POPC   NC349847  28.352  31.479   5.553
 8864POPC   PO449848  28.349  31.483   5.853
 8864POPC   GL149849  28.383  31.510   6.153
 8864POPC   GL249850  28.438  31.511   6.153
 8864POPC   C1A49851  28.413  31.482   6.453
 8864POPC   D2A49852  28.354  31.499   6.753
 8864POPC   C3A49853  28.364  31.462   7.053
 8864POPC   C4A49854  28.419  31.503   7.353
 8864POPC   C1B49855  28.564  31.593   6.453
 8864POPC   C2B49856  28.622  31.638   6.753
 8864POPC   C3B49857  28.602  31.612   7.053
 8864POPC   C4B49858  28.585  31.656   7.353
 8865POPC   NC349859  32.246  28.396   5.553
 8865POPC   PO449860  32.239  28.361   5.853
 8865POPC   GL149861  32.277  28.330   6.153
 8865POPC   GL249862  32.250  28.244   6.153
 8865POPC   C1A49863  32.275  28.389   6.453
 8865POPC   D2A49864  32.237  28.350   6.753
 8865POPC   C3A49865  32.203  28.352   7.053
 8865POPC   C4A49866  32.269  28.408   7.353
 8865POPC   C1B49867  32.213  28.116   6.453
 8865POPC   C2B49868  32.268  28.102   6.753
 8865POPC   C3B49869  32.232  28.165   7.053
 8865POPC   C4B49870  32.298  28.164   7.353
 8866POPC   NC349871  36.928  19.036   5.553
 8866POPC   PO449872  36.915  19.022   5.853
 8866POPC   GL149873  36.863  19.034   6.153
 8866POPC   GL249874  36.736  19.086   6.153
 8866POPC   C1A49875  36.920  19.027   6.453
 8866POPC   D2A49876  36.941  19.102   6.753
 8866POPC   C3A49877  36.901  19.075   7.053
 8866POPC   C4A49878  36.881  19.043   7.353
 8866POPC   C1B49879  36.638  19.144   6.453
 8866POPC   C2B49880  36.632  19.171   6.753
 8866POPC   C3B49881  36.685  19.111   7.053
 8866POPC   C4B49882  36.658  19.125   7.353
 8867POPC   NC349883  40.054  29.168   5.553
 8867POPC   PO449884  39.981  29.180   5.853
 8867POPC   GL149885  40.001  29.187   6.153
 8867POPC   GL249886  40.108  29.108   6.153
 8867POPC   C1A49887  40.007  29.160   6.453
 8867POPC   D2A49888  40.008  29.150   6.753
 8867POPC   C3A49889  40.030  29.125   7.053
 8867POPC   C4A49890  40.025  29.164   7.353
 8867POPC   C1B49891  40.223  28.980   6.453
 8867POPC   C2B49892  40.235  28.980   6.753
 8867POPC   C3B49893  40.228  28.969   7.053
 8867POPC   C4B49894  40.241  28.996   7.353
 8868POPC   NC349895   7.455  43.093   5.553
 8868POPC   PO449896   7.433  43.093   5.853
 8868POPC   GL149897   7.421  43.126   6.153
 8868POPC   GL249898   7.459  43.015   6.153
 8868POPC   C1A49899   7.449  43.087   6.453
 8868POPC   D2A49900   7.406  43.157   6.753
 8868POPC   C3A49901   7.405  43.158   7.053
 8868POPC   C4A49902   7.454  43.149   7.353
 8868POPC   C1B49903   7.620  42.904   6.453
 8868POPC   C2B49904   7.589  42.960   6.753
 8868POPC   C3B49905   7.621  42.959   7.053
 8868POPC   C4B49906   7.582  42.957   7.353
 8869POPC   NC349907  12.060  43.915   5.553
 8869POPC   PO449908  12.106  43.874   5.853
 8869POPC   GL149909  12.072  43.845   6.153
 8869POPC   GL249910  11.994  43.991   6.153
 8869POPC   C1A49911  12.102  43.931   6.453
 8869POPC   D2A49912  12.036  43.870   6.753
 8869POPC   C3A49913  12.100  43.900   7.053
 8869POPC   C4A49914  12.075  43.886   7.353
 8869POPC   C1B49915  11.975  44.108   6.453
 8869POPC   C2B49916  12.003  44.101   6.753
 8869POPC   C3B49917  11.947  44.106   7.053
 8869POPC   C4B49918  12.016  44.111   7.353
 8870POPC   NC349919  32.978  28.387   5.553
 8870POPC   PO449920  33.049  28.391   5.853
 8870POPC   GL149921  33.065  28.349   6.153
 8870POPC   GL249922  32.936  28.485   6.153
 8870POPC   C1A49923  33.042  28.405   6.453
 8870POPC   D2A49924  32.999  28.346   6.753
 8870POPC   C3A49925  33.070  28.360   7.053
 8870POPC   C4A49926  33.009  28.411   7.353
 8870POPC   C1B49927  32.982  28.647   6.453
 8870POPC   C2B49928  32.919  28.632   6.753
 8870POPC   C3B49929  32.938  28.617   7.053
 8870POPC   C4B49930  32.988  28.594   7.353
 8871POPC   NC349931  12.882  15.164   5.553
 8871POPC   PO449932  12.873  15.142   5.853
 8871POPC   GL149933  12.846  15.171   6.153
 8871POPC   GL249934  12.726  15.165   6.153
 8871POPC   C1A49935  12.881  15.182   6.453
 8871POPC   D2A49936  12.872  15.146   6.753
 8871POPC   C3A49937  12.848  15.219   7.053
 8871POPC   C4A49938  12.803  15.173   7.353
 8871POPC   C1B49939  12.601  15.157   6.453
 8871POPC   C2B49940  12.557  15.171   6.753
 8871POPC   C3B49941  12.637  15.213   7.053
 8871POPC   C4B49942  12.555  15.148   7.353
 8872POPC   NC349943   1.972  34.567   5.553
 8872POPC   PO449944   1.986  34.539   5.853
 8872POPC   GL149945   1.998  34.546   6.153
 8872POPC   GL249946   2.002  34.440   6.153
 8872POPC   C1A49947   2.010  34.537   6.453
 8872POPC   D2A49948   1.998  34.551   6.753
 8872POPC   C3A49949   1.978  34.590   7.053
 8872POPC   C4A49950   2.033  34.543   7.353
 8872POPC   C1B49951   2.094  34.348   6.453
 8872POPC   C2B49952   2.039  34.336   6.753
 8872POPC   C3B49953   2.094  34.327   7.053
 8872POPC   C4B49954   2.081  34.374   7.353
 8873POPC   NC349955  43.933  33.768   5.553
 8873POPC   PO449956  43.919  33.806   5.853
 8873POPC   GL149957  43.896  33.765   6.153
 8873POPC   GL249958  43.999  33.722   6.153
 8873POPC   C1A49959  43.898  33.814   6.453
 8873POPC   D2A49960  43.920  33.774   6.753
 8873POPC   C3A49961  43.849  33.789   7.053
 8873POPC   C4A49962  43.875  33.753   7.353
 8873POPC   C1B49963  44.008  33.598   6.453
 8873POPC   C2B49964  44.042  33.628   6.753
 8873POPC   C3B49965  44.057  33.656   7.053
 8873POPC   C4B49966  44.043  33.612   7.353
 8874POPC   NC349967  42.292  18.311   5.553
 8874POPC   PO449968  42.289  18.255   5.853
 8874POPC   GL149969  42.329  18.318   6.153
 8874POPC   GL249970  42.289  18.200   6.153
 8874POPC   C1A49971  42.286  18.290   6.453
 8874POPC   D2A49972  42.349  18.259   6.753
 8874POPC   C3A49973  42.302  18.319   7.053
 8874POPC   C4A49974  42.371  18.276   7.353
 8874POPC   C1B49975  42.219  18.042   6.453
 8874POPC   C2B49976  42.192  18.106   6.753
 8874POPC   C3B49977  42.259  18.059   7.053
 8874POPC   C4B49978  42.209  18.042   7.353
 8875POPC   NC349979  10.537  41.582   5.553
 8875POPC   PO449980  10.540  41.549   5.853
 8875POPC   GL149981  10.572  41.558   6.153
 8875POPC   GL249982  10.626  41.638   6.153
 8875POPC   C1A49983  10.500  41.539   6.453
 8875POPC   D2A49984  10.573  41.551   6.753
 8875POPC   C3A49985  10.530  41.545   7.053
 8875POPC   C4A49986  10.568  41.570   7.353
 8875POPC   C1B49987  10.679  41.806   6.453
 8875POPC   C2B49988  10.663  41.758   6.753
 8875POPC   C3B49989  10.669  41.724   7.053
 8875POPC   C4B49990  10.617  41.814   7.353
 8876POPC   NC349991  15.202   4.364   5.553
 8876POPC   PO449992  15.135   4.306   5.853
 8876POPC   GL149993  15.222   4.340   6.153
 8876POPC   GL249994  15.181   4.238   6.153
 8876POPC   C1A49995  15.144   4.276   6.453
 8876POPC   D2A49996  15.226   4.352   6.753
 8876POPC   C3A49997  15.200   4.340   7.053
 8876POPC   C4A49998  15.180   4.356   7.353
 8876POPC   C1B49999  15.154   4.081   6.453
 8876POPC   C2B50000  15.168   4.027   6.753
 8876POPC   C3B50001  15.198   4.087   7.053
 8876POPC   C4B50002  15.154   4.117   7.353
 8877POPC   NC350003  29.924  10.547   5.553
 8877POPC   PO450004  29.929  10.515   5.853
 8877POPC   GL150005  29.928  10.536   6.153
 8877POPC   GL250006  29.948  10.370   6.153
 8877POPC   C1A50007  29.938  10.541   6.453
 8877POPC   D2A50008  29.889  10.560   6.753
 8877POPC   C3A50009  29.901  10.545   7.053
 8877POPC   C4A50010  29.891  10.555   7.353
 8877POPC   C1B50011  29.993  10.247   6.453
 8877POPC   C2B50012  29.923  10.302   6.753
 8877POPC   C3B50013  29.941  10.273   7.053
 8877POPC   C4B50014  29.992  10.296   7.353
 8878POPC   NC350015  37.642  32.992   5.553
 8878POPC   PO450016  37.689  33.044   5.853
 8878POPC   GL150017  37.696  32.984   6.153
 8878POPC   GL250018  37.593  33.103   6.153
 8878POPC   C1A50019  37.655  33.010   6.453
 8878POPC   D2A50020  37.722  33.020   6.753
 8878POPC   C3A50021  37.654  33.005   7.053
 8878POPC   C4A50022  37.691  32.994   7.353
 8878POPC   C1B50023  37.416  33.100   6.453
 8878POPC   C2B50024  37.414  33.129   6.753
 8878POPC   C3B50025  37.476  33.130   7.053
 8878POPC   C4B50026  37.415  33.190   7.353
 8879POPC   NC350027  22.115  11.313   5.553
 8879POPC   PO450028  22.125  11.265   5.853
 8879POPC   GL150029  22.171  11.287   6.153
 8879POPC   GL250030  22.274  11.306   6.153
 8879POPC   C1A50031  22.175  11.251   6.453
 8879POPC   D2A50032  22.209  11.316   6.753
 8879POPC   C3A50033  22.199  11.337   7.053
 8879POPC   C4A50034  22.172  11.251   7.353
 8879POPC   C1B50035  22.442  11.368   6.453
 8879POPC   C2B50036  22.438  11.399   6.753
 8879POPC   C3B50037  22.386  11.326   7.053
 8879POPC   C4B50038  22.371  11.380   7.353
 8880POPC   NC350039  22.915  17.501   5.553
 8880POPC   PO450040  22.987  17.520   5.853
 8880POPC   GL150041  22.909  17.464   6.153
 8880POPC   GL250042  22.921  17.416   6.153
 8880POPC   C1A50043  22.923  17.462   6.453
 8880POPC   D2A50044  22.960  17.518   6.753
 8880POPC   C3A50045  22.964  17.470   7.053
 8880POPC   C4A50046  22.921  17.459   7.353
 8880POPC   C1B50047  22.935  17.212   6.453
 8880POPC   C2B50048  22.966  17.244   6.753
 8880POPC   C3B50049  22.898  17.262   7.053
 8880POPC   C4B50050  22.916  17.295   7.353
 8881POPC   NC350051  40.777  30.679   5.553
 8881POPC   PO450052  40.774  30.746   5.853
 8881POPC   GL150053  40.786  30.716   6.153
 8881POPC   GL250054  40.901  30.677   6.153
 8881POPC   C1A50055  40.775  30.730   6.453
 8881POPC   D2A50056  40.741  30.731   6.753
 8881POPC   C3A50057  40.736  30.678   7.053
 8881POPC   C4A50058  40.778  30.686   7.353
 8881POPC   C1B50059  40.998  30.745   6.453
 8881POPC   C2B50060  41.025  30.719   6.753
 8881POPC   C3B50061  41.028  30.667   7.053
 8881POPC   C4B50062  41.042  30.676   7.353
 8882POPC   NC350063  42.295  13.644   5.553
 8882POPC   PO450064  42.349  13.635   5.853
 8882POPC   GL150065  42.290  13.656   6.153
 8882POPC   GL250066  42.444  13.630   6.153
 8882POPC   C1A50067  42.360  13.611   6.453
 8882POPC   D2A50068  42.293  13.636   6.753
 8882POPC   C3A50069  42.300  13.602   7.053
 8882POPC   C4A50070  42.320  13.656   7.353
 8882POPC   C1B50071  42.613  13.534   6.453
 8882POPC   C2B50072  42.542  13.629   6.753
 8882POPC   C3B50073  42.537  13.629   7.053
 8882POPC   C4B50074  42.552  13.630   7.353
 8883POPC   NC350075  42.349  44.710   5.553
 8883POPC   PO450076  42.383  44.697   5.853
 8883POPC   GL150077  42.307  44.613   6.153
 8883POPC   GL250078  42.336  44.555   6.153
 8883POPC   C1A50079  42.301  44.712   6.453
 8883POPC   D2A50080  42.310  44.694   6.753
 8883POPC   C3A50081  42.359  44.671   7.053
 8883POPC   C4A50082  42.322  44.703   7.353
 8883POPC   C1B50083  42.224  44.477   6.453
 8883POPC   C2B50084  42.202  44.481   6.753
 8883POPC   C3B50085  42.194  44.455   7.053
 8883POPC   C4B50086  42.287  44.436   7.353
 8884POPC   NC350087   2.735  26.005   5.553
 8884POPC   PO450088   2.799  26.049   5.853
 8884POPC   GL150089   2.784  26.072   6.153
 8884POPC   GL250090   2.726  26.151   6.153
 8884POPC   C1A50091   2.796  26.088   6.453
 8884POPC   D2A50092   2.784  26.047   6.753
 8884POPC   C3A50093   2.813  26.014   7.053
 8884POPC   C4A50094   2.802  25.998   7.353
 8884POPC   C1B50095   2.636  26.269   6.453
 8884POPC   C2B50096   2.612  26.203   6.753
 8884POPC   C3B50097   2.616  26.253   7.053
 8884POPC   C4B50098   2.599  26.247   7.353
 8885POPC   NC350099  40.753  22.952   5.553
 8885POPC   PO450100  40.823  22.968   5.853
 8885POPC   GL150101  40.791  22.926   6.153
 8885POPC   GL250102  40.937  22.982   6.153
 8885POPC   C1A50103  40.807  22.946   6.453
 8885POPC   D2A50104  40.748  22.947   6.753
 8885POPC   C3A50105  40.816  22.925   7.053
 8885POPC   C4A50106  40.762  22.966   7.353
 8885POPC   C1B50107  40.969  23.052   6.453
 8885POPC   C2B50108  40.974  23.118   6.753
 8885POPC   C3B50109  40.947  23.101   7.053
 8885POPC   C4B50110  40.959  23.108   7.353
 8886POPC   NC350111  42.357  20.632   5.553
 8886POPC   PO450112  42.294  20.627   5.853
 8886POPC   GL150113  42.381  20.570   6.153
 8886POPC   GL250114  42.290  20.738   6.153
 8886POPC   C1A50115  42.355  20.652   6.453
 8886POPC   D2A50116  42.310  20.642   6.753
 8886POPC   C3A50117  42.317  20.659   7.053
 8886POPC   C4A50118  42.323  20.655   7.353
 8886POPC   C1B50119  42.296  20.869   6.453
 8886POPC   C2B50120  42.312  20.860   6.753
 8886POPC   C3B50121  42.356  20.814   7.053
 8886POPC   C4B50122  42.327  20.848   7.353
 8887POPC   NC350123  23.736  20.623   5.553
 8887POPC   PO450124  23.728  20.624   5.853
 8887POPC   GL150125  23.713  20.652   6.153
 8887POPC   GL250126  23.729  20.762   6.153
 8887POPC   C1A50127  23.701  20.630   6.453
 8887POPC   D2A50128  23.696  20.632   6.753
 8887POPC   C3A50129  23.743  20.570   7.053
 8887POPC   C4A50130  23.699  20.566   7.353
 8887POPC   C1B50131  23.768  20.827   6.453
 8887POPC   C2B50132  23.736  20.811   6.753
 8887POPC   C3B50133  23.791  20.841   7.053
 8887POPC   C4B50134  23.782  20.894   7.353
 8888POPC   NC350135  36.110  18.236   5.553
 8888POPC   PO450136  36.172  18.275   5.853
 8888POPC   GL150137  36.092  18.314   6.153
 8888POPC   GL250138  36.098  18.364   6.153
 8888POPC   C1A50139  36.125  18.257   6.453
 8888POPC   D2A50140  36.110  18.312   6.753
 8888POPC   C3A50141  36.084  18.247   7.053
 8888POPC   C4A50142  36.165  18.292   7.353
 8888POPC   C1B50143  36.036  18.503   6.453
 8888POPC   C2B50144  36.008  18.532   6.753
 8888POPC   C3B50145  36.047  18.526   7.053
 8888POPC   C4B50146  35.976  18.475   7.353
 8889POPC   NC350147  24.446  21.363   5.553
 8889POPC   PO450148  24.467  21.394   5.853
 8889POPC   GL150149  24.483  21.354   6.153
 8889POPC   GL250150  24.639  21.312   6.153
 8889POPC   C1A50151  24.500  21.373   6.453
 8889POPC   D2A50152  24.491  21.382   6.753
 8889POPC   C3A50153  24.510  21.358   7.053
 8889POPC   C4A50154  24.493  21.426   7.353
 8889POPC   C1B50155  24.689  21.247   6.453
 8889POPC   C2B50156  24.670  21.250   6.753
 8889POPC   C3B50157  24.686  21.257   7.053
 8889POPC   C4B50158  24.729  21.257   7.353
 8890POPC   NC350159  20.613  16.700   5.553
 8890POPC   PO450160  20.598  16.726   5.853
 8890POPC   GL150161  20.635  16.707   6.153
 8890POPC   GL250162  20.737  16.806   6.153
 8890POPC   C1A50163  20.635  16.774   6.453
 8890POPC   D2A50164  20.566  16.682   6.753
 8890POPC   C3A50165  20.569  16.709   7.053
 8890POPC   C4A50166  20.611  16.775   7.353
 8890POPC   C1B50167  20.877  16.746   6.453
 8890POPC   C2B50168  20.814  16.809   6.753
 8890POPC   C3B50169  20.833  16.799   7.053
 8890POPC   C4B50170  20.813  16.843   7.353
 8891POPC   NC350171  19.883  39.973   5.553
 8891POPC   PO450172  19.806  39.993   5.853
 8891POPC   GL150173  19.830  39.999   6.153
 8891POPC   GL250174  19.831  39.880   6.153
 8891POPC   C1A50175  19.867  39.998   6.453
 8891POPC   D2A50176  19.801  39.959   6.753
 8891POPC   C3A50177  19.840  40.034   7.053
 8891POPC   C4A50178  19.860  40.007   7.353
 8891POPC   C1B50179  19.957  39.804   6.453
 8891POPC   C2B50180  19.864  39.732   6.753
 8891POPC   C3B50181  19.933  39.804   7.053
 8891POPC   C4B50182  19.918  39.726   7.353
 8892POPC   NC350183  32.230   9.754   5.553
 8892POPC   PO450184  32.237   9.783   5.853
 8892POPC   GL150185  32.276   9.758   6.153
 8892POPC   GL250186  32.189   9.692   6.153
 8892POPC   C1A50187  32.262   9.781   6.453
 8892POPC   D2A50188  32.273   9.795   6.753
 8892POPC   C3A50189  32.226   9.743   7.053
 8892POPC   C4A50190  32.241   9.742   7.353
 8892POPC   C1B50191  32.140   9.591   6.453
 8892POPC   C2B50192  32.144   9.551   6.753
 8892POPC   C3B50193  32.090   9.500   7.053
 8892POPC   C4B50194  32.075   9.566   7.353
 8893POPC   NC350195  36.081  22.977   5.553
 8893POPC   PO450196  36.164  22.966   5.853
 8893POPC   GL150197  36.107  22.952   6.153
 8893POPC   GL250198  36.012  22.851   6.153
 8893POPC   C1A50199  36.093  22.942   6.453
 8893POPC   D2A50200  36.174  22.914   6.753
 8893POPC   C3A50201  36.117  22.890   7.053
 8893POPC   C4A50202  36.097  22.890   7.353
 8893POPC   C1B50203  35.930  22.753   6.453
 8893POPC   C2B50204  35.913  22.845   6.753
 8893POPC   C3B50205  35.908  22.823   7.053
 8893POPC   C4B50206  35.903  22.770   7.353
 8894POPC   NC350207  26.847  42.348   5.553
 8894POPC   PO450208  26.834  42.337   5.853
 8894POPC   GL150209  26.832  42.357   6.153
 8894POPC   GL250210  26.737  42.403   6.153
 8894POPC   C1A50211  26.768  42.367   6.453
 8894POPC   D2A50212  26.829  42.314   6.753
 8894POPC   C3A50213  26.800  42.294   7.053
 8894POPC   C4A50214  26.844  42.379   7.353
 8894POPC   C1B50215  26.657  42.556   6.453
 8894POPC   C2B50216  26.648  42.522   6.753
 8894POPC   C3B50217  26.686  42.542   7.053
 8894POPC   C4B50218  26.634  42.575   7.353
 8895POPC   NC350219   0.434  36.942   5.553
 8895POPC   PO450220   0.397  36.892   5.853
 8895POPC   GL150221   0.480  36.922   6.153
 8895POPC   GL250222   0.353  36.839   6.153
 8895POPC   C1A50223   0.405  36.863   6.453
 8895POPC   D2A50224   0.460  36.907   6.753
 8895POPC   C3A50225   0.468  36.927   7.053
 8895POPC   C4A50226   0.482  36.950   7.353
 8895POPC   C1B50227   0.283  36.715   6.453
 8895POPC   C2B50228   0.266  36.670   6.753
 8895POPC   C3B50229   0.261  36.769   7.053
 8895POPC   C4B50230   0.233  36.694   7.353
 8896POPC   NC350231   8.204  23.666   5.553
 8896POPC   PO450232   8.150  23.746   5.853
 8896POPC   GL150233   8.239  23.755   6.153
 8896POPC   GL250234   8.121  23.768   6.153
 8896POPC   C1A50235   8.210  23.678   6.453
 8896POPC   D2A50236   8.239  23.751   6.753
 8896POPC   C3A50237   8.179  23.743   7.053
 8896POPC   C4A50238   8.190  23.725   7.353
 8896POPC   C1B50239   8.100  23.908   6.453
 8896POPC   C2B50240   8.078  23.929   6.753
 8896POPC   C3B50241   8.051  23.933   7.053
 8896POPC   C4B50242   8.064  23.927   7.353
 8897POPC   NC350243  35.304  18.246   5.553
 8897POPC   PO450244  35.328  18.332   5.853
 8897POPC   GL150245  35.312  18.247   6.153
 8897POPC   GL250246  35.383  18.205   6.153
 8897POPC   C1A50247  35.342  18.262   6.453
 8897POPC   D2A50248  35.390  18.282   6.753
 8897POPC   C3A50249  35.367  18.327   7.053
 8897POPC   C4A50250  35.371  18.287   7.353
 8897POPC   C1B50251  35.436  18.078   6.453
 8897POPC   C2B50252  35.413  18.055   6.753
 8897POPC   C3B50253  35.403  18.066   7.053
 8897POPC   C4B50254  35.351  18.043   7.353
 8898POPC   NC350255  26.865  18.279   5.553
 8898POPC   PO450256  26.854  18.235   5.853
 8898POPC   GL150257  26.862  18.285   6.153
 8898POPC   GL250258  26.852  18.374   6.153
 8898POPC   C1A50259  26.788  18.262   6.453
 8898POPC   D2A50260  26.796  18.289   6.753
 8898POPC   C3A50261  26.789  18.302   7.053
 8898POPC   C4A50262  26.819  18.233   7.353
 8898POPC   C1B50263  27.008  18.521   6.453
 8898POPC   C2B50264  26.971  18.488   6.753
 8898POPC   C3B50265  26.947  18.433   7.053
 8898POPC   C4B50266  26.928  18.454   7.353
 8899POPC   NC350267  16.004  20.649   5.553
 8899POPC   PO450268  15.976  20.572   5.853
 8899POPC   GL150269  15.948  20.588   6.153
 8899POPC   GL250270  16.065  20.534   6.153
 8899POPC   C1A50271  15.943  20.649   6.453
 8899POPC   D2A50272  16.005  20.610   6.753
 8899POPC   C3A50273  15.931  20.618   7.053
 8899POPC   C4A50274  15.973  20.618   7.353
 8899POPC   C1B50275  16.153  20.468   6.453
 8899POPC   C2B50276  16.190  20.507   6.753
 8899POPC   C3B50277  16.204  20.481   7.053
 8899POPC   C4B50278  16.168  20.503   7.353
 8900POPC   NC350279   1.228  16.754   5.553
 8900POPC   PO450280   1.185  16.720   5.853
 8900POPC   GL150281   1.210  16.736   6.153
 8900POPC   GL250282   1.189  16.856   6.153
 8900POPC   C1A50283   1.187  16.687   6.453
 8900POPC   D2A50284   1.195  16.702   6.753
 8900POPC   C3A50285   1.198  16.779   7.053
 8900POPC   C4A50286   1.248  16.741   7.353
 8900POPC   C1B50287   1.177  16.942   6.453
 8900POPC   C2B50288   1.186  16.941   6.753
 8900POPC   C3B50289   1.155  16.953   7.053
 8900POPC   C4B50290   1.131  16.998   7.353
 8901POPC   NC350291  34.549   9.740   5.553
 8901POPC   PO450292  34.565   9.791   5.853
 8901POPC   GL150293  34.600   9.743   6.153
 8901POPC   GL250294  34.616   9.821   6.153
 8901POPC   C1A50295  34.563   9.763   6.453
 8901POPC   D2A50296  34.617   9.788   6.753
 8901POPC   C3A50297  34.561   9.764   7.053
 8901POPC   C4A50298  34.594   9.790   7.353
 8901POPC   C1B50299  34.637   9.984   6.453
 8901POPC   C2B50300  34.613   9.964   6.753
 8901POPC   C3B50301  34.628   9.995   7.053
 8901POPC   C4B50302  34.651   9.941   7.353
 8902POPC   NC350303   5.117  19.820   5.553
 8902POPC   PO450304   5.102  19.812   5.853
 8902POPC   GL150305   5.107  19.833   6.153
 8902POPC   GL250306   5.235  19.813   6.153
 8902POPC   C1A50307   5.090  19.803   6.453
 8902POPC   D2A50308   5.064  19.863   6.753
 8902POPC   C3A50309   5.075  19.854   7.053
 8902POPC   C4A50310   5.057  19.827   7.353
 8902POPC   C1B50311   5.327  19.864   6.453
 8902POPC   C2B50312   5.320  19.899   6.753
 8902POPC   C3B50313   5.305  19.910   7.053
 8902POPC   C4B50314   5.297  19.838   7.353
 8903POPC   NC350315  18.280   5.072   5.553
 8903POPC   PO450316  18.234   5.094   5.853
 8903POPC   GL150317  18.290   5.094   6.153
 8903POPC   GL250318  18.352   5.014   6.153
 8903POPC   C1A50319  18.298   5.056   6.453
 8903POPC   D2A50320  18.273   5.109   6.753
 8903POPC   C3A50321  18.323   5.066   7.053
 8903POPC   C4A50322  18.329   5.130   7.353
 8903POPC   C1B50323  18.366   4.896   6.453
 8903POPC   C2B50324  18.344   4.873   6.753
 8903POPC   C3B50325  18.329   4.815   7.053
 8903POPC   C4B50326  18.364   4.873   7.353
 8904POPC   NC350327  15.227  23.704   5.553
 8904POPC   PO450328  15.198  23.666   5.853
 8904POPC   GL150329  15.211  23.678   6.153
 8904POPC   GL250330  15.321  23.689   6.153
 8904POPC   C1A50331  15.144  23.664   6.453
 8904POPC   D2A50332  15.228  23.712   6.753
 8904POPC   C3A50333  15.138  23.722   7.053
 8904POPC   C4A50334  15.201  23.685   7.353
 8904POPC   C1B50335  15.388  23.783   6.453
 8904POPC   C2B50336  15.387  23.792   6.753
 8904POPC   C3B50337  15.398  23.802   7.053
 8904POPC   C4B50338  15.414  23.776   7.353
 8905POPC   NC350339  26.776  40.738   5.553
 8905POPC   PO450340  26.787  40.757   5.853
 8905POPC   GL150341  26.844  40.796   6.153
 8905POPC   GL250342  26.797  40.886   6.153
 8905POPC   C1A50343  26.771  40.822   6.453
 8905POPC   D2A50344  26.810  40.758   6.753
 8905POPC   C3A50345  26.769  40.794   7.053
 8905POPC   C4A50346  26.780  40.758   7.353
 8905POPC   C1B50347  26.814  41.076   6.453
 8905POPC   C2B50348  26.827  41.049   6.753
 8905POPC   C3B50349  26.836  41.033   7.053
 8905POPC   C4B50350  26.767  41.064   7.353
 8906POPC   NC350351   5.910   0.470   5.553
 8906POPC   PO450352   5.903   0.456   5.853
 8906POPC   GL150353   5.877   0.398   6.153
 8906POPC   GL250354   5.856   0.322   6.153
 8906POPC   C1A50355   5.848   0.395   6.453
 8906POPC   D2A50356   5.895   0.474   6.753
 8906POPC   C3A50357   5.857   0.466   7.053
 8906POPC   C4A50358   5.832   0.432   7.353
 8906POPC   C1B50359   5.938   0.190   6.453
 8906POPC   C2B50360   5.920   0.210   6.753
 8906POPC   C3B50361   5.910   0.153   7.053
 8906POPC   C4B50362   5.979   0.191   7.353
 8907POPC   NC350363   7.413  22.945   5.553
 8907POPC   PO450364   7.410  22.925   5.853
 8907POPC   GL150365   7.463  22.933   6.153
 8907POPC   GL250366   7.538  22.931   6.153
 8907POPC   C1A50367   7.425  22.888   6.453
 8907POPC   D2A50368   7.372  22.941   6.753
 8907POPC   C3A50369   7.418  22.894   7.053
 8907POPC   C4A50370   7.435  22.970   7.353
 8907POPC   C1B50371   7.662  22.791   6.453
 8907POPC   C2B50372   7.638  22.863   6.753
 8907POPC   C3B50373   7.688  22.800   7.053
 8907POPC   C4B50374   7.688  22.868   7.353
 8908POPC   NC350375  22.891  30.651   5.553
 8908POPC   PO450376  22.961  30.682   5.853
 8908POPC   GL150377  22.932  30.728   6.153
 8908POPC   GL250378  22.979  30.835   6.153
 8908POPC   C1A50379  22.900  30.719   6.453
 8908POPC   D2A50380  22.975  30.673   6.753
 8908POPC   C3A50381  22.889  30.698   7.053
 8908POPC   C4A50382  22.944  30.672   7.353
 8908POPC   C1B50383  23.031  30.935   6.453
 8908POPC   C2B50384  23.042  30.965   6.753
 8908POPC   C3B50385  23.036  30.933   7.053
 8908POPC   C4B50386  23.000  30.892   7.353
 8909POPC   NC350387  19.103  29.871   5.553
 8909POPC   PO450388  19.079  29.956   5.853
 8909POPC   GL150389  19.010  29.899   6.153
 8909POPC   GL250390  19.143  29.920   6.153
 8909POPC   C1A50391  19.099  29.882   6.453
 8909POPC   D2A50392  19.018  29.926   6.753
 8909POPC   C3A50393  19.015  29.925   7.053
 8909POPC   C4A50394  19.107  29.957   7.353
 8909POPC   C1B50395  19.254  29.836   6.453
 8909POPC   C2B50396  19.312  29.865   6.753
 8909POPC   C3B50397  19.350  29.859   7.053
 8909POPC   C4B50398  19.335  29.878   7.353
 8910POPC   NC350399  34.597  22.151   5.553
 8910POPC   PO450400  34.588  22.211   5.853
 8910POPC   GL150401  34.599  22.126   6.153
 8910POPC   GL250402  34.730  22.098   6.153
 8910POPC   C1A50403  34.582  22.143   6.453
 8910POPC   D2A50404  34.605  22.198   6.753
 8910POPC   C3A50405  34.601  22.166   7.053
 8910POPC   C4A50406  34.563  22.163   7.353
 8910POPC   C1B50407  34.761  22.033   6.453
 8910POPC   C2B50408  34.760  22.082   6.753
 8910POPC   C3B50409  34.794  22.065   7.053
 8910POPC   C4B50410  34.812  22.022   7.353
 8911POPC   NC350411  16.772  10.487   5.553
 8911POPC   PO450412  16.691  10.527   5.853
 8911POPC   GL150413  16.778  10.488   6.153
 8911POPC   GL250414  16.641  10.632   6.153
 8911POPC   C1A50415  16.705  10.571   6.453
 8911POPC   D2A50416  16.746  10.494   6.753
 8911POPC   C3A50417  16.755  10.527   7.053
 8911POPC   C4A50418  16.715  10.524   7.353
 8911POPC   C1B50419  16.634  10.703   6.453
 8911POPC   C2B50420  16.590  10.727   6.753
 8911POPC   C3B50421  16.590  10.796   7.053
 8911POPC   C4B50422  16.582  10.762   7.353
 8912POPC   NC350423  16.701  29.878   5.553
 8912POPC   PO450424  16.710  29.912   5.853
 8912POPC   GL150425  16.747  29.892   6.153
 8912POPC   GL250426  16.705  30.062   6.153
 8912POPC   C1A50427  16.769  29.893   6.453
 8912POPC   D2A50428  16.780  29.928   6.753
 8912POPC   C3A50429  16.728  29.876   7.053
 8912POPC   C4A50430  16.776  29.934   7.353
 8912POPC   C1B50431  16.633  30.136   6.453
 8912POPC   C2B50432  16.572  30.178   6.753
 8912POPC   C3B50433  16.575  30.104   7.053
 8912POPC   C4B50434  16.607  30.106   7.353
 8913POPC   NC350435   8.972  12.851   5.553
 8913POPC   PO450436   8.955  12.826   5.853
 8913POPC   GL150437   9.002  12.824   6.153
 8913POPC   GL250438   8.924  13.022   6.153
 8913POPC   C1A50439   9.005  12.867   6.453
 8913POPC   D2A50440   8.967  12.860   6.753
 8913POPC   C3A50441   9.002  12.858   7.053
 8913POPC   C4A50442   8.970  12.831   7.353
 8913POPC   C1B50443   8.983  13.104   6.453
 8913POPC   C2B50444   8.945  13.098   6.753
 8913POPC   C3B50445   8.994  13.125   7.053
 8913POPC   C4B50446   8.916  13.061   7.353
 8914POPC   NC350447  38.475  23.747   5.553
 8914POPC   PO450448  38.441  23.737   5.853
 8914POPC   GL150449  38.456  23.672   6.153
 8914POPC   GL250450  38.551  23.669   6.153
 8914POPC   C1A50451  38.485  23.695   6.453
 8914POPC   D2A50452  38.420  23.681   6.753
 8914POPC   C3A50453  38.425  23.682   7.053
 8914POPC   C4A50454  38.437  23.764   7.353
 8914POPC   C1B50455  38.656  23.733   6.453
 8914POPC   C2B50456  38.681  23.695   6.753
 8914POPC   C3B50457  38.720  23.709   7.053
 8914POPC   C4B50458  38.694  23.753   7.353
 8915POPC   NC350459  22.200  23.706   5.553
 8915POPC   PO450460  22.202  23.721   5.853
 8915POPC   GL150461  22.189  23.720   6.153
 8915POPC   GL250462  22.314  23.789   6.153
 8915POPC   C1A50463  22.120  23.672   6.453
 8915POPC   D2A50464  22.157  23.713   6.753
 8915POPC   C3A50465  22.186  23.694   7.053
 8915POPC   C4A50466  22.132  23.715   7.353
 8915POPC   C1B50467  22.389  23.846   6.453
 8915POPC   C2B50468  22.393  23.867   6.753
 8915POPC   C3B50469  22.412  23.807   7.053
 8915POPC   C4B50470  22.356  23.807   7.353
 8916POPC   NC350471  32.208  26.809   5.553
 8916POPC   PO450472  32.233  26.823   5.853
 8916POPC   GL150473  32.243  26.806   6.153
 8916POPC   GL250474  32.336  26.834   6.153
 8916POPC   C1A50475  32.297  26.801   6.453
 8916POPC   D2A50476  32.285  26.781   6.753
 8916POPC   C3A50477  32.282  26.850   7.053
 8916POPC   C4A50478  32.270  26.779   7.353
 8916POPC   C1B50479  32.463  26.825   6.453
 8916POPC   C2B50480  32.471  26.815   6.753
 8916POPC   C3B50481  32.497  26.820   7.053
 8916POPC   C4B50482  32.527  26.769   7.353
 8917POPC   NC350483   3.520  22.165   5.553
 8917POPC   PO450484   3.575  22.180   5.853
 8917POPC   GL150485   3.508  22.169   6.153
 8917POPC   GL250486   3.418  22.246   6.153
 8917POPC   C1A50487   3.554  22.133   6.453
 8917POPC   D2A50488   3.502  22.125   6.753
 8917POPC   C3A50489   3.551  22.141   7.053
 8917POPC   C4A50490   3.587  22.161   7.353
 8917POPC   C1B50491   3.430  22.331   6.453
 8917POPC   C2B50492   3.397  22.370   6.753
 8917POPC   C3B50493   3.349  22.367   7.053
 8917POPC   C4B50494   3.351  22.370   7.353
 8918POPC   NC350495   9.753   2.003   5.553
 8918POPC   PO450496   9.737   1.952   5.853
 8918POPC   GL150497   9.794   2.003   6.153
 8918POPC   GL250498   9.845   1.892   6.153
 8918POPC   C1A50499   9.721   1.982   6.453
 8918POPC   D2A50500   9.765   2.036   6.753
 8918POPC   C3A50501   9.731   1.991   7.053
 8918POPC   C4A50502   9.774   1.997   7.353
 8918POPC   C1B50503   9.887   1.828   6.453
 8918POPC   C2B50504   9.976   1.839   6.753
 8918POPC   C3B50505   9.931   1.861   7.053
 8918POPC   C4B50506   9.941   1.854   7.353
 8919POPC   NC350507  17.471   6.603   5.553
 8919POPC   PO450508  17.512   6.673   5.853
 8919POPC   GL150509  17.495   6.620   6.153
 8919POPC   GL250510  17.595   6.699   6.153
 8919POPC   C1A50511  17.541   6.638   6.453
 8919POPC   D2A50512  17.541   6.648   6.753
 8919POPC   C3A50513  17.475   6.636   7.053
 8919POPC   C4A50514  17.527   6.660   7.353
 8919POPC   C1B50515  17.695   6.778   6.453
 8919POPC   C2B50516  17.675   6.809   6.753
 8919POPC   C3B50517  17.693   6.739   7.053
 8919POPC   C4B50518  17.732   6.764   7.353
 8920POPC   NC350519   3.531  37.662   5.553
 8920POPC   PO450520   3.539  37.670   5.853
 8920POPC   GL150521   3.566  37.667   6.153
 8920POPC   GL250522   3.615  37.607   6.153
 8920POPC   C1A50523   3.529  37.677   6.453
 8920POPC   D2A50524   3.498  37.663   6.753
 8920POPC   C3A50525   3.531  37.686   7.053
 8920POPC   C4A50526   3.493  37.686   7.353
 8920POPC   C1B50527   3.604  37.470   6.453
 8920POPC   C2B50528   3.629  37.428   6.753
 8920POPC   C3B50529   3.614  37.462   7.053
 8920POPC   C4B50530   3.624  37.441   7.353
 8921POPC   NC350531  10.513   2.733   5.553
 8921POPC   PO450532  10.539   2.730   5.853
 8921POPC   GL150533  10.536   2.773   6.153
 8921POPC   GL250534  10.632   2.737   6.153
 8921POPC   C1A50535  10.502   2.730   6.453
 8921POPC   D2A50536  10.560   2.788   6.753
 8921POPC   C3A50537  10.536   2.790   7.053
 8921POPC   C4A50538  10.475   2.799   7.353
 8921POPC   C1B50539  10.711   2.584   6.453
 8921POPC   C2B50540  10.765   2.591   6.753
 8921POPC   C3B50541  10.678   2.642   7.053
 8921POPC   C4B50542  10.737   2.644   7.353
 8922POPC   NC350543  41.569   3.567   5.553
 8922POPC   PO450544  41.555   3.553   5.853
 8922POPC   GL150545  41.605   3.581   6.153
 8922POPC   GL250546  41.709   3.566   6.153
 8922POPC   C1A50547  41.522   3.565   6.453
 8922POPC   D2A50548  41.528   3.525   6.753
 8922POPC   C3A50549  41.546   3.584   7.053
 8922POPC   C4A50550  41.578   3.503   7.353
 8922POPC   C1B50551  41.762   3.638   6.453
 8922POPC   C2B50552  41.806   3.595   6.753
 8922POPC   C3B50553  41.831   3.681   7.053
 8922POPC   C4B50554  41.837   3.612   7.353
 8923POPC   NC350555  11.348  41.511   5.553
 8923POPC   PO450556  11.318  41.512   5.853
 8923POPC   GL150557  11.312  41.572   6.153
 8923POPC   GL250558  11.189  41.619   6.153
 8923POPC   C1A50559  11.266  41.573   6.453
 8923POPC   D2A50560  11.286  41.544   6.753
 8923POPC   C3A50561  11.349  41.580   7.053
 8923POPC   C4A50562  11.327  41.515   7.353
 8923POPC   C1B50563  11.071  41.667   6.453
 8923POPC   C2B50564  11.092  41.679   6.753
 8923POPC   C3B50565  11.101  41.700   7.053
 8923POPC   C4B50566  11.098  41.688   7.353
 8924POPC   NC350567  27.553  36.116   5.553
 8924POPC   PO450568  27.608  36.101   5.853
 8924POPC   GL150569  27.564  36.079   6.153
 8924POPC   GL250570  27.500  36.229   6.153
 8924POPC   C1A50571  27.584  36.172   6.453
 8924POPC   D2A50572  27.577  36.112   6.753
 8924POPC   C3A50573  27.584  36.087   7.053
 8924POPC   C4A50574  27.553  36.116   7.353
 8924POPC   C1B50575  27.363  36.240   6.453
 8924POPC   C2B50576  27.406  36.251   6.753
 8924POPC   C3B50577  27.346  36.219   7.053
 8924POPC   C4B50578  27.337  36.264   7.353
 8925POPC   NC350579  24.480  12.852   5.553
 8925POPC   PO450580  24.469  12.810   5.853
 8925POPC   GL150581  24.490  12.819   6.153
 8925POPC   GL250582  24.421  12.782   6.153
 8925POPC   C1A50583  24.535  12.820   6.453
 8925POPC   D2A50584  24.479  12.861   6.753
 8925POPC   C3A50585  24.504  12.810   7.053
 8925POPC   C4A50586  24.533  12.833   7.353
 8925POPC   C1B50587  24.275  12.630   6.453
 8925POPC   C2B50588  24.331  12.695   6.753
 8925POPC   C3B50589  24.301  12.624   7.053
 8925POPC   C4B50590  24.295  12.662   7.353
 8926POPC   NC350591   1.957  40.031   5.553
 8926POPC   PO450592   1.978  40.050   5.853
 8926POPC   GL150593   2.007  40.056   6.153
 8926POPC   GL250594   1.856  39.980   6.153
 8926POPC   C1A50595   1.961  40.010   6.453
 8926POPC   D2A50596   1.999  40.044   6.753
 8926POPC   C3A50597   1.995  40.036   7.053
 8926POPC   C4A50598   1.982  39.970   7.353
 8926POPC   C1B50599   1.765  39.920   6.453
 8926POPC   C2B50600   1.789  39.939   6.753
 8926POPC   C3B50601   1.772  39.887   7.053
 8926POPC   C4B50602   1.772  39.944   7.353
 8927POPC   NC350603  20.609  29.128   5.553
 8927POPC   PO450604  20.615  29.149   5.853
 8927POPC   GL150605  20.658  29.190   6.153
 8927POPC   GL250606  20.768  29.062   6.153
 8927POPC   C1A50607  20.637  29.172   6.453
 8927POPC   D2A50608  20.601  29.125   6.753
 8927POPC   C3A50609  20.600  29.153   7.053
 8927POPC   C4A50610  20.656  29.099   7.353
 8927POPC   C1B50611  20.823  29.044   6.453
 8927POPC   C2B50612  20.789  29.001   6.753
 8927POPC   C3B50613  20.786  29.000   7.053
 8927POPC   C4B50614  20.862  28.992   7.353
 8928POPC   NC350615  40.755  17.469   5.553
 8928POPC   PO450616  40.762  17.494   5.853
 8928POPC   GL150617  40.803  17.547   6.153
 8928POPC   GL250618  40.862  17.556   6.153
 8928POPC   C1A50619  40.812  17.556   6.453
 8928POPC   D2A50620  40.822  17.539   6.753
 8928POPC   C3A50621  40.736  17.488   7.053
 8928POPC   C4A50622  40.797  17.541   7.353
 8928POPC   C1B50623  41.025  17.566   6.453
 8928POPC   C2B50624  40.993  17.622   6.753
 8928POPC   C3B50625  40.980  17.560   7.053
 8928POPC   C4B50626  40.980  17.568   7.353
 8929POPC   NC350627   2.028  36.930   5.553
 8929POPC   PO450628   2.033  36.903   5.853
 8929POPC   GL150629   1.967  36.943   6.153
 8929POPC   GL250630   1.891  36.774   6.153
 8929POPC   C1A50631   1.982  36.919   6.453
 8929POPC   D2A50632   1.982  36.883   6.753
 8929POPC   C3A50633   1.999  36.856   7.053
 8929POPC   C4A50634   2.033  36.945   7.353
 8929POPC   C1B50635   1.881  36.705   6.453
 8929POPC   C2B50636   1.838  36.723   6.753
 8929POPC   C3B50637   1.891  36.664   7.053
 8929POPC   C4B50638   1.838  36.696   7.353
 8930POPC   NC350639   4.351  33.752   5.553
 8930POPC   PO450640   4.270  33.765   5.853
 8930POPC   GL150641   4.361  33.846   6.153
 8930POPC   GL250642   4.293  33.914   6.153
 8930POPC   C1A50643   4.323  33.804   6.453
 8930POPC   D2A50644   4.323  33.832   6.753
 8930POPC   C3A50645   4.353  33.836   7.053
 8930POPC   C4A50646   4.336  33.801   7.353
 8930POPC   C1B50647   4.174  34.064   6.453
 8930POPC   C2B50648   4.208  34.013   6.753
 8930POPC   C3B50649   4.225  34.011   7.053
 8930POPC   C4B50650   4.143  34.005   7.353
 8931POPC   NC350651  31.512  34.583   5.553
 8931POPC   PO450652  31.424  34.604   5.853
 8931POPC   GL150653  31.506  34.543   6.153
 8931POPC   GL250654  31.376  34.703   6.153
 8931POPC   C1A50655  31.495  34.574   6.453
 8931POPC   D2A50656  31.506  34.531   6.753
 8931POPC   C3A50657  31.473  34.616   7.053
 8931POPC   C4A50658  31.446  34.602   7.353
 8931POPC   C1B50659  31.316  34.749   6.453
 8931POPC   C2B50660  31.271  34.738   6.753
 8931POPC   C3B50661  31.352  34.765   7.053
 8931POPC   C4B50662  31.302  34.811   7.353
 8932POPC   NC350663  10.544  28.361   5.553
 8932POPC   PO450664  10.484  28.328   5.853
 8932POPC   GL150665  10.506  28.356   6.153
 8932POPC   GL250666  10.394  28.293   6.153
 8932POPC   C1A50667  10.487  28.368   6.453
 8932POPC   D2A50668  10.552  28.357   6.753
 8932POPC   C3A50669  10.477  28.348   7.053
 8932POPC   C4A50670  10.506  28.347   7.353
 8932POPC   C1B50671  10.391  28.188   6.453
 8932POPC   C2B50672  10.347  28.163   6.753
 8932POPC   C3B50673  10.390  28.183   7.053
 8932POPC   C4B50674  10.391  28.219   7.353
 8933POPC   NC350675  19.793   6.621   5.553
 8933POPC   PO450676  19.800   6.651   5.853
 8933POPC   GL150677  19.799   6.610   6.153
 8933POPC   GL250678  19.861   6.758   6.153
 8933POPC   C1A50679  19.828   6.624   6.453
 8933POPC   D2A50680  19.806   6.638   6.753
 8933POPC   C3A50681  19.873   6.639   7.053
 8933POPC   C4A50682  19.881   6.636   7.353
 8933POPC   C1B50683  19.805   6.871   6.453
 8933POPC   C2B50684  19.819   6.885   6.753
 8933POPC   C3B50685  19.811   6.928   7.053
 8933POPC   C4B50686  19.786   6.936   7.353
 8934POPC   NC350687  43.838  18.316   5.553
 8934POPC   PO450688  43.906  18.315   5.853
 8934POPC   GL150689  43.905  18.316   6.153
 8934POPC   GL250690  43.915  18.403   6.153
 8934POPC   C1A50691  43.864  18.272   6.453
 8934POPC   D2A50692  43.876  18.236   6.753
 8934POPC   C3A50693  43.840  18.278   7.053
 8934POPC   C4A50694  43.846  18.261   7.353
 8934POPC   C1B50695  43.918  18.565   6.453
 8934POPC   C2B50696  43.943  18.520   6.753
 8934POPC   C3B50697  43.946  18.542   7.053
 8934POPC   C4B50698  43.899  18.579   7.353
 8935POPC   NC350699  16.774  40.754   5.553
 8935POPC   PO450700  16.685  40.822   5.853
 8935POPC   GL150701  16.775  40.772   6.153
 8935POPC   GL250702  16.785  40.880   6.153
 8935POPC   C1A50703  16.688  40.745   6.453
 8935POPC   D2A50704  16.713  40.809   6.753
 8935POPC   C3A50705  16.724  40.740   7.053
 8935POPC   C4A50706  16.744  40.764   7.353
 8935POPC   C1B50707  16.823  41.020   6.453
 8935POPC   C2B50708  16.912  41.018   6.753
 8935POPC   C3B50709  16.863  40.999   7.053
 8935POPC   C4B50710  16.899  40.994   7.353
 8936POPC   NC350711  25.244  12.117   5.553
 8936POPC   PO450712  25.272  12.033   5.853
 8936POPC   GL150713  25.301  12.069   6.153
 8936POPC   GL250714  25.190  12.000   6.153
 8936POPC   C1A50715  25.298  12.088   6.453
 8936POPC   D2A50716  25.219  12.065   6.753
 8936POPC   C3A50717  25.287  12.120   7.053
 8936POPC   C4A50718  25.261  12.068   7.353
 8936POPC   C1B50719  25.052  11.844   6.453
 8936POPC   C2B50720  25.108  11.895   6.753
 8936POPC   C3B50721  25.074  11.913   7.053
 8936POPC   C4B50722  25.075  11.913   7.353
 8937POPC   NC350723  12.065  36.923   5.553
 8937POPC   PO450724  12.107  36.952   5.853
 8937POPC   GL150725  12.050  36.870   6.153
 8937POPC   GL250726  12.148  36.845   6.153
 8937POPC   C1A50727  12.069  36.880   6.453
 8937POPC   D2A50728  12.085  36.917   6.753
 8937POPC   C3A50729  12.041  36.926   7.053
 8937POPC   C4A50730  12.058  36.900   7.353
 8937POPC   C1B50731  12.289  36.724   6.453
 8937POPC   C2B50732  12.292  36.718   6.753
 8937POPC   C3B50733  12.272  36.710   7.053
 8937POPC   C4B50734  12.282  36.778   7.353
 8938POPC   NC350735   5.847  21.427   5.553
 8938POPC   PO450736   5.881  21.360   5.853
 8938POPC   GL150737   5.861  21.376   6.153
 8938POPC   GL250738   5.746  21.310   6.153
 8938POPC   C1A50739   5.892  21.402   6.453
 8938POPC   D2A50740   5.839  21.338   6.753
 8938POPC   C3A50741   5.824  21.359   7.053
 8938POPC   C4A50742   5.831  21.389   7.353
 8938POPC   C1B50743   5.751  21.173   6.453
 8938POPC   C2B50744   5.671  21.198   6.753
 8938POPC   C3B50745   5.747  21.240   7.053
 8938POPC   C4B50746   5.701  21.217   7.353
 8939POPC   NC350747  28.410  36.865   5.553
 8939POPC   PO450748  28.330  36.952   5.853
 8939POPC   GL150749  28.376  36.942   6.153
 8939POPC   GL250750  28.294  36.939   6.153
 8939POPC   C1A50751  28.346  36.934   6.453
 8939POPC   D2A50752  28.370  36.876   6.753
 8939POPC   C3A50753  28.343  36.918   7.053
 8939POPC   C4A50754  28.322  36.870   7.353
 8939POPC   C1B50755  28.119  37.000   6.453
 8939POPC   C2B50756  28.102  36.986   6.753
 8939POPC   C3B50757  28.186  37.016   7.053
 8939POPC   C4B50758  28.181  37.035   7.353
 8940POPC   NC350759  43.124  29.938   5.553
 8940POPC   PO450760  43.133  29.956   5.853
 8940POPC   GL150761  43.115  29.947   6.153
 8940POPC   GL250762  43.123  30.050   6.153
 8940POPC   C1A50763  43.156  29.888   6.453
 8940POPC   D2A50764  43.082  29.913   6.753
 8940POPC   C3A50765  43.153  29.872   7.053
 8940POPC   C4A50766  43.081  29.921   7.353
 8940POPC   C1B50767  43.015  30.210   6.453
 8940POPC   C2B50768  43.055  30.200   6.753
 8940POPC   C3B50769  43.073  30.164   7.053
 8940POPC   C4B50770  43.035  30.202   7.353
 8941POPC   NC350771   5.131  34.532   5.553
 8941POPC   PO450772   5.071  34.537   5.853
 8941POPC   GL150773   5.081  34.539   6.153
 8941POPC   GL250774   5.098  34.431   6.153
 8941POPC   C1A50775   5.122  34.553   6.453
 8941POPC   D2A50776   5.120  34.576   6.753
 8941POPC   C3A50777   5.121  34.611   7.053
 8941POPC   C4A50778   5.068  34.535   7.353
 8941POPC   C1B50779   5.145  34.328   6.453
 8941POPC   C2B50780   5.125  34.375   6.753
 8941POPC   C3B50781   5.139  34.344   7.053
 8941POPC   C4B50782   5.135  34.335   7.353
 8942POPC   NC350783  15.164  38.427   5.553
 8942POPC   PO450784  15.181  38.487   5.853
 8942POPC   GL150785  15.158  38.416   6.153
 8942POPC   GL250786  15.118  38.518   6.153
 8942POPC   C1A50787  15.210  38.412   6.453
 8942POPC   D2A50788  15.191  38.447   6.753
 8942POPC   C3A50789  15.158  38.488   7.053
 8942POPC   C4A50790  15.211  38.427   7.353
 8942POPC   C1B50791  14.946  38.610   6.453
 8942POPC   C2B50792  14.955  38.614   6.753
 8942POPC   C3B50793  14.961  38.581   7.053
 8942POPC   C4B50794  14.970  38.618   7.353
 8943POPC   NC350795   6.630  33.799   5.553
 8943POPC   PO450796   6.625  33.769   5.853
 8943POPC   GL150797   6.673  33.785   6.153
 8943POPC   GL250798   6.497  33.792   6.153
 8943POPC   C1A50799   6.679  33.776   6.453
 8943POPC   D2A50800   6.648  33.801   6.753
 8943POPC   C3A50801   6.675  33.752   7.053
 8943POPC   C4A50802   6.644  33.812   7.353
 8943POPC   C1B50803   6.376  33.877   6.453
 8943POPC   C2B50804   6.361  33.913   6.753
 8943POPC   C3B50805   6.451  33.889   7.053
 8943POPC   C4B50806   6.438  33.847   7.353
 8944POPC   NC350807   8.953  42.321   5.553
 8944POPC   PO450808   8.988  42.292   5.853
 8944POPC   GL150809   8.999  42.336   6.153
 8944POPC   GL250810   8.927  42.190   6.153
 8944POPC   C1A50811   8.971  42.306   6.453
 8944POPC   D2A50812   9.005  42.353   6.753
 8944POPC   C3A50813   8.972  42.336   7.053
 8944POPC   C4A50814   9.007  42.367   7.353
 8944POPC   C1B50815   8.808  42.116   6.453
 8944POPC   C2B50816   8.834  42.165   6.753
 8944POPC   C3B50817   8.811  42.138   7.053
 8944POPC   C4B50818   8.861  42.158   7.353
 8945POPC   NC350819  43.139  12.833   5.553
 8945POPC   PO450820  43.139  12.811   5.853
 8945POPC   GL150821  43.123  12.819   6.153
 8945POPC   GL250822  43.236  12.963   6.153
 8945POPC   C1A50823  43.069  12.863   6.453
 8945POPC   D2A50824  43.133  12.861   6.753
 8945POPC   C3A50825  43.158  12.822   7.053
 8945POPC   C4A50826  43.117  12.847   7.353
 8945POPC   C1B50827  43.325  13.038   6.453
 8945POPC   C2B50828  43.288  13.028   6.753
 8945POPC   C3B50829  43.316  13.023   7.053
 8945POPC   C4B50830  43.332  13.055   7.353
 8946POPC   NC350831  43.139  25.258   5.553
 8946POPC   PO450832  43.070  25.290   5.853
 8946POPC   GL150833  43.116  25.271   6.153
 8946POPC   GL250834  42.994  25.184   6.153
 8946POPC   C1A50835  43.147  25.285   6.453
 8946POPC   D2A50836  43.159  25.238   6.753
 8946POPC   C3A50837  43.089  25.286   7.053
 8946POPC   C4A50838  43.139  25.218   7.353
 8946POPC   C1B50839  42.873  25.146   6.453
 8946POPC   C2B50840  42.863  25.162   6.753
 8946POPC   C3B50841  42.872  25.143   7.053
 8946POPC   C4B50842  42.838  25.157   7.353
 8947POPC   NC350843   9.714   9.781   5.553
 8947POPC   PO450844   9.746   9.757   5.853
 8947POPC   GL150845   9.726   9.711   6.153
 8947POPC   GL250846   9.798   9.906   6.153
 8947POPC   C1A50847   9.788   9.783   6.453
 8947POPC   D2A50848   9.744   9.729   6.753
 8947POPC   C3A50849   9.718   9.763   7.053
 8947POPC   C4A50850   9.713   9.766   7.353
 8947POPC   C1B50851   9.871  10.018   6.453
 8947POPC   C2B50852   9.881   9.942   6.753
 8947POPC   C3B50853   9.870  10.015   7.053
 8947POPC   C4B50854   9.854   9.947   7.353
 8948POPC   NC350855  36.133  20.569   5.553
 8948POPC   PO450856  36.109  20.615   5.853
 8948POPC   GL150857  36.168  20.646   6.153
 8948POPC   GL250858  36.072  20.737   6.153
 8948POPC   C1A50859  36.083  20.589   6.453
 8948POPC   D2A50860  36.142  20.651   6.753
 8948POPC   C3A50861  36.110  20.637   7.053
 8948POPC   C4A50862  36.117  20.567   7.353
 8948POPC   C1B50863  35.946  20.798   6.453
 8948POPC   C2B50864  35.949  20.836   6.753
 8948POPC   C3B50865  35.981  20.755   7.053
 8948POPC   C4B50866  35.910  20.780   7.353
 8949POPC   NC350867  40.053  37.638   5.553
 8949POPC   PO450868  40.039  37.724   5.853
 8949POPC   GL150869  39.993  37.724   6.153
 8949POPC   GL250870  39.931  37.540   6.153
 8949POPC   C1A50871  39.990  37.650   6.453
 8949POPC   D2A50872  40.001  37.700   6.753
 8949POPC   C3A50873  39.972  37.646   7.053
 8949POPC   C4A50874  39.970  37.659   7.353
 8949POPC   C1B50875  39.852  37.455   6.453
 8949POPC   C2B50876  39.875  37.458   6.753
 8949POPC   C3B50877  39.933  37.445   7.053
 8949POPC   C4B50878  39.892  37.496   7.353
 8950POPC   NC350879  17.524   9.772   5.553
 8950POPC   PO450880  17.528   9.770   5.853
 8950POPC   GL150881  17.545   9.700   6.153
 8950POPC   GL250882  17.516   9.841   6.153
 8950POPC   C1A50883  17.522   9.776   6.453
 8950POPC   D2A50884  17.467   9.761   6.753
 8950POPC   C3A50885  17.507   9.767   7.053
 8950POPC   C4A50886  17.540   9.784   7.353
 8950POPC   C1B50887  17.591   9.992   6.453
 8950POPC   C2B50888  17.540   9.996   6.753
 8950POPC   C3B50889  17.560   9.956   7.053
 8950POPC   C4B50890  17.563   9.955   7.353
 8951POPC   NC350891   5.886  44.685   5.553
 8951POPC   PO450892   5.857  44.668   5.853
 8951POPC   GL150893   5.841  44.669   6.153
 8951POPC   GL250894   5.752  44.673   6.153
 8951POPC   C1A50895   5.870  44.656   6.453
 8951POPC   D2A50896   5.847  44.657   6.753
 8951POPC   C3A50897   5.848  44.664   7.053
 8951POPC   C4A50898   5.846  44.643   7.353
 8951POPC   C1B50899   5.592  44.757   6.453
 8951POPC   C2B50900   5.632  44.703   6.753
 8951POPC   C3B50901   5.585  44.785   7.053
 8951POPC   C4B50902   5.622  44.774   7.353
 8952POPC   NC350903  44.654  41.541   5.553
 8952POPC   PO450904  44.616  41.554   5.853
 8952POPC   GL150905  44.685  41.577   6.153
 8952POPC   GL250906  44.764  41.602   6.153
 8952POPC   C1A50907  44.686  41.580   6.453
 8952POPC   D2A50908  44.621  41.572   6.753
 8952POPC   C3A50909  44.676  41.545   7.053
 8952POPC   C4A50910  44.690  41.564   7.353
 8952POPC   C1B50911  44.882  41.648   6.453
 8952POPC   C2B50912  44.937  41.590   6.753
 8952POPC   C3B50913  44.874  41.566   7.053
 8952POPC   C4B50914  44.871  41.649   7.353
 8953POPC   NC350915  27.565  34.528   5.553
 8953POPC   PO450916  27.554  34.615   5.853
 8953POPC   GL150917  27.623  34.579   6.153
 8953POPC   GL250918  27.449  34.549   6.153
 8953POPC   C1A50919  27.607  34.615   6.453
 8953POPC   D2A50920  27.589  34.544   6.753
 8953POPC   C3A50921  27.642  34.539   7.053
 8953POPC   C4A50922  27.551  34.596   7.353
 8953POPC   C1B50923  27.365  34.464   6.453
 8953POPC   C2B50924  27.384  34.400   6.753
 8953POPC   C3B50925  27.419  34.426   7.053
 8953POPC   C4B50926  27.382  34.392   7.353
 8954POPC   NC350927  35.362  33.829   5.553
 8954POPC   PO450928  35.316  33.766   5.853
 8954POPC   GL150929  35.378  33.757   6.153
 8954POPC   GL250930  35.430  33.924   6.153
 8954POPC   C1A50931  35.362  33.758   6.453
 8954POPC   D2A50932  35.354  33.810   6.753
 8954POPC   C3A50933  35.326  33.751   7.053
 8954POPC   C4A50934  35.332  33.838   7.353
 8954POPC   C1B50935  35.459  34.035   6.453
 8954POPC   C2B50936  35.466  34.022   6.753
 8954POPC   C3B50937  35.469  33.997   7.053
 8954POPC   C4B50938  35.479  34.006   7.353
 8955POPC   NC350939   0.459  44.627   5.553
 8955POPC   PO450940   0.466  44.682   5.853
 8955POPC   GL150941   0.464  44.691   6.153
 8955POPC   GL250942   0.564  44.733   6.153
 8955POPC   C1A50943   0.401  44.690   6.453
 8955POPC   D2A50944   0.405  44.689   6.753
 8955POPC   C3A50945   0.410  44.631   7.053
 8955POPC   C4A50946   0.458  44.614   7.353
 8955POPC   C1B50947   0.614  44.827   6.453
 8955POPC   C2B50948   0.640  44.838   6.753
 8955POPC   C3B50949   0.613  44.878   7.053
 8955POPC   C4B50950   0.548  44.831   7.353
 8956POPC   NC350951  16.685   1.987   5.553
 8956POPC   PO450952  16.735   1.963   5.853
 8956POPC   GL150953  16.728   1.941   6.153
 8956POPC   GL250954  16.810   2.139   6.153
 8956POPC   C1A50955  16.764   2.004   6.453
 8956POPC   D2A50956  16.771   2.029   6.753
 8956POPC   C3A50957  16.769   2.021   7.053
 8956POPC   C4A50958  16.779   2.022   7.353
 8956POPC   C1B50959  16.858   2.228   6.453
 8956POPC   C2B50960  16.894   2.203   6.753
 8956POPC   C3B50961  16.850   2.199   7.053
 8956POPC   C4B50962  16.840   2.167   7.353
 8957POPC   NC350963  10.568  16.690   5.553
 8957POPC   PO450964  10.565  16.745   5.853
 8957POPC   GL150965  10.529  16.738   6.153
 8957POPC   GL250966  10.576  16.789   6.153
 8957POPC   C1A50967  10.484  16.751   6.453
 8957POPC   D2A50968  10.496  16.744   6.753
 8957POPC   C3A50969  10.483  16.744   7.053
 8957POPC   C4A50970  10.501  16.763   7.353
 8957POPC   C1B50971  10.658  16.891   6.453
 8957POPC   C2B50972  10.691  16.963   6.753
 8957POPC   C3B50973  10.717  16.886   7.053
 8957POPC   C4B50974  10.735  16.928   7.353
 8958POPC   NC350975   4.283  19.830   5.553
 8958POPC   PO450976   4.289  19.808   5.853
 8958POPC   GL150977   4.360  19.827   6.153
 8958POPC   GL250978   4.273  19.967   6.153
 8958POPC   C1A50979   4.323  19.798   6.453
 8958POPC   D2A50980   4.314  19.807   6.753
 8958POPC   C3A50981   4.304  19.880   7.053
 8958POPC   C4A50982   4.300  19.809   7.353
 8958POPC   C1B50983   4.122  19.990   6.453
 8958POPC   C2B50984   4.195  19.989   6.753
 8958POPC   C3B50985   4.183  20.058   7.053
 8958POPC   C4B50986   4.136  19.980   7.353
 8959POPC   NC350987  19.066  44.659   5.553
 8959POPC   PO450988  19.069  44.688   5.853
 8959POPC   GL150989  19.077  44.638   6.153
 8959POPC   GL250990  18.970  44.719   6.153
 8959POPC   C1A50991  19.091  44.710   6.453
 8959POPC   D2A50992  19.071  44.664   6.753
 8959POPC   C3A50993  19.101  44.681   7.053
 8959POPC   C4A50994  19.055  44.675   7.353
 8959POPC   C1B50995  18.794  44.708   6.453
 8959POPC   C2B50996  18.787  44.770   6.753
 8959POPC   C3B50997  18.851  44.744   7.053
 8959POPC   C4B50998  18.849  44.792   7.353
 8960POPC   NC350999  43.086  31.444   5.553
 8960POPC   PO451000  43.144  31.516   5.853
 8960POPC   GL151001  43.132  31.509   6.153
 8960POPC   GL251002  43.229  31.523   6.153
 8960POPC   C1A51003  43.115  31.452   6.453
 8960POPC   D2A51004  43.104  31.459   6.753
 8960POPC   C3A51005  43.116  31.443   7.053
 8960POPC   C4A51006  43.121  31.511   7.353
 8960POPC   C1B51007  43.374  31.605   6.453
 8960POPC   C2B51008  43.351  31.579   6.753
 8960POPC   C3B51009  43.335  31.590   7.053
 8960POPC   C4B51010  43.383  31.630   7.353
 8961POPC   NC351011  10.513  11.255   5.553
 8961POPC   PO451012  10.510  11.282   5.853
 8961POPC   GL151013  10.569  11.267   6.153
 8961POPC   GL251014  10.613  11.341   6.153
 8961POPC   C1A51015  10.563  11.319   6.453
 8961POPC   D2A51016  10.544  11.258   6.753
 8961POPC   C3A51017  10.493  11.326   7.053
 8961POPC   C4A51018  10.525  11.345   7.353
 8961POPC   C1B51019  10.785  11.331   6.453
 8961POPC   C2B51020  10.799  11.325   6.753
 8961POPC   C3B51021  10.760  11.328   7.053
 8961POPC   C4B51022  10.736  11.281   7.353
 8962POPC   NC351023   3.502  41.529   5.553
 8962POPC   PO451024   3.587  41.569   5.853
 8962POPC   GL151025   3.576  41.557   6.153
 8962POPC   GL251026   3.566  41.391   6.153
 8962POPC   C1A51027   3.542  41.588   6.453
 8962POPC   D2A51028   3.581  41.587   6.753
 8962POPC   C3A51029   3.531  41.550   7.053
 8962POPC   C4A51030   3.495  41.510   7.353
 8962POPC   C1B51031   3.591  41.289   6.453
 8962POPC   C2B51032   3.591  41.318   6.753
 8962POPC   C3B51033   3.616  41.315   7.053
 8962POPC   C4B51034   3.633  41.339   7.353
 8963POPC   NC351035   8.930   1.186   5.553
 8963POPC   PO451036   9.013   1.214   5.853
 8963POPC   GL151037   9.017   1.207   6.153
 8963POPC   GL251038   8.882   1.104   6.153
 8963POPC   C1A51039   8.975   1.213   6.453
 8963POPC   D2A51040   8.996   1.222   6.753
 8963POPC   C3A51041   8.989   1.165   7.053
 8963POPC   C4A51042   8.994   1.178   7.353
 8963POPC   C1B51043   8.797   1.036   6.453
 8963POPC   C2B51044   8.801   0.998   6.753
 8963POPC   C3B51045   8.831   0.989   7.053
 8963POPC   C4B51046   8.808   0.998   7.353
 8964POPC   NC351047  36.133  44.613   5.553
 8964POPC   PO451048  36.140  44.681   5.853
 8964POPC   GL151049  36.169  44.703   6.153
 8964POPC   GL251050  36.278  44.707   6.153
 8964POPC   C1A51051  36.078  44.634   6.453
 8964POPC   D2A51052  36.125  44.690   6.753
 8964POPC   C3A51053  36.156  44.649   7.053
 8964POPC   C4A51054  36.118  44.624   7.353
 8964POPC   C1B51055  36.332  44.781   6.453
 8964POPC   C2B51056  36.351  44.774   6.753
 8964POPC   C3B51057  36.361  44.713   7.053
 8964POPC   C4B51058  36.365  44.736   7.353
 8965POPC   NC351059  36.148  12.890   5.553
 8965POPC   PO451060  36.155  12.839   5.853
 8965POPC   GL151061  36.123  12.859   6.153
 8965POPC   GL251062  36.021  12.728   6.153
 8965POPC   C1A51063  36.116  12.901   6.453
 8965POPC   D2A51064  36.129  12.884   6.753
 8965POPC   C3A51065  36.143  12.851   7.053
 8965POPC   C4A51066  36.091  12.890   7.353
 8965POPC   C1B51067  35.945  12.693   6.453
 8965POPC   C2B51068  35.983  12.674   6.753
 8965POPC   C3B51069  35.996  12.656   7.053
 8965POPC   C4B51070  35.972  12.673   7.353
 8966POPC   NC351071  42.300   4.355   5.553
 8966POPC   PO451072  42.342   4.356   5.853
 8966POPC   GL151073  42.327   4.303   6.153
 8966POPC   GL251074  42.266   4.339   6.153
 8966POPC   C1A51075  42.328   4.322   6.453
 8966POPC   D2A51076  42.382   4.292   6.753
 8966POPC   C3A51077  42.286   4.311   7.053
 8966POPC   C4A51078  42.336   4.272   7.353
 8966POPC   C1B51079  42.126   4.499   6.453
 8966POPC   C2B51080  42.114   4.499   6.753
 8966POPC   C3B51081  42.089   4.421   7.053
 8966POPC   C4B51082  42.081   4.465   7.353
 8967POPC   NC351083  25.267  15.183   5.553
 8967POPC   PO451084  25.235  15.201   5.853
 8967POPC   GL151085  25.233  15.157   6.153
 8967POPC   GL251086  25.162  15.079   6.153
 8967POPC   C1A51087  25.221  15.194   6.453
 8967POPC   D2A51088  25.300  15.173   6.753
 8967POPC   C3A51089  25.278  15.200   7.053
 8967POPC   C4A51090  25.218  15.175   7.353
 8967POPC   C1B51091  25.180  14.966   6.453
 8967POPC   C2B51092  25.144  14.941   6.753
 8967POPC   C3B51093  25.105  14.911   7.053
 8967POPC   C4B51094  25.146  14.918   7.353
 8968POPC   NC351095  31.472  36.939   5.553
 8968POPC   PO451096  31.465  36.880   5.853
 8968POPC   GL151097  31.498  36.880   6.153
 8968POPC   GL251098  31.421  36.800   6.153
 8968POPC   C1A51099  31.455  36.907   6.453
 8968POPC   D2A51100  31.451  36.910   6.753
 8968POPC   C3A51101  31.458  36.854   7.053
 8968POPC   C4A51102  31.474  36.868   7.353
 8968POPC   C1B51103  31.438  36.627   6.453
 8968POPC   C2B51104  31.403  36.612   6.753
 8968POPC   C3B51105  31.412  36.619   7.053
 8968POPC   C4B51106  31.416  36.677   7.353
 8969POPC   NC351107  22.176  14.369   5.553
 8969POPC   PO451108  22.170  14.390   5.853
 8969POPC   GL151109  22.179  14.412   6.153
 8969POPC   GL251110  22.161  14.269   6.153
 8969POPC   C1A51111  22.114  14.400   6.453
 8969POPC   D2A51112  22.159  14.386   6.753
 8969POPC   C3A51113  22.182  14.405   7.053
 8969POPC   C4A51114  22.145  14.404   7.353
 8969POPC   C1B51115  22.274  14.203   6.453
 8969POPC   C2B51116  22.188  14.127   6.753
 8969POPC   C3B51117  22.205  14.198   7.053
 8969POPC   C4B51118  22.253  14.188   7.353
 8970POPC   NC351119   5.874  31.502   5.553
 8970POPC   PO451120   5.849  31.455   5.853
 8970POPC   GL151121   5.888  31.445   6.153
 8970POPC   GL251122   5.858  31.567   6.153
 8970POPC   C1A51123   5.892  31.442   6.453
 8970POPC   D2A51124   5.870  31.491   6.753
 8970POPC   C3A51125   5.912  31.516   7.053
 8970POPC   C4A51126   5.838  31.428   7.353
 8970POPC   C1B51127   5.872  31.748   6.453
 8970POPC   C2B51128   5.915  31.722   6.753
 8970POPC   C3B51129   5.904  31.735   7.053
 8970POPC   C4B51130   5.896  31.673   7.353
 8971POPC   NC351131  24.470  11.259   5.553
 8971POPC   PO451132  24.536  11.305   5.853
 8971POPC   GL151133  24.464  11.349   6.153
 8971POPC   GL251134  24.450  11.461   6.153
 8971POPC   C1A51135  24.529  11.348   6.453
 8971POPC   D2A51136  24.461  11.323   6.753
 8971POPC   C3A51137  24.461  11.338   7.053
 8971POPC   C4A51138  24.440  11.274   7.353
 8971POPC   C1B51139  24.527  11.553   6.453
 8971POPC   C2B51140  24.478  11.557   6.753
 8971POPC   C3B51141  24.523  11.589   7.053
 8971POPC   C4B51142  24.541  11.563   7.353
 8972POPC   NC351143  26.073  10.562   5.553
 8972POPC   PO451144  26.041  10.574   5.853
 8972POPC   GL151145  26.063  10.534   6.153
 8972POPC   GL251146  25.956  10.597   6.153
 8972POPC   C1A51147  26.049  10.495   6.453
 8972POPC   D2A51148  25.997  10.524   6.753
 8972POPC   C3A51149  26.087  10.569   7.053
 8972POPC   C4A51150  26.042  10.563   7.353
 8972POPC   C1B51151  25.794  10.615   6.453
 8972POPC   C2B51152  25.843  10.547   6.753
 8972POPC   C3B51153  25.814  10.580   7.053
 8972POPC   C4B51154  25.790  10.583   7.353
 8973POPC   NC351155  12.859  28.359   5.553
 8973POPC   PO451156  12.805  28.390   5.853
 8973POPC   GL151157  12.807  28.388   6.153
 8973POPC   GL251158  13.016  28.374   6.153
 8973POPC   C1A51159  12.807  28.329   6.453
 8973POPC   D2A51160  12.829  28.350   6.753
 8973POPC   C3A51161  12.810  28.321   7.053
 8973POPC   C4A51162  12.875  28.366   7.353
 8973POPC   C1B51163  13.145  28.311   6.453
 8973POPC   C2B51164  13.132  28.279   6.753
 8973POPC   C3B51165  13.072  28.359   7.053
 8973POPC   C4B51166  13.136  28.346   7.353
 8974POPC   NC351167  38.407  26.074   5.553
 8974POPC   PO451168  38.429  25.996   5.853
 8974POPC   GL151169  38.492  26.034   6.153
 8974POPC   GL251170  38.620  26.066   6.153
 8974POPC   C1A51171  38.478  26.050   6.453
 8974POPC   D2A51172  38.495  26.021   6.753
 8974POPC   C3A51173  38.412  25.994   7.053
 8974POPC   C4A51174  38.449  26.027   7.353
 8974POPC   C1B51175  38.710  26.091   6.453
 8974POPC   C2B51176  38.669  26.133   6.753
 8974POPC   C3B51177  38.695  26.081   7.053
 8974POPC   C4B51178  38.679  26.066   7.353
 8975POPC   NC351179   5.092   0.431   5.553
 8975POPC   PO451180   5.127   0.416   5.853
 8975POPC   GL151181   5.124   0.402   6.153
 8975POPC   GL251182   4.979   0.435   6.153
 8975POPC   C1A51183   5.138   0.452   6.453
 8975POPC   D2A51184   5.070   0.487   6.753
 8975POPC   C3A51185   5.126   0.483   7.053
 8975POPC   C4A51186   5.053   0.426   7.353
 8975POPC   C1B51187   4.861   0.457   6.453
 8975POPC   C2B51188   4.853   0.424   6.753
 8975POPC   C3B51189   4.812   0.445   7.053
 8975POPC   C4B51190   4.843   0.499   7.353
 8976POPC   NC351191  43.095   0.417   5.553
 8976POPC   PO451192  43.094   0.392   5.853
 8976POPC   GL151193  43.159   0.450   6.153
 8976POPC   GL251194  43.133   0.548   6.153
 8976POPC   C1A51195  43.120   0.471   6.453
 8976POPC   D2A51196  43.127   0.396   6.753
 8976POPC   C3A51197  43.110   0.454   7.053
 8976POPC   C4A51198  43.079   0.394   7.353
 8976POPC   C1B51199  43.118   0.652   6.453
 8976POPC   C2B51200  43.081   0.669   6.753
 8976POPC   C3B51201  43.091   0.669   7.053
 8976POPC   C4B51202  43.087   0.715   7.353
 8977POPC   NC351203   8.942  15.912   5.553
 8977POPC   PO451204   8.937  15.937   5.853
 8977POPC   GL151205   8.970  15.976   6.153
 8977POPC   GL251206   9.092  16.002   6.153
 8977POPC   C1A51207   8.996  15.994   6.453
 8977POPC   D2A51208   8.956  15.937   6.753
 8977POPC   C3A51209   8.970  15.998   7.053
 8977POPC   C4A51210   9.009  15.938   7.353
 8977POPC   C1B51211   9.201  16.141   6.453
 8977POPC   C2B51212   9.138  16.123   6.753
 8977POPC   C3B51213   9.135  16.077   7.053
 8977POPC   C4B51214   9.127  16.104   7.353
 8978POPC   NC351215  19.869  39.214   5.553
 8978POPC   PO451216  19.856  39.204   5.853
 8978POPC   GL151217  19.835  39.267   6.153
 8978POPC   GL251218  19.909  39.101   6.153
 8978POPC   C1A51219  19.787  39.224   6.453
 8978POPC   D2A51220  19.872  39.267   6.753
 8978POPC   C3A51221  19.856  39.273   7.053
 8978POPC   C4A51222  19.824  39.251   7.353
 8978POPC   C1B51223  20.024  39.052   6.453
 8978POPC   C2B51224  20.049  39.026   6.753
 8978POPC   C3B51225  20.056  39.071   7.053
 8978POPC   C4B51226  19.990  39.031   7.353
 8979POPC   NC351227  16.748  39.238   5.553
 8979POPC   PO451228  16.684  39.263   5.853
 8979POPC   GL151229  16.698  39.217   6.153
 8979POPC   GL251230  16.622  39.192   6.153
 8979POPC   C1A51231  16.684  39.233   6.453
 8979POPC   D2A51232  16.750  39.255   6.753
 8979POPC   C3A51233  16.700  39.241   7.053
 8979POPC   C4A51234  16.695  39.233   7.353
 8979POPC   C1B51235  16.509  39.139   6.453
 8979POPC   C2B51236  16.490  39.224   6.753
 8979POPC   C3B51237  16.511  39.141   7.053
 8979POPC   C4B51238  16.439  39.151   7.353
 8980POPC   NC351239  20.610   7.413   5.553
 8980POPC   PO451240  20.627   7.417   5.853
 8980POPC   GL151241  20.579   7.398   6.153
 8980POPC   GL251242  20.709   7.556   6.153
 8980POPC   C1A51243  20.582   7.451   6.453
 8980POPC   D2A51244  20.578   7.442   6.753
 8980POPC   C3A51245  20.617   7.409   7.053
 8980POPC   C4A51246  20.605   7.440   7.353
 8980POPC   C1B51247  20.777   7.653   6.453
 8980POPC   C2B51248  20.747   7.606   6.753
 8980POPC   C3B51249  20.787   7.637   7.053
 8980POPC   C4B51250  20.730   7.592   7.353
 8981POPC   NC351251  38.442  15.939   5.553
 8981POPC   PO451252  38.496  15.935   5.853
 8981POPC   GL151253  38.445  15.964   6.153
 8981POPC   GL251254  38.472  16.065   6.153
 8981POPC   C1A51255  38.461  15.927   6.453
 8981POPC   D2A51256  38.484  15.947   6.753
 8981POPC   C3A51257  38.417  15.960   7.053
 8981POPC   C4A51258  38.431  15.987   7.353
 8981POPC   C1B51259  38.480  16.171   6.453
 8981POPC   C2B51260  38.434  16.249   6.753
 8981POPC   C3B51261  38.494  16.194   7.053
 8981POPC   C4B51262  38.451  16.229   7.353
 8982POPC   NC351263  33.791   3.567   5.553
 8982POPC   PO451264  33.842   3.563   5.853
 8982POPC   GL151265  33.783   3.564   6.153
 8982POPC   GL251266  33.733   3.434   6.153
 8982POPC   C1A51267  33.790   3.532   6.453
 8982POPC   D2A51268  33.832   3.498   6.753
 8982POPC   C3A51269  33.784   3.513   7.053
 8982POPC   C4A51270  33.789   3.583   7.353
 8982POPC   C1B51271  33.710   3.353   6.453
 8982POPC   C2B51272  33.706   3.350   6.753
 8982POPC   C3B51273  33.627   3.334   7.053
 8982POPC   C4B51274  33.696   3.291   7.353
 8983POPC   NC351275  19.799   3.548   5.553
 8983POPC   PO451276  19.865   3.541   5.853
 8983POPC   GL151277  19.832   3.518   6.153
 8983POPC   GL251278  19.712   3.547   6.153
 8983POPC   C1A51279  19.818   3.583   6.453
 8983POPC   D2A51280  19.813   3.501   6.753
 8983POPC   C3A51281  19.814   3.564   7.053
 8983POPC   C4A51282  19.867   3.543   7.353
 8983POPC   C1B51283  19.596   3.529   6.453
 8983POPC   C2B51284  19.629   3.589   6.753
 8983POPC   C3B51285  19.556   3.541   7.053
 8983POPC   C4B51286  19.598   3.502   7.353
 8984POPC   NC351287  19.791  19.040   5.553
 8984POPC   PO451288  19.821  19.059   5.853
 8984POPC   GL151289  19.842  19.101   6.153
 8984POPC   GL251290  19.877  19.204   6.153
 8984POPC   C1A51291  19.884  19.030   6.453
 8984POPC   D2A51292  19.848  19.079   6.753
 8984POPC   C3A51293  19.871  19.097   7.053
 8984POPC   C4A51294  19.833  19.064   7.353
 8984POPC   C1B51295  19.938  19.328   6.453
 8984POPC   C2B51296  19.951  19.300   6.753
 8984POPC   C3B51297  19.904  19.238   7.053
 8984POPC   C4B51298  19.949  19.289   7.353
 8985POPC   NC351299   7.408  41.532   5.553
 8985POPC   PO451300   7.383  41.560   5.853
 8985POPC   GL151301   7.445  41.591   6.153
 8985POPC   GL251302   7.539  41.516   6.153
 8985POPC   C1A51303   7.447  41.572   6.453
 8985POPC   D2A51304   7.429  41.524   6.753
 8985POPC   C3A51305   7.402  41.564   7.053
 8985POPC   C4A51306   7.420  41.565   7.353
 8985POPC   C1B51307   7.711  41.513   6.453
 8985POPC   C2B51308   7.646  41.509   6.753
 8985POPC   C3B51309   7.619  41.475   7.053
 8985POPC   C4B51310   7.674  41.521   7.353
 8986POPC   NC351311  30.649  36.158   5.553
 8986POPC   PO451312  30.694  36.118   5.853
 8986POPC   GL151313  30.660  36.099   6.153
 8986POPC   GL251314  30.545  36.130   6.153
 8986POPC   C1A51315  30.712  36.165   6.453
 8986POPC   D2A51316  30.679  36.093   6.753
 8986POPC   C3A51317  30.657  36.084   7.053
 8986POPC   C4A51318  30.653  36.125   7.353
 8986POPC   C1B51319  30.439  36.058   6.453
 8986POPC   C2B51320  30.492  36.009   6.753
 8986POPC   C3B51321  30.415  35.986   7.053
 8986POPC   C4B51322  30.489  36.005   7.353
 8987POPC   NC351323  16.754  44.695   5.553
 8987POPC   PO451324  16.743  44.648   5.853
 8987POPC   GL151325  16.697  44.674   6.153
 8987POPC   GL251326  16.845  44.720   6.153
 8987POPC   C1A51327  16.750  44.626   6.453
 8987POPC   D2A51328  16.773  44.692   6.753
 8987POPC   C3A51329  16.721  44.662   7.053
 8987POPC   C4A51330  16.740  44.691   7.353
 8987POPC   C1B51331  16.978  44.680   6.453
 8987POPC   C2B51332  16.994  44.716   6.753
 8987POPC   C3B51333  16.941  44.668   7.053
 8987POPC   C4B51334  16.949  44.643   7.353
 8988POPC   NC351335   7.466  37.661   5.553
 8988POPC   PO451336   7.391  37.668   5.853
 8988POPC   GL151337   7.419  37.725   6.153
 8988POPC   GL251338   7.352  37.633   6.153
 8988POPC   C1A51339   7.410  37.700   6.453
 8988POPC   D2A51340   7.426  37.715   6.753
 8988POPC   C3A51341   7.426  37.709   7.053
 8988POPC   C4A51342   7.432  37.675   7.353
 8988POPC   C1B51343   7.239  37.538   6.453
 8988POPC   C2B51344   7.262  37.526   6.753
 8988POPC   C3B51345   7.197  37.533   7.053
 8988POPC   C4B51346   7.191  37.499   7.353
 8989POPC   NC351347  38.497   5.889   5.553
 8989POPC   PO451348  38.471   5.842   5.853
 8989POPC   GL151349  38.490   5.872   6.153
 8989POPC   GL251350  38.548   5.990   6.153
 8989POPC   C1A51351  38.450   5.846   6.453
 8989POPC   D2A51352  38.462   5.857   6.753
 8989POPC   C3A51353  38.484   5.868   7.053
 8989POPC   C4A51354  38.452   5.828   7.353
 8989POPC   C1B51355  38.616   6.026   6.453
 8989POPC   C2B51356  38.684   5.992   6.753
 8989POPC   C3B51357  38.651   5.966   7.053
 8989POPC   C4B51358  38.673   5.976   7.353
 8990POPC   NC351359  19.030   7.402   5.553
 8990POPC   PO451360  19.079   7.465   5.853
 8990POPC   GL151361  19.016   7.417   6.153
 8990POPC   GL251362  19.195   7.424   6.153
 8990POPC   C1A51363  19.049   7.427   6.453
 8990POPC   D2A51364  19.045   7.419   6.753
 8990POPC   C3A51365  19.107   7.414   7.053
 8990POPC   C4A51366  19.106   7.415   7.353
 8990POPC   C1B51367  19.300   7.505   6.453
 8990POPC   C2B51368  19.248   7.498   6.753
 8990POPC   C3B51369  19.253   7.557   7.053
 8990POPC   C4B51370  19.311   7.542   7.353
 8991POPC   NC351371  42.347  19.876   5.553
 8991POPC   PO451372  42.369  19.827   5.853
 8991POPC   GL151373  42.366  19.832   6.153
 8991POPC   GL251374  42.282  19.972   6.153
 8991POPC   C1A51375  42.324  19.870   6.453
 8991POPC   D2A51376  42.369  19.828   6.753
 8991POPC   C3A51377  42.321  19.875   7.053
 8991POPC   C4A51378  42.299  19.831   7.353
 8991POPC   C1B51379  42.282  20.050   6.453
 8991POPC   C2B51380  42.320  20.098   6.753
 8991POPC   C3B51381  42.303  20.128   7.053
 8991POPC   C4B51382  42.280  20.084   7.353
 8992POPC   NC351383  39.960  15.982   5.553
 8992POPC   PO451384  40.013  15.914   5.853
 8992POPC   GL151385  40.017  15.939   6.153
 8992POPC   GL251386  39.920  16.021   6.153
 8992POPC   C1A51387  40.005  15.996   6.453
 8992POPC   D2A51388  39.981  15.937   6.753
 8992POPC   C3A51389  39.966  15.971   7.053
 8992POPC   C4A51390  40.005  15.987   7.353
 8992POPC   C1B51391  39.855  16.088   6.453
 8992POPC   C2B51392  39.842  16.174   6.753
 8992POPC   C3B51393  39.868  16.103   7.053
 8992POPC   C4B51394  39.880  16.152   7.353
 8993POPC   NC351395  33.765  31.508   5.553
 8993POPC   PO451396  33.841  31.487   5.853
 8993POPC   GL151397  33.769  31.452   6.153
 8993POPC   GL251398  33.676  31.478   6.153
 8993POPC   C1A51399  33.791  31.466   6.453
 8993POPC   D2A51400  33.849  31.507   6.753
 8993POPC   C3A51401  33.800  31.464   7.053
 8993POPC   C4A51402  33.817  31.468   7.353
 8993POPC   C1B51403  33.583  31.487   6.453
 8993POPC   C2B51404  33.512  31.526   6.753
 8993POPC   C3B51405  33.563  31.495   7.053
 8993POPC   C4B51406  33.584  31.523   7.353
 8994POPC   NC351407  28.351   0.477   5.553
 8994POPC   PO451408  28.371   0.450   5.853
 8994POPC   GL151409  28.392   0.426   6.153
 8994POPC   GL251410  28.291   0.392   6.153
 8994POPC   C1A51411  28.359   0.419   6.453
 8994POPC   D2A51412  28.411   0.461   6.753
 8994POPC   C3A51413  28.418   0.478   7.053
 8994POPC   C4A51414  28.334   0.407   7.353
 8994POPC   C1B51415  28.196   0.257   6.453
 8994POPC   C2B51416  28.177   0.258   6.753
 8994POPC   C3B51417  28.137   0.292   7.053
 8994POPC   C4B51418  28.126   0.333   7.353
 8995POPC   NC351419  24.445   9.011   5.553
 8995POPC   PO451420  24.466   9.015   5.853
 8995POPC   GL151421  24.525   8.993   6.153
 8995POPC   GL251422  24.330   9.059   6.153
 8995POPC   C1A51423  24.480   8.944   6.453
 8995POPC   D2A51424  24.483   8.986   6.753
 8995POPC   C3A51425  24.501   8.923   7.053
 8995POPC   C4A51426  24.476   9.004   7.353
 8995POPC   C1B51427  24.249   9.137   6.453
 8995POPC   C2B51428  24.234   9.076   6.753
 8995POPC   C3B51429  24.294   9.045   7.053
 8995POPC   C4B51430  24.283   9.104   7.353
 8996POPC   NC351431  39.998  39.991   5.553
 8996POPC   PO451432  40.045  39.981   5.853
 8996POPC   GL151433  40.050  39.994   6.153
 8996POPC   GL251434  39.848  40.036   6.153
 8996POPC   C1A51435  40.049  39.962   6.453
 8996POPC   D2A51436  39.986  40.006   6.753
 8996POPC   C3A51437  39.989  40.024   7.053
 8996POPC   C4A51438  40.053  39.989   7.353
 8996POPC   C1B51439  39.744  40.111   6.453
 8996POPC   C2B51440  39.806  40.074   6.753
 8996POPC   C3B51441  39.811  40.134   7.053
 8996POPC   C4B51442  39.831  40.064   7.353
 8997POPC   NC351443  18.252   1.975   5.553
 8997POPC   PO451444  18.292   1.982   5.853
 8997POPC   GL151445  18.331   2.009   6.153
 8997POPC   GL251446  18.408   2.068   6.153
 8997POPC   C1A51447  18.260   2.020   6.453
 8997POPC   D2A51448  18.275   1.960   6.753
 8997POPC   C3A51449  18.259   1.945   7.053
 8997POPC   C4A51450  18.258   2.020   7.353
 8997POPC   C1B51451  18.456   2.214   6.453
 8997POPC   C2B51452  18.403   2.194   6.753
 8997POPC   C3B51453  18.429   2.185   7.053
 8997POPC   C4B51454  18.414   2.190   7.353
 8998POPC   NC351455  28.397  11.318   5.553
 8998POPC   PO451456  28.333  11.339   5.853
 8998POPC   GL151457  28.405  11.277   6.153
 8998POPC   GL251458  28.425  11.225   6.153
 8998POPC   C1A51459  28.327  11.250   6.453
 8998POPC   D2A51460  28.362  11.313   6.753
 8998POPC   C3A51461  28.376  11.278   7.053
 8998POPC   C4A51462  28.365  11.265   7.353
 8998POPC   C1B51463  28.545  11.063   6.453
 8998POPC   C2B51464  28.519  11.066   6.753
 8998POPC   C3B51465  28.562  11.118   7.053
 8998POPC   C4B51466  28.468  11.114   7.353
 8999POPC   NC351467  42.372  36.133   5.553
 8999POPC   PO451468  42.306  36.168   5.853
 8999POPC   GL151469  42.333  36.131   6.153
 8999POPC   GL251470  42.389  36.065   6.153
 8999POPC   C1A51471  42.318  36.138   6.453
 8999POPC   D2A51472  42.310  36.157   6.753
 8999POPC   C3A51473  42.350  36.168   7.053
 8999POPC   C4A51474  42.362  36.118   7.353
 8999POPC   C1B51475  42.526  36.017   6.453
 8999POPC   C2B51476  42.488  35.945   6.753
 8999POPC   C3B51477  42.539  35.971   7.053
 8999POPC   C4B51478  42.532  35.953   7.353
 9000POPC   NC351479  12.804  37.728   5.553
 9000POPC   PO451480  12.893  37.673   5.853
 9000POPC   GL151481  12.832  37.678   6.153
 9000POPC   GL251482  12.803  37.530   6.153
 9000POPC   C1A51483  12.849  37.718   6.453
 9000POPC   D2A51484  12.804  37.674   6.753
 9000POPC   C3A51485  12.803  37.676   7.053
 9000POPC   C4A51486  12.825  37.667   7.353
 9000POPC   C1B51487  12.830  37.479   6.453
 9000POPC   C2B51488  12.799  37.398   6.753
 9000POPC   C3B51489  12.798  37.396   7.053
 9000POPC   C4B51490  12.771  37.443   7.353
 9001POPC   NC351491  26.842  10.533   5.553
 9001POPC   PO451492  26.850  10.507   5.853
 9001POPC   GL151493  26.786  10.525   6.153
 9001POPC   GL251494  26.947  10.546   6.153
 9001POPC   C1A51495  26.804  10.530   6.453
 9001POPC   D2A51496  26.846  10.517   6.753
 9001POPC   C3A51497  26.804  10.556   7.053
 9001POPC   C4A51498  26.805  10.485   7.353
 9001POPC   C1B51499  27.059  10.667   6.453
 9001POPC   C2B51500  27.072  10.614   6.753
 9001POPC   C3B51501  27.050  10.664   7.053
 9001POPC   C4B51502  27.061  10.602   7.353
 9002POPC   NC351503  17.466   2.037   5.553
 9002POPC   PO451504  17.492   2.006   5.853
 9002POPC   GL151505  17.536   1.993   6.153
 9002POPC   GL251506  17.502   2.122   6.153
 9002POPC   C1A51507  17.498   2.034   6.453
 9002POPC   D2A51508  17.462   1.991   6.753
 9002POPC   C3A51509  17.524   1.977   7.053
 9002POPC   C4A51510  17.509   1.962   7.353
 9002POPC   C1B51511  17.515   2.258   6.453
 9002POPC   C2B51512  17.557   2.188   6.753
 9002POPC   C3B51513  17.584   2.256   7.053
 9002POPC   C4B51514  17.586   2.250   7.353
 9003POPC   NC351515  42.295  34.561   5.553
 9003POPC   PO451516  42.296  34.578   5.853
 9003POPC   GL151517  42.338  34.557   6.153
 9003POPC   GL251518  42.311  34.731   6.153
 9003POPC   C1A51519  42.313  34.609   6.453
 9003POPC   D2A51520  42.324  34.545   6.753
 9003POPC   C3A51521  42.323  34.589   7.053
 9003POPC   C4A51522  42.315  34.527   7.353
 9003POPC   C1B51523  42.378  34.871   6.453
 9003POPC   C2B51524  42.387  34.801   6.753
 9003POPC   C3B51525  42.336  34.861   7.053
 9003POPC   C4B51526  42.328  34.847   7.353
 9004POPC   NC351527  11.339  22.954   5.553
 9004POPC   PO451528  11.296  22.911   5.853
 9004POPC   GL151529  11.276  22.984   6.153
 9004POPC   GL251530  11.255  22.816   6.153
 9004POPC   C1A51531  11.329  22.897   6.453
 9004POPC   D2A51532  11.295  22.985   6.753
 9004POPC   C3A51533  11.331  22.937   7.053
 9004POPC   C4A51534  11.348  22.947   7.353
 9004POPC   C1B51535  11.147  22.686   6.453
 9004POPC   C2B51536  11.158  22.712   6.753
 9004POPC   C3B51537  11.197  22.747   7.053
 9004POPC   C4B51538  11.131  22.675   7.353
 9005POPC   NC351539   8.967  37.649   5.553
 9005POPC   PO451540   8.975  37.666   5.853
 9005POPC   GL151541   8.952  37.669   6.153
 9005POPC   GL251542   9.092  37.731   6.153
 9005POPC   C1A51543   8.932  37.665   6.453
 9005POPC   D2A51544   8.981  37.706   6.753
 9005POPC   C3A51545   8.968  37.700   7.053
 9005POPC   C4A51546   8.940  37.701   7.353
 9005POPC   C1B51547   9.140  37.904   6.453
 9005POPC   C2B51548   9.112  37.848   6.753
 9005POPC   C3B51549   9.151  37.848   7.053
 9005POPC   C4B51550   9.152  37.904   7.353
 9006POPC   NC351551  14.450  19.048   5.553
 9006POPC   PO451552  14.414  19.018   5.853
 9006POPC   GL151553  14.410  19.057   6.153
 9006POPC   GL251554  14.308  19.021   6.153
 9006POPC   C1A51555  14.366  19.094   6.453
 9006POPC   D2A51556  14.450  19.092   6.753
 9006POPC   C3A51557  14.451  19.072   7.053
 9006POPC   C4A51558  14.355  19.065   7.353
 9006POPC   C1B51559  14.199  18.930   6.453
 9006POPC   C2B51560  14.198  18.978   6.753
 9006POPC   C3B51561  14.142  18.999   7.053
 9006POPC   C4B51562  14.191  19.022   7.353
 9007POPC   NC351563  24.486  43.900   5.553
 9007POPC   PO451564  24.533  43.924   5.853
 9007POPC   GL151565  24.506  43.873   6.153
 9007POPC   GL251566  24.434  43.777   6.153
 9007POPC   C1A51567  24.509  43.870   6.453
 9007POPC   D2A51568  24.495  43.900   6.753
 9007POPC   C3A51569  24.515  43.880   7.053
 9007POPC   C4A51570  24.531  43.891   7.353
 9007POPC   C1B51571  24.486  43.683   6.453
 9007POPC   C2B51572  24.504  43.683   6.753
 9007POPC   C3B51573  24.459  43.653   7.053
 9007POPC   C4B51574  24.502  43.687   7.353
 9008POPC   NC351575  41.597  44.686   5.553
 9008POPC   PO451576  41.591  44.662   5.853
 9008POPC   GL151577  41.514  44.698   6.153
 9008POPC   GL251578  41.649  44.642   6.153
 9008POPC   C1A51579  41.589  44.689   6.453
 9008POPC   D2A51580  41.595  44.686   6.753
 9008POPC   C3A51581  41.512  44.627   7.053
 9008POPC   C4A51582  41.585  44.666   7.353
 9008POPC   C1B51583  41.786  44.564   6.453
 9008POPC   C2B51584  41.734  44.541   6.753
 9008POPC   C3B51585  41.753  44.521   7.053
 9008POPC   C4B51586  41.820  44.572   7.353
 9009POPC   NC351587  44.624  17.486   5.553
 9009POPC   PO451588  44.676  17.541   5.853
 9009POPC   GL151589  44.691  17.542   6.153
 9009POPC   GL251590  44.723  17.631   6.153
 9009POPC   C1A51591  44.703  17.523   6.453
 9009POPC   D2A51592  44.664  17.553   6.753
 9009POPC   C3A51593  44.622  17.475   7.053
 9009POPC   C4A51594  44.661  17.461   7.353
 9009POPC   C1B51595  44.870  17.720   6.453
 9009POPC   C2B51596  44.836  17.647   6.753
 9009POPC   C3B51597  44.809  17.651   7.053
 9009POPC   C4B51598  44.835  17.744   7.353
 9010POPC   NC351599  32.265  23.749   5.553
 9010POPC   PO451600  32.225  23.739   5.853
 9010POPC   GL151601  32.287  23.723   6.153
 9010POPC   GL251602  32.095  23.748   6.153
 9010POPC   C1A51603  32.223  23.706   6.453
 9010POPC   D2A51604  32.218  23.723   6.753
 9010POPC   C3A51605  32.231  23.676   7.053
 9010POPC   C4A51606  32.228  23.727   7.353
 9010POPC   C1B51607  32.036  23.764   6.453
 9010POPC   C2B51608  31.971  23.757   6.753
 9010POPC   C3B51609  31.964  23.682   7.053
 9010POPC   C4B51610  32.028  23.694   7.353
 9011POPC   NC351611  23.677   0.401   5.553
 9011POPC   PO451612  23.758   0.395   5.853
 9011POPC   GL151613  23.694   0.432   6.153
 9011POPC   GL251614  23.555   0.412   6.153
 9011POPC   C1A51615  23.698   0.443   6.453
 9011POPC   D2A51616  23.692   0.456   6.753
 9011POPC   C3A51617  23.746   0.416   7.053
 9011POPC   C4A51618  23.723   0.419   7.353
 9011POPC   C1B51619  23.508   0.284   6.453
 9011POPC   C2B51620  23.497   0.318   6.753
 9011POPC   C3B51621  23.488   0.282   7.053
 9011POPC   C4B51622  23.531   0.326   7.353
 9012POPC   NC351623   4.349  28.358   5.553
 9012POPC   PO451624   4.271  28.399   5.853
 9012POPC   GL151625   4.355  28.418   6.153
 9012POPC   GL251626   4.460  28.327   6.153
 9012POPC   C1A51627   4.318  28.361   6.453
 9012POPC   D2A51628   4.278  28.394   6.753
 9012POPC   C3A51629   4.277  28.383   7.053
 9012POPC   C4A51630   4.338  28.419   7.353
 9012POPC   C1B51631   4.588  28.257   6.453
 9012POPC   C2B51632   4.574  28.209   6.753
 9012POPC   C3B51633   4.553  28.289   7.053
 9012POPC   C4B51634   4.545  28.244   7.353
 9013POPC   NC351635  21.418  18.235   5.553
 9013POPC   PO451636  21.433  18.285   5.853
 9013POPC   GL151637  21.425  18.332   6.153
 9013POPC   GL251638  21.270  18.386   6.153
 9013POPC   C1A51639  21.399  18.318   6.453
 9013POPC   D2A51640  21.414  18.238   6.753
 9013POPC   C3A51641  21.388  18.234   7.053
 9013POPC   C4A51642  21.408  18.250   7.353
 9013POPC   C1B51643  21.240  18.486   6.453
 9013POPC   C2B51644  21.183  18.464   6.753
 9013POPC   C3B51645  21.251  18.436   7.053
 9013POPC   C4B51646  21.216  18.461   7.353
 9014POPC   NC351647  41.547  31.473   5.553
 9014POPC   PO451648  41.557  31.444   5.853
 9014POPC   GL151649  41.537  31.513   6.153
 9014POPC   GL251650  41.568  31.621   6.153
 9014POPC   C1A51651  41.522  31.423   6.453
 9014POPC   D2A51652  41.522  31.430   6.753
 9014POPC   C3A51653  41.581  31.461   7.053
 9014POPC   C4A51654  41.585  31.467   7.353
 9014POPC   C1B51655  41.457  31.690   6.453
 9014POPC   C2B51656  41.461  31.713   6.753
 9014POPC   C3B51657  41.457  31.749   7.053
 9014POPC   C4B51658  41.442  31.686   7.353
 9015POPC   NC351659  27.571  12.090   5.553
 9015POPC   PO451660  27.552  12.104   5.853
 9015POPC   GL151661  27.577  12.050   6.153
 9015POPC   GL251662  27.654  11.986   6.153
 9015POPC   C1A51663  27.594  12.119   6.453
 9015POPC   D2A51664  27.566  12.026   6.753
 9015POPC   C3A51665  27.593  12.032   7.053
 9015POPC   C4A51666  27.578  12.110   7.353
 9015POPC   C1B51667  27.694  11.849   6.453
 9015POPC   C2B51668  27.736  11.892   6.753
 9015POPC   C3B51669  27.751  11.904   7.053
 9015POPC   C4B51670  27.755  11.820   7.353
 9016POPC   NC351671   4.322   9.737   5.553
 9016POPC   PO451672   4.270   9.734   5.853
 9016POPC   GL151673   4.354   9.778   6.153
 9016POPC   GL251674   4.202   9.741   6.153
 9016POPC   C1A51675   4.290   9.712   6.453
 9016POPC   D2A51676   4.315   9.788   6.753
 9016POPC   C3A51677   4.279   9.744   7.053
 9016POPC   C4A51678   4.344   9.783   7.353
 9016POPC   C1B51679   4.102   9.746   6.453
 9016POPC   C2B51680   4.033   9.723   6.753
 9016POPC   C3B51681   4.094   9.797   7.053
 9016POPC   C4B51682   4.106   9.809   7.353
 9017POPC   NC351683  40.796  43.935   5.553
 9017POPC   PO451684  40.814  43.852   5.853
 9017POPC   GL151685  40.763  43.851   6.153
 9017POPC   GL251686  40.693  43.942   6.153
 9017POPC   C1A51687  40.747  43.906   6.453
 9017POPC   D2A51688  40.787  43.884   6.753
 9017POPC   C3A51689  40.784  43.929   7.053
 9017POPC   C4A51690  40.826  43.900   7.353
 9017POPC   C1B51691  40.636  44.032   6.453
 9017POPC   C2B51692  40.662  44.081   6.753
 9017POPC   C3B51693  40.624  44.110   7.053
 9017POPC   C4B51694  40.644  44.120   7.353
 9018POPC   NC351695   3.519  21.421   5.553
 9018POPC   PO451696   3.573  21.428   5.853
 9018POPC   GL151697   3.541  21.420   6.153
 9018POPC   GL251698   3.475  21.278   6.153
 9018POPC   C1A51699   3.576  21.424   6.453
 9018POPC   D2A51700   3.501  21.390   6.753
 9018POPC   C3A51701   3.555  21.354   7.053
 9018POPC   C4A51702   3.542  21.415   7.353
 9018POPC   C1B51703   3.450  21.210   6.453
 9018POPC   C2B51704   3.384  21.164   6.753
 9018POPC   C3B51705   3.442  21.148   7.053
 9018POPC   C4B51706   3.396  21.158   7.353
 9019POPC   NC351707  42.321  43.144   5.553
 9019POPC   PO451708  42.353  43.109   5.853
 9019POPC   GL151709  42.375  43.099   6.153
 9019POPC   GL251710  42.465  43.219   6.153
 9019POPC   C1A51711  42.371  43.073   6.453
 9019POPC   D2A51712  42.294  43.120   6.753
 9019POPC   C3A51713  42.377  43.122   7.053
 9019POPC   C4A51714  42.349  43.120   7.353
 9019POPC   C1B51715  42.557  43.247   6.453
 9019POPC   C2B51716  42.532  43.239   6.753
 9019POPC   C3B51717  42.569  43.310   7.053
 9019POPC   C4B51718  42.513  43.277   7.353
 9020POPC   NC351719  35.305   2.014   5.553
 9020POPC   PO451720  35.342   1.950   5.853
 9020POPC   GL151721  35.339   2.022   6.153
 9020POPC   GL251722  35.304   2.160   6.153
 9020POPC   C1A51723  35.384   2.035   6.453
 9020POPC   D2A51724  35.365   2.015   6.753
 9020POPC   C3A51725  35.324   1.963   7.053
 9020POPC   C4A51726  35.349   2.025   7.353
 9020POPC   C1B51727  35.299   2.232   6.453
 9020POPC   C2B51728  35.369   2.243   6.753
 9020POPC   C3B51729  35.285   2.216   7.053
 9020POPC   C4B51730  35.298   2.260   7.353
 9021POPC   NC351731  36.171   0.399   5.553
 9021POPC   PO451732  36.117   0.457   5.853
 9021POPC   GL151733  36.088   0.464   6.153
 9021POPC   GL251734  36.095   0.608   6.153
 9021POPC   C1A51735  36.155   0.392   6.453
 9021POPC   D2A51736  36.081   0.483   6.753
 9021POPC   C3A51737  36.122   0.440   7.053
 9021POPC   C4A51738  36.092   0.462   7.353
 9021POPC   C1B51739  36.152   0.722   6.453
 9021POPC   C2B51740  36.160   0.689   6.753
 9021POPC   C3B51741  36.108   0.706   7.053
 9021POPC   C4B51742  36.175   0.670   7.353
 9022POPC   NC351743  26.064  40.806   5.553
 9022POPC   PO451744  26.050  40.814   5.853
 9022POPC   GL151745  26.060  40.748   6.153
 9022POPC   GL251746  26.054  40.879   6.153
 9022POPC   C1A51747  25.994  40.795   6.453
 9022POPC   D2A51748  26.076  40.797   6.753
 9022POPC   C3A51749  26.011  40.827   7.053
 9022POPC   C4A51750  26.025  40.752   7.353
 9022POPC   C1B51751  26.085  41.006   6.453
 9022POPC   C2B51752  26.124  40.979   6.753
 9022POPC   C3B51753  26.104  41.016   7.053
 9022POPC   C4B51754  26.038  41.047   7.353
 9023POPC   NC351755  27.596  37.716   5.553
 9023POPC   PO451756  27.557  37.721   5.853
 9023POPC   GL151757  27.589  37.686   6.153
 9023POPC   GL251758  27.657  37.531   6.153
 9023POPC   C1A51759  27.570  37.671   6.453
 9023POPC   D2A51760  27.560  37.679   6.753
 9023POPC   C3A51761  27.636  37.631   7.053
 9023POPC   C4A51762  27.639  37.673   7.353
 9023POPC   C1B51763  27.677  37.394   6.453
 9023POPC   C2B51764  27.606  37.439   6.753
 9023POPC   C3B51765  27.634  37.448   7.053
 9023POPC   C4B51766  27.658  37.435   7.353
 9024POPC   NC351767  36.903   0.405   5.553
 9024POPC   PO451768  36.921   0.415   5.853
 9024POPC   GL151769  36.927   0.413   6.153
 9024POPC   GL251770  36.901   0.365   6.153
 9024POPC   C1A51771  36.857   0.417   6.453
 9024POPC   D2A51772  36.920   0.481   6.753
 9024POPC   C3A51773  36.886   0.469   7.053
 9024POPC   C4A51774  36.867   0.453   7.353
 9024POPC   C1B51775  36.957   0.159   6.453
 9024POPC   C2B51776  37.002   0.160   6.753
 9024POPC   C3B51777  37.034   0.178   7.053
 9024POPC   C4B51778  36.995   0.213   7.353
 9025POPC   NC351779  39.273  11.342   5.553
 9025POPC   PO451780  39.228  11.261   5.853
 9025POPC   GL151781  39.248  11.270   6.153
 9025POPC   GL251782  39.185  11.134   6.153
 9025POPC   C1A51783  39.239  11.294   6.453
 9025POPC   D2A51784  39.256  11.257   6.753
 9025POPC   C3A51785  39.249  11.320   7.053
 9025POPC   C4A51786  39.190  11.254   7.353
 9025POPC   C1B51787  39.113  11.085   6.453
 9025POPC   C2B51788  39.199  11.058   6.753
 9025POPC   C3B51789  39.162  11.023   7.053
 9025POPC   C4B51790  39.109  11.074   7.353
 9026POPC   NC351791   4.290  12.809   5.553
 9026POPC   PO451792   4.318  12.839   5.853
 9026POPC   GL151793   4.322  12.826   6.153
 9026POPC   GL251794   4.305  12.723   6.153
 9026POPC   C1A51795   4.365  12.849   6.453
 9026POPC   D2A51796   4.311  12.896   6.753
 9026POPC   C3A51797   4.346  12.871   7.053
 9026POPC   C4A51798   4.340  12.851   7.353
 9026POPC   C1B51799   4.191  12.600   6.453
 9026POPC   C2B51800   4.225  12.637   6.753
 9026POPC   C3B51801   4.206  12.653   7.053
 9026POPC   C4B51802   4.241  12.657   7.353
 9027POPC   NC351803  14.445  24.538   5.553
 9027POPC   PO451804  14.368  24.465   5.853
 9027POPC   GL151805  14.361  24.490   6.153
 9027POPC   GL251806  14.397  24.352   6.153
 9027POPC   C1A51807  14.372  24.465   6.453
 9027POPC   D2A51808  14.355  24.463   6.753
 9027POPC   C3A51809  14.418  24.532   7.053
 9027POPC   C4A51810  14.366  24.464   7.353
 9027POPC   C1B51811  14.341  24.232   6.453
 9027POPC   C2B51812  14.371  24.240   6.753
 9027POPC   C3B51813  14.340  24.263   7.053
 9027POPC   C4B51814  14.371  24.213   7.353
 9028POPC   NC351815  10.557  35.371   5.553
 9028POPC   PO451816  10.497  35.361   5.853
 9028POPC   GL151817  10.537  35.309   6.153
 9028POPC   GL251818  10.648  35.205   6.153
 9028POPC   C1A51819  10.481  35.335   6.453
 9028POPC   D2A51820  10.481  35.393   6.753
 9028POPC   C3A51821  10.544  35.349   7.053
 9028POPC   C4A51822  10.554  35.383   7.353
 9028POPC   C1B51823  10.671  35.123   6.453
 9028POPC   C2B51824  10.636  35.110   6.753
 9028POPC   C3B51825  10.631  35.109   7.053
 9028POPC   C4B51826  10.666  35.165   7.353
 9029POPC   NC351827  18.296   8.940   5.553
 9029POPC   PO451828  18.246   9.017   5.853
 9029POPC   GL151829  18.247   8.951   6.153
 9029POPC   GL251830  18.214   9.052   6.153
 9029POPC   C1A51831  18.244   9.018   6.453
 9029POPC   D2A51832  18.241   9.009   6.753
 9029POPC   C3A51833  18.268   8.970   7.053
 9029POPC   C4A51834  18.247   8.980   7.353
 9029POPC   C1B51835  18.121   9.142   6.453
 9029POPC   C2B51836  18.095   9.099   6.753
 9029POPC   C3B51837  18.058   9.103   7.053
 9029POPC   C4B51838  18.142   9.166   7.353
 9030POPC   NC351839   7.425  31.429   5.553
 9030POPC   PO451840   7.412  31.453   5.853
 9030POPC   GL151841   7.435  31.489   6.153
 9030POPC   GL251842   7.494  31.594   6.153
 9030POPC   C1A51843   7.389  31.457   6.453
 9030POPC   D2A51844   7.420  31.492   6.753
 9030POPC   C3A51845   7.440  31.486   7.053
 9030POPC   C4A51846   7.409  31.445   7.353
 9030POPC   C1B51847   7.438  31.725   6.453
 9030POPC   C2B51848   7.444  31.666   6.753
 9030POPC   C3B51849   7.510  31.759   7.053
 9030POPC   C4B51850   7.452  31.752   7.353
 9031POPC   NC351851  31.443  12.124   5.553
 9031POPC   PO451852  31.483  12.108   5.853
 9031POPC   GL151853  31.497  12.027   6.153
 9031POPC   GL251854  31.503  12.207   6.153
 9031POPC   C1A51855  31.483  12.103   6.453
 9031POPC   D2A51856  31.452  12.057   6.753
 9031POPC   C3A51857  31.444  12.103   7.053
 9031POPC   C4A51858  31.465  12.068   7.353
 9031POPC   C1B51859  31.452  12.312   6.453
 9031POPC   C2B51860  31.443  12.298   6.753
 9031POPC   C3B51861  31.486  12.316   7.053
 9031POPC   C4B51862  31.475  12.334   7.353
 9032POPC   NC351863  31.433  37.639   5.553
 9032POPC   PO451864  31.457  37.649   5.853
 9032POPC   GL151865  31.440  37.650   6.153
 9032POPC   GL251866  31.544  37.608   6.153
 9032POPC   C1A51867  31.518  37.675   6.453
 9032POPC   D2A51868  31.423  37.723   6.753
 9032POPC   C3A51869  31.496  37.671   7.053
 9032POPC   C4A51870  31.487  37.664   7.353
 9032POPC   C1B51871  31.675  37.513   6.453
 9032POPC   C2B51872  31.627  37.507   6.753
 9032POPC   C3B51873  31.624  37.484   7.053
 9032POPC   C4B51874  31.628  37.487   7.353
 9033POPC   NC351875   8.951  21.384   5.553
 9033POPC   PO451876   9.016  21.389   5.853
 9033POPC   GL151877   8.935  21.402   6.153
 9033POPC   GL251878   8.817  21.359   6.153
 9033POPC   C1A51879   8.976  21.427   6.453
 9033POPC   D2A51880   8.924  21.339   6.753
 9033POPC   C3A51881   9.007  21.348   7.053
 9033POPC   C4A51882   8.923  21.374   7.353
 9033POPC   C1B51883   8.770  21.251   6.453
 9033POPC   C2B51884   8.797  21.225   6.753
 9033POPC   C3B51885   8.770  21.281   7.053
 9033POPC   C4B51886   8.790  21.242   7.353
 9034POPC   NC351887   2.720  36.922   5.553
 9034POPC   PO451888   2.766  36.903   5.853
 9034POPC   GL151889   2.761  36.940   6.153
 9034POPC   GL251890   2.604  36.905   6.153
 9034POPC   C1A51891   2.754  36.941   6.453
 9034POPC   D2A51892   2.803  36.910   6.753
 9034POPC   C3A51893   2.769  36.902   7.053
 9034POPC   C4A51894   2.778  36.874   7.353
 9034POPC   C1B51895   2.522  36.960   6.453
 9034POPC   C2B51896   2.544  36.993   6.753
 9034POPC   C3B51897   2.557  36.963   7.053
 9034POPC   C4B51898   2.491  37.010   7.353
 9035POPC   NC351899  25.254  37.633   5.553
 9035POPC   PO451900  25.227  37.649   5.853
 9035POPC   GL151901  25.225  37.713   6.153
 9035POPC   GL251902  25.302  37.815   6.153
 9035POPC   C1A51903  25.286  37.677   6.453
 9035POPC   D2A51904  25.248  37.631   6.753
 9035POPC   C3A51905  25.229  37.666   7.053
 9035POPC   C4A51906  25.295  37.684   7.353
 9035POPC   C1B51907  25.418  37.910   6.453
 9035POPC   C2B51908  25.394  37.941   6.753
 9035POPC   C3B51909  25.415  37.899   7.053
 9035POPC   C4B51910  25.420  37.936   7.353
 9036POPC   NC351911  40.744   9.758   5.553
 9036POPC   PO451912  40.774   9.774   5.853
 9036POPC   GL151913  40.796   9.706   6.153
 9036POPC   GL251914  40.768   9.908   6.153
 9036POPC   C1A51915  40.813   9.704   6.453
 9036POPC   D2A51916  40.776   9.702   6.753
 9036POPC   C3A51917  40.823   9.781   7.053
 9036POPC   C4A51918  40.822   9.736   7.353
 9036POPC   C1B51919  40.697   9.989   6.453
 9036POPC   C2B51920  40.728  10.021   6.753
 9036POPC   C3B51921  40.657  10.025   7.053
 9036POPC   C4B51922  40.662   9.994   7.353
 9037POPC   NC351923   6.649  20.633   5.553
 9037POPC   PO451924   6.636  20.571   5.853
 9037POPC   GL151925   6.653  20.600   6.153
 9037POPC   GL251926   6.708  20.692   6.153
 9037POPC   C1A51927   6.598  20.570   6.453
 9037POPC   D2A51928   6.682  20.633   6.753
 9037POPC   C3A51929   6.679  20.574   7.053
 9037POPC   C4A51930   6.631  20.573   7.353
 9037POPC   C1B51931   6.778  20.788   6.453
 9037POPC   C2B51932   6.779  20.849   6.753
 9037POPC   C3B51933   6.786  20.844   7.053
 9037POPC   C4B51934   6.736  20.809   7.353
 9038POPC   NC351935  29.958  15.933   5.553
 9038POPC   PO451936  29.908  15.994   5.853
 9038POPC   GL151937  29.883  15.909   6.153
 9038POPC   GL251938  30.079  15.879   6.153
 9038POPC   C1A51939  29.881  15.985   6.453
 9038POPC   D2A51940  29.931  15.914   6.753
 9038POPC   C3A51941  29.886  15.921   7.053
 9038POPC   C4A51942  29.911  15.915   7.353
 9038POPC   C1B51943  30.115  15.877   6.453
 9038POPC   C2B51944  30.199  15.903   6.753
 9038POPC   C3B51945  30.168  15.901   7.053
 9038POPC   C4B51946  30.146  15.856   7.353
 9039POPC   NC351947  27.554  18.299   5.553
 9039POPC   PO451948  27.614  18.257   5.853
 9039POPC   GL151949  27.623  18.264   6.153
 9039POPC   GL251950  27.754  18.207   6.153
 9039POPC   C1A51951  27.592  18.282   6.453
 9039POPC   D2A51952  27.629  18.289   6.753
 9039POPC   C3A51953  27.564  18.286   7.053
 9039POPC   C4A51954  27.550  18.316   7.353
 9039POPC   C1B51955  27.842  18.155   6.453
 9039POPC   C2B51956  27.802  18.250   6.753
 9039POPC   C3B51957  27.828  18.156   7.053
 9039POPC   C4B51958  27.837  18.180   7.353
 9040POPC   NC351959  26.002  21.420   5.553
 9040POPC   PO451960  26.066  21.373   5.853
 9040POPC   GL151961  26.087  21.360   6.153
 9040POPC   GL251962  25.903  21.442   6.153
 9040POPC   C1A51963  26.065  21.339   6.453
 9040POPC   D2A51964  26.029  21.365   6.753
 9040POPC   C3A51965  26.060  21.351   7.053
 9040POPC   C4A51966  26.006  21.421   7.353
 9040POPC   C1B51967  25.846  21.514   6.453
 9040POPC   C2B51968  25.798  21.504   6.753
 9040POPC   C3B51969  25.841  21.564   7.053
 9040POPC   C4B51970  25.872  21.518   7.353
 9041POPC   NC351971  15.156   1.172   5.553
 9041POPC   PO451972  15.138   1.192   5.853
 9041POPC   GL151973  15.145   1.257   6.153
 9041POPC   GL251974  15.264   1.379   6.153
 9041POPC   C1A51975  15.153   1.218   6.453
 9041POPC   D2A51976  15.164   1.263   6.753
 9041POPC   C3A51977  15.191   1.244   7.053
 9041POPC   C4A51978  15.226   1.237   7.353
 9041POPC   C1B51979  15.237   1.412   6.453
 9041POPC   C2B51980  15.248   1.442   6.753
 9041POPC   C3B51981  15.290   1.491   7.053
 9041POPC   C4B51982  15.269   1.480   7.353
 9042POPC   NC351983  10.517  24.448   5.553
 9042POPC   PO451984  10.495  24.474   5.853
 9042POPC   GL151985  10.531  24.448   6.153
 9042POPC   GL251986  10.669  24.541   6.153
 9042POPC   C1A51987  10.481  24.507   6.453
 9042POPC   D2A51988  10.483  24.486   6.753
 9042POPC   C3A51989  10.533  24.540   7.053
 9042POPC   C4A51990  10.571  24.535   7.353
 9042POPC   C1B51991  10.815  24.516   6.453
 9042POPC   C2B51992  10.735  24.550   6.753
 9042POPC   C3B51993  10.741  24.488   7.053
 9042POPC   C4B51994  10.745  24.505   7.353
 9043POPC   NC351995  38.437   7.431   5.553
 9043POPC   PO451996  38.465   7.428   5.853
 9043POPC   GL151997  38.475   7.410   6.153
 9043POPC   GL251998  38.612   7.406   6.153
 9043POPC   C1A51999  38.415   7.397   6.453
 9043POPC   D2A52000  38.484   7.455   6.753
 9043POPC   C3A52001  38.472   7.444   7.053
 9043POPC   C4A52002  38.451   7.449   7.353
 9043POPC   C1B52003  38.627   7.299   6.453
 9043POPC   C2B52004  38.632   7.269   6.753
 9043POPC   C3B52005  38.644   7.264   7.053
 9043POPC   C4B52006  38.702   7.331   7.353
 9044POPC   NC352007  34.577  12.870   5.553
 9044POPC   PO452008  34.550  12.840   5.853
 9044POPC   GL152009  34.549  12.868   6.153
 9044POPC   GL252010  34.542  12.687   6.153
 9044POPC   C1A52011  34.546  12.893   6.453
 9044POPC   D2A52012  34.543  12.893   6.753
 9044POPC   C3A52013  34.599  12.840   7.053
 9044POPC   C4A52014  34.625  12.858   7.353
 9044POPC   C1B52015  34.544  12.656   6.453
 9044POPC   C2B52016  34.550  12.600   6.753
 9044POPC   C3B52017  34.507  12.621   7.053
 9044POPC   C4B52018  34.507  12.602   7.353
 9045POPC   NC352019  43.077  15.133   5.553
 9045POPC   PO452020  43.091  15.174   5.853
 9045POPC   GL152021  43.127  15.212   6.153
 9045POPC   GL252022  43.066  15.069   6.153
 9045POPC   C1A52023  43.061  15.214   6.453
 9045POPC   D2A52024  43.132  15.130   6.753
 9045POPC   C3A52025  43.065  15.173   7.053
 9045POPC   C4A52026  43.112  15.207   7.353
 9045POPC   C1B52027  42.974  14.926   6.453
 9045POPC   C2B52028  43.007  14.957   6.753
 9045POPC   C3B52029  43.020  14.913   7.053
 9045POPC   C4B52030  43.040  14.908   7.353
 9046POPC   NC352031  29.911   2.033   5.553
 9046POPC   PO452032  29.932   1.951   5.853
 9046POPC   GL152033  29.888   2.038   6.153
 9046POPC   GL252034  30.027   2.031   6.153
 9046POPC   C1A52035  29.894   2.000   6.453
 9046POPC   D2A52036  29.945   1.948   6.753
 9046POPC   C3A52037  29.891   1.943   7.053
 9046POPC   C4A52038  29.878   1.957   7.353
 9046POPC   C1B52039  30.126   2.064   6.453
 9046POPC   C2B52040  30.185   2.056   6.753
 9046POPC   C3B52041  30.189   2.021   7.053
 9046POPC   C4B52042  30.201   2.038   7.353
 9047POPC   NC352043  44.651   8.950   5.553
 9047POPC   PO452044  44.651   9.008   5.853
 9047POPC   GL152045  44.626   9.014   6.153
 9047POPC   GL252046  44.573   8.973   6.153
 9047POPC   C1A52047  44.698   8.961   6.453
 9047POPC   D2A52048  44.660   8.934   6.753
 9047POPC   C3A52049  44.665   8.978   7.053
 9047POPC   C4A52050  44.704   8.939   7.353
 9047POPC   C1B52051  44.392   8.928   6.453
 9047POPC   C2B52052  44.387   8.943   6.753
 9047POPC   C3B52053  44.402   8.933   7.053
 9047POPC   C4B52054  44.432   8.902   7.353
 9048POPC   NC352055   9.716  32.268   5.553
 9048POPC   PO452056   9.768  32.205   5.853
 9048POPC   GL152057   9.772  32.271   6.153
 9048POPC   GL252058   9.759  32.080   6.153
 9048POPC   C1A52059   9.777  32.244   6.453
 9048POPC   D2A52060   9.739  32.218   6.753
 9048POPC   C3A52061   9.701  32.261   7.053
 9048POPC   C4A52062   9.743  32.218   7.353
 9048POPC   C1B52063   9.639  31.973   6.453
 9048POPC   C2B52064   9.725  31.996   6.753
 9048POPC   C3B52065   9.644  32.058   7.053
 9048POPC   C4B52066   9.672  31.974   7.353
 9049POPC   NC352067   3.584  40.821   5.553
 9049POPC   PO452068   3.564  40.817   5.853
 9049POPC   GL152069   3.551  40.789   6.153
 9049POPC   GL252070   3.599  40.891   6.153
 9049POPC   C1A52071   3.549  40.775   6.453
 9049POPC   D2A52072   3.558  40.764   6.753
 9049POPC   C3A52073   3.559  40.796   7.053
 9049POPC   C4A52074   3.546  40.792   7.353
 9049POPC   C1B52075   3.607  41.023   6.453
 9049POPC   C2B52076   3.568  41.029   6.753
 9049POPC   C3B52077   3.561  40.999   7.053
 9049POPC   C4B52078   3.585  40.991   7.353
 9050POPC   NC352079  29.101  43.160   5.553
 9050POPC   PO452080  29.107  43.085   5.853
 9050POPC   GL152081  29.143  43.142   6.153
 9050POPC   GL252082  29.140  42.955   6.153
 9050POPC   C1A52083  29.125  43.106   6.453
 9050POPC   D2A52084  29.194  43.079   6.753
 9050POPC   C3A52085  29.172  43.077   7.053
 9050POPC   C4A52086  29.163  43.142   7.353
 9050POPC   C1B52087  29.136  42.853   6.453
 9050POPC   C2B52088  29.186  42.866   6.753
 9050POPC   C3B52089  29.207  42.828   7.053
 9050POPC   C4B52090  29.195  42.839   7.353
 9051POPC   NC352091  44.652  24.489   5.553
 9051POPC   PO452092  44.631  24.475   5.853
 9051POPC   GL152093  44.616  24.466   6.153
 9051POPC   GL252094  44.633  24.338   6.153
 9051POPC   C1A52095  44.665  24.443   6.453
 9051POPC   D2A52096  44.659  24.488   6.753
 9051POPC   C3A52097  44.653  24.467   7.053
 9051POPC   C4A52098  44.669  24.451   7.353
 9051POPC   C1B52099  44.578  24.248   6.453
 9051POPC   C2B52100  44.555  24.273   6.753
 9051POPC   C3B52101  44.594  24.267   7.053
 9051POPC   C4B52102  44.547  24.249   7.353
 9052POPC   NC352103  17.542  40.016   5.553
 9052POPC   PO452104  17.499  39.984   5.853
 9052POPC   GL152105  17.457  39.960   6.153
 9052POPC   GL252106  17.430  39.936   6.153
 9052POPC   C1A52107  17.482  39.991   6.453
 9052POPC   D2A52108  17.470  40.006   6.753
 9052POPC   C3A52109  17.537  39.998   7.053
 9052POPC   C4A52110  17.473  40.016   7.353
 9052POPC   C1B52111  17.274  39.901   6.453
 9052POPC   C2B52112  17.285  39.887   6.753
 9052POPC   C3B52113  17.289  39.835   7.053
 9052POPC   C4B52114  17.274  39.848   7.353
 9053POPC   NC352115   5.051  22.181   5.553
 9053POPC   PO452116   5.095  22.182   5.853
 9053POPC   GL152117   5.126  22.142   6.153
 9053POPC   GL252118   5.047  22.086   6.153
 9053POPC   C1A52119   5.090  22.160   6.453
 9053POPC   D2A52120   5.084  22.187   6.753
 9053POPC   C3A52121   5.051  22.158   7.053
 9053POPC   C4A52122   5.081  22.138   7.353
 9053POPC   C1B52123   5.053  21.865   6.453
 9053POPC   C2B52124   5.041  21.922   6.753
 9053POPC   C3B52125   5.054  21.924   7.053
 9053POPC   C4B52126   5.097  21.939   7.353
 9054POPC   NC352127  36.125  36.098   5.553
 9054POPC   PO452128  36.136  36.170   5.853
 9054POPC   GL152129  36.129  36.113   6.153
 9054POPC   GL252130  36.248  36.072   6.153
 9054POPC   C1A52131  36.111  36.126   6.453
 9054POPC   D2A52132  36.139  36.131   6.753
 9054POPC   C3A52133  36.104  36.149   7.053
 9054POPC   C4A52134  36.148  36.157   7.353
 9054POPC   C1B52135  36.245  35.968   6.453
 9054POPC   C2B52136  36.243  35.875   6.753
 9054POPC   C3B52137  36.230  35.937   7.053
 9054POPC   C4B52138  36.244  35.970   7.353
 9055POPC   NC352139  33.799  33.009   5.553
 9055POPC   PO452140  33.806  33.066   5.853
 9055POPC   GL152141  33.786  33.009   6.153
 9055POPC   GL252142  33.785  33.125   6.153
 9055POPC   C1A52143  33.771  32.995   6.453
 9055POPC   D2A52144  33.846  32.997   6.753
 9055POPC   C3A52145  33.850  33.030   7.053
 9055POPC   C4A52146  33.797  33.026   7.353
 9055POPC   C1B52147  33.776  33.262   6.453
 9055POPC   C2B52148  33.846  33.266   6.753
 9055POPC   C3B52149  33.778  33.289   7.053
 9055POPC   C4B52150  33.809  33.297   7.353
 9056POPC   NC352151  34.572  18.329   5.553
 9056POPC   PO452152  34.625  18.257   5.853
 9056POPC   GL152153  34.625  18.329   6.153
 9056POPC   GL252154  34.659  18.260   6.153
 9056POPC   C1A52155  34.565  18.234   6.453
 9056POPC   D2A52156  34.592  18.252   6.753
 9056POPC   C3A52157  34.530  18.297   7.053
 9056POPC   C4A52158  34.561  18.246   7.353
 9056POPC   C1B52159  34.776  18.342   6.453
 9056POPC   C2B52160  34.849  18.351   6.753
 9056POPC   C3B52161  34.823  18.365   7.053
 9056POPC   C4B52162  34.805  18.337   7.353
 9057POPC   NC352163  22.174  39.242   5.553
 9057POPC   PO452164  22.184  39.273   5.853
 9057POPC   GL152165  22.176  39.261   6.153
 9057POPC   GL252166  22.306  39.194   6.153
 9057POPC   C1A52167  22.185  39.274   6.453
 9057POPC   D2A52168  22.142  39.210   6.753
 9057POPC   C3A52169  22.138  39.269   7.053
 9057POPC   C4A52170  22.139  39.260   7.353
 9057POPC   C1B52171  22.406  39.128   6.453
 9057POPC   C2B52172  22.367  39.155   6.753
 9057POPC   C3B52173  22.405  39.165   7.053
 9057POPC   C4B52174  22.351  39.119   7.353
 9058POPC   NC352175  30.673  36.929   5.553
 9058POPC   PO452176  30.657  36.862   5.853
 9058POPC   GL152177  30.703  36.869   6.153
 9058POPC   GL252178  30.653  37.049   6.153
 9058POPC   C1A52179  30.685  36.854   6.453
 9058POPC   D2A52180  30.658  36.895   6.753
 9058POPC   C3A52181  30.716  36.940   7.053
 9058POPC   C4A52182  30.711  36.936   7.353
 9058POPC   C1B52183  30.637  37.115   6.453
 9058POPC   C2B52184  30.589  37.175   6.753
 9058POPC   C3B52185  30.668  37.100   7.053
 9058POPC   C4B52186  30.658  37.165   7.353
 9059POPC   NC352187   3.505  36.157   5.553
 9059POPC   PO452188   3.548  36.087   5.853
 9059POPC   GL152189   3.519  36.103   6.153
 9059POPC   GL252190   3.632  36.049   6.153
 9059POPC   C1A52191   3.492  36.140   6.453
 9059POPC   D2A52192   3.512  36.086   6.753
 9059POPC   C3A52193   3.496  36.150   7.053
 9059POPC   C4A52194   3.578  36.154   7.353
 9059POPC   C1B52195   3.662  35.919   6.453
 9059POPC   C2B52196   3.622  35.911   6.753
 9059POPC   C3B52197   3.635  35.853   7.053
 9059POPC   C4B52198   3.671  35.876   7.353
 9060POPC   NC352199   9.011  43.110   5.553
 9060POPC   PO452200   8.940  43.143   5.853
 9060POPC   GL152201   9.010  43.064   6.153
 9060POPC   GL252202   8.969  43.261   6.153
 9060POPC   C1A52203   8.973  43.139   6.453
 9060POPC   D2A52204   8.987  43.083   6.753
 9060POPC   C3A52205   8.964  43.126   7.053
 9060POPC   C4A52206   8.949  43.154   7.353
 9060POPC   C1B52207   9.020  43.327   6.453
 9060POPC   C2B52208   9.043  43.384   6.753
 9060POPC   C3B52209   9.071  43.393   7.053
 9060POPC   C4B52210   8.997  43.359   7.353
 9061POPC   NC352211  43.129  44.690   5.553
 9061POPC   PO452212  43.129  44.704   5.853
 9061POPC   GL152213  43.149  44.659   6.153
 9061POPC   GL252214  43.169  44.737   6.153
 9061POPC   C1A52215  43.159  44.663   6.453
 9061POPC   D2A52216  43.117  44.646   6.753
 9061POPC   C3A52217  43.102  44.613   7.053
 9061POPC   C4A52218  43.100  44.629   7.353
 9061POPC   C1B52219  43.146  44.868   6.453
 9061POPC   C2B52220  43.108  44.951   6.753
 9061POPC   C3B52221  43.131  44.872   7.053
 9061POPC   C4B52222  43.161  44.940   7.353
 9062POPC   NC352223  35.306  36.868   5.553
 9062POPC   PO452224  35.313  36.937   5.853
 9062POPC   GL152225  35.344  36.860   6.153
 9062POPC   GL252226  35.462  36.921   6.153
 9062POPC   C1A52227  35.373  36.871   6.453
 9062POPC   D2A52228  35.352  36.932   6.753
 9062POPC   C3A52229  35.355  36.854   7.053
 9062POPC   C4A52230  35.384  36.870   7.353
 9062POPC   C1B52231  35.618  37.073   6.453
 9062POPC   C2B52232  35.540  37.056   6.753
 9062POPC   C3B52233  35.595  37.072   7.053
 9062POPC   C4B52234  35.592  37.043   7.353
 9063POPC   NC352235  29.884  39.993   5.553
 9063POPC   PO452236  29.933  39.972   5.853
 9063POPC   GL152237  29.882  39.990   6.153
 9063POPC   GL252238  30.007  39.887   6.153
 9063POPC   C1A52239  29.909  39.965   6.453
 9063POPC   D2A52240  29.965  40.028   6.753
 9063POPC   C3A52241  29.907  39.960   7.053
 9063POPC   C4A52242  29.916  39.975   7.353
 9063POPC   C1B52243  30.064  39.762   6.453
 9063POPC   C2B52244  30.060  39.798   6.753
 9063POPC   C3B52245  30.076  39.790   7.053
 9063POPC   C4B52246  30.069  39.815   7.353
 9064POPC   NC352247   5.844  38.443   5.553
 9064POPC   PO452248   5.875  38.460   5.853
 9064POPC   GL152249   5.852  38.428   6.153
 9064POPC   GL252250   5.820  38.602   6.153
 9064POPC   C1A52251   5.878  38.498   6.453
 9064POPC   D2A52252   5.890  38.505   6.753
 9064POPC   C3A52253   5.850  38.478   7.053
 9064POPC   C4A52254   5.840  38.422   7.353
 9064POPC   C1B52255   5.847  38.660   6.453
 9064POPC   C2B52256   5.761  38.705   6.753
 9064POPC   C3B52257   5.758  38.718   7.053
 9064POPC   C4B52258   5.835  38.666   7.353
 9065POPC   NC352259  43.086   3.590   5.553
 9065POPC   PO452260  43.134   3.538   5.853
 9065POPC   GL152261  43.097   3.588   6.153
 9065POPC   GL252262  43.024   3.612   6.153
 9065POPC   C1A52263  43.157   3.575   6.453
 9065POPC   D2A52264  43.135   3.556   6.753
 9065POPC   C3A52265  43.097   3.524   7.053
 9065POPC   C4A52266  43.084   3.501   7.353
 9065POPC   C1B52267  42.907   3.666   6.453
 9065POPC   C2B52268  42.905   3.624   6.753
 9065POPC   C3B52269  42.870   3.609   7.053
 9065POPC   C4B52270  42.875   3.589   7.353
 9066POPC   NC352271  37.666  38.472   5.553
 9066POPC   PO452272  37.682  38.478   5.853
 9066POPC   GL152273  37.706  38.500   6.153
 9066POPC   GL252274  37.539  38.511   6.153
 9066POPC   C1A52275  37.661  38.471   6.453
 9066POPC   D2A52276  37.632  38.428   6.753
 9066POPC   C3A52277  37.691  38.458   7.053
 9066POPC   C4A52278  37.662  38.452   7.353
 9066POPC   C1B52279  37.407  38.524   6.453
 9066POPC   C2B52280  37.419  38.509   6.753
 9066POPC   C3B52281  37.435  38.567   7.053
 9066POPC   C4B52282  37.477  38.575   7.353
 9067POPC   NC352283  32.268  25.275   5.553
 9067POPC   PO452284  32.250  25.244   5.853
 9067POPC   GL152285  32.269  25.294   6.153
 9067POPC   GL252286  32.210  25.131   6.153
 9067POPC   C1A52287  32.262  25.284   6.453
 9067POPC   D2A52288  32.241  25.311   6.753
 9067POPC   C3A52289  32.281  25.260   7.053
 9067POPC   C4A52290  32.276  25.307   7.353
 9067POPC   C1B52291  32.162  25.049   6.453
 9067POPC   C2B52292  32.167  24.991   6.753
 9067POPC   C3B52293  32.190  25.029   7.053
 9067POPC   C4B52294  32.147  25.000   7.353
 9068POPC   NC352295  34.557  32.243   5.553
 9068POPC   PO452296  34.556  32.276   5.853
 9068POPC   GL152297  34.541  32.271   6.153
 9068POPC   GL252298  34.641  32.327   6.153
 9068POPC   C1A52299  34.579  32.273   6.453
 9068POPC   D2A52300  34.543  32.234   6.753
 9068POPC   C3A52301  34.553  32.270   7.053
 9068POPC   C4A52302  34.583  32.200   7.353
 9068POPC   C1B52303  34.737  32.386   6.453
 9068POPC   C2B52304  34.705  32.388   6.753
 9068POPC   C3B52305  34.721  32.478   7.053
 9068POPC   C4B52306  34.725  32.408   7.353
 9069POPC   NC352307  27.625  40.041   5.553
 9069POPC   PO452308  27.555  40.039   5.853
 9069POPC   GL152309  27.544  39.988   6.153
 9069POPC   GL252310  27.630  40.109   6.153
 9069POPC   C1A52311  27.622  39.991   6.453
 9069POPC   D2A52312  27.599  39.996   6.753
 9069POPC   C3A52313  27.557  39.963   7.053
 9069POPC   C4A52314  27.626  39.972   7.353
 9069POPC   C1B52315  27.747  40.173   6.453
 9069POPC   C2B52316  27.807  40.207   6.753
 9069POPC   C3B52317  27.806  40.244   7.053
 9069POPC   C4B52318  27.713  40.215   7.353
 9070POPC   NC352319   7.376  39.195   5.553
 9070POPC   PO452320   7.428  39.201   5.853
 9070POPC   GL152321   7.391  39.229   6.153
 9070POPC   GL252322   7.496  39.256   6.153
 9070POPC   C1A52323   7.397  39.228   6.453
 9070POPC   D2A52324   7.400  39.192   6.753
 9070POPC   C3A52325   7.441  39.272   7.053
 9070POPC   C4A52326   7.414  39.235   7.353
 9070POPC   C1B52327   7.698  39.272   6.453
 9070POPC   C2B52328   7.708  39.266   6.753
 9070POPC   C3B52329   7.664  39.293   7.053
 9070POPC   C4B52330   7.656  39.246   7.353
 9071POPC   NC352331  22.136  40.036   5.553
 9071POPC   PO452332  22.136  39.975   5.853
 9071POPC   GL152333  22.160  40.044   6.153
 9071POPC   GL252334  22.237  39.970   6.153
 9071POPC   C1A52335  22.183  39.977   6.453
 9071POPC   D2A52336  22.200  39.981   6.753
 9071POPC   C3A52337  22.155  39.987   7.053
 9071POPC   C4A52338  22.155  40.011   7.353
 9071POPC   C1B52339  22.418  39.949   6.453
 9071POPC   C2B52340  22.458  39.948   6.753
 9071POPC   C3B52341  22.436  39.986   7.053
 9071POPC   C4B52342  22.363  39.995   7.353
 9072POPC   NC352343   3.568  40.046   5.553
 9072POPC   PO452344   3.548  39.990   5.853
 9072POPC   GL152345   3.563  40.015   6.153
 9072POPC   GL252346   3.391  39.992   6.153
 9072POPC   C1A52347   3.540  40.036   6.453
 9072POPC   D2A52348   3.536  40.050   6.753
 9072POPC   C3A52349   3.589  40.021   7.053
 9072POPC   C4A52350   3.519  40.045   7.353
 9072POPC   C1B52351   3.310  39.878   6.453
 9072POPC   C2B52352   3.302  39.865   6.753
 9072POPC   C3B52353   3.291  39.908   7.053
 9072POPC   C4B52354   3.316  39.918   7.353
 9073POPC   NC352355  39.960  22.127   5.553
 9073POPC   PO452356  40.047  22.147   5.853
 9073POPC   GL152357  40.054  22.157   6.153
 9073POPC   GL252358  40.065  22.113   6.153
 9073POPC   C1A52359  39.974  22.131   6.453
 9073POPC   D2A52360  39.978  22.157   6.753
 9073POPC   C3A52361  40.030  22.139   7.053
 9073POPC   C4A52362  39.961  22.207   7.353
 9073POPC   C1B52363  40.215  22.012   6.453
 9073POPC   C2B52364  40.160  22.020   6.753
 9073POPC   C3B52365  40.235  22.042   7.053
 9073POPC   C4B52366  40.202  21.975   7.353
 9074POPC   NC352367  38.438   0.390   5.553
 9074POPC   PO452368  38.429   0.447   5.853
 9074POPC   GL152369  38.443   0.388   6.153
 9074POPC   GL252370  38.346   0.354   6.153
 9074POPC   C1A52371  38.501   0.458   6.453
 9074POPC   D2A52372  38.462   0.422   6.753
 9074POPC   C3A52373  38.504   0.391   7.053
 9074POPC   C4A52374  38.492   0.486   7.353
 9074POPC   C1B52375  38.262   0.279   6.453
 9074POPC   C2B52376  38.268   0.229   6.753
 9074POPC   C3B52377  38.298   0.214   7.053
 9074POPC   C4B52378  38.253   0.274   7.353
 9075POPC   NC352379  29.940   5.901   5.553
 9075POPC   PO452380  29.890   5.917   5.853
 9075POPC   GL152381  29.947   5.918   6.153
 9075POPC   GL252382  29.857   5.968   6.153
 9075POPC   C1A52383  29.873   5.845   6.453
 9075POPC   D2A52384  29.882   5.904   6.753
 9075POPC   C3A52385  29.901   5.916   7.053
 9075POPC   C4A52386  29.926   5.854   7.353
 9075POPC   C1B52387  29.778   6.075   6.453
 9075POPC   C2B52388  29.804   6.104   6.753
 9075POPC   C3B52389  29.835   6.136   7.053
 9075POPC   C4B52390  29.846   6.073   7.353
 9076POPC   NC352391   8.240   8.194   5.553
 9076POPC   PO452392   8.152   8.200   5.853
 9076POPC   GL152393   8.199   8.154   6.153
 9076POPC   GL252394   8.065   8.222   6.153
 9076POPC   C1A52395   8.178   8.238   6.453
 9076POPC   D2A52396   8.192   8.226   6.753
 9076POPC   C3A52397   8.192   8.232   7.053
 9076POPC   C4A52398   8.221   8.153   7.353
 9076POPC   C1B52399   7.969   8.184   6.453
 9076POPC   C2B52400   7.920   8.182   6.753
 9076POPC   C3B52401   7.943   8.115   7.053
 9076POPC   C4B52402   7.983   8.121   7.353
 9077POPC   NC352403  40.735  22.122   5.553
 9077POPC   PO452404  40.778  22.164   5.853
 9077POPC   GL152405  40.824  22.138   6.153
 9077POPC   GL252406  40.699  22.132   6.153
 9077POPC   C1A52407  40.816  22.131   6.453
 9077POPC   D2A52408  40.763  22.157   6.753
 9077POPC   C3A52409  40.743  22.122   7.053
 9077POPC   C4A52410  40.784  22.147   7.353
 9077POPC   C1B52411  40.552  22.139   6.453
 9077POPC   C2B52412  40.553  22.092   6.753
 9077POPC   C3B52413  40.561  22.054   7.053
 9077POPC   C4B52414  40.582  22.129   7.353
 9078POPC   NC352415  36.160  26.853   5.553
 9078POPC   PO452416  36.141  26.864   5.853
 9078POPC   GL152417  36.108  26.856   6.153
 9078POPC   GL252418  36.189  26.957   6.153
 9078POPC   C1A52419  36.113  26.770   6.453
 9078POPC   D2A52420  36.162  26.846   6.753
 9078POPC   C3A52421  36.084  26.795   7.053
 9078POPC   C4A52422  36.174  26.785   7.353
 9078POPC   C1B52423  36.259  27.024   6.453
 9078POPC   C2B52424  36.258  27.026   6.753
 9078POPC   C3B52425  36.283  26.964   7.053
 9078POPC   C4B52426  36.318  27.024   7.353
 9079POPC   NC352427  19.051  42.316   5.553
 9079POPC   PO452428  19.034  42.298   5.853
 9079POPC   GL152429  19.098  42.327   6.153
 9079POPC   GL252430  19.092  42.447   6.153
 9079POPC   C1A52431  19.010  42.341   6.453
 9079POPC   D2A52432  19.027  42.293   6.753
 9079POPC   C3A52433  19.108  42.334   7.053
 9079POPC   C4A52434  19.023  42.367   7.353
 9079POPC   C1B52435  19.228  42.552   6.453
 9079POPC   C2B52436  19.189  42.513   6.753
 9079POPC   C3B52437  19.162  42.562   7.053
 9079POPC   C4B52438  19.150  42.538   7.353
 9080POPC   NC352439   0.414   8.157   5.553
 9080POPC   PO452440   0.429   8.195   5.853
 9080POPC   GL152441   0.404   8.228   6.153
 9080POPC   GL252442   0.447   8.125   6.153
 9080POPC   C1A52443   0.392   8.221   6.453
 9080POPC   D2A52444   0.406   8.163   6.753
 9080POPC   C3A52445   0.437   8.187   7.053
 9080POPC   C4A52446   0.390   8.201   7.353
 9080POPC   C1B52447   0.403   7.919   6.453
 9080POPC   C2B52448   0.329   7.950   6.753
 9080POPC   C3B52449   0.342   7.979   7.053
 9080POPC   C4B52450   0.328   7.953   7.353
 9081POPC   NC352451  23.755  41.580   5.553
 9081POPC   PO452452  23.739  41.601   5.853
 9081POPC   GL152453  23.676  41.515   6.153
 9081POPC   GL252454  23.579  41.605   6.153
 9081POPC   C1A52455  23.755  41.522   6.453
 9081POPC   D2A52456  23.665  41.530   6.753
 9081POPC   C3A52457  23.738  41.562   7.053
 9081POPC   C4A52458  23.731  41.589   7.353
 9081POPC   C1B52459  23.432  41.608   6.453
 9081POPC   C2B52460  23.463  41.612   6.753
 9081POPC   C3B52461  23.496  41.636   7.053
 9081POPC   C4B52462  23.483  41.653   7.353
 9082POPC   NC352463   8.234   9.758   5.553
 9082POPC   PO452464   8.242   9.753   5.853
 9082POPC   GL152465   8.204   9.715   6.153
 9082POPC   GL252466   8.207   9.824   6.153
 9082POPC   C1A52467   8.193   9.789   6.453
 9082POPC   D2A52468   8.221   9.752   6.753
 9082POPC   C3A52469   8.246   9.744   7.053
 9082POPC   C4A52470   8.165   9.700   7.353
 9082POPC   C1B52471   8.164  10.028   6.453
 9082POPC   C2B52472   8.157   9.978   6.753
 9082POPC   C3B52473   8.102  10.028   7.053
 9082POPC   C4B52474   8.156   9.966   7.353
 9083POPC   NC352475  29.130  20.580   5.553
 9083POPC   PO452476  29.156  20.632   5.853
 9083POPC   GL152477  29.171  20.613   6.153
 9083POPC   GL252478  29.267  20.526   6.153
 9083POPC   C1A52479  29.105  20.656   6.453
 9083POPC   D2A52480  29.181  20.628   6.753
 9083POPC   C3A52481  29.141  20.616   7.053
 9083POPC   C4A52482  29.184  20.595   7.353
 9083POPC   C1B52483  29.304  20.411   6.453
 9083POPC   C2B52484  29.314  20.393   6.753
 9083POPC   C3B52485  29.302  20.434   7.053
 9083POPC   C4B52486  29.352  20.417   7.353
 9084POPC   NC352487   8.972   9.010   5.553
 9084POPC   PO452488   9.003   8.925   5.853
 9084POPC   GL152489   8.955   8.935   6.153
 9084POPC   GL252490   8.917   8.925   6.153
 9084POPC   C1A52491   8.962   8.962   6.453
 9084POPC   D2A52492   8.984   9.001   6.753
 9084POPC   C3A52493   8.935   8.989   7.053
 9084POPC   C4A52494   8.950   8.996   7.353
 9084POPC   C1B52495   8.805   8.795   6.453
 9084POPC   C2B52496   8.804   8.827   6.753
 9084POPC   C3B52497   8.778   8.755   7.053
 9084POPC   C4B52498   8.808   8.783   7.353
 9085POPC   NC352499  29.168  26.012   5.553
 9085POPC   PO452500  29.170  26.030   5.853
 9085POPC   GL152501  29.128  26.062   6.153
 9085POPC   GL252502  29.022  26.078   6.153
 9085POPC   C1A52503  29.107  26.009   6.453
 9085POPC   D2A52504  29.167  26.077   6.753
 9085POPC   C3A52505  29.153  26.005   7.053
 9085POPC   C4A52506  29.118  26.037   7.353
 9085POPC   C1B52507  28.937  26.193   6.453
 9085POPC   C2B52508  28.877  26.136   6.753
 9085POPC   C3B52509  28.872  26.165   7.053
 9085POPC   C4B52510  28.930  26.141   7.353
 9086POPC   NC352511  27.582  39.201   5.553
 9086POPC   PO452512  27.643  39.196   5.853
 9086POPC   GL152513  27.563  39.233   6.153
 9086POPC   GL252514  27.667  39.384   6.153
 9086POPC   C1A52515  27.630  39.232   6.453
 9086POPC   D2A52516  27.618  39.274   6.753
 9086POPC   C3A52517  27.592  39.245   7.053
 9086POPC   C4A52518  27.612  39.246   7.353
 9086POPC   C1B52519  27.671  39.496   6.453
 9086POPC   C2B52520  27.680  39.492   6.753
 9086POPC   C3B52521  27.747  39.491   7.053
 9086POPC   C4B52522  27.741  39.404   7.353
 9087POPC   NC352523  36.928  25.285   5.553
 9087POPC   PO452524  36.860  25.241   5.853
 9087POPC   GL152525  36.918  25.235   6.153
 9087POPC   GL252526  36.914  25.140   6.153
 9087POPC   C1A52527  36.936  25.266   6.453
 9087POPC   D2A52528  36.886  25.253   6.753
 9087POPC   C3A52529  36.861  25.253   7.053
 9087POPC   C4A52530  36.944  25.282   7.353
 9087POPC   C1B52531  36.956  25.020   6.453
 9087POPC   C2B52532  36.961  25.048   6.753
 9087POPC   C3B52533  37.003  25.067   7.053
 9087POPC   C4B52534  37.001  24.994   7.353
 9088POPC   NC352535  16.767  19.878   5.553
 9088POPC   PO452536  16.708  19.789   5.853
 9088POPC   GL152537  16.702  19.851   6.153
 9088POPC   GL252538  16.852  19.908   6.153
 9088POPC   C1A52539  16.765  19.822   6.453
 9088POPC   D2A52540  16.688  19.821   6.753
 9088POPC   C3A52541  16.701  19.856   7.053
 9088POPC   C4A52542  16.690  19.788   7.353
 9088POPC   C1B52543  16.965  19.937   6.453
 9088POPC   C2B52544  16.975  19.880   6.753
 9088POPC   C3B52545  16.938  19.856   7.053
 9088POPC   C4B52546  16.992  19.893   7.353
 9089POPC   NC352547  33.849  25.268   5.553
 9089POPC   PO452548  33.761  25.228   5.853
 9089POPC   GL152549  33.811  25.264   6.153
 9089POPC   GL252550  33.917  25.234   6.153
 9089POPC   C1A52551  33.815  25.247   6.453
 9089POPC   D2A52552  33.789  25.281   6.753
 9089POPC   C3A52553  33.847  25.286   7.053
 9089POPC   C4A52554  33.784  25.238   7.353
 9089POPC   C1B52555  34.017  25.253   6.453
 9089POPC   C2B52556  34.066  25.255   6.753
 9089POPC   C3B52557  34.087  25.302   7.053
 9089POPC   C4B52558  34.026  25.217   7.353
 9090POPC   NC352559  31.506   3.564   5.553
 9090POPC   PO452560  31.479   3.514   5.853
 9090POPC   GL152561  31.429   3.585   6.153
 9090POPC   GL252562  31.365   3.614   6.153
 9090POPC   C1A52563  31.463   3.560   6.453
 9090POPC   D2A52564  31.456   3.555   6.753
 9090POPC   C3A52565  31.467   3.557   7.053
 9090POPC   C4A52566  31.475   3.500   7.353
 9090POPC   C1B52567  31.269   3.621   6.453
 9090POPC   C2B52568  31.241   3.638   6.753
 9090POPC   C3B52569  31.245   3.680   7.053
 9090POPC   C4B52570  31.281   3.633   7.353
 9091POPC   NC352571  43.081  12.082   5.553
 9091POPC   PO452572  43.100  12.068   5.853
 9091POPC   GL152573  43.064  12.085   6.153
 9091POPC   GL252574  43.032  12.156   6.153
 9091POPC   C1A52575  43.132  12.052   6.453
 9091POPC   D2A52576  43.103  12.104   6.753
 9091POPC   C3A52577  43.127  12.113   7.053
 9091POPC   C4A52578  43.135  12.094   7.353
 9091POPC   C1B52579  42.893  12.088   6.453
 9091POPC   C2B52580  42.830  12.135   6.753
 9091POPC   C3B52581  42.860  12.122   7.053
 9091POPC   C4B52582  42.854  12.135   7.353
 9092POPC   NC352583   8.229  11.329   5.553
 9092POPC   PO452584   8.246  11.265   5.853
 9092POPC   GL152585   8.181  11.288   6.153
 9092POPC   GL252586   8.287  11.407   6.153
 9092POPC   C1A52587   8.223  11.335   6.453
 9092POPC   D2A52588   8.228  11.323   6.753
 9092POPC   C3A52589   8.152  11.263   7.053
 9092POPC   C4A52590   8.179  11.349   7.353
 9092POPC   C1B52591   8.370  11.504   6.453
 9092POPC   C2B52592   8.333  11.448   6.753
 9092POPC   C3B52593   8.416  11.433   7.053
 9092POPC   C4B52594   8.349  11.512   7.353
 9093POPC   NC352595   3.575  42.301   5.553
 9093POPC   PO452596   3.566  42.370   5.853
 9093POPC   GL152597   3.581  42.302   6.153
 9093POPC   GL252598   3.497  42.441   6.153
 9093POPC   C1A52599   3.574  42.303   6.453
 9093POPC   D2A52600   3.557  42.310   6.753
 9093POPC   C3A52601   3.538  42.295   7.053
 9093POPC   C4A52602   3.590  42.301   7.353
 9093POPC   C1B52603   3.388  42.541   6.453
 9093POPC   C2B52604   3.401  42.512   6.753
 9093POPC   C3B52605   3.408  42.559   7.053
 9093POPC   C4B52606   3.441  42.492   7.353
 9094POPC   NC352607  12.094  12.077   5.553
 9094POPC   PO452608  12.039  12.117   5.853
 9094POPC   GL152609  12.098  12.035   6.153
 9094POPC   GL252610  11.990  12.094   6.153
 9094POPC   C1A52611  12.069  12.081   6.453
 9094POPC   D2A52612  12.044  12.075   6.753
 9094POPC   C3A52613  12.043  12.056   7.053
 9094POPC   C4A52614  12.049  12.117   7.353
 9094POPC   C1B52615  11.804  12.188   6.453
 9094POPC   C2B52616  11.864  12.229   6.753
 9094POPC   C3B52617  11.861  12.147   7.053
 9094POPC   C4B52618  11.870  12.212   7.353
 9095POPC   NC352619  21.429  43.063   5.553
 9095POPC   PO452620  21.361  43.147   5.853
 9095POPC   GL152621  21.350  43.065   6.153
 9095POPC   GL252622  21.481  43.157   6.153
 9095POPC   C1A52623  21.380  43.073   6.453
 9095POPC   D2A52624  21.372  43.079   6.753
 9095POPC   C3A52625  21.396  43.077   7.053
 9095POPC   C4A52626  21.379  43.152   7.353
 9095POPC   C1B52627  21.613  43.290   6.453
 9095POPC   C2B52628  21.600  43.233   6.753
 9095POPC   C3B52629  21.629  43.268   7.053
 9095POPC   C4B52630  21.598  43.284   7.353
 9096POPC   NC352631  24.451   2.010   5.553
 9096POPC   PO452632  24.510   1.954   5.853
 9096POPC   GL152633  24.448   1.949   6.153
 9096POPC   GL252634  24.536   2.144   6.153
 9096POPC   C1A52635  24.463   2.037   6.453
 9096POPC   D2A52636  24.510   1.974   6.753
 9096POPC   C3A52637  24.473   2.018   7.053
 9096POPC   C4A52638  24.525   2.006   7.353
 9096POPC   C1B52639  24.557   2.202   6.453
 9096POPC   C2B52640  24.556   2.191   6.753
 9096POPC   C3B52641  24.574   2.218   7.053
 9096POPC   C4B52642  24.568   2.240   7.353
 9097POPC   NC352643  29.908  44.701   5.553
 9097POPC   PO452644  29.918  44.706   5.853
 9097POPC   GL152645  29.966  44.675   6.153
 9097POPC   GL252646  29.975  44.511   6.153
 9097POPC   C1A52647  29.899  44.678   6.453
 9097POPC   D2A52648  29.967  44.696   6.753
 9097POPC   C3A52649  29.962  44.648   7.053
 9097POPC   C4A52650  29.874  44.634   7.353
 9097POPC   C1B52651  30.008  44.430   6.453
 9097POPC   C2B52652  30.093  44.463   6.753
 9097POPC   C3B52653  30.081  44.495   7.053
 9097POPC   C4B52654  30.059  44.498   7.353
 9098POPC   NC352655  18.272  39.232   5.553
 9098POPC   PO452656  18.252  39.268   5.853
 9098POPC   GL152657  18.307  39.263   6.153
 9098POPC   GL252658  18.349  39.342   6.153
 9098POPC   C1A52659  18.240  39.275   6.453
 9098POPC   D2A52660  18.313  39.244   6.753
 9098POPC   C3A52661  18.329  39.244   7.053
 9098POPC   C4A52662  18.269  39.194   7.353
 9098POPC   C1B52663  18.334  39.469   6.453
 9098POPC   C2B52664  18.370  39.461   6.753
 9098POPC   C3B52665  18.361  39.494   7.053
 9098POPC   C4B52666  18.353  39.518   7.353
 9099POPC   NC352667  39.187  21.403   5.553
 9099POPC   PO452668  39.236  21.415   5.853
 9099POPC   GL152669  39.244  21.435   6.153
 9099POPC   GL252670  39.205  21.212   6.153
 9099POPC   C1A52671  39.230  21.360   6.453
 9099POPC   D2A52672  39.260  21.432   6.753
 9099POPC   C3A52673  39.265  21.380   7.053
 9099POPC   C4A52674  39.251  21.369   7.353
 9099POPC   C1B52675  39.166  21.125   6.453
 9099POPC   C2B52676  39.249  21.097   6.753
 9099POPC   C3B52677  39.209  21.099   7.053
 9099POPC   C4B52678  39.172  21.101   7.353
 9100POPC   NC352679  12.873   9.737   5.553
 9100POPC   PO452680  12.858   9.725   5.853
 9100POPC   GL152681  12.897   9.790   6.153
 9100POPC   GL252682  12.793   9.872   6.153
 9100POPC   C1A52683  12.895   9.723   6.453
 9100POPC   D2A52684  12.850   9.748   6.753
 9100POPC   C3A52685  12.880   9.797   7.053
 9100POPC   C4A52686  12.845   9.769   7.353
 9100POPC   C1B52687  12.689   9.925   6.453
 9100POPC   C2B52688  12.736   9.936   6.753
 9100POPC   C3B52689  12.708   9.908   7.053
 9100POPC   C4B52690  12.697   9.900   7.353
 9101POPC   NC352691  22.926  10.558   5.553
 9101POPC   PO452692  22.915  10.493   5.853
 9101POPC   GL152693  22.930  10.536   6.153
 9101POPC   GL252694  22.980  10.431   6.153
 9101POPC   C1A52695  22.934  10.536   6.453
 9101POPC   D2A52696  22.956  10.571   6.753
 9101POPC   C3A52697  22.965  10.520   7.053
 9101POPC   C4A52698  22.939  10.477   7.353
 9101POPC   C1B52699  23.010  10.282   6.453
 9101POPC   C2B52700  22.994  10.254   6.753
 9101POPC   C3B52701  22.958  10.249   7.053
 9101POPC   C4B52702  23.012  10.278   7.353
 9102POPC   NC352703  26.865  21.339   5.553
 9102POPC   PO452704  26.797  21.424   5.853
 9102POPC   GL152705  26.851  21.436   6.153
 9102POPC   GL252706  26.899  21.389   6.153
 9102POPC   C1A52707  26.805  21.403   6.453
 9102POPC   D2A52708  26.790  21.346   6.753
 9102POPC   C3A52709  26.778  21.403   7.053
 9102POPC   C4A52710  26.814  21.366   7.353
 9102POPC   C1B52711  27.037  21.410   6.453
 9102POPC   C2B52712  27.101  21.407   6.753
 9102POPC   C3B52713  27.073  21.436   7.053
 9102POPC   C4B52714  27.074  21.449   7.353
 9103POPC   NC352715  33.847  27.603   5.553
 9103POPC   PO452716  33.812  27.577   5.853
 9103POPC   GL152717  33.769  27.556   6.153
 9103POPC   GL252718  33.640  27.603   6.153
 9103POPC   C1A52719  33.806  27.600   6.453
 9103POPC   D2A52720  33.790  27.583   6.753
 9103POPC   C3A52721  33.812  27.606   7.053
 9103POPC   C4A52722  33.836  27.619   7.353
 9103POPC   C1B52723  33.596  27.594   6.453
 9103POPC   C2B52724  33.576  27.560   6.753
 9103POPC   C3B52725  33.519  27.518   7.053
 9103POPC   C4B52726  33.522  27.574   7.353
 9104POPC   NC352727  12.115   9.702   5.553
 9104POPC   PO452728  12.042   9.739   5.853
 9104POPC   GL152729  12.093   9.741   6.153
 9104POPC   GL252730  12.174   9.725   6.153
 9104POPC   C1A52731  12.111   9.786   6.453
 9104POPC   D2A52732  12.052   9.714   6.753
 9104POPC   C3A52733  12.038   9.742   7.053
 9104POPC   C4A52734  12.055   9.790   7.353
 9104POPC   C1B52735  12.278   9.731   6.453
 9104POPC   C2B52736  12.275   9.702   6.753
 9104POPC   C3B52737  12.320   9.700   7.053
 9104POPC   C4B52738  12.350   9.726   7.353
 9105POPC   NC352739  22.178  19.023   5.553
 9105POPC   PO452740  22.127  19.016   5.853
 9105POPC   GL152741  22.184  19.058   6.153
 9105POPC   GL252742  22.289  19.169   6.153
 9105POPC   C1A52743  22.165  19.028   6.453
 9105POPC   D2A52744  22.157  19.011   6.753
 9105POPC   C3A52745  22.147  19.065   7.053
 9105POPC   C4A52746  22.116  19.041   7.353
 9105POPC   C1B52747  22.296  19.204   6.453
 9105POPC   C2B52748  22.305  19.237   6.753
 9105POPC   C3B52749  22.367  19.202   7.053
 9105POPC   C4B52750  22.341  19.218   7.353
 9106POPC   NC352751  21.337  29.158   5.553
 9106POPC   PO452752  21.412  29.141   5.853
 9106POPC   GL152753  21.373  29.099   6.153
 9106POPC   GL252754  21.428  29.084   6.153
 9106POPC   C1A52755  21.339  29.097   6.453
 9106POPC   D2A52756  21.411  29.153   6.753
 9106POPC   C3A52757  21.434  29.099   7.053
 9106POPC   C4A52758  21.394  29.121   7.353
 9106POPC   C1B52759  21.509  28.942   6.453
 9106POPC   C2B52760  21.509  28.941   6.753
 9106POPC   C3B52761  21.543  28.932   7.053
 9106POPC   C4B52762  21.517  28.912   7.353
 9107POPC   NC352763  26.075  43.130   5.553
 9107POPC   PO452764  26.075  43.155   5.853
 9107POPC   GL152765  26.076  43.086   6.153
 9107POPC   GL252766  25.915  43.061   6.153
 9107POPC   C1A52767  26.064  43.112   6.453
 9107POPC   D2A52768  26.008  43.147   6.753
 9107POPC   C3A52769  26.068  43.101   7.053
 9107POPC   C4A52770  26.036  43.115   7.353
 9107POPC   C1B52771  25.816  43.058   6.453
 9107POPC   C2B52772  25.781  43.027   6.753
 9107POPC   C3B52773  25.758  43.012   7.053
 9107POPC   C4B52774  25.815  43.002   7.353
 9108POPC   NC352775   2.745  38.500   5.553
 9108POPC   PO452776   2.754  38.417   5.853
 9108POPC   GL152777   2.717  38.485   6.153
 9108POPC   GL252778   2.763  38.322   6.153
 9108POPC   C1A52779   2.775  38.444   6.453
 9108POPC   D2A52780   2.718  38.426   6.753
 9108POPC   C3A52781   2.739  38.498   7.053
 9108POPC   C4A52782   2.770  38.417   7.353
 9108POPC   C1B52783   2.708  38.171   6.453
 9108POPC   C2B52784   2.702  38.233   6.753
 9108POPC   C3B52785   2.719  38.217   7.053
 9108POPC   C4B52786   2.707  38.221   7.353
 9109POPC   NC352787   7.413  24.512   5.553
 9109POPC   PO452788   7.447  24.523   5.853
 9109POPC   GL152789   7.420  24.533   6.153
 9109POPC   GL252790   7.289  24.463   6.153
 9109POPC   C1A52791   7.379  24.478   6.453
 9109POPC   D2A52792   7.429  24.458   6.753
 9109POPC   C3A52793   7.453  24.513   7.053
 9109POPC   C4A52794   7.410  24.529   7.353
 9109POPC   C1B52795   7.198  24.387   6.453
 9109POPC   C2B52796   7.195  24.328   6.753
 9109POPC   C3B52797   7.219  24.383   7.053
 9109POPC   C4B52798   7.241  24.316   7.353
 9110POPC   NC352799  38.476  36.116   5.553
 9110POPC   PO452800  38.502  36.124   5.853
 9110POPC   GL152801  38.423  36.100   6.153
 9110POPC   GL252802  38.417  36.262   6.153
 9110POPC   C1A52803  38.460  36.177   6.453
 9110POPC   D2A52804  38.441  36.161   6.753
 9110POPC   C3A52805  38.448  36.131   7.053
 9110POPC   C4A52806  38.413  36.139   7.353
 9110POPC   C1B52807  38.327  36.386   6.453
 9110POPC   C2B52808  38.405  36.385   6.753
 9110POPC   C3B52809  38.363  36.390   7.053
 9110POPC   C4B52810  38.321  36.336   7.353
 9111POPC   NC352811  26.833  36.855   5.553
 9111POPC   PO452812  26.780  36.938   5.853
 9111POPC   GL152813  26.775  36.897   6.153
 9111POPC   GL252814  26.937  36.890   6.153
 9111POPC   C1A52815  26.833  36.950   6.453
 9111POPC   D2A52816  26.824  36.882   6.753
 9111POPC   C3A52817  26.776  36.927   7.053
 9111POPC   C4A52818  26.784  36.854   7.353
 9111POPC   C1B52819  27.040  36.930   6.453
 9111POPC   C2B52820  27.061  36.919   6.753
 9111POPC   C3B52821  27.111  36.895   7.053
 9111POPC   C4B52822  27.079  36.899   7.353
 9112POPC   NC352823  12.103  39.966   5.553
 9112POPC   PO452824  12.037  40.024   5.853
 9112POPC   GL152825  12.046  40.027   6.153
 9112POPC   GL252826  12.079  40.108   6.153
 9112POPC   C1A52827  12.101  39.983   6.453
 9112POPC   D2A52828  12.104  40.039   6.753
 9112POPC   C3A52829  12.102  39.967   7.053
 9112POPC   C4A52830  12.122  39.981   7.353
 9112POPC   C1B52831  11.967  40.284   6.453
 9112POPC   C2B52832  11.974  40.254   6.753
 9112POPC   C3B52833  12.026  40.248   7.053
 9112POPC   C4B52834  11.946  40.208   7.353
 9113POPC   NC352835   7.418  22.130   5.553
 9113POPC   PO452836   7.383  22.120   5.853
 9113POPC   GL152837   7.428  22.203   6.153
 9113POPC   GL252838   7.450  22.074   6.153
 9113POPC   C1A52839   7.402  22.139   6.453
 9113POPC   D2A52840   7.402  22.162   6.753
 9113POPC   C3A52841   7.388  22.150   7.053
 9113POPC   C4A52842   7.394  22.164   7.353
 9113POPC   C1B52843   7.506  21.928   6.453
 9113POPC   C2B52844   7.507  21.891   6.753
 9113POPC   C3B52845   7.504  21.966   7.053
 9113POPC   C4B52846   7.535  21.898   7.353
 9114POPC   NC352847  11.258  32.261   5.553
 9114POPC   PO452848  11.345  32.226   5.853
 9114POPC   GL152849  11.257  32.279   6.153
 9114POPC   GL252850  11.151  32.255   6.153
 9114POPC   C1A52851  11.301  32.224   6.453
 9114POPC   D2A52852  11.336  32.293   6.753
 9114POPC   C3A52853  11.337  32.278   7.053
 9114POPC   C4A52854  11.306  32.273   7.353
 9114POPC   C1B52855  11.100  32.228   6.453
 9114POPC   C2B52856  11.057  32.296   6.753
 9114POPC   C3B52857  11.081  32.291   7.053
 9114POPC   C4B52858  11.096  32.298   7.353
 9115POPC   NC352859  33.070   3.578   5.553
 9115POPC   PO452860  33.023   3.566   5.853
 9115POPC   GL152861  33.070   3.502   6.153
 9115POPC   GL252862  33.132   3.411   6.153
 9115POPC   C1A52863  33.015   3.521   6.453
 9115POPC   D2A52864  33.064   3.575   6.753
 9115POPC   C3A52865  33.038   3.522   7.053
 9115POPC   C4A52866  33.044   3.576   7.353
 9115POPC   C1B52867  33.232   3.327   6.453
 9115POPC   C2B52868  33.242   3.320   6.753
 9115POPC   C3B52869  33.204   3.309   7.053
 9115POPC   C4B52870  33.234   3.374   7.353
 9116POPC   NC352871  39.210  40.743   5.553
 9116POPC   PO452872  39.200  40.773   5.853
 9116POPC   GL152873  39.237  40.747   6.153
 9116POPC   GL252874  39.325  40.871   6.153
 9116POPC   C1A52875  39.209  40.789   6.453
 9116POPC   D2A52876  39.216  40.805   6.753
 9116POPC   C3A52877  39.245  40.780   7.053
 9116POPC   C4A52878  39.230  40.768   7.353
 9116POPC   C1B52879  39.317  40.964   6.453
 9116POPC   C2B52880  39.344  41.054   6.753
 9116POPC   C3B52881  39.293  41.036   7.053
 9116POPC   C4B52882  39.305  41.056   7.353
 9117POPC   NC352883   3.563  38.488   5.553
 9117POPC   PO452884   3.533  38.467   5.853
 9117POPC   GL152885   3.534  38.414   6.153
 9117POPC   GL252886   3.424  38.415   6.153
 9117POPC   C1A52887   3.518  38.436   6.453
 9117POPC   D2A52888   3.516  38.416   6.753
 9117POPC   C3A52889   3.571  38.422   7.053
 9117POPC   C4A52890   3.586  38.443   7.353
 9117POPC   C1B52891   3.296  38.389   6.453
 9117POPC   C2B52892   3.273  38.401   6.753
 9117POPC   C3B52893   3.282  38.368   7.053
 9117POPC   C4B52894   3.259  38.399   7.353
 9118POPC   NC352895  22.987  37.717   5.553
 9118POPC   PO452896  22.957  37.726   5.853
 9118POPC   GL152897  22.948  37.635   6.153
 9118POPC   GL252898  23.068  37.759   6.153
 9118POPC   C1A52899  22.949  37.712   6.453
 9118POPC   D2A52900  22.940  37.654   6.753
 9118POPC   C3A52901  22.945  37.634   7.053
 9118POPC   C4A52902  22.981  37.677   7.353
 9118POPC   C1B52903  23.141  37.818   6.453
 9118POPC   C2B52904  23.099  37.823   6.753
 9118POPC   C3B52905  23.127  37.810   7.053
 9118POPC   C4B52906  23.087  37.828   7.353
 9119POPC   NC352907  19.029   6.644   5.553
 9119POPC   PO452908  19.011   6.621   5.853
 9119POPC   GL152909  19.025   6.608   6.153
 9119POPC   GL252910  19.163   6.755   6.153
 9119POPC   C1A52911  19.084   6.601   6.453
 9119POPC   D2A52912  19.013   6.645   6.753
 9119POPC   C3A52913  19.012   6.691   7.053
 9119POPC   C4A52914  19.027   6.625   7.353
 9119POPC   C1B52915  19.218   6.878   6.453
 9119POPC   C2B52916  19.194   6.881   6.753
 9119POPC   C3B52917  19.126   6.915   7.053
 9119POPC   C4B52918  19.206   6.841   7.353
 9120POPC   NC352919  43.115  33.823   5.553
 9120POPC   PO452920  43.127  33.846   5.853
 9120POPC   GL152921  43.101  33.779   6.153
 9120POPC   GL252922  43.038  33.869   6.153
 9120POPC   C1A52923  43.098  33.847   6.453
 9120POPC   D2A52924  43.145  33.824   6.753
 9120POPC   C3A52925  43.138  33.798   7.053
 9120POPC   C4A52926  43.078  33.757   7.353
 9120POPC   C1B52927  42.915  33.995   6.453
 9120POPC   C2B52928  42.892  33.969   6.753
 9120POPC   C3B52929  42.949  33.993   7.053
 9120POPC   C4B52930  42.913  33.910   7.353
 9121POPC   NC352931  10.514  43.881   5.553
 9121POPC   PO452932  10.503  43.936   5.853
 9121POPC   GL152933  10.546  43.897   6.153
 9121POPC   GL252934  10.634  43.892   6.153
 9121POPC   C1A52935  10.488  43.886   6.453
 9121POPC   D2A52936  10.502  43.907   6.753
 9121POPC   C3A52937  10.480  43.843   7.053
 9121POPC   C4A52938  10.508  43.858   7.353
 9121POPC   C1B52939  10.806  43.853   6.453
 9121POPC   C2B52940  10.773  43.883   6.753
 9121POPC   C3B52941  10.801  43.892   7.053
 9121POPC   C4B52942  10.775  43.887   7.353
 9122POPC   NC352943   0.408   5.906   5.553
 9122POPC   PO452944   0.476   5.899   5.853
 9122POPC   GL152945   0.463   5.884   6.153
 9122POPC   GL252946   0.536   5.894   6.153
 9122POPC   C1A52947   0.483   5.859   6.453
 9122POPC   D2A52948   0.468   5.896   6.753
 9122POPC   C3A52949   0.445   5.871   7.053
 9122POPC   C4A52950   0.417   5.860   7.353
 9122POPC   C1B52951   0.688   5.857   6.453
 9122POPC   C2B52952   0.678   5.884   6.753
 9122POPC   C3B52953   0.697   5.872   7.053
 9122POPC   C4B52954   0.649   5.792   7.353
 9123POPC   NC352955   6.615  37.646   5.553
 9123POPC   PO452956   6.668  37.726   5.853
 9123POPC   GL152957   6.641  37.699   6.153
 9123POPC   GL252958   6.608  37.528   6.153
 9123POPC   C1A52959   6.652  37.706   6.453
 9123POPC   D2A52960   6.654  37.713   6.753
 9123POPC   C3A52961   6.670  37.721   7.053
 9123POPC   C4A52962   6.656  37.660   7.353
 9123POPC   C1B52963   6.559  37.497   6.453
 9123POPC   C2B52964   6.493  37.463   6.753
 9123POPC   C3B52965   6.579  37.500   7.053
 9123POPC   C4B52966   6.534  37.419   7.353
 9124POPC   NC352967  28.321  36.165   5.553
 9124POPC   PO452968  28.386  36.086   5.853
 9124POPC   GL152969  28.331  36.170   6.153
 9124POPC   GL252970  28.402  36.227   6.153
 9124POPC   C1A52971  28.384  36.082   6.453
 9124POPC   D2A52972  28.374  36.159   6.753
 9124POPC   C3A52973  28.369  36.135   7.053
 9124POPC   C4A52974  28.340  36.167   7.353
 9124POPC   C1B52975  28.400  36.373   6.453
 9124POPC   C2B52976  28.405  36.339   6.753
 9124POPC   C3B52977  28.413  36.361   7.053
 9124POPC   C4B52978  28.436  36.404   7.353
 9125POPC   NC352979  37.724  19.799   5.553
 9125POPC   PO452980  37.677  19.853   5.853
 9125POPC   GL152981  37.703  19.811   6.153
 9125POPC   GL252982  37.848  19.847   6.153
 9125POPC   C1A52983  37.703  19.857   6.453
 9125POPC   D2A52984  37.649  19.816   6.753
 9125POPC   C3A52985  37.693  19.790   7.053
 9125POPC   C4A52986  37.664  19.800   7.353
 9125POPC   C1B52987  37.902  19.875   6.453
 9125POPC   C2B52988  37.906  19.904   6.753
 9125POPC   C3B52989  37.940  19.862   7.053
 9125POPC   C4B52990  37.899  19.925   7.353
 9126POPC   NC352991  34.540   3.548   5.553
 9126POPC   PO452992  34.592   3.507   5.853
 9126POPC   GL152993  34.587   3.541   6.153
 9126POPC   GL252994  34.548   3.438   6.153
 9126POPC   C1A52995  34.561   3.544   6.453
 9126POPC   D2A52996  34.577   3.546   6.753
 9126POPC   C3A52997  34.582   3.511   7.053
 9126POPC   C4A52998  34.570   3.504   7.353
 9126POPC   C1B52999  34.542   3.294   6.453
 9126POPC   C2B53000  34.606   3.266   6.753
 9126POPC   C3B53001  34.613   3.314   7.053
 9126POPC   C4B53002  34.553   3.278   7.353
 9127POPC   NC353003  36.876   5.083   5.553
 9127POPC   PO453004  36.934   5.143   5.853
 9127POPC   GL153005  36.928   5.095   6.153
 9127POPC   GL253006  36.915   5.177   6.153
 9127POPC   C1A53007  36.914   5.086   6.453
 9127POPC   D2A53008  36.901   5.045   6.753
 9127POPC   C3A53009  36.921   5.140   7.053
 9127POPC   C4A53010  36.892   5.080   7.353
 9127POPC   C1B53011  36.978   5.348   6.453
 9127POPC   C2B53012  36.970   5.362   6.753
 9127POPC   C3B53013  37.017   5.307   7.053
 9127POPC   C4B53014  37.034   5.296   7.353
 9128POPC   NC353015  42.356  15.228   5.553
 9128POPC   PO453016  42.334  15.182   5.853
 9128POPC   GL153017  42.298  15.202   6.153
 9128POPC   GL253018  42.215  15.164   6.153
 9128POPC   C1A53019  42.329  15.143   6.453
 9128POPC   D2A53020  42.338  15.196   6.753
 9128POPC   C3A53021  42.309  15.136   7.053
 9128POPC   C4A53022  42.323  15.181   7.353
 9128POPC   C1B53023  42.126  15.171   6.453
 9128POPC   C2B53024  42.041  15.225   6.753
 9128POPC   C3B53025  42.086  15.154   7.053
 9128POPC   C4B53026  42.096  15.187   7.353
 9129POPC   NC353027  16.743  21.374   5.553
 9129POPC   PO453028  16.706  21.392   5.853
 9129POPC   GL153029  16.713  21.428   6.153
 9129POPC   GL253030  16.850  21.473   6.153
 9129POPC   C1A53031  16.714  21.436   6.453
 9129POPC   D2A53032  16.688  21.396   6.753
 9129POPC   C3A53033  16.762  21.433   7.053
 9129POPC   C4A53034  16.716  21.400   7.353
 9129POPC   C1B53035  16.993  21.419   6.453
 9129POPC   C2B53036  16.980  21.497   6.753
 9129POPC   C3B53037  16.979  21.503   7.053
 9129POPC   C4B53038  16.992  21.450   7.353
 9130POPC   NC353039  43.880  23.717   5.553
 9130POPC   PO453040  43.876  23.732   5.853
 9130POPC   GL153041  43.918  23.738   6.153
 9130POPC   GL253042  43.855  23.637   6.153
 9130POPC   C1A53043  43.885  23.682   6.453
 9130POPC   D2A53044  43.887  23.664   6.753
 9130POPC   C3A53045  43.920  23.695   7.053
 9130POPC   C4A53046  43.854  23.725   7.353
 9130POPC   C1B53047  43.859  23.436   6.453
 9130POPC   C2B53048  43.879  23.470   6.753
 9130POPC   C3B53049  43.942  23.454   7.053
 9130POPC   C4B53050  43.920  23.422   7.353
 9131POPC   NC353051  11.330  30.725   5.553
 9131POPC   PO453052  11.258  30.737   5.853
 9131POPC   GL153053  11.309  30.702   6.153
 9131POPC   GL253054  11.266  30.543   6.153
 9131POPC   C1A53055  11.349  30.685   6.453
 9131POPC   D2A53056  11.258  30.675   6.753
 9131POPC   C3A53057  11.345  30.720   7.053
 9131POPC   C4A53058  11.260  30.701   7.353
 9131POPC   C1B53059  11.269  30.474   6.453
 9131POPC   C2B53060  11.290  30.435   6.753
 9131POPC   C3B53061  11.281  30.453   7.053
 9131POPC   C4B53062  11.280  30.430   7.353
 9132POPC   NC353063  37.669  36.887   5.553
 9132POPC   PO453064  37.716  36.879   5.853
 9132POPC   GL153065  37.668  36.948   6.153
 9132POPC   GL253066  37.765  37.019   6.153
 9132POPC   C1A53067  37.715  36.880   6.453
 9132POPC   D2A53068  37.669  36.867   6.753
 9132POPC   C3A53069  37.666  36.928   7.053
 9132POPC   C4A53070  37.700  36.922   7.353
 9132POPC   C1B53071  37.852  37.078   6.453
 9132POPC   C2B53072  37.832  37.097   6.753
 9132POPC   C3B53073  37.893  37.084   7.053
 9132POPC   C4B53074  37.851  37.129   7.353
 9133POPC   NC353075  14.418  37.720   5.553
 9133POPC   PO453076  14.365  37.714   5.853
 9133POPC   GL153077  14.385  37.666   6.153
 9133POPC   GL253078  14.252  37.766   6.153
 9133POPC   C1A53079  14.383  37.711   6.453
 9133POPC   D2A53080  14.423  37.663   6.753
 9133POPC   C3A53081  14.408  37.665   7.053
 9133POPC   C4A53082  14.453  37.695   7.353
 9133POPC   C1B53083  14.136  37.759   6.453
 9133POPC   C2B53084  14.205  37.812   6.753
 9133POPC   C3B53085  14.219  37.820   7.053
 9133POPC   C4B53086  14.189  37.791   7.353
 9134POPC   NC353087  24.519  20.597   5.553
 9134POPC   PO453088  24.463  20.617   5.853
 9134POPC   GL153089  24.452  20.645   6.153
 9134POPC   GL253090  24.607  20.688   6.153
 9134POPC   C1A53091  24.472  20.607   6.453
 9134POPC   D2A53092  24.470  20.658   6.753
 9134POPC   C3A53093  24.445  20.614   7.053
 9134POPC   C4A53094  24.507  20.649   7.353
 9134POPC   C1B53095  24.609  20.827   6.453
 9134POPC   C2B53096  24.670  20.794   6.753
 9134POPC   C3B53097  24.631  20.866   7.053
 9134POPC   C4B53098  24.603  20.838   7.353
 9135POPC   NC353099  33.812   8.973   5.553
 9135POPC   PO453100  33.758   8.965   5.853
 9135POPC   GL153101  33.801   8.922   6.153
 9135POPC   GL253102  33.896   8.942   6.153
 9135POPC   C1A53103  33.797   9.016   6.453
 9135POPC   D2A53104  33.756   8.944   6.753
 9135POPC   C3A53105  33.791   8.995   7.053
 9135POPC   C4A53106  33.770   8.924   7.353
 9135POPC   C1B53107  33.947   8.772   6.453
 9135POPC   C2B53108  34.040   8.774   6.753
 9135POPC   C3B53109  33.967   8.800   7.053
 9135POPC   C4B53110  34.029   8.855   7.353
 9136POPC   NC353111  37.640   1.949   5.553
 9136POPC   PO453112  37.710   2.033   5.853
 9136POPC   GL153113  37.658   2.037   6.153
 9136POPC   GL253114  37.572   1.985   6.153
 9136POPC   C1A53115  37.724   1.963   6.453
 9136POPC   D2A53116  37.658   1.947   6.753
 9136POPC   C3A53117  37.662   1.951   7.053
 9136POPC   C4A53118  37.693   1.994   7.353
 9136POPC   C1B53119  37.465   1.939   6.453
 9136POPC   C2B53120  37.466   1.897   6.753
 9136POPC   C3B53121  37.456   1.945   7.053
 9136POPC   C4B53122  37.432   1.910   7.353
 9137POPC   NC353123  43.839  39.238   5.553
 9137POPC   PO453124  43.903  39.262   5.853
 9137POPC   GL153125  43.914  39.250   6.153
 9137POPC   GL253126  43.780  39.125   6.153
 9137POPC   C1A53127  43.931  39.278   6.453
 9137POPC   D2A53128  43.936  39.249   6.753
 9137POPC   C3A53129  43.847  39.212   7.053
 9137POPC   C4A53130  43.927  39.267   7.353
 9137POPC   C1B53131  43.739  39.026   6.453
 9137POPC   C2B53132  43.736  39.024   6.753
 9137POPC   C3B53133  43.741  39.012   7.053
 9137POPC   C4B53134  43.740  39.000   7.353
 9138POPC   NC353135  25.274  43.929   5.553
 9138POPC   PO453136  25.230  43.852   5.853
 9138POPC   GL153137  25.296  43.871   6.153
 9138POPC   GL253138  25.296  43.725   6.153
 9138POPC   C1A53139  25.270  43.905   6.453
 9138POPC   D2A53140  25.285  43.870   6.753
 9138POPC   C3A53141  25.315  43.930   7.053
 9138POPC   C4A53142  25.274  43.930   7.353
 9138POPC   C1B53143  25.397  43.641   6.453
 9138POPC   C2B53144  25.374  43.610   6.753
 9138POPC   C3B53145  25.347  43.611   7.053
 9138POPC   C4B53146  25.339  43.644   7.353
 9139POPC   NC353147  37.641  30.682   5.553
 9139POPC   PO453148  37.647  30.694   5.853
 9139POPC   GL153149  37.687  30.732   6.153
 9139POPC   GL253150  37.674  30.789   6.153
 9139POPC   C1A53151  37.724  30.746   6.453
 9139POPC   D2A53152  37.647  30.677   6.753
 9139POPC   C3A53153  37.724  30.710   7.053
 9139POPC   C4A53154  37.722  30.736   7.353
 9139POPC   C1B53155  37.596  30.947   6.453
 9139POPC   C2B53156  37.535  30.970   6.753
 9139POPC   C3B53157  37.593  30.953   7.053
 9139POPC   C4B53158  37.606  30.942   7.353
 9140POPC   NC353159  13.666  26.048   5.553
 9140POPC   PO453160  13.580  26.041   5.853
 9140POPC   GL153161  13.646  26.046   6.153
 9140POPC   GL253162  13.767  26.169   6.153
 9140POPC   C1A53163  13.578  26.043   6.453
 9140POPC   D2A53164  13.615  26.072   6.753
 9140POPC   C3A53165  13.664  26.080   7.053
 9140POPC   C4A53166  13.592  26.031   7.353
 9140POPC   C1B53167  13.765  26.189   6.453
 9140POPC   C2B53168  13.770  26.203   6.753
 9140POPC   C3B53169  13.840  26.249   7.053
 9140POPC   C4B53170  13.829  26.187   7.353
 9141POPC   NC353171  12.033  15.159   5.553
 9141POPC   PO453172  12.091  15.170   5.853
 9141POPC   GL153173  12.046  15.159   6.153
 9141POPC   GL253174  11.961  15.169   6.153
 9141POPC   C1A53175  12.070  15.165   6.453
 9141POPC   D2A53176  12.085  15.146   6.753
 9141POPC   C3A53177  12.040  15.221   7.053
 9141POPC   C4A53178  12.031  15.169   7.353
 9141POPC   C1B53179  11.816  15.174   6.453
 9141POPC   C2B53180  11.874  15.125   6.753
 9141POPC   C3B53181  11.867  15.154   7.053
 9141POPC   C4B53182  11.807  15.206   7.353
 9142POPC   NC353183  37.690  32.223   5.553
 9142POPC   PO453184  37.641  32.231   5.853
 9142POPC   GL153185  37.636  32.290   6.153
 9142POPC   GL253186  37.808  32.254   6.153
 9142POPC   C1A53187  37.705  32.238   6.453
 9142POPC   D2A53188  37.679  32.251   6.753
 9142POPC   C3A53189  37.668  32.274   7.053
 9142POPC   C4A53190  37.673  32.256   7.353
 9142POPC   C1B53191  37.941  32.293   6.453
 9142POPC   C2B53192  37.873  32.339   6.753
 9142POPC   C3B53193  37.949  32.327   7.053
 9142POPC   C4B53194  37.893  32.353   7.353
 9143POPC   NC353195  43.139  11.267   5.553
 9143POPC   PO453196  43.091  11.307   5.853
 9143POPC   GL153197  43.075  11.319   6.153
 9143POPC   GL253198  43.019  11.426   6.153
 9143POPC   C1A53199  43.150  11.337   6.453
 9143POPC   D2A53200  43.153  11.254   6.753
 9143POPC   C3A53201  43.109  11.279   7.053
 9143POPC   C4A53202  43.088  11.291   7.353
 9143POPC   C1B53203  43.005  11.492   6.453
 9143POPC   C2B53204  43.044  11.504   6.753
 9143POPC   C3B53205  43.031  11.498   7.053
 9143POPC   C4B53206  43.046  11.480   7.353
 9144POPC   NC353207  31.521  33.057   5.553
 9144POPC   PO453208  31.475  32.998   5.853
 9144POPC   GL153209  31.467  33.061   6.153
 9144POPC   GL253210  31.335  33.124   6.153
 9144POPC   C1A53211  31.484  33.071   6.453
 9144POPC   D2A53212  31.426  33.054   6.753
 9144POPC   C3A53213  31.471  33.000   7.053
 9144POPC   C4A53214  31.441  32.975   7.353
 9144POPC   C1B53215  31.306  33.209   6.453
 9144POPC   C2B53216  31.308  33.175   6.753
 9144POPC   C3B53217  31.239  33.237   7.053
 9144POPC   C4B53218  31.279  33.230   7.353
 9145POPC   NC353219  26.810  41.532   5.553
 9145POPC   PO453220  26.781  41.525   5.853
 9145POPC   GL153221  26.802  41.586   6.153
 9145POPC   GL253222  26.858  41.432   6.153
 9145POPC   C1A53223  26.805  41.576   6.453
 9145POPC   D2A53224  26.843  41.528   6.753
 9145POPC   C3A53225  26.790  41.597   7.053
 9145POPC   C4A53226  26.769  41.511   7.353
 9145POPC   C1B53227  26.883  41.295   6.453
 9145POPC   C2B53228  26.889  41.370   6.753
 9145POPC   C3B53229  26.925  41.307   7.053
 9145POPC   C4B53230  26.927  41.354   7.353
 9146POPC   NC353231  14.389  43.099   5.553
 9146POPC   PO453232  14.432  43.095   5.853
 9146POPC   GL153233  14.373  43.124   6.153
 9146POPC   GL253234  14.448  43.036   6.153
 9146POPC   C1A53235  14.385  43.072   6.453
 9146POPC   D2A53236  14.365  43.065   6.753
 9146POPC   C3A53237  14.369  43.138   7.053
 9146POPC   C4A53238  14.433  43.136   7.353
 9146POPC   C1B53239  14.545  42.970   6.453
 9146POPC   C2B53240  14.578  42.962   6.753
 9146POPC   C3B53241  14.596  42.922   7.053
 9146POPC   C4B53242  14.580  42.960   7.353
 9147POPC   NC353243  38.499  26.851   5.553
 9147POPC   PO453244  38.433  26.796   5.853
 9147POPC   GL153245  38.420  26.841   6.153
 9147POPC   GL253246  38.557  26.886   6.153
 9147POPC   C1A53247  38.461  26.846   6.453
 9147POPC   D2A53248  38.431  26.803   6.753
 9147POPC   C3A53249  38.481  26.782   7.053
 9147POPC   C4A53250  38.435  26.855   7.353
 9147POPC   C1B53251  38.588  27.048   6.453
 9147POPC   C2B53252  38.590  27.085   6.753
 9147POPC   C3B53253  38.525  27.088   7.053
 9147POPC   C4B53254  38.590  27.043   7.353
 9148POPC   NC353255   3.555  25.238   5.553
 9148POPC   PO453256   3.507  25.235   5.853
 9148POPC   GL153257   3.562  25.306   6.153
 9148POPC   GL253258   3.643  25.296   6.153
 9148POPC   C1A53259   3.502  25.266   6.453
 9148POPC   D2A53260   3.494  25.290   6.753
 9148POPC   C3A53261   3.535  25.242   7.053
 9148POPC   C4A53262   3.545  25.275   7.353
 9148POPC   C1B53263   3.751  25.370   6.453
 9148POPC   C2B53264   3.729  25.463   6.753
 9148POPC   C3B53265   3.782  25.448   7.053
 9148POPC   C4B53266   3.716  25.436   7.353
 9149POPC   NC353267  30.675  35.303   5.553
 9149POPC   PO453268  30.673  35.399   5.853
 9149POPC   GL153269  30.649  35.346   6.153
 9149POPC   GL253270  30.830  35.287   6.153
 9149POPC   C1A53271  30.721  35.381   6.453
 9149POPC   D2A53272  30.721  35.353   6.753
 9149POPC   C3A53273  30.712  35.312   7.053
 9149POPC   C4A53274  30.651  35.359   7.353
 9149POPC   C1B53275  30.952  35.196   6.453
 9149POPC   C2B53276  30.899  35.196   6.753
 9149POPC   C3B53277  30.966  35.271   7.053
 9149POPC   C4B53278  30.934  35.196   7.353
 9150POPC   NC353279  29.880  43.842   5.553
 9150POPC   PO453280  29.963  43.927   5.853
 9150POPC   GL153281  29.957  43.886   6.153
 9150POPC   GL253282  29.846  43.816   6.153
 9150POPC   C1A53283  29.897  43.915   6.453
 9150POPC   D2A53284  29.961  43.861   6.753
 9150POPC   C3A53285  29.916  43.902   7.053
 9150POPC   C4A53286  29.875  43.933   7.353
 9150POPC   C1B53287  29.770  43.717   6.453
 9150POPC   C2B53288  29.739  43.742   6.753
 9150POPC   C3B53289  29.765  43.714   7.053
 9150POPC   C4B53290  29.697  43.673   7.353
 9151POPC   NC353291  31.483  32.271   5.553
 9151POPC   PO453292  31.505  32.259   5.853
 9151POPC   GL153293  31.477  32.290   6.153
 9151POPC   GL253294  31.538  32.379   6.153
 9151POPC   C1A53295  31.471  32.228   6.453
 9151POPC   D2A53296  31.476  32.241   6.753
 9151POPC   C3A53297  31.511  32.252   7.053
 9151POPC   C4A53298  31.456  32.216   7.353
 9151POPC   C1B53299  31.498  32.506   6.453
 9151POPC   C2B53300  31.558  32.475   6.753
 9151POPC   C3B53301  31.533  32.495   7.053
 9151POPC   C4B53302  31.555  32.498   7.353
 9152POPC   NC353303   8.936  33.798   5.553
 9152POPC   PO453304   8.929  33.764   5.853
 9152POPC   GL153305   9.001  33.782   6.153
 9152POPC   GL253306   9.078  33.757   6.153
 9152POPC   C1A53307   8.928  33.817   6.453
 9152POPC   D2A53308   8.976  33.833   6.753
 9152POPC   C3A53309   9.014  33.849   7.053
 9152POPC   C4A53310   9.022  33.800   7.353
 9152POPC   C1B53311   9.203  33.744   6.453
 9152POPC   C2B53312   9.196  33.793   6.753
 9152POPC   C3B53313   9.254  33.746   7.053
 9152POPC   C4B53314   9.262  33.753   7.353
 9153POPC   NC353315  39.211   8.181   5.553
 9153POPC   PO453316  39.193   8.168   5.853
 9153POPC   GL153317  39.182   8.170   6.153
 9153POPC   GL253318  39.396   8.197   6.153
 9153POPC   C1A53319  39.237   8.190   6.453
 9153POPC   D2A53320  39.213   8.197   6.753
 9153POPC   C3A53321  39.280   8.178   7.053
 9153POPC   C4A53322  39.217   8.240   7.353
 9153POPC   C1B53323  39.471   8.179   6.453
 9153POPC   C2B53324  39.491   8.153   6.753
 9153POPC   C3B53325  39.508   8.165   7.053
 9153POPC   C4B53326  39.512   8.120   7.353
 9154POPC   NC353327  13.586   1.942   5.553
 9154POPC   PO453328  13.591   2.035   5.853
 9154POPC   GL153329  13.629   1.944   6.153
 9154POPC   GL253330  13.559   1.899   6.153
 9154POPC   C1A53331  13.626   1.996   6.453
 9154POPC   D2A53332  13.607   1.943   6.753
 9154POPC   C3A53333  13.675   1.959   7.053
 9154POPC   C4A53334  13.673   1.982   7.353
 9154POPC   C1B53335  13.481   1.819   6.453
 9154POPC   C2B53336  13.416   1.799   6.753
 9154POPC   C3B53337  13.424   1.815   7.053
 9154POPC   C4B53338  13.431   1.791   7.353
 9155POPC   NC353339  13.606  12.108   5.553
 9155POPC   PO453340  13.647  12.122   5.853
 9155POPC   GL153341  13.646  12.101   6.153
 9155POPC   GL253342  13.476  11.990   6.153
 9155POPC   C1A53343  13.589  12.028   6.453
 9155POPC   D2A53344  13.620  12.063   6.753
 9155POPC   C3A53345  13.608  12.036   7.053
 9155POPC   C4A53346  13.581  12.064   7.353
 9155POPC   C1B53347  13.454  11.937   6.453
 9155POPC   C2B53348  13.459  11.974   6.753
 9155POPC   C3B53349  13.444  11.959   7.053
 9155POPC   C4B53350  13.418  11.908   7.353
 9156POPC   NC353351  29.096  29.096   5.553
 9156POPC   PO453352  29.164  29.120   5.853
 9156POPC   GL153353  29.109  29.109   6.153
 9156POPC   GL253354  29.076  29.242   6.153
 9156POPC   C1A53355  29.098  29.167   6.453
 9156POPC   D2A53356  29.178  29.124   6.753
 9156POPC   C3A53357  29.119  29.194   7.053
 9156POPC   C4A53358  29.172  29.129   7.353
 9156POPC   C1B53359  28.966  29.285   6.453
 9156POPC   C2B53360  28.973  29.336   6.753
 9156POPC   C3B53361  28.923  29.362   7.053
 9156POPC   C4B53362  28.913  29.316   7.353
 9157POPC   NC353363  26.825  35.347   5.553
 9157POPC   PO453364  26.829  35.316   5.853
 9157POPC   GL153365  26.782  35.380   6.153
 9157POPC   GL253366  26.749  35.392   6.153
 9157POPC   C1A53367  26.846  35.327   6.453
 9157POPC   D2A53368  26.822  35.339   6.753
 9157POPC   C3A53369  26.769  35.316   7.053
 9157POPC   C4A53370  26.806  35.337   7.353
 9157POPC   C1B53371  26.547  35.389   6.453
 9157POPC   C2B53372  26.570  35.396   6.753
 9157POPC   C3B53373  26.554  35.407   7.053
 9157POPC   C4B53374  26.586  35.473   7.353
 9158POPC   NC353375  18.265  29.154   5.553
 9158POPC   PO453376  18.263  29.158   5.853
 9158POPC   GL153377  18.293  29.114   6.153
 9158POPC   GL253378  18.285  28.997   6.153
 9158POPC   C1A53379  18.308  29.123   6.453
 9158POPC   D2A53380  18.258  29.125   6.753
 9158POPC   C3A53381  18.320  29.162   7.053
 9158POPC   C4A53382  18.274  29.191   7.353
 9158POPC   C1B53383  18.386  28.903   6.453
 9158POPC   C2B53384  18.346  28.885   6.753
 9158POPC   C3B53385  18.390  28.934   7.053
 9158POPC   C4B53386  18.376  28.917   7.353
 9159POPC   NC353387  43.146  26.019   5.553
 9159POPC   PO453388  43.068  26.077   5.853
 9159POPC   GL153389  43.127  26.013   6.153
 9159POPC   GL253390  43.201  26.199   6.153
 9159POPC   C1A53391  43.121  26.086   6.453
 9159POPC   D2A53392  43.142  26.068   6.753
 9159POPC   C3A53393  43.119  26.052   7.053
 9159POPC   C4A53394  43.115  26.003   7.353
 9159POPC   C1B53395  43.209  26.272   6.453
 9159POPC   C2B53396  43.231  26.281   6.753
 9159POPC   C3B53397  43.208  26.296   7.053
 9159POPC   C4B53398  43.225  26.313   7.353
 9160POPC   NC353399   2.813  18.295   5.553
 9160POPC   PO453400   2.815  18.287   5.853
 9160POPC   GL153401   2.720  18.241   6.153
 9160POPC   GL253402   2.819  18.358   6.153
 9160POPC   C1A53403   2.779  18.278   6.453
 9160POPC   D2A53404   2.784  18.265   6.753
 9160POPC   C3A53405   2.762  18.278   7.053
 9160POPC   C4A53406   2.725  18.327   7.353
 9160POPC   C1B53407   2.903  18.482   6.453
 9160POPC   C2B53408   2.970  18.428   6.753
 9160POPC   C3B53409   2.937  18.480   7.053
 9160POPC   C4B53410   2.883  18.486   7.353
 9161POPC   NC353411   3.585  34.601   5.553
 9161POPC   PO453412   3.558  34.619   5.853
 9161POPC   GL153413   3.560  34.589   6.153
 9161POPC   GL253414   3.586  34.422   6.153
 9161POPC   C1A53415   3.554  34.620   6.453
 9161POPC   D2A53416   3.552  34.599   6.753
 9161POPC   C3A53417   3.500  34.576   7.053
 9161POPC   C4A53418   3.579  34.533   7.353
 9161POPC   C1B53419   3.555  34.338   6.453
 9161POPC   C2B53420   3.555  34.289   6.753
 9161POPC   C3B53421   3.584  34.325   7.053
 9161POPC   C4B53422   3.516  34.325   7.353
 9162POPC   NC353423  21.420  22.188   5.553
 9162POPC   PO453424  21.362  22.211   5.853
 9162POPC   GL153425  21.425  22.142   6.153
 9162POPC   GL253426  21.462  22.114   6.153
 9162POPC   C1A53427  21.389  22.177   6.453
 9162POPC   D2A53428  21.387  22.192   6.753
 9162POPC   C3A53429  21.388  22.190   7.053
 9162POPC   C4A53430  21.369  22.114   7.353
 9162POPC   C1B53431  21.582  21.962   6.453
 9162POPC   C2B53432  21.574  22.048   6.753
 9162POPC   C3B53433  21.563  22.047   7.053
 9162POPC   C4B53434  21.538  22.004   7.353
 9163POPC   NC353435  26.047  32.259   5.553
 9163POPC   PO453436  26.079  32.290   5.853
 9163POPC   GL153437  26.076  32.248   6.153
 9163POPC   GL253438  25.884  32.329   6.153
 9163POPC   C1A53439  26.074  32.285   6.453
 9163POPC   D2A53440  26.077  32.199   6.753
 9163POPC   C3A53441  26.007  32.253   7.053
 9163POPC   C4A53442  26.043  32.276   7.353
 9163POPC   C1B53443  25.833  32.272   6.453
 9163POPC   C2B53444  25.780  32.332   6.753
 9163POPC   C3B53445  25.852  32.273   7.053
 9163POPC   C4B53446  25.766  32.295   7.353
 9164POPC   NC353447  39.213  43.081   5.553
 9164POPC   PO453448  39.221  43.086   5.853
 9164POPC   GL153449  39.224  43.105   6.153
 9164POPC   GL253450  39.261  43.000   6.153
 9164POPC   C1A53451  39.247  43.085   6.453
 9164POPC   D2A53452  39.252  43.130   6.753
 9164POPC   C3A53453  39.247  43.109   7.053
 9164POPC   C4A53454  39.244  43.124   7.353
 9164POPC   C1B53455  39.217  42.827   6.453
 9164POPC   C2B53456  39.243  42.860   6.753
 9164POPC   C3B53457  39.262  42.893   7.053
 9164POPC   C4B53458  39.252  42.884   7.353
 9165POPC   NC353459  40.810  29.936   5.553
 9165POPC   PO453460  40.818  29.891   5.853
 9165POPC   GL153461  40.758  29.950   6.153
 9165POPC   GL253462  40.669  29.850   6.153
 9165POPC   C1A53463  40.811  29.964   6.453
 9165POPC   D2A53464  40.763  29.887   6.753
 9165POPC   C3A53465  40.801  29.890   7.053
 9165POPC   C4A53466  40.779  29.881   7.353
 9165POPC   C1B53467  40.580  29.894   6.453
 9165POPC   C2B53468  40.557  29.858   6.753
 9165POPC   C3B53469  40.590  29.903   7.053
 9165POPC   C4B53470  40.575  29.850   7.353
 9166POPC   NC353471  16.749  23.683   5.553
 9166POPC   PO453472  16.754  23.752   5.853
 9166POPC   GL153473  16.731  23.740   6.153
 9166POPC   GL253474  16.803  23.799   6.153
 9166POPC   C1A53475  16.689  23.736   6.453
 9166POPC   D2A53476  16.724  23.696   6.753
 9166POPC   C3A53477  16.707  23.754   7.053
 9166POPC   C4A53478  16.702  23.676   7.353
 9166POPC   C1B53479  16.897  23.939   6.453
 9166POPC   C2B53480  16.901  23.890   6.753
 9166POPC   C3B53481  16.856  23.911   7.053
 9166POPC   C4B53482  16.951  23.916   7.353
 9167POPC   NC353483   7.463  38.423   5.553
 9167POPC   PO453484   7.401  38.475   5.853
 9167POPC   GL153485   7.379  38.409   6.153
 9167POPC   GL253486   7.510  38.371   6.153
 9167POPC   C1A53487   7.399  38.415   6.453
 9167POPC   D2A53488   7.446  38.435   6.753
 9167POPC   C3A53489   7.427  38.463   7.053
 9167POPC   C4A53490   7.391  38.418   7.353
 9167POPC   C1B53491   7.672  38.332   6.453
 9167POPC   C2B53492   7.633  38.287   6.753
 9167POPC   C3B53493   7.642  38.302   7.053
 9167POPC   C4B53494   7.616  38.263   7.353
 9168POPC   NC353495  36.859  24.536   5.553
 9168POPC   PO453496  36.942  24.442   5.853
 9168POPC   GL153497  36.866  24.511   6.153
 9168POPC   GL253498  36.981  24.591   6.153
 9168POPC   C1A53499  36.865  24.497   6.453
 9168POPC   D2A53500  36.938  24.534   6.753
 9168POPC   C3A53501  36.900  24.508   7.053
 9168POPC   C4A53502  36.894  24.497   7.353
 9168POPC   C1B53503  37.057  24.685   6.453
 9168POPC   C2B53504  37.082  24.712   6.753
 9168POPC   C3B53505  37.124  24.698   7.053
 9168POPC   C4B53506  37.073  24.659   7.353
 9169POPC   NC353507  19.855  20.608   5.553
 9169POPC   PO453508  19.878  20.596   5.853
 9169POPC   GL153509  19.798  20.586   6.153
 9169POPC   GL253510  19.868  20.479   6.153
 9169POPC   C1A53511  19.875  20.576   6.453
 9169POPC   D2A53512  19.818  20.591   6.753
 9169POPC   C3A53513  19.880  20.641   7.053
 9169POPC   C4A53514  19.884  20.611   7.353
 9169POPC   C1B53515  19.907  20.361   6.453
 9169POPC   C2B53516  19.927  20.325   6.753
 9169POPC   C3B53517  19.930  20.382   7.053
 9169POPC   C4B53518  19.923  20.377   7.353
 9170POPC   NC353519  18.297  28.328   5.553
 9170POPC   PO453520  18.293  28.329   5.853
 9170POPC   GL153521  18.238  28.380   6.153
 9170POPC   GL253522  18.390  28.482   6.153
 9170POPC   C1A53523  18.300  28.336   6.453
 9170POPC   D2A53524  18.260  28.330   6.753
 9170POPC   C3A53525  18.245  28.376   7.053
 9170POPC   C4A53526  18.285  28.359   7.353
 9170POPC   C1B53527  18.480  28.510   6.453
 9170POPC   C2B53528  18.424  28.563   6.753
 9170POPC   C3B53529  18.451  28.505   7.053
 9170POPC   C4B53530  18.496  28.548   7.353
 9171POPC   NC353531  29.096  43.906   5.553
 9171POPC   PO453532  29.147  43.882   5.853
 9171POPC   GL153533  29.171  43.900   6.153
 9171POPC   GL253534  29.272  43.950   6.153
 9171POPC   C1A53535  29.174  43.893   6.453
 9171POPC   D2A53536  29.101  43.923   6.753
 9171POPC   C3A53537  29.125  43.881   7.053
 9171POPC   C4A53538  29.112  43.872   7.353
 9171POPC   C1B53539  29.339  44.054   6.453
 9171POPC   C2B53540  29.352  44.006   6.753
 9171POPC   C3B53541  29.319  44.040   7.053
 9171POPC   C4B53542  29.400  44.000   7.353
 9172POPC   NC353543  19.023  25.998   5.553
 9172POPC   PO453544  19.085  26.090   5.853
 9172POPC   GL153545  19.071  26.042   6.153
 9172POPC   GL253546  19.075  25.937   6.153
 9172POPC   C1A53547  19.087  26.072   6.453
 9172POPC   D2A53548  19.022  26.024   6.753
 9172POPC   C3A53549  19.020  26.054   7.053
 9172POPC   C4A53550  19.059  26.091   7.353
 9172POPC   C1B53551  19.079  25.841   6.453
 9172POPC   C2B53552  19.002  25.763   6.753
 9172POPC   C3B53553  19.077  25.762   7.053
 9172POPC   C4B53554  19.079  25.797   7.353
 9173POPC   NC353555  11.290  18.300   5.553
 9173POPC   PO453556  11.251  18.325   5.853
 9173POPC   GL153557  11.309  18.287   6.153
 9173POPC   GL253558  11.342  18.240   6.153
 9173POPC   C1A53559  11.296  18.323   6.453
 9173POPC   D2A53560  11.255  18.279   6.753
 9173POPC   C3A53561  11.320  18.321   7.053
 9173POPC   C4A53562  11.333  18.330   7.353
 9173POPC   C1B53563  11.516  18.118   6.453
 9173POPC   C2B53564  11.518  18.133   6.753
 9173POPC   C3B53565  11.435  18.053   7.053
 9173POPC   C4B53566  11.488  18.085   7.353
 9174POPC   NC353567  30.679  16.726   5.553
 9174POPC   PO453568  30.702  16.752   5.853
 9174POPC   GL153569  30.732  16.705   6.153
 9174POPC   GL253570  30.666  16.805   6.153
 9174POPC   C1A53571  30.663  16.765   6.453
 9174POPC   D2A53572  30.677  16.687   6.753
 9174POPC   C3A53573  30.704  16.695   7.053
 9174POPC   C4A53574  30.681  16.731   7.353
 9174POPC   C1B53575  30.576  16.934   6.453
 9174POPC   C2B53576  30.616  16.908   6.753
 9174POPC   C3B53577  30.618  16.946   7.053
 9174POPC   C4B53578  30.552  16.964   7.353
 9175POPC   NC353579  17.482   0.389   5.553
 9175POPC   PO453580  17.522   0.444   5.853
 9175POPC   GL153581  17.467   0.430   6.153
 9175POPC   GL253582  17.411   0.449   6.153
 9175POPC   C1A53583  17.478   0.416   6.453
 9175POPC   D2A53584  17.529   0.451   6.753
 9175POPC   C3A53585  17.500   0.480   7.053
 9175POPC   C4A53586  17.534   0.403   7.353
 9175POPC   C1B53587  17.209   0.412   6.453
 9175POPC   C2B53588  17.228   0.463   6.753
 9175POPC   C3B53589  17.218   0.458   7.053
 9175POPC   C4B53590  17.247   0.425   7.353
 9176POPC   NC353591  29.915  24.454   5.553
 9176POPC   PO453592  29.922  24.442   5.853
 9176POPC   GL153593  29.969  24.489   6.153
 9176POPC   GL253594  29.774  24.530   6.153
 9176POPC   C1A53595  29.891  24.500   6.453
 9176POPC   D2A53596  29.940  24.476   6.753
 9176POPC   C3A53597  29.936  24.464   7.053
 9176POPC   C4A53598  29.957  24.496   7.353
 9176POPC   C1B53599  29.678  24.575   6.453
 9176POPC   C2B53600  29.671  24.533   6.753
 9176POPC   C3B53601  29.662  24.612   7.053
 9176POPC   C4B53602  29.668  24.591   7.353
 9177POPC   NC353603  18.331  23.684   5.553
 9177POPC   PO453604  18.330  23.754   5.853
 9177POPC   GL153605  18.322  23.690   6.153
 9177POPC   GL253606  18.301  23.581   6.153
 9177POPC   C1A53607  18.277  23.673   6.453
 9177POPC   D2A53608  18.296  23.678   6.753
 9177POPC   C3A53609  18.293  23.705   7.053
 9177POPC   C4A53610  18.329  23.735   7.353
 9177POPC   C1B53611  18.365  23.507   6.453
 9177POPC   C2B53612  18.311  23.427   6.753
 9177POPC   C3B53613  18.349  23.447   7.053
 9177POPC   C4B53614  18.372  23.441   7.353
 9178POPC   NC353615  44.633  40.771   5.553
 9178POPC   PO453616  44.623  40.737   5.853
 9178POPC   GL153617  44.650  40.786   6.153
 9178POPC   GL253618  44.584  40.688   6.153
 9178POPC   C1A53619  44.635  40.802   6.453
 9178POPC   D2A53620  44.666  40.823   6.753
 9178POPC   C3A53621  44.686  40.813   7.053
 9178POPC   C4A53622  44.676  40.832   7.353
 9178POPC   C1B53623  44.618  40.511   6.453
 9178POPC   C2B53624  44.609  40.571   6.753
 9178POPC   C3B53625  44.588  40.550   7.053
 9178POPC   C4B53626  44.575  40.550   7.353
 9179POPC   NC353627  32.985  44.671   5.553
 9179POPC   PO453628  33.022  44.696   5.853
 9179POPC   GL153629  33.021  44.664   6.153
 9179POPC   GL253630  32.897  44.754   6.153
 9179POPC   C1A53631  33.004  44.642   6.453
 9179POPC   D2A53632  33.034  44.675   6.753
 9179POPC   C3A53633  33.037  44.630   7.053
 9179POPC   C4A53634  33.007  44.708   7.353
 9179POPC   C1B53635  32.835  44.865   6.453
 9179POPC   C2B53636  32.822  44.829   6.753
 9179POPC   C3B53637  32.790  44.767   7.053
 9179POPC   C4B53638  32.833  44.802   7.353
 9180POPC   NC353639  36.165   7.394   5.553
 9180POPC   PO453640  36.159   7.385   5.853
 9180POPC   GL153641  36.085   7.459   6.153
 9180POPC   GL253642  36.171   7.291   6.153
 9180POPC   C1A53643  36.144   7.447   6.453
 9180POPC   D2A53644  36.110   7.451   6.753
 9180POPC   C3A53645  36.138   7.465   7.053
 9180POPC   C4A53646  36.095   7.441   7.353
 9180POPC   C1B53647  36.140   7.156   6.453
 9180POPC   C2B53648  36.124   7.180   6.753
 9180POPC   C3B53649  36.149   7.127   7.053
 9180POPC   C4B53650  36.123   7.167   7.353
 9181POPC   NC353651  40.029  18.272   5.553
 9181POPC   PO453652  40.025  18.248   5.853
 9181POPC   GL153653  39.993  18.297   6.153
 9181POPC   GL253654  40.114  18.277   6.153
 9181POPC   C1A53655  40.049  18.246   6.453
 9181POPC   D2A53656  40.016  18.261   6.753
 9181POPC   C3A53657  40.043  18.287   7.053
 9181POPC   C4A53658  40.023  18.249   7.353
 9181POPC   C1B53659  40.255  18.229   6.453
 9181POPC   C2B53660  40.266  18.252   6.753
 9181POPC   C3B53661  40.277  18.201   7.053
 9181POPC   C4B53662  40.248  18.194   7.353
 9182POPC   NC353663  22.135  22.131   5.553
 9182POPC   PO453664  22.203  22.125   5.853
 9182POPC   GL153665  22.155  22.147   6.153
 9182POPC   GL253666  22.173  22.070   6.153
 9182POPC   C1A53667  22.199  22.160   6.453
 9182POPC   D2A53668  22.185  22.180   6.753
 9182POPC   C3A53669  22.197  22.113   7.053
 9182POPC   C4A53670  22.186  22.189   7.353
 9182POPC   C1B53671  22.271  21.941   6.453
 9182POPC   C2B53672  22.180  21.942   6.753
 9182POPC   C3B53673  22.192  21.909   7.053
 9182POPC   C4B53674  22.267  21.888   7.353
 9183POPC   NC353675  42.355   5.104   5.553
 9183POPC   PO453676  42.368   5.110   5.853
 9183POPC   GL153677  42.352   5.141   6.153
 9183POPC   GL253678  42.451   5.138   6.153
 9183POPC   C1A53679  42.305   5.053   6.453
 9183POPC   D2A53680  42.373   5.128   6.753
 9183POPC   C3A53681  42.346   5.109   7.053
 9183POPC   C4A53682  42.311   5.096   7.353
 9183POPC   C1B53683  42.576   5.217   6.453
 9183POPC   C2B53684  42.616   5.162   6.753
 9183POPC   C3B53685  42.584   5.214   7.053
 9183POPC   C4B53686  42.543   5.202   7.353
 9184POPC   NC353687  43.838  40.821   5.553
 9184POPC   PO453688  43.912  40.831   5.853
 9184POPC   GL153689  43.912  40.788   6.153
 9184POPC   GL253690  43.896  40.640   6.153
 9184POPC   C1A53691  43.925  40.734   6.453
 9184POPC   D2A53692  43.920  40.824   6.753
 9184POPC   C3A53693  43.880  40.768   7.053
 9184POPC   C4A53694  43.866  40.828   7.353
 9184POPC   C1B53695  43.970  40.523   6.453
 9184POPC   C2B53696  43.913  40.557   6.753
 9184POPC   C3B53697  43.913  40.528   7.053
 9184POPC   C4B53698  43.926  40.510   7.353
 9185POPC   NC353699  32.295  30.697   5.553
 9185POPC   PO453700  32.287  30.658   5.853
 9185POPC   GL153701  32.249  30.698   6.153
 9185POPC   GL253702  32.328  30.598   6.153
 9185POPC   C1A53703  32.288  30.699   6.453
 9185POPC   D2A53704  32.274  30.745   6.753
 9185POPC   C3A53705  32.258  30.667   7.053
 9185POPC   C4A53706  32.289  30.692   7.353
 9185POPC   C1B53707  32.329  30.496   6.453
 9185POPC   C2B53708  32.356  30.477   6.753
 9185POPC   C3B53709  32.342  30.435   7.053
 9185POPC   C4B53710  32.397  30.496   7.353
 9186POPC   NC353711   2.008   1.970   5.553
 9186POPC   PO453712   2.005   1.951   5.853
 9186POPC   GL153713   1.960   1.996   6.153
 9186POPC   GL253714   2.110   1.984   6.153
 9186POPC   C1A53715   2.024   1.962   6.453
 9186POPC   D2A53716   2.012   1.953   6.753
 9186POPC   C3A53717   1.988   2.009   7.053
 9186POPC   C4A53718   1.979   2.037   7.353
 9186POPC   C1B53719   2.264   1.935   6.453
 9186POPC   C2B53720   2.234   1.921   6.753
 9186POPC   C3B53721   2.205   1.893   7.053
 9186POPC   C4B53722   2.250   1.952   7.353
 9187POPC   NC353723  37.667  12.878   5.553
 9187POPC   PO453724  37.632  12.881   5.853
 9187POPC   GL153725  37.688  12.828   6.153
 9187POPC   GL253726  37.569  12.822   6.153
 9187POPC   C1A53727  37.663  12.898   6.453
 9187POPC   D2A53728  37.688  12.848   6.753
 9187POPC   C3A53729  37.668  12.831   7.053
 9187POPC   C4A53730  37.690  12.868   7.353
 9187POPC   C1B53731  37.475  12.849   6.453
 9187POPC   C2B53732  37.388  12.788   6.753
 9187POPC   C3B53733  37.427  12.857   7.053
 9187POPC   C4B53734  37.466  12.833   7.353
 9188POPC   NC353735  21.402  12.067   5.553
 9188POPC   PO453736  21.349  12.080   5.853
 9188POPC   GL153737  21.376  12.109   6.153
 9188POPC   GL253738  21.439  11.976   6.153
 9188POPC   C1A53739  21.336  12.058   6.453
 9188POPC   D2A53740  21.365  12.087   6.753
 9188POPC   C3A53741  21.423  12.058   7.053
 9188POPC   C4A53742  21.409  12.057   7.353
 9188POPC   C1B53743  21.437  11.851   6.453
 9188POPC   C2B53744  21.420  11.789   6.753
 9188POPC   C3B53745  21.415  11.868   7.053
 9188POPC   C4B53746  21.403  11.873   7.353
 9189POPC   NC353747  42.335   1.188   5.553
 9189POPC   PO453748  42.309   1.172   5.853
 9189POPC   GL153749  42.333   1.246   6.153
 9189POPC   GL253750  42.493   1.244   6.153
 9189POPC   C1A53751  42.303   1.204   6.453
 9189POPC   D2A53752  42.333   1.186   6.753
 9189POPC   C3A53753  42.299   1.218   7.053
 9189POPC   C4A53754  42.318   1.174   7.353
 9189POPC   C1B53755  42.541   1.126   6.453
 9189POPC   C2B53756  42.564   1.175   6.753
 9189POPC   C3B53757  42.582   1.203   7.053
 9189POPC   C4B53758  42.588   1.220   7.353
 9190POPC   NC353759  10.527   9.781   5.553
 9190POPC   PO453760  10.567   9.773   5.853
 9190POPC   GL153761  10.543   9.777   6.153
 9190POPC   GL253762  10.412   9.625   6.153
 9190POPC   C1A53763  10.481   9.700   6.453
 9190POPC   D2A53764  10.561   9.789   6.753
 9190POPC   C3A53765  10.520   9.730   7.053
 9190POPC   C4A53766  10.570   9.739   7.353
 9190POPC   C1B53767  10.400   9.501   6.453
 9190POPC   C2B53768  10.432   9.562   6.753
 9190POPC   C3B53769  10.358   9.571   7.053
 9190POPC   C4B53770  10.408   9.547   7.353
 9191POPC   NC353771  35.364  15.198   5.553
 9191POPC   PO453772  35.375  15.209   5.853
 9191POPC   GL153773  35.321  15.198   6.153
 9191POPC   GL253774  35.397  15.097   6.153
 9191POPC   C1A53775  35.321  15.171   6.453
 9191POPC   D2A53776  35.312  15.143   6.753
 9191POPC   C3A53777  35.388  15.149   7.053
 9191POPC   C4A53778  35.371  15.228   7.353
 9191POPC   C1B53779  35.450  14.925   6.453
 9191POPC   C2B53780  35.510  14.921   6.753
 9191POPC   C3B53781  35.452  14.919   7.053
 9191POPC   C4B53782  35.458  14.949   7.353
 9192POPC   NC353783  38.468  25.264   5.553
 9192POPC   PO453784  38.433  25.271   5.853
 9192POPC   GL153785  38.493  25.299   6.153
 9192POPC   GL253786  38.543  25.258   6.153
 9192POPC   C1A53787  38.449  25.254   6.453
 9192POPC   D2A53788  38.436  25.283   6.753
 9192POPC   C3A53789  38.489  25.301   7.053
 9192POPC   C4A53790  38.458  25.301   7.353
 9192POPC   C1B53791  38.704  25.329   6.453
 9192POPC   C2B53792  38.730  25.291   6.753
 9192POPC   C3B53793  38.664  25.351   7.053
 9192POPC   C4B53794  38.704  25.350   7.353
 9193POPC   NC353795  12.827   1.971   5.553
 9193POPC   PO453796  12.804   1.956   5.853
 9193POPC   GL153797  12.829   1.965   6.153
 9193POPC   GL253798  12.981   2.050   6.153
 9193POPC   C1A53799  12.857   1.971   6.453
 9193POPC   D2A53800  12.809   1.941   6.753
 9193POPC   C3A53801  12.897   1.978   7.053
 9193POPC   C4A53802  12.857   1.962   7.353
 9193POPC   C1B53803  13.130   2.119   6.453
 9193POPC   C2B53804  13.071   2.078   6.753
 9193POPC   C3B53805  13.091   2.091   7.053
 9193POPC   C4B53806  13.072   2.031   7.353
 9194POPC   NC353807   5.123  38.483   5.553
 9194POPC   PO453808   5.117  38.484   5.853
 9194POPC   GL153809   5.104  38.468   6.153
 9194POPC   GL253810   4.956  38.344   6.153
 9194POPC   C1A53811   5.127  38.426   6.453
 9194POPC   D2A53812   5.126  38.422   6.753
 9194POPC   C3A53813   5.065  38.424   7.053
 9194POPC   C4A53814   5.088  38.478   7.353
 9194POPC   C1B53815   4.849  38.364   6.453
 9194POPC   C2B53816   4.881  38.275   6.753
 9194POPC   C3B53817   4.870  38.336   7.053
 9194POPC   C4B53818   4.909  38.296   7.353
 9195POPC   NC353819  24.476  13.594   5.553
 9195POPC   PO453820  24.511  13.589   5.853
 9195POPC   GL153821  24.487  13.658   6.153
 9195POPC   GL253822  24.445  13.519   6.153
 9195POPC   C1A53823  24.468  13.623   6.453
 9195POPC   D2A53824  24.467  13.657   6.753
 9195POPC   C3A53825  24.529  13.632   7.053
 9195POPC   C4A53826  24.506  13.580   7.353
 9195POPC   C1B53827  24.340  13.370   6.453
 9195POPC   C2B53828  24.375  13.375   6.753
 9195POPC   C3B53829  24.315  13.376   7.053
 9195POPC   C4B53830  24.314  13.459   7.353
 9196POPC   NC353831  31.436  43.098   5.553
 9196POPC   PO453832  31.454  43.113   5.853
 9196POPC   GL153833  31.517  43.133   6.153
 9196POPC   GL253834  31.339  43.049   6.153
 9196POPC   C1A53835  31.440  43.124   6.453
 9196POPC   D2A53836  31.521  43.101   6.753
 9196POPC   C3A53837  31.489  43.139   7.053
 9196POPC   C4A53838  31.471  43.067   7.353
 9196POPC   C1B53839  31.291  42.920   6.453
 9196POPC   C2B53840  31.267  43.012   6.753
 9196POPC   C3B53841  31.254  43.004   7.053
 9196POPC   C4B53842  31.312  42.965   7.353
 9197POPC   NC353843  18.283  31.465   5.553
 9197POPC   PO453844  18.252  31.466   5.853
 9197POPC   GL153845  18.296  31.522   6.153
 9197POPC   GL253846  18.235  31.315   6.153
 9197POPC   C1A53847  18.288  31.449   6.453
 9197POPC   D2A53848  18.293  31.506   6.753
 9197POPC   C3A53849  18.287  31.504   7.053
 9197POPC   C4A53850  18.304  31.433   7.353
 9197POPC   C1B53851  18.259  31.197   6.453
 9197POPC   C2B53852  18.236  31.258   6.753
 9197POPC   C3B53853  18.234  31.211   7.053
 9197POPC   C4B53854  18.202  31.238   7.353
 9198POPC   NC353855  16.683  20.594   5.553
 9198POPC   PO453856  16.714  20.562   5.853
 9198POPC   GL153857  16.768  20.605   6.153
 9198POPC   GL253858  16.796  20.688   6.153
 9198POPC   C1A53859  16.733  20.603   6.453
 9198POPC   D2A53860  16.729  20.577   6.753
 9198POPC   C3A53861  16.739  20.607   7.053
 9198POPC   C4A53862  16.724  20.560   7.353
 9198POPC   C1B53863  16.937  20.790   6.453
 9198POPC   C2B53864  16.849  20.809   6.753
 9198POPC   C3B53865  16.886  20.842   7.053
 9198POPC   C4B53866  16.933  20.804   7.353
 9199POPC   NC353867  39.238  22.923   5.553
 9199POPC   PO453868  39.271  22.904   5.853
 9199POPC   GL153869  39.264  22.907   6.153
 9199POPC   GL253870  39.229  23.036   6.153
 9199POPC   C1A53871  39.199  22.973   6.453
 9199POPC   D2A53872  39.251  22.930   6.753
 9199POPC   C3A53873  39.219  22.954   7.053
 9199POPC   C4A53874  39.222  22.889   7.353
 9199POPC   C1B53875  39.115  23.147   6.453
 9199POPC   C2B53876  39.137  23.209   6.753
 9199POPC   C3B53877  39.104  23.161   7.053
 9199POPC   C4B53878  39.163  23.168   7.353
 9200POPC   NC353879  36.911   6.614   5.553
 9200POPC   PO453880  36.934   6.673   5.853
 9200POPC   GL153881  36.936   6.614   6.153
 9200POPC   GL253882  36.773   6.548   6.153
 9200POPC   C1A53883  36.858   6.687   6.453
 9200POPC   D2A53884  36.911   6.620   6.753
 9200POPC   C3A53885  36.915   6.618   7.053
 9200POPC   C4A53886  36.942   6.638   7.353
 9200POPC   C1B53887  36.643   6.551   6.453
 9200POPC   C2B53888  36.667   6.524   6.753
 9200POPC   C3B53889  36.661   6.535   7.053
 9200POPC   C4B53890  36.700   6.497   7.353
 9201POPC   NC353891  19.829  42.338   5.553
 9201POPC   PO453892  19.871  42.380   5.853
 9201POPC   GL153893  19.803  42.300   6.153
 9201POPC   GL253894  19.924  42.227   6.153
 9201POPC   C1A53895  19.791  42.325   6.453
 9201POPC   D2A53896  19.818  42.380   6.753
 9201POPC   C3A53897  19.791  42.326   7.053
 9201POPC   C4A53898  19.804  42.300   7.353
 9201POPC   C1B53899  19.906  42.147   6.453
 9201POPC   C2B53900  19.965  42.091   6.753
 9201POPC   C3B53901  19.907  42.095   7.053
 9201POPC   C4B53902  19.917  42.127   7.353
 9202POPC   NC353903  32.266  36.165   5.553
 9202POPC   PO453904  32.267  36.111   5.853
 9202POPC   GL153905  32.206  36.109   6.153
 9202POPC   GL253906  32.217  36.231   6.153
 9202POPC   C1A53907  32.225  36.112   6.453
 9202POPC   D2A53908  32.248  36.149   6.753
 9202POPC   C3A53909  32.211  36.125   7.053
 9202POPC   C4A53910  32.226  36.175   7.353
 9202POPC   C1B53911  32.155  36.345   6.453
 9202POPC   C2B53912  32.244  36.377   6.753
 9202POPC   C3B53913  32.247  36.383   7.053
 9202POPC   C4B53914  32.232  36.369   7.353
 9203POPC   NC353915  22.920   8.972   5.553
 9203POPC   PO453916  22.969   9.001   5.853
 9203POPC   GL153917  22.951   8.981   6.153
 9203POPC   GL253918  22.797   9.069   6.153
 9203POPC   C1A53919  22.913   8.966   6.453
 9203POPC   D2A53920  22.907   8.939   6.753
 9203POPC   C3A53921  22.903   8.927   7.053
 9203POPC   C4A53922  22.912   8.932   7.353
 9203POPC   C1B53923  22.753   9.095   6.453
 9203POPC   C2B53924  22.720   9.066   6.753
 9203POPC   C3B53925  22.767   9.087   7.053
 9203POPC   C4B53926  22.714   9.122   7.353
 9204POPC   NC353927  26.061  40.043   5.553
 9204POPC   PO453928  26.031  40.004   5.853
 9204POPC   GL153929  25.995  40.039   6.153
 9204POPC   GL253930  26.053  40.082   6.153
 9204POPC   C1A53931  26.039  40.030   6.453
 9204POPC   D2A53932  26.007  40.031   6.753
 9204POPC   C3A53933  26.025  40.046   7.053
 9204POPC   C4A53934  26.045  40.023   7.353
 9204POPC   C1B53935  26.054  40.287   6.453
 9204POPC   C2B53936  26.010  40.236   6.753
 9204POPC   C3B53937  26.017  40.287   7.053
 9204POPC   C4B53938  26.045  40.238   7.353
 9205POPC   NC353939  43.889  15.999   5.553
 9205POPC   PO453940  43.910  15.990   5.853
 9205POPC   GL153941  43.929  15.983   6.153
 9205POPC   GL253942  43.906  16.081   6.153
 9205POPC   C1A53943  43.907  15.936   6.453
 9205POPC   D2A53944  43.916  16.000   6.753
 9205POPC   C3A53945  43.924  15.973   7.053
 9205POPC   C4A53946  43.862  15.958   7.353
 9205POPC   C1B53947  43.931  16.233   6.453
 9205POPC   C2B53948  43.956  16.233   6.753
 9205POPC   C3B53949  43.944  16.227   7.053
 9205POPC   C4B53950  43.968  16.213   7.353
 9206POPC   NC353951   9.011   7.470   5.553
 9206POPC   PO453952   9.014   7.456   5.853
 9206POPC   GL153953   8.979   7.453   6.153
 9206POPC   GL253954   8.820   7.383   6.153
 9206POPC   C1A53955   8.923   7.464   6.453
 9206POPC   D2A53956   8.959   7.405   6.753
 9206POPC   C3A53957   8.993   7.442   7.053
 9206POPC   C4A53958   8.945   7.437   7.353
 9206POPC   C1B53959   8.751   7.277   6.453
 9206POPC   C2B53960   8.728   7.269   6.753
 9206POPC   C3B53961   8.709   7.272   7.053
 9206POPC   C4B53962   8.801   7.301   7.353
 9207POPC   NC353963  10.532  10.532   5.553
 9207POPC   PO453964  10.537  10.526   5.853
 9207POPC   GL153965  10.531  10.488   6.153
 9207POPC   GL253966  10.362  10.574   6.153
 9207POPC   C1A53967  10.549  10.561   6.453
 9207POPC   D2A53968  10.479  10.558   6.753
 9207POPC   C3A53969  10.482  10.541   7.053
 9207POPC   C4A53970  10.545  10.483   7.353
 9207POPC   C1B53971  10.292  10.583   6.453
 9207POPC   C2B53972  10.234  10.544   6.753
 9207POPC   C3B53973  10.297  10.611   7.053
 9207POPC   C4B53974  10.294  10.608   7.353
 9208POPC   NC353975  39.971  44.619   5.553
 9208POPC   PO453976  39.961  44.626   5.853
 9208POPC   GL153977  40.018  44.615   6.153
 9208POPC   GL253978  40.103  44.800   6.153
 9208POPC   C1A53979  40.023  44.632   6.453
 9208POPC   D2A53980  40.029  44.622   6.753
 9208POPC   C3A53981  40.047  44.619   7.053
 9208POPC   C4A53982  39.987  44.641   7.353
 9208POPC   C1B53983  40.194  44.812   6.453
 9208POPC   C2B53984  40.156  44.817   6.753
 9208POPC   C3B53985  40.124  44.842   7.053
 9208POPC   C4B53986  40.167  44.808   7.353
 9209POPC   NC353987  12.074  17.474   5.553
 9209POPC   PO453988  12.061  17.516   5.853
 9209POPC   GL153989  12.097  17.484   6.153
 9209POPC   GL253990  12.171  17.509   6.153
 9209POPC   C1A53991  12.041  17.503   6.453
 9209POPC   D2A53992  12.104  17.466   6.753
 9209POPC   C3A53993  12.051  17.465   7.053
 9209POPC   C4A53994  12.057  17.529   7.353
 9209POPC   C1B53995  12.325  17.617   6.453
 9209POPC   C2B53996  12.310  17.611   6.753
 9209POPC   C3B53997  12.293  17.558   7.053
 9209POPC   C4B53998  12.265  17.572   7.353
 9210POPC   NC353999  33.835  33.768   5.553
 9210POPC   PO454000  33.837  33.822   5.853
 9210POPC   GL154001  33.764  33.795   6.153
 9210POPC   GL254002  33.744  33.691   6.153
 9210POPC   C1A54003  33.846  33.848   6.453
 9210POPC   D2A54004  33.848  33.787   6.753
 9210POPC   C3A54005  33.765  33.843   7.053
 9210POPC   C4A54006  33.803  33.794   7.353
 9210POPC   C1B54007  33.787  33.545   6.453
 9210POPC   C2B54008  33.737  33.564   6.753
 9210POPC   C3B54009  33.779  33.552   7.053
 9210POPC   C4B54010  33.775  33.533   7.353
 9211POPC   NC354011  29.923  39.210   5.553
 9211POPC   PO454012  29.936  39.214   5.853
 9211POPC   GL154013  29.959  39.235   6.153
 9211POPC   GL254014  30.030  39.099   6.153
 9211POPC   C1A54015  29.874  39.252   6.453
 9211POPC   D2A54016  29.912  39.219   6.753
 9211POPC   C3A54017  29.886  39.193   7.053
 9211POPC   C4A54018  29.876  39.212   7.353
 9211POPC   C1B54019  30.060  39.053   6.453
 9211POPC   C2B54020  30.086  39.041   6.753
 9211POPC   C3B54021  30.041  39.002   7.053
 9211POPC   C4B54022  30.120  39.069   7.353
 9212POPC   NC354023  17.500  36.920   5.553
 9212POPC   PO454024  17.555  36.916   5.853
 9212POPC   GL154025  17.553  36.889   6.153
 9212POPC   GL254026  17.477  37.024   6.153
 9212POPC   C1A54027  17.549  36.918   6.453
 9212POPC   D2A54028  17.462  36.906   6.753
 9212POPC   C3A54029  17.462  36.938   7.053
 9212POPC   C4A54030  17.480  36.876   7.353
 9212POPC   C1B54031  17.410  37.136   6.453
 9212POPC   C2B54032  17.403  37.087   6.753
 9212POPC   C3B54033  17.349  37.154   7.053
 9212POPC   C4B54034  17.398  37.137   7.353
 9213POPC   NC354035  17.535  28.325   5.553
 9213POPC   PO454036  17.491  28.372   5.853
 9213POPC   GL154037  17.511  28.335   6.153
 9213POPC   GL254038  17.610  28.395   6.153
 9213POPC   C1A54039  17.474  28.351   6.453
 9213POPC   D2A54040  17.527  28.332   6.753
 9213POPC   C3A54041  17.462  28.345   7.053
 9213POPC   C4A54042  17.469  28.391   7.353
 9213POPC   C1B54043  17.705  28.476   6.453
 9213POPC   C2B54044  17.749  28.456   6.753
 9213POPC   C3B54045  17.681  28.480   7.053
 9213POPC   C4B54046  17.734  28.507   7.353
 9214POPC   NC354047  40.811  26.069   5.553
 9214POPC   PO454048  40.772  26.081   5.853
 9214POPC   GL154049  40.806  26.047   6.153
 9214POPC   GL254050  40.701  26.133   6.153
 9214POPC   C1A54051  40.775  26.039   6.453
 9214POPC   D2A54052  40.798  26.076   6.753
 9214POPC   C3A54053  40.821  26.037   7.053
 9214POPC   C4A54054  40.733  26.060   7.353
 9214POPC   C1B54055  40.640  26.221   6.453
 9214POPC   C2B54056  40.630  26.216   6.753
 9214POPC   C3B54057  40.646  26.249   7.053
 9214POPC   C4B54058  40.653  26.255   7.353
 9215POPC   NC354059  14.416  12.057   5.553
 9215POPC   PO454060  14.418  12.111   5.853
 9215POPC   GL154061  14.390  12.033   6.153
 9215POPC   GL254062  14.483  12.229   6.153
 9215POPC   C1A54063  14.450  12.117   6.453
 9215POPC   D2A54064  14.406  12.062   6.753
 9215POPC   C3A54065  14.360  12.048   7.053
 9215POPC   C4A54066  14.416  12.113   7.353
 9215POPC   C1B54067  14.520  12.323   6.453
 9215POPC   C2B54068  14.467  12.323   6.753
 9215POPC   C3B54069  14.464  12.281   7.053
 9215POPC   C4B54070  14.465  12.258   7.353
 9216POPC   NC354071  33.067  27.587   5.553
 9216POPC   PO454072  33.053  27.608   5.853
 9216POPC   GL154073  33.029  27.578   6.153
 9216POPC   GL254074  33.015  27.422   6.153
 9216POPC   C1A54075  33.024  27.636   6.453
 9216POPC   D2A54076  33.048  27.637   6.753
 9216POPC   C3A54077  33.021  27.550   7.053
 9216POPC   C4A54078  33.053  27.546   7.353
 9216POPC   C1B54079  32.966  27.310   6.453
 9216POPC   C2B54080  32.985  27.318   6.753
 9216POPC   C3B54081  32.930  27.299   7.053
 9216POPC   C4B54082  33.018  27.332   7.353
 9217POPC   NC354083   2.738  42.335   5.553
 9217POPC   PO454084   2.773  42.374   5.853
 9217POPC   GL154085   2.731  42.349   6.153
 9217POPC   GL254086   2.830  42.181   6.153
 9217POPC   C1A54087   2.721  42.342   6.453
 9217POPC   D2A54088   2.726  42.318   6.753
 9217POPC   C3A54089   2.750  42.316   7.053
 9217POPC   C4A54090   2.742  42.289   7.353
 9217POPC   C1B54091   2.878  42.070   6.453
 9217POPC   C2B54092   2.879  42.123   6.753
 9217POPC   C3B54093   2.886  42.066   7.053
 9217POPC   C4B54094   2.884  42.073   7.353
 9218POPC   NC354095  37.674   5.122   5.553
 9218POPC   PO454096  37.676   5.121   5.853
 9218POPC   GL154097  37.654   5.105   6.153
 9218POPC   GL254098  37.655   5.246   6.153
 9218POPC   C1A54099  37.664   5.059   6.453
 9218POPC   D2A54100  37.719   5.121   6.753
 9218POPC   C3A54101  37.699   5.080   7.053
 9218POPC   C4A54102  37.726   5.047   7.353
 9218POPC   C1B54103  37.575   5.370   6.453
 9218POPC   C2B54104  37.590   5.285   6.753
 9218POPC   C3B54105  37.611   5.310   7.053
 9218POPC   C4B54106  37.581   5.317   7.353
 9219POPC   NC354107  25.999  24.450   5.553
 9219POPC   PO454108  26.015  24.512   5.853
 9219POPC   GL154109  26.046  24.464   6.153
 9219POPC   GL254110  26.113  24.553   6.153
 9219POPC   C1A54111  26.064  24.471   6.453
 9219POPC   D2A54112  26.040  24.471   6.753
 9219POPC   C3A54113  26.031  24.506   7.053
 9219POPC   C4A54114  26.091  24.483   7.353
 9219POPC   C1B54115  26.255  24.713   6.453
 9219POPC   C2B54116  26.185  24.714   6.753
 9219POPC   C3B54117  26.264  24.706   7.053
 9219POPC   C4B54118  26.250  24.624   7.353
 9220POPC   NC354119  14.430  22.117   5.553
 9220POPC   PO454120  14.359  22.192   5.853
 9220POPC   GL154121  14.402  22.202   6.153
 9220POPC   GL254122  14.284  22.241   6.153
 9220POPC   C1A54123  14.419  22.194   6.453
 9220POPC   D2A54124  14.383  22.136   6.753
 9220POPC   C3A54125  14.401  22.119   7.053
 9220POPC   C4A54126  14.400  22.138   7.353
 9220POPC   C1B54127  14.250  22.390   6.453
 9220POPC   C2B54128  14.273  22.385   6.753
 9220POPC   C3B54129  14.226  22.328   7.053
 9220POPC   C4B54130  14.254  22.323   7.353
 9221POPC   NC354131  29.116  23.747   5.553
 9221POPC   PO454132  29.132  23.729   5.853
 9221POPC   GL154133  29.164  23.670   6.153
 9221POPC   GL254134  29.254  23.753   6.153
 9221POPC   C1A54135  29.143  23.697   6.453
 9221POPC   D2A54136  29.146  23.706   6.753
 9221POPC   C3A54137  29.183  23.667   7.053
 9221POPC   C4A54138  29.131  23.690   7.353
 9221POPC   C1B54139  29.390  23.822   6.453
 9221POPC   C2B54140  29.343  23.817   6.753
 9221POPC   C3B54141  29.340  23.791   7.053
 9221POPC   C4B54142  29.395  23.740   7.353
 9222POPC   NC354143  26.088  38.499   5.553
 9222POPC   PO454144  26.088  38.454   5.853
 9222POPC   GL154145  26.063  38.452   6.153
 9222POPC   GL254146  26.162  38.343   6.153
 9222POPC   C1A54147  25.998  38.405   6.453
 9222POPC   D2A54148  26.025  38.499   6.753
 9222POPC   C3A54149  26.078  38.486   7.053
 9222POPC   C4A54150  26.030  38.501   7.353
 9222POPC   C1B54151  26.184  38.219   6.453
 9222POPC   C2B54152  26.193  38.242   6.753
 9222POPC   C3B54153  26.211  38.294   7.053
 9222POPC   C4B54154  26.205  38.230   7.353
 9223POPC   NC354155  15.953   1.955   5.553
 9223POPC   PO454156  15.991   2.020   5.853
 9223POPC   GL154157  15.968   2.027   6.153
 9223POPC   GL254158  16.056   2.008   6.153
 9223POPC   C1A54159  16.002   2.002   6.453
 9223POPC   D2A54160  16.000   1.948   6.753
 9223POPC   C3A54161  15.934   2.001   7.053
 9223POPC   C4A54162  15.971   1.960   7.353
 9223POPC   C1B54163  16.189   2.149   6.453
 9223POPC   C2B54164  16.223   2.056   6.753
 9223POPC   C3B54165  16.146   2.115   7.053
 9223POPC   C4B54166  16.222   2.086   7.353
 9224POPC   NC354167  29.939  31.469   5.553
 9224POPC   PO454168  29.887  31.465   5.853
 9224POPC   GL154169  29.905  31.515   6.153
 9224POPC   GL254170  29.968  31.368   6.153
 9224POPC   C1A54171  29.892  31.463   6.453
 9224POPC   D2A54172  29.929  31.515   6.753
 9224POPC   C3A54173  29.916  31.485   7.053
 9224POPC   C4A54174  29.945  31.488   7.353
 9224POPC   C1B54175  30.021  31.264   6.453
 9224POPC   C2B54176  30.015  31.271   6.753
 9224POPC   C3B54177  30.061  31.253   7.053
 9224POPC   C4B54178  30.078  31.279   7.353
 9225POPC   NC354179  10.486   4.295   5.553
 9225POPC   PO454180  10.510   4.365   5.853
 9225POPC   GL154181  10.483   4.301   6.153
 9225POPC   GL254182  10.425   4.361   6.153
 9225POPC   C1A54183  10.545   4.283   6.453
 9225POPC   D2A54184  10.487   4.277   6.753
 9225POPC   C3A54185  10.496   4.361   7.053
 9225POPC   C4A54186  10.547   4.296   7.353
 9225POPC   C1B54187  10.290   4.413   6.453
 9225POPC   C2B54188  10.321   4.445   6.753
 9225POPC   C3B54189  10.342   4.426   7.053
 9225POPC   C4B54190  10.292   4.453   7.353
 9226POPC   NC354191  21.346  17.483   5.553
 9226POPC   PO454192  21.378  17.532   5.853
 9226POPC   GL154193  21.353  17.552   6.153
 9226POPC   GL254194  21.247  17.460   6.153
 9226POPC   C1A54195  21.344  17.473   6.453
 9226POPC   D2A54196  21.435  17.525   6.753
 9226POPC   C3A54197  21.379  17.546   7.053
 9226POPC   C4A54198  21.405  17.490   7.353
 9226POPC   C1B54199  21.099  17.470   6.453
 9226POPC   C2B54200  21.130  17.434   6.753
 9226POPC   C3B54201  21.170  17.503   7.053
 9226POPC   C4B54202  21.131  17.473   7.353
 9227POPC   NC354203  31.479  43.860   5.553
 9227POPC   PO454204  31.462  43.931   5.853
 9227POPC   GL154205  31.513  43.856   6.153
 9227POPC   GL254206  31.564  43.755   6.153
 9227POPC   C1A54207  31.471  43.885   6.453
 9227POPC   D2A54208  31.498  43.858   6.753
 9227POPC   C3A54209  31.441  43.915   7.053
 9227POPC   C4A54210  31.497  43.920   7.353
 9227POPC   C1B54211  31.689  43.694   6.453
 9227POPC   C2B54212  31.665  43.710   6.753
 9227POPC   C3B54213  31.643  43.668   7.053
 9227POPC   C4B54214  31.662  43.752   7.353
 9228POPC   NC354215  27.638  15.155   5.553
 9228POPC   PO454216  27.639  15.229   5.853
 9228POPC   GL154217  27.596  15.189   6.153
 9228POPC   GL254218  27.473  15.211   6.153
 9228POPC   C1A54219  27.565  15.139   6.453
 9228POPC   D2A54220  27.570  15.144   6.753
 9228POPC   C3A54221  27.629  15.219   7.053
 9228POPC   C4A54222  27.549  15.138   7.353
 9228POPC   C1B54223  27.375  15.342   6.453
 9228POPC   C2B54224  27.407  15.363   6.753
 9228POPC   C3B54225  27.398  15.339   7.053
 9228POPC   C4B54226  27.347  15.332   7.353
 9229POPC   NC354227  36.911   9.748   5.553
 9229POPC   PO454228  36.904   9.783   5.853
 9229POPC   GL154229  36.871   9.795   6.153
 9229POPC   GL254230  37.036   9.797   6.153
 9229POPC   C1A54231  36.909   9.793   6.453
 9229POPC   D2A54232  36.890   9.745   6.753
 9229POPC   C3A54233  36.907   9.701   7.053
 9229POPC   C4A54234  36.894   9.729   7.353
 9229POPC   C1B54235  37.170   9.804   6.453
 9229POPC   C2B54236  37.198   9.760   6.753
 9229POPC   C3B54237  37.178   9.753   7.053
 9229POPC   C4B54238  37.170   9.756   7.353
 9230POPC   NC354239  39.183  41.568   5.553
 9230POPC   PO454240  39.239  41.548   5.853
 9230POPC   GL154241  39.269  41.553   6.153
 9230POPC   GL254242  39.105  41.478   6.153
 9230POPC   C1A54243  39.264  41.525   6.453
 9230POPC   D2A54244  39.251  41.596   6.753
 9230POPC   C3A54245  39.186  41.534   7.053
 9230POPC   C4A54246  39.212  41.521   7.353
 9230POPC   C1B54247  39.014  41.464   6.453
 9230POPC   C2B54248  38.989  41.457   6.753
 9230POPC   C3B54249  38.972  41.478   7.053
 9230POPC   C4B54250  39.041  41.476   7.353
 9231POPC   NC354251  10.507  25.286   5.553
 9231POPC   PO454252  10.517  25.272   5.853
 9231POPC   GL154253  10.513  25.308   6.153
 9231POPC   GL254254  10.433  25.134   6.153
 9231POPC   C1A54255  10.570  25.262   6.453
 9231POPC   D2A54256  10.536  25.300   6.753
 9231POPC   C3A54257  10.554  25.276   7.053
 9231POPC   C4A54258  10.503  25.220   7.353
 9231POPC   C1B54259  10.342  25.085   6.453
 9231POPC   C2B54260  10.406  25.023   6.753
 9231POPC   C3B54261  10.369  25.083   7.053
 9231POPC   C4B54262  10.419  25.070   7.353
 9232POPC   NC354263   2.737  35.397   5.553
 9232POPC   PO454264   2.735  35.333   5.853
 9232POPC   GL154265   2.796  35.397   6.153
 9232POPC   GL254266   2.838  35.224   6.153
 9232POPC   C1A54267   2.728  35.372   6.453
 9232POPC   D2A54268   2.812  35.314   6.753
 9232POPC   C3A54269   2.750  35.320   7.053
 9232POPC   C4A54270   2.719  35.398   7.353
 9232POPC   C1B54271   2.917  35.114   6.453
 9232POPC   C2B54272   2.840  35.165   6.753
 9232POPC   C3B54273   2.901  35.111   7.053
 9232POPC   C4B54274   2.889  35.094   7.353
 9233POPC   NC354275  32.274  12.115   5.553
 9233POPC   PO454276  32.267  12.092   5.853
 9233POPC   GL154277  32.210  12.112   6.153
 9233POPC   GL254278  32.284  12.219   6.153
 9233POPC   C1A54279  32.228  12.058   6.453
 9233POPC   D2A54280  32.257  12.083   6.753
 9233POPC   C3A54281  32.262  12.047   7.053
 9233POPC   C4A54282  32.203  12.126   7.353
 9233POPC   C1B54283  32.304  12.274   6.453
 9233POPC   C2B54284  32.311  12.300   6.753
 9233POPC   C3B54285  32.320  12.327   7.053
 9233POPC   C4B54286  32.274  12.301   7.353
 9234POPC   NC354287  36.164  23.684   5.553
 9234POPC   PO454288  36.171  23.716   5.853
 9234POPC   GL154289  36.087  23.745   6.153
 9234POPC   GL254290  36.257  23.781   6.153
 9234POPC   C1A54291  36.097  23.732   6.453
 9234POPC   D2A54292  36.115  23.680   6.753
 9234POPC   C3A54293  36.135  23.678   7.053
 9234POPC   C4A54294  36.176  23.750   7.353
 9234POPC   C1B54295  36.300  23.882   6.453
 9234POPC   C2B54296  36.298  23.863   6.753
 9234POPC   C3B54297  36.363  23.900   7.053
 9234POPC   C4B54298  36.359  23.900   7.353
 9235POPC   NC354299  26.830   1.169   5.553
 9235POPC   PO454300  26.844   1.233   5.853
 9235POPC   GL154301  26.797   1.243   6.153
 9235POPC   GL254302  26.836   1.068   6.153
 9235POPC   C1A54303  26.776   1.232   6.453
 9235POPC   D2A54304  26.800   1.263   6.753
 9235POPC   C3A54305  26.794   1.196   7.053
 9235POPC   C4A54306  26.811   1.226   7.353
 9235POPC   C1B54307  26.900   1.019   6.453
 9235POPC   C2B54308  26.912   1.014   6.753
 9235POPC   C3B54309  26.882   0.952   7.053
 9235POPC   C4B54310  26.859   0.996   7.353
 9236POPC   NC354311  18.262   1.168   5.553
 9236POPC   PO454312  18.265   1.253   5.853
 9236POPC   GL154313  18.328   1.215   6.153
 9236POPC   GL254314  18.306   1.073   6.153
 9236POPC   C1A54315  18.294   1.176   6.453
 9236POPC   D2A54316  18.306   1.224   6.753
 9236POPC   C3A54317  18.274   1.166   7.053
 9236POPC   C4A54318  18.236   1.240   7.353
 9236POPC   C1B54319  18.311   0.966   6.453
 9236POPC   C2B54320  18.231   0.993   6.753
 9236POPC   C3B54321  18.252   1.012   7.053
 9236POPC   C4B54322  18.325   0.984   7.353
 9237POPC   NC354323  13.665  25.257   5.553
 9237POPC   PO454324  13.616  25.266   5.853
 9237POPC   GL154325  13.646  25.223   6.153
 9237POPC   GL254326  13.668  25.117   6.153
 9237POPC   C1A54327  13.632  25.303   6.453
 9237POPC   D2A54328  13.625  25.217   6.753
 9237POPC   C3A54329  13.594  25.234   7.053
 9237POPC   C4A54330  13.620  25.313   7.353
 9237POPC   C1B54331  13.695  25.033   6.453
 9237POPC   C2B54332  13.713  25.051   6.753
 9237POPC   C3B54333  13.745  25.053   7.053
 9237POPC   C4B54334  13.742  25.027   7.353
 9238POPC   NC354335  33.755   5.883   5.553
 9238POPC   PO454336  33.769   5.881   5.853
 9238POPC   GL154337  33.803   5.837   6.153
 9238POPC   GL254338  33.944   5.829   6.153
 9238POPC   C1A54339  33.845   5.841   6.453
 9238POPC   D2A54340  33.767   5.902   6.753
 9238POPC   C3A54341  33.763   5.877   7.053
 9238POPC   C4A54342  33.785   5.856   7.353
 9238POPC   C1B54343  34.039   5.860   6.453
 9238POPC   C2B54344  34.048   5.883   6.753
 9238POPC   C3B54345  34.089   5.819   7.053
 9238POPC   C4B54346  34.067   5.836   7.353
 9239POPC   NC354347  15.151  29.901   5.553
 9239POPC   PO454348  15.205  29.912   5.853
 9239POPC   GL154349  15.187  29.893   6.153
 9239POPC   GL254350  15.043  29.853   6.153
 9239POPC   C1A54351  15.199  29.957   6.453
 9239POPC   D2A54352  15.160  29.955   6.753
 9239POPC   C3A54353  15.174  29.944   7.053
 9239POPC   C4A54354  15.194  29.907   7.353
 9239POPC   C1B54355  14.965  29.853   6.453
 9239POPC   C2B54356  14.999  29.777   6.753
 9239POPC   C3B54357  14.929  29.831   7.053
 9239POPC   C4B54358  14.969  29.823   7.353
 9240POPC   NC354359  14.413  40.013   5.553
 9240POPC   PO454360  14.424  40.054   5.853
 9240POPC   GL154361  14.370  40.027   6.153
 9240POPC   GL254362  14.442  39.912   6.153
 9240POPC   C1A54363  14.442  40.037   6.453
 9240POPC   D2A54364  14.411  39.985   6.753
 9240POPC   C3A54365  14.447  39.962   7.053
 9240POPC   C4A54366  14.424  40.006   7.353
 9240POPC   C1B54367  14.437  39.754   6.453
 9240POPC   C2B54368  14.456  39.774   6.753
 9240POPC   C3B54369  14.380  39.793   7.053
 9240POPC   C4B54370  14.433  39.719   7.353
 9241POPC   NC354371  13.612   5.073   5.553
 9241POPC   PO454372  13.672   5.103   5.853
 9241POPC   GL154373  13.594   5.053   6.153
 9241POPC   GL254374  13.689   4.953   6.153
 9241POPC   C1A54375  13.667   5.104   6.453
 9241POPC   D2A54376  13.673   5.048   6.753
 9241POPC   C3A54377  13.605   5.121   7.053
 9241POPC   C4A54378  13.589   5.059   7.353
 9241POPC   C1B54379  13.727   4.845   6.453
 9241POPC   C2B54380  13.752   4.842   6.753
 9241POPC   C3B54381  13.726   4.852   7.053
 9241POPC   C4B54382  13.706   4.857   7.353
 9242POPC   NC354383  36.118   3.576   5.553
 9242POPC   PO454384  36.094   3.551   5.853
 9242POPC   GL154385  36.173   3.572   6.153
 9242POPC   GL254386  36.151   3.425   6.153
 9242POPC   C1A54387  36.174   3.533   6.453
 9242POPC   D2A54388  36.137   3.557   6.753
 9242POPC   C3A54389  36.112   3.539   7.053
 9242POPC   C4A54390  36.144   3.509   7.353
 9242POPC   C1B54391  36.151   3.339   6.453
 9242POPC   C2B54392  36.133   3.311   6.753
 9242POPC   C3B54393  36.136   3.267   7.053
 9242POPC   C4B54394  36.129   3.309   7.353
 9243POPC   NC354395  43.916  30.714   5.553
 9243POPC   PO454396  43.849  30.669   5.853
 9243POPC   GL154397  43.882  30.694   6.153
 9243POPC   GL254398  43.953  30.661   6.153
 9243POPC   C1A54399  43.874  30.713   6.453
 9243POPC   D2A54400  43.880  30.705   6.753
 9243POPC   C3A54401  43.900  30.702   7.053
 9243POPC   C4A54402  43.936  30.716   7.353
 9243POPC   C1B54403  44.165  30.571   6.453
 9243POPC   C2B54404  44.072  30.605   6.753
 9243POPC   C3B54405  44.111  30.629   7.053
 9243POPC   C4B54406  44.148  30.573   7.353
 9244POPC   NC354407  22.128   7.372   5.553
 9244POPC   PO454408  22.157   7.416   5.853
 9244POPC   GL154409  22.149   7.452   6.153
 9244POPC   GL254410  22.233   7.530   6.153
 9244POPC   C1A54411  22.128   7.402   6.453
 9244POPC   D2A54412  22.147   7.455   6.753
 9244POPC   C3A54413  22.196   7.461   7.053
 9244POPC   C4A54414  22.209   7.424   7.353
 9244POPC   C1B54415  22.208   7.669   6.453
 9244POPC   C2B54416  22.215   7.636   6.753
 9244POPC   C3B54417  22.269   7.632   7.053
 9244POPC   C4B54418  22.251   7.679   7.353
 9245POPC   NC354419  32.215  13.660   5.553
 9245POPC   PO454420  32.218  13.640   5.853
 9245POPC   GL154421  32.289  13.665   6.153
 9245POPC   GL254422  32.300  13.792   6.153
 9245POPC   C1A54423  32.293  13.624   6.453
 9245POPC   D2A54424  32.240  13.580   6.753
 9245POPC   C3A54425  32.227  13.613   7.053
 9245POPC   C4A54426  32.230  13.584   7.353
 9245POPC   C1B54427  32.262  13.881   6.453
 9245POPC   C2B54428  32.273  13.885   6.753
 9245POPC   C3B54429  32.313  13.892   7.053
 9245POPC   C4B54430  32.324  13.909   7.353
 9246POPC   NC354431   1.235   8.965   5.553
 9246POPC   PO454432   1.242   8.958   5.853
 9246POPC   GL154433   1.242   9.014   6.153
 9246POPC   GL254434   1.161   8.802   6.153
 9246POPC   C1A54435   1.226   8.978   6.453
 9246POPC   D2A54436   1.189   8.941   6.753
 9246POPC   C3A54437   1.191   9.000   7.053
 9246POPC   C4A54438   1.171   8.951   7.353
 9246POPC   C1B54439   1.177   8.681   6.453
 9246POPC   C2B54440   1.155   8.689   6.753
 9246POPC   C3B54441   1.208   8.720   7.053
 9246POPC   C4B54442   1.209   8.754   7.353
 9247POPC   NC354443   8.154  12.870   5.553
 9247POPC   PO454444   8.149  12.859   5.853
 9247POPC   GL154445   8.213  12.856   6.153
 9247POPC   GL254446   8.113  12.921   6.153
 9247POPC   C1A54447   8.177  12.859   6.453
 9247POPC   D2A54448   8.186  12.823   6.753
 9247POPC   C3A54449   8.214  12.872   7.053
 9247POPC   C4A54450   8.164  12.807   7.353
 9247POPC   C1B54451   8.014  12.990   6.453
 9247POPC   C2B54452   7.975  12.984   6.753
 9247POPC   C3B54453   8.013  13.023   7.053
 9247POPC   C4B54454   8.004  12.961   7.353
 9248POPC   NC354455  40.013  38.432   5.553
 9248POPC   PO454456  39.996  38.475   5.853
 9248POPC   GL154457  40.033  38.489   6.153
 9248POPC   GL254458  40.085  38.408   6.153
 9248POPC   C1A54459  40.008  38.497   6.453
 9248POPC   D2A54460  40.029  38.474   6.753
 9248POPC   C3A54461  39.964  38.477   7.053
 9248POPC   C4A54462  40.015  38.436   7.353
 9248POPC   C1B54463  40.283  38.344   6.453
 9248POPC   C2B54464  40.250  38.325   6.753
 9248POPC   C3B54465  40.212  38.324   7.053
 9248POPC   C4B54466  40.202  38.387   7.353
 9249POPC   NC354467  30.658   2.751   5.553
 9249POPC   PO454468  30.663   2.779   5.853
 9249POPC   GL154469  30.739   2.803   6.153
 9249POPC   GL254470  30.523   2.759   6.153
 9249POPC   C1A54471  30.702   2.742   6.453
 9249POPC   D2A54472  30.711   2.801   6.753
 9249POPC   C3A54473  30.736   2.727   7.053
 9249POPC   C4A54474  30.659   2.747   7.353
 9249POPC   C1B54475  30.440   2.726   6.453
 9249POPC   C2B54476  30.455   2.743   6.753
 9249POPC   C3B54477  30.439   2.809   7.053
 9249POPC   C4B54478  30.436   2.789   7.353
 9250POPC   NC354479  28.349   5.882   5.553
 9250POPC   PO454480  28.412   5.822   5.853
 9250POPC   GL154481  28.322   5.883   6.153
 9250POPC   GL254482  28.397   6.001   6.153
 9250POPC   C1A54483  28.412   5.898   6.453
 9250POPC   D2A54484  28.384   5.902   6.753
 9250POPC   C3A54485  28.326   5.852   7.053
 9250POPC   C4A54486  28.321   5.845   7.353
 9250POPC   C1B54487  28.299   6.072   6.453
 9250POPC   C2B54488  28.320   6.091   6.753
 9250POPC   C3B54489  28.291   6.076   7.053
 9250POPC   C4B54490  28.339   6.103   7.353
 9251POPC   NC354491  40.031  30.666   5.553
 9251POPC   PO454492  39.994  30.717   5.853
 9251POPC   GL154493  39.957  30.699   6.153
 9251POPC   GL254494  39.922  30.696   6.153
 9251POPC   C1A54495  40.044  30.705   6.453
 9251POPC   D2A54496  39.966  30.662   6.753
 9251POPC   C3A54497  40.017  30.667   7.053
 9251POPC   C4A54498  40.015  30.652   7.353
 9251POPC   C1B54499  39.769  30.648   6.453
 9251POPC   C2B54500  39.773  30.694   6.753
 9251POPC   C3B54501  39.736  30.665   7.053
 9251POPC   C4B54502  39.714  30.661   7.353
 9252POPC   NC354503  42.331  19.035   5.553
 9252POPC   PO454504  42.289  19.017   5.853
 9252POPC   GL154505  42.358  19.015   6.153
 9252POPC   GL254506  42.383  19.145   6.153
 9252POPC   C1A54507  42.308  19.087   6.453
 9252POPC   D2A54508  42.357  19.035   6.753
 9252POPC   C3A54509  42.291  19.058   7.053
 9252POPC   C4A54510  42.359  19.020   7.353
 9252POPC   C1B54511  42.476  19.309   6.453
 9252POPC   C2B54512  42.474  19.287   6.753
 9252POPC   C3B54513  42.473  19.271   7.053
 9252POPC   C4B54514  42.457  19.326   7.353
 9253POPC   NC354515  18.285  12.866   5.553
 9253POPC   PO454516  18.284  12.897   5.853
 9253POPC   GL154517  18.326  12.853   6.153
 9253POPC   GL254518  18.306  12.970   6.153
 9253POPC   C1A54519  18.261  12.841   6.453
 9253POPC   D2A54520  18.308  12.840   6.753
 9253POPC   C3A54521  18.320  12.845   7.053
 9253POPC   C4A54522  18.252  12.820   7.353
 9253POPC   C1B54523  18.405  13.046   6.453
 9253POPC   C2B54524  18.337  13.046   6.753
 9253POPC   C3B54525  18.430  13.044   7.053
 9253POPC   C4B54526  18.370  13.102   7.353
 9254POPC   NC354527   9.775  26.850   5.553
 9254POPC   PO454528   9.729  26.789   5.853
 9254POPC   GL154529   9.701  26.840   6.153
 9254POPC   GL254530   9.727  26.926   6.153
 9254POPC   C1A54531   9.748  26.863   6.453
 9254POPC   D2A54532   9.699  26.800   6.753
 9254POPC   C3A54533   9.754  26.775   7.053
 9254POPC   C4A54534   9.713  26.777   7.353
 9254POPC   C1B54535   9.697  27.106   6.453
 9254POPC   C2B54536   9.740  27.053   6.753
 9254POPC   C3B54537   9.709  27.100   7.053
 9254POPC   C4B54538   9.714  27.111   7.353
 9255POPC   NC354539   5.888  23.718   5.553
 9255POPC   PO454540   5.909  23.711   5.853
 9255POPC   GL154541   5.867  23.705   6.153
 9255POPC   GL254542   5.943  23.824   6.153
 9255POPC   C1A54543   5.868  23.709   6.453
 9255POPC   D2A54544   5.892  23.675   6.753
 9255POPC   C3A54545   5.821  23.733   7.053
 9255POPC   C4A54546   5.843  23.727   7.353
 9255POPC   C1B54547   5.950  23.999   6.453
 9255POPC   C2B54548   5.946  23.987   6.753
 9255POPC   C3B54549   5.964  23.940   7.053
 9255POPC   C4B54550   5.953  23.945   7.353
 9256POPC   NC354551   5.885  25.248   5.553
 9256POPC   PO454552   5.899  25.269   5.853
 9256POPC   GL154553   5.876  25.281   6.153
 9256POPC   GL254554   5.733  25.275   6.153
 9256POPC   C1A54555   5.831  25.226   6.453
 9256POPC   D2A54556   5.841  25.224   6.753
 9256POPC   C3A54557   5.871  25.242   7.053
 9256POPC   C4A54558   5.900  25.263   7.353
 9256POPC   C1B54559   5.655  25.265   6.453
 9256POPC   C2B54560   5.588  25.277   6.753
 9256POPC   C3B54561   5.627  25.218   7.053
 9256POPC   C4B54562   5.641  25.258   7.353
 9257POPC   NC354563   6.601  36.160   5.553
 9257POPC   PO454564   6.628  36.083   5.853
 9257POPC   GL154565   6.622  36.086   6.153
 9257POPC   GL254566   6.555  36.209   6.153
 9257POPC   C1A54567   6.682  36.093   6.453
 9257POPC   D2A54568   6.670  36.143   6.753
 9257POPC   C3A54569   6.676  36.128   7.053
 9257POPC   C4A54570   6.689  36.143   7.353
 9257POPC   C1B54571   6.468  36.301   6.453
 9257POPC   C2B54572   6.485  36.281   6.753
 9257POPC   C3B54573   6.506  36.305   7.053
 9257POPC   C4B54574   6.507  36.307   7.353
 9258POPC   NC354575  41.531   1.205   5.553
 9258POPC   PO454576  41.587   1.211   5.853
 9258POPC   GL154577  41.599   1.214   6.153
 9258POPC   GL254578  41.664   1.124   6.153
 9258POPC   C1A54579  41.575   1.222   6.453
 9258POPC   D2A54580  41.564   1.226   6.753
 9258POPC   C3A54581  41.571   1.178   7.053
 9258POPC   C4A54582  41.604   1.187   7.353
 9258POPC   C1B54583  41.718   1.064   6.453
 9258POPC   C2B54584  41.713   1.058   6.753
 9258POPC   C3B54585  41.734   1.032   7.053
 9258POPC   C4B54586  41.700   1.089   7.353
 9259POPC   NC354587  37.660  27.543   5.553
 9259POPC   PO454588  37.703  27.577   5.853
 9259POPC   GL154589  37.655  27.627   6.153
 9259POPC   GL254590  37.762  27.593   6.153
 9259POPC   C1A54591  37.715  27.553   6.453
 9259POPC   D2A54592  37.686  27.586   6.753
 9259POPC   C3A54593  37.677  27.594   7.053
 9259POPC   C4A54594  37.721  27.550   7.353
 9259POPC   C1B54595  37.870  27.706   6.453
 9259POPC   C2B54596  37.889  27.667   6.753
 9259POPC   C3B54597  37.922  27.721   7.053
 9259POPC   C4B54598  37.939  27.650   7.353
 9260POPC   NC354599  43.078   4.315   5.553
 9260POPC   PO454600  43.136   4.282   5.853
 9260POPC   GL154601  43.105   4.340   6.153
 9260POPC   GL254602  43.080   4.205   6.153
 9260POPC   C1A54603  43.088   4.270   6.453
 9260POPC   D2A54604  43.148   4.361   6.753
 9260POPC   C3A54605  43.065   4.353   7.053
 9260POPC   C4A54606  43.136   4.277   7.353
 9260POPC   C1B54607  42.973   4.090   6.453
 9260POPC   C2B54608  42.992   4.098   6.753
 9260POPC   C3B54609  42.984   4.130   7.053
 9260POPC   C4B54610  42.973   4.046   7.353
 9261POPC   NC354611  38.415   1.172   5.553
 9261POPC   PO454612  38.425   1.180   5.853
 9261POPC   GL154613  38.445   1.253   6.153
 9261POPC   GL254614  38.524   1.119   6.153
 9261POPC   C1A54615  38.495   1.204   6.453
 9261POPC   D2A54616  38.432   1.250   6.753
 9261POPC   C3A54617  38.474   1.181   7.053
 9261POPC   C4A54618  38.469   1.233   7.353
 9261POPC   C1B54619  38.588   1.044   6.453
 9261POPC   C2B54620  38.625   0.995   6.753
 9261POPC   C3B54621  38.605   1.035   7.053
 9261POPC   C4B54622  38.555   1.017   7.353
 9262POPC   NC354623  14.363   8.222   5.553
 9262POPC   PO454624  14.405   8.196   5.853
 9262POPC   GL154625  14.399   8.201   6.153
 9262POPC   GL254626  14.327   8.093   6.153
 9262POPC   C1A54627  14.423   8.150   6.453
 9262POPC   D2A54628  14.370   8.220   6.753
 9262POPC   C3A54629  14.440   8.213   7.053
 9262POPC   C4A54630  14.436   8.170   7.353
 9262POPC   C1B54631  14.283   7.947   6.453
 9262POPC   C2B54632  14.286   7.984   6.753
 9262POPC   C3B54633  14.296   7.991   7.053
 9262POPC   C4B54634  14.267   7.996   7.353
 9263POPC   NC354635  23.701   9.703   5.553
 9263POPC   PO454636  23.724   9.777   5.853
 9263POPC   GL154637  23.694   9.779   6.153
 9263POPC   GL254638  23.643   9.900   6.153
 9263POPC   C1A54639  23.718   9.725   6.453
 9263POPC   D2A54640  23.731   9.736   6.753
 9263POPC   C3A54641  23.735   9.748   7.053
 9263POPC   C4A54642  23.728   9.733   7.353
 9263POPC   C1B54643  23.649  10.031   6.453
 9263POPC   C2B54644  23.620   9.992   6.753
 9263POPC   C3B54645  23.637   9.986   7.053
 9263POPC   C4B54646  23.683   9.950   7.353
 9264POPC   NC354647  40.828  18.259   5.553
 9264POPC   PO454648  40.829  18.268   5.853
 9264POPC   GL154649  40.779  18.284   6.153
 9264POPC   GL254650  40.860  18.245   6.153
 9264POPC   C1A54651  40.803  18.266   6.453
 9264POPC   D2A54652  40.749  18.325   6.753
 9264POPC   C3A54653  40.747  18.236   7.053
 9264POPC   C4A54654  40.754  18.323   7.353
 9264POPC   C1B54655  41.067  18.238   6.453
 9264POPC   C2B54656  41.062  18.231   6.753
 9264POPC   C3B54657  41.019  18.206   7.053
 9264POPC   C4B54658  41.021  18.252   7.353
 9265POPC   NC354659  33.038   5.832   5.553
 9265POPC   PO454660  33.022   5.836   5.853
 9265POPC   GL154661  33.055   5.878   6.153
 9265POPC   GL254662  33.049   5.778   6.153
 9265POPC   C1A54663  33.038   5.830   6.453
 9265POPC   D2A54664  33.066   5.853   6.753
 9265POPC   C3A54665  33.004   5.887   7.053
 9265POPC   C4A54666  33.005   5.859   7.353
 9265POPC   C1B54667  33.099   5.673   6.453
 9265POPC   C2B54668  33.137   5.684   6.753
 9265POPC   C3B54669  33.184   5.698   7.053
 9265POPC   C4B54670  33.194   5.678   7.353
 9266POPC   NC354671  17.473  19.833   5.553
 9266POPC   PO454672  17.502  19.805   5.853
 9266POPC   GL154673  17.556  19.858   6.153
 9266POPC   GL254674  17.566  19.707   6.153
 9266POPC   C1A54675  17.513  19.872   6.453
 9266POPC   D2A54676  17.548  19.801   6.753
 9266POPC   C3A54677  17.514  19.805   7.053
 9266POPC   C4A54678  17.539  19.821   7.353
 9266POPC   C1B54679  17.603  19.617   6.453
 9266POPC   C2B54680  17.597  19.617   6.753
 9266POPC   C3B54681  17.595  19.604   7.053
 9266POPC   C4B54682  17.567  19.631   7.353
 9267POPC   NC354683   9.792   5.854   5.553
 9267POPC   PO454684   9.700   5.893   5.853
 9267POPC   GL154685   9.736   5.878   6.153
 9267POPC   GL254686   9.825   5.913   6.153
 9267POPC   C1A54687   9.727   5.863   6.453
 9267POPC   D2A54688   9.770   5.820   6.753
 9267POPC   C3A54689   9.726   5.888   7.053
 9267POPC   C4A54690   9.791   5.856   7.353
 9267POPC   C1B54691  10.001   5.892   6.453
 9267POPC   C2B54692  10.018   5.907   6.753
 9267POPC   C3B54693   9.960   5.900   7.053
 9267POPC   C4B54694   9.998   5.922   7.353
 9268POPC   NC354695  19.058  15.175   5.553
 9268POPC   PO454696  19.075  15.189   5.853
 9268POPC   GL154697  19.105  15.156   6.153
 9268POPC   GL254698  19.063  15.038   6.153
 9268POPC   C1A54699  19.085  15.149   6.453
 9268POPC   D2A54700  19.093  15.134   6.753
 9268POPC   C3A54701  19.054  15.158   7.053
 9268POPC   C4A54702  19.079  15.197   7.353
 9268POPC   C1B54703  18.956  14.945   6.453
 9268POPC   C2B54704  18.986  14.967   6.753
 9268POPC   C3B54705  18.963  14.920   7.053
 9268POPC   C4B54706  18.964  14.911   7.353
 9269POPC   NC354707   5.119   8.202   5.553
 9269POPC   PO454708   5.106   8.192   5.853
 9269POPC   GL154709   5.107   8.182   6.153
 9269POPC   GL254710   5.116   8.112   6.153
 9269POPC   C1A54711   5.045   8.244   6.453
 9269POPC   D2A54712   5.050   8.177   6.753
 9269POPC   C3A54713   5.132   8.197   7.053
 9269POPC   C4A54714   5.091   8.201   7.353
 9269POPC   C1B54715   5.189   8.020   6.453
 9269POPC   C2B54716   5.285   8.033   6.753
 9269POPC   C3B54717   5.256   7.995   7.053
 9269POPC   C4B54718   5.271   7.983   7.353
 9270POPC   NC354719  37.683  26.084   5.553
 9270POPC   PO454720  37.701  26.087   5.853
 9270POPC   GL154721  37.656  26.013   6.153
 9270POPC   GL254722  37.842  26.038   6.153
 9270POPC   C1A54723  37.636  26.038   6.453
 9270POPC   D2A54724  37.635  26.058   6.753
 9270POPC   C3A54725  37.674  25.995   7.053
 9270POPC   C4A54726  37.709  26.023   7.353
 9270POPC   C1B54727  37.881  26.152   6.453
 9270POPC   C2B54728  37.898  26.089   6.753
 9270POPC   C3B54729  37.896  26.148   7.053
 9270POPC   C4B54730  37.871  26.086   7.353
 9271POPC   NC354731  13.649  41.519   5.553
 9271POPC   PO454732  13.620  41.523   5.853
 9271POPC   GL154733  13.598  41.541   6.153
 9271POPC   GL254734  13.460  41.510   6.153
 9271POPC   C1A54735  13.588  41.538   6.453
 9271POPC   D2A54736  13.589  41.528   6.753
 9271POPC   C3A54737  13.627  41.563   7.053
 9271POPC   C4A54738  13.671  41.517   7.353
 9271POPC   C1B54739  13.387  41.480   6.453
 9271POPC   C2B54740  13.349  41.511   6.753
 9271POPC   C3B54741  13.364  41.501   7.053
 9271POPC   C4B54742  13.389  41.458   7.353
 9272POPC   NC354743  38.438  40.053   5.553
 9272POPC   PO454744  38.461  40.025   5.853
 9272POPC   GL154745  38.451  40.006   6.153
 9272POPC   GL254746  38.356  39.865   6.153
 9272POPC   C1A54747  38.497  40.052   6.453
 9272POPC   D2A54748  38.406  40.008   6.753
 9272POPC   C3A54749  38.452  40.028   7.053
 9272POPC   C4A54750  38.424  40.042   7.353
 9272POPC   C1B54751  38.290  39.753   6.453
 9272POPC   C2B54752  38.326  39.801   6.753
 9272POPC   C3B54753  38.313  39.803   7.053
 9272POPC   C4B54754  38.345  39.776   7.353
 9273POPC   NC354755  22.983   8.217   5.553
 9273POPC   PO454756  22.956   8.241   5.853
 9273POPC   GL154757  22.952   8.238   6.153
 9273POPC   GL254758  22.928   8.098   6.153
 9273POPC   C1A54759  22.904   8.182   6.453
 9273POPC   D2A54760  22.974   8.167   6.753
 9273POPC   C3A54761  22.945   8.168   7.053
 9273POPC   C4A54762  22.968   8.181   7.353
 9273POPC   C1B54763  22.894   7.920   6.453
 9273POPC   C2B54764  22.947   7.950   6.753
 9273POPC   C3B54765  22.873   7.911   7.053
 9273POPC   C4B54766  22.863   7.971   7.353
 9274POPC   NC354767   1.962  44.655   5.553
 9274POPC   PO454768   1.946  44.702   5.853
 9274POPC   GL154769   2.032  44.682   6.153
 9274POPC   GL254770   2.082  44.642   6.153
 9274POPC   C1A54771   1.994  44.632   6.453
 9274POPC   D2A54772   1.991  44.670   6.753
 9274POPC   C3A54773   1.993  44.691   7.053
 9274POPC   C4A54774   1.951  44.660   7.353
 9274POPC   C1B54775   2.251  44.597   6.453
 9274POPC   C2B54776   2.223  44.567   6.753
 9274POPC   C3B54777   2.192  44.537   7.053
 9274POPC   C4B54778   2.266  44.570   7.353
 9275POPC   NC354779  27.584   1.243   5.553
 9275POPC   PO454780  27.612   1.172   5.853
 9275POPC   GL154781  27.635   1.259   6.153
 9275POPC   GL254782  27.681   1.320   6.153
 9275POPC   C1A54783  27.631   1.243   6.453
 9275POPC   D2A54784  27.579   1.256   6.753
 9275POPC   C3A54785  27.629   1.238   7.053
 9275POPC   C4A54786  27.552   1.212   7.353
 9275POPC   C1B54787  27.818   1.390   6.453
 9275POPC   C2B54788  27.729   1.346   6.753
 9275POPC   C3B54789  27.794   1.351   7.053
 9275POPC   C4B54790  27.782   1.382   7.353
 9276POPC   NC354791  33.849  44.711   5.553
 9276POPC   PO454792  33.811  44.638   5.853
 9276POPC   GL154793  33.771  44.678   6.153
 9276POPC   GL254794  33.924  44.536   6.153
 9276POPC   C1A54795  33.834  44.710   6.453
 9276POPC   D2A54796  33.837  44.708   6.753
 9276POPC   C3A54797  33.782  44.661   7.053
 9276POPC   C4A54798  33.847  44.637   7.353
 9276POPC   C1B54799  34.021  44.506   6.453
 9276POPC   C2B54800  33.935  44.506   6.753
 9276POPC   C3B54801  33.949  44.476   7.053
 9276POPC   C4B54802  33.953  44.486   7.353
 9277POPC   NC354803  33.820  15.161   5.553
 9277POPC   PO454804  33.783  15.155   5.853
 9277POPC   GL154805  33.780  15.205   6.153
 9277POPC   GL254806  33.893  15.145   6.153
 9277POPC   C1A54807  33.811  15.220   6.453
 9277POPC   D2A54808  33.755  15.212   6.753
 9277POPC   C3A54809  33.839  15.180   7.053
 9277POPC   C4A54810  33.801  15.164   7.353
 9277POPC   C1B54811  33.997  15.035   6.453
 9277POPC   C2B54812  34.012  15.057   6.753
 9277POPC   C3B54813  33.998  15.074   7.053
 9277POPC   C4B54814  34.044  15.020   7.353
 9278POPC   NC354815  29.948   4.327   5.553
 9278POPC   PO454816  29.969   4.354   5.853
 9278POPC   GL154817  29.968   4.316   6.153
 9278POPC   GL254818  30.018   4.358   6.153
 9278POPC   C1A54819  29.936   4.344   6.453
 9278POPC   D2A54820  29.900   4.345   6.753
 9278POPC   C3A54821  29.908   4.366   7.053
 9278POPC   C4A54822  29.890   4.288   7.353
 9278POPC   C1B54823  30.178   4.394   6.453
 9278POPC   C2B54824  30.200   4.370   6.753
 9278POPC   C3B54825  30.209   4.386   7.053
 9278POPC   C4B54826  30.152   4.348   7.353
 9279POPC   NC354827  14.357   9.787   5.553
 9279POPC   PO454828  14.442   9.706   5.853
 9279POPC   GL154829  14.417   9.778   6.153
 9279POPC   GL254830  14.483   9.679   6.153
 9279POPC   C1A54831  14.403   9.731   6.453
 9279POPC   D2A54832  14.416   9.718   6.753
 9279POPC   C3A54833  14.450   9.721   7.053
 9279POPC   C4A54834  14.357   9.764   7.353
 9279POPC   C1B54835  14.574   9.546   6.453
 9279POPC   C2B54836  14.577   9.533   6.753
 9279POPC   C3B54837  14.572   9.500   7.053
 9279POPC   C4B54838  14.555   9.566   7.353
 9280POPC   NC354839   6.656   8.148   5.553
 9280POPC   PO454840   6.691   8.166   5.853
 9280POPC   GL154841   6.627   8.232   6.153
 9280POPC   GL254842   6.764   8.095   6.153
 9280POPC   C1A54843   6.599   8.231   6.453
 9280POPC   D2A54844   6.687   8.223   6.753
 9280POPC   C3A54845   6.639   8.228   7.053
 9280POPC   C4A54846   6.666   8.176   7.353
 9280POPC   C1B54847   6.782   7.965   6.453
 9280POPC   C2B54848   6.800   7.983   6.753
 9280POPC   C3B54849   6.793   7.980   7.053
 9280POPC   C4B54850   6.812   8.005   7.353
 9281POPC   NC354851  20.649   1.957   5.553
 9281POPC   PO454852  20.609   2.013   5.853
 9281POPC   GL154853  20.623   2.023   6.153
 9281POPC   GL254854  20.629   1.879   6.153
 9281POPC   C1A54855  20.602   2.014   6.453
 9281POPC   D2A54856  20.610   2.014   6.753
 9281POPC   C3A54857  20.613   2.006   7.053
 9281POPC   C4A54858  20.635   1.972   7.353
 9281POPC   C1B54859  20.677   1.699   6.453
 9281POPC   C2B54860  20.680   1.761   6.753
 9281POPC   C3B54861  20.650   1.736   7.053
 9281POPC   C4B54862  20.678   1.749   7.353
 9282POPC   NC354863   0.420  15.191   5.553
 9282POPC   PO454864   0.389  15.198   5.853
 9282POPC   GL154865   0.393  15.152   6.153
 9282POPC   GL254866   0.297  15.223   6.153
 9282POPC   C1A54867   0.421  15.145   6.453
 9282POPC   D2A54868   0.456  15.197   6.753
 9282POPC   C3A54869   0.480  15.215   7.053
 9282POPC   C4A54870   0.391  15.202   7.353
 9282POPC   C1B54871   0.205  15.212   6.453
 9282POPC   C2B54872   0.189  15.201   6.753
 9282POPC   C3B54873   0.207  15.203   7.053
 9282POPC   C4B54874   0.225  15.227   7.353
 9283POPC   NC354875  44.633  38.438   5.553
 9283POPC   PO454876  44.696  38.478   5.853
 9283POPC   GL154877  44.703  38.478   6.153
 9283POPC   GL254878  44.683  38.369   6.153
 9283POPC   C1A54879  44.639  38.436   6.453
 9283POPC   D2A54880  44.707  38.443   6.753
 9283POPC   C3A54881  44.709  38.424   7.053
 9283POPC   C4A54882  44.622  38.420   7.353
 9283POPC   C1B54883  44.622  38.212   6.453
 9283POPC   C2B54884  44.601  38.228   6.753
 9283POPC   C3B54885  44.642  38.213   7.053
 9283POPC   C4B54886  44.608  38.167   7.353
 9284POPC   NC354887   6.598  42.330   5.553
 9284POPC   PO454888   6.672  42.367   5.853
 9284POPC   GL154889   6.681  42.380   6.153
 9284POPC   GL254890   6.518  42.396   6.153
 9284POPC   C1A54891   6.629  42.316   6.453
 9284POPC   D2A54892   6.666  42.382   6.753
 9284POPC   C3A54893   6.652  42.291   7.053
 9284POPC   C4A54894   6.658  42.297   7.353
 9284POPC   C1B54895   6.440  42.510   6.453
 9284POPC   C2B54896   6.451  42.507   6.753
 9284POPC   C3B54897   6.446  42.543   7.053
 9284POPC   C4B54898   6.510  42.529   7.353
 9285POPC   NC354899  28.335  16.756   5.553
 9285POPC   PO454900  28.337  16.692   5.853
 9285POPC   GL154901  28.406  16.751   6.153
 9285POPC   GL254902  28.215  16.716   6.153
 9285POPC   C1A54903  28.415  16.703   6.453
 9285POPC   D2A54904  28.386  16.699   6.753
 9285POPC   C3A54905  28.350  16.704   7.053
 9285POPC   C4A54906  28.335  16.753   7.353
 9285POPC   C1B54907  28.141  16.757   6.453
 9285POPC   C2B54908  28.116  16.670   6.753
 9285POPC   C3B54909  28.152  16.743   7.053
 9285POPC   C4B54910  28.146  16.760   7.353
 9286POPC   NC354911  38.478  37.661   5.553
 9286POPC   PO454912  38.499  37.644   5.853
 9286POPC   GL154913  38.416  37.638   6.153
 9286POPC   GL254914  38.624  37.690   6.153
 9286POPC   C1A54915  38.425  37.646   6.453
 9286POPC   D2A54916  38.495  37.705   6.753
 9286POPC   C3A54917  38.426  37.675   7.053
 9286POPC   C4A54918  38.454  37.672   7.353
 9286POPC   C1B54919  38.700  37.650   6.453
 9286POPC   C2B54920  38.716  37.645   6.753
 9286POPC   C3B54921  38.715  37.627   7.053
 9286POPC   C4B54922  38.680  37.678   7.353
 9287POPC   NC354923  36.131  26.039   5.553
 9287POPC   PO454924  36.123  26.029   5.853
 9287POPC   GL154925  36.106  26.068   6.153
 9287POPC   GL254926  35.965  25.948   6.153
 9287POPC   C1A54927  36.114  26.012   6.453
 9287POPC   D2A54928  36.101  25.995   6.753
 9287POPC   C3A54929  36.145  26.050   7.053
 9287POPC   C4A54930  36.115  26.008   7.353
 9287POPC   C1B54931  35.879  25.940   6.453
 9287POPC   C2B54932  35.885  25.932   6.753
 9287POPC   C3B54933  35.935  25.974   7.053
 9287POPC   C4B54934  35.895  25.978   7.353
 9288POPC   NC354935  15.191   2.761   5.553
 9288POPC   PO454936  15.149   2.778   5.853
 9288POPC   GL154937  15.227   2.784   6.153
 9288POPC   GL254938  15.173   2.834   6.153
 9288POPC   C1A54939  15.157   2.737   6.453
 9288POPC   D2A54940  15.196   2.776   6.753
 9288POPC   C3A54941  15.214   2.755   7.053
 9288POPC   C4A54942  15.189   2.769   7.353
 9288POPC   C1B54943  15.066   2.976   6.453
 9288POPC   C2B54944  15.121   2.951   6.753
 9288POPC   C3B54945  15.034   3.030   7.053
 9288POPC   C4B54946  15.122   3.018   7.353
 9289POPC   NC354947   0.399  13.675   5.553
 9289POPC   PO454948   0.471  13.673   5.853
 9289POPC   GL154949   0.447  13.616   6.153
 9289POPC   GL254950   0.294  13.661   6.153
 9289POPC   C1A54951   0.394  13.587   6.453
 9289POPC   D2A54952   0.433  13.624   6.753
 9289POPC   C3A54953   0.474  13.643   7.053
 9289POPC   C4A54954   0.425  13.636   7.353
 9289POPC   C1B54955   0.258  13.772   6.453
 9289POPC   C2B54956   0.250  13.735   6.753
 9289POPC   C3B54957   0.260  13.782   7.053
 9289POPC   C4B54958   0.215  13.752   7.353
 9290POPC   NC354959  12.859  23.686   5.553
 9290POPC   PO454960  12.861  23.686   5.853
 9290POPC   GL154961  12.841  23.753   6.153
 9290POPC   GL254962  12.858  23.855   6.153
 9290POPC   C1A54963  12.809  23.711   6.453
 9290POPC   D2A54964  12.844  23.664   6.753
 9290POPC   C3A54965  12.804  23.761   7.053
 9290POPC   C4A54966  12.880  23.670   7.353
 9290POPC   C1B54967  12.786  23.964   6.453
 9290POPC   C2B54968  12.806  23.985   6.753
 9290POPC   C3B54969  12.850  23.924   7.053
 9290POPC   C4B54970  12.773  23.939   7.353
 9291POPC   NC354971  29.121  40.042   5.553
 9291POPC   PO454972  29.167  40.005   5.853
 9291POPC   GL154973  29.181  40.026   6.153
 9291POPC   GL254974  29.076  40.117   6.153
 9291POPC   C1A54975  29.126  40.009   6.453
 9291POPC   D2A54976  29.106  40.037   6.753
 9291POPC   C3A54977  29.151  40.039   7.053
 9291POPC   C4A54978  29.115  40.050   7.353
 9291POPC   C1B54979  28.975  40.157   6.453
 9291POPC   C2B54980  28.957  40.152   6.753
 9291POPC   C3B54981  28.989  40.131   7.053
 9291POPC   C4B54982  28.920  40.122   7.353
 9292POPC   NC354983  32.975  36.079   5.553
 9292POPC   PO454984  32.979  36.104   5.853
 9292POPC   GL154985  33.034  36.079   6.153
 9292POPC   GL254986  32.891  36.160   6.153
 9292POPC   C1A54987  33.030  36.079   6.453
 9292POPC   D2A54988  33.046  36.175   6.753
 9292POPC   C3A54989  33.037  36.160   7.053
 9292POPC   C4A54990  33.000  36.144   7.353
 9292POPC   C1B54991  32.803  36.174   6.453
 9292POPC   C2B54992  32.756  36.163   6.753
 9292POPC   C3B54993  32.783  36.156   7.053
 9292POPC   C4B54994  32.821  36.107   7.353
 9293POPC   NC354995  44.652  37.664   5.553
 9293POPC   PO454996  44.675  37.708   5.853
 9293POPC   GL154997  44.675  37.660   6.153
 9293POPC   GL254998  44.728  37.564   6.153
 9293POPC   C1A54999  44.637  37.697   6.453
 9293POPC   D2A55000  44.700  37.637   6.753
 9293POPC   C3A55001  44.677  37.642   7.053
 9293POPC   C4A55002  44.684  37.668   7.353
 9293POPC   C1B55003  44.722  37.461   6.453
 9293POPC   C2B55004  44.745  37.479   6.753
 9293POPC   C3B55005  44.744  37.475   7.053
 9293POPC   C4B55006  44.685  37.399   7.353
 9294POPC   NC355007  20.596  29.957   5.553
 9294POPC   PO455008  20.640  29.955   5.853
 9294POPC   GL155009  20.590  29.935   6.153
 9294POPC   GL255010  20.539  30.036   6.153
 9294POPC   C1A55011  20.625  29.921   6.453
 9294POPC   D2A55012  20.573  29.885   6.753
 9294POPC   C3A55013  20.638  29.941   7.053
 9294POPC   C4A55014  20.568  29.926   7.353
 9294POPC   C1B55015  20.561  30.178   6.453
 9294POPC   C2B55016  20.573  30.139   6.753
 9294POPC   C3B55017  20.493  30.194   7.053
 9294POPC   C4B55018  20.493  30.154   7.353
 9295POPC   NC355019   0.483  23.730   5.553
 9295POPC   PO455020   0.469  23.752   5.853
 9295POPC   GL155021   0.400  23.759   6.153
 9295POPC   GL255022   0.551  23.709   6.153
 9295POPC   C1A55023   0.474  23.679   6.453
 9295POPC   D2A55024   0.434  23.680   6.753
 9295POPC   C3A55025   0.482  23.712   7.053
 9295POPC   C4A55026   0.483  23.704   7.353
 9295POPC   C1B55027   0.687  23.632   6.453
 9295POPC   C2B55028   0.627  23.654   6.753
 9295POPC   C3B55029   0.691  23.586   7.053
 9295POPC   C4B55030   0.704  23.608   7.353
 9296POPC   NC355031  41.594  33.774   5.553
 9296POPC   PO455032  41.566  33.842   5.853
 9296POPC   GL155033  41.521  33.807   6.153
 9296POPC   GL255034  41.512  33.657   6.153
 9296POPC   C1A55035  41.560  33.763   6.453
 9296POPC   D2A55036  41.584  33.770   6.753
 9296POPC   C3A55037  41.560  33.760   7.053
 9296POPC   C4A55038  41.564  33.848   7.353
 9296POPC   C1B55039  41.522  33.529   6.453
 9296POPC   C2B55040  41.534  33.599   6.753
 9296POPC   C3B55041  41.510  33.551   7.053
 9296POPC   C4B55042  41.496  33.525   7.353
 9297POPC   NC355043  40.002  31.515   5.553
 9297POPC   PO455044  40.011  31.479   5.853
 9297POPC   GL155045  40.014  31.430   6.153
 9297POPC   GL255046  40.005  31.355   6.153
 9297POPC   C1A55047  40.023  31.474   6.453
 9297POPC   D2A55048  40.032  31.500   6.753
 9297POPC   C3A55049  39.992  31.432   7.053
 9297POPC   C4A55050  39.975  31.472   7.353
 9297POPC   C1B55051  40.006  31.216   6.453
 9297POPC   C2B55052  40.042  31.191   6.753
 9297POPC   C3B55053  40.048  31.185   7.053
 9297POPC   C4B55054  40.022  31.181   7.353
 9298POPC   NC355055  35.383  24.534   5.553
 9298POPC   PO455056  35.382  24.532   5.853
 9298POPC   GL155057  35.323  24.505   6.153
 9298POPC   GL255058  35.486  24.548   6.153
 9298POPC   C1A55059  35.342  24.493   6.453
 9298POPC   D2A55060  35.332  24.486   6.753
 9298POPC   C3A55061  35.388  24.450   7.053
 9298POPC   C4A55062  35.401  24.440   7.353
 9298POPC   C1B55063  35.520  24.582   6.453
 9298POPC   C2B55064  35.524  24.664   6.753
 9298POPC   C3B55065  35.594  24.586   7.053
 9298POPC   C4B55066  35.607  24.572   7.353
 9299POPC   NC355067  32.209   0.405   5.553
 9299POPC   PO455068  32.286   0.470   5.853
 9299POPC   GL155069  32.212   0.453   6.153
 9299POPC   GL255070  32.314   0.526   6.153
 9299POPC   C1A55071  32.261   0.459   6.453
 9299POPC   D2A55072  32.219   0.449   6.753
 9299POPC   C3A55073  32.263   0.457   7.053
 9299POPC   C4A55074  32.255   0.426   7.353
 9299POPC   C1B55075  32.351   0.666   6.453
 9299POPC   C2B55076  32.257   0.655   6.753
 9299POPC   C3B55077  32.300   0.658   7.053
 9299POPC   C4B55078  32.287   0.675   7.353
 9300POPC   NC355079  38.467  13.676   5.553
 9300POPC   PO455080  38.477  13.629   5.853
 9300POPC   GL155081  38.413  13.661   6.153
 9300POPC   GL255082  38.387  13.587   6.153
 9300POPC   C1A55083  38.483  13.582   6.453
 9300POPC   D2A55084  38.425  13.606   6.753
 9300POPC   C3A55085  38.430  13.594   7.053
 9300POPC   C4A55086  38.475  13.602   7.353
 9300POPC   C1B55087  38.262  13.565   6.453
 9300POPC   C2B55088  38.210  13.520   6.753
 9300POPC   C3B55089  38.222  13.585   7.053
 9300POPC   C4B55090  38.208  13.568   7.353
 9301POPC   NC355091  15.200  29.103   5.553
 9301POPC   PO455092  15.157  29.147   5.853
 9301POPC   GL155093  15.154  29.166   6.153
 9301POPC   GL255094  15.303  29.198   6.153
 9301POPC   C1A55095  15.178  29.160   6.453
 9301POPC   D2A55096  15.209  29.128   6.753
 9301POPC   C3A55097  15.220  29.121   7.053
 9301POPC   C4A55098  15.205  29.125   7.353
 9301POPC   C1B55099  15.392  29.310   6.453
 9301POPC   C2B55100  15.325  29.310   6.753
 9301POPC   C3B55101  15.378  29.374   7.053
 9301POPC   C4B55102  15.319  29.375   7.353
 9302POPC   NC355103  15.959  33.035   5.553
 9302POPC   PO455104  15.980  33.050   5.853
 9302POPC   GL155105  15.939  33.015   6.153
 9302POPC   GL255106  15.980  32.901   6.153
 9302POPC   C1A55107  15.931  33.065   6.453
 9302POPC   D2A55108  15.907  33.063   6.753
 9302POPC   C3A55109  15.999  33.024   7.053
 9302POPC   C4A55110  15.953  33.059   7.353
 9302POPC   C1B55111  15.872  32.799   6.453
 9302POPC   C2B55112  15.952  32.772   6.753
 9302POPC   C3B55113  15.966  32.792   7.053
 9302POPC   C4B55114  15.931  32.790   7.353
 9303POPC   NC355115  37.670  22.199   5.553
 9303POPC   PO455116  37.702  22.166   5.853
 9303POPC   GL155117  37.717  22.156   6.153
 9303POPC   GL255118  37.752  22.309   6.153
 9303POPC   C1A55119  37.698  22.118   6.453
 9303POPC   D2A55120  37.660  22.129   6.753
 9303POPC   C3A55121  37.691  22.171   7.053
 9303POPC   C4A55122  37.693  22.167   7.353
 9303POPC   C1B55123  37.830  22.369   6.453
 9303POPC   C2B55124  37.821  22.345   6.753
 9303POPC   C3B55125  37.846  22.342   7.053
 9303POPC   C4B55126  37.793  22.350   7.353
 9304POPC   NC355127  13.642   9.786   5.553
 9304POPC   PO455128  13.611   9.747   5.853
 9304POPC   GL155129  13.672   9.725   6.153
 9304POPC   GL255130  13.688   9.631   6.153
 9304POPC   C1A55131  13.666   9.785   6.453
 9304POPC   D2A55132  13.660   9.757   6.753
 9304POPC   C3A55133  13.611   9.748   7.053
 9304POPC   C4A55134  13.584   9.730   7.353
 9304POPC   C1B55135  13.834   9.610   6.453
 9304POPC   C2B55136  13.842   9.567   6.753
 9304POPC   C3B55137  13.803   9.595   7.053
 9304POPC   C4B55138  13.829   9.589   7.353
 9305POPC   NC355139  25.235  43.143   5.553
 9305POPC   PO455140  25.258  43.115   5.853
 9305POPC   GL155141  25.272  43.156   6.153
 9305POPC   GL255142  25.207  43.242   6.153
 9305POPC   C1A55143  25.289  43.153   6.453
 9305POPC   D2A55144  25.277  43.081   6.753
 9305POPC   C3A55145  25.304  43.152   7.053
 9305POPC   C4A55146  25.232  43.144   7.353
 9305POPC   C1B55147  25.215  43.398   6.453
 9305POPC   C2B55148  25.196  43.351   6.753
 9305POPC   C3B55149  25.212  43.383   7.053
 9305POPC   C4B55150  25.156  43.391   7.353
 9306POPC   NC355151  40.806   8.216   5.553
 9306POPC   PO455152  40.772   8.236   5.853
 9306POPC   GL155153  40.828   8.223   6.153
 9306POPC   GL255154  40.873   8.346   6.153
 9306POPC   C1A55155  40.798   8.228   6.453
 9306POPC   D2A55156  40.827   8.223   6.753
 9306POPC   C3A55157  40.782   8.234   7.053
 9306POPC   C4A55158  40.822   8.195   7.353
 9306POPC   C1B55159  40.907   8.437   6.453
 9306POPC   C2B55160  40.918   8.406   6.753
 9306POPC   C3B55161  40.877   8.387   7.053
 9306POPC   C4B55162  40.901   8.429   7.353
 9307POPC   NC355163  25.271  40.768   5.553
 9307POPC   PO455164  25.300  40.823   5.853
 9307POPC   GL155165  25.257  40.800   6.153
 9307POPC   GL255166  25.199  40.728   6.153
 9307POPC   C1A55167  25.278  40.812   6.453
 9307POPC   D2A55168  25.256  40.811   6.753
 9307POPC   C3A55169  25.262  40.813   7.053
 9307POPC   C4A55170  25.312  40.738   7.353
 9307POPC   C1B55171  25.085  40.678   6.453
 9307POPC   C2B55172  25.111  40.649   6.753
 9307POPC   C3B55173  25.065  40.645   7.053
 9307POPC   C4B55174  25.015  40.664   7.353
 9308POPC   NC355175   0.393  40.826   5.553
 9308POPC   PO455176   0.459  40.801   5.853
 9308POPC   GL155177   0.464  40.803   6.153
 9308POPC   GL255178   0.367  40.648   6.153
 9308POPC   C1A55179   0.412  40.806   6.453
 9308POPC   D2A55180   0.447  40.743   6.753
 9308POPC   C3A55181   0.421  40.811   7.053
 9308POPC   C4A55182   0.438  40.813   7.353
 9308POPC   C1B55183   0.388  40.575   6.453
 9308POPC   C2B55184   0.371  40.526   6.753
 9308POPC   C3B55185   0.375  40.555   7.053
 9308POPC   C4B55186   0.331  40.582   7.353
 9309POPC   NC355187  19.820  21.349   5.553
 9309POPC   PO455188  19.820  21.390   5.853
 9309POPC   GL155189  19.862  21.431   6.153
 9309POPC   GL255190  19.735  21.401   6.153
 9309POPC   C1A55191  19.799  21.390   6.453
 9309POPC   D2A55192  19.797  21.434   6.753
 9309POPC   C3A55193  19.794  21.392   7.053
 9309POPC   C4A55194  19.845  21.411   7.353
 9309POPC   C1B55195  19.568  21.413   6.453
 9309POPC   C2B55196  19.566  21.428   6.753
 9309POPC   C3B55197  19.622  21.414   7.053
 9309POPC   C4B55198  19.591  21.362   7.353
 9310POPC   NC355199   2.804   7.395   5.553
 9310POPC   PO455200   2.741   7.426   5.853
 9310POPC   GL155201   2.787   7.434   6.153
 9310POPC   GL255202   2.784   7.488   6.153
 9310POPC   C1A55203   2.806   7.437   6.453
 9310POPC   D2A55204   2.739   7.401   6.753
 9310POPC   C3A55205   2.723   7.421   7.053
 9310POPC   C4A55206   2.722   7.441   7.353
 9310POPC   C1B55207   2.908   7.666   6.453
 9310POPC   C2B55208   2.929   7.650   6.753
 9310POPC   C3B55209   2.919   7.591   7.053
 9310POPC   C4B55210   2.915   7.652   7.353
 9311POPC   NC355211  26.049  12.869   5.553
 9311POPC   PO455212  26.089  12.842   5.853
 9311POPC   GL155213  26.079  12.845   6.153
 9311POPC   GL255214  25.915  12.741   6.153
 9311POPC   C1A55215  26.061  12.817   6.453
 9311POPC   D2A55216  26.053  12.808   6.753
 9311POPC   C3A55217  26.075  12.802   7.053
 9311POPC   C4A55218  26.061  12.829   7.353
 9311POPC   C1B55219  25.890  12.608   6.453
 9311POPC   C2B55220  25.888  12.685   6.753
 9311POPC   C3B55221  25.860  12.675   7.053
 9311POPC   C4B55222  25.885  12.698   7.353
 9312POPC   NC355223  35.330  26.047   5.553
 9312POPC   PO455224  35.385  26.025   5.853
 9312POPC   GL155225  35.319  26.086   6.153
 9312POPC   GL255226  35.238  26.100   6.153
 9312POPC   C1A55227  35.373  26.079   6.453
 9312POPC   D2A55228  35.316  26.055   6.753
 9312POPC   C3A55229  35.371  25.997   7.053
 9312POPC   C4A55230  35.361  26.028   7.353
 9312POPC   C1B55231  35.101  26.080   6.453
 9312POPC   C2B55232  35.069  26.142   6.753
 9312POPC   C3B55233  35.080  26.126   7.053
 9312POPC   C4B55234  35.128  26.138   7.353
 9313POPC   NC355235  15.965   6.648   5.553
 9313POPC   PO455236  15.990   6.676   5.853
 9313POPC   GL155237  15.913   6.651   6.153
 9313POPC   GL255238  16.010   6.800   6.153
 9313POPC   C1A55239  15.956   6.681   6.453
 9313POPC   D2A55240  15.957   6.658   6.753
 9313POPC   C3A55241  15.948   6.633   7.053
 9313POPC   C4A55242  15.978   6.644   7.353
 9313POPC   C1B55243  16.008   6.895   6.453
 9313POPC   C2B55244  16.027   6.897   6.753
 9313POPC   C3B55245  16.011   6.907   7.053
 9313POPC   C4B55246  15.942   6.907   7.353
 9314POPC   NC355247   8.982  29.963   5.553
 9314POPC   PO455248   8.980  29.931   5.853
 9314POPC   GL155249   9.002  29.964   6.153
 9314POPC   GL255250   8.921  29.794   6.153
 9314POPC   C1A55251   9.003  29.959   6.453
 9314POPC   D2A55252   8.962  29.935   6.753
 9314POPC   C3A55253   8.994  29.961   7.053
 9314POPC   C4A55254   8.940  29.941   7.353
 9314POPC   C1B55255   8.814  29.760   6.453
 9314POPC   C2B55256   8.832  29.777   6.753
 9314POPC   C3B55257   8.813  29.768   7.053
 9314POPC   C4B55258   8.842  29.712   7.353
 9315POPC   NC355259  11.284  10.495   5.553
 9315POPC   PO455260  11.267  10.537   5.853
 9315POPC   GL155261  11.341  10.486   6.153
 9315POPC   GL255262  11.255  10.630   6.153
 9315POPC   C1A55263  11.334  10.517   6.453
 9315POPC   D2A55264  11.260  10.519   6.753
 9315POPC   C3A55265  11.342  10.499   7.053
 9315POPC   C4A55266  11.293  10.552   7.353
 9315POPC   C1B55267  11.136  10.779   6.453
 9315POPC   C2B55268  11.153  10.708   6.753
 9315POPC   C3B55269  11.120  10.768   7.053
 9315POPC   C4B55270  11.120  10.720   7.353
 9316POPC   NC355271  34.610   2.743   5.553
 9316POPC   PO455272  34.600   2.803   5.853
 9316POPC   GL155273  34.538   2.791   6.153
 9316POPC   GL255274  34.702   2.707   6.153
 9316POPC   C1A55275  34.534   2.716   6.453
 9316POPC   D2A55276  34.544   2.730   6.753
 9316POPC   C3A55277  34.604   2.809   7.053
 9316POPC   C4A55278  34.554   2.751   7.353
 9316POPC   C1B55279  34.711   2.562   6.453
 9316POPC   C2B55280  34.758   2.523   6.753
 9316POPC   C3B55281  34.687   2.618   7.053
 9316POPC   C4B55282  34.748   2.603   7.353
 9317POPC   NC355283  29.884  12.110   5.553
 9317POPC   PO455284  29.886  12.069   5.853
 9317POPC   GL155285  29.905  12.069   6.153
 9317POPC   GL255286  29.813  12.208   6.153
 9317POPC   C1A55287  29.900  12.117   6.453
 9317POPC   D2A55288  29.905  12.096   6.753
 9317POPC   C3A55289  29.902  12.063   7.053
 9317POPC   C4A55290  29.883  12.087   7.353
 9317POPC   C1B55291  29.751  12.276   6.453
 9317POPC   C2B55292  29.766  12.277   6.753
 9317POPC   C3B55293  29.790  12.275   7.053
 9317POPC   C4B55294  29.761  12.272   7.353
 9318POPC   NC355295   5.826  12.038   5.553
 9318POPC   PO455296   5.908  12.063   5.853
 9318POPC   GL155297   5.874  12.106   6.153
 9318POPC   GL255298   5.927  12.035   6.153
 9318POPC   C1A55299   5.879  12.091   6.453
 9318POPC   D2A55300   5.918  12.044   6.753
 9318POPC   C3A55301   5.863  12.055   7.053
 9318POPC   C4A55302   5.848  12.095   7.353
 9318POPC   C1B55303   6.085  11.892   6.453
 9318POPC   C2B55304   6.031  11.906   6.753
 9318POPC   C3B55305   6.105  11.961   7.053
 9318POPC   C4B55306   6.046  11.903   7.353
 9319POPC   NC355307  28.369  17.494   5.553
 9319POPC   PO455308  28.385  17.549   5.853
 9319POPC   GL155309  28.387  17.491   6.153
 9319POPC   GL255310  28.291  17.605   6.153
 9319POPC   C1A55311  28.365  17.507   6.453
 9319POPC   D2A55312  28.329  17.529   6.753
 9319POPC   C3A55313  28.337  17.511   7.053
 9319POPC   C4A55314  28.334  17.536   7.353
 9319POPC   C1B55315  28.273  17.695   6.453
 9319POPC   C2B55316  28.207  17.679   6.753
 9319POPC   C3B55317  28.251  17.690   7.053
 9319POPC   C4B55318  28.239  17.732   7.353
 9320POPC   NC355319  24.528  38.443   5.553
 9320POPC   PO455320  24.489  38.440   5.853
 9320POPC   GL155321  24.465  38.495   6.153
 9320POPC   GL255322  24.396  38.299   6.153
 9320POPC   C1A55323  24.507  38.432   6.453
 9320POPC   D2A55324  24.468  38.488   6.753
 9320POPC   C3A55325  24.507  38.450   7.053
 9320POPC   C4A55326  24.450  38.421   7.353
 9320POPC   C1B55327  24.414  38.257   6.453
 9320POPC   C2B55328  24.323  38.194   6.753
 9320POPC   C3B55329  24.383  38.271   7.053
 9320POPC   C4B55330  24.334  38.234   7.353
 9321POPC   NC355331  26.031  34.572   5.553
 9321POPC   PO455332  26.008  34.571   5.853
 9321POPC   GL155333  26.072  34.557   6.153
 9321POPC   GL255334  25.872  34.599   6.153
 9321POPC   C1A55335  26.056  34.547   6.453
 9321POPC   D2A55336  25.998  34.597   6.753
 9321POPC   C3A55337  26.073  34.625   7.053
 9321POPC   C4A55338  26.023  34.539   7.353
 9321POPC   C1B55339  25.788  34.593   6.453
 9321POPC   C2B55340  25.778  34.566   6.753
 9321POPC   C3B55341  25.812  34.569   7.053
 9321POPC   C4B55342  25.777  34.613   7.353
 9322POPC   NC355343  42.285  22.917   5.553
 9322POPC   PO455344  42.348  22.960   5.853
 9322POPC   GL155345  42.286  22.963   6.153
 9322POPC   GL255346  42.395  22.885   6.153
 9322POPC   C1A55347  42.364  22.971   6.453
 9322POPC   D2A55348  42.305  22.939   6.753
 9322POPC   C3A55349  42.374  22.905   7.053
 9322POPC   C4A55350  42.307  22.914   7.353
 9322POPC   C1B55351  42.530  22.712   6.453
 9322POPC   C2B55352  42.528  22.732   6.753
 9322POPC   C3B55353  42.455  22.760   7.053
 9322POPC   C4B55354  42.537  22.700   7.353
 9323POPC   NC355355  35.310  13.585   5.553
 9323POPC   PO455356  35.365  13.578   5.853
 9323POPC   GL155357  35.363  13.605   6.153
 9323POPC   GL255358  35.356  13.510   6.153
 9323POPC   C1A55359  35.397  13.611   6.453
 9323POPC   D2A55360  35.372  13.616   6.753
 9323POPC   C3A55361  35.309  13.664   7.053
 9323POPC   C4A55362  35.390  13.624   7.353
 9323POPC   C1B55363  35.429  13.416   6.453
 9323POPC   C2B55364  35.363  13.358   6.753
 9323POPC   C3B55365  35.375  13.345   7.053
 9323POPC   C4B55366  35.430  13.383   7.353
 9324POPC   NC355367  42.368  30.710   5.553
 9324POPC   PO455368  42.371  30.704   5.853
 9324POPC   GL155369  42.338  30.654   6.153
 9324POPC   GL255370  42.280  30.753   6.153
 9324POPC   C1A55371  42.302  30.681   6.453
 9324POPC   D2A55372  42.364  30.739   6.753
 9324POPC   C3A55373  42.300  30.677   7.053
 9324POPC   C4A55374  42.335  30.722   7.353
 9324POPC   C1B55375  42.160  30.822   6.453
 9324POPC   C2B55376  42.112  30.879   6.753
 9324POPC   C3B55377  42.155  30.865   7.053
 9324POPC   C4B55378  42.157  30.878   7.353
 9325POPC   NC355379  42.344  24.451   5.553
 9325POPC   PO455380  42.360  24.478   5.853
 9325POPC   GL155381  42.354  24.529   6.153
 9325POPC   GL255382  42.234  24.523   6.153
 9325POPC   C1A55383  42.302  24.486   6.453
 9325POPC   D2A55384  42.353  24.519   6.753
 9325POPC   C3A55385  42.304  24.538   7.053
 9325POPC   C4A55386  42.314  24.496   7.353
 9325POPC   C1B55387  42.099  24.483   6.453
 9325POPC   C2B55388  42.078  24.533   6.753
 9325POPC   C3B55389  42.135  24.470   7.053
 9325POPC   C4B55390  42.091  24.513   7.353
 9326POPC   NC355391   0.402   3.568   5.553
 9326POPC   PO455392   0.402   3.589   5.853
 9326POPC   GL155393   0.423   3.526   6.153
 9326POPC   GL255394   0.488   3.419   6.153
 9326POPC   C1A55395   0.458   3.522   6.453
 9326POPC   D2A55396   0.451   3.518   6.753
 9326POPC   C3A55397   0.401   3.538   7.053
 9326POPC   C4A55398   0.440   3.567   7.353
 9326POPC   C1B55399   0.628   3.358   6.453
 9326POPC   C2B55400   0.595   3.325   6.753
 9326POPC   C3B55401   0.654   3.408   7.053
 9326POPC   C4B55402   0.577   3.374   7.353
 9327POPC   NC355403  12.105   2.022   5.553
 9327POPC   PO455404  12.076   2.023   5.853
 9327POPC   GL155405  12.040   2.010   6.153
 9327POPC   GL255406  12.108   2.108   6.153
 9327POPC   C1A55407  12.102   1.974   6.453
 9327POPC   D2A55408  12.088   1.989   6.753
 9327POPC   C3A55409  12.039   1.984   7.053
 9327POPC   C4A55410  12.044   1.941   7.353
 9327POPC   C1B55411  12.029   2.214   6.453
 9327POPC   C2B55412  12.057   2.257   6.753
 9327POPC   C3B55413  12.083   2.223   7.053
 9327POPC   C4B55414  12.090   2.235   7.353
 9328POPC   NC355415  22.962  13.669   5.553
 9328POPC   PO455416  22.939  13.641   5.853
 9328POPC   GL155417  22.959  13.596   6.153
 9328POPC   GL255418  23.028  13.550   6.153
 9328POPC   C1A55419  22.964  13.669   6.453
 9328POPC   D2A55420  22.980  13.639   6.753
 9328POPC   C3A55421  22.895  13.630   7.053
 9328POPC   C4A55422  22.936  13.665   7.353
 9328POPC   C1B55423  23.015  13.433   6.453
 9328POPC   C2B55424  23.080  13.423   6.753
 9328POPC   C3B55425  23.014  13.423   7.053
 9328POPC   C4B55426  23.076  13.358   7.353
 9329POPC   NC355427  12.883  36.094   5.553
 9329POPC   PO455428  12.805  36.142   5.853
 9329POPC   GL155429  12.888  36.081   6.153
 9329POPC   GL255430  12.776  36.218   6.153
 9329POPC   C1A55431  12.884  36.084   6.453
 9329POPC   D2A55432  12.884  36.156   6.753
 9329POPC   C3A55433  12.868  36.152   7.053
 9329POPC   C4A55434  12.856  36.146   7.353
 9329POPC   C1B55435  12.677  36.312   6.453
 9329POPC   C2B55436  12.711  36.281   6.753
 9329POPC   C3B55437  12.655  36.284   7.053
 9329POPC   C4B55438  12.616  36.249   7.353
 9330POPC   NC355439  36.905  33.845   5.553
 9330POPC   PO455440  36.923  33.776   5.853
 9330POPC   GL155441  36.886  33.797   6.153
 9330POPC   GL255442  36.904  33.950   6.153
 9330POPC   C1A55443  36.894  33.792   6.453
 9330POPC   D2A55444  36.926  33.830   6.753
 9330POPC   C3A55445  36.884  33.818   7.053
 9330POPC   C4A55446  36.885  33.839   7.353
 9330POPC   C1B55447  36.850  34.048   6.453
 9330POPC   C2B55448  36.878  34.028   6.753
 9330POPC   C3B55449  36.826  34.085   7.053
 9330POPC   C4B55450  36.809  34.023   7.353
 9331POPC   NC355451  30.705  26.856   5.553
 9331POPC   PO455452  30.684  26.769   5.853
 9331POPC   GL155453  30.691  26.841   6.153
 9331POPC   GL255454  30.558  26.789   6.153
 9331POPC   C1A55455  30.697  26.861   6.453
 9331POPC   D2A55456  30.698  26.791   6.753
 9331POPC   C3A55457  30.741  26.827   7.053
 9331POPC   C4A55458  30.693  26.838   7.353
 9331POPC   C1B55459  30.471  26.790   6.453
 9331POPC   C2B55460  30.422  26.771   6.753
 9331POPC   C3B55461  30.403  26.763   7.053
 9331POPC   C4B55462  30.423  26.746   7.353
 9332POPC   NC355463  15.952   0.427   5.553
 9332POPC   PO455464  15.957   0.434   5.853
 9332POPC   GL155465  15.942   0.425   6.153
 9332POPC   GL255466  16.073   0.519   6.153
 9332POPC   C1A55467  15.934   0.443   6.453
 9332POPC   D2A55468  15.930   0.459   6.753
 9332POPC   C3A55469  15.960   0.422   7.053
 9332POPC   C4A55470  15.994   0.449   7.353
 9332POPC   C1B55471  16.137   0.602   6.453
 9332POPC   C2B55472  16.154   0.568   6.753
 9332POPC   C3B55473  16.204   0.525   7.053
 9332POPC   C4B55474  16.191   0.598   7.353
 9333POPC   NC355475  21.424  12.839   5.553
 9333POPC   PO455476  21.361  12.888   5.853
 9333POPC   GL155477  21.383  12.836   6.153
 9333POPC   GL255478  21.538  12.818   6.153
 9333POPC   C1A55479  21.403  12.870   6.453
 9333POPC   D2A55480  21.368  12.826   6.753
 9333POPC   C3A55481  21.433  12.862   7.053
 9333POPC   C4A55482  21.421  12.804   7.353
 9333POPC   C1B55483  21.661  12.727   6.453
 9333POPC   C2B55484  21.594  12.743   6.753
 9333POPC   C3B55485  21.577  12.752   7.053
 9333POPC   C4B55486  21.641  12.803   7.353
 9334POPC   NC355487  16.778  16.720   5.553
 9334POPC   PO455488  16.718  16.772   5.853
 9334POPC   GL155489  16.740  16.761   6.153
 9334POPC   GL255490  16.665  16.689   6.153
 9334POPC   C1A55491  16.724  16.701   6.453
 9334POPC   D2A55492  16.715  16.764   6.753
 9334POPC   C3A55493  16.716  16.701   7.053
 9334POPC   C4A55494  16.754  16.690   7.353
 9334POPC   C1B55495  16.550  16.572   6.453
 9334POPC   C2B55496  16.485  16.639   6.753
 9334POPC   C3B55497  16.479  16.612   7.053
 9334POPC   C4B55498  16.522  16.551   7.353
 9335POPC   NC355499  15.998  24.507   5.553
 9335POPC   PO455500  15.916  24.450   5.853
 9335POPC   GL155501  15.971  24.515   6.153
 9335POPC   GL255502  15.852  24.470   6.153
 9335POPC   C1A55503  15.956  24.473   6.453
 9335POPC   D2A55504  15.943  24.506   6.753
 9335POPC   C3A55505  15.950  24.458   7.053
 9335POPC   C4A55506  15.912  24.525   7.353
 9335POPC   C1B55507  15.729  24.494   6.453
 9335POPC   C2B55508  15.673  24.492   6.753
 9335POPC   C3B55509  15.709  24.530   7.053
 9335POPC   C4B55510  15.690  24.550   7.353
 9336POPC   NC355511   7.444   7.374   5.553
 9336POPC   PO455512   7.441   7.390   5.853
 9336POPC   GL155513   7.453   7.429   6.153
 9336POPC   GL255514   7.434   7.341   6.153
 9336POPC   C1A55515   7.417   7.429   6.453
 9336POPC   D2A55516   7.427   7.377   6.753
 9336POPC   C3A55517   7.431   7.393   7.053
 9336POPC   C4A55518   7.415   7.428   7.353
 9336POPC   C1B55519   7.527   7.222   6.453
 9336POPC   C2B55520   7.550   7.150   6.753
 9336POPC   C3B55521   7.499   7.234   7.053
 9336POPC   C4B55522   7.531   7.190   7.353
 9337POPC   NC355523  26.829   9.770   5.553
 9337POPC   PO455524  26.797   9.780   5.853
 9337POPC   GL155525  26.813   9.786   6.153
 9337POPC   GL255526  26.836   9.618   6.153
 9337POPC   C1A55527  26.849   9.730   6.453
 9337POPC   D2A55528  26.863   9.794   6.753
 9337POPC   C3A55529  26.830   9.793   7.053
 9337POPC   C4A55530  26.814   9.768   7.353
 9337POPC   C1B55531  26.756   9.530   6.453
 9337POPC   C2B55532  26.740   9.462   6.753
 9337POPC   C3B55533  26.785   9.498   7.053
 9337POPC   C4B55534  26.764   9.511   7.353
 9338POPC   NC355535  43.126  41.585   5.553
 9338POPC   PO455536  43.079  41.591   5.853
 9338POPC   GL155537  43.150  41.513   6.153
 9338POPC   GL255538  43.237  41.588   6.153
 9338POPC   C1A55539  43.138  41.532   6.453
 9338POPC   D2A55540  43.098  41.574   6.753
 9338POPC   C3A55541  43.133  41.545   7.053
 9338POPC   C4A55542  43.124  41.585   7.353
 9338POPC   C1B55543  43.283  41.725   6.453
 9338POPC   C2B55544  43.371  41.665   6.753
 9338POPC   C3B55545  43.289  41.726   7.053
 9338POPC   C4B55546  43.354  41.721   7.353
 9339POPC   NC355547  33.004   1.216   5.553
 9339POPC   PO455548  33.045   1.238   5.853
 9339POPC   GL155549  32.999   1.194   6.153
 9339POPC   GL255550  33.050   1.294   6.153
 9339POPC   C1A55551  33.000   1.180   6.453
 9339POPC   D2A55552  32.976   1.250   6.753
 9339POPC   C3A55553  33.005   1.176   7.053
 9339POPC   C4A55554  33.070   1.233   7.353
 9339POPC   C1B55555  33.121   1.472   6.453
 9339POPC   C2B55556  33.134   1.408   6.753
 9339POPC   C3B55557  33.134   1.405   7.053
 9339POPC   C4B55558  33.095   1.422   7.353
 9340POPC   NC355559  12.860   3.553   5.553
 9340POPC   PO455560  12.816   3.575   5.853
 9340POPC   GL155561  12.874   3.541   6.153
 9340POPC   GL255562  12.696   3.549   6.153
 9340POPC   C1A55563  12.827   3.560   6.453
 9340POPC   D2A55564  12.866   3.518   6.753
 9340POPC   C3A55565  12.855   3.569   7.053
 9340POPC   C4A55566  12.811   3.558   7.353
 9340POPC   C1B55567  12.654   3.530   6.453
 9340POPC   C2B55568  12.579   3.532   6.753
 9340POPC   C3B55569  12.558   3.523   7.053
 9340POPC   C4B55570  12.638   3.547   7.353
 9341POPC   NC355571  28.331   2.722   5.553
 9341POPC   PO455572  28.369   2.807   5.853
 9341POPC   GL155573  28.360   2.727   6.153
 9341POPC   GL255574  28.304   2.860   6.153
 9341POPC   C1A55575  28.401   2.759   6.453
 9341POPC   D2A55576  28.359   2.777   6.753
 9341POPC   C3A55577  28.366   2.782   7.053
 9341POPC   C4A55578  28.350   2.779   7.353
 9341POPC   C1B55579  28.176   2.899   6.453
 9341POPC   C2B55580  28.195   2.935   6.753
 9341POPC   C3B55581  28.126   2.915   7.053
 9341POPC   C4B55582  28.116   2.893   7.353
 9342POPC   NC355583   0.424  12.867   5.553
 9342POPC   PO455584   0.403  12.893   5.853
 9342POPC   GL155585   0.449  12.870   6.153
 9342POPC   GL255586   0.352  12.882   6.153
 9342POPC   C1A55587   0.424  12.835   6.453
 9342POPC   D2A55588   0.407  12.840   6.753
 9342POPC   C3A55589   0.418  12.871   7.053
 9342POPC   C4A55590   0.418  12.823   7.353
 9342POPC   C1B55591   0.230  12.965   6.453
 9342POPC   C2B55592   0.218  13.023   6.753
 9342POPC   C3B55593   0.201  12.962   7.053
 9342POPC   C4B55594   0.278  12.967   7.353
 9343POPC   NC355595  36.115  15.161   5.553
 9343POPC   PO455596  36.082  15.209   5.853
 9343POPC   GL155597  36.100  15.175   6.153
 9343POPC   GL255598  36.034  15.334   6.153
 9343POPC   C1A55599  36.148  15.151   6.453
 9343POPC   D2A55600  36.079  15.142   6.753
 9343POPC   C3A55601  36.103  15.200   7.053
 9343POPC   C4A55602  36.106  15.157   7.353
 9343POPC   C1B55603  36.023  15.420   6.453
 9343POPC   C2B55604  36.064  15.386   6.753
 9343POPC   C3B55605  36.075  15.359   7.053
 9343POPC   C4B55606  36.038  15.379   7.353
 9344POPC   NC355607  32.975  12.836   5.553
 9344POPC   PO455608  33.035  12.846   5.853
 9344POPC   GL155609  32.989  12.845   6.153
 9344POPC   GL255610  33.117  12.907   6.153
 9344POPC   C1A55611  33.034  12.876   6.453
 9344POPC   D2A55612  33.031  12.886   6.753
 9344POPC   C3A55613  33.065  12.851   7.053
 9344POPC   C4A55614  33.068  12.895   7.353
 9344POPC   C1B55615  33.169  13.032   6.453
 9344POPC   C2B55616  33.151  13.014   6.753
 9344POPC   C3B55617  33.215  13.058   7.053
 9344POPC   C4B55618  33.234  13.056   7.353
 9345POPC   NC355619  21.378   1.259   5.553
 9345POPC   PO455620  21.424   1.176   5.853
 9345POPC   GL155621  21.372   1.201   6.153
 9345POPC   GL255622  21.253   1.244   6.153
 9345POPC   C1A55623  21.356   1.250   6.453
 9345POPC   D2A55624  21.392   1.166   6.753
 9345POPC   C3A55625  21.409   1.244   7.053
 9345POPC   C4A55626  21.425   1.224   7.353
 9345POPC   C1B55627  21.179   1.262   6.453
 9345POPC   C2B55628  21.195   1.292   6.753
 9345POPC   C3B55629  21.176   1.251   7.053
 9345POPC   C4B55630  21.189   1.323   7.353
 9346POPC   NC355631  40.801  24.484   5.553
 9346POPC   PO455632  40.739  24.501   5.853
 9346POPC   GL155633  40.831  24.445   6.153
 9346POPC   GL255634  40.635  24.439   6.153
 9346POPC   C1A55635  40.789  24.445   6.453
 9346POPC   D2A55636  40.807  24.507   6.753
 9346POPC   C3A55637  40.830  24.530   7.053
 9346POPC   C4A55638  40.778  24.522   7.353
 9346POPC   C1B55639  40.606  24.370   6.453
 9346POPC   C2B55640  40.519  24.384   6.753
 9346POPC   C3B55641  40.566  24.374   7.053
 9346POPC   C4B55642  40.577  24.337   7.353
 9347POPC   NC355643   6.677  30.712   5.553
 9347POPC   PO455644   6.649  30.728   5.853
 9347POPC   GL155645   6.663  30.696   6.153
 9347POPC   GL255646   6.602  30.844   6.153
 9347POPC   C1A55647   6.638  30.737   6.453
 9347POPC   D2A55648   6.692  30.676   6.753
 9347POPC   C3A55649   6.627  30.648   7.053
 9347POPC   C4A55650   6.611  30.708   7.353
 9347POPC   C1B55651   6.566  30.908   6.453
 9347POPC   C2B55652   6.559  30.924   6.753
 9347POPC   C3B55653   6.547  30.949   7.053
 9347POPC   C4B55654   6.580  30.881   7.353
 9348POPC   NC355655  43.077   8.191   5.553
 9348POPC   PO455656  43.105   8.220   5.853
 9348POPC   GL155657  43.099   8.203   6.153
 9348POPC   GL255658  43.005   8.164   6.153
 9348POPC   C1A55659  43.132   8.228   6.453
 9348POPC   D2A55660  43.062   8.209   6.753
 9348POPC   C3A55661  43.107   8.182   7.053
 9348POPC   C4A55662  43.154   8.171   7.353
 9348POPC   C1B55663  42.915   8.108   6.453
 9348POPC   C2B55664  42.858   8.072   6.753
 9348POPC   C3B55665  42.879   8.117   7.053
 9348POPC   C4B55666  42.891   8.102   7.353
 9349POPC   NC355667  27.579   7.433   5.553
 9349POPC   PO455668  27.594   7.449   5.853
 9349POPC   GL155669  27.617   7.402   6.153
 9349POPC   GL255670  27.696   7.330   6.153
 9349POPC   C1A55671  27.544   7.445   6.453
 9349POPC   D2A55672  27.557   7.459   6.753
 9349POPC   C3A55673  27.569   7.390   7.053
 9349POPC   C4A55674  27.613   7.378   7.353
 9349POPC   C1B55675  27.823   7.327   6.453
 9349POPC   C2B55676  27.810   7.269   6.753
 9349POPC   C3B55677  27.836   7.290   7.053
 9349POPC   C4B55678  27.864   7.337   7.353
 9350POPC   NC355679   8.983  36.937   5.553
 9350POPC   PO455680   9.012  36.910   5.853
 9350POPC   GL155681   8.923  36.939   6.153
 9350POPC   GL255682   9.067  36.995   6.153
 9350POPC   C1A55683   8.942  36.932   6.453
 9350POPC   D2A55684   8.925  36.880   6.753
 9350POPC   C3A55685   8.932  36.931   7.053
 9350POPC   C4A55686   9.015  36.899   7.353
 9350POPC   C1B55687   9.233  37.053   6.453
 9350POPC   C2B55688   9.233  37.046   6.753
 9350POPC   C3B55689   9.207  37.022   7.053
 9350POPC   C4B55690   9.149  37.017   7.353
 9351POPC   NC355691  31.504  12.864   5.553
 9351POPC   PO455692  31.430  12.850   5.853
 9351POPC   GL155693  31.516  12.846   6.153
 9351POPC   GL255694  31.456  12.973   6.153
 9351POPC   C1A55695  31.501  12.894   6.453
 9351POPC   D2A55696  31.430  12.829   6.753
 9351POPC   C3A55697  31.424  12.850   7.053
 9351POPC   C4A55698  31.462  12.857   7.353
 9351POPC   C1B55699  31.496  13.109   6.453
 9351POPC   C2B55700  31.480  13.063   6.753
 9351POPC   C3B55701  31.495  13.054   7.053
 9351POPC   C4B55702  31.478  13.082   7.353
 9352POPC   NC355703   7.406  20.654   5.553
 9352POPC   PO455704   7.397  20.632   5.853
 9352POPC   GL155705   7.407  20.623   6.153
 9352POPC   GL255706   7.512  20.536   6.153
 9352POPC   C1A55707   7.430  20.631   6.453
 9352POPC   D2A55708   7.401  20.601   6.753
 9352POPC   C3A55709   7.379  20.655   7.053
 9352POPC   C4A55710   7.421  20.658   7.353
 9352POPC   C1B55711   7.618  20.470   6.453
 9352POPC   C2B55712   7.599  20.488   6.753
 9352POPC   C3B55713   7.661  20.458   7.053
 9352POPC   C4B55714   7.627  20.505   7.353
 9353POPC   NC355715   4.344  38.407   5.553
 9353POPC   PO455716   4.323  38.451   5.853
 9353POPC   GL155717   4.269  38.459   6.153
 9353POPC   GL255718   4.437  38.325   6.153
 9353POPC   C1A55719   4.365  38.502   6.453
 9353POPC   D2A55720   4.323  38.454   6.753
 9353POPC   C3A55721   4.298  38.453   7.053
 9353POPC   C4A55722   4.340  38.493   7.353
 9353POPC   C1B55723   4.474  38.275   6.453
 9353POPC   C2B55724   4.450  38.238   6.753
 9353POPC   C3B55725   4.494  38.284   7.053
 9353POPC   C4B55726   4.450  38.267   7.353
 9354POPC   NC355727  33.837   0.429   5.553
 9354POPC   PO455728  33.822   0.461   5.853
 9354POPC   GL155729  33.807   0.477   6.153
 9354POPC   GL255730  33.720   0.422   6.153
 9354POPC   C1A55731  33.781   0.403   6.453
 9354POPC   D2A55732  33.831   0.468   6.753
 9354POPC   C3A55733  33.811   0.406   7.053
 9354POPC   C4A55734  33.830   0.446   7.353
 9354POPC   C1B55735  33.598   0.424   6.453
 9354POPC   C2B55736  33.558   0.378   6.753
 9354POPC   C3B55737  33.592   0.429   7.053
 9354POPC   C4B55738  33.572   0.394   7.353
 9355POPC   NC355739  13.645  39.252   5.553
 9355POPC   PO455740  13.579  39.220   5.853
 9355POPC   GL155741  13.674  39.272   6.153
 9355POPC   GL255742  13.635  39.062   6.153
 9355POPC   C1A55743  13.590  39.270   6.453
 9355POPC   D2A55744  13.636  39.214   6.753
 9355POPC   C3A55745  13.648  39.194   7.053
 9355POPC   C4A55746  13.631  39.272   7.353
 9355POPC   C1B55747  13.612  38.961   6.453
 9355POPC   C2B55748  13.596  38.963   6.753
 9355POPC   C3B55749  13.635  38.935   7.053
 9355POPC   C4B55750  13.605  38.968   7.353
 9356POPC   NC355751   6.679   0.436   5.553
 9356POPC   PO455752   6.677   0.421   5.853
 9356POPC   GL155753   6.627   0.457   6.153
 9356POPC   GL255754   6.501   0.525   6.153
 9356POPC   C1A55755   6.616   0.420   6.453
 9356POPC   D2A55756   6.602   0.431   6.753
 9356POPC   C3A55757   6.671   0.421   7.053
 9356POPC   C4A55758   6.677   0.442   7.353
 9356POPC   C1B55759   6.439   0.565   6.453
 9356POPC   C2B55760   6.445   0.501   6.753
 9356POPC   C3B55761   6.405   0.474   7.053
 9356POPC   C4B55762   6.406   0.509   7.353
 9357POPC   NC355763  25.238  23.753   5.553
 9357POPC   PO455764  25.264  23.667   5.853
 9357POPC   GL155765  25.244  23.712   6.153
 9357POPC   GL255766  25.369  23.699   6.153
 9357POPC   C1A55767  25.274  23.706   6.453
 9357POPC   D2A55768  25.256  23.665   6.753
 9357POPC   C3A55769  25.270  23.676   7.053
 9357POPC   C4A55770  25.228  23.722   7.353
 9357POPC   C1B55771  25.488  23.615   6.453
 9357POPC   C2B55772  25.451  23.613   6.753
 9357POPC   C3B55773  25.482  23.579   7.053
 9357POPC   C4B55774  25.450  23.642   7.353
 9358POPC   NC355775  30.675  12.070   5.553
 9358POPC   PO455776  30.655  12.034   5.853
 9358POPC   GL155777  30.702  12.038   6.153
 9358POPC   GL255778  30.591  12.107   6.153
 9358POPC   C1A55779  30.692  12.080   6.453
 9358POPC   D2A55780  30.666  12.028   6.753
 9358POPC   C3A55781  30.729  12.101   7.053
 9358POPC   C4A55782  30.721  12.076   7.353
 9358POPC   C1B55783  30.539  12.239   6.453
 9358POPC   C2B55784  30.481  12.202   6.753
 9358POPC   C3B55785  30.483  12.267   7.053
 9358POPC   C4B55786  30.486  12.188   7.353
 9359POPC   NC355787  32.983   8.954   5.553
 9359POPC   PO455788  32.985   8.979   5.853
 9359POPC   GL155789  33.036   8.998   6.153
 9359POPC   GL255790  33.100   8.957   6.153
 9359POPC   C1A55791  33.053   8.946   6.453
 9359POPC   D2A55792  33.057   8.932   6.753
 9359POPC   C3A55793  33.061   8.983   7.053
 9359POPC   C4A55794  33.016   8.950   7.353
 9359POPC   C1B55795  33.289   8.880   6.453
 9359POPC   C2B55796  33.238   8.872   6.753
 9359POPC   C3B55797  33.213   8.819   7.053
 9359POPC   C4B55798  33.290   8.824   7.353
 9360POPC   NC355799  29.941  25.276   5.553
 9360POPC   PO455800  29.927  25.224   5.853
 9360POPC   GL155801  29.871  25.288   6.153
 9360POPC   GL255802  30.030  25.210   6.153
 9360POPC   C1A55803  29.957  25.220   6.453
 9360POPC   D2A55804  29.913  25.313   6.753
 9360POPC   C3A55805  29.906  25.298   7.053
 9360POPC   C4A55806  29.909  25.288   7.353
 9360POPC   C1B55807  30.072  25.029   6.453
 9360POPC   C2B55808  30.018  25.006   6.753
 9360POPC   C3B55809  30.091  25.030   7.053
 9360POPC   C4B55810  30.078  25.058   7.353
 9361POPC   NC355811  44.704  33.800   5.553
 9361POPC   PO455812  44.699  33.842   5.853
 9361POPC   GL155813  44.689  33.825   6.153
 9361POPC   GL255814  44.535  33.914   6.153
 9361POPC   C1A55815  44.675  33.812   6.453
 9361POPC   D2A55816  44.682  33.781   6.753
 9361POPC   C3A55817  44.647  33.775   7.053
 9361POPC   C4A55818  44.624  33.800   7.353
 9361POPC   C1B55819  44.543  34.012   6.453
 9361POPC   C2B55820  44.531  34.007   6.753
 9361POPC   C3B55821  44.506  33.992   7.053
 9361POPC   C4B55822  44.522  33.978   7.353
 9362POPC   NC355823  41.603  41.579   5.553
 9362POPC   PO455824  41.555  41.547   5.853
 9362POPC   GL155825  41.599  41.550   6.153
 9362POPC   GL255826  41.585  41.696   6.153
 9362POPC   C1A55827  41.528  41.555   6.453
 9362POPC   D2A55828  41.553  41.509   6.753
 9362POPC   C3A55829  41.510  41.552   7.053
 9362POPC   C4A55830  41.544  41.550   7.353
 9362POPC   C1B55831  41.488  41.818   6.453
 9362POPC   C2B55832  41.513  41.767   6.753
 9362POPC   C3B55833  41.519  41.762   7.053
 9362POPC   C4B55834  41.479  41.764   7.353
 9363POPC   NC355835  26.805  44.639   5.553
 9363POPC   PO455836  26.836  44.677   5.853
 9363POPC   GL155837  26.800  44.657   6.153
 9363POPC   GL255838  26.940  44.633   6.153
 9363POPC   C1A55839  26.829  44.706   6.453
 9363POPC   D2A55840  26.822  44.692   6.753
 9363POPC   C3A55841  26.792  44.662   7.053
 9363POPC   C4A55842  26.856  44.635   7.353
 9363POPC   C1B55843  27.026  44.536   6.453
 9363POPC   C2B55844  27.023  44.526   6.753
 9363POPC   C3B55845  27.012  44.562   7.053
 9363POPC   C4B55846  27.031  44.501   7.353
 9364POPC   NC355847   4.359  25.295   5.553
 9364POPC   PO455848   4.293  25.312   5.853
 9364POPC   GL155849   4.315  25.307   6.153
 9364POPC   GL255850   4.469  25.233   6.153
 9364POPC   C1A55851   4.329  25.282   6.453
 9364POPC   D2A55852   4.303  25.288   6.753
 9364POPC   C3A55853   4.346  25.310   7.053
 9364POPC   C4A55854   4.301  25.293   7.353
 9364POPC   C1B55855   4.509  25.174   6.453
 9364POPC   C2B55856   4.577  25.192   6.753
 9364POPC   C3B55857   4.564  25.181   7.053
 9364POPC   C4B55858   4.513  25.210   7.353
 9365POPC   NC355859   5.885  24.486   5.553
 9365POPC   PO455860   5.851  24.512   5.853
 9365POPC   GL155861   5.870  24.495   6.153
 9365POPC   GL255862   5.895  24.610   6.153
 9365POPC   C1A55863   5.870  24.531   6.453
 9365POPC   D2A55864   5.836  24.440   6.753
 9365POPC   C3A55865   5.904  24.537   7.053
 9365POPC   C4A55866   5.890  24.526   7.353
 9365POPC   C1B55867   5.884  24.726   6.453
 9365POPC   C2B55868   5.943  24.774   6.753
 9365POPC   C3B55869   5.868  24.686   7.053
 9365POPC   C4B55870   5.870  24.733   7.353
 9366POPC   NC355871   8.967  44.660   5.553
 9366POPC   PO455872   8.933  44.619   5.853
 9366POPC   GL155873   8.990  44.667   6.153
 9366POPC   GL255874   8.975  44.533   6.153
 9366POPC   C1A55875   9.006  44.668   6.453
 9366POPC   D2A55876   8.956  44.620   6.753
 9366POPC   C3A55877   9.022  44.698   7.053
 9366POPC   C4A55878   9.014  44.702   7.353
 9366POPC   C1B55879   8.920  44.451   6.453
 9366POPC   C2B55880   8.949  44.385   6.753
 9366POPC   C3B55881   8.882  44.446   7.053
 9366POPC   C4B55882   8.967  44.450   7.353
 9367POPC   NC355883  22.932  39.996   5.553
 9367POPC   PO455884  22.971  39.996   5.853
 9367POPC   GL155885  22.900  39.985   6.153
 9367POPC   GL255886  23.058  40.097   6.153
 9367POPC   C1A55887  22.962  39.971   6.453
 9367POPC   D2A55888  22.935  40.007   6.753
 9367POPC   C3A55889  22.949  40.043   7.053
 9367POPC   C4A55890  22.977  40.018   7.353
 9367POPC   C1B55891  23.125  40.071   6.453
 9367POPC   C2B55892  23.194  40.100   6.753
 9367POPC   C3B55893  23.129  40.091   7.053
 9367POPC   C4B55894  23.142  40.095   7.353
 9368POPC   NC355895  40.807  10.558   5.553
 9368POPC   PO455896  40.788  10.521   5.853
 9368POPC   GL155897  40.819  10.505   6.153
 9368POPC   GL255898  40.839  10.451   6.153
 9368POPC   C1A55899  40.781  10.561   6.453
 9368POPC   D2A55900  40.751  10.554   6.753
 9368POPC   C3A55901  40.757  10.549   7.053
 9368POPC   C4A55902  40.753  10.560   7.353
 9368POPC   C1B55903  40.952  10.346   6.453
 9368POPC   C2B55904  41.011  10.404   6.753
 9368POPC   C3B55905  40.986  10.372   7.053
 9368POPC   C4B55906  40.939  10.420   7.353
 9369POPC   NC355907   9.771  10.503   5.553
 9369POPC   PO455908   9.790  10.495   5.853
 9369POPC   GL155909   9.783  10.496   6.153
 9369POPC   GL255910   9.882  10.442   6.153
 9369POPC   C1A55911   9.777  10.568   6.453
 9369POPC   D2A55912   9.728  10.557   6.753
 9369POPC   C3A55913   9.765  10.496   7.053
 9369POPC   C4A55914   9.748  10.488   7.353
 9369POPC   C1B55915   9.933  10.399   6.453
 9369POPC   C2B55916  10.006  10.347   6.753
 9369POPC   C3B55917   9.913  10.405   7.053
 9369POPC   C4B55918   9.947  10.436   7.353
 9370POPC   NC355919  44.625  21.398   5.553
 9370POPC   PO455920  44.665  21.422   5.853
 9370POPC   GL155921  44.660  21.379   6.153
 9370POPC   GL255922  44.756  21.263   6.153
 9370POPC   C1A55923  44.681  21.368   6.453
 9370POPC   D2A55924  44.616  21.424   6.753
 9370POPC   C3A55925  44.670  21.388   7.053
 9370POPC   C4A55926  44.614  21.425   7.353
 9370POPC   C1B55927  44.835  21.259   6.453
 9370POPC   C2B55928  44.878  21.233   6.753
 9370POPC   C3B55929  44.897  21.203   7.053
 9370POPC   C4B55930  44.891  21.246   7.353
 9371POPC   NC355931  43.131  42.294   5.553
 9371POPC   PO455932  43.142  42.296   5.853
 9371POPC   GL155933  43.103  42.313   6.153
 9371POPC   GL255934  43.135  42.457   6.153
 9371POPC   C1A55935  43.144  42.310   6.453
 9371POPC   D2A55936  43.084  42.313   6.753
 9371POPC   C3A55937  43.118  42.373   7.053
 9371POPC   C4A55938  43.141  42.378   7.353
 9371POPC   C1B55939  43.212  42.563   6.453
 9371POPC   C2B55940  43.207  42.619   6.753
 9371POPC   C3B55941  43.208  42.576   7.053
 9371POPC   C4B55942  43.142  42.605   7.353
 9372POPC   NC355943  20.608   0.409   5.553
 9372POPC   PO455944  20.578   0.393   5.853
 9372POPC   GL155945  20.635   0.427   6.153
 9372POPC   GL255946  20.623   0.340   6.153
 9372POPC   C1A55947  20.641   0.424   6.453
 9372POPC   D2A55948  20.593   0.397   6.753
 9372POPC   C3A55949  20.575   0.487   7.053
 9372POPC   C4A55950  20.632   0.447   7.353
 9372POPC   C1B55951  20.545   0.184   6.453
 9372POPC   C2B55952  20.586   0.142   6.753
 9372POPC   C3B55953  20.563   0.236   7.053
 9372POPC   C4B55954  20.530   0.238   7.353
 9373POPC   NC355955   2.790  33.816   5.553
 9373POPC   PO455956   2.758  33.754   5.853
 9373POPC   GL155957   2.786  33.798   6.153
 9373POPC   GL255958   2.649  33.856   6.153
 9373POPC   C1A55959   2.722  33.777   6.453
 9373POPC   D2A55960   2.775  33.812   6.753
 9373POPC   C3A55961   2.769  33.811   7.053
 9373POPC   C4A55962   2.789  33.802   7.353
 9373POPC   C1B55963   2.518  33.965   6.453
 9373POPC   C2B55964   2.542  33.964   6.753
 9373POPC   C3B55965   2.510  33.901   7.053
 9373POPC   C4B55966   2.545  33.986   7.353
 9374POPC   NC355967   1.244  22.944   5.553
 9374POPC   PO455968   1.196  22.938   5.853
 9374POPC   GL155969   1.234  22.908   6.153
 9374POPC   GL255970   1.233  22.832   6.153
 9374POPC   C1A55971   1.200  22.901   6.453
 9374POPC   D2A55972   1.224  22.917   6.753
 9374POPC   C3A55973   1.244  22.893   7.053
 9374POPC   C4A55974   1.236  22.931   7.353
 9374POPC   C1B55975   1.333  22.708   6.453
 9374POPC   C2B55976   1.257  22.725   6.753
 9374POPC   C3B55977   1.329  22.694   7.053
 9374POPC   C4B55978   1.268  22.656   7.353
 9375POPC   NC355979  39.991  26.016   5.553
 9375POPC   PO455980  40.033  26.048   5.853
 9375POPC   GL155981  39.993  26.087   6.153
 9375POPC   GL255982  39.989  26.184   6.153
 9375POPC   C1A55983  39.982  25.999   6.453
 9375POPC   D2A55984  40.028  26.086   6.753
 9375POPC   C3A55985  40.057  26.038   7.053
 9375POPC   C4A55986  40.012  26.063   7.353
 9375POPC   C1B55987  40.002  26.289   6.453
 9375POPC   C2B55988  39.938  26.322   6.753
 9375POPC   C3B55989  39.954  26.290   7.053
 9375POPC   C4B55990  40.011  26.252   7.353
 9376POPC   NC355991  37.662  36.136   5.553
 9376POPC   PO455992  37.649  36.099   5.853
 9376POPC   GL155993  37.701  36.101   6.153
 9376POPC   GL255994  37.830  36.101   6.153
 9376POPC   C1A55995  37.707  36.099   6.453
 9376POPC   D2A55996  37.721  36.117   6.753
 9376POPC   C3A55997  37.680  36.094   7.053
 9376POPC   C4A55998  37.678  36.085   7.353
 9376POPC   C1B55999  37.976  36.094   6.453
 9376POPC   C2B56000  37.903  36.067   6.753
 9376POPC   C3B56001  37.911  36.131   7.053
 9376POPC   C4B56002  37.937  36.138   7.353
 9377POPC   NC356003  13.583   2.805   5.553
 9377POPC   PO456004  13.659   2.716   5.853
 9377POPC   GL156005  13.597   2.786   6.153
 9377POPC   GL256006  13.756   2.774   6.153
 9377POPC   C1A56007  13.671   2.787   6.453
 9377POPC   D2A56008  13.673   2.775   6.753
 9377POPC   C3A56009  13.663   2.778   7.053
 9377POPC   C4A56010  13.638   2.805   7.353
 9377POPC   C1B56011  13.888   2.880   6.453
 9377POPC   C2B56012  13.827   2.888   6.753
 9377POPC   C3B56013  13.820   2.826   7.053
 9377POPC   C4B56014  13.844   2.811   7.353
 9378POPC   NC356015  33.050   6.596   5.553
 9378POPC   PO456016  32.977   6.683   5.853
 9378POPC   GL156017  32.991   6.628   6.153
 9378POPC   GL256018  33.045   6.736   6.153
 9378POPC   C1A56019  33.043   6.638   6.453
 9378POPC   D2A56020  32.989   6.664   6.753
 9378POPC   C3A56021  32.976   6.605   7.053
 9378POPC   C4A56022  33.019   6.676   7.353
 9378POPC   C1B56023  33.096   6.874   6.453
 9378POPC   C2B56024  33.049   6.916   6.753
 9378POPC   C3B56025  33.038   6.855   7.053
 9378POPC   C4B56026  33.044   6.876   7.353
 9379POPC   NC356027  13.668   5.911   5.553
 9379POPC   PO456028  13.624   5.870   5.853
 9379POPC   GL156029  13.578   5.838   6.153
 9379POPC   GL256030  13.508   5.894   6.153
 9379POPC   C1A56031  13.642   5.822   6.453
 9379POPC   D2A56032  13.647   5.880   6.753
 9379POPC   C3A56033  13.626   5.820   7.053
 9379POPC   C4A56034  13.623   5.852   7.353
 9379POPC   C1B56035  13.345   5.866   6.453
 9379POPC   C2B56036  13.412   5.919   6.753
 9379POPC   C3B56037  13.344   5.884   7.053
 9379POPC   C4B56038  13.377   5.896   7.353
 9380POPC   NC356039  27.631  35.399   5.553
 9380POPC   PO456040  27.639  35.327   5.853
 9380POPC   GL156041  27.614  35.394   6.153
 9380POPC   GL256042  27.583  35.213   6.153
 9380POPC   C1A56043  27.563  35.368   6.453
 9380POPC   D2A56044  27.607  35.371   6.753
 9380POPC   C3A56045  27.608  35.340   7.053
 9380POPC   C4A56046  27.572  35.365   7.353
 9380POPC   C1B56047  27.496  35.079   6.453
 9380POPC   C2B56048  27.443  35.154   6.753
 9380POPC   C3B56049  27.464  35.134   7.053
 9380POPC   C4B56050  27.436  35.116   7.353
 9381POPC   NC356051  33.809  36.124   5.553
 9381POPC   PO456052  33.778  36.104   5.853
 9381POPC   GL156053  33.833  36.096   6.153
 9381POPC   GL256054  33.821  36.221   6.153
 9381POPC   C1A56055  33.849  36.160   6.453
 9381POPC   D2A56056  33.804  36.174   6.753
 9381POPC   C3A56057  33.848  36.086   7.053
 9381POPC   C4A56058  33.776  36.142   7.353
 9381POPC   C1B56059  33.899  36.327   6.453
 9381POPC   C2B56060  33.870  36.365   6.753
 9381POPC   C3B56061  33.842  36.409   7.053
 9381POPC   C4B56062  33.921  36.408   7.353
 9382POPC   NC356063  36.943   4.275   5.553
 9382POPC   PO456064  36.948   4.333   5.853
 9382POPC   GL156065  36.857   4.282   6.153
 9382POPC   GL256066  36.977   4.213   6.153
 9382POPC   C1A56067  36.892   4.333   6.453
 9382POPC   D2A56068  36.935   4.360   6.753
 9382POPC   C3A56069  36.875   4.367   7.053
 9382POPC   C4A56070  36.930   4.270   7.353
 9382POPC   C1B56071  37.007   4.063   6.453
 9382POPC   C2B56072  37.070   4.128   6.753
 9382POPC   C3B56073  37.018   4.094   7.053
 9382POPC   C4B56074  37.044   4.115   7.353
 9383POPC   NC356075   4.364  11.340   5.553
 9383POPC   PO456076   4.345  11.270   5.853
 9383POPC   GL156077   4.319  11.350   6.153
 9383POPC   GL256078   4.418  11.360   6.153
 9383POPC   C1A56079   4.312  11.283   6.453
 9383POPC   D2A56080   4.355  11.324   6.753
 9383POPC   C3A56081   4.303  11.287   7.053
 9383POPC   C4A56082   4.301  11.335   7.353
 9383POPC   C1B56083   4.524  11.302   6.453
 9383POPC   C2B56084   4.517  11.274   6.753
 9383POPC   C3B56085   4.551  11.334   7.053
 9383POPC   C4B56086   4.594  11.327   7.353
 9384POPC   NC356087  25.291  21.423   5.553
 9384POPC   PO456088  25.304  21.390   5.853
 9384POPC   GL156089  25.306  21.394   6.153
 9384POPC   GL256090  25.308  21.560   6.153
 9384POPC   C1A56091  25.304  21.376   6.453
 9384POPC   D2A56092  25.309  21.420   6.753
 9384POPC   C3A56093  25.296  21.413   7.053
 9384POPC   C4A56094  25.256  21.419   7.353
 9384POPC   C1B56095  25.273  21.640   6.453
 9384POPC   C2B56096  25.328  21.676   6.753
 9384POPC   C3B56097  25.274  21.651   7.053
 9384POPC   C4B56098  25.278  21.610   7.353
 9385POPC   NC356099   9.714  26.056   5.553
 9385POPC   PO456100   9.724  26.031   5.853
 9385POPC   GL156101   9.787  26.005   6.153
 9385POPC   GL256102   9.909  26.057   6.153
 9385POPC   C1A56103   9.790  26.005   6.453
 9385POPC   D2A56104   9.719  26.078   6.753
 9385POPC   C3A56105   9.714  25.996   7.053
 9385POPC   C4A56106   9.711  26.078   7.353
 9385POPC   C1B56107   9.967  26.148   6.453
 9385POPC   C2B56108   9.933  26.129   6.753
 9385POPC   C3B56109   9.953  26.161   7.053
 9385POPC   C4B56110   9.959  26.160   7.353
 9386POPC   NC356111  39.986  24.478   5.553
 9386POPC   PO456112  40.017  24.467   5.853
 9386POPC   GL156113  39.964  24.479   6.153
 9386POPC   GL256114  39.923  24.507   6.153
 9386POPC   C1A56115  40.001  24.527   6.453
 9386POPC   D2A56116  39.994  24.444   6.753
 9386POPC   C3A56117  39.972  24.481   7.053
 9386POPC   C4A56118  39.995  24.460   7.353
 9386POPC   C1B56119  39.735  24.529   6.453
 9386POPC   C2B56120  39.756  24.490   6.753
 9386POPC   C3B56121  39.756  24.566   7.053
 9386POPC   C4B56122  39.786  24.565   7.353
 9387POPC   NC356123   7.465  35.334   5.553
 9387POPC   PO456124   7.413  35.395   5.853
 9387POPC   GL156125   7.398  35.371   6.153
 9387POPC   GL256126   7.270  35.410   6.153
 9387POPC   C1A56127   7.404  35.318   6.453
 9387POPC   D2A56128   7.386  35.334   6.753
 9387POPC   C3A56129   7.374  35.367   7.053
 9387POPC   C4A56130   7.414  35.306   7.353
 9387POPC   C1B56131   7.209  35.415   6.453
 9387POPC   C2B56132   7.180  35.429   6.753
 9387POPC   C3B56133   7.217  35.403   7.053
 9387POPC   C4B56134   7.148  35.450   7.353
 9388POPC   NC356135  21.433   7.470   5.553
 9388POPC   PO456136  21.347   7.395   5.853
 9388POPC   GL156137  21.430   7.399   6.153
 9388POPC   GL256138  21.427   7.288   6.153
 9388POPC   C1A56139  21.418   7.420   6.453
 9388POPC   D2A56140  21.414   7.446   6.753
 9388POPC   C3A56141  21.372   7.383   7.053
 9388POPC   C4A56142  21.390   7.393   7.353
 9388POPC   C1B56143  21.433   7.139   6.453
 9388POPC   C2B56144  21.480   7.201   6.753
 9388POPC   C3B56145  21.460   7.187   7.053
 9388POPC   C4B56146  21.459   7.174   7.353
 9389POPC   NC356147   5.047  30.661   5.553
 9389POPC   PO456148   5.124  30.729   5.853
 9389POPC   GL156149   5.084  30.717   6.153
 9389POPC   GL256150   5.083  30.777   6.153
 9389POPC   C1A56151   5.108  30.670   6.453
 9389POPC   D2A56152   5.074  30.742   6.753
 9389POPC   C3A56153   5.142  30.716   7.053
 9389POPC   C4A56154   5.102  30.713   7.353
 9389POPC   C1B56155   5.145  30.924   6.453
 9389POPC   C2B56156   5.136  30.920   6.753
 9389POPC   C3B56157   5.108  30.980   7.053
 9389POPC   C4B56158   5.108  30.991   7.353
 9390POPC   NC356159  30.666   8.161   5.553
 9390POPC   PO456160  30.696   8.215   5.853
 9390POPC   GL156161  30.650   8.212   6.153
 9390POPC   GL256162  30.600   8.257   6.153
 9390POPC   C1A56163  30.674   8.194   6.453
 9390POPC   D2A56164  30.698   8.195   6.753
 9390POPC   C3A56165  30.648   8.228   7.053
 9390POPC   C4A56166  30.715   8.191   7.353
 9390POPC   C1B56167  30.532   8.387   6.453
 9390POPC   C2B56168  30.482   8.406   6.753
 9390POPC   C3B56169  30.501   8.393   7.053
 9390POPC   C4B56170  30.553   8.351   7.353
 9391POPC   NC356171  14.423  18.297   5.553
 9391POPC   PO456172  14.434  18.305   5.853
 9391POPC   GL156173  14.437  18.278   6.153
 9391POPC   GL256174  14.428  18.382   6.153
 9391POPC   C1A56175  14.399  18.282   6.453
 9391POPC   D2A56176  14.432  18.312   6.753
 9391POPC   C3A56177  14.444  18.328   7.053
 9391POPC   C4A56178  14.427  18.302   7.353
 9391POPC   C1B56179  14.548  18.522   6.453
 9391POPC   C2B56180  14.577  18.484   6.753
 9391POPC   C3B56181  14.518  18.490   7.053
 9391POPC   C4B56182  14.507  18.462   7.353
 9392POPC   NC356183  36.131  34.625   5.553
 9392POPC   PO456184  36.120  34.541   5.853
 9392POPC   GL156185  36.130  34.610   6.153
 9392POPC   GL256186  36.094  34.715   6.153
 9392POPC   C1A56187  36.145  34.602   6.453
 9392POPC   D2A56188  36.102  34.613   6.753
 9392POPC   C3A56189  36.081  34.545   7.053
 9392POPC   C4A56190  36.104  34.620   7.353
 9392POPC   C1B56191  36.061  34.865   6.453
 9392POPC   C2B56192  36.052  34.810   6.753
 9392POPC   C3B56193  36.066  34.802   7.053
 9392POPC   C4B56194  36.101  34.803   7.353
 9393POPC   NC356195  21.416  22.979   5.553
 9393POPC   PO456196  21.381  22.896   5.853
 9393POPC   GL156197  21.347  22.964   6.153
 9393POPC   GL256198  21.472  22.831   6.153
 9393POPC   C1A56199  21.374  22.971   6.453
 9393POPC   D2A56200  21.418  22.929   6.753
 9393POPC   C3A56201  21.355  22.980   7.053
 9393POPC   C4A56202  21.386  22.963   7.353
 9393POPC   C1B56203  21.550  22.810   6.453
 9393POPC   C2B56204  21.563  22.760   6.753
 9393POPC   C3B56205  21.552  22.758   7.053
 9393POPC   C4B56206  21.617  22.813   7.353
 9394POPC   NC356207  33.038  13.652   5.553
 9394POPC   PO456208  32.997  13.630   5.853
 9394POPC   GL156209  33.004  13.586   6.153
 9394POPC   GL256210  32.942  13.776   6.153
 9394POPC   C1A56211  33.033  13.606   6.453
 9394POPC   D2A56212  33.065  13.585   6.753
 9394POPC   C3A56213  33.052  13.627   7.053
 9394POPC   C4A56214  33.048  13.578   7.353
 9394POPC   C1B56215  32.897  13.899   6.453
 9394POPC   C2B56216  32.929  13.872   6.753
 9394POPC   C3B56217  32.909  13.904   7.053
 9394POPC   C4B56218  32.928  13.823   7.353
 9395POPC   NC356219  16.683  29.124   5.553
 9395POPC   PO456220  16.753  29.147   5.853
 9395POPC   GL156221  16.778  29.138   6.153
 9395POPC   GL256222  16.681  28.995   6.153
 9395POPC   C1A56223  16.737  29.159   6.453
 9395POPC   D2A56224  16.733  29.158   6.753
 9395POPC   C3A56225  16.689  29.186   7.053
 9395POPC   C4A56226  16.776  29.180   7.353
 9395POPC   C1B56227  16.612  28.948   6.453
 9395POPC   C2B56228  16.568  28.964   6.753
 9395POPC   C3B56229  16.581  28.979   7.053
 9395POPC   C4B56230  16.547  28.919   7.353
 9396POPC   NC356231  31.485  25.311   5.553
 9396POPC   PO456232  31.471  25.218   5.853
 9396POPC   GL156233  31.512  25.258   6.153
 9396POPC   GL256234  31.536  25.217   6.153
 9396POPC   C1A56235  31.512  25.228   6.453
 9396POPC   D2A56236  31.473  25.308   6.753
 9396POPC   C3A56237  31.475  25.260   7.053
 9396POPC   C4A56238  31.481  25.226   7.353
 9396POPC   C1B56239  31.636  25.142   6.453
 9396POPC   C2B56240  31.661  25.138   6.753
 9396POPC   C3B56241  31.720  25.149   7.053
 9396POPC   C4B56242  31.677  25.133   7.353
 9397POPC   NC356243  43.931  44.681   5.553
 9397POPC   PO456244  43.909  44.621   5.853
 9397POPC   GL156245  43.857  44.662   6.153
 9397POPC   GL256246  43.749  44.717   6.153
 9397POPC   C1A56247  43.869  44.663   6.453
 9397POPC   D2A56248  43.892  44.623   6.753
 9397POPC   C3A56249  43.900  44.613   7.053
 9397POPC   C4A56250  43.926  44.641   7.353
 9397POPC   C1B56251  43.729  44.789   6.453
 9397POPC   C2B56252  43.687  44.817   6.753
 9397POPC   C3B56253  43.677  44.816   7.053
 9397POPC   C4B56254  43.682  44.831   7.353
 9398POPC   NC356255   1.247  37.718   5.553
 9398POPC   PO456256   1.202  37.697   5.853
 9398POPC   GL156257   1.210  37.632   6.153
 9398POPC   GL256258   1.051  37.641   6.153
 9398POPC   C1A56259   1.190  37.632   6.453
 9398POPC   D2A56260   1.239  37.707   6.753
 9398POPC   C3A56261   1.221  37.656   7.053
 9398POPC   C4A56262   1.187  37.699   7.353
 9398POPC   C1B56263   0.949  37.543   6.453
 9398POPC   C2B56264   0.950  37.596   6.753
 9398POPC   C3B56265   1.010  37.572   7.053
 9398POPC   C4B56266   0.978  37.536   7.353
 9399POPC   NC356267   7.406   8.978   5.553
 9399POPC   PO456268   7.399   8.985   5.853
 9399POPC   GL156269   7.461   9.014   6.153
 9399POPC   GL256270   7.551   8.965   6.153
 9399POPC   C1A56271   7.407   9.000   6.453
 9399POPC   D2A56272   7.435   8.967   6.753
 9399POPC   C3A56273   7.414   8.957   7.053
 9399POPC   C4A56274   7.434   8.932   7.353
 9399POPC   C1B56275   7.668   8.997   6.453
 9399POPC   C2B56276   7.643   9.063   6.753
 9399POPC   C3B56277   7.629   9.029   7.053
 9399POPC   C4B56278   7.706   9.070   7.353
 9400POPC   NC356279  23.727  15.222   5.553
 9400POPC   PO456280  23.741  15.179   5.853
 9400POPC   GL156281  23.723  15.202   6.153
 9400POPC   GL256282  23.754  15.012   6.153
 9400POPC   C1A56283  23.707  15.200   6.453
 9400POPC   D2A56284  23.745  15.214   6.753
 9400POPC   C3A56285  23.694  15.140   7.053
 9400POPC   C4A56286  23.726  15.186   7.353
 9400POPC   C1B56287  23.781  14.968   6.453
 9400POPC   C2B56288  23.754  14.929   6.753
 9400POPC   C3B56289  23.719  14.948   7.053
 9400POPC   C4B56290  23.795  14.945   7.353
 9401POPC   NC356291  31.469   6.671   5.553
 9401POPC   PO456292  31.468   6.677   5.853
 9401POPC   GL156293  31.462   6.681   6.153
 9401POPC   GL256294  31.480   6.807   6.153
 9401POPC   C1A56295  31.456   6.682   6.453
 9401POPC   D2A56296  31.453   6.622   6.753
 9401POPC   C3A56297  31.439   6.615   7.053
 9401POPC   C4A56298  31.424   6.618   7.353
 9401POPC   C1B56299  31.460   6.879   6.453
 9401POPC   C2B56300  31.514   6.858   6.753
 9401POPC   C3B56301  31.480   6.867   7.053
 9401POPC   C4B56302  31.506   6.867   7.353
 9402POPC   NC356303  42.383   9.758   5.553
 9402POPC   PO456304  42.344   9.714   5.853
 9402POPC   GL156305  42.315   9.752   6.153
 9402POPC   GL256306  42.497   9.734   6.153
 9402POPC   C1A56307  42.333   9.770   6.453
 9402POPC   D2A56308  42.350   9.783   6.753
 9402POPC   C3A56309  42.348   9.793   7.053
 9402POPC   C4A56310  42.346   9.709   7.353
 9402POPC   C1B56311  42.528   9.613   6.453
 9402POPC   C2B56312  42.524   9.658   6.753
 9402POPC   C3B56313  42.598   9.608   7.053
 9402POPC   C4B56314  42.524   9.610   7.353
 9403POPC   NC356315  27.634  16.757   5.553
 9403POPC   PO456316  27.573  16.742   5.853
 9403POPC   GL156317  27.552  16.770   6.153
 9403POPC   GL256318  27.669  16.702   6.153
 9403POPC   C1A56319  27.580  16.698   6.453
 9403POPC   D2A56320  27.603  16.759   6.753
 9403POPC   C3A56321  27.546  16.729   7.053
 9403POPC   C4A56322  27.596  16.713   7.353
 9403POPC   C1B56323  27.856  16.707   6.453
 9403POPC   C2B56324  27.875  16.714   6.753
 9403POPC   C3B56325  27.866  16.632   7.053
 9403POPC   C4B56326  27.798  16.702   7.353
 9404POPC   NC356327  38.424  43.852   5.553
 9404POPC   PO456328  38.426  43.882   5.853
 9404POPC   GL156329  38.460  43.929   6.153
 9404POPC   GL256330  38.463  43.988   6.153
 9404POPC   C1A56331  38.426  43.878   6.453
 9404POPC   D2A56332  38.463  43.933   6.753
 9404POPC   C3A56333  38.409  43.851   7.053
 9404POPC   C4A56334  38.446  43.932   7.353
 9404POPC   C1B56335  38.433  44.146   6.453
 9404POPC   C2B56336  38.384  44.155   6.753
 9404POPC   C3B56337  38.357  44.130   7.053
 9404POPC   C4B56338  38.422  44.086   7.353
 9405POPC   NC356339  22.198  28.363   5.553
 9405POPC   PO456340  22.124  28.409   5.853
 9405POPC   GL156341  22.212  28.398   6.153
 9405POPC   GL256342  22.000  28.423   6.153
 9405POPC   C1A56343  22.198  28.381   6.453
 9405POPC   D2A56344  22.181  28.337   6.753
 9405POPC   C3A56345  22.204  28.321   7.053
 9405POPC   C4A56346  22.133  28.379   7.353
 9405POPC   C1B56347  21.979  28.502   6.453
 9405POPC   C2B56348  21.936  28.435   6.753
 9405POPC   C3B56349  21.925  28.428   7.053
 9405POPC   C4B56350  21.930  28.438   7.353
 9406POPC   NC356351  18.287  25.261   5.553
 9406POPC   PO456352  18.274  25.220   5.853
 9406POPC   GL156353  18.236  25.247   6.153
 9406POPC   GL256354  18.412  25.218   6.153
 9406POPC   C1A56355  18.310  25.299   6.453
 9406POPC   D2A56356  18.283  25.264   6.753
 9406POPC   C3A56357  18.277  25.254   7.053
 9406POPC   C4A56358  18.247  25.227   7.353
 9406POPC   C1B56359  18.488  25.238   6.453
 9406POPC   C2B56360  18.566  25.201   6.753
 9406POPC   C3B56361  18.491  25.179   7.053
 9406POPC   C4B56362  18.482  25.208   7.353
 9407POPC   NC356363  41.568  40.737   5.553
 9407POPC   PO456364  41.517  40.744   5.853
 9407POPC   GL156365  41.587  40.733   6.153
 9407POPC   GL256366  41.482  40.733   6.153
 9407POPC   C1A56367  41.591  40.785   6.453
 9407POPC   D2A56368  41.539  40.819   6.753
 9407POPC   C3A56369  41.591  40.811   7.053
 9407POPC   C4A56370  41.575  40.737   7.353
 9407POPC   C1B56371  41.348  40.658   6.453
 9407POPC   C2B56372  41.357  40.671   6.753
 9407POPC   C3B56373  41.314  40.661   7.053
 9407POPC   C4B56374  41.399  40.672   7.353
 9408POPC   NC356375   5.875  42.324   5.553
 9408POPC   PO456376   5.905  42.368   5.853
 9408POPC   GL156377   5.844  42.373   6.153
 9408POPC   GL256378   5.774  42.401   6.153
 9408POPC   C1A56379   5.859  42.288   6.453
 9408POPC   D2A56380   5.828  42.344   6.753
 9408POPC   C3A56381   5.892  42.293   7.053
 9408POPC   C4A56382   5.865  42.349   7.353
 9408POPC   C1B56383   5.764  42.561   6.453
 9408POPC   C2B56384   5.779  42.592   6.753
 9408POPC   C3B56385   5.719  42.510   7.053
 9408POPC   C4B56386   5.693  42.503   7.353
 9409POPC   NC356387  32.257  35.351   5.553
 9409POPC   PO456388  32.262  35.382   5.853
 9409POPC   GL156389  32.276  35.354   6.153
 9409POPC   GL256390  32.296  35.301   6.153
 9409POPC   C1A56391  32.281  35.318   6.453
 9409POPC   D2A56392  32.209  35.320   6.753
 9409POPC   C3A56393  32.231  35.401   7.053
 9409POPC   C4A56394  32.243  35.317   7.353
 9409POPC   C1B56395  32.460  35.204   6.453
 9409POPC   C2B56396  32.414  35.147   6.753
 9409POPC   C3B56397  32.374  35.219   7.053
 9409POPC   C4B56398  32.453  35.198   7.353
 9410POPC   NC356399  19.816   5.132   5.553
 9410POPC   PO456400  19.874   5.136   5.853
 9410POPC   GL156401  19.877   5.102   6.153
 9410POPC   GL256402  19.904   5.104   6.153
 9410POPC   C1A56403  19.841   5.122   6.453
 9410POPC   D2A56404  19.809   5.100   6.753
 9410POPC   C3A56405  19.881   5.052   7.053
 9410POPC   C4A56406  19.857   5.134   7.353
 9410POPC   C1B56407  20.029   5.243   6.453
 9410POPC   C2B56408  20.082   5.248   6.753
 9410POPC   C3B56409  20.079   5.239   7.053
 9410POPC   C4B56410  20.089   5.183   7.353
 9411POPC   NC356411  28.391  15.173   5.553
 9411POPC   PO456412  28.357  15.201   5.853
 9411POPC   GL156413  28.327  15.220   6.153
 9411POPC   GL256414  28.195  15.155   6.153
 9411POPC   C1A56415  28.330  15.218   6.453
 9411POPC   D2A56416  28.341  15.165   6.753
 9411POPC   C3A56417  28.379  15.169   7.053
 9411POPC   C4A56418  28.334  15.206   7.353
 9411POPC   C1B56419  28.163  15.197   6.453
 9411POPC   C2B56420  28.135  15.211   6.753
 9411POPC   C3B56421  28.112  15.181   7.053
 9411POPC   C4B56422  28.128  15.241   7.353
 9412POPC   NC356423  24.532  19.866   5.553
 9412POPC   PO456424  24.480  19.800   5.853
 9412POPC   GL156425  24.505  19.882   6.153
 9412POPC   GL256426  24.530  19.728   6.153
 9412POPC   C1A56427  24.481  19.813   6.453
 9412POPC   D2A56428  24.461  19.822   6.753
 9412POPC   C3A56429  24.457  19.869   7.053
 9412POPC   C4A56430  24.482  19.785   7.353
 9412POPC   C1B56431  24.610  19.622   6.453
 9412POPC   C2B56432  24.602  19.586   6.753
 9412POPC   C3B56433  24.590  19.651   7.053
 9412POPC   C4B56434  24.601  19.624   7.353
 9413POPC   NC356435  29.936  41.512   5.553
 9413POPC   PO456436  29.923  41.526   5.853
 9413POPC   GL156437  29.922  41.562   6.153
 9413POPC   GL256438  29.854  41.708   6.153
 9413POPC   C1A56439  29.881  41.573   6.453
 9413POPC   D2A56440  29.920  41.606   6.753
 9413POPC   C3A56441  29.924  41.525   7.053
 9413POPC   C4A56442  29.896  41.593   7.353
 9413POPC   C1B56443  29.848  41.777   6.453
 9413POPC   C2B56444  29.851  41.805   6.753
 9413POPC   C3B56445  29.876  41.745   7.053
 9413POPC   C4B56446  29.811  41.835   7.353
 9414POPC   NC356447  25.992  37.678   5.553
 9414POPC   PO456448  26.035  37.659   5.853
 9414POPC   GL156449  26.028  37.685   6.153
 9414POPC   GL256450  26.174  37.665   6.153
 9414POPC   C1A56451  25.996  37.702   6.453
 9414POPC   D2A56452  26.011  37.667   6.753
 9414POPC   C3A56453  26.000  37.640   7.053
 9414POPC   C4A56454  26.081  37.672   7.353
 9414POPC   C1B56455  26.253  37.673   6.453
 9414POPC   C2B56456  26.246  37.708   6.753
 9414POPC   C3B56457  26.251  37.721   7.053
 9414POPC   C4B56458  26.307  37.737   7.353
 9415POPC   NC356459   1.251   6.604   5.553
 9415POPC   PO456460   1.207   6.622   5.853
 9415POPC   GL156461   1.178   6.690   6.153
 9415POPC   GL256462   1.343   6.692   6.153
 9415POPC   C1A56463   1.196   6.673   6.453
 9415POPC   D2A56464   1.177   6.598   6.753
 9415POPC   C3A56465   1.232   6.599   7.053
 9415POPC   C4A56466   1.196   6.596   7.353
 9415POPC   C1B56467   1.442   6.715   6.453
 9415POPC   C2B56468   1.461   6.689   6.753
 9415POPC   C3B56469   1.420   6.674   7.053
 9415POPC   C4B56470   1.490   6.695   7.353
 9416POPC   NC356471  12.851  25.279   5.553
 9416POPC   PO456472  12.834  25.231   5.853
 9416POPC   GL156473  12.834  25.224   6.153
 9416POPC   GL256474  12.951  25.155   6.153
 9416POPC   C1A56475  12.893  25.222   6.453
 9416POPC   D2A56476  12.870  25.217   6.753
 9416POPC   C3A56477  12.820  25.217   7.053
 9416POPC   C4A56478  12.863  25.255   7.353
 9416POPC   C1B56479  13.082  25.146   6.453
 9416POPC   C2B56480  13.059  25.095   6.753
 9416POPC   C3B56481  13.031  25.105   7.053
 9416POPC   C4B56482  13.040  25.157   7.353
 9417POPC   NC356483   7.452  19.097   5.553
 9417POPC   PO456484   7.406  19.060   5.853
 9417POPC   GL156485   7.371  19.020   6.153
 9417POPC   GL256486   7.349  19.132   6.153
 9417POPC   C1A56487   7.389  19.108   6.453
 9417POPC   D2A56488   7.371  19.074   6.753
 9417POPC   C3A56489   7.443  19.024   7.053
 9417POPC   C4A56490   7.425  19.086   7.353
 9417POPC   C1B56491   7.195  19.218   6.453
 9417POPC   C2B56492   7.250  19.229   6.753
 9417POPC   C3B56493   7.158  19.163   7.053
 9417POPC   C4B56494   7.220  19.234   7.353
 9418POPC   NC356495  14.367  26.779   5.553
 9418POPC   PO456496  14.414  26.842   5.853
 9418POPC   GL156497  14.395  26.811   6.153
 9418POPC   GL256498  14.259  26.798   6.153
 9418POPC   C1A56499  14.358  26.768   6.453
 9418POPC   D2A56500  14.404  26.793   6.753
 9418POPC   C3A56501  14.422  26.798   7.053
 9418POPC   C4A56502  14.408  26.861   7.353
 9418POPC   C1B56503  14.114  26.762   6.453
 9418POPC   C2B56504  14.189  26.736   6.753
 9418POPC   C3B56505  14.213  26.780   7.053
 9418POPC   C4B56506  14.129  26.792   7.353
 9419POPC   NC356507  43.126  40.756   5.553
 9419POPC   PO456508  43.097  40.753   5.853
 9419POPC   GL156509  43.081  40.741   6.153
 9419POPC   GL256510  43.167  40.957   6.153
 9419POPC   C1A56511  43.101  40.737   6.453
 9419POPC   D2A56512  43.132  40.797   6.753
 9419POPC   C3A56513  43.158  40.800   7.053
 9419POPC   C4A56514  43.135  40.789   7.353
 9419POPC   C1B56515  43.160  41.025   6.453
 9419POPC   C2B56516  43.139  41.016   6.753
 9419POPC   C3B56517  43.132  41.066   7.053
 9419POPC   C4B56518  43.124  41.041   7.353
 9420POPC   NC356519  20.651  22.158   5.553
 9420POPC   PO456520  20.598  22.189   5.853
 9420POPC   GL156521  20.636  22.132   6.153
 9420POPC   GL256522  20.546  22.265   6.153
 9420POPC   C1A56523  20.584  22.143   6.453
 9420POPC   D2A56524  20.592  22.138   6.753
 9420POPC   C3A56525  20.601  22.191   7.053
 9420POPC   C4A56526  20.623  22.146   7.353
 9420POPC   C1B56527  20.467  22.400   6.453
 9420POPC   C2B56528  20.538  22.384   6.753
 9420POPC   C3B56529  20.498  22.427   7.053
 9420POPC   C4B56530  20.507  22.430   7.353
 9421POPC   NC356531  31.467  24.457   5.553
 9421POPC   PO456532  31.494  24.519   5.853
 9421POPC   GL156533  31.511  24.498   6.153
 9421POPC   GL256534  31.598  24.519   6.153
 9421POPC   C1A56535  31.459  24.464   6.453
 9421POPC   D2A56536  31.452  24.455   6.753
 9421POPC   C3A56537  31.503  24.535   7.053
 9421POPC   C4A56538  31.487  24.514   7.353
 9421POPC   C1B56539  31.734  24.580   6.453
 9421POPC   C2B56540  31.681  24.554   6.753
 9421POPC   C3B56541  31.708  24.602   7.053
 9421POPC   C4B56542  31.684  24.596   7.353
 9422POPC   NC356543  36.902  15.205   5.553
 9422POPC   PO456544  36.940  15.133   5.853
 9422POPC   GL156545  36.873  15.141   6.153
 9422POPC   GL256546  37.002  15.271   6.153
 9422POPC   C1A56547  36.871  15.195   6.453
 9422POPC   D2A56548  36.893  15.158   6.753
 9422POPC   C3A56549  36.942  15.161   7.053
 9422POPC   C4A56550  36.892  15.138   7.353
 9422POPC   C1B56551  37.009  15.367   6.453
 9422POPC   C2B56552  36.955  15.384   6.753
 9422POPC   C3B56553  37.003  15.419   7.053
 9422POPC   C4B56554  36.981  15.367   7.353
 9423POPC   NC356555   3.563   8.971   5.553
 9423POPC   PO456556   3.506   8.944   5.853
 9423POPC   GL156557   3.493   8.984   6.153
 9423POPC   GL256558   3.689   9.036   6.153
 9423POPC   C1A56559   3.579   8.950   6.453
 9423POPC   D2A56560   3.506   8.965   6.753
 9423POPC   C3A56561   3.540   8.958   7.053
 9423POPC   C4A56562   3.552   9.001   7.353
 9423POPC   C1B56563   3.780   9.066   6.453
 9423POPC   C2B56564   3.805   9.041   6.753
 9423POPC   C3B56565   3.758   9.072   7.053
 9423POPC   C4B56566   3.807   9.063   7.353
 9424POPC   NC356567  29.963  11.298   5.553
 9424POPC   PO456568  29.928  11.345   5.853
 9424POPC   GL156569  29.953  11.263   6.153
 9424POPC   GL256570  30.010  11.271   6.153
 9424POPC   C1A56571  29.915  11.275   6.453
 9424POPC   D2A56572  29.914  11.318   6.753
 9424POPC   C3A56573  29.955  11.340   7.053
 9424POPC   C4A56574  29.875  11.273   7.353
 9424POPC   C1B56575  30.093  11.127   6.453
 9424POPC   C2B56576  30.161  11.156   6.753
 9424POPC   C3B56577  30.089  11.113   7.053
 9424POPC   C4B56578  30.140  11.181   7.353
 9425POPC   NC356579  30.690  14.426   5.553
 9425POPC   PO456580  30.732  14.430   5.853
 9425POPC   GL156581  30.699  14.442   6.153
 9425POPC   GL256582  30.860  14.433   6.153
 9425POPC   C1A56583  30.684  14.405   6.453
 9425POPC   D2A56584  30.699  14.398   6.753
 9425POPC   C3A56585  30.740  14.371   7.053
 9425POPC   C4A56586  30.659  14.378   7.353
 9425POPC   C1B56587  30.902  14.467   6.453
 9425POPC   C2B56588  30.929  14.533   6.753
 9425POPC   C3B56589  30.914  14.462   7.053
 9425POPC   C4B56590  30.909  14.545   7.353
 9426POPC   NC356591  15.216  26.776   5.553
 9426POPC   PO456592  15.155  26.774   5.853
 9426POPC   GL156593  15.142  26.827   6.153
 9426POPC   GL256594  15.190  26.987   6.153
 9426POPC   C1A56595  15.132  26.818   6.453
 9426POPC   D2A56596  15.204  26.785   6.753
 9426POPC   C3A56597  15.206  26.809   7.053
 9426POPC   C4A56598  15.150  26.848   7.353
 9426POPC   C1B56599  15.150  27.046   6.453
 9426POPC   C2B56600  15.117  27.069   6.753
 9426POPC   C3B56601  15.137  27.040   7.053
 9426POPC   C4B56602  15.160  27.065   7.353
 9427POPC   NC356603  28.375   1.237   5.553
 9427POPC   PO456604  28.332   1.177   5.853
 9427POPC   GL156605  28.412   1.201   6.153
 9427POPC   GL256606  28.437   1.358   6.153
 9427POPC   C1A56607  28.397   1.229   6.453
 9427POPC   D2A56608  28.332   1.238   6.753
 9427POPC   C3A56609  28.369   1.261   7.053
 9427POPC   C4A56610  28.368   1.211   7.353
 9427POPC   C1B56611  28.467   1.496   6.453
 9427POPC   C2B56612  28.476   1.456   6.753
 9427POPC   C3B56613  28.501   1.483   7.053
 9427POPC   C4B56614  28.425   1.471   7.353
 9428POPC   NC356615  43.885  13.612   5.553
 9428POPC   PO456616  43.895  13.597   5.853
 9428POPC   GL156617  43.917  13.638   6.153
 9428POPC   GL256618  43.829  13.770   6.153
 9428POPC   C1A56619  43.854  13.672   6.453
 9428POPC   D2A56620  43.837  13.614   6.753
 9428POPC   C3A56621  43.860  13.611   7.053
 9428POPC   C4A56622  43.903  13.624   7.353
 9428POPC   C1B56623  43.735  13.868   6.453
 9428POPC   C2B56624  43.817  13.842   6.753
 9428POPC   C3B56625  43.805  13.889   7.053
 9428POPC   C4B56626  43.770  13.891   7.353
 9429POPC   NC356627   0.405  43.151   5.553
 9429POPC   PO456628   0.465  43.076   5.853
 9429POPC   GL156629   0.393  43.158   6.153
 9429POPC   GL256630   0.366  43.028   6.153
 9429POPC   C1A56631   0.430  43.090   6.453
 9429POPC   D2A56632   0.472  43.102   6.753
 9429POPC   C3A56633   0.391  43.080   7.053
 9429POPC   C4A56634   0.454  43.110   7.353
 9429POPC   C1B56635   0.418  42.834   6.453
 9429POPC   C2B56636   0.365  42.831   6.753
 9429POPC   C3B56637   0.397  42.914   7.053
 9429POPC   C4B56638   0.399  42.911   7.353
 9430POPC   NC356639  28.351  43.060   5.553
 9430POPC   PO456640  28.369  43.086   5.853
 9430POPC   GL156641  28.414  43.151   6.153
 9430POPC   GL256642  28.380  42.988   6.153
 9430POPC   C1A56643  28.364  43.062   6.453
 9430POPC   D2A56644  28.343  43.136   6.753
 9430POPC   C3A56645  28.409  43.130   7.053
 9430POPC   C4A56646  28.323  43.071   7.353
 9430POPC   C1B56647  28.495  42.842   6.453
 9430POPC   C2B56648  28.482  42.863   6.753
 9430POPC   C3B56649  28.516  42.926   7.053
 9430POPC   C4B56650  28.444  42.890   7.353
 9431POPC   NC356651  35.365  22.945   5.553
 9431POPC   PO456652  35.376  22.910   5.853
 9431POPC   GL156653  35.384  22.960   6.153
 9431POPC   GL256654  35.272  22.980   6.153
 9431POPC   C1A56655  35.380  22.937   6.453
 9431POPC   D2A56656  35.355  22.958   6.753
 9431POPC   C3A56657  35.392  22.933   7.053
 9431POPC   C4A56658  35.363  22.908   7.353
 9431POPC   C1B56659  35.107  23.084   6.453
 9431POPC   C2B56660  35.142  23.014   6.753
 9431POPC   C3B56661  35.096  23.046   7.053
 9431POPC   C4B56662  35.103  23.042   7.353
 9432POPC   NC356663  43.856  32.240   5.553
 9432POPC   PO456664  43.855  32.221   5.853
 9432POPC   GL156665  43.863  32.224   6.153
 9432POPC   GL256666  43.974  32.175   6.153
 9432POPC   C1A56667  43.864  32.295   6.453
 9432POPC   D2A56668  43.895  32.235   6.753
 9432POPC   C3A56669  43.856  32.258   7.053
 9432POPC   C4A56670  43.896  32.296   7.353
 9432POPC   C1B56671  44.103  32.096   6.453
 9432POPC   C2B56672  44.077  32.103   6.753
 9432POPC   C3B56673  44.087  32.157   7.053
 9432POPC   C4B56674  44.113  32.106   7.353
 9433POPC   NC356675  30.672  32.264   5.553
 9433POPC   PO456676  30.729  32.230   5.853
 9433POPC   GL156677  30.692  32.210   6.153
 9433POPC   GL256678  30.677  32.322   6.153
 9433POPC   C1A56679  30.670  32.248   6.453
 9433POPC   D2A56680  30.735  32.274   6.753
 9433POPC   C3A56681  30.700  32.275   7.053
 9433POPC   C4A56682  30.742  32.217   7.353
 9433POPC   C1B56683  30.625  32.452   6.453
 9433POPC   C2B56684  30.609  32.466   6.753
 9433POPC   C3B56685  30.572  32.430   7.053
 9433POPC   C4B56686  30.590  32.427   7.353
 9434POPC   NC356687  34.604  17.457   5.553
 9434POPC   PO456688  34.563  17.529   5.853
 9434POPC   GL156689  34.597  17.533   6.153
 9434POPC   GL256690  34.659  17.512   6.153
 9434POPC   C1A56691  34.624  17.485   6.453
 9434POPC   D2A56692  34.558  17.529   6.753
 9434POPC   C3A56693  34.575  17.525   7.053
 9434POPC   C4A56694  34.539  17.547   7.353
 9434POPC   C1B56695  34.801  17.517   6.453
 9434POPC   C2B56696  34.816  17.504   6.753
 9434POPC   C3B56697  34.821  17.508   7.053
 9434POPC   C4B56698  34.784  17.566   7.353
 9435POPC   NC356699   8.935  41.589   5.553
 9435POPC   PO456700   9.022  41.588   5.853
 9435POPC   GL156701   8.952  41.555   6.153
 9435POPC   GL256702   8.949  41.689   6.153
 9435POPC   C1A56703   8.952  41.571   6.453
 9435POPC   D2A56704   8.947  41.531   6.753
 9435POPC   C3A56705   8.993  41.543   7.053
 9435POPC   C4A56706   8.985  41.592   7.353
 9435POPC   C1B56707   8.973  41.857   6.453
 9435POPC   C2B56708   8.950  41.826   6.753
 9435POPC   C3B56709   8.954  41.802   7.053
 9435POPC   C4B56710   8.954  41.834   7.353
 9436POPC   NC356711  22.139  43.154   5.553
 9436POPC   PO456712  22.153  43.141   5.853
 9436POPC   GL156713  22.139  43.067   6.153
 9436POPC   GL256714  22.061  43.110   6.153
 9436POPC   C1A56715  22.197  43.103   6.453
 9436POPC   D2A56716  22.209  43.088   6.753
 9436POPC   C3A56717  22.193  43.074   7.053
 9436POPC   C4A56718  22.147  43.070   7.353
 9436POPC   C1B56719  21.919  43.169   6.453
 9436POPC   C2B56720  21.961  43.132   6.753
 9436POPC   C3B56721  21.911  43.161   7.053
 9436POPC   C4B56722  21.889  43.114   7.353
 9437POPC   NC356723  43.102  18.281   5.553
 9437POPC   PO456724  43.063  18.313   5.853
 9437POPC   GL156725  43.077  18.293   6.153
 9437POPC   GL256726  43.039  18.379   6.153
 9437POPC   C1A56727  43.123  18.309   6.453
 9437POPC   D2A56728  43.092  18.330   6.753
 9437POPC   C3A56729  43.095  18.254   7.053
 9437POPC   C4A56730  43.132  18.236   7.353
 9437POPC   C1B56731  42.976  18.440   6.453
 9437POPC   C2B56732  42.914  18.479   6.753
 9437POPC   C3B56733  42.996  18.513   7.053
 9437POPC   C4B56734  42.984  18.518   7.353
 9438POPC   NC356735  19.085  25.313   5.553
 9438POPC   PO456736  19.038  25.251   5.853
 9438POPC   GL156737  19.024  25.270   6.153
 9438POPC   GL256738  19.147  25.180   6.153
 9438POPC   C1A56739  19.096  25.220   6.453
 9438POPC   D2A56740  19.046  25.249   6.753
 9438POPC   C3A56741  19.087  25.224   7.053
 9438POPC   C4A56742  19.060  25.271   7.353
 9438POPC   C1B56743  19.134  25.066   6.453
 9438POPC   C2B56744  19.156  25.036   6.753
 9438POPC   C3B56745  19.149  25.003   7.053
 9438POPC   C4B56746  19.140  25.011   7.353
 9439POPC   NC356747   7.457   8.149   5.553
 9439POPC   PO456748   7.430   8.209   5.853
 9439POPC   GL156749   7.410   8.221   6.153
 9439POPC   GL256750   7.355   8.133   6.153
 9439POPC   C1A56751   7.375   8.188   6.453
 9439POPC   D2A56752   7.402   8.168   6.753
 9439POPC   C3A56753   7.457   8.196   7.053
 9439POPC   C4A56754   7.383   8.168   7.353
 9439POPC   C1B56755   7.260   7.982   6.453
 9439POPC   C2B56756   7.317   8.007   6.753
 9439POPC   C3B56757   7.325   7.998   7.053
 9439POPC   C4B56758   7.248   8.010   7.353
 9440POPC   NC356759   8.943  13.662   5.553
 9440POPC   PO456760   9.004  13.646   5.853
 9440POPC   GL156761   8.991  13.643   6.153
 9440POPC   GL256762   8.908  13.768   6.153
 9440POPC   C1A56763   9.005  13.620   6.453
 9440POPC   D2A56764   8.967  13.625   6.753
 9440POPC   C3A56765   8.958  13.610   7.053
 9440POPC   C4A56766   9.013  13.662   7.353
 9440POPC   C1B56767   8.789  13.869   6.453
 9440POPC   C2B56768   8.777  13.791   6.753
 9440POPC   C3B56769   8.836  13.823   7.053
 9440POPC   C4B56770   8.862  13.783   7.353
 9441POPC   NC356771  42.332  26.846   5.553
 9441POPC   PO456772  42.287  26.831   5.853
 9441POPC   GL156773  42.327  26.864   6.153
 9441POPC   GL256774  42.163  26.826   6.153
 9441POPC   C1A56775  42.374  26.854   6.453
 9441POPC   D2A56776  42.351  26.863   6.753
 9441POPC   C3A56777  42.373  26.788   7.053
 9441POPC   C4A56778  42.285  26.791   7.353
 9441POPC   C1B56779  42.080  26.883   6.453
 9441POPC   C2B56780  42.059  26.844   6.753
 9441POPC   C3B56781  42.048  26.793   7.053
 9441POPC   C4B56782  42.058  26.865   7.353
 9442POPC   NC356783  22.919  19.817   5.553
 9442POPC   PO456784  22.891  19.811   5.853
 9442POPC   GL156785  22.935  19.868   6.153
 9442POPC   GL256786  23.044  19.827   6.153
 9442POPC   C1A56787  22.946  19.845   6.453
 9442POPC   D2A56788  22.986  19.806   6.753
 9442POPC   C3A56789  22.909  19.833   7.053
 9442POPC   C4A56790  22.896  19.789   7.353
 9442POPC   C1B56791  23.211  19.905   6.453
 9442POPC   C2B56792  23.222  19.899   6.753
 9442POPC   C3B56793  23.175  19.858   7.053
 9442POPC   C4B56794  23.140  19.867   7.353
 9443POPC   NC356795   1.963  19.832   5.553
 9443POPC   PO456796   1.974  19.815   5.853
 9443POPC   GL156797   2.038  19.875   6.153
 9443POPC   GL256798   1.974  19.931   6.153
 9443POPC   C1A56799   2.018  19.866   6.453
 9443POPC   D2A56800   2.028  19.874   6.753
 9443POPC   C3A56801   1.969  19.809   7.053
 9443POPC   C4A56802   1.976  19.811   7.353
 9443POPC   C1B56803   1.983  20.041   6.453
 9443POPC   C2B56804   1.942  20.045   6.753
 9443POPC   C3B56805   1.936  20.084   7.053
 9443POPC   C4B56806   1.937  20.125   7.353
 9444POPC   NC356807  24.511  40.790   5.553
 9444POPC   PO456808  24.448  40.809   5.853
 9444POPC   GL156809  24.447  40.778   6.153
 9444POPC   GL256810  24.570  40.706   6.153
 9444POPC   C1A56811  24.447  40.752   6.453
 9444POPC   D2A56812  24.490  40.773   6.753
 9444POPC   C3A56813  24.505  40.816   7.053
 9444POPC   C4A56814  24.539  40.790   7.353
 9444POPC   C1B56815  24.727  40.587   6.453
 9444POPC   C2B56816  24.654  40.638   6.753
 9444POPC   C3B56817  24.659  40.597   7.053
 9444POPC   C4B56818  24.667  40.656   7.353
 9445POPC   NC356819  16.757  33.069   5.553
 9445POPC   PO456820  16.775  33.061   5.853
 9445POPC   GL156821  16.744  33.072   6.153
 9445POPC   GL256822  16.631  32.951   6.153
 9445POPC   C1A56823  16.770  32.978   6.453
 9445POPC   D2A56824  16.777  32.989   6.753
 9445POPC   C3A56825  16.768  33.032   7.053
 9445POPC   C4A56826  16.771  33.030   7.353
 9445POPC   C1B56827  16.658  32.782   6.453
 9445POPC   C2B56828  16.652  32.819   6.753
 9445POPC   C3B56829  16.623  32.825   7.053
 9445POPC   C4B56830  16.601  32.815   7.353
 9446POPC   NC356831  34.558  44.615   5.553
 9446POPC   PO456832  34.617  44.653   5.853
 9446POPC   GL156833  34.543  44.656   6.153
 9446POPC   GL256834  34.697  44.711   6.153
 9446POPC   C1A56835  34.593  44.637   6.453
 9446POPC   D2A56836  34.594  44.682   6.753
 9446POPC   C3A56837  34.608  44.669   7.053
 9446POPC   C4A56838  34.601  44.637   7.353
 9446POPC   C1B56839  34.760  44.791   6.453
 9446POPC   C2B56840  34.803  44.845   6.753
 9446POPC   C3B56841  34.739  44.856   7.053
 9446POPC   C4B56842  34.759  44.842   7.353
 9447POPC   NC356843  43.878   3.584   5.553
 9447POPC   PO456844  43.843   3.544   5.853
 9447POPC   GL156845  43.895   3.511   6.153
 9447POPC   GL256846  43.943   3.665   6.153
 9447POPC   C1A56847  43.850   3.550   6.453
 9447POPC   D2A56848  43.853   3.517   6.753
 9447POPC   C3A56849  43.848   3.510   7.053
 9447POPC   C4A56850  43.906   3.548   7.353
 9447POPC   C1B56851  44.009   3.809   6.453
 9447POPC   C2B56852  43.958   3.802   6.753
 9447POPC   C3B56853  43.980   3.796   7.053
 9447POPC   C4B56854  43.983   3.787   7.353
 9448POPC   NC356855  35.366  11.338   5.553
 9448POPC   PO456856  35.401  11.271   5.853
 9448POPC   GL156857  35.322  11.311   6.153
 9448POPC   GL256858  35.337  11.380   6.153
 9448POPC   C1A56859  35.329  11.288   6.453
 9448POPC   D2A56860  35.369  11.290   6.753
 9448POPC   C3A56861  35.378  11.297   7.053
 9448POPC   C4A56862  35.362  11.279   7.353
 9448POPC   C1B56863  35.395  11.529   6.453
 9448POPC   C2B56864  35.380  11.556   6.753
 9448POPC   C3B56865  35.395  11.574   7.053
 9448POPC   C4B56866  35.385  11.558   7.353
 9449POPC   NC356867   0.418  34.540   5.553
 9449POPC   PO456868   0.436  34.537   5.853
 9449POPC   GL156869   0.449  34.615   6.153
 9449POPC   GL256870   0.341  34.596   6.153
 9449POPC   C1A56871   0.405  34.527   6.453
 9449POPC   D2A56872   0.457  34.584   6.753
 9449POPC   C3A56873   0.474  34.573   7.053
 9449POPC   C4A56874   0.426  34.527   7.353
 9449POPC   C1B56875   0.177  34.540   6.453
 9449POPC   C2B56876   0.217  34.546   6.753
 9449POPC   C3B56877   0.168  34.516   7.053
 9449POPC   C4B56878   0.217  34.559   7.353
 9450POPC   NC356879  36.880   8.230   5.553
 9450POPC   PO456880  36.856   8.179   5.853
 9450POPC   GL156881  36.886   8.207   6.153
 9450POPC   GL256882  36.759   8.250   6.153
 9450POPC   C1A56883  36.859   8.201   6.453
 9450POPC   D2A56884  36.872   8.230   6.753
 9450POPC   C3A56885  36.892   8.222   7.053
 9450POPC   C4A56886  36.953   8.197   7.353
 9450POPC   C1B56887  36.733   8.357   6.453
 9450POPC   C2B56888  36.663   8.368   6.753
 9450POPC   C3B56889  36.683   8.362   7.053
 9450POPC   C4B56890  36.711   8.313   7.353
 9451POPC   NC356891  22.942  20.573   5.553
 9451POPC   PO456892  22.899  20.614   5.853
 9451POPC   GL156893  22.921  20.588   6.153
 9451POPC   GL256894  22.805  20.571   6.153
 9451POPC   C1A56895  22.919  20.647   6.453
 9451POPC   D2A56896  22.972  20.596   6.753
 9451POPC   C3A56897  22.985  20.648   7.053
 9451POPC   C4A56898  22.919  20.587   7.353
 9451POPC   C1B56899  22.714  20.631   6.453
 9451POPC   C2B56900  22.645  20.666   6.753
 9451POPC   C3B56901  22.639  20.582   7.053
 9451POPC   C4B56902  22.653  20.656   7.353
 9452POPC   NC356903  38.463  10.534   5.553
 9452POPC   PO456904  38.459  10.544   5.853
 9452POPC   GL156905  38.504  10.503   6.153
 9452POPC   GL256906  38.451  10.355   6.153
 9452POPC   C1A56907  38.455  10.563   6.453
 9452POPC   D2A56908  38.504  10.520   6.753
 9452POPC   C3A56909  38.409  10.565   7.053
 9452POPC   C4A56910  38.451  10.550   7.353
 9452POPC   C1B56911  38.499  10.308   6.453
 9452POPC   C2B56912  38.485  10.247   6.753
 9452POPC   C3B56913  38.477  10.225   7.053
 9452POPC   C4B56914  38.430  10.258   7.353
 9453POPC   NC356915   5.909  40.013   5.553
 9453POPC   PO456916   5.836  40.051   5.853
 9453POPC   GL156917   5.919  40.002   6.153
 9453POPC   GL256918   5.872  39.928   6.153
 9453POPC   C1A56919   5.848  40.021   6.453
 9453POPC   D2A56920   5.887  39.959   6.753
 9453POPC   C3A56921   5.868  39.974   7.053
 9453POPC   C4A56922   5.878  40.021   7.353
 9453POPC   C1B56923   5.885  39.759   6.453
 9453POPC   C2B56924   5.845  39.793   6.753
 9453POPC   C3B56925   5.836  39.781   7.053
 9453POPC   C4B56926   5.863  39.793   7.353
 9454POPC   NC356927  29.909   9.757   5.553
 9454POPC   PO456928  29.960   9.793   5.853
 9454POPC   GL156929  29.944   9.756   6.153
 9454POPC   GL256930  29.839   9.823   6.153
 9454POPC   C1A56931  29.910   9.755   6.453
 9454POPC   D2A56932  29.958   9.721   6.753
 9454POPC   C3A56933  29.959   9.784   7.053
 9454POPC   C4A56934  29.939   9.763   7.353
 9454POPC   C1B56935  29.733   9.814   6.453
 9454POPC   C2B56936  29.662   9.810   6.753
 9454POPC   C3B56937  29.696   9.834   7.053
 9454POPC   C4B56938  29.670   9.810   7.353
 9455POPC   NC356939  32.267  11.335   5.553
 9455POPC   PO456940  32.295  11.291   5.853
 9455POPC   GL156941  32.210  11.329   6.153
 9455POPC   GL256942  32.319  11.202   6.153
 9455POPC   C1A56943  32.269  11.262   6.453
 9455POPC   D2A56944  32.241  11.332   6.753
 9455POPC   C3A56945  32.269  11.251   7.053
 9455POPC   C4A56946  32.228  11.308   7.353
 9455POPC   C1B56947  32.398  11.038   6.453
 9455POPC   C2B56948  32.353  11.095   6.753
 9455POPC   C3B56949  32.409  11.098   7.053
 9455POPC   C4B56950  32.351  11.114   7.353
 9456POPC   NC356951  19.873  12.112   5.553
 9456POPC   PO456952  19.835  12.119   5.853
 9456POPC   GL156953  19.819  12.034   6.153
 9456POPC   GL256954  19.772  12.115   6.153
 9456POPC   C1A56955  19.849  12.086   6.453
 9456POPC   D2A56956  19.862  12.089   6.753
 9456POPC   C3A56957  19.826  12.122   7.053
 9456POPC   C4A56958  19.851  12.061   7.353
 9456POPC   C1B56959  19.672  12.222   6.453
 9456POPC   C2B56960  19.690  12.193   6.753
 9456POPC   C3B56961  19.635  12.210   7.053
 9456POPC   C4B56962  19.629  12.208   7.353
 9457POPC   NC356963   9.729  12.074   5.553
 9457POPC   PO456964   9.745  12.044   5.853
 9457POPC   GL156965   9.762  12.060   6.153
 9457POPC   GL256966   9.800  11.957   6.153
 9457POPC   C1A56967   9.752  12.042   6.453
 9457POPC   D2A56968   9.783  12.073   6.753
 9457POPC   C3A56969   9.724  12.058   7.053
 9457POPC   C4A56970   9.788  12.095   7.353
 9457POPC   C1B56971   9.806  11.819   6.453
 9457POPC   C2B56972   9.861  11.799   6.753
 9457POPC   C3B56973   9.860  11.817   7.053
 9457POPC   C4B56974   9.776  11.885   7.353
 9458POPC   NC356975   1.992  21.405   5.553
 9458POPC   PO456976   1.952  21.426   5.853
 9458POPC   GL156977   1.943  21.407   6.153
 9458POPC   GL256978   1.958  21.495   6.153
 9458POPC   C1A56979   1.941  21.432   6.453
 9458POPC   D2A56980   1.960  21.371   6.753
 9458POPC   C3A56981   1.996  21.426   7.053
 9458POPC   C4A56982   1.994  21.419   7.353
 9458POPC   C1B56983   1.979  21.676   6.453
 9458POPC   C2B56984   1.996  21.673   6.753
 9458POPC   C3B56985   1.996  21.663   7.053
 9458POPC   C4B56986   2.061  21.661   7.353
 9459POPC   NC356987  23.757  21.394   5.553
 9459POPC   PO456988  23.668  21.420   5.853
 9459POPC   GL156989  23.683  21.379   6.153
 9459POPC   GL256990  23.813  21.471   6.153
 9459POPC   C1A56991  23.722  21.414   6.453
 9459POPC   D2A56992  23.706  21.352   6.753
 9459POPC   C3A56993  23.682  21.353   7.053
 9459POPC   C4A56994  23.710  21.350   7.353
 9459POPC   C1B56995  23.811  21.553   6.453
 9459POPC   C2B56996  23.860  21.575   6.753
 9459POPC   C3B56997  23.862  21.644   7.053
 9459POPC   C4B56998  23.846  21.619   7.353
 9460POPC   NC356999   1.206  34.600   5.553
 9460POPC   PO457000   1.224  34.600   5.853
 9460POPC   GL157001   1.222  34.557   6.153
 9460POPC   GL257002   1.086  34.483   6.153
 9460POPC   C1A57003   1.205  34.542   6.453
 9460POPC   D2A57004   1.168  34.577   6.753
 9460POPC   C3A57005   1.243  34.622   7.053
 9460POPC   C4A57006   1.232  34.604   7.353
 9460POPC   C1B57007   1.037  34.334   6.453
 9460POPC   C2B57008   1.070  34.368   6.753
 9460POPC   C3B57009   1.102  34.334   7.053
 9460POPC   C4B57010   1.061  34.350   7.353
 9461POPC   NC357011  12.122  12.825   5.553
 9461POPC   PO457012  12.036  12.839   5.853
 9461POPC   GL157013  12.120  12.805   6.153
 9461POPC   GL257014  12.124  12.689   6.153
 9461POPC   C1A57015  12.086  12.860   6.453
 9461POPC   D2A57016  12.072  12.803   6.753
 9461POPC   C3A57017  12.085  12.813   7.053
 9461POPC   C4A57018  12.105  12.856   7.353
 9461POPC   C1B57019  12.221  12.586   6.453
 9461POPC   C2B57020  12.157  12.674   6.753
 9461POPC   C3B57021  12.160  12.633   7.053
 9461POPC   C4B57022  12.194  12.619   7.353
 9462POPC   NC357023  26.819   5.889   5.553
 9462POPC   PO457024  26.833   5.891   5.853
 9462POPC   GL157025  26.839   5.888   6.153
 9462POPC   GL257026  26.783   5.997   6.153
 9462POPC   C1A57027  26.832   5.911   6.453
 9462POPC   D2A57028  26.831   5.887   6.753
 9462POPC   C3A57029  26.786   5.851   7.053
 9462POPC   C4A57030  26.804   5.824   7.353
 9462POPC   C1B57031  26.755   6.151   6.453
 9462POPC   C2B57032  26.837   6.102   6.753
 9462POPC   C3B57033  26.763   6.068   7.053
 9462POPC   C4B57034  26.756   6.167   7.353
 9463POPC   NC357035  29.925  32.205   5.553
 9463POPC   PO457036  29.917  32.220   5.853
 9463POPC   GL157037  29.932  32.236   6.153
 9463POPC   GL257038  30.081  32.243   6.153
 9463POPC   C1A57039  29.969  32.219   6.453
 9463POPC   D2A57040  29.930  32.296   6.753
 9463POPC   C3A57041  29.944  32.267   7.053
 9463POPC   C4A57042  29.914  32.281   7.353
 9463POPC   C1B57043  30.117  32.331   6.453
 9463POPC   C2B57044  30.134  32.372   6.753
 9463POPC   C3B57045  30.135  32.315   7.053
 9463POPC   C4B57046  30.122  32.337   7.353
 9464POPC   NC357047  18.246  33.059   5.553
 9464POPC   PO457048  18.299  33.066   5.853
 9464POPC   GL157049  18.285  32.988   6.153
 9464POPC   GL257050  18.383  33.089   6.153
 9464POPC   C1A57051  18.329  33.072   6.453
 9464POPC   D2A57052  18.272  33.050   6.753
 9464POPC   C3A57053  18.281  32.983   7.053
 9464POPC   C4A57054  18.332  33.071   7.353
 9464POPC   C1B57055  18.424  33.184   6.453
 9464POPC   C2B57056  18.479  33.156   6.753
 9464POPC   C3B57057  18.464  33.201   7.053
 9464POPC   C4B57058  18.442  33.213   7.353
 9465POPC   NC357059  44.679   2.791   5.553
 9465POPC   PO457060  44.616   2.793   5.853
 9465POPC   GL157061  44.655   2.764   6.153
 9465POPC   GL257062  44.704   2.605   6.153
 9465POPC   C1A57063  44.648   2.725   6.453
 9465POPC   D2A57064  44.613   2.731   6.753
 9465POPC   C3A57065  44.708   2.735   7.053
 9465POPC   C4A57066  44.630   2.763   7.353
 9465POPC   C1B57067  44.763   2.525   6.453
 9465POPC   C2B57068  44.766   2.552   6.753
 9465POPC   C3B57069  44.740   2.540   7.053
 9465POPC   C4B57070  44.715   2.569   7.353
 9466POPC   NC357071  12.869  40.772   5.553
 9466POPC   PO457072  12.819  40.748   5.853
 9466POPC   GL157073  12.856  40.827   6.153
 9466POPC   GL257074  12.837  40.944   6.153
 9466POPC   C1A57075  12.836  40.811   6.453
 9466POPC   D2A57076  12.835  40.772   6.753
 9466POPC   C3A57077  12.891  40.759   7.053
 9466POPC   C4A57078  12.899  40.784   7.353
 9466POPC   C1B57079  12.853  41.008   6.453
 9466POPC   C2B57080  12.810  41.011   6.753
 9466POPC   C3B57081  12.881  41.018   7.053
 9466POPC   C4B57082  12.890  41.024   7.353
 9467POPC   NC357083  34.578  33.820   5.553
 9467POPC   PO457084  34.619  33.823   5.853
 9467POPC   GL157085  34.593  33.823   6.153
 9467POPC   GL257086  34.418  33.719   6.153
 9467POPC   C1A57087  34.526  33.833   6.453
 9467POPC   D2A57088  34.534  33.770   6.753
 9467POPC   C3A57089  34.571  33.767   7.053
 9467POPC   C4A57090  34.527  33.766   7.353
 9467POPC   C1B57091  34.406  33.639   6.453
 9467POPC   C2B57092  34.327  33.700   6.753
 9467POPC   C3B57093  34.405  33.634   7.053
 9467POPC   C4B57094  34.378  33.650   7.353
 9468POPC   NC357095   0.457   1.999   5.553
 9468POPC   PO457096   0.415   2.019   5.853
 9468POPC   GL157097   0.394   2.015   6.153
 9468POPC   GL257098   0.547   1.839   6.153
 9468POPC   C1A57099   0.478   2.025   6.453
 9468POPC   D2A57100   0.458   1.953   6.753
 9468POPC   C3A57101   0.464   1.993   7.053
 9468POPC   C4A57102   0.462   2.014   7.353
 9468POPC   C1B57103   0.599   1.814   6.453
 9468POPC   C2B57104   0.538   1.824   6.753
 9468POPC   C3B57105   0.593   1.785   7.053
 9468POPC   C4B57106   0.618   1.803   7.353
 9469POPC   NC357107  29.871  13.591   5.553
 9469POPC   PO457108  29.876  13.630   5.853
 9469POPC   GL157109  29.894  13.676   6.153
 9469POPC   GL257110  29.818  13.586   6.153
 9469POPC   C1A57111  29.892  13.580   6.453
 9469POPC   D2A57112  29.931  13.672   6.753
 9469POPC   C3A57113  29.944  13.623   7.053
 9469POPC   C4A57114  29.890  13.660   7.353
 9469POPC   C1B57115  29.700  13.633   6.453
 9469POPC   C2B57116  29.696  13.603   6.753
 9469POPC   C3B57117  29.627  13.565   7.053
 9469POPC   C4B57118  29.695  13.554   7.353
 9470POPC   NC357119  15.997  40.005   5.553
 9470POPC   PO457120  15.948  40.017   5.853
 9470POPC   GL157121  15.922  39.982   6.153
 9470POPC   GL257122  15.878  39.974   6.153
 9470POPC   C1A57123  15.944  39.970   6.453
 9470POPC   D2A57124  15.929  40.033   6.753
 9470POPC   C3A57125  15.939  40.002   7.053
 9470POPC   C4A57126  15.908  39.987   7.353
 9470POPC   C1B57127  15.781  39.890   6.453
 9470POPC   C2B57128  15.807  39.891   6.753
 9470POPC   C3B57129  15.802  39.873   7.053
 9470POPC   C4B57130  15.810  39.808   7.353
 9471POPC   NC357131  13.656  24.513   5.553
 9471POPC   PO457132  13.602  24.458   5.853
 9471POPC   GL157133  13.630  24.532   6.153
 9471POPC   GL257134  13.606  24.362   6.153
 9471POPC   C1A57135  13.661  24.531   6.453
 9471POPC   D2A57136  13.584  24.530   6.753
 9471POPC   C3A57137  13.632  24.454   7.053
 9471POPC   C4A57138  13.609  24.527   7.353
 9471POPC   C1B57139  13.567  24.267   6.453
 9471POPC   C2B57140  13.496  24.270   6.753
 9471POPC   C3B57141  13.555  24.235   7.053
 9471POPC   C4B57142  13.533  24.311   7.353
 9472POPC   NC357143  30.715  27.611   5.553
 9472POPC   PO457144  30.731  27.635   5.853
 9472POPC   GL157145  30.699  27.592   6.153
 9472POPC   GL257146  30.842  27.566   6.153
 9472POPC   C1A57147  30.718  27.584   6.453
 9472POPC   D2A57148  30.736  27.630   6.753
 9472POPC   C3A57149  30.698  27.608   7.053
 9472POPC   C4A57150  30.745  27.620   7.353
 9472POPC   C1B57151  30.951  27.510   6.453
 9472POPC   C2B57152  30.895  27.519   6.753
 9472POPC   C3B57153  30.916  27.542   7.053
 9472POPC   C4B57154  30.968  27.580   7.353
 9473POPC   NC357155  12.892  27.601   5.553
 9473POPC   PO457156  12.866  27.617   5.853
 9473POPC   GL157157  12.863  27.594   6.153
 9473POPC   GL257158  13.009  27.630   6.153
 9473POPC   C1A57159  12.824  27.600   6.453
 9473POPC   D2A57160  12.855  27.602   6.753
 9473POPC   C3A57161  12.858  27.630   7.053
 9473POPC   C4A57162  12.877  27.630   7.353
 9473POPC   C1B57163  13.133  27.634   6.453
 9473POPC   C2B57164  13.037  27.696   6.753
 9473POPC   C3B57165  13.060  27.727   7.053
 9473POPC   C4B57166  13.046  27.682   7.353
 9474POPC   NC357167  43.111  19.090   5.553
 9474POPC   PO457168  43.123  19.106   5.853
 9474POPC   GL157169  43.072  19.030   6.153
 9474POPC   GL257170  43.086  18.984   6.153
 9474POPC   C1A57171  43.122  19.025   6.453
 9474POPC   D2A57172  43.089  19.108   6.753
 9474POPC   C3A57173  43.112  19.088   7.053
 9474POPC   C4A57174  43.148  19.052   7.353
 9474POPC   C1B57175  42.987  18.864   6.453
 9474POPC   C2B57176  43.013  18.880   6.753
 9474POPC   C3B57177  43.007  18.878   7.053
 9474POPC   C4B57178  42.998  18.826   7.353
 9475POPC   NC357179  44.615   8.166   5.553
 9475POPC   PO457180  44.619   8.215   5.853
 9475POPC   GL157181  44.698   8.214   6.153
 9475POPC   GL257182  44.784   8.242   6.153
 9475POPC   C1A57183  44.635   8.176   6.453
 9475POPC   D2A57184  44.665   8.205   6.753
 9475POPC   C3A57185  44.658   8.244   7.053
 9475POPC   C4A57186  44.672   8.171   7.353
 9475POPC   C1B57187  44.851   8.246   6.453
 9475POPC   C2B57188  44.883   8.296   6.753
 9475POPC   C3B57189  44.877   8.332   7.053
 9475POPC   C4B57190  44.886   8.272   7.353
 9476POPC   NC357191  37.682  23.742   5.553
 9476POPC   PO457192  37.660  23.732   5.853
 9476POPC   GL157193  37.689  23.717   6.153
 9476POPC   GL257194  37.727  23.876   6.153
 9476POPC   C1A57195  37.664  23.686   6.453
 9476POPC   D2A57196  37.661  23.759   6.753
 9476POPC   C3A57197  37.703  23.738   7.053
 9476POPC   C4A57198  37.689  23.760   7.353
 9476POPC   C1B57199  37.704  23.909   6.453
 9476POPC   C2B57200  37.687  23.978   6.753
 9476POPC   C3B57201  37.716  23.969   7.053
 9476POPC   C4B57202  37.689  23.975   7.353
 9477POPC   NC357203  35.374  23.702   5.553
 9477POPC   PO457204  35.317  23.745   5.853
 9477POPC   GL157205  35.345  23.753   6.153
 9477POPC   GL257206  35.382  23.549   6.153
 9477POPC   C1A57207  35.345  23.671   6.453
 9477POPC   D2A57208  35.343  23.696   6.753
 9477POPC   C3A57209  35.351  23.719   7.053
 9477POPC   C4A57210  35.321  23.672   7.353
 9477POPC   C1B57211  35.368  23.483   6.453
 9477POPC   C2B57212  35.321  23.468   6.753
 9477POPC   C3B57213  35.384  23.513   7.053
 9477POPC   C4B57214  35.413  23.461   7.353
 9478POPC   NC357215  15.203  11.327   5.553
 9478POPC   PO457216  15.186  11.264   5.853
 9478POPC   GL157217  15.209  11.325   6.153
 9478POPC   GL257218  15.288  11.293   6.153
 9478POPC   C1A57219  15.179  11.262   6.453
 9478POPC   D2A57220  15.145  11.291   6.753
 9478POPC   C3A57221  15.226  11.337   7.053
 9478POPC   C4A57222  15.210  11.327   7.353
 9478POPC   C1B57223  15.401  11.363   6.453
 9478POPC   C2B57224  15.428  11.328   6.753
 9478POPC   C3B57225  15.384  11.368   7.053
 9478POPC   C4B57226  15.416  11.337   7.353
 9479POPC   NC357227  29.167  14.396   5.553
 9479POPC   PO457228  29.109  14.446   5.853
 9479POPC   GL157229  29.102  14.409   6.153
 9479POPC   GL257230  28.984  14.338   6.153
 9479POPC   C1A57231  29.147  14.400   6.453
 9479POPC   D2A57232  29.170  14.386   6.753
 9479POPC   C3A57233  29.163  14.423   7.053
 9479POPC   C4A57234  29.181  14.379   7.353
 9479POPC   C1B57235  28.896  14.345   6.453
 9479POPC   C2B57236  28.915  14.316   6.753
 9479POPC   C3B57237  28.916  14.329   7.053
 9479POPC   C4B57238  28.888  14.277   7.353
 9480POPC   NC357239  44.643  14.396   5.553
 9480POPC   PO457240  44.691  14.434   5.853
 9480POPC   GL157241  44.660  14.429   6.153
 9480POPC   GL257242  44.578  14.294   6.153
 9480POPC   C1A57243  44.616  14.420   6.453
 9480POPC   D2A57244  44.700  14.382   6.753
 9480POPC   C3A57245  44.708  14.399   7.053
 9480POPC   C4A57246  44.612  14.437   7.353
 9480POPC   C1B57247  44.536  14.206   6.453
 9480POPC   C2B57248  44.480  14.236   6.753
 9480POPC   C3B57249  44.470  14.174   7.053
 9480POPC   C4B57250  44.449  14.263   7.353
 9481POPC   NC357251  29.930  36.917   5.553
 9481POPC   PO457252  29.949  36.861   5.853
 9481POPC   GL157253  29.969  36.893   6.153
 9481POPC   GL257254  29.867  36.777   6.153
 9481POPC   C1A57255  29.914  36.892   6.453
 9481POPC   D2A57256  29.921  36.862   6.753
 9481POPC   C3A57257  29.928  36.861   7.053
 9481POPC   C4A57258  29.909  36.945   7.353
 9481POPC   C1B57259  29.862  36.623   6.453
 9481POPC   C2B57260  29.921  36.664   6.753
 9481POPC   C3B57261  29.911  36.685   7.053
 9481POPC   C4B57262  29.860  36.650   7.353
 9482POPC   NC357263  11.275  12.113   5.553
 9482POPC   PO457264  11.259  12.075   5.853
 9482POPC   GL157265  11.279  12.075   6.153
 9482POPC   GL257266  11.206  11.965   6.153
 9482POPC   C1A57267  11.253  12.105   6.453
 9482POPC   D2A57268  11.343  12.109   6.753
 9482POPC   C3A57269  11.272  12.053   7.053
 9482POPC   C4A57270  11.327  12.050   7.353
 9482POPC   C1B57271  11.143  11.882   6.453
 9482POPC   C2B57272  11.141  11.860   6.753
 9482POPC   C3B57273  11.228  11.832   7.053
 9482POPC   C4B57274  11.157  11.847   7.353
 9483POPC   NC357275  20.584  15.175   5.553
 9483POPC   PO457276  20.587  15.131   5.853
 9483POPC   GL157277  20.571  15.181   6.153
 9483POPC   GL257278  20.601  15.082   6.153
 9483POPC   C1A57279  20.611  15.129   6.453
 9483POPC   D2A57280  20.595  15.175   6.753
 9483POPC   C3A57281  20.567  15.172   7.053
 9483POPC   C4A57282  20.587  15.224   7.353
 9483POPC   C1B57283  20.590  14.904   6.453
 9483POPC   C2B57284  20.633  14.921   6.753
 9483POPC   C3B57285  20.575  14.889   7.053
 9483POPC   C4B57286  20.652  14.928   7.353
 9484POPC   NC357287  17.553  26.783   5.553
 9484POPC   PO457288  17.458  26.776   5.853
 9484POPC   GL157289  17.457  26.828   6.153
 9484POPC   GL257290  17.428  26.803   6.153
 9484POPC   C1A57291  17.505  26.848   6.453
 9484POPC   D2A57292  17.480  26.786   6.753
 9484POPC   C3A57293  17.538  26.867   7.053
 9484POPC   C4A57294  17.551  26.792   7.353
 9484POPC   C1B57295  17.257  26.809   6.453
 9484POPC   C2B57296  17.264  26.830   6.753
 9484POPC   C3B57297  17.243  26.846   7.053
 9484POPC   C4B57298  17.268  26.789   7.353
 9485POPC   NC357299  33.062  35.392   5.553
 9485POPC   PO457300  33.061  35.342   5.853
 9485POPC   GL157301  33.027  35.308   6.153
 9485POPC   GL257302  33.165  35.245   6.153
 9485POPC   C1A57303  33.023  35.371   6.453
 9485POPC   D2A57304  33.039  35.320   6.753
 9485POPC   C3A57305  33.007  35.390   7.053
 9485POPC   C4A57306  33.025  35.326   7.353
 9485POPC   C1B57307  33.270  35.170   6.453
 9485POPC   C2B57308  33.210  35.200   6.753
 9485POPC   C3B57309  33.201  35.215   7.053
 9485POPC   C4B57310  33.280  35.229   7.353
 9486POPC   NC357311  24.488  44.614   5.553
 9486POPC   PO457312  24.509  44.618   5.853
 9486POPC   GL157313  24.448  44.670   6.153
 9486POPC   GL257314  24.649  44.653   6.153
 9486POPC   C1A57315  24.517  44.650   6.453
 9486POPC   D2A57316  24.447  44.638   6.753
 9486POPC   C3A57317  24.479  44.681   7.053
 9486POPC   C4A57318  24.468  44.695   7.353
 9486POPC   C1B57319  24.743  44.558   6.453
 9486POPC   C2B57320  24.758  44.572   6.753
 9486POPC   C3B57321  24.699  44.572   7.053
 9486POPC   C4B57322  24.767  44.540   7.353
 9487POPC   NC357323  30.652  39.193   5.553
 9487POPC   PO457324  30.746  39.223   5.853
 9487POPC   GL157325  30.691  39.262   6.153
 9487POPC   GL257326  30.569  39.192   6.153
 9487POPC   C1A57327  30.744  39.203   6.453
 9487POPC   D2A57328  30.731  39.257   6.753
 9487POPC   C3A57329  30.686  39.250   7.053
 9487POPC   C4A57330  30.673  39.211   7.353
 9487POPC   C1B57331  30.496  39.068   6.453
 9487POPC   C2B57332  30.511  39.077   6.753
 9487POPC   C3B57333  30.480  39.061   7.053
 9487POPC   C4B57334  30.480  39.089   7.353
 9488POPC   NC357335  22.134  29.115   5.553
 9488POPC   PO457336  22.174  29.111   5.853
 9488POPC   GL157337  22.167  29.123   6.153
 9488POPC   GL257338  22.260  29.212   6.153
 9488POPC   C1A57339  22.170  29.096   6.453
 9488POPC   D2A57340  22.184  29.095   6.753
 9488POPC   C3A57341  22.208  29.190   7.053
 9488POPC   C4A57342  22.209  29.189   7.353
 9488POPC   C1B57343  22.436  29.206   6.453
 9488POPC   C2B57344  22.445  29.139   6.753
 9488POPC   C3B57345  22.438  29.190   7.053
 9488POPC   C4B57346  22.448  29.151   7.353
 9489POPC   NC357347  37.653  24.442   5.553
 9489POPC   PO457348  37.645  24.523   5.853
 9489POPC   GL157349  37.674  24.532   6.153
 9489POPC   GL257350  37.558  24.449   6.153
 9489POPC   C1A57351  37.684  24.466   6.453
 9489POPC   D2A57352  37.654  24.533   6.753
 9489POPC   C3A57353  37.643  24.530   7.053
 9489POPC   C4A57354  37.726  24.481   7.353
 9489POPC   C1B57355  37.447  24.426   6.453
 9489POPC   C2B57356  37.460  24.365   6.753
 9489POPC   C3B57357  37.483  24.363   7.053
 9489POPC   C4B57358  37.474  24.372   7.353
 9490POPC   NC357359   4.273  20.604   5.553
 9490POPC   PO457360   4.308  20.587   5.853
 9490POPC   GL157361   4.349  20.585   6.153
 9490POPC   GL257362   4.386  20.527   6.153
 9490POPC   C1A57363   4.290  20.635   6.453
 9490POPC   D2A57364   4.305  20.591   6.753
 9490POPC   C3A57365   4.276  20.612   7.053
 9490POPC   C4A57366   4.273  20.635   7.353
 9490POPC   C1B57367   4.523  20.508   6.453
 9490POPC   C2B57368   4.500  20.471   6.753
 9490POPC   C3B57369   4.586  20.512   7.053
 9490POPC   C4B57370   4.578  20.556   7.353
 9491POPC   NC357371  16.706  24.441   5.553
 9491POPC   PO457372  16.758  24.509   5.853
 9491POPC   GL157373  16.775  24.513   6.153
 9491POPC   GL257374  16.792  24.415   6.153
 9491POPC   C1A57375  16.718  24.475   6.453
 9491POPC   D2A57376  16.761  24.535   6.753
 9491POPC   C3A57377  16.714  24.454   7.053
 9491POPC   C4A57378  16.714  24.474   7.353
 9491POPC   C1B57379  16.822  24.221   6.453
 9491POPC   C2B57380  16.869  24.297   6.753
 9491POPC   C3B57381  16.830  24.265   7.053
 9491POPC   C4B57382  16.792  24.282   7.353
 9492POPC   NC357383   2.014  32.233   5.553
 9492POPC   PO457384   2.005  32.256   5.853
 9492POPC   GL157385   2.029  32.243   6.153
 9492POPC   GL257386   1.935  32.086   6.153
 9492POPC   C1A57387   1.959  32.199   6.453
 9492POPC   D2A57388   1.964  32.294   6.753
 9492POPC   C3A57389   2.031  32.234   7.053
 9492POPC   C4A57390   2.016  32.282   7.353
 9492POPC   C1B57391   1.954  31.984   6.453
 9492POPC   C2B57392   1.927  31.973   6.753
 9492POPC   C3B57393   1.977  31.971   7.053
 9492POPC   C4B57394   1.940  32.005   7.353
 9493POPC   NC357395  16.691   2.772   5.553
 9493POPC   PO457396  16.777   2.772   5.853
 9493POPC   GL157397  16.703   2.760   6.153
 9493POPC   GL257398  16.875   2.751   6.153
 9493POPC   C1A57399  16.716   2.779   6.453
 9493POPC   D2A57400  16.767   2.771   6.753
 9493POPC   C3A57401  16.716   2.769   7.053
 9493POPC   C4A57402  16.749   2.759   7.353
 9493POPC   C1B57403  16.961   2.746   6.453
 9493POPC   C2B57404  16.961   2.716   6.753
 9493POPC   C3B57405  17.008   2.698   7.053
 9493POPC   C4B57406  16.933   2.694   7.353
 9494POPC   NC357407  19.861  22.138   5.553
 9494POPC   PO457408  19.813  22.167   5.853
 9494POPC   GL157409  19.824  22.164   6.153
 9494POPC   GL257410  19.803  22.289   6.153
 9494POPC   C1A57411  19.871  22.137   6.453
 9494POPC   D2A57412  19.835  22.127   6.753
 9494POPC   C3A57413  19.785  22.196   7.053
 9494POPC   C4A57414  19.822  22.185   7.353
 9494POPC   C1B57415  19.652  22.406   6.453
 9494POPC   C2B57416  19.729  22.401   6.753
 9494POPC   C3B57417  19.714  22.401   7.053
 9494POPC   C4B57418  19.634  22.323   7.353
 9495POPC   NC357419  19.082  19.823   5.553
 9495POPC   PO457420  19.059  19.814   5.853
 9495POPC   GL157421  19.036  19.796   6.153
 9495POPC   GL257422  18.909  19.848   6.153
 9495POPC   C1A57423  19.054  19.862   6.453
 9495POPC   D2A57424  19.041  19.829   6.753
 9495POPC   C3A57425  19.012  19.823   7.053
 9495POPC   C4A57426  19.091  19.867   7.353
 9495POPC   C1B57427  18.854  19.859   6.453
 9495POPC   C2B57428  18.830  19.846   6.753
 9495POPC   C3B57429  18.835  19.896   7.053
 9495POPC   C4B57430  18.774  19.921   7.353
 9496POPC   NC357431  36.123  24.473   5.553
 9496POPC   PO457432  36.171  24.480   5.853
 9496POPC   GL157433  36.164  24.508   6.153
 9496POPC   GL257434  36.103  24.595   6.153
 9496POPC   C1A57435  36.171  24.496   6.453
 9496POPC   D2A57436  36.159  24.483   6.753
 9496POPC   C3A57437  36.096  24.464   7.053
 9496POPC   C4A57438  36.133  24.477   7.353
 9496POPC   C1B57439  35.981  24.683   6.453
 9496POPC   C2B57440  35.946  24.706   6.753
 9496POPC   C3B57441  35.947  24.740   7.053
 9496POPC   C4B57442  36.008  24.703   7.353
 9497POPC   NC357443  41.528  21.401   5.553
 9497POPC   PO457444  41.528  21.379   5.853
 9497POPC   GL157445  41.594  21.423   6.153
 9497POPC   GL257446  41.436  21.474   6.153
 9497POPC   C1A57447  41.525  21.393   6.453
 9497POPC   D2A57448  41.546  21.343   6.753
 9497POPC   C3A57449  41.525  21.359   7.053
 9497POPC   C4A57450  41.555  21.339   7.353
 9497POPC   C1B57451  41.341  21.564   6.453
 9497POPC   C2B57452  41.364  21.553   6.753
 9497POPC   C3B57453  41.366  21.524   7.053
 9497POPC   C4B57454  41.382  21.583   7.353
 9498POPC   NC357455  44.687  25.309   5.553
 9498POPC   PO457456  44.696  25.219   5.853
 9498POPC   GL157457  44.672  25.225   6.153
 9498POPC   GL257458  44.590  25.197   6.153
 9498POPC   C1A57459  44.663  25.241   6.453
 9498POPC   D2A57460  44.690  25.260   6.753
 9498POPC   C3A57461  44.612  25.283   7.053
 9498POPC   C4A57462  44.694  25.272   7.353
 9498POPC   C1B57463  44.554  25.024   6.453
 9498POPC   C2B57464  44.544  24.995   6.753
 9498POPC   C3B57465  44.543  25.073   7.053
 9498POPC   C4B57466  44.583  25.070   7.353
 9499POPC   NC357467   3.548  39.200   5.553
 9499POPC   PO457468   3.584  39.213   5.853
 9499POPC   GL157469   3.533  39.201   6.153
 9499POPC   GL257470   3.488  39.267   6.153
 9499POPC   C1A57471   3.533  39.237   6.453
 9499POPC   D2A57472   3.575  39.212   6.753
 9499POPC   C3A57473   3.572  39.204   7.053
 9499POPC   C4A57474   3.555  39.214   7.353
 9499POPC   C1B57475   3.299  39.391   6.453
 9499POPC   C2B57476   3.329  39.392   6.753
 9499POPC   C3B57477   3.363  39.432   7.053
 9499POPC   C4B57478   3.320  39.334   7.353
 9500POPC   NC357479   9.751  36.931   5.553
 9500POPC   PO457480   9.723  36.864   5.853
 9500POPC   GL157481   9.781  36.863   6.153
 9500POPC   GL257482   9.661  36.934   6.153
 9500POPC   C1A57483   9.705  36.914   6.453
 9500POPC   D2A57484   9.765  36.939   6.753
 9500POPC   C3A57485   9.742  36.952   7.053
 9500POPC   C4A57486   9.788  36.910   7.353
 9500POPC   C1B57487   9.520  37.003   6.453
 9500POPC   C2B57488   9.567  37.024   6.753
 9500POPC   C3B57489   9.558  37.000   7.053
 9500POPC   C4B57490   9.508  37.011   7.353
 9501POPC   NC357491   0.424  43.862   5.553
 9501POPC   PO457492   0.399  43.902   5.853
 9501POPC   GL157493   0.415  43.927   6.153
 9501POPC   GL257494   0.393  43.968   6.153
 9501POPC   C1A57495   0.454  43.895   6.453
 9501POPC   D2A57496   0.420  43.836   6.753
 9501POPC   C3A57497   0.437  43.848   7.053
 9501POPC   C4A57498   0.408  43.930   7.353
 9501POPC   C1B57499   0.329  44.056   6.453
 9501POPC   C2B57500   0.330  44.095   6.753
 9501POPC   C3B57501   0.270  44.111   7.053
 9501POPC   C4B57502   0.292  44.116   7.353
 9502POPC   NC357503  40.047  19.054   5.553
 9502POPC   PO457504  39.974  19.076   5.853
 9502POPC   GL157505  40.000  19.048   6.153
 9502POPC   GL257506  40.107  19.113   6.153
 9502POPC   C1A57507  39.969  19.033   6.453
 9502POPC   D2A57508  40.038  19.048   6.753
 9502POPC   C3A57509  40.024  19.074   7.053
 9502POPC   C4A57510  39.966  19.014   7.353
 9502POPC   C1B57511  40.249  19.047   6.453
 9502POPC   C2B57512  40.278  19.046   6.753
 9502POPC   C3B57513  40.286  19.081   7.053
 9502POPC   C4B57514  40.219  19.052   7.353
 9503POPC   NC357515  32.295  17.485   5.553
 9503POPC   PO457516  32.257  17.503   5.853
 9503POPC   GL157517  32.270  17.501   6.153
 9503POPC   GL257518  32.341  17.540   6.153
 9503POPC   C1A57519  32.208  17.501   6.453
 9503POPC   D2A57520  32.225  17.543   6.753
 9503POPC   C3A57521  32.239  17.459   7.053
 9503POPC   C4A57522  32.218  17.501   7.353
 9503POPC   C1B57523  32.523  17.582   6.453
 9503POPC   C2B57524  32.461  17.538   6.753
 9503POPC   C3B57525  32.445  17.608   7.053
 9503POPC   C4B57526  32.506  17.586   7.353
 9504POPC   NC357527   1.187  36.858   5.553
 9504POPC   PO457528   1.199  36.926   5.853
 9504POPC   GL157529   1.177  36.927   6.153
 9504POPC   GL257530   1.104  36.996   6.153
 9504POPC   C1A57531   1.167  36.911   6.453
 9504POPC   D2A57532   1.194  36.872   6.753
 9504POPC   C3A57533   1.243  36.861   7.053
 9504POPC   C4A57534   1.192  36.930   7.353
 9504POPC   C1B57535   0.973  37.076   6.453
 9504POPC   C2B57536   0.949  37.071   6.753
 9504POPC   C3B57537   0.989  37.046   7.053
 9504POPC   C4B57538   0.994  37.060   7.353
 9505POPC   NC357539   5.880  43.150   5.553
 9505POPC   PO457540   5.862  43.135   5.853
 9505POPC   GL157541   5.869  43.124   6.153
 9505POPC   GL257542   5.891  43.188   6.153
 9505POPC   C1A57543   5.862  43.061   6.453
 9505POPC   D2A57544   5.880  43.105   6.753
 9505POPC   C3A57545   5.887  43.134   7.053
 9505POPC   C4A57546   5.825  43.062   7.353
 9505POPC   C1B57547   6.012  43.306   6.453
 9505POPC   C2B57548   6.000  43.289   6.753
 9505POPC   C3B57549   6.045  43.319   7.053
 9505POPC   C4B57550   5.985  43.283   7.353
 9506POPC   NC357551  29.888  15.148   5.553
 9506POPC   PO457552  29.934  15.214   5.853
 9506POPC   GL157553  29.874  15.162   6.153
 9506POPC   GL257554  29.961  15.096   6.153
 9506POPC   C1A57555  29.888  15.186   6.453
 9506POPC   D2A57556  29.940  15.204   6.753
 9506POPC   C3A57557  29.905  15.229   7.053
 9506POPC   C4A57558  29.921  15.187   7.353
 9506POPC   C1B57559  30.045  14.959   6.453
 9506POPC   C2B57560  30.078  14.906   6.753
 9506POPC   C3B57561  30.014  14.906   7.053
 9506POPC   C4B57562  29.990  14.999   7.353
 9507POPC   NC357563  33.070  17.508   5.553
 9507POPC   PO457564  33.042  17.539   5.853
 9507POPC   GL157565  33.074  17.501   6.153
 9507POPC   GL257566  32.986  17.343   6.153
 9507POPC   C1A57567  33.016  17.543   6.453
 9507POPC   D2A57568  32.985  17.495   6.753
 9507POPC   C3A57569  33.033  17.519   7.053
 9507POPC   C4A57570  33.030  17.520   7.353
 9507POPC   C1B57571  32.987  17.244   6.453
 9507POPC   C2B57572  32.977  17.238   6.753
 9507POPC   C3B57573  33.065  17.218   7.053
 9507POPC   C4B57574  33.012  17.292   7.353
 9508POPC   NC357575  22.118  22.931   5.553
 9508POPC   PO457576  22.164  22.948   5.853
 9508POPC   GL157577  22.190  22.902   6.153
 9508POPC   GL257578  22.014  22.900   6.153
 9508POPC   C1A57579  22.200  22.961   6.453
 9508POPC   D2A57580  22.155  22.935   6.753
 9508POPC   C3A57581  22.179  22.976   7.053
 9508POPC   C4A57582  22.170  22.929   7.353
 9508POPC   C1B57583  21.899  22.886   6.453
 9508POPC   C2B57584  21.938  22.903   6.753
 9508POPC   C3B57585  21.924  22.887   7.053
 9508POPC   C4B57586  21.924  22.863   7.353
 9509POPC   NC357587  16.704  11.345   5.553
 9509POPC   PO457588  16.741  11.330   5.853
 9509POPC   GL157589  16.697  11.311   6.153
 9509POPC   GL257590  16.601  11.232   6.153
 9509POPC   C1A57591  16.715  11.332   6.453
 9509POPC   D2A57592  16.695  11.338   6.753
 9509POPC   C3A57593  16.694  11.296   7.053
 9509POPC   C4A57594  16.709  11.307   7.353
 9509POPC   C1B57595  16.523  11.242   6.453
 9509POPC   C2B57596  16.488  11.270   6.753
 9509POPC   C3B57597  16.479  11.228   7.053
 9509POPC   C4B57598  16.483  11.247   7.353
 9510POPC   NC357599  19.037  27.610   5.553
 9510POPC   PO457600  19.018  27.572   5.853
 9510POPC   GL157601  19.106  27.588   6.153
 9510POPC   GL257602  18.900  27.577   6.153
 9510POPC   C1A57603  19.071  27.553   6.453
 9510POPC   D2A57604  19.022  27.610   6.753
 9510POPC   C3A57605  19.072  27.604   7.053
 9510POPC   C4A57606  19.041  27.609   7.353
 9510POPC   C1B57607  18.780  27.561   6.453
 9510POPC   C2B57608  18.860  27.512   6.753
 9510POPC   C3B57609  18.791  27.532   7.053
 9510POPC   C4B57610  18.851  27.489   7.353
 9511POPC   NC357611   1.249  19.050   5.553
 9511POPC   PO457612   1.187  19.016   5.853
 9511POPC   GL157613   1.198  19.090   6.153
 9511POPC   GL257614   1.077  19.012   6.153
 9511POPC   C1A57615   1.225  19.071   6.453
 9511POPC   D2A57616   1.256  19.099   6.753
 9511POPC   C3A57617   1.201  19.100   7.053
 9511POPC   C4A57618   1.239  19.036   7.353
 9511POPC   C1B57619   1.047  18.954   6.453
 9511POPC   C2B57620   1.031  18.959   6.753
 9511POPC   C3B57621   0.981  18.959   7.053
 9511POPC   C4B57622   0.964  18.888   7.353
 9512POPC   NC357623  39.963   7.396   5.553
 9512POPC   PO457624  39.985   7.438   5.853
 9512POPC   GL157625  40.024   7.404   6.153
 9512POPC   GL257626  39.889   7.336   6.153
 9512POPC   C1A57627  40.047   7.415   6.453
 9512POPC   D2A57628  39.966   7.385   6.753
 9512POPC   C3A57629  39.961   7.426   7.053
 9512POPC   C4A57630  40.042   7.401   7.353
 9512POPC   C1B57631  39.843   7.235   6.453
 9512POPC   C2B57632  39.886   7.211   6.753
 9512POPC   C3B57633  39.808   7.190   7.053
 9512POPC   C4B57634  39.897   7.192   7.353
 9513POPC   NC357635  26.048  22.149   5.553
 9513POPC   PO457636  26.017  22.113   5.853
 9513POPC   GL157637  26.081  22.174   6.153
 9513POPC   GL257638  25.939  22.203   6.153
 9513POPC   C1A57639  26.040  22.145   6.453
 9513POPC   D2A57640  26.043  22.124   6.753
 9513POPC   C3A57641  26.056  22.155   7.053
 9513POPC   C4A57642  25.999  22.120   7.353
 9513POPC   C1B57643  25.766  22.105   6.453
 9513POPC   C2B57644  25.834  22.136   6.753
 9513POPC   C3B57645  25.791  22.111   7.053
 9513POPC   C4B57646  25.777  22.101   7.353
 9514POPC   NC357647  38.464  41.580   5.553
 9514POPC   PO457648  38.499  41.558   5.853
 9514POPC   GL157649  38.463  41.511   6.153
 9514POPC   GL257650  38.350  41.487   6.153
 9514POPC   C1A57651  38.465  41.519   6.453
 9514POPC   D2A57652  38.410  41.520   6.753
 9514POPC   C3A57653  38.470  41.544   7.053
 9514POPC   C4A57654  38.428  41.519   7.353
 9514POPC   C1B57655  38.211  41.489   6.453
 9514POPC   C2B57656  38.244  41.518   6.753
 9514POPC   C3B57657  38.244  41.486   7.053
 9514POPC   C4B57658  38.255  41.529   7.353
 9515POPC   NC357659  39.243  12.078   5.553
 9515POPC   PO457660  39.252  12.062   5.853
 9515POPC   GL157661  39.233  12.056   6.153
 9515POPC   GL257662  39.318  12.001   6.153
 9515POPC   C1A57663  39.266  12.108   6.453
 9515POPC   D2A57664  39.221  12.055   6.753
 9515POPC   C3A57665  39.243  12.091   7.053
 9515POPC   C4A57666  39.206  12.045   7.353
 9515POPC   C1B57667  39.462  11.975   6.453
 9515POPC   C2B57668  39.449  11.979   6.753
 9515POPC   C3B57669  39.482  11.899   7.053
 9515POPC   C4B57670  39.408  11.897   7.353
 9516POPC   NC357671  34.604  30.708   5.553
 9516POPC   PO457672  34.591  30.668   5.853
 9516POPC   GL157673  34.552  30.686   6.153
 9516POPC   GL257674  34.732  30.796   6.153
 9516POPC   C1A57675  34.611  30.691   6.453
 9516POPC   D2A57676  34.613  30.730   6.753
 9516POPC   C3A57677  34.539  30.668   7.053
 9516POPC   C4A57678  34.578  30.701   7.353
 9516POPC   C1B57679  34.813  30.822   6.453
 9516POPC   C2B57680  34.763  30.832   6.753
 9516POPC   C3B57681  34.825  30.790   7.053
 9516POPC   C4B57682  34.786  30.818   7.353
 9517POPC   NC357683  24.514  28.407   5.553
 9517POPC   PO457684  24.449  28.412   5.853
 9517POPC   GL157685  24.496  28.356   6.153
 9517POPC   GL257686  24.562  28.409   6.153
 9517POPC   C1A57687  24.523  28.383   6.453
 9517POPC   D2A57688  24.507  28.354   6.753
 9517POPC   C3A57689  24.537  28.326   7.053
 9517POPC   C4A57690  24.460  28.344   7.353
 9517POPC   C1B57691  24.718  28.557   6.453
 9517POPC   C2B57692  24.733  28.501   6.753
 9517POPC   C3B57693  24.737  28.471   7.053
 9517POPC   C4B57694  24.674  28.552   7.353
 9518POPC   NC357695  17.552  22.918   5.553
 9518POPC   PO457696  17.516  22.932   5.853
 9518POPC   GL157697  17.495  22.939   6.153
 9518POPC   GL257698  17.542  23.042   6.153
 9518POPC   C1A57699  17.520  22.911   6.453
 9518POPC   D2A57700  17.534  22.933   6.753
 9518POPC   C3A57701  17.469  22.972   7.053
 9518POPC   C4A57702  17.548  22.951   7.353
 9518POPC   C1B57703  17.490  23.183   6.453
 9518POPC   C2B57704  17.513  23.221   6.753
 9518POPC   C3B57705  17.468  23.171   7.053
 9518POPC   C4B57706  17.487  23.149   7.353
 9519POPC   NC357707  15.186  24.495   5.553
 9519POPC   PO457708  15.177  24.531   5.853
 9519POPC   GL157709  15.180  24.453   6.153
 9519POPC   GL257710  15.322  24.533   6.153
 9519POPC   C1A57711  15.148  24.533   6.453
 9519POPC   D2A57712  15.202  24.500   6.753
 9519POPC   C3A57713  15.174  24.452   7.053
 9519POPC   C4A57714  15.175  24.485   7.353
 9519POPC   C1B57715  15.423  24.626   6.453
 9519POPC   C2B57716  15.376  24.606   6.753
 9519POPC   C3B57717  15.403  24.572   7.053
 9519POPC   C4B57718  15.361  24.576   7.353
 9520POPC   NC357719   1.205   3.495   5.553
 9520POPC   PO457720   1.183   3.492   5.853
 9520POPC   GL157721   1.174   3.509   6.153
 9520POPC   GL257722   1.151   3.397   6.153
 9520POPC   C1A57723   1.221   3.520   6.453
 9520POPC   D2A57724   1.261   3.543   6.753
 9520POPC   C3A57725   1.259   3.568   7.053
 9520POPC   C4A57726   1.255   3.511   7.353
 9520POPC   C1B57727   1.086   3.298   6.453
 9520POPC   C2B57728   1.095   3.315   6.753
 9520POPC   C3B57729   1.151   3.287   7.053
 9520POPC   C4B57730   1.154   3.338   7.353
 9521POPC   NC357731  39.230  35.381   5.553
 9521POPC   PO457732  39.215  35.364   5.853
 9521POPC   GL157733  39.250  35.302   6.153
 9521POPC   GL257734  39.106  35.208   6.153
 9521POPC   C1A57735  39.243  35.401   6.453
 9521POPC   D2A57736  39.223  35.325   6.753
 9521POPC   C3A57737  39.238  35.395   7.053
 9521POPC   C4A57738  39.237  35.354   7.353
 9521POPC   C1B57739  39.071  35.120   6.453
 9521POPC   C2B57740  39.054  35.214   6.753
 9521POPC   C3B57741  39.034  35.171   7.053
 9521POPC   C4B57742  39.052  35.189   7.353
 9522POPC   NC357743  26.067  13.590   5.553
 9522POPC   PO457744  26.077  13.587   5.853
 9522POPC   GL157745  26.070  13.623   6.153
 9522POPC   GL257746  26.100  13.702   6.153
 9522POPC   C1A57747  26.021  13.594   6.453
 9522POPC   D2A57748  26.063  13.650   6.753
 9522POPC   C3A57749  25.999  13.596   7.053
 9522POPC   C4A57750  26.085  13.646   7.353
 9522POPC   C1B57751  26.217  13.860   6.453
 9522POPC   C2B57752  26.176  13.823   6.753
 9522POPC   C3B57753  26.254  13.833   7.053
 9522POPC   C4B57754  26.212  13.856   7.353
 9523POPC   NC357755  19.038   0.411   5.553
 9523POPC   PO457756  19.017   0.429   5.853
 9523POPC   GL157757  19.013   0.480   6.153
 9523POPC   GL257758  19.225   0.426   6.153
 9523POPC   C1A57759  19.010   0.454   6.453
 9523POPC   D2A57760  19.061   0.449   6.753
 9523POPC   C3A57761  19.100   0.482   7.053
 9523POPC   C4A57762  19.082   0.428   7.353
 9523POPC   C1B57763  19.318   0.473   6.453
 9523POPC   C2B57764  19.301   0.441   6.753
 9523POPC   C3B57765  19.353   0.494   7.053
 9523POPC   C4B57766  19.302   0.513   7.353
 9524POPC   NC357767  34.528  29.179   5.553
 9524POPC   PO457768  34.541  29.151   5.853
 9524POPC   GL157769  34.621  29.182   6.153
 9524POPC   GL257770  34.637  29.201   6.153
 9524POPC   C1A57771  34.533  29.109   6.453
 9524POPC   D2A57772  34.562  29.128   6.753
 9524POPC   C3A57773  34.604  29.165   7.053
 9524POPC   C4A57774  34.617  29.171   7.353
 9524POPC   C1B57775  34.811  29.289   6.453
 9524POPC   C2B57776  34.755  29.222   6.753
 9524POPC   C3B57777  34.752  29.294   7.053
 9524POPC   C4B57778  34.763  29.298   7.353
 9525POPC   NC357779  13.617   6.668   5.553
 9525POPC   PO457780  13.645   6.624   5.853
 9525POPC   GL157781  13.636   6.622   6.153
 9525POPC   GL257782  13.780   6.619   6.153
 9525POPC   C1A57783  13.645   6.596   6.453
 9525POPC   D2A57784  13.639   6.665   6.753
 9525POPC   C3A57785  13.581   6.656   7.053
 9525POPC   C4A57786  13.589   6.615   7.353
 9525POPC   C1B57787  13.860   6.632   6.453
 9525POPC   C2B57788  13.851   6.569   6.753
 9525POPC   C3B57789  13.858   6.589   7.053
 9525POPC   C4B57790  13.865   6.594   7.353
 9526POPC   NC357791   1.981  17.467   5.553
 9526POPC   PO457792   1.962  17.466   5.853
 9526POPC   GL157793   1.992  17.466   6.153
 9526POPC   GL257794   2.137  17.535   6.153
 9526POPC   C1A57795   2.017  17.470   6.453
 9526POPC   D2A57796   2.003  17.517   6.753
 9526POPC   C3A57797   1.989  17.525   7.053
 9526POPC   C4A57798   2.034  17.511   7.353
 9526POPC   C1B57799   2.268  17.592   6.453
 9526POPC   C2B57800   2.259  17.572   6.753
 9526POPC   C3B57801   2.183  17.613   7.053
 9526POPC   C4B57802   2.199  17.579   7.353
 9527POPC   NC357803   8.992   5.885   5.553
 9527POPC   PO457804   9.003   5.912   5.853
 9527POPC   GL157805   8.951   5.840   6.153
 9527POPC   GL257806   8.926   5.759   6.153
 9527POPC   C1A57807   8.944   5.887   6.453
 9527POPC   D2A57808   8.976   5.872   6.753
 9527POPC   C3A57809   8.999   5.849   7.053
 9527POPC   C4A57810   8.969   5.865   7.353
 9527POPC   C1B57811   8.895   5.678   6.453
 9527POPC   C2B57812   8.844   5.645   6.753
 9527POPC   C3B57813   8.870   5.665   7.053
 9527POPC   C4B57814   8.927   5.680   7.353
 9528POPC   NC357815   1.262   2.793   5.553
 9528POPC   PO457816   1.211   2.717   5.853
 9528POPC   GL157817   1.219   2.747   6.153
 9528POPC   GL257818   1.321   2.722   6.153
 9528POPC   C1A57819   1.215   2.781   6.453
 9528POPC   D2A57820   1.223   2.785   6.753
 9528POPC   C3A57821   1.173   2.720   7.053
 9528POPC   C4A57822   1.254   2.808   7.353
 9528POPC   C1B57823   1.412   2.624   6.453
 9528POPC   C2B57824   1.372   2.624   6.753
 9528POPC   C3B57825   1.398   2.575   7.053
 9528POPC   C4B57826   1.396   2.606   7.353
 9529POPC   NC357827  44.642   1.994   5.553
 9529POPC   PO457828  44.655   2.039   5.853
 9529POPC   GL157829  44.632   1.992   6.153
 9529POPC   GL257830  44.578   1.948   6.153
 9529POPC   C1A57831  44.689   2.015   6.453
 9529POPC   D2A57832  44.618   1.968   6.753
 9529POPC   C3A57833  44.626   2.002   7.053
 9529POPC   C4A57834  44.652   1.955   7.353
 9529POPC   C1B57835  44.367   1.956   6.453
 9529POPC   C2B57836  44.440   2.011   6.753
 9529POPC   C3B57837  44.423   1.946   7.053
 9529POPC   C4B57838  44.448   2.025   7.353
 9530POPC   NC357839  34.611  13.616   5.553
 9530POPC   PO457840  34.528  13.597   5.853
 9530POPC   GL157841  34.606  13.637   6.153
 9530POPC   GL257842  34.517  13.519   6.153
 9530POPC   C1A57843  34.585  13.670   6.453
 9530POPC   D2A57844  34.569  13.620   6.753
 9530POPC   C3A57845  34.529  13.610   7.053
 9530POPC   C4A57846  34.619  13.631   7.353
 9530POPC   C1B57847  34.410  13.416   6.453
 9530POPC   C2B57848  34.433  13.371   6.753
 9530POPC   C3B57849  34.447  13.423   7.053
 9530POPC   C4B57850  34.420  13.425   7.353
 9531POPC   NC357851  29.895   8.963   5.553
 9531POPC   PO457852  29.969   9.020   5.853
 9531POPC   GL157853  29.921   9.015   6.153
 9531POPC   GL257854  29.815   9.101   6.153
 9531POPC   C1A57855  29.897   8.948   6.453
 9531POPC   D2A57856  29.881   8.946   6.753
 9531POPC   C3A57857  29.914   8.970   7.053
 9531POPC   C4A57858  29.902   8.967   7.353
 9531POPC   C1B57859  29.770   9.142   6.453
 9531POPC   C2B57860  29.781   9.171   6.753
 9531POPC   C3B57861  29.753   9.172   7.053
 9531POPC   C4B57862  29.772   9.154   7.353
 9532POPC   NC357863   9.016  43.842   5.553
 9532POPC   PO457864   8.926  43.884   5.853
 9532POPC   GL157865   8.933  43.847   6.153
 9532POPC   GL257866   9.064  43.951   6.153
 9532POPC   C1A57867   8.968  43.846   6.453
 9532POPC   D2A57868   8.960  43.869   6.753
 9532POPC   C3A57869   8.937  43.905   7.053
 9532POPC   C4A57870   8.928  43.861   7.353
 9532POPC   C1B57871   9.178  43.960   6.453
 9532POPC   C2B57872   9.263  43.914   6.753
 9532POPC   C3B57873   9.251  43.941   7.053
 9532POPC   C4B57874   9.232  43.938   7.353
 9533POPC   NC357875  15.931   8.984   5.553
 9533POPC   PO457876  15.971   8.981   5.853
 9533POPC   GL157877  16.005   8.983   6.153
 9533POPC   GL257878  15.851   9.034   6.153
 9533POPC   C1A57879  15.983   8.929   6.453
 9533POPC   D2A57880  15.960   9.010   6.753
 9533POPC   C3A57881  16.005   9.011   7.053
 9533POPC   C4A57882  16.000   8.932   7.353
 9533POPC   C1B57883  15.750   9.149   6.453
 9533POPC   C2B57884  15.789   9.088   6.753
 9533POPC   C3B57885  15.738   9.082   7.053
 9533POPC   C4B57886  15.784   9.158   7.353
 9534POPC   NC357887  41.516  26.769   5.553
 9534POPC   PO457888  41.595  26.789   5.853
 9534POPC   GL157889  41.511  26.796   6.153
 9534POPC   GL257890  41.577  26.974   6.153
 9534POPC   C1A57891  41.603  26.775   6.453
 9534POPC   D2A57892  41.581  26.818   6.753
 9534POPC   C3A57893  41.534  26.813   7.053
 9534POPC   C4A57894  41.568  26.787   7.353
 9534POPC   C1B57895  41.641  27.055   6.453
 9534POPC   C2B57896  41.620  27.085   6.753
 9534POPC   C3B57897  41.635  27.088   7.053
 9534POPC   C4B57898  41.605  27.095   7.353
 9535POPC   NC357899  19.037   8.925   5.553
 9535POPC   PO457900  19.031   9.013   5.853
 9535POPC   GL157901  19.081   8.971   6.153
 9535POPC   GL257902  19.083   8.848   6.153
 9535POPC   C1A57903  19.011   9.008   6.453
 9535POPC   D2A57904  19.048   8.941   6.753
 9535POPC   C3A57905  19.061   8.963   7.053
 9535POPC   C4A57906  19.035   8.984   7.353
 9535POPC   C1B57907  19.015   8.714   6.453
 9535POPC   C2B57908  18.980   8.710   6.753
 9535POPC   C3B57909  18.993   8.721   7.053
 9535POPC   C4B57910  18.976   8.768   7.353
 9536POPC   NC357911  36.122   2.013   5.553
 9536POPC   PO457912  36.088   1.991   5.853
 9536POPC   GL157913  36.120   2.006   6.153
 9536POPC   GL257914  36.263   2.063   6.153
 9536POPC   C1A57915  36.128   1.941   6.453
 9536POPC   D2A57916  36.100   1.976   6.753
 9536POPC   C3A57917  36.152   1.999   7.053
 9536POPC   C4A57918  36.082   1.991   7.353
 9536POPC   C1B57919  36.327   2.216   6.453
 9536POPC   C2B57920  36.332   2.133   6.753
 9536POPC   C3B57921  36.261   2.146   7.053
 9536POPC   C4B57922  36.265   2.119   7.353
 9537POPC   NC357923  19.091  36.920   5.553
 9537POPC   PO457924  19.087  36.879   5.853
 9537POPC   GL157925  19.017  36.947   6.153
 9537POPC   GL257926  18.953  36.794   6.153
 9537POPC   C1A57927  19.015  36.862   6.453
 9537POPC   D2A57928  19.066  36.867   6.753
 9537POPC   C3A57929  19.094  36.931   7.053
 9537POPC   C4A57930  19.092  36.895   7.353
 9537POPC   C1B57931  18.912  36.671   6.453
 9537POPC   C2B57932  18.934  36.710   6.753
 9537POPC   C3B57933  18.910  36.703   7.053
 9537POPC   C4B57934  18.947  36.696   7.353
 9538POPC   NC357935  36.866   8.958   5.553
 9538POPC   PO457936  36.940   8.946   5.853
 9538POPC   GL157937  36.872   8.945   6.153
 9538POPC   GL257938  36.916   9.125   6.153
 9538POPC   C1A57939  36.878   8.991   6.453
 9538POPC   D2A57940  36.862   9.006   6.753
 9538POPC   C3A57941  36.926   9.007   7.053
 9538POPC   C4A57942  36.883   9.021   7.353
 9538POPC   C1B57943  36.935   9.271   6.453
 9538POPC   C2B57944  36.906   9.253   6.753
 9538POPC   C3B57945  36.861   9.234   7.053
 9538POPC   C4B57946  36.904   9.219   7.353
 9539POPC   NC357947  28.363  24.441   5.553
 9539POPC   PO457948  28.409  24.494   5.853
 9539POPC   GL157949  28.400  24.520   6.153
 9539POPC   GL257950  28.282  24.474   6.153
 9539POPC   C1A57951  28.419  24.489   6.453
 9539POPC   D2A57952  28.379  24.480   6.753
 9539POPC   C3A57953  28.321  24.536   7.053
 9539POPC   C4A57954  28.415  24.499   7.353
 9539POPC   C1B57955  28.159  24.544   6.453
 9539POPC   C2B57956  28.156  24.492   6.753
 9539POPC   C3B57957  28.086  24.541   7.053
 9539POPC   C4B57958  28.097  24.567   7.353
 9540POPC   NC357959  39.212   5.073   5.553
 9540POPC   PO457960  39.271   5.064   5.853
 9540POPC   GL157961  39.220   5.085   6.153
 9540POPC   GL257962  39.116   5.176   6.153
 9540POPC   C1A57963  39.266   5.073   6.453
 9540POPC   D2A57964  39.201   5.064   6.753
 9540POPC   C3A57965  39.217   5.122   7.053
 9540POPC   C4A57966  39.210   5.108   7.353
 9540POPC   C1B57967  39.027   5.179   6.453
 9540POPC   C2B57968  38.961   5.218   6.753
 9540POPC   C3B57969  38.989   5.205   7.053
 9540POPC   C4B57970  39.049   5.174   7.353
 9541POPC   NC357971  39.214  23.760   5.553
 9541POPC   PO457972  39.231  23.682   5.853
 9541POPC   GL157973  39.216  23.741   6.153
 9541POPC   GL257974  39.312  23.655   6.153
 9541POPC   C1A57975  39.211  23.755   6.453
 9541POPC   D2A57976  39.183  23.723   6.753
 9541POPC   C3A57977  39.234  23.725   7.053
 9541POPC   C4A57978  39.274  23.747   7.353
 9541POPC   C1B57979  39.438  23.622   6.453
 9541POPC   C2B57980  39.442  23.610   6.753
 9541POPC   C3B57981  39.511  23.610   7.053
 9541POPC   C4B57982  39.462  23.622   7.353
 9542POPC   NC357983  30.654  40.806   5.553
 9542POPC   PO457984  30.709  40.784   5.853
 9542POPC   GL157985  30.699  40.786   6.153
 9542POPC   GL257986  30.585  40.921   6.153
 9542POPC   C1A57987  30.729  40.761   6.453
 9542POPC   D2A57988  30.733  40.743   6.753
 9542POPC   C3A57989  30.664  40.762   7.053
 9542POPC   C4A57990  30.702  40.769   7.353
 9542POPC   C1B57991  30.565  41.003   6.453
 9542POPC   C2B57992  30.514  40.996   6.753
 9542POPC   C3B57993  30.498  41.014   7.053
 9542POPC   C4B57994  30.499  40.977   7.353
 9543POPC   NC357995  23.706  29.954   5.553
 9543POPC   PO457996  23.713  29.946   5.853
 9543POPC   GL157997  23.718  29.966   6.153
 9543POPC   GL257998  23.637  29.983   6.153
 9543POPC   C1A57999  23.679  29.936   6.453
 9543POPC   D2A58000  23.666  29.939   6.753
 9543POPC   C3A58001  23.690  29.873   7.053
 9543POPC   C4A58002  23.746  29.919   7.353
 9543POPC   C1B58003  23.633  30.135   6.453
 9543POPC   C2B58004  23.639  30.139   6.753
 9543POPC   C3B58005  23.618  30.118   7.053
 9543POPC   C4B58006  23.635  30.187   7.353
 9544POPC   NC358007  22.916  14.449   5.553
 9544POPC   PO458008  22.905  14.441   5.853
 9544POPC   GL158009  22.972  14.378   6.153
 9544POPC   GL258010  22.864  14.543   6.153
 9544POPC   C1A58011  22.916  14.381   6.453
 9544POPC   D2A58012  22.966  14.437   6.753
 9544POPC   C3A58013  22.898  14.402   7.053
 9544POPC   C4A58014  22.983  14.358   7.353
 9544POPC   C1B58015  22.884  14.671   6.453
 9544POPC   C2B58016  22.875  14.687   6.753
 9544POPC   C3B58017  22.876  14.604   7.053
 9544POPC   C4B58018  22.886  14.678   7.353
 9545POPC   NC358019  13.663   3.519   5.553
 9545POPC   PO458020  13.672   3.538   5.853
 9545POPC   GL158021  13.592   3.563   6.153
 9545POPC   GL258022  13.705   3.448   6.153
 9545POPC   C1A58023  13.583   3.500   6.453
 9545POPC   D2A58024  13.657   3.557   6.753
 9545POPC   C3A58025  13.635   3.515   7.053
 9545POPC   C4A58026  13.661   3.536   7.353
 9545POPC   C1B58027  13.873   3.467   6.453
 9545POPC   C2B58028  13.825   3.451   6.753
 9545POPC   C3B58029  13.893   3.397   7.053
 9545POPC   C4B58030  13.810   3.482   7.353
 9546POPC   NC358031  33.837   1.231   5.553
 9546POPC   PO458032  33.808   1.190   5.853
 9546POPC   GL158033  33.839   1.256   6.153
 9546POPC   GL258034  33.790   1.351   6.153
 9546POPC   C1A58035  33.765   1.206   6.453
 9546POPC   D2A58036  33.760   1.202   6.753
 9546POPC   C3A58037  33.756   1.171   7.053
 9546POPC   C4A58038  33.783   1.250   7.353
 9546POPC   C1B58039  33.795   1.454   6.453
 9546POPC   C2B58040  33.767   1.468   6.753
 9546POPC   C3B58041  33.716   1.436   7.053
 9546POPC   C4B58042  33.791   1.412   7.353
 9547POPC   NC358043  26.083  39.263   5.553
 9547POPC   PO458044  26.017  39.243   5.853
 9547POPC   GL158045  26.040  39.201   6.153
 9547POPC   GL258046  26.011  39.387   6.153
 9547POPC   C1A58047  26.050  39.209   6.453
 9547POPC   D2A58048  26.011  39.186   6.753
 9547POPC   C3A58049  26.009  39.257   7.053
 9547POPC   C4A58050  26.035  39.218   7.353
 9547POPC   C1B58051  25.988  39.450   6.453
 9547POPC   C2B58052  26.002  39.494   6.753
 9547POPC   C3B58053  25.968  39.505   7.053
 9547POPC   C4B58054  25.953  39.493   7.353
 9548POPC   NC358055  40.002  39.242   5.553
 9548POPC   PO458056  40.049  39.278   5.853
 9548POPC   GL158057  39.990  39.214   6.153
 9548POPC   GL258058  40.030  39.377   6.153
 9548POPC   C1A58059  39.965  39.275   6.453
 9548POPC   D2A58060  40.017  39.181   6.753
 9548POPC   C3A58061  40.030  39.279   7.053
 9548POPC   C4A58062  39.992  39.186   7.353
 9548POPC   C1B58063  40.006  39.475   6.453
 9548POPC   C2B58064  40.011  39.526   6.753
 9548POPC   C3B58065  40.011  39.498   7.053
 9548POPC   C4B58066  39.984  39.494   7.353
 9549POPC   NC358067   1.244  33.012   5.553
 9549POPC   PO458068   1.209  32.986   5.853
 9549POPC   GL158069   1.252  33.044   6.153
 9549POPC   GL258070   1.156  33.086   6.153
 9549POPC   C1A58071   1.198  33.006   6.453
 9549POPC   D2A58072   1.181  33.020   6.753
 9549POPC   C3A58073   1.176  33.024   7.053
 9549POPC   C4A58074   1.248  32.980   7.353
 9549POPC   C1B58075   0.967  33.131   6.453
 9549POPC   C2B58076   1.043  33.145   6.753
 9549POPC   C3B58077   1.005  33.195   7.053
 9549POPC   C4B58078   0.963  33.149   7.353
 9550POPC   NC358079   8.981  20.577   5.553
 9550POPC   PO458080   8.929  20.581   5.853
 9550POPC   GL158081   8.943  20.561   6.153
 9550POPC   GL258082   8.940  20.729   6.153
 9550POPC   C1A58083   9.007  20.600   6.453
 9550POPC   D2A58084   8.928  20.571   6.753
 9550POPC   C3A58085   8.962  20.656   7.053
 9550POPC   C4A58086   8.976  20.649   7.353
 9550POPC   C1B58087   9.012  20.897   6.453
 9550POPC   C2B58088   8.979  20.860   6.753
 9550POPC   C3B58089   8.982  20.905   7.053
 9550POPC   C4B58090   8.980  20.849   7.353
 9551POPC   NC358091  19.029  22.115   5.553
 9551POPC   PO458092  19.108  22.172   5.853
 9551POPC   GL158093  19.040  22.120   6.153
 9551POPC   GL258094  19.063  22.022   6.153
 9551POPC   C1A58095  19.032  22.153   6.453
 9551POPC   D2A58096  19.045  22.144   6.753
 9551POPC   C3A58097  19.039  22.125   7.053
 9551POPC   C4A58098  19.031  22.201   7.353
 9551POPC   C1B58099  18.975  21.939   6.453
 9551POPC   C2B58100  19.063  21.905   6.753
 9551POPC   C3B58101  19.063  21.870   7.053
 9551POPC   C4B58102  19.058  21.866   7.353
 9552POPC   NC358103  38.459  22.150   5.553
 9552POPC   PO458104  38.410  22.175   5.853
 9552POPC   GL158105  38.475  22.155   6.153
 9552POPC   GL258106  38.373  22.067   6.153
 9552POPC   C1A58107  38.439  22.119   6.453
 9552POPC   D2A58108  38.471  22.164   6.753
 9552POPC   C3A58109  38.439  22.184   7.053
 9552POPC   C4A58110  38.501  22.140   7.353
 9552POPC   C1B58111  38.387  21.938   6.453
 9552POPC   C2B58112  38.304  21.918   6.753
 9552POPC   C3B58113  38.372  21.932   7.053
 9552POPC   C4B58114  38.335  21.949   7.353
 9553POPC   NC358115  43.125   8.967   5.553
 9553POPC   PO458116  43.122   8.954   5.853
 9553POPC   GL158117  43.082   9.003   6.153
 9553POPC   GL258118  43.177   9.096   6.153
 9553POPC   C1A58119  43.097   8.954   6.453
 9553POPC   D2A58120  43.090   8.959   6.753
 9553POPC   C3A58121  43.160   9.000   7.053
 9553POPC   C4A58122  43.123   8.981   7.353
 9553POPC   C1B58123  43.142   9.259   6.453
 9553POPC   C2B58124  43.223   9.198   6.753
 9553POPC   C3B58125  43.182   9.169   7.053
 9553POPC   C4B58126  43.165   9.202   7.353
 9554POPC   NC358127   9.737  31.506   5.553
 9554POPC   PO458128   9.757  31.489   5.853
 9554POPC   GL158129   9.730  31.479   6.153
 9554POPC   GL258130   9.840  31.372   6.153
 9554POPC   C1A58131   9.711  31.510   6.453
 9554POPC   D2A58132   9.712  31.432   6.753
 9554POPC   C3A58133   9.709  31.457   7.053
 9554POPC   C4A58134   9.776  31.506   7.353
 9554POPC   C1B58135   9.989  31.400   6.453
 9554POPC   C2B58136   9.973  31.349   6.753
 9554POPC   C3B58137   9.939  31.328   7.053
 9554POPC   C4B58138   9.955  31.318   7.353
 9555POPC   NC358139  15.909  44.670   5.553
 9555POPC   PO458140  15.998  44.675   5.853
 9555POPC   GL158141  15.947  44.708   6.153
 9555POPC   GL258142  15.787  44.607   6.153
 9555POPC   C1A58143  15.970  44.658   6.453
 9555POPC   D2A58144  15.931  44.708   6.753
 9555POPC   C3A58145  15.923  44.711   7.053
 9555POPC   C4A58146  15.938  44.685   7.353
 9555POPC   C1B58147  15.729  44.581   6.453
 9555POPC   C2B58148  15.680  44.649   6.753
 9555POPC   C3B58149  15.757  44.600   7.053
 9555POPC   C4B58150  15.673  44.583   7.353
 9556POPC   NC358151  25.216  32.220   5.553
 9556POPC   PO458152  25.260  32.260   5.853
 9556POPC   GL158153  25.297  32.258   6.153
 9556POPC   GL258154  25.212  32.188   6.153
 9556POPC   C1A58155  25.314  32.251   6.453
 9556POPC   D2A58156  25.275  32.229   6.753
 9556POPC   C3A58157  25.285  32.205   7.053
 9556POPC   C4A58158  25.262  32.213   7.353
 9556POPC   C1B58159  25.097  32.050   6.453
 9556POPC   C2B58160  25.073  32.054   6.753
 9556POPC   C3B58161  25.126  32.064   7.053
 9556POPC   C4B58162  25.056  32.052   7.353
 9557POPC   NC358163  29.908  22.936   5.553
 9557POPC   PO458164  29.885  22.960   5.853
 9557POPC   GL158165  29.952  22.979   6.153
 9557POPC   GL258166  29.917  22.800   6.153
 9557POPC   C1A58167  29.930  22.971   6.453
 9557POPC   D2A58168  29.871  22.956   6.753
 9557POPC   C3A58169  29.911  22.903   7.053
 9557POPC   C4A58170  29.924  22.890   7.353
 9557POPC   C1B58171  29.962  22.653   6.453
 9557POPC   C2B58172  29.907  22.659   6.753
 9557POPC   C3B58173  29.968  22.720   7.053
 9557POPC   C4B58174  29.964  22.709   7.353
 9558POPC   NC358175  35.378  30.653   5.553
 9558POPC   PO458176  35.359  30.692   5.853
 9558POPC   GL158177  35.311  30.720   6.153
 9558POPC   GL258178  35.199  30.710   6.153
 9558POPC   C1A58179  35.355  30.720   6.453
 9558POPC   D2A58180  35.331  30.746   6.753
 9558POPC   C3A58181  35.302  30.719   7.053
 9558POPC   C4A58182  35.397  30.667   7.353
 9558POPC   C1B58183  35.097  30.761   6.453
 9558POPC   C2B58184  35.092  30.778   6.753
 9558POPC   C3B58185  35.096  30.793   7.053
 9558POPC   C4B58186  35.093  30.758   7.353
 9559POPC   NC358187   9.022  35.394   5.553
 9559POPC   PO458188   8.992  35.387   5.853
 9559POPC   GL158189   8.935  35.376   6.153
 9559POPC   GL258190   8.891  35.438   6.153
 9559POPC   C1A58191   8.989  35.324   6.453
 9559POPC   D2A58192   8.951  35.384   6.753
 9559POPC   C3A58193   8.929  35.322   7.053
 9559POPC   C4A58194   8.960  35.392   7.353
 9559POPC   C1B58195   8.793  35.468   6.453
 9559POPC   C2B58196   8.792  35.453   6.753
 9559POPC   C3B58197   8.788  35.480   7.053
 9559POPC   C4B58198   8.779  35.478   7.353
 9560POPC   NC358199  31.500  16.731   5.553
 9560POPC   PO458200  31.481  16.773   5.853
 9560POPC   GL158201  31.486  16.778   6.153
 9560POPC   GL258202  31.340  16.726   6.153
 9560POPC   C1A58203  31.502  16.685   6.453
 9560POPC   D2A58204  31.423  16.761   6.753
 9560POPC   C3A58205  31.496  16.726   7.053
 9560POPC   C4A58206  31.494  16.733   7.353
 9560POPC   C1B58207  31.203  16.646   6.453
 9560POPC   C2B58208  31.192  16.639   6.753
 9560POPC   C3B58209  31.285  16.610   7.053
 9560POPC   C4B58210  31.280  16.687   7.353
 9561POPC   NC358211  40.805  40.019   5.553
 9561POPC   PO458212  40.823  40.002   5.853
 9561POPC   GL158213  40.775  40.006   6.153
 9561POPC   GL258214  40.818  39.871   6.153
 9561POPC   C1A58215  40.821  40.040   6.453
 9561POPC   D2A58216  40.805  39.958   6.753
 9561POPC   C3A58217  40.757  40.055   7.053
 9561POPC   C4A58218  40.789  40.016   7.353
 9561POPC   C1B58219  40.749  39.793   6.453
 9561POPC   C2B58220  40.835  39.781   6.753
 9561POPC   C3B58221  40.832  39.746   7.053
 9561POPC   C4B58222  40.794  39.717   7.353
 9562POPC   NC358223  10.568  27.558   5.553
 9562POPC   PO458224  10.492  27.615   5.853
 9562POPC   GL158225  10.524  27.590   6.153
 9562POPC   GL258226  10.518  27.494   6.153
 9562POPC   C1A58227  10.487  27.601   6.453
 9562POPC   D2A58228  10.568  27.574   6.753
 9562POPC   C3A58229  10.535  27.631   7.053
 9562POPC   C4A58230  10.552  27.563   7.353
 9562POPC   C1B58231  10.470  27.370   6.453
 9562POPC   C2B58232  10.489  27.371   6.753
 9562POPC   C3B58233  10.497  27.339   7.053
 9562POPC   C4B58234  10.445  27.391   7.353
 9563POPC   NC358235  14.375  28.346   5.553
 9563POPC   PO458236  14.369  28.356   5.853
 9563POPC   GL158237  14.360  28.414   6.153
 9563POPC   GL258238  14.499  28.379   6.153
 9563POPC   C1A58239  14.356  28.391   6.453
 9563POPC   D2A58240  14.430  28.389   6.753
 9563POPC   C3A58241  14.375  28.407   7.053
 9563POPC   C4A58242  14.389  28.343   7.353
 9563POPC   C1B58243  14.654  28.460   6.453
 9563POPC   C2B58244  14.623  28.460   6.753
 9563POPC   C3B58245  14.651  28.472   7.053
 9563POPC   C4B58246  14.682  28.480   7.353
 9564POPC   NC358247   8.153  21.355   5.553
 9564POPC   PO458248   8.167  21.406   5.853
 9564POPC   GL158249   8.244  21.423   6.153
 9564POPC   GL258250   8.181  21.266   6.153
 9564POPC   C1A58251   8.203  21.372   6.453
 9564POPC   D2A58252   8.190  21.377   6.753
 9564POPC   C3A58253   8.239  21.353   7.053
 9564POPC   C4A58254   8.161  21.391   7.353
 9564POPC   C1B58255   8.097  21.171   6.453
 9564POPC   C2B58256   8.072  21.134   6.753
 9564POPC   C3B58257   8.118  21.190   7.053
 9564POPC   C4B58258   8.115  21.150   7.353
 9565POPC   NC358259   8.959   0.486   5.553
 9565POPC   PO458260   9.012   0.480   5.853
 9565POPC   GL158261   8.927   0.390   6.153
 9565POPC   GL258262   9.049   0.373   6.153
 9565POPC   C1A58263   8.976   0.487   6.453
 9565POPC   D2A58264   8.946   0.472   6.753
 9565POPC   C3A58265   8.993   0.471   7.053
 9565POPC   C4A58266   8.938   0.394   7.353
 9565POPC   C1B58267   9.156   0.338   6.453
 9565POPC   C2B58268   9.159   0.361   6.753
 9565POPC   C3B58269   9.200   0.397   7.053
 9565POPC   C4B58270   9.203   0.387   7.353
 9566POPC   NC358271  33.837  21.405   5.553
 9566POPC   PO458272  33.822  21.413   5.853
 9566POPC   GL158273  33.830  21.338   6.153
 9566POPC   GL258274  33.892  21.282   6.153
 9566POPC   C1A58275  33.788  21.389   6.453
 9566POPC   D2A58276  33.841  21.423   6.753
 9566POPC   C3A58277  33.771  21.426   7.053
 9566POPC   C4A58278  33.793  21.359   7.353
 9566POPC   C1B58279  33.982  21.234   6.453
 9566POPC   C2B58280  34.070  21.282   6.753
 9566POPC   C3B58281  34.056  21.253   7.053
 9566POPC   C4B58282  33.974  21.250   7.353
 9567POPC   NC358283  33.772  22.953   5.553
 9567POPC   PO458284  33.849  22.959   5.853
 9567POPC   GL158285  33.792  22.928   6.153
 9567POPC   GL258286  33.902  22.954   6.153
 9567POPC   C1A58287  33.760  22.953   6.453
 9567POPC   D2A58288  33.773  22.922   6.753
 9567POPC   C3A58289  33.782  22.975   7.053
 9567POPC   C4A58290  33.838  22.956   7.353
 9567POPC   C1B58291  34.061  22.943   6.453
 9567POPC   C2B58292  34.079  22.896   6.753
 9567POPC   C3B58293  34.096  22.891   7.053
 9567POPC   C4B58294  34.041  22.922   7.353
 9568POPC   NC358295  19.873  31.513   5.553
 9568POPC   PO458296  19.797  31.461   5.853
 9568POPC   GL158297  19.873  31.458   6.153
 9568POPC   GL258298  19.887  31.386   6.153
 9568POPC   C1A58299  19.881  31.458   6.453
 9568POPC   D2A58300  19.795  31.438   6.753
 9568POPC   C3A58301  19.812  31.488   7.053
 9568POPC   C4A58302  19.873  31.498   7.353
 9568POPC   C1B58303  19.976  31.280   6.453
 9568POPC   C2B58304  19.969  31.262   6.753
 9568POPC   C3B58305  19.970  31.278   7.053
 9568POPC   C4B58306  19.962  31.291   7.353
 9569POPC   NC358307  14.396  29.173   5.553
 9569POPC   PO458308  14.420  29.128   5.853
 9569POPC   GL158309  14.384  29.175   6.153
 9569POPC   GL258310  14.347  29.022   6.153
 9569POPC   C1A58311  14.452  29.124   6.453
 9569POPC   D2A58312  14.440  29.155   6.753
 9569POPC   C3A58313  14.442  29.132   7.053
 9569POPC   C4A58314  14.399  29.154   7.353
 9569POPC   C1B58315  14.329  28.892   6.453
 9569POPC   C2B58316  14.324  28.925   6.753
 9569POPC   C3B58317  14.305  28.938   7.053
 9569POPC   C4B58318  14.276  28.920   7.353
 9570POPC   NC358319   8.968  10.537   5.553
 9570POPC   PO458320   8.931  10.572   5.853
 9570POPC   GL158321   8.956  10.481   6.153
 9570POPC   GL258322   8.917  10.462   6.153
 9570POPC   C1A58323   8.968  10.531   6.453
 9570POPC   D2A58324   8.951  10.488   6.753
 9570POPC   C3A58325   8.937  10.519   7.053
 9570POPC   C4A58326   8.930  10.528   7.353
 9570POPC   C1B58327   8.853  10.350   6.453
 9570POPC   C2B58328   8.797  10.353   6.753
 9570POPC   C3B58329   8.849  10.313   7.053
 9570POPC   C4B58330   8.814  10.317   7.353
 9571POPC   NC358331  38.424  39.237   5.553
 9571POPC   PO458332  38.423  39.244   5.853
 9571POPC   GL158333  38.473  39.182   6.153
 9571POPC   GL258334  38.570  39.280   6.153
 9571POPC   C1A58335  38.452  39.280   6.453
 9571POPC   D2A58336  38.429  39.267   6.753
 9571POPC   C3A58337  38.475  39.229   7.053
 9571POPC   C4A58338  38.471  39.266   7.353
 9571POPC   C1B58339  38.710  39.354   6.453
 9571POPC   C2B58340  38.665  39.325   6.753
 9571POPC   C3B58341  38.660  39.370   7.053
 9571POPC   C4B58342  38.689  39.369   7.353
 9572POPC   NC358343  43.933  12.833   5.553
 9572POPC   PO458344  43.841  12.856   5.853
 9572POPC   GL158345  43.889  12.847   6.153
 9572POPC   GL258346  43.902  13.008   6.153
 9572POPC   C1A58347  43.840  12.897   6.453
 9572POPC   D2A58348  43.933  12.895   6.753
 9572POPC   C3A58349  43.870  12.873   7.053
 9572POPC   C4A58350  43.909  12.889   7.353
 9572POPC   C1B58351  43.841  13.146   6.453
 9572POPC   C2B58352  43.846  13.082   6.753
 9572POPC   C3B58353  43.829  13.134   7.053
 9572POPC   C4B58354  43.877  13.121   7.353
 9573POPC   NC358355  10.504  26.786   5.553
 9573POPC   PO458356  10.561  26.810   5.853
 9573POPC   GL158357  10.483  26.829   6.153
 9573POPC   GL258358  10.473  26.944   6.153
 9573POPC   C1A58359  10.560  26.814   6.453
 9573POPC   D2A58360  10.550  26.857   6.753
 9573POPC   C3A58361  10.511  26.780   7.053
 9573POPC   C4A58362  10.555  26.819   7.353
 9573POPC   C1B58363  10.301  26.987   6.453
 9573POPC   C2B58364  10.348  26.949   6.753
 9573POPC   C3B58365  10.368  26.954   7.053
 9573POPC   C4B58366  10.372  26.974   7.353
 9574POPC   NC358367   9.700  14.381   5.553
 9574POPC   PO458368   9.707  14.379   5.853
 9574POPC   GL158369   9.729  14.424   6.153
 9574POPC   GL258370   9.831  14.519   6.153
 9574POPC   C1A58371   9.786  14.388   6.453
 9574POPC   D2A58372   9.723  14.376   6.753
 9574POPC   C3A58373   9.703  14.363   7.053
 9574POPC   C4A58374   9.705  14.420   7.353
 9574POPC   C1B58375   9.926  14.623   6.453
 9574POPC   C2B58376   9.921  14.611   6.753
 9574POPC   C3B58377   9.947  14.598   7.053
 9574POPC   C4B58378   9.963  14.537   7.353
 9575POPC   NC358379  14.414   5.068   5.553
 9575POPC   PO458380  14.424   5.096   5.853
 9575POPC   GL158381  14.418   5.126   6.153
 9575POPC   GL258382  14.260   5.072   6.153
 9575POPC   C1A58383  14.447   5.080   6.453
 9575POPC   D2A58384  14.370   5.085   6.753
 9575POPC   C3A58385  14.398   5.095   7.053
 9575POPC   C4A58386  14.434   5.088   7.353
 9575POPC   C1B58387  14.132   5.061   6.453
 9575POPC   C2B58388  14.171   5.000   6.753
 9575POPC   C3B58389  14.155   5.067   7.053
 9575POPC   C4B58390  14.208   5.026   7.353
 9576POPC   NC358391  38.448  14.442   5.553
 9576POPC   PO458392  38.446  14.361   5.853
 9576POPC   GL158393  38.424  14.411   6.153
 9576POPC   GL258394  38.319  14.438   6.153
 9576POPC   C1A58395  38.422  14.414   6.453
 9576POPC   D2A58396  38.489  14.378   6.753
 9576POPC   C3A58397  38.479  14.422   7.053
 9576POPC   C4A58398  38.408  14.397   7.353
 9576POPC   C1B58399  38.313  14.578   6.453
 9576POPC   C2B58400  38.311  14.539   6.753
 9576POPC   C3B58401  38.295  14.610   7.053
 9576POPC   C4B58402  38.288  14.524   7.353
 9577POPC   NC358403  22.202  42.353   5.553
 9577POPC   PO458404  22.132  42.313   5.853
 9577POPC   GL158405  22.191  42.285   6.153
 9577POPC   GL258406  22.225  42.437   6.153
 9577POPC   C1A58407  22.155  42.381   6.453
 9577POPC   D2A58408  22.124  42.306   6.753
 9577POPC   C3A58409  22.117  42.338   7.053
 9577POPC   C4A58410  22.149  42.301   7.353
 9577POPC   C1B58411  22.355  42.575   6.453
 9577POPC   C2B58412  22.330  42.552   6.753
 9577POPC   C3B58413  22.361  42.484   7.053
 9577POPC   C4B58414  22.275  42.486   7.353
 9578POPC   NC358415  33.807   5.100   5.553
 9578POPC   PO458416  33.767   5.085   5.853
 9578POPC   GL158417  33.753   5.081   6.153
 9578POPC   GL258418  33.898   5.159   6.153
 9578POPC   C1A58419  33.800   5.118   6.453
 9578POPC   D2A58420  33.768   5.094   6.753
 9578POPC   C3A58421  33.767   5.082   7.053
 9578POPC   C4A58422  33.792   5.109   7.353
 9578POPC   C1B58423  33.934   5.311   6.453
 9578POPC   C2B58424  33.938   5.331   6.753
 9578POPC   C3B58425  33.896   5.330   7.053
 9578POPC   C4B58426  33.964   5.324   7.353
 9579POPC   NC358427  35.386  20.620   5.553
 9579POPC   PO458428  35.372  20.638   5.853
 9579POPC   GL158429  35.378  20.634   6.153
 9579POPC   GL258430  35.239  20.672   6.153
 9579POPC   C1A58431  35.335  20.609   6.453
 9579POPC   D2A58432  35.351  20.618   6.753
 9579POPC   C3A58433  35.395  20.592   7.053
 9579POPC   C4A58434  35.308  20.634   7.353
 9579POPC   C1B58435  35.192  20.826   6.453
 9579POPC   C2B58436  35.229  20.823   6.753
 9579POPC   C3B58437  35.174  20.802   7.053
 9579POPC   C4B58438  35.217  20.786   7.353
 9580POPC   NC358439  44.641  39.248   5.553
 9580POPC   PO458440  44.651  39.279   5.853
 9580POPC   GL158441  44.680  39.264   6.153
 9580POPC   GL258442  44.803  39.302   6.153
 9580POPC   C1A58443  44.653  39.275   6.453
 9580POPC   D2A58444  44.683  39.279   6.753
 9580POPC   C3A58445  44.625  39.247   7.053
 9580POPC   C4A58446  44.697  39.255   7.353
 9580POPC   C1B58447  44.939  39.323   6.453
 9580POPC   C2B58448  44.924  39.341   6.753
 9580POPC   C3B58449  44.897  39.340   7.053
 9580POPC   C4B58450  44.933  39.348   7.353
 9581POPC   NC358451  36.099  21.376   5.553
 9581POPC   PO458452  36.139  21.417   5.853
 9581POPC   GL158453  36.133  21.378   6.153
 9581POPC   GL258454  36.169  21.308   6.153
 9581POPC   C1A58455  36.083  21.377   6.453
 9581POPC   D2A58456  36.090  21.421   6.753
 9581POPC   C3A58457  36.144  21.351   7.053
 9581POPC   C4A58458  36.136  21.363   7.353
 9581POPC   C1B58459  36.307  21.187   6.453
 9581POPC   C2B58460  36.246  21.207   6.753
 9581POPC   C3B58461  36.292  21.143   7.053
 9581POPC   C4B58462  36.248  21.160   7.353
 9582POPC   NC358463   1.258  22.113   5.553
 9582POPC   PO458464   1.230  22.158   5.853
 9582POPC   GL158465   1.182  22.148   6.153
 9582POPC   GL258466   1.254  22.283   6.153
 9582POPC   C1A58467   1.199  22.158   6.453
 9582POPC   D2A58468   1.259  22.194   6.753
 9582POPC   C3A58469   1.184  22.153   7.053
 9582POPC   C4A58470   1.224  22.133   7.353
 9582POPC   C1B58471   1.300  22.401   6.453
 9582POPC   C2B58472   1.267  22.379   6.753
 9582POPC   C3B58473   1.275  22.442   7.053
 9582POPC   C4B58474   1.316  22.378   7.353
 9583POPC   NC358475   0.437  14.434   5.553
 9583POPC   PO458476   0.415  14.452   5.853
 9583POPC   GL158477   0.471  14.384   6.153
 9583POPC   GL258478   0.413  14.309   6.153
 9583POPC   C1A58479   0.485  14.436   6.453
 9583POPC   D2A58480   0.416  14.374   6.753
 9583POPC   C3A58481   0.441  14.382   7.053
 9583POPC   C4A58482   0.458  14.366   7.353
 9583POPC   C1B58483   0.423  14.161   6.453
 9583POPC   C2B58484   0.375  14.137   6.753
 9583POPC   C3B58485   0.423  14.149   7.053
 9583POPC   C4B58486   0.401  14.200   7.353
 9584POPC   NC358487  43.905  26.801   5.553
 9584POPC   PO458488  43.897  26.776   5.853
 9584POPC   GL158489  43.876  26.806   6.153
 9584POPC   GL258490  43.944  26.679   6.153
 9584POPC   C1A58491  43.837  26.804   6.453
 9584POPC   D2A58492  43.844  26.860   6.753
 9584POPC   C3A58493  43.875  26.860   7.053
 9584POPC   C4A58494  43.868  26.811   7.353
 9584POPC   C1B58495  44.041  26.585   6.453
 9584POPC   C2B58496  44.026  26.627   6.753
 9584POPC   C3B58497  44.057  26.580   7.053
 9584POPC   C4B58498  44.097  26.647   7.353
 9585POPC   NC358499  43.136  15.979   5.553
 9585POPC   PO458500  43.086  15.950   5.853
 9585POPC   GL158501  43.124  15.950   6.153
 9585POPC   GL258502  43.032  16.052   6.153
 9585POPC   C1A58503  43.135  15.924   6.453
 9585POPC   D2A58504  43.157  15.910   6.753
 9585POPC   C3A58505  43.109  15.919   7.053
 9585POPC   C4A58506  43.077  15.963   7.353
 9585POPC   C1B58507  42.933  16.098   6.453
 9585POPC   C2B58508  42.887  16.067   6.753
 9585POPC   C3B58509  42.947  16.162   7.053
 9585POPC   C4B58510  42.930  16.143   7.353
 9586POPC   NC358511  36.902  12.811   5.553
 9586POPC   PO458512  36.947  12.900   5.853
 9586POPC   GL158513  36.895  12.874   6.153
 9586POPC   GL258514  37.025  12.794   6.153
 9586POPC   C1A58515  36.861  12.882   6.453
 9586POPC   D2A58516  36.897  12.875   6.753
 9586POPC   C3A58517  36.898  12.812   7.053
 9586POPC   C4A58518  36.873  12.865   7.353
 9586POPC   C1B58519  37.117  12.641   6.453
 9586POPC   C2B58520  37.124  12.647   6.753
 9586POPC   C3B58521  37.046  12.694   7.053
 9586POPC   C4B58522  37.062  12.654   7.353
 9587POPC   NC358523  20.564  39.266   5.553
 9587POPC   PO458524  20.561  39.222   5.853
 9587POPC   GL158525  20.588  39.240   6.153
 9587POPC   GL258526  20.773  39.238   6.153
 9587POPC   C1A58527  20.648  39.227   6.453
 9587POPC   D2A58528  20.573  39.218   6.753
 9587POPC   C3A58529  20.602  39.225   7.053
 9587POPC   C4A58530  20.592  39.260   7.353
 9587POPC   C1B58531  20.898  39.225   6.453
 9587POPC   C2B58532  20.848  39.256   6.753
 9587POPC   C3B58533  20.820  39.190   7.053
 9587POPC   C4B58534  20.865  39.177   7.353
 9588POPC   NC358535   6.686  40.020   5.553
 9588POPC   PO458536   6.645  39.998   5.853
 9588POPC   GL158537   6.639  40.023   6.153
 9588POPC   GL258538   6.701  40.063   6.153
 9588POPC   C1A58539   6.642  40.003   6.453
 9588POPC   D2A58540   6.677  39.969   6.753
 9588POPC   C3A58541   6.646  39.996   7.053
 9588POPC   C4A58542   6.644  40.031   7.353
 9588POPC   C1B58543   6.810  40.152   6.453
 9588POPC   C2B58544   6.812  40.202   6.753
 9588POPC   C3B58545   6.890  40.138   7.053
 9588POPC   C4B58546   6.832  40.122   7.353
 9589POPC   NC358547  18.270   8.222   5.553
 9589POPC   PO458548  18.319   8.206   5.853
 9589POPC   GL158549  18.331   8.245   6.153
 9589POPC   GL258550  18.417   8.183   6.153
 9589POPC   C1A58551  18.263   8.155   6.453
 9589POPC   D2A58552  18.255   8.213   6.753
 9589POPC   C3A58553  18.314   8.241   7.053
 9589POPC   C4A58554  18.268   8.156   7.353
 9589POPC   C1B58555  18.514   8.104   6.453
 9589POPC   C2B58556  18.497   8.190   6.753
 9589POPC   C3B58557  18.530   8.136   7.053
 9589POPC   C4B58558  18.521   8.123   7.353
 9590POPC   NC358559  33.043  31.424   5.553
 9590POPC   PO458560  33.010  31.493   5.853
 9590POPC   GL158561  33.004  31.479   6.153
 9590POPC   GL258562  32.954  31.412   6.153
 9590POPC   C1A58563  33.039  31.472   6.453
 9590POPC   D2A58564  32.979  31.499   6.753
 9590POPC   C3A58565  33.038  31.425   7.053
 9590POPC   C4A58566  33.036  31.462   7.353
 9590POPC   C1B58567  32.883  31.299   6.453
 9590POPC   C2B58568  32.816  31.322   6.753
 9590POPC   C3B58569  32.885  31.246   7.053
 9590POPC   C4B58570  32.902  31.285   7.353
 9591POPC   NC358571  25.302  15.942   5.553
 9591POPC   PO458572  25.223  15.939   5.853
 9591POPC   GL158573  25.288  15.908   6.153
 9591POPC   GL258574  25.183  15.940   6.153
 9591POPC   C1A58575  25.310  15.928   6.453
 9591POPC   D2A58576  25.263  15.977   6.753
 9591POPC   C3A58577  25.305  15.978   7.053
 9591POPC   C4A58578  25.218  15.953   7.353
 9591POPC   C1B58579  24.981  15.929   6.453
 9591POPC   C2B58580  25.050  15.913   6.753
 9591POPC   C3B58581  25.041  15.896   7.053
 9591POPC   C4B58582  25.030  15.919   7.353
 9592POPC   NC358583  32.255  10.559   5.553
 9592POPC   PO458584  32.269  10.492   5.853
 9592POPC   GL158585  32.282  10.551   6.153
 9592POPC   GL258586  32.362  10.480   6.153
 9592POPC   C1A58587  32.254  10.527   6.453
 9592POPC   D2A58588  32.282  10.547   6.753
 9592POPC   C3A58589  32.217  10.532   7.053
 9592POPC   C4A58590  32.221  10.526   7.353
 9592POPC   C1B58591  32.506  10.539   6.453
 9592POPC   C2B58592  32.520  10.533   6.753
 9592POPC   C3B58593  32.517  10.547   7.053
 9592POPC   C4B58594  32.490  10.478   7.353
 9593POPC   NC358595  43.144  33.065   5.553
 9593POPC   PO458596  43.069  33.045   5.853
 9593POPC   GL158597  43.155  33.009   6.153
 9593POPC   GL258598  43.059  32.926   6.153
 9593POPC   C1A58599  43.148  32.977   6.453
 9593POPC   D2A58600  43.084  33.040   6.753
 9593POPC   C3A58601  43.125  33.034   7.053
 9593POPC   C4A58602  43.122  33.023   7.353
 9593POPC   C1B58603  42.998  32.808   6.453
 9593POPC   C2B58604  43.063  32.762   6.753
 9593POPC   C3B58605  43.009  32.757   7.053
 9593POPC   C4B58606  43.013  32.800   7.353
 9594POPC   NC358607  36.904  15.924   5.553
 9594POPC   PO458608  36.925  16.005   5.853
 9594POPC   GL158609  36.913  15.997   6.153
 9594POPC   GL258610  37.051  16.006   6.153
 9594POPC   C1A58611  36.879  15.999   6.453
 9594POPC   D2A58612  36.880  15.950   6.753
 9594POPC   C3A58613  36.857  15.954   7.053
 9594POPC   C4A58614  36.924  15.938   7.353
 9594POPC   C1B58615  37.134  16.070   6.453
 9594POPC   C2B58616  37.094  16.069   6.753
 9594POPC   C3B58617  37.190  16.028   7.053
 9594POPC   C4B58618  37.128  15.985   7.353
 9595POPC   NC358619  23.728  14.361   5.553
 9595POPC   PO458620  23.681  14.438   5.853
 9595POPC   GL158621  23.724  14.410   6.153
 9595POPC   GL258622  23.605  14.548   6.153
 9595POPC   C1A58623  23.734  14.447   6.453
 9595POPC   D2A58624  23.733  14.403   6.753
 9595POPC   C3A58625  23.688  14.360   7.053
 9595POPC   C4A58626  23.737  14.443   7.353
 9595POPC   C1B58627  23.536  14.608   6.453
 9595POPC   C2B58628  23.558  14.636   6.753
 9595POPC   C3B58629  23.607  14.622   7.053
 9595POPC   C4B58630  23.587  14.647   7.353
 9596POPC   NC358631  16.003  27.549   5.553
 9596POPC   PO458632  15.949  27.562   5.853
 9596POPC   GL158633  15.982  27.586   6.153
 9596POPC   GL258634  16.086  27.639   6.153
 9596POPC   C1A58635  16.001  27.609   6.453
 9596POPC   D2A58636  15.992  27.623   6.753
 9596POPC   C3A58637  15.916  27.606   7.053
 9596POPC   C4A58638  15.920  27.593   7.353
 9596POPC   C1B58639  16.190  27.796   6.453
 9596POPC   C2B58640  16.110  27.798   6.753
 9596POPC   C3B58641  16.130  27.725   7.053
 9596POPC   C4B58642  16.160  27.744   7.353
 9597POPC   NC358643  42.331  16.772   5.553
 9597POPC   PO458644  42.323  16.772   5.853
 9597POPC   GL158645  42.366  16.690   6.153
 9597POPC   GL258646  42.396  16.657   6.153
 9597POPC   C1A58647  42.341  16.735   6.453
 9597POPC   D2A58648  42.323  16.696   6.753
 9597POPC   C3A58649  42.377  16.711   7.053
 9597POPC   C4A58650  42.317  16.690   7.353
 9597POPC   C1B58651  42.483  16.566   6.453
 9597POPC   C2B58652  42.504  16.551   6.753
 9597POPC   C3B58653  42.537  16.536   7.053
 9597POPC   C4B58654  42.496  16.593   7.353
 9598POPC   NC358655  16.757   0.441   5.553
 9598POPC   PO458656  16.683   0.453   5.853
 9598POPC   GL158657  16.758   0.416   6.153
 9598POPC   GL258658  16.886   0.392   6.153
 9598POPC   C1A58659  16.697   0.445   6.453
 9598POPC   D2A58660  16.769   0.415   6.753
 9598POPC   C3A58661  16.759   0.393   7.053
 9598POPC   C4A58662  16.736   0.398   7.353
 9598POPC   C1B58663  16.962   0.324   6.453
 9598POPC   C2B58664  16.969   0.374   6.753
 9598POPC   C3B58665  16.966   0.327   7.053
 9598POPC   C4B58666  16.946   0.374   7.353
 9599POPC   NC358667   1.254  44.639   5.553
 9599POPC   PO458668   1.209  44.655   5.853
 9599POPC   GL158669   1.171  44.623   6.153
 9599POPC   GL258670   1.095  44.756   6.153
 9599POPC   C1A58671   1.176  44.693   6.453
 9599POPC   D2A58672   1.232  44.631   6.753
 9599POPC   C3A58673   1.233  44.640   7.053
 9599POPC   C4A58674   1.184  44.625   7.353
 9599POPC   C1B58675   1.072  44.875   6.453
 9599POPC   C2B58676   1.020  44.896   6.753
 9599POPC   C3B58677   1.009  44.856   7.053
 9599POPC   C4B58678   1.088  44.890   7.353
 9600POPC   NC358679  27.604   4.353   5.553
 9600POPC   PO458680  27.617   4.333   5.853
 9600POPC   GL158681  27.631   4.292   6.153
 9600POPC   GL258682  27.641   4.440   6.153
 9600POPC   C1A58683  27.622   4.293   6.453
 9600POPC   D2A58684  27.598   4.267   6.753
 9600POPC   C3A58685  27.555   4.358   7.053
 9600POPC   C4A58686  27.588   4.281   7.353
 9600POPC   C1B58687  27.595   4.559   6.453
 9600POPC   C2B58688  27.602   4.584   6.753
 9600POPC   C3B58689  27.664   4.590   7.053
 9600POPC   C4B58690  27.580   4.592   7.353
 9601POPC   NC358691  39.271  34.584   5.553
 9601POPC   PO458692  39.245  34.610   5.853
 9601POPC   GL158693  39.221  34.569   6.153
 9601POPC   GL258694  39.353  34.698   6.153
 9601POPC   C1A58695  39.235  34.589   6.453
 9601POPC   D2A58696  39.268  34.623   6.753
 9601POPC   C3A58697  39.275  34.599   7.053
 9601POPC   C4A58698  39.274  34.533   7.353
 9601POPC   C1B58699  39.400  34.711   6.453
 9601POPC   C2B58700  39.439  34.712   6.753
 9601POPC   C3B58701  39.397  34.793   7.053
 9601POPC   C4B58702  39.448  34.768   7.353
 9602POPC   NC358703  44.691  33.066   5.553
 9602POPC   PO458704  44.685  33.043   5.853
 9602POPC   GL158705  44.622  32.976   6.153
 9602POPC   GL258706  44.520  32.946   6.153
 9602POPC   C1A58707  44.620  33.071   6.453
 9602POPC   D2A58708  44.618  33.072   6.753
 9602POPC   C3A58709  44.634  33.047   7.053
 9602POPC   C4A58710  44.643  32.990   7.353
 9602POPC   C1B58711  44.415  32.871   6.453
 9602POPC   C2B58712  44.470  32.892   6.753
 9602POPC   C3B58713  44.417  32.904   7.053
 9602POPC   C4B58714  44.431  32.911   7.353
 9603POPC   NC358715  40.018  29.928   5.553
 9603POPC   PO458716  39.968  29.894   5.853
 9603POPC   GL158717  40.037  29.905   6.153
 9603POPC   GL258718  39.895  29.810   6.153
 9603POPC   C1A58719  39.991  29.933   6.453
 9603POPC   D2A58720  39.980  29.883   6.753
 9603POPC   C3A58721  39.987  29.914   7.053
 9603POPC   C4A58722  40.000  29.904   7.353
 9603POPC   C1B58723  39.792  29.716   6.453
 9603POPC   C2B58724  39.794  29.692   6.753
 9603POPC   C3B58725  39.819  29.760   7.053
 9603POPC   C4B58726  39.854  29.721   7.353
 9604POPC   NC358727  19.096   1.998   5.553
 9604POPC   PO458728  19.108   1.982   5.853
 9604POPC   GL158729  19.058   2.012   6.153
 9604POPC   GL258730  19.145   2.040   6.153
 9604POPC   C1A58731  19.101   1.972   6.453
 9604POPC   D2A58732  19.013   2.037   6.753
 9604POPC   C3A58733  19.025   2.002   7.053
 9604POPC   C4A58734  19.089   1.983   7.353
 9604POPC   C1B58735  19.357   2.000   6.453
 9604POPC   C2B58736  19.341   1.990   6.753
 9604POPC   C3B58737  19.328   1.956   7.053
 9604POPC   C4B58738  19.284   1.958   7.353
 9605POPC   NC358739  15.911  23.762   5.553
 9605POPC   PO458740  15.956  23.761   5.853
 9605POPC   GL158741  15.970  23.678   6.153
 9605POPC   GL258742  15.893  23.786   6.153
 9605POPC   C1A58743  15.990  23.679   6.453
 9605POPC   D2A58744  15.966  23.699   6.753
 9605POPC   C3A58745  15.988  23.757   7.053
 9605POPC   C4A58746  15.966  23.743   7.353
 9605POPC   C1B58747  15.869  23.927   6.453
 9605POPC   C2B58748  15.793  23.908   6.753
 9605POPC   C3B58749  15.813  23.890   7.053
 9605POPC   C4B58750  15.879  23.906   7.353
 9606POPC   NC358751   2.810  40.769   5.553
 9606POPC   PO458752   2.767  40.778   5.853
 9606POPC   GL158753   2.722  40.743   6.153
 9606POPC   GL258754   2.742  40.944   6.153
 9606POPC   C1A58755   2.803  40.812   6.453
 9606POPC   D2A58756   2.772  40.767   6.753
 9606POPC   C3A58757   2.771  40.797   7.053
 9606POPC   C4A58758   2.775  40.802   7.353
 9606POPC   C1B58759   2.783  41.000   6.453
 9606POPC   C2B58760   2.744  40.983   6.753
 9606POPC   C3B58761   2.813  41.036   7.053
 9606POPC   C4B58762   2.735  41.049   7.353
 9607POPC   NC358763  41.597  20.589   5.553
 9607POPC   PO458764  41.520  20.642   5.853
 9607POPC   GL158765  41.588  20.606   6.153
 9607POPC   GL258766  41.522  20.704   6.153
 9607POPC   C1A58767  41.605  20.563   6.453
 9607POPC   D2A58768  41.550  20.624   6.753
 9607POPC   C3A58769  41.589  20.578   7.053
 9607POPC   C4A58770  41.596  20.586   7.353
 9607POPC   C1B58771  41.393  20.807   6.453
 9607POPC   C2B58772  41.381  20.830   6.753
 9607POPC   C3B58773  41.427  20.800   7.053
 9607POPC   C4B58774  41.436  20.857   7.353
 9608POPC   NC358775   6.642  28.408   5.553
 9608POPC   PO458776   6.677  28.414   5.853
 9608POPC   GL158777   6.658  28.363   6.153
 9608POPC   GL258778   6.811  28.329   6.153
 9608POPC   C1A58779   6.656  28.322   6.453
 9608POPC   D2A58780   6.661  28.341   6.753
 9608POPC   C3A58781   6.610  28.398   7.053
 9608POPC   C4A58782   6.667  28.378   7.353
 9608POPC   C1B58783   6.909  28.398   6.453
 9608POPC   C2B58784   6.890  28.382   6.753
 9608POPC   C3B58785   6.886  28.334   7.053
 9608POPC   C4B58786   6.914  28.347   7.353
 9609POPC   NC358787  38.446  12.113   5.553
 9609POPC   PO458788  38.462  12.092   5.853
 9609POPC   GL158789  38.478  12.043   6.153
 9609POPC   GL258790  38.557  12.081   6.153
 9609POPC   C1A58791  38.426  12.050   6.453
 9609POPC   D2A58792  38.452  12.106   6.753
 9609POPC   C3A58793  38.494  12.047   7.053
 9609POPC   C4A58794  38.465  12.096   7.353
 9609POPC   C1B58795  38.742  12.134   6.453
 9609POPC   C2B58796  38.740  12.081   6.753
 9609POPC   C3B58797  38.753  12.151   7.053
 9609POPC   C4B58798  38.724  12.094   7.353
 9610POPC   NC358799   5.135  36.112   5.553
 9610POPC   PO458800   5.093  36.156   5.853
 9610POPC   GL158801   5.069  36.087   6.153
 9610POPC   GL258802   5.198  36.191   6.153
 9610POPC   C1A58803   5.082  36.143   6.453
 9610POPC   D2A58804   5.083  36.096   6.753
 9610POPC   C3A58805   5.087  36.109   7.053
 9610POPC   C4A58806   5.044  36.117   7.353
 9610POPC   C1B58807   5.355  36.279   6.453
 9610POPC   C2B58808   5.293  36.211   6.753
 9610POPC   C3B58809   5.305  36.207   7.053
 9610POPC   C4B58810   5.272  36.242   7.353
 9611POPC   NC358811  39.266  44.631   5.553
 9611POPC   PO458812  39.191  44.635   5.853
 9611POPC   GL158813  39.224  44.703   6.153
 9611POPC   GL258814  39.081  44.750   6.153
 9611POPC   C1A58815  39.244  44.693   6.453
 9611POPC   D2A58816  39.240  44.659   6.753
 9611POPC   C3A58817  39.244  44.659   7.053
 9611POPC   C4A58818  39.274  44.645   7.353
 9611POPC   C1B58819  39.048  44.759   6.453
 9611POPC   C2B58820  38.977  44.796   6.753
 9611POPC   C3B58821  38.985  44.819   7.053
 9611POPC   C4B58822  39.037  44.802   7.353
 9612POPC   NC358823  11.259  43.067   5.553
 9612POPC   PO458824  11.267  43.094   5.853
 9612POPC   GL158825  11.304  43.114   6.153
 9612POPC   GL258826  11.401  43.135   6.153
 9612POPC   C1A58827  11.262  43.128   6.453
 9612POPC   D2A58828  11.304  43.075   6.753
 9612POPC   C3A58829  11.255  43.100   7.053
 9612POPC   C4A58830  11.327  43.082   7.353
 9612POPC   C1B58831  11.498  43.157   6.453
 9612POPC   C2B58832  11.555  43.144   6.753
 9612POPC   C3B58833  11.507  43.158   7.053
 9612POPC   C4B58834  11.554  43.129   7.353
 9613POPC   NC358835  14.395   1.942   5.553
 9613POPC   PO458836  14.432   2.036   5.853
 9613POPC   GL158837  14.433   1.956   6.153
 9613POPC   GL258838  14.269   2.028   6.153
 9613POPC   C1A58839  14.366   1.995   6.453
 9613POPC   D2A58840  14.432   1.960   6.753
 9613POPC   C3A58841  14.356   2.027   7.053
 9613POPC   C4A58842  14.439   1.956   7.353
 9613POPC   C1B58843  14.164   2.159   6.453
 9613POPC   C2B58844  14.212   2.188   6.753
 9613POPC   C3B58845  14.184   2.123   7.053
 9613POPC   C4B58846  14.243   2.167   7.353
 9614POPC   NC358847   1.961   0.450   5.553
 9614POPC   PO458848   1.956   0.405   5.853
 9614POPC   GL158849   1.963   0.414   6.153
 9614POPC   GL258850   2.124   0.486   6.153
 9614POPC   C1A58851   1.981   0.407   6.453
 9614POPC   D2A58852   2.005   0.455   6.753
 9614POPC   C3A58853   2.025   0.453   7.053
 9614POPC   C4A58854   2.039   0.462   7.353
 9614POPC   C1B58855   2.245   0.530   6.453
 9614POPC   C2B58856   2.271   0.476   6.753
 9614POPC   C3B58857   2.186   0.512   7.053
 9614POPC   C4B58858   2.237   0.496   7.353
 9615POPC   NC358859  36.141  35.328   5.553
 9615POPC   PO458860  36.132  35.374   5.853
 9615POPC   GL158861  36.112  35.367   6.153
 9615POPC   GL258862  36.218  35.233   6.153
 9615POPC   C1A58863  36.118  35.353   6.453
 9615POPC   D2A58864  36.110  35.373   6.753
 9615POPC   C3A58865  36.149  35.390   7.053
 9615POPC   C4A58866  36.147  35.393   7.353
 9615POPC   C1B58867  36.240  35.109   6.453
 9615POPC   C2B58868  36.215  35.139   6.753
 9615POPC   C3B58869  36.214  35.132   7.053
 9615POPC   C4B58870  36.192  35.094   7.353
 9616POPC   NC358871  10.525   2.019   5.553
 9616POPC   PO458872  10.487   1.979   5.853
 9616POPC   GL158873  10.518   1.970   6.153
 9616POPC   GL258874  10.406   1.870   6.153
 9616POPC   C1A58875  10.558   2.022   6.453
 9616POPC   D2A58876  10.491   1.964   6.753
 9616POPC   C3A58877  10.493   1.979   7.053
 9616POPC   C4A58878  10.481   1.969   7.353
 9616POPC   C1B58879  10.294   1.854   6.453
 9616POPC   C2B58880  10.368   1.816   6.753
 9616POPC   C3B58881  10.328   1.848   7.053
 9616POPC   C4B58882  10.297   1.802   7.353
 9617POPC   NC358883  35.325  34.563   5.553
 9617POPC   PO458884  35.350  34.531   5.853
 9617POPC   GL158885  35.345  34.598   6.153
 9617POPC   GL258886  35.463  34.610   6.153
 9617POPC   C1A58887  35.396  34.557   6.453
 9617POPC   D2A58888  35.342  34.549   6.753
 9617POPC   C3A58889  35.383  34.607   7.053
 9617POPC   C4A58890  35.400  34.555   7.353
 9617POPC   C1B58891  35.589  34.701   6.453
 9617POPC   C2B58892  35.535  34.694   6.753
 9617POPC   C3B58893  35.601  34.713   7.053
 9617POPC   C4B58894  35.605  34.713   7.353
 9618POPC   NC358895  22.981  22.130   5.553
 9618POPC   PO458896  22.909  22.113   5.853
 9618POPC   GL158897  22.983  22.132   6.153
 9618POPC   GL258898  23.009  22.325   6.153
 9618POPC   C1A58899  22.902  22.144   6.453
 9618POPC   D2A58900  22.894  22.147   6.753
 9618POPC   C3A58901  22.983  22.114   7.053
 9618POPC   C4A58902  22.905  22.198   7.353
 9618POPC   C1B58903  22.998  22.413   6.453
 9618POPC   C2B58904  23.047  22.444   6.753
 9618POPC   C3B58905  22.998  22.408   7.053
 9618POPC   C4B58906  23.003  22.356   7.353
 9619POPC   NC358907  41.515  30.678   5.553
 9619POPC   PO458908  41.517  30.732   5.853
 9619POPC   GL158909  41.594  30.651   6.153
 9619POPC   GL258910  41.590  30.544   6.153
 9619POPC   C1A58911  41.512  30.737   6.453
 9619POPC   D2A58912  41.534  30.725   6.753
 9619POPC   C3A58913  41.517  30.693   7.053
 9619POPC   C4A58914  41.533  30.662   7.353
 9619POPC   C1B58915  41.656  30.499   6.453
 9619POPC   C2B58916  41.650  30.489   6.753
 9619POPC   C3B58917  41.635  30.446   7.053
 9619POPC   C4B58918  41.640  30.463   7.353
 9620POPC   NC358919   6.638  19.789   5.553
 9620POPC   PO458920   6.689  19.854   5.853
 9620POPC   GL158921   6.617  19.817   6.153
 9620POPC   GL258922   6.750  19.871   6.153
 9620POPC   C1A58923   6.623  19.786   6.453
 9620POPC   D2A58924   6.612  19.856   6.753
 9620POPC   C3A58925   6.635  19.828   7.053
 9620POPC   C4A58926   6.621  19.844   7.353
 9620POPC   C1B58927   6.924  19.846   6.453
 9620POPC   C2B58928   6.843  19.893   6.753
 9620POPC   C3B58929   6.848  19.857   7.053
 9620POPC   C4B58930   6.932  19.862   7.353
 9621POPC   NC358931  23.762  39.277   5.553
 9621POPC   PO458932  23.712  39.188   5.853
 9621POPC   GL158933  23.760  39.211   6.153
 9621POPC   GL258934  23.749  39.357   6.153
 9621POPC   C1A58935  23.761  39.212   6.453
 9621POPC   D2A58936  23.728  39.248   6.753
 9621POPC   C3A58937  23.747  39.190   7.053
 9621POPC   C4A58938  23.674  39.260   7.353
 9621POPC   C1B58939  23.786  39.511   6.453
 9621POPC   C2B58940  23.710  39.462   6.753
 9621POPC   C3B58941  23.743  39.505   7.053
 9621POPC   C4B58942  23.769  39.462   7.353
 9622POPC   NC358943  29.104   5.080   5.553
 9622POPC   PO458944  29.118   5.059   5.853
 9622POPC   GL158945  29.141   5.098   6.153
 9622POPC   GL258946  29.260   5.012   6.153
 9622POPC   C1A58947  29.153   5.048   6.453
 9622POPC   D2A58948  29.188   5.068   6.753
 9622POPC   C3A58949  29.146   5.087   7.053
 9622POPC   C4A58950  29.120   5.061   7.353
 9622POPC   C1B58951  29.303   4.964   6.453
 9622POPC   C2B58952  29.322   4.923   6.753
 9622POPC   C3B58953  29.295   4.959   7.053
 9622POPC   C4B58954  29.377   4.956   7.353
 9623POPC   NC358955  26.866  15.210   5.553
 9623POPC   PO458956  26.785  15.142   5.853
 9623POPC   GL158957  26.848  15.178   6.153
 9623POPC   GL258958  26.837  15.042   6.153
 9623POPC   C1A58959  26.817  15.155   6.453
 9623POPC   D2A58960  26.785  15.227   6.753
 9623POPC   C3A58961  26.857  15.145   7.053
 9623POPC   C4A58962  26.809  15.167   7.353
 9623POPC   C1B58963  26.823  14.938   6.453
 9623POPC   C2B58964  26.801  14.958   6.753
 9623POPC   C3B58965  26.839  14.965   7.053
 9623POPC   C4B58966  26.825  14.899   7.353
 9624POPC   NC358967  12.105  39.257   5.553
 9624POPC   PO458968  12.078  39.248   5.853
 9624POPC   GL158969  12.091  39.196   6.153
 9624POPC   GL258970  12.228  39.186   6.153
 9624POPC   C1A58971  12.117  39.208   6.453
 9624POPC   D2A58972  12.031  39.219   6.753
 9624POPC   C3A58973  12.050  39.230   7.053
 9624POPC   C4A58974  12.038  39.187   7.353
 9624POPC   C1B58975  12.300  39.175   6.453
 9624POPC   C2B58976  12.269  39.194   6.753
 9624POPC   C3B58977  12.276  39.097   7.053
 9624POPC   C4B58978  12.348  39.192   7.353
 9625POPC   NC358979  43.128   6.628   5.553
 9625POPC   PO458980  43.105   6.637   5.853
 9625POPC   GL158981  43.110   6.681   6.153
 9625POPC   GL258982  43.222   6.659   6.153
 9625POPC   C1A58983  43.134   6.679   6.453
 9625POPC   D2A58984  43.125   6.688   6.753
 9625POPC   C3A58985  43.146   6.615   7.053
 9625POPC   C4A58986  43.084   6.683   7.353
 9625POPC   C1B58987  43.340   6.748   6.453
 9625POPC   C2B58988  43.390   6.691   6.753
 9625POPC   C3B58989  43.333   6.691   7.053
 9625POPC   C4B58990  43.341   6.692   7.353
 9626POPC   NC358991  32.267  12.880   5.553
 9626POPC   PO458992  32.266  12.820   5.853
 9626POPC   GL158993  32.200  12.814   6.153
 9626POPC   GL258994  32.139  12.930   6.153
 9626POPC   C1A58995  32.213  12.897   6.453
 9626POPC   D2A58996  32.297  12.856   6.753
 9626POPC   C3A58997  32.259  12.880   7.053
 9626POPC   C4A58998  32.263  12.826   7.353
 9626POPC   C1B58999  32.093  13.052   6.453
 9626POPC   C2B59000  32.131  13.036   6.753
 9626POPC   C3B59001  32.147  13.102   7.053
 9626POPC   C4B59002  32.161  13.036   7.353
 9627POPC   NC359003  17.480   4.313   5.553
 9627POPC   PO459004  17.541   4.304   5.853
 9627POPC   GL159005  17.555   4.341   6.153
 9627POPC   GL259006  17.538   4.396   6.153
 9627POPC   C1A59007  17.522   4.321   6.453
 9627POPC   D2A59008  17.472   4.326   6.753
 9627POPC   C3A59009  17.482   4.322   7.053
 9627POPC   C4A59010  17.525   4.271   7.353
 9627POPC   C1B59011  17.562   4.559   6.453
 9627POPC   C2B59012  17.564   4.606   6.753
 9627POPC   C3B59013  17.573   4.575   7.053
 9627POPC   C4B59014  17.568   4.534   7.353
 9628POPC   NC359015  22.938  25.272   5.553
 9628POPC   PO459016  22.931  25.245   5.853
 9628POPC   GL159017  22.892  25.276   6.153
 9628POPC   GL259018  23.088  25.224   6.153
 9628POPC   C1A59019  22.960  25.260   6.453
 9628POPC   D2A59020  22.955  25.258   6.753
 9628POPC   C3A59021  22.901  25.247   7.053
 9628POPC   C4A59022  22.951  25.287   7.353
 9628POPC   C1B59023  23.118  25.153   6.453
 9628POPC   C2B59024  23.192  25.152   6.753
 9628POPC   C3B59025  23.207  25.210   7.053
 9628POPC   C4B59026  23.182  25.177   7.353
 9629POPC   NC359027   6.690  40.755   5.553
 9629POPC   PO459028   6.647  40.743   5.853
 9629POPC   GL159029   6.680  40.805   6.153
 9629POPC   GL259030   6.555  40.848   6.153
 9629POPC   C1A59031   6.692  40.799   6.453
 9629POPC   D2A59032   6.600  40.798   6.753
 9629POPC   C3A59033   6.666  40.738   7.053
 9629POPC   C4A59034   6.623  40.760   7.353
 9629POPC   C1B59035   6.464  40.925   6.453
 9629POPC   C2B59036   6.400  40.883   6.753
 9629POPC   C3B59037   6.408  40.887   7.053
 9629POPC   C4B59038   6.424  40.901   7.353
 9630POPC   NC359039  13.641  38.423   5.553
 9630POPC   PO459040  13.609  38.471   5.853
 9630POPC   GL159041  13.619  38.494   6.153
 9630POPC   GL259042  13.581  38.579   6.153
 9630POPC   C1A59043  13.615  38.446   6.453
 9630POPC   D2A59044  13.591  38.496   6.753
 9630POPC   C3A59045  13.642  38.410   7.053
 9630POPC   C4A59046  13.611  38.476   7.353
 9630POPC   C1B59047  13.570  38.688   6.453
 9630POPC   C2B59048  13.527  38.685   6.753
 9630POPC   C3B59049  13.580  38.670   7.053
 9630POPC   C4B59050  13.531  38.656   7.353
 9631POPC   NC359051   8.929   1.956   5.553
 9631POPC   PO459052   8.938   2.024   5.853
 9631POPC   GL159053   9.020   1.968   6.153
 9631POPC   GL259054   8.973   1.818   6.153
 9631POPC   C1A59055   8.959   2.003   6.453
 9631POPC   D2A59056   8.923   1.981   6.753
 9631POPC   C3A59057   8.923   1.954   7.053
 9631POPC   C4A59058   8.945   1.947   7.353
 9631POPC   C1B59059   8.982   1.752   6.453
 9631POPC   C2B59060   9.004   1.787   6.753
 9631POPC   C3B59061   8.997   1.770   7.053
 9631POPC   C4B59062   9.033   1.785   7.353
 9632POPC   NC359063  40.793  29.160   5.553
 9632POPC   PO459064  40.808  29.097   5.853
 9632POPC   GL159065  40.736  29.190   6.153
 9632POPC   GL259066  40.883  29.140   6.153
 9632POPC   C1A59067  40.818  29.169   6.453
 9632POPC   D2A59068  40.793  29.169   6.753
 9632POPC   C3A59069  40.802  29.107   7.053
 9632POPC   C4A59070  40.814  29.095   7.353
 9632POPC   C1B59071  41.034  29.076   6.453
 9632POPC   C2B59072  41.044  29.094   6.753
 9632POPC   C3B59073  41.033  29.069   7.053
 9632POPC   C4B59074  40.976  29.114   7.353
 9633POPC   NC359075  30.653  15.151   5.553
 9633POPC   PO459076  30.713  15.219   5.853
 9633POPC   GL159077  30.740  15.225   6.153
 9633POPC   GL259078  30.788  15.103   6.153
 9633POPC   C1A59079  30.696  15.204   6.453
 9633POPC   D2A59080  30.659  15.162   6.753
 9633POPC   C3A59081  30.670  15.195   7.053
 9633POPC   C4A59082  30.673  15.205   7.353
 9633POPC   C1B59083  30.782  15.008   6.453
 9633POPC   C2B59084  30.790  14.974   6.753
 9633POPC   C3B59085  30.801  14.979   7.053
 9633POPC   C4B59086  30.814  14.944   7.353
 9634POPC   NC359087  43.899  40.012   5.553
 9634POPC   PO459088  43.933  39.990   5.853
 9634POPC   GL159089  43.916  40.014   6.153
 9634POPC   GL259090  43.803  39.865   6.153
 9634POPC   C1A59091  43.914  40.055   6.453
 9634POPC   D2A59092  43.899  39.961   6.753
 9634POPC   C3A59093  43.888  40.057   7.053
 9634POPC   C4A59094  43.890  39.984   7.353
 9634POPC   C1B59095  43.849  39.722   6.453
 9634POPC   C2B59096  43.765  39.801   6.753
 9634POPC   C3B59097  43.800  39.748   7.053
 9634POPC   C4B59098  43.857  39.813   7.353
 9635POPC   NC359099  12.832  18.256   5.553
 9635POPC   PO459100  12.888  18.327   5.853
 9635POPC   GL159101  12.836  18.302   6.153
 9635POPC   GL259102  12.840  18.395   6.153
 9635POPC   C1A59103  12.886  18.268   6.453
 9635POPC   D2A59104  12.853  18.239   6.753
 9635POPC   C3A59105  12.854  18.293   7.053
 9635POPC   C4A59106  12.901  18.235   7.353
 9635POPC   C1B59107  12.872  18.493   6.453
 9635POPC   C2B59108  12.830  18.554   6.753
 9635POPC   C3B59109  12.865  18.551   7.053
 9635POPC   C4B59110  12.819  18.490   7.353
 9636POPC   NC359111  39.182  15.213   5.553
 9636POPC   PO459112  39.223  15.201   5.853
 9636POPC   GL159113  39.204  15.220   6.153
 9636POPC   GL259114  39.176  15.251   6.153
 9636POPC   C1A59115  39.206  15.201   6.453
 9636POPC   D2A59116  39.251  15.137   6.753
 9636POPC   C3A59117  39.249  15.137   7.053
 9636POPC   C4A59118  39.206  15.163   7.353
 9636POPC   C1B59119  39.137  15.392   6.453
 9636POPC   C2B59120  39.155  15.404   6.753
 9636POPC   C3B59121  39.163  15.409   7.053
 9636POPC   C4B59122  39.177  15.420   7.353
 9637POPC   NC359123  33.003  16.734   5.553
 9637POPC   PO459124  33.033  16.689   5.853
 9637POPC   GL159125  33.033  16.686   6.153
 9637POPC   GL259126  33.165  16.807   6.153
 9637POPC   C1A59127  33.052  16.774   6.453
 9637POPC   D2A59128  32.989  16.705   6.753
 9637POPC   C3A59129  32.985  16.731   7.053
 9637POPC   C4A59130  33.015  16.692   7.353
 9637POPC   C1B59131  33.260  16.849   6.453
 9637POPC   C2B59132  33.201  16.842   6.753
 9637POPC   C3B59133  33.255  16.910   7.053
 9637POPC   C4B59134  33.249  16.843   7.353
 9638POPC   NC359135  12.048  20.644   5.553
 9638POPC   PO459136  12.098  20.630   5.853
 9638POPC   GL159137  12.059  20.650   6.153
 9638POPC   GL259138  12.218  20.677   6.153
 9638POPC   C1A59139  12.079  20.618   6.453
 9638POPC   D2A59140  12.039  20.580   6.753
 9638POPC   C3A59141  12.117  20.563   7.053
 9638POPC   C4A59142  12.078  20.625   7.353
 9638POPC   C1B59143  12.295  20.732   6.453
 9638POPC   C2B59144  12.352  20.704   6.753
 9638POPC   C3B59145  12.320  20.698   7.053
 9638POPC   C4B59146  12.309  20.728   7.353
 9639POPC   NC359147  30.733  25.280   5.553
 9639POPC   PO459148  30.687  25.226   5.853
 9639POPC   GL159149  30.712  25.246   6.153
 9639POPC   GL259150  30.639  25.194   6.153
 9639POPC   C1A59151  30.720  25.239   6.453
 9639POPC   D2A59152  30.651  25.240   6.753
 9639POPC   C3A59153  30.656  25.231   7.053
 9639POPC   C4A59154  30.682  25.299   7.353
 9639POPC   C1B59155  30.529  25.152   6.453
 9639POPC   C2B59156  30.486  25.157   6.753
 9639POPC   C3B59157  30.533  25.128   7.053
 9639POPC   C4B59158  30.462  25.144   7.353
 9640POPC   NC359159  17.527  40.753   5.553
 9640POPC   PO459160  17.459  40.817   5.853
 9640POPC   GL159161  17.545  40.800   6.153
 9640POPC   GL259162  17.644  40.852   6.153
 9640POPC   C1A59163  17.554  40.740   6.453
 9640POPC   D2A59164  17.492  40.762   6.753
 9640POPC   C3A59165  17.473  40.775   7.053
 9640POPC   C4A59166  17.506  40.812   7.353
 9640POPC   C1B59167  17.703  40.911   6.453
 9640POPC   C2B59168  17.733  40.827   6.753
 9640POPC   C3B59169  17.784  40.920   7.053
 9640POPC   C4B59170  17.759  40.832   7.353
 9641POPC   NC359171  38.414   4.277   5.553
 9641POPC   PO459172  38.422   4.341   5.853
 9641POPC   GL159173  38.484   4.315   6.153
 9641POPC   GL259174  38.582   4.351   6.153
 9641POPC   C1A59175  38.456   4.341   6.453
 9641POPC   D2A59176  38.420   4.360   6.753
 9641POPC   C3A59177  38.455   4.267   7.053
 9641POPC   C4A59178  38.409   4.295   7.353
 9641POPC   C1B59179  38.738   4.366   6.453
 9641POPC   C2B59180  38.662   4.276   6.753
 9641POPC   C3B59181  38.735   4.357   7.053
 9641POPC   C4B59182  38.749   4.316   7.353
 9642POPC   NC359183  13.671  35.347   5.553
 9642POPC   PO459184  13.617  35.361   5.853
 9642POPC   GL159185  13.598  35.383   6.153
 9642POPC   GL259186  13.514  35.416   6.153
 9642POPC   C1A59187  13.608  35.332   6.453
 9642POPC   D2A59188  13.586  35.348   6.753
 9642POPC   C3A59189  13.639  35.325   7.053
 9642POPC   C4A59190  13.656  35.368   7.353
 9642POPC   C1B59191  13.419  35.409   6.453
 9642POPC   C2B59192  13.405  35.446   6.753
 9642POPC   C3B59193  13.334  35.412   7.053
 9642POPC   C4B59194  13.426  35.424   7.353
 9643POPC   NC359195   0.424  35.334   5.553
 9643POPC   PO459196   0.479  35.386   5.853
 9643POPC   GL159197   0.395  35.351   6.153
 9643POPC   GL259198   0.457  35.227   6.153
 9643POPC   C1A59199   0.393  35.364   6.453
 9643POPC   D2A59200   0.484  35.330   6.753
 9643POPC   C3A59201   0.444  35.378   7.053
 9643POPC   C4A59202   0.410  35.322   7.353
 9643POPC   C1B59203   0.402  35.055   6.453
 9643POPC   C2B59204   0.379  35.096   6.753
 9643POPC   C3B59205   0.388  35.055   7.053
 9643POPC   C4B59206   0.369  35.125   7.353
 9644POPC   NC359207  37.683  29.958   5.553
 9644POPC   PO459208  37.645  29.963   5.853
 9644POPC   GL159209  37.675  29.956   6.153
 9644POPC   GL259210  37.765  29.778   6.153
 9644POPC   C1A59211  37.689  29.957   6.453
 9644POPC   D2A59212  37.668  29.955   6.753
 9644POPC   C3A59213  37.631  29.918   7.053
 9644POPC   C4A59214  37.630  29.889   7.353
 9644POPC   C1B59215  37.828  29.703   6.453
 9644POPC   C2B59216  37.800  29.719   6.753
 9644POPC   C3B59217  37.889  29.703   7.053
 9644POPC   C4B59218  37.821  29.716   7.353
 9645POPC   NC359219  42.309  43.848   5.553
 9645POPC   PO459220  42.286  43.854   5.853
 9645POPC   GL159221  42.357  43.925   6.153
 9645POPC   GL259222  42.274  43.943   6.153
 9645POPC   C1A59223  42.384  43.859   6.453
 9645POPC   D2A59224  42.359  43.870   6.753
 9645POPC   C3A59225  42.308  43.909   7.053
 9645POPC   C4A59226  42.384  43.911   7.353
 9645POPC   C1B59227  42.144  44.054   6.453
 9645POPC   C2B59228  42.078  44.022   6.753
 9645POPC   C3B59229  42.118  44.005   7.053
 9645POPC   C4B59230  42.119  44.023   7.353
 9646POPC   NC359231   3.544  10.478   5.553
 9646POPC   PO459232   3.547  10.505   5.853
 9646POPC   GL159233   3.545  10.527   6.153
 9646POPC   GL259234   3.487  10.597   6.153
 9646POPC   C1A59235   3.568  10.546   6.453
 9646POPC   D2A59236   3.536  10.528   6.753
 9646POPC   C3A59237   3.538  10.499   7.053
 9646POPC   C4A59238   3.554  10.489   7.353
 9646POPC   C1B59239   3.370  10.705   6.453
 9646POPC   C2B59240   3.322  10.708   6.753
 9646POPC   C3B59241   3.310  10.719   7.053
 9646POPC   C4B59242   3.377  10.635   7.353
 9647POPC   NC359243  21.364  26.055   5.553
 9647POPC   PO459244  21.397  26.070   5.853
 9647POPC   GL159245  21.394  26.081   6.153
 9647POPC   GL259246  21.337  26.121   6.153
 9647POPC   C1A59247  21.418  26.062   6.453
 9647POPC   D2A59248  21.395  26.018   6.753
 9647POPC   C3A59249  21.435  26.022   7.053
 9647POPC   C4A59250  21.414  26.015   7.353
 9647POPC   C1B59251  21.227  26.193   6.453
 9647POPC   C2B59252  21.175  26.175   6.753
 9647POPC   C3B59253  21.254  26.181   7.053
 9647POPC   C4B59254  21.200  26.205   7.353
 9648POPC   NC359255  15.969  40.748   5.553
 9648POPC   PO459256  15.953  40.827   5.853
 9648POPC   GL159257  15.995  40.774   6.153
 9648POPC   GL259258  16.040  40.873   6.153
 9648POPC   C1A59259  15.943  40.777   6.453
 9648POPC   D2A59260  15.922  40.751   6.753
 9648POPC   C3A59261  15.908  40.799   7.053
 9648POPC   C4A59262  16.003  40.743   7.353
 9648POPC   C1B59263  16.210  40.857   6.453
 9648POPC   C2B59264  16.154  40.886   6.753
 9648POPC   C3B59265  16.186  40.916   7.053
 9648POPC   C4B59266  16.148  40.851   7.353
 9649POPC   NC359267  29.914  40.793   5.553
 9649POPC   PO459268  29.923  40.792   5.853
 9649POPC   GL159269  29.883  40.778   6.153
 9649POPC   GL259270  29.809  40.826   6.153
 9649POPC   C1A59271  29.882  40.781   6.453
 9649POPC   D2A59272  29.915  40.765   6.753
 9649POPC   C3A59273  29.958  40.785   7.053
 9649POPC   C4A59274  29.949  40.783   7.353
 9649POPC   C1B59275  29.724  40.902   6.453
 9649POPC   C2B59276  29.773  40.970   6.753
 9649POPC   C3B59277  29.712  40.913   7.053
 9649POPC   C4B59278  29.773  40.915   7.353
 9650POPC   NC359279   8.204  39.264   5.553
 9650POPC   PO459280   8.160  39.207   5.853
 9650POPC   GL159281   8.226  39.273   6.153
 9650POPC   GL259282   8.199  39.393   6.153
 9650POPC   C1A59283   8.147  39.254   6.453
 9650POPC   D2A59284   8.192  39.221   6.753
 9650POPC   C3A59285   8.163  39.222   7.053
 9650POPC   C4A59286   8.182  39.272   7.353
 9650POPC   C1B59287   8.244  39.463   6.453
 9650POPC   C2B59288   8.249  39.509   6.753
 9650POPC   C3B59289   8.229  39.483   7.053
 9650POPC   C4B59290   8.200  39.525   7.353
 9651POPC   NC359291  18.328   9.722   5.553
 9651POPC   PO459292  18.277   9.781   5.853
 9651POPC   GL159293  18.283   9.785   6.153
 9651POPC   GL259294  18.156   9.712   6.153
 9651POPC   C1A59295  18.296   9.752   6.453
 9651POPC   D2A59296  18.262   9.776   6.753
 9651POPC   C3A59297  18.251   9.748   7.053
 9651POPC   C4A59298  18.288   9.793   7.353
 9651POPC   C1B59299  18.081   9.636   6.453
 9651POPC   C2B59300  18.018   9.678   6.753
 9651POPC   C3B59301  18.035   9.644   7.053
 9651POPC   C4B59302  18.066   9.681   7.353
 9652POPC   NC359303   5.132   9.791   5.553
 9652POPC   PO459304   5.052   9.797   5.853
 9652POPC   GL159305   5.052   9.792   6.153
 9652POPC   GL259306   5.019   9.634   6.153
 9652POPC   C1A59307   5.095   9.779   6.453
 9652POPC   D2A59308   5.090   9.755   6.753
 9652POPC   C3A59309   5.124   9.751   7.053
 9652POPC   C4A59310   5.068   9.705   7.353
 9652POPC   C1B59311   5.001   9.501   6.453
 9652POPC   C2B59312   4.906   9.572   6.753
 9652POPC   C3B59313   4.980   9.529   7.053
 9652POPC   C4B59314   4.996   9.530   7.353
 9653POPC   NC359315  12.096  16.698   5.553
 9653POPC   PO459316  12.118  16.776   5.853
 9653POPC   GL159317  12.110  16.775   6.153
 9653POPC   GL259318  11.928  16.690   6.153
 9653POPC   C1A59319  12.124  16.734   6.453
 9653POPC   D2A59320  12.080  16.765   6.753
 9653POPC   C3A59321  12.083  16.714   7.053
 9653POPC   C4A59322  12.110  16.732   7.353
 9653POPC   C1B59323  11.860  16.646   6.453
 9653POPC   C2B59324  11.842  16.653   6.753
 9653POPC   C3B59325  11.864  16.560   7.053
 9653POPC   C4B59326  11.893  16.601   7.353
 9654POPC   NC359327  22.951   0.388   5.553
 9654POPC   PO459328  22.983   0.431   5.853
 9654POPC   GL159329  22.925   0.483   6.153
 9654POPC   GL259330  22.795   0.440   6.153
 9654POPC   C1A59331  22.899   0.412   6.453
 9654POPC   D2A59332  22.891   0.453   6.753
 9654POPC   C3A59333  22.920   0.394   7.053
 9654POPC   C4A59334  22.919   0.459   7.353
 9654POPC   C1B59335  22.718   0.460   6.453
 9654POPC   C2B59336  22.694   0.461   6.753
 9654POPC   C3B59337  22.671   0.502   7.053
 9654POPC   C4B59338  22.677   0.493   7.353
 9655POPC   NC359339  12.812  22.946   5.553
 9655POPC   PO459340  12.817  22.920   5.853
 9655POPC   GL159341  12.822  22.981   6.153
 9655POPC   GL259342  12.889  22.781   6.153
 9655POPC   C1A59343  12.883  22.966   6.453
 9655POPC   D2A59344  12.861  22.948   6.753
 9655POPC   C3A59345  12.886  22.970   7.053
 9655POPC   C4A59346  12.864  22.949   7.353
 9655POPC   C1B59347  12.844  22.700   6.453
 9655POPC   C2B59348  12.803  22.717   6.753
 9655POPC   C3B59349  12.882  22.697   7.053
 9655POPC   C4B59350  12.801  22.734   7.353
 9656POPC   NC359351   2.765  23.709   5.553
 9656POPC   PO459352   2.717  23.752   5.853
 9656POPC   GL159353   2.760  23.760   6.153
 9656POPC   GL259354   2.817  23.797   6.153
 9656POPC   C1A59355   2.783  23.715   6.453
 9656POPC   D2A59356   2.773  23.736   6.753
 9656POPC   C3A59357   2.748  23.737   7.053
 9656POPC   C4A59358   2.777  23.694   7.353
 9656POPC   C1B59359   2.832  23.924   6.453
 9656POPC   C2B59360   2.881  23.993   6.753
 9656POPC   C3B59361   2.863  23.932   7.053
 9656POPC   C4B59362   2.783  23.920   7.353
 9657POPC   NC359363   8.150  40.013   5.553
 9657POPC   PO459364   8.162  39.964   5.853
 9657POPC   GL159365   8.154  39.993   6.153
 9657POPC   GL259366   8.120  40.086   6.153
 9657POPC   C1A59367   8.194  39.966   6.453
 9657POPC   D2A59368   8.194  39.959   6.753
 9657POPC   C3A59369   8.183  40.047   7.053
 9657POPC   C4A59370   8.243  40.051   7.353
 9657POPC   C1B59371   7.971  40.096   6.453
 9657POPC   C2B59372   7.984  40.190   6.753
 9657POPC   C3B59373   7.941  40.117   7.053
 9657POPC   C4B59374   7.962  40.166   7.353
 9658POPC   NC359375   5.902  19.858   5.553
 9658POPC   PO459376   5.866  19.861   5.853
 9658POPC   GL159377   5.916  19.831   6.153
 9658POPC   GL259378   5.948  19.815   6.153
 9658POPC   C1A59379   5.905  19.833   6.453
 9658POPC   D2A59380   5.889  19.815   6.753
 9658POPC   C3A59381   5.850  19.849   7.053
 9658POPC   C4A59382   5.880  19.884   7.353
 9658POPC   C1B59383   6.126  19.802   6.453
 9658POPC   C2B59384   6.139  19.798   6.753
 9658POPC   C3B59385   6.130  19.754   7.053
 9658POPC   C4B59386   6.100  19.735   7.353
 9659POPC   NC359387  29.136   5.869   5.553
 9659POPC   PO459388  29.177   5.840   5.853
 9659POPC   GL159389  29.154   5.864   6.153
 9659POPC   GL259390  29.034   6.020   6.153
 9659POPC   C1A59391  29.144   5.881   6.453
 9659POPC   D2A59392  29.155   5.889   6.753
 9659POPC   C3A59393  29.152   5.908   7.053
 9659POPC   C4A59394  29.109   5.897   7.353
 9659POPC   C1B59395  29.033   6.022   6.453
 9659POPC   C2B59396  28.955   6.051   6.753
 9659POPC   C3B59397  28.957   6.100   7.053
 9659POPC   C4B59398  29.025   6.084   7.353
 9660POPC   NC359399   3.587  43.929   5.553
 9660POPC   PO459400   3.507  43.841   5.853
 9660POPC   GL159401   3.580  43.851   6.153
 9660POPC   GL259402   3.606  43.800   6.153
 9660POPC   C1A59403   3.494  43.911   6.453
 9660POPC   D2A59404   3.496  43.844   6.753
 9660POPC   C3A59405   3.543  43.865   7.053
 9660POPC   C4A59406   3.521  43.885   7.353
 9660POPC   C1B59407   3.704  43.634   6.453
 9660POPC   C2B59408   3.684  43.721   6.753
 9660POPC   C3B59409   3.659  43.682   7.053
 9660POPC   C4B59410   3.661  43.647   7.353
 9661POPC   NC359411   2.718  10.499   5.553
 9661POPC   PO459412   2.749  10.532   5.853
 9661POPC   GL159413   2.804  10.525   6.153
 9661POPC   GL259414   2.725  10.650   6.153
 9661POPC   C1A59415   2.760  10.521   6.453
 9661POPC   D2A59416   2.718  10.521   6.753
 9661POPC   C3A59417   2.782  10.488   7.053
 9661POPC   C4A59418   2.776  10.530   7.353
 9661POPC   C1B59419   2.654  10.751   6.453
 9661POPC   C2B59420   2.604  10.793   6.753
 9661POPC   C3B59421   2.677  10.733   7.053
 9661POPC   C4B59422   2.626  10.783   7.353
 9662POPC   NC359423  17.516  39.193   5.553
 9662POPC   PO459424  17.467  39.267   5.853
 9662POPC   GL159425  17.534  39.233   6.153
 9662POPC   GL259426  17.601  39.178   6.153
 9662POPC   C1A59427  17.502  39.238   6.453
 9662POPC   D2A59428  17.550  39.196   6.753
 9662POPC   C3A59429  17.494  39.217   7.053
 9662POPC   C4A59430  17.532  39.194   7.353
 9662POPC   C1B59431  17.703  39.122   6.453
 9662POPC   C2B59432  17.738  39.134   6.753
 9662POPC   C3B59433  17.769  39.146   7.053
 9662POPC   C4B59434  17.741  39.114   7.353
 9663POPC   NC359435  40.777  41.588   5.553
 9663POPC   PO459436  40.742  41.563   5.853
 9663POPC   GL159437  40.742  41.607   6.153
 9663POPC   GL259438  40.641  41.621   6.153
 9663POPC   C1A59439  40.831  41.529   6.453
 9663POPC   D2A59440  40.785  41.531   6.753
 9663POPC   C3A59441  40.738  41.529   7.053
 9663POPC   C4A59442  40.762  41.567   7.353
 9663POPC   C1B59443  40.626  41.736   6.453
 9663POPC   C2B59444  40.537  41.665   6.753
 9663POPC   C3B59445  40.541  41.706   7.053
 9663POPC   C4B59446  40.627  41.694   7.353
 9664POPC   NC359447  12.059  35.338   5.553
 9664POPC   PO459448  12.054  35.396   5.853
 9664POPC   GL159449  12.081  35.385   6.153
 9664POPC   GL259450  11.908  35.363   6.153
 9664POPC   C1A59451  12.074  35.335   6.453
 9664POPC   D2A59452  12.052  35.374   6.753
 9664POPC   C3A59453  12.064  35.374   7.053
 9664POPC   C4A59454  12.056  35.327   7.353
 9664POPC   C1B59455  11.808  35.284   6.453
 9664POPC   C2B59456  11.785  35.346   6.753
 9664POPC   C3B59457  11.850  35.310   7.053
 9664POPC   C4B59458  11.781  35.363   7.353
 9665POPC   NC359459  11.338  35.374   5.553
 9665POPC   PO459460  11.261  35.319   5.853
 9665POPC   GL159461  11.265  35.387   6.153
 9665POPC   GL259462  11.154  35.298   6.153
 9665POPC   C1A59463  11.301  35.341   6.453
 9665POPC   D2A59464  11.281  35.393   6.753
 9665POPC   C3A59465  11.264  35.342   7.053
 9665POPC   C4A59466  11.280  35.382   7.353
 9665POPC   C1B59467  11.069  35.171   6.453
 9665POPC   C2B59468  11.146  35.213   6.753
 9665POPC   C3B59469  11.120  35.220   7.053
 9665POPC   C4B59470  11.145  35.213   7.353
 9666POPC   NC359471  41.557  38.436   5.553
 9666POPC   PO459472  41.551  38.412   5.853
 9666POPC   GL159473  41.585  38.408   6.153
 9666POPC   GL259474  41.693  38.450   6.153
 9666POPC   C1A59475  41.608  38.417   6.453
 9666POPC   D2A59476  41.599  38.436   6.753
 9666POPC   C3A59477  41.559  38.435   7.053
 9666POPC   C4A59478  41.553  38.432   7.353
 9666POPC   C1B59479  41.764  38.489   6.453
 9666POPC   C2B59480  41.766  38.457   6.753
 9666POPC   C3B59481  41.827  38.529   7.053
 9666POPC   C4B59482  41.776  38.480   7.353
 9667POPC   NC359483  23.689  40.775   5.553
 9667POPC   PO459484  23.696  40.802   5.853
 9667POPC   GL159485  23.727  40.809   6.153
 9667POPC   GL259486  23.731  40.890   6.153
 9667POPC   C1A59487  23.679  40.783   6.453
 9667POPC   D2A59488  23.763  40.791   6.753
 9667POPC   C3A59489  23.668  40.779   7.053
 9667POPC   C4A59490  23.720  40.831   7.353
 9667POPC   C1B59491  23.767  41.005   6.453
 9667POPC   C2B59492  23.818  41.036   6.753
 9667POPC   C3B59493  23.748  41.036   7.053
 9667POPC   C4B59494  23.747  41.050   7.353
 9668POPC   NC359495  41.572  25.248   5.553
 9668POPC   PO459496  41.543  25.285   5.853
 9668POPC   GL159497  41.568  25.253   6.153
 9668POPC   GL259498  41.531  25.436   6.153
 9668POPC   C1A59499  41.560  25.279   6.453
 9668POPC   D2A59500  41.515  25.315   6.753
 9668POPC   C3A59501  41.561  25.284   7.053
 9668POPC   C4A59502  41.524  25.300   7.353
 9668POPC   C1B59503  41.612  25.465   6.453
 9668POPC   C2B59504  41.583  25.517   6.753
 9668POPC   C3B59505  41.620  25.482   7.053
 9668POPC   C4B59506  41.612  25.530   7.353
 9669POPC   NC359507   9.745  43.850   5.553
 9669POPC   PO459508   9.725  43.897   5.853
 9669POPC   GL159509   9.745  43.854   6.153
 9669POPC   GL259510   9.877  43.985   6.153
 9669POPC   C1A59511   9.736  43.868   6.453
 9669POPC   D2A59512   9.714  43.850   6.753
 9669POPC   C3A59513   9.748  43.919   7.053
 9669POPC   C4A59514   9.709  43.843   7.353
 9669POPC   C1B59515   9.872  44.081   6.453
 9669POPC   C2B59516   9.931  44.091   6.753
 9669POPC   C3B59517   9.888  44.091   7.053
 9669POPC   C4B59518   9.871  44.085   7.353
 9670POPC   NC359519  39.199  36.902   5.553
 9670POPC   PO459520  39.274  36.940   5.853
 9670POPC   GL159521  39.251  36.880   6.153
 9670POPC   GL259522  39.141  36.936   6.153
 9670POPC   C1A59523  39.269  36.881   6.453
 9670POPC   D2A59524  39.247  36.922   6.753
 9670POPC   C3A59525  39.221  36.938   7.053
 9670POPC   C4A59526  39.216  36.948   7.353
 9670POPC   C1B59527  39.006  36.918   6.453
 9670POPC   C2B59528  38.971  36.905   6.753
 9670POPC   C3B59529  38.960  36.881   7.053
 9670POPC   C4B59530  38.990  36.969   7.353
 9671POPC   NC359531   5.131  18.263   5.553
 9671POPC   PO459532   5.099  18.239   5.853
 9671POPC   GL159533   5.085  18.302   6.153
 9671POPC   GL259534   5.090  18.196   6.153
 9671POPC   C1A59535   5.135  18.257   6.453
 9671POPC   D2A59536   5.091  18.282   6.753
 9671POPC   C3A59537   5.130  18.261   7.053
 9671POPC   C4A59538   5.100  18.318   7.353
 9671POPC   C1B59539   4.951  18.100   6.453
 9671POPC   C2B59540   4.952  18.029   6.753
 9671POPC   C3B59541   4.965  18.026   7.053
 9671POPC   C4B59542   4.947  18.072   7.353
 9672POPC   NC359543   1.251   1.996   5.553
 9672POPC   PO459544   1.237   1.978   5.853
 9672POPC   GL159545   1.259   2.015   6.153
 9672POPC   GL259546   1.128   1.946   6.153
 9672POPC   C1A59547   1.255   1.974   6.453
 9672POPC   D2A59548   1.220   1.991   6.753
 9672POPC   C3A59549   1.223   1.994   7.053
 9672POPC   C4A59550   1.245   1.945   7.353
 9672POPC   C1B59551   0.993   1.893   6.453
 9672POPC   C2B59552   0.941   1.920   6.753
 9672POPC   C3B59553   1.031   1.921   7.053
 9672POPC   C4B59554   0.964   1.938   7.353
 9673POPC   NC359555   1.985  22.947   5.553
 9673POPC   PO459556   2.024  22.895   5.853
 9673POPC   GL159557   1.980  22.965   6.153
 9673POPC   GL259558   2.014  22.823   6.153
 9673POPC   C1A59559   1.979  22.940   6.453
 9673POPC   D2A59560   2.035  22.903   6.753
 9673POPC   C3A59561   2.038  22.937   7.053
 9673POPC   C4A59562   1.962  22.985   7.353
 9673POPC   C1B59563   1.955  22.674   6.453
 9673POPC   C2B59564   2.000  22.705   6.753
 9673POPC   C3B59565   1.935  22.698   7.053
 9673POPC   C4B59566   1.965  22.733   7.353
 9674POPC   NC359567  40.760  14.422   5.553
 9674POPC   PO459568  40.735  14.442   5.853
 9674POPC   GL159569  40.831  14.366   6.153
 9674POPC   GL259570  40.668  14.404   6.153
 9674POPC   C1A59571  40.800  14.402   6.453
 9674POPC   D2A59572  40.801  14.402   6.753
 9674POPC   C3A59573  40.814  14.364   7.053
 9674POPC   C4A59574  40.786  14.410   7.353
 9674POPC   C1B59575  40.582  14.295   6.453
 9674POPC   C2B59576  40.597  14.350   6.753
 9674POPC   C3B59577  40.575  14.332   7.053
 9674POPC   C4B59578  40.552  14.286   7.353
 9675POPC   NC359579  24.481   0.470   5.553
 9675POPC   PO459580  24.538   0.414   5.853
 9675POPC   GL159581  24.492   0.429   6.153
 9675POPC   GL259582  24.589   0.492   6.153
 9675POPC   C1A59583  24.468   0.421   6.453
 9675POPC   D2A59584  24.486   0.469   6.753
 9675POPC   C3A59585  24.463   0.423   7.053
 9675POPC   C4A59586  24.508   0.414   7.353
 9675POPC   C1B59587  24.683   0.513   6.453
 9675POPC   C2B59588  24.732   0.520   6.753
 9675POPC   C3B59589  24.738   0.509   7.053
 9675POPC   C4B59590  24.710   0.508   7.353
 9676POPC   NC359591  37.643  11.326   5.553
 9676POPC   PO459592  37.654  11.349   5.853
 9676POPC   GL159593  37.670  11.293   6.153
 9676POPC   GL259594  37.648  11.440   6.153
 9676POPC   C1A59595  37.658  11.329   6.453
 9676POPC   D2A59596  37.666  11.307   6.753
 9676POPC   C3A59597  37.666  11.254   7.053
 9676POPC   C4A59598  37.671  11.313   7.353
 9676POPC   C1B59599  37.612  11.501   6.453
 9676POPC   C2B59600  37.636  11.504   6.753
 9676POPC   C3B59601  37.674  11.506   7.053
 9676POPC   C4B59602  37.650  11.556   7.353
 9677POPC   NC359603  12.868  20.653   5.553
 9677POPC   PO459604  12.882  20.600   5.853
 9677POPC   GL159605  12.885  20.591   6.153
 9677POPC   GL259606  12.776  20.677   6.153
 9677POPC   C1A59607  12.900  20.604   6.453
 9677POPC   D2A59608  12.870  20.609   6.753
 9677POPC   C3A59609  12.829  20.608   7.053
 9677POPC   C4A59610  12.867  20.592   7.353
 9677POPC   C1B59611  12.604  20.744   6.453
 9677POPC   C2B59612  12.654  20.713   6.753
 9677POPC   C3B59613  12.604  20.730   7.053
 9677POPC   C4B59614  12.658  20.734   7.353
 9678POPC   NC359615  22.962   7.463   5.553
 9678POPC   PO459616  22.964   7.416   5.853
 9678POPC   GL159617  22.951   7.413   6.153
 9678POPC   GL259618  22.921   7.508   6.153
 9678POPC   C1A59619  22.930   7.464   6.453
 9678POPC   D2A59620  22.925   7.426   6.753
 9678POPC   C3A59621  22.958   7.382   7.053
 9678POPC   C4A59622  22.913   7.454   7.353
 9678POPC   C1B59623  22.801   7.652   6.453
 9678POPC   C2B59624  22.793   7.673   6.753
 9678POPC   C3B59625  22.825   7.667   7.053
 9678POPC   C4B59626  22.789   7.614   7.353
 9679POPC   NC359627  24.453  34.546   5.553
 9679POPC   PO459628  24.508  34.560   5.853
 9679POPC   GL159629  24.452  34.579   6.153
 9679POPC   GL259630  24.587  34.726   6.153
 9679POPC   C1A59631  24.463  34.539   6.453
 9679POPC   D2A59632  24.468  34.591   6.753
 9679POPC   C3A59633  24.463  34.610   7.053
 9679POPC   C4A59634  24.486  34.530   7.353
 9679POPC   C1B59635  24.622  34.795   6.453
 9679POPC   C2B59636  24.631  34.801   6.753
 9679POPC   C3B59637  24.566  34.804   7.053
 9679POPC   C4B59638  24.649  34.749   7.353
 9680POPC   NC359639  16.777   8.228   5.553
 9680POPC   PO459640  16.734   8.211   5.853
 9680POPC   GL159641  16.706   8.238   6.153
 9680POPC   GL259642  16.591   8.216   6.153
 9680POPC   C1A59643  16.738   8.199   6.453
 9680POPC   D2A59644  16.772   8.204   6.753
 9680POPC   C3A59645  16.699   8.172   7.053
 9680POPC   C4A59646  16.748   8.217   7.353
 9680POPC   C1B59647  16.493   8.305   6.453
 9680POPC   C2B59648  16.442   8.246   6.753
 9680POPC   C3B59649  16.454   8.313   7.053
 9680POPC   C4B59650  16.533   8.227   7.353
 9681POPC   NC359651  35.370  17.502   5.553
 9681POPC   PO459652  35.395  17.529   5.853
 9681POPC   GL159653  35.366  17.516   6.153
 9681POPC   GL259654  35.333  17.379   6.153
 9681POPC   C1A59655  35.302  17.519   6.453
 9681POPC   D2A59656  35.384  17.509   6.753
 9681POPC   C3A59657  35.383  17.527   7.053
 9681POPC   C4A59658  35.337  17.504   7.353
 9681POPC   C1B59659  35.204  17.281   6.453
 9681POPC   C2B59660  35.203  17.232   6.753
 9681POPC   C3B59661  35.246  17.243   7.053
 9681POPC   C4B59662  35.211  17.256   7.353
 9682POPC   NC359663  26.842   8.216   5.553
 9682POPC   PO459664  26.790   8.222   5.853
 9682POPC   GL159665  26.864   8.148   6.153
 9682POPC   GL259666  26.769   8.083   6.153
 9682POPC   C1A59667  26.784   8.191   6.453
 9682POPC   D2A59668  26.834   8.244   6.753
 9682POPC   C3A59669  26.831   8.238   7.053
 9682POPC   C4A59670  26.835   8.186   7.353
 9682POPC   C1B59671  26.716   7.974   6.453
 9682POPC   C2B59672  26.761   7.915   6.753
 9682POPC   C3B59673  26.767   7.920   7.053
 9682POPC   C4B59674  26.712   7.974   7.353
 9683POPC   NC359675  10.524  29.110   5.553
 9683POPC   PO459676  10.560  29.109   5.853
 9683POPC   GL159677  10.485  29.114   6.153
 9683POPC   GL259678  10.578  28.988   6.153
 9683POPC   C1A59679  10.494  29.168   6.453
 9683POPC   D2A59680  10.492  29.176   6.753
 9683POPC   C3A59681  10.505  29.113   7.053
 9683POPC   C4A59682  10.547  29.166   7.353
 9683POPC   C1B59683  10.632  28.883   6.453
 9683POPC   C2B59684  10.579  28.949   6.753
 9683POPC   C3B59685  10.553  28.902   7.053
 9683POPC   C4B59686  10.639  28.889   7.353
 9684POPC   NC359687  16.000  19.071   5.553
 9684POPC   PO459688  15.934  19.072   5.853
 9684POPC   GL159689  15.961  19.099   6.153
 9684POPC   GL259690  15.981  19.142   6.153
 9684POPC   C1A59691  15.943  19.047   6.453
 9684POPC   D2A59692  15.996  19.060   6.753
 9684POPC   C3A59693  15.962  19.098   7.053
 9684POPC   C4A59694  15.913  19.019   7.353
 9684POPC   C1B59695  16.060  19.282   6.453
 9684POPC   C2B59696  16.077  19.276   6.753
 9684POPC   C3B59697  16.068  19.271   7.053
 9684POPC   C4B59698  16.134  19.249   7.353
 9685POPC   NC359699  18.263  29.927   5.553
 9685POPC   PO459700  18.268  29.952   5.853
 9685POPC   GL159701  18.287  29.940   6.153
 9685POPC   GL259702  18.326  30.082   6.153
 9685POPC   C1A59703  18.309  29.950   6.453
 9685POPC   D2A59704  18.301  29.896   6.753
 9685POPC   C3A59705  18.298  29.967   7.053
 9685POPC   C4A59706  18.246  29.918   7.353
 9685POPC   C1B59707  18.311  30.200   6.453
 9685POPC   C2B59708  18.314  30.164   6.753
 9685POPC   C3B59709  18.280  30.136   7.053
 9685POPC   C4B59710  18.266  30.155   7.353
 9686POPC   NC359711  27.640  22.913   5.553
 9686POPC   PO459712  27.638  22.933   5.853
 9686POPC   GL159713  27.557  22.893   6.153
 9686POPC   GL259714  27.536  22.855   6.153
 9686POPC   C1A59715  27.585  22.892   6.453
 9686POPC   D2A59716  27.613  22.941   6.753
 9686POPC   C3A59717  27.588  22.954   7.053
 9686POPC   C4A59718  27.607  22.893   7.353
 9686POPC   C1B59719  27.520  22.722   6.453
 9686POPC   C2B59720  27.567  22.651   6.753
 9686POPC   C3B59721  27.560  22.699   7.053
 9686POPC   C4B59722  27.546  22.647   7.353
 9687POPC   NC359723  15.138  43.145   5.553
 9687POPC   PO459724  15.213  43.136   5.853
 9687POPC   GL159725  15.158  43.143   6.153
 9687POPC   GL259726  15.113  43.199   6.153
 9687POPC   C1A59727  15.167  43.106   6.453
 9687POPC   D2A59728  15.137  43.100   6.753
 9687POPC   C3A59729  15.206  43.143   7.053
 9687POPC   C4A59730  15.139  43.148   7.353
 9687POPC   C1B59731  15.104  43.362   6.453
 9687POPC   C2B59732  15.019  43.339   6.753
 9687POPC   C3B59733  15.042  43.284   7.053
 9687POPC   C4B59734  15.090  43.306   7.353
 9688POPC   NC359735  31.447  35.382   5.553
 9688POPC   PO459736  31.460  35.349   5.853
 9688POPC   GL159737  31.473  35.355   6.153
 9688POPC   GL259738  31.380  35.281   6.153
 9688POPC   C1A59739  31.521  35.400   6.453
 9688POPC   D2A59740  31.457  35.344   6.753
 9688POPC   C3A59741  31.474  35.360   7.053
 9688POPC   C4A59742  31.504  35.323   7.353
 9688POPC   C1B59743  31.357  35.179   6.453
 9688POPC   C2B59744  31.290  35.104   6.753
 9688POPC   C3B59745  31.376  35.111   7.053
 9688POPC   C4B59746  31.327  35.126   7.353
 9689POPC   NC359747  26.850   0.416   5.553
 9689POPC   PO459748  26.802   0.461   5.853
 9689POPC   GL159749  26.830   0.445   6.153
 9689POPC   GL259750  26.731   0.542   6.153
 9689POPC   C1A59751  26.824   0.422   6.453
 9689POPC   D2A59752  26.828   0.479   6.753
 9689POPC   C3A59753  26.787   0.396   7.053
 9689POPC   C4A59754  26.790   0.425   7.353
 9689POPC   C1B59755  26.673   0.691   6.453
 9689POPC   C2B59756  26.639   0.665   6.753
 9689POPC   C3B59757  26.733   0.691   7.053
 9689POPC   C4B59758  26.727   0.621   7.353
 9690POPC   NC359759  16.720   6.629   5.553
 9690POPC   PO459760  16.736   6.640   5.853
 9690POPC   GL159761  16.775   6.688   6.153
 9690POPC   GL259762  16.702   6.566   6.153
 9690POPC   C1A59763  16.739   6.654   6.453
 9690POPC   D2A59764  16.763   6.601   6.753
 9690POPC   C3A59765  16.758   6.645   7.053
 9690POPC   C4A59766  16.765   6.662   7.353
 9690POPC   C1B59767  16.792   6.355   6.453
 9690POPC   C2B59768  16.758   6.360   6.753
 9690POPC   C3B59769  16.788   6.395   7.053
 9690POPC   C4B59770  16.729   6.395   7.353
 9691POPC   NC359771   5.905  39.246   5.553
 9691POPC   PO459772   5.885  39.252   5.853
 9691POPC   GL159773   5.857  39.208   6.153
 9691POPC   GL259774   5.922  39.117   6.153
 9691POPC   C1A59775   5.898  39.241   6.453
 9691POPC   D2A59776   5.851  39.196   6.753
 9691POPC   C3A59777   5.865  39.221   7.053
 9691POPC   C4A59778   5.879  39.245   7.353
 9691POPC   C1B59779   5.932  39.015   6.453
 9691POPC   C2B59780   5.920  38.965   6.753
 9691POPC   C3B59781   5.889  38.940   7.053
 9691POPC   C4B59782   5.877  38.968   7.353
 9692POPC   NC359783   9.791   4.344   5.553
 9692POPC   PO459784   9.731   4.327   5.853
 9692POPC   GL159785   9.738   4.278   6.153
 9692POPC   GL259786   9.820   4.397   6.153
 9692POPC   C1A59787   9.722   4.271   6.453
 9692POPC   D2A59788   9.766   4.325   6.753
 9692POPC   C3A59789   9.772   4.297   7.053
 9692POPC   C4A59790   9.701   4.311   7.353
 9692POPC   C1B59791   9.946   4.428   6.453
 9692POPC   C2B59792   9.984   4.390   6.753
 9692POPC   C3B59793   9.986   4.445   7.053
 9692POPC   C4B59794   9.951   4.362   7.353
 9693POPC   NC359795   5.899  26.791   5.553
 9693POPC   PO459796   5.837  26.787   5.853
 9693POPC   GL159797   5.905  26.769   6.153
 9693POPC   GL259798   5.726  26.736   6.153
 9693POPC   C1A59799   5.899  26.818   6.453
 9693POPC   D2A59800   5.913  26.776   6.753
 9693POPC   C3A59801   5.846  26.813   7.053
 9693POPC   C4A59802   5.883  26.789   7.353
 9693POPC   C1B59803   5.643  26.744   6.453
 9693POPC   C2B59804   5.594  26.783   6.753
 9693POPC   C3B59805   5.607  26.777   7.053
 9693POPC   C4B59806   5.604  26.705   7.353
 9694POPC   NC359807  15.192   5.904   5.553
 9694POPC   PO459808  15.186   5.843   5.853
 9694POPC   GL159809  15.189   5.913   6.153
 9694POPC   GL259810  15.119   5.917   6.153
 9694POPC   C1A59811  15.198   5.824   6.453
 9694POPC   D2A59812  15.175   5.918   6.753
 9694POPC   C3A59813  15.160   5.883   7.053
 9694POPC   C4A59814  15.203   5.889   7.353
 9694POPC   C1B59815  15.000   6.049   6.453
 9694POPC   C2B59816  14.974   6.067   6.753
 9694POPC   C3B59817  14.943   6.071   7.053
 9694POPC   C4B59818  14.995   6.043   7.353
 9695POPC   NC359819  30.669   4.352   5.553
 9695POPC   PO459820  30.736   4.315   5.853
 9695POPC   GL159821  30.725   4.277   6.153
 9695POPC   GL259822  30.686   4.152   6.153
 9695POPC   C1A59823  30.671   4.322   6.453
 9695POPC   D2A59824  30.716   4.290   6.753
 9695POPC   C3A59825  30.671   4.349   7.053
 9695POPC   C4A59826  30.702   4.294   7.353
 9695POPC   C1B59827  30.561   4.079   6.453
 9695POPC   C2B59828  30.631   4.057   6.753
 9695POPC   C3B59829  30.598   4.060   7.053
 9695POPC   C4B59830  30.598   4.063   7.353
 9696POPC   NC359831   9.756   8.201   5.553
 9696POPC   PO459832   9.701   8.211   5.853
 9696POPC   GL159833   9.729   8.224   6.153
 9696POPC   GL259834   9.664   8.297   6.153
 9696POPC   C1A59835   9.715   8.178   6.453
 9696POPC   D2A59836   9.727   8.191   6.753
 9696POPC   C3A59837   9.736   8.170   7.053
 9696POPC   C4A59838   9.776   8.206   7.353
 9696POPC   C1B59839   9.592   8.342   6.453
 9696POPC   C2B59840   9.561   8.334   6.753
 9696POPC   C3B59841   9.571   8.367   7.053
 9696POPC   C4B59842   9.608   8.388   7.353
 9697POPC   NC359843  15.968  36.952   5.553
 9697POPC   PO459844  16.000  36.933   5.853
 9697POPC   GL159845  15.947  36.874   6.153
 9697POPC   GL259846  16.069  36.959   6.153
 9697POPC   C1A59847  16.004  36.929   6.453
 9697POPC   D2A59848  15.961  36.895   6.753
 9697POPC   C3A59849  15.969  36.886   7.053
 9697POPC   C4A59850  15.932  36.938   7.353
 9697POPC   C1B59851  16.199  36.909   6.453
 9697POPC   C2B59852  16.164  36.968   6.753
 9697POPC   C3B59853  16.223  36.897   7.053
 9697POPC   C4B59854  16.183  36.968   7.353
 9698POPC   NC359855  13.580   8.950   5.553
 9698POPC   PO459856  13.641   8.982   5.853
 9698POPC   GL159857  13.635   9.020   6.153
 9698POPC   GL259858  13.677   8.880   6.153
 9698POPC   C1A59859  13.643   8.956   6.453
 9698POPC   D2A59860  13.634   8.988   6.753
 9698POPC   C3A59861  13.627   8.995   7.053
 9698POPC   C4A59862  13.587   8.941   7.353
 9698POPC   C1B59863  13.697   8.715   6.453
 9698POPC   C2B59864  13.672   8.711   6.753
 9698POPC   C3B59865  13.737   8.708   7.053
 9698POPC   C4B59866  13.687   8.703   7.353
 9699POPC   NC359867  23.696  44.665   5.553
 9699POPC   PO459868  23.750  44.664   5.853
 9699POPC   GL159869  23.730  44.654   6.153
 9699POPC   GL259870  23.721  44.522   6.153
 9699POPC   C1A59871  23.694  44.657   6.453
 9699POPC   D2A59872  23.697  44.625   6.753
 9699POPC   C3A59873  23.691  44.675   7.053
 9699POPC   C4A59874  23.711  44.619   7.353
 9699POPC   C1B59875  23.700  44.385   6.453
 9699POPC   C2B59876  23.740  44.438   6.753
 9699POPC   C3B59877  23.733  44.416   7.053
 9699POPC   C4B59878  23.659  44.398   7.353
 9700POPC   NC359879  29.123  25.302   5.553
 9700POPC   PO459880  29.140  25.282   5.853
 9700POPC   GL159881  29.163  25.295   6.153
 9700POPC   GL259882  29.209  25.350   6.153
 9700POPC   C1A59883  29.157  25.226   6.453
 9700POPC   D2A59884  29.099  25.312   6.753
 9700POPC   C3A59885  29.122  25.270   7.053
 9700POPC   C4A59886  29.179  25.242   7.353
 9700POPC   C1B59887  29.371  25.462   6.453
 9700POPC   C2B59888  29.365  25.479   6.753
 9700POPC   C3B59889  29.361  25.487   7.053
 9700POPC   C4B59890  29.336  25.436   7.353
 9701POPC   NC359891   4.273  26.044   5.553
 9701POPC   PO459892   4.299  26.003   5.853
 9701POPC   GL159893   4.334  26.067   6.153
 9701POPC   GL259894   4.229  26.033   6.153
 9701POPC   C1A59895   4.293  25.996   6.453
 9701POPC   D2A59896   4.276  26.001   6.753
 9701POPC   C3A59897   4.349  26.083   7.053
 9701POPC   C4A59898   4.346  26.033   7.353
 9701POPC   C1B59899   4.094  25.965   6.453
 9701POPC   C2B59900   4.099  25.906   6.753
 9701POPC   C3B59901   4.133  25.975   7.053
 9701POPC   C4B59902   4.103  25.949   7.353
 9702POPC   NC359903   2.009   6.683   5.553
 9702POPC   PO459904   1.982   6.619   5.853
 9702POPC   GL159905   1.987   6.601   6.153
 9702POPC   GL259906   1.828   6.701   6.153
 9702POPC   C1A59907   2.032   6.598   6.453
 9702POPC   D2A59908   1.994   6.674   6.753
 9702POPC   C3A59909   1.984   6.612   7.053
 9702POPC   C4A59910   2.006   6.602   7.353
 9702POPC   C1B59911   1.774   6.688   6.453
 9702POPC   C2B59912   1.739   6.710   6.753
 9702POPC   C3B59913   1.768   6.682   7.053
 9702POPC   C4B59914   1.772   6.682   7.353
 9703POPC   NC359915   9.014  34.580   5.553
 9703POPC   PO459916   9.015  34.593   5.853
 9703POPC   GL159917   9.004  34.565   6.153
 9703POPC   GL259918   9.118  34.508   6.153
 9703POPC   C1A59919   9.021  34.577   6.453
 9703POPC   D2A59920   8.951  34.531   6.753
 9703POPC   C3A59921   8.929  34.593   7.053
 9703POPC   C4A59922   8.948  34.609   7.353
 9703POPC   C1B59923   9.175  34.537   6.453
 9703POPC   C2B59924   9.193  34.479   6.753
 9703POPC   C3B59925   9.199  34.526   7.053
 9703POPC   C4B59926   9.208  34.527   7.353
 9704POPC   NC359927  24.459  19.075   5.553
 9704POPC   PO459928  24.476  19.081   5.853
 9704POPC   GL159929  24.538  19.055   6.153
 9704POPC   GL259930  24.441  18.991   6.153
 9704POPC   C1A59931  24.533  19.075   6.453
 9704POPC   D2A59932  24.447  19.030   6.753
 9704POPC   C3A59933  24.460  19.090   7.053
 9704POPC   C4A59934  24.495  19.066   7.353
 9704POPC   C1B59935  24.344  18.893   6.453
 9704POPC   C2B59936  24.270  18.871   6.753
 9704POPC   C3B59937  24.322  18.854   7.053
 9704POPC   C4B59938  24.334  18.922   7.353
 9705POPC   NC359939  14.432  21.430   5.553
 9705POPC   PO459940  14.366  21.364   5.853
 9705POPC   GL159941  14.444  21.420   6.153
 9705POPC   GL259942  14.529  21.394   6.153
 9705POPC   C1A59943  14.375  21.346   6.453
 9705POPC   D2A59944  14.444  21.431   6.753
 9705POPC   C3A59945  14.355  21.427   7.053
 9705POPC   C4A59946  14.431  21.387   7.353
 9705POPC   C1B59947  14.618  21.415   6.453
 9705POPC   C2B59948  14.688  21.456   6.753
 9705POPC   C3B59949  14.616  21.423   7.053
 9705POPC   C4B59950  14.668  21.479   7.353
 9706POPC   NC359951  22.985  11.312   5.553
 9706POPC   PO459952  22.895  11.313   5.853
 9706POPC   GL159953  22.891  11.317   6.153
 9706POPC   GL259954  22.895  11.139   6.153
 9706POPC   C1A59955  22.974  11.329   6.453
 9706POPC   D2A59956  22.987  11.324   6.753
 9706POPC   C3A59957  22.966  11.280   7.053
 9706POPC   C4A59958  22.961  11.258   7.353
 9706POPC   C1B59959  22.859  11.089   6.453
 9706POPC   C2B59960  22.885  11.043   6.753
 9706POPC   C3B59961  22.849  11.070   7.053
 9706POPC   C4B59962  22.918  11.061   7.353
 9707POPC   NC359963  12.036  38.491   5.553
 9707POPC   PO459964  12.058  38.445   5.853
 9707POPC   GL159965  12.113  38.430   6.153
 9707POPC   GL259966  12.116  38.586   6.153
 9707POPC   C1A59967  12.041  38.436   6.453
 9707POPC   D2A59968  12.073  38.489   6.753
 9707POPC   C3A59969  12.096  38.412   7.053
 9707POPC   C4A59970  12.057  38.426   7.353
 9707POPC   C1B59971  12.204  38.670   6.453
 9707POPC   C2B59972  12.149  38.713   6.753
 9707POPC   C3B59973  12.139  38.674   7.053
 9707POPC   C4B59974  12.191  38.661   7.353
 9708POPC   NC359975  32.995  25.228   5.553
 9708POPC   PO459976  32.991  25.269   5.853
 9708POPC   GL159977  32.994  25.280   6.153
 9708POPC   GL259978  33.079  25.165   6.153
 9708POPC   C1A59979  33.051  25.300   6.453
 9708POPC   D2A59980  32.976  25.307   6.753
 9708POPC   C3A59981  32.994  25.264   7.053
 9708POPC   C4A59982  33.021  25.232   7.353
 9708POPC   C1B59983  33.209  25.052   6.453
 9708POPC   C2B59984  33.197  25.068   6.753
 9708POPC   C3B59985  33.221  25.096   7.053
 9708POPC   C4B59986  33.195  25.122   7.353
 9709POPC   NC359987   5.878  37.673   5.553
 9709POPC   PO459988   5.899  37.705   5.853
 9709POPC   GL159989   5.833  37.696   6.153
 9709POPC   GL259990   5.765  37.811   6.153
 9709POPC   C1A59991   5.870  37.729   6.453
 9709POPC   D2A59992   5.824  37.662   6.753
 9709POPC   C3A59993   5.889  37.630   7.053
 9709POPC   C4A59994   5.870  37.700   7.353
 9709POPC   C1B59995   5.745  37.914   6.453
 9709POPC   C2B59996   5.717  37.903   6.753
 9709POPC   C3B59997   5.686  37.896   7.053
 9709POPC   C4B59998   5.670  37.839   7.353
 9710POPC   NC359999  11.291  39.225   5.553
 9710POPC   PO460000  11.283  39.203   5.853
 9710POPC   GL160001  11.324  39.216   6.153
 9710POPC   GL260002  11.199  39.118   6.153
 9710POPC   C1A60003  11.310  39.240   6.453
 9710POPC   D2A60004  11.296  39.223   6.753
 9710POPC   C3A60005  11.307  39.262   7.053
 9710POPC   C4A60006  11.345  39.278   7.353
 9710POPC   C1B60007  11.148  39.021   6.453
 9710POPC   C2B60008  11.146  39.080   6.753
 9710POPC   C3B60009  11.132  39.060   7.053
 9710POPC   C4B60010  11.105  39.107   7.353
 9711POPC   NC360011  17.513  43.137   5.553
 9711POPC   PO460012  17.459  43.145   5.853
 9711POPC   GL160013  17.543  43.069   6.153
 9711POPC   GL260014  17.433  43.045   6.153
 9711POPC   C1A60015  17.471  43.061   6.453
 9711POPC   D2A60016  17.506  43.158   6.753
 9711POPC   C3A60017  17.539  43.137   7.053
 9711POPC   C4A60018  17.533  43.138   7.353
 9711POPC   C1B60019  17.309  43.013   6.453
 9711POPC   C2B60020  17.247  43.024   6.753
 9711POPC   C3B60021  17.318  43.048   7.053
 9711POPC   C4B60022  17.318  42.987   7.353
 9712POPC   NC360023  39.203  33.784   5.553
 9712POPC   PO460024  39.183  33.815   5.853
 9712POPC   GL160025  39.194  33.843   6.153
 9712POPC   GL260026  39.184  33.654   6.153
 9712POPC   C1A60027  39.258  33.825   6.453
 9712POPC   D2A60028  39.198  33.782   6.753
 9712POPC   C3A60029  39.205  33.758   7.053
 9712POPC   C4A60030  39.258  33.805   7.353
 9712POPC   C1B60031  39.259  33.538   6.453
 9712POPC   C2B60032  39.208  33.597   6.753
 9712POPC   C3B60033  39.265  33.504   7.053
 9712POPC   C4B60034  39.268  33.566   7.353
 9713POPC   NC360035  38.496  17.554   5.553
 9713POPC   PO460036  38.461  17.493   5.853
 9713POPC   GL160037  38.428  17.549   6.153
 9713POPC   GL260038  38.577  17.389   6.153
 9713POPC   C1A60039  38.468  17.489   6.453
 9713POPC   D2A60040  38.460  17.547   6.753
 9713POPC   C3A60041  38.444  17.540   7.053
 9713POPC   C4A60042  38.488  17.547   7.353
 9713POPC   C1B60043  38.652  17.356   6.453
 9713POPC   C2B60044  38.639  17.345   6.753
 9713POPC   C3B60045  38.676  17.388   7.053
 9713POPC   C4B60046  38.672  17.362   7.353
 9714POPC   NC360047  11.295  25.247   5.553
 9714POPC   PO460048  11.302  25.270   5.853
 9714POPC   GL160049  11.323  25.232   6.153
 9714POPC   GL260050  11.406  25.237   6.153
 9714POPC   C1A60051  11.284  25.308   6.453
 9714POPC   D2A60052  11.264  25.276   6.753
 9714POPC   C3A60053  11.288  25.259   7.053
 9714POPC   C4A60054  11.300  25.284   7.353
 9714POPC   C1B60055  11.512  25.276   6.453
 9714POPC   C2B60056  11.563  25.211   6.753
 9714POPC   C3B60057  11.575  25.281   7.053
 9714POPC   C4B60058  11.517  25.262   7.353
 9715POPC   NC360059   5.121  35.393   5.553
 9715POPC   PO460060   5.118  35.356   5.853
 9715POPC   GL160061   5.060  35.399   6.153
 9715POPC   GL260062   5.218  35.313   6.153
 9715POPC   C1A60063   5.135  35.307   6.453
 9715POPC   D2A60064   5.075  35.340   6.753
 9715POPC   C3A60065   5.105  35.373   7.053
 9715POPC   C4A60066   5.052  35.348   7.353
 9715POPC   C1B60067   5.285  35.181   6.453
 9715POPC   C2B60068   5.314  35.191   6.753
 9715POPC   C3B60069   5.252  35.211   7.053
 9715POPC   C4B60070   5.263  35.223   7.353
 9716POPC   NC360071  29.905  33.822   5.553
 9716POPC   PO460072  29.918  33.831   5.853
 9716POPC   GL160073  29.966  33.787   6.153
 9716POPC   GL260074  29.980  33.972   6.153
 9716POPC   C1A60075  29.912  33.838   6.453
 9716POPC   D2A60076  29.963  33.781   6.753
 9716POPC   C3A60077  29.898  33.808   7.053
 9716POPC   C4A60078  29.938  33.796   7.353
 9716POPC   C1B60079  29.924  34.062   6.453
 9716POPC   C2B60080  29.969  34.053   6.753
 9716POPC   C3B60081  29.976  34.032   7.053
 9716POPC   C4B60082  30.014  34.062   7.353
 9717POPC   NC360083  44.694  10.552   5.553
 9717POPC   PO460084  44.634  10.494   5.853
 9717POPC   GL160085  44.672  10.507   6.153
 9717POPC   GL260086  44.526  10.435   6.153
 9717POPC   C1A60087  44.680  10.537   6.453
 9717POPC   D2A60088  44.655  10.518   6.753
 9717POPC   C3A60089  44.623  10.489   7.053
 9717POPC   C4A60090  44.653  10.487   7.353
 9717POPC   C1B60091  44.459  10.349   6.453
 9717POPC   C2B60092  44.524  10.373   6.753
 9717POPC   C3B60093  44.485  10.316   7.053
 9717POPC   C4B60094  44.444  10.323   7.353
 9718POPC   NC360095  43.134   2.756   5.553
 9718POPC   PO460096  43.130   2.813   5.853
 9718POPC   GL160097  43.104   2.727   6.153
 9718POPC   GL260098  43.191   2.794   6.153
 9718POPC   C1A60099  43.066   2.814   6.453
 9718POPC   D2A60100  43.130   2.815   6.753
 9718POPC   C3A60101  43.087   2.738   7.053
 9718POPC   C4A60102  43.124   2.732   7.353
 9718POPC   C1B60103  43.347   2.808   6.453
 9718POPC   C2B60104  43.372   2.807   6.753
 9718POPC   C3B60105  43.317   2.785   7.053
 9718POPC   C4B60106  43.389   2.805   7.353
 9719POPC   NC360107  36.933  18.319   5.553
 9719POPC   PO460108  36.880  18.321   5.853
 9719POPC   GL160109  36.892  18.320   6.153
 9719POPC   GL260110  37.032  18.311   6.153
 9719POPC   C1A60111  36.949  18.312   6.453
 9719POPC   D2A60112  36.943  18.262   6.753
 9719POPC   C3A60113  36.949  18.247   7.053
 9719POPC   C4A60114  36.874  18.257   7.353
 9719POPC   C1B60115  37.166  18.308   6.453
 9719POPC   C2B60116  37.117  18.241   6.753
 9719POPC   C3B60117  37.161  18.292   7.053
 9719POPC   C4B60118  37.138  18.290   7.353
 9720POPC   NC360119   7.440  21.401   5.553
 9720POPC   PO460120   7.407  21.382   5.853
 9720POPC   GL160121   7.391  21.373   6.153
 9720POPC   GL260122   7.274  21.496   6.153
 9720POPC   C1A60123   7.387  21.416   6.453
 9720POPC   D2A60124   7.438  21.425   6.753
 9720POPC   C3A60125   7.466  21.361   7.053
 9720POPC   C4A60126   7.394  21.422   7.353
 9720POPC   C1B60127   7.250  21.536   6.453
 9720POPC   C2B60128   7.234  21.501   6.753
 9720POPC   C3B60129   7.225  21.516   7.053
 9720POPC   C4B60130   7.249  21.536   7.353
 9721POPC   NC360131  41.607  19.029   5.553
 9721POPC   PO460132  41.600  19.089   5.853
 9721POPC   GL160133  41.558  19.066   6.153
 9721POPC   GL260134  41.681  19.015   6.153
 9721POPC   C1A60135  41.526  19.072   6.453
 9721POPC   D2A60136  41.514  19.074   6.753
 9721POPC   C3A60137  41.593  19.052   7.053
 9721POPC   C4A60138  41.532  19.085   7.353
 9721POPC   C1B60139  41.834  18.997   6.453
 9721POPC   C2B60140  41.823  18.927   6.753
 9721POPC   C3B60141  41.754  18.995   7.053
 9721POPC   C4B60142  41.801  18.945   7.353
 9722POPC   NC360143  36.100   9.737   5.553
 9722POPC   PO460144  36.106   9.708   5.853
 9722POPC   GL160145  36.145   9.737   6.153
 9722POPC   GL260146  36.008   9.847   6.153
 9722POPC   C1A60147  36.162   9.751   6.453
 9722POPC   D2A60148  36.164   9.773   6.753
 9722POPC   C3A60149  36.085   9.744   7.053
 9722POPC   C4A60150  36.177   9.704   7.353
 9722POPC   C1B60151  35.870   9.860   6.453
 9722POPC   C2B60152  35.916   9.876   6.753
 9722POPC   C3B60153  35.868   9.903   7.053
 9722POPC   C4B60154  35.870   9.862   7.353
 9723POPC   NC360155  12.869  24.532   5.553
 9723POPC   PO460156  12.898  24.447   5.853
 9723POPC   GL160157  12.820  24.446   6.153
 9723POPC   GL260158  12.923  24.646   6.153
 9723POPC   C1A60159  12.842  24.471   6.453
 9723POPC   D2A60160  12.881  24.441   6.753
 9723POPC   C3A60161  12.878  24.537   7.053
 9723POPC   C4A60162  12.817  24.520   7.353
 9723POPC   C1B60163  12.980  24.701   6.453
 9723POPC   C2B60164  12.933  24.729   6.753
 9723POPC   C3B60165  12.970  24.696   7.053
 9723POPC   C4B60166  12.963  24.720   7.353
 9724POPC   NC360167   1.988  38.483   5.553
 9724POPC   PO460168   1.979  38.490   5.853
 9724POPC   GL160169   1.948  38.442   6.153
 9724POPC   GL260170   1.878  38.346   6.153
 9724POPC   C1A60171   1.992  38.494   6.453
 9724POPC   D2A60172   2.004  38.485   6.753
 9724POPC   C3A60173   2.029  38.427   7.053
 9724POPC   C4A60174   2.006  38.406   7.353
 9724POPC   C1B60175   1.777  38.346   6.453
 9724POPC   C2B60176   1.759  38.384   6.753
 9724POPC   C3B60177   1.793  38.322   7.053
 9724POPC   C4B60178   1.742  38.376   7.353
 9725POPC   NC360179  29.890   3.535   5.553
 9725POPC   PO460180  29.873   3.516   5.853
 9725POPC   GL160181  29.898   3.498   6.153
 9725POPC   GL260182  29.964   3.620   6.153
 9725POPC   C1A60183  29.931   3.534   6.453
 9725POPC   D2A60184  29.953   3.508   6.753
 9725POPC   C3A60185  29.902   3.569   7.053
 9725POPC   C4A60186  29.892   3.497   7.353
 9725POPC   C1B60187  29.956   3.782   6.453
 9725POPC   C2B60188  29.991   3.743   6.753
 9725POPC   C3B60189  29.931   3.752   7.053
 9725POPC   C4B60190  29.987   3.762   7.353
 9726POPC   NC360191  15.981   3.570   5.553
 9726POPC   PO460192  15.965   3.550   5.853
 9726POPC   GL160193  15.965   3.555   6.153
 9726POPC   GL260194  15.891   3.465   6.153
 9726POPC   C1A60195  15.993   3.512   6.453
 9726POPC   D2A60196  16.004   3.494   6.753
 9726POPC   C3A60197  15.964   3.550   7.053
 9726POPC   C4A60198  15.934   3.573   7.353
 9726POPC   C1B60199  15.723   3.400   6.453
 9726POPC   C2B60200  15.742   3.406   6.753
 9726POPC   C3B60201  15.736   3.348   7.053
 9726POPC   C4B60202  15.774   3.438   7.353
 9727POPC   NC360203  41.600  14.365   5.553
 9727POPC   PO460204  41.575  14.413   5.853
 9727POPC   GL160205  41.514  14.435   6.153
 9727POPC   GL260206  41.716  14.409   6.153
 9727POPC   C1A60207  41.565  14.418   6.453
 9727POPC   D2A60208  41.553  14.389   6.753
 9727POPC   C3A60209  41.581  14.453   7.053
 9727POPC   C4A60210  41.563  14.429   7.353
 9727POPC   C1B60211  41.798  14.376   6.453
 9727POPC   C2B60212  41.846  14.385   6.753
 9727POPC   C3B60213  41.756  14.403   7.053
 9727POPC   C4B60214  41.785  14.410   7.353
 9728POPC   NC360215  30.656  43.125   5.553
 9728POPC   PO460216  30.658  43.111   5.853
 9728POPC   GL160217  30.712  43.124   6.153
 9728POPC   GL260218  30.597  43.163   6.153
 9728POPC   C1A60219  30.673  43.135   6.453
 9728POPC   D2A60220  30.712  43.118   6.753
 9728POPC   C3A60221  30.733  43.082   7.053
 9728POPC   C4A60222  30.709  43.156   7.353
 9728POPC   C1B60223  30.424  43.200   6.453
 9728POPC   C2B60224  30.497  43.125   6.753
 9728POPC   C3B60225  30.452  43.150   7.053
 9728POPC   C4B60226  30.404  43.177   7.353
 9729POPC   NC360227   8.968   4.277   5.553
 9729POPC   PO460228   8.938   4.341   5.853
 9729POPC   GL160229   8.955   4.359   6.153
 9729POPC   GL260230   8.951   4.211   6.153
 9729POPC   C1A60231   8.969   4.351   6.453
 9729POPC   D2A60232   8.966   4.308   6.753
 9729POPC   C3A60233   8.997   4.364   7.053
 9729POPC   C4A60234   8.961   4.273   7.353
 9729POPC   C1B60235   8.993   4.085   6.453
 9729POPC   C2B60236   8.959   4.116   6.753
 9729POPC   C3B60237   8.984   4.053   7.053
 9729POPC   C4B60238   8.945   4.109   7.353
 9730POPC   NC360239  28.378  14.451   5.553
 9730POPC   PO460240  28.360  14.389   5.853
 9730POPC   GL160241  28.331  14.439   6.153
 9730POPC   GL260242  28.441  14.333   6.153
 9730POPC   C1A60243  28.360  14.435   6.453
 9730POPC   D2A60244  28.375  14.407   6.753
 9730POPC   C3A60245  28.375  14.394   7.053
 9730POPC   C4A60246  28.351  14.391   7.353
 9730POPC   C1B60247  28.636  14.331   6.453
 9730POPC   C2B60248  28.598  14.331   6.753
 9730POPC   C3B60249  28.620  14.315   7.053
 9730POPC   C4B60250  28.558  14.334   7.353
 9731POPC   NC360251  16.768  27.595   5.553
 9731POPC   PO460252  16.767  27.603   5.853
 9731POPC   GL160253  16.774  27.586   6.153
 9731POPC   GL260254  16.584  27.664   6.153
 9731POPC   C1A60255  16.719  27.567   6.453
 9731POPC   D2A60256  16.756  27.642   6.753
 9731POPC   C3A60257  16.762  27.556   7.053
 9731POPC   C4A60258  16.756  27.581   7.353
 9731POPC   C1B60259  16.459  27.697   6.453
 9731POPC   C2B60260  16.453  27.711   6.753
 9731POPC   C3B60261  16.540  27.644   7.053
 9731POPC   C4B60262  16.459  27.707   7.353
 9732POPC   NC360263   7.400  29.104   5.553
 9732POPC   PO460264   7.403  29.132   5.853
 9732POPC   GL160265   7.396  29.187   6.153
 9732POPC   GL260266   7.326  29.169   6.153
 9732POPC   C1A60267   7.418  29.128   6.453
 9732POPC   D2A60268   7.402  29.166   6.753
 9732POPC   C3A60269   7.417  29.107   7.053
 9732POPC   C4A60270   7.400  29.156   7.353
 9732POPC   C1B60271   7.216  29.226   6.453
 9732POPC   C2B60272   7.191  29.199   6.753
 9732POPC   C3B60273   7.216  29.239   7.053
 9732POPC   C4B60274   7.154  29.272   7.353
 9733POPC   NC360275  19.816  17.466   5.553
 9733POPC   PO460276  19.882  17.525   5.853
 9733POPC   GL160277  19.812  17.542   6.153
 9733POPC   GL260278  19.683  17.509   6.153
 9733POPC   C1A60279  19.793  17.508   6.453
 9733POPC   D2A60280  19.798  17.549   6.753
 9733POPC   C3A60281  19.832  17.518   7.053
 9733POPC   C4A60282  19.810  17.457   7.353
 9733POPC   C1B60283  19.552  17.552   6.453
 9733POPC   C2B60284  19.545  17.599   6.753
 9733POPC   C3B60285  19.541  17.582   7.053
 9733POPC   C4B60286  19.625  17.568   7.353
 9734POPC   NC360287  22.187  38.411   5.553
 9734POPC   PO460288  22.143  38.478   5.853
 9734POPC   GL160289  22.179  38.447   6.153
 9734POPC   GL260290  22.237  38.339   6.153
 9734POPC   C1A60291  22.195  38.457   6.453
 9734POPC   D2A60292  22.189  38.457   6.753
 9734POPC   C3A60293  22.139  38.496   7.053
 9734POPC   C4A60294  22.201  38.479   7.353
 9734POPC   C1B60295  22.359  38.300   6.453
 9734POPC   C2B60296  22.368  38.290   6.753
 9734POPC   C3B60297  22.302  38.245   7.053
 9734POPC   C4B60298  22.320  38.242   7.353
 9735POPC   NC360299  13.639  43.145   5.553
 9735POPC   PO460300  13.594  43.064   5.853
 9735POPC   GL160301  13.607  43.067   6.153
 9735POPC   GL260302  13.531  43.062   6.153
 9735POPC   C1A60303  13.627  43.095   6.453
 9735POPC   D2A60304  13.662  43.071   6.753
 9735POPC   C3A60305  13.637  43.122   7.053
 9735POPC   C4A60306  13.583  43.065   7.353
 9735POPC   C1B60307  13.366  43.074   6.453
 9735POPC   C2B60308  13.411  43.047   6.753
 9735POPC   C3B60309  13.386  43.048   7.053
 9735POPC   C4B60310  13.391  43.050   7.353
 9736POPC   NC360311  18.329   5.851   5.553
 9736POPC   PO460312  18.301   5.858   5.853
 9736POPC   GL160313  18.251   5.891   6.153
 9736POPC   GL260314  18.381   5.831   6.153
 9736POPC   C1A60315  18.310   5.889   6.453
 9736POPC   D2A60316  18.291   5.873   6.753
 9736POPC   C3A60317  18.303   5.887   7.053
 9736POPC   C4A60318  18.329   5.821   7.353
 9736POPC   C1B60319  18.523   5.789   6.453
 9736POPC   C2B60320  18.463   5.780   6.753
 9736POPC   C3B60321  18.528   5.786   7.053
 9736POPC   C4B60322  18.489   5.772   7.353
 9737POPC   NC360323  12.065  42.373   5.553
 9737POPC   PO460324  12.069  42.348   5.853
 9737POPC   GL160325  12.093  42.349   6.153
 9737POPC   GL260326  11.996  42.201   6.153
 9737POPC   C1A60327  12.081  42.344   6.453
 9737POPC   D2A60328  12.050  42.351   6.753
 9737POPC   C3A60329  12.065  42.326   7.053
 9737POPC   C4A60330  12.048  42.383   7.353
 9737POPC   C1B60331  11.928  42.143   6.453
 9737POPC   C2B60332  11.868  42.182   6.753
 9737POPC   C3B60333  11.880  42.136   7.053
 9737POPC   C4B60334  11.914  42.162   7.353
 9738POPC   NC360335   8.207  33.073   5.553
 9738POPC   PO460336   8.237  33.059   5.853
 9738POPC   GL160337   8.232  32.996   6.153
 9738POPC   GL260338   8.215  32.937   6.153
 9738POPC   C1A60339   8.149  33.017   6.453
 9738POPC   D2A60340   8.207  33.074   6.753
 9738POPC   C3A60341   8.196  33.034   7.053
 9738POPC   C4A60342   8.233  33.068   7.353
 9738POPC   C1B60343   8.175  32.785   6.453
 9738POPC   C2B60344   8.247  32.774   6.753
 9738POPC   C3B60345   8.220  32.748   7.053
 9738POPC   C4B60346   8.267  32.749   7.353
 9739POPC   NC360347  36.854  21.370   5.553
 9739POPC   PO460348  36.953  21.345   5.853
 9739POPC   GL160349  36.949  21.349   6.153
 9739POPC   GL260350  36.919  21.504   6.153
 9739POPC   C1A60351  36.937  21.431   6.453
 9739POPC   D2A60352  36.942  21.343   6.753
 9739POPC   C3A60353  36.925  21.382   7.053
 9739POPC   C4A60354  36.914  21.408   7.353
 9739POPC   C1B60355  36.938  21.589   6.453
 9739POPC   C2B60356  36.968  21.605   6.753
 9739POPC   C3B60357  36.933  21.600   7.053
 9739POPC   C4B60358  36.935  21.663   7.353
 9740POPC   NC360359  35.385   3.557   5.553
 9740POPC   PO460360  35.392   3.572   5.853
 9740POPC   GL160361  35.398   3.496   6.153
 9740POPC   GL260362  35.393   3.632   6.153
 9740POPC   C1A60363  35.375   3.527   6.453
 9740POPC   D2A60364  35.368   3.513   6.753
 9740POPC   C3A60365  35.390   3.561   7.053
 9740POPC   C4A60366  35.302   3.538   7.353
 9740POPC   C1B60367  35.355   3.820   6.453
 9740POPC   C2B60368  35.393   3.792   6.753
 9740POPC   C3B60369  35.425   3.836   7.053
 9740POPC   C4B60370  35.394   3.815   7.353
 9741POPC   NC360371  10.568  15.160   5.553
 9741POPC   PO460372  10.530  15.168   5.853
 9741POPC   GL160373  10.550  15.134   6.153
 9741POPC   GL260374  10.612  15.289   6.153
 9741POPC   C1A60375  10.519  15.150   6.453
 9741POPC   D2A60376  10.521  15.216   6.753
 9741POPC   C3A60377  10.568  15.228   7.053
 9741POPC   C4A60378  10.539  15.152   7.353
 9741POPC   C1B60379  10.720  15.338   6.453
 9741POPC   C2B60380  10.784  15.288   6.753
 9741POPC   C3B60381  10.690  15.358   7.053
 9741POPC   C4B60382  10.778  15.286   7.353
 9742POPC   NC360383  43.882  22.962   5.553
 9742POPC   PO460384  43.862  22.974   5.853
 9742POPC   GL160385  43.908  22.899   6.153
 9742POPC   GL260386  43.924  23.068   6.153
 9742POPC   C1A60387  43.839  22.913   6.453
 9742POPC   D2A60388  43.882  22.985   6.753
 9742POPC   C3A60389  43.863  22.923   7.053
 9742POPC   C4A60390  43.907  22.902   7.353
 9742POPC   C1B60391  44.024  23.166   6.453
 9742POPC   C2B60392  44.080  23.155   6.753
 9742POPC   C3B60393  44.042  23.081   7.053
 9742POPC   C4B60394  44.084  23.136   7.353
 9743POPC   NC360395  22.120  16.717   5.553
 9743POPC   PO460396  22.182  16.776   5.853
 9743POPC   GL160397  22.136  16.742   6.153
 9743POPC   GL260398  22.268  16.850   6.153
 9743POPC   C1A60399  22.117  16.773   6.453
 9743POPC   D2A60400  22.146  16.764   6.753
 9743POPC   C3A60401  22.151  16.705   7.053
 9743POPC   C4A60402  22.144  16.721   7.353
 9743POPC   C1B60403  22.407  16.850   6.453
 9743POPC   C2B60404  22.348  16.845   6.753
 9743POPC   C3B60405  22.382  16.894   7.053
 9743POPC   C4B60406  22.361  16.874   7.353
 9744POPC   NC360407  36.864  31.509   5.553
 9744POPC   PO460408  36.863  31.431   5.853
 9744POPC   GL160409  36.930  31.513   6.153
 9744POPC   GL260410  36.836  31.356   6.153
 9744POPC   C1A60411  36.912  31.486   6.453
 9744POPC   D2A60412  36.879  31.502   6.753
 9744POPC   C3A60413  36.945  31.470   7.053
 9744POPC   C4A60414  36.901  31.450   7.353
 9744POPC   C1B60415  36.733  31.287   6.453
 9744POPC   C2B60416  36.755  31.281   6.753
 9744POPC   C3B60417  36.758  31.275   7.053
 9744POPC   C4B60418  36.752  31.286   7.353
 9745POPC   NC360419  13.675   8.185   5.553
 9745POPC   PO460420  13.666   8.220   5.853
 9745POPC   GL160421  13.658   8.196   6.153
 9745POPC   GL260422  13.657   8.280   6.153
 9745POPC   C1A60423  13.611   8.223   6.453
 9745POPC   D2A60424  13.595   8.178   6.753
 9745POPC   C3A60425  13.651   8.234   7.053
 9745POPC   C4A60426  13.671   8.189   7.353
 9745POPC   C1B60427  13.726   8.367   6.453
 9745POPC   C2B60428  13.775   8.376   6.753
 9745POPC   C3B60429  13.799   8.417   7.053
 9745POPC   C4B60430  13.784   8.420   7.353
 9746POPC   NC360431  38.431  43.102   5.553
 9746POPC   PO460432  38.475  43.078   5.853
 9746POPC   GL160433  38.488  43.159   6.153
 9746POPC   GL260434  38.341  43.111   6.153
 9746POPC   C1A60435  38.463  43.137   6.453
 9746POPC   D2A60436  38.466  43.090   6.753
 9746POPC   C3A60437  38.479  43.086   7.053
 9746POPC   C4A60438  38.470  43.123   7.353
 9746POPC   C1B60439  38.189  43.143   6.453
 9746POPC   C2B60440  38.254  43.170   6.753
 9746POPC   C3B60441  38.195  43.146   7.053
 9746POPC   C4B60442  38.163  43.189   7.353
 9747POPC   NC360443  27.560  15.991   5.553
 9747POPC   PO460444  27.551  15.956   5.853
 9747POPC   GL160445  27.605  15.976   6.153
 9747POPC   GL260446  27.708  15.888   6.153
 9747POPC   C1A60447  27.559  15.941   6.453
 9747POPC   D2A60448  27.601  15.952   6.753
 9747POPC   C3A60449  27.558  15.933   7.053
 9747POPC   C4A60450  27.582  15.986   7.353
 9747POPC   C1B60451  27.797  15.770   6.453
 9747POPC   C2B60452  27.760  15.753   6.753
 9747POPC   C3B60453  27.792  15.759   7.053
 9747POPC   C4B60454  27.771  15.795   7.353
 9748POPC   NC360455   9.734  32.992   5.553
 9748POPC   PO460456   9.722  33.000   5.853
 9748POPC   GL160457   9.741  33.061   6.153
 9748POPC   GL260458   9.678  33.106   6.153
 9748POPC   C1A60459   9.771  33.067   6.453
 9748POPC   D2A60460   9.716  32.976   6.753
 9748POPC   C3A60461   9.700  33.048   7.053
 9748POPC   C4A60462   9.707  32.984   7.353
 9748POPC   C1B60463   9.543  33.117   6.453
 9748POPC   C2B60464   9.502  33.119   6.753
 9748POPC   C3B60465   9.570  33.142   7.053
 9748POPC   C4B60466   9.540  33.125   7.353
 9749POPC   NC360467   1.975  11.272   5.553
 9749POPC   PO460468   2.023  11.266   5.853
 9749POPC   GL160469   2.009  11.261   6.153
 9749POPC   GL260470   1.917  11.435   6.153
 9749POPC   C1A60471   1.973  11.283   6.453
 9749POPC   D2A60472   1.973  11.282   6.753
 9749POPC   C3A60473   2.030  11.321   7.053
 9749POPC   C4A60474   1.943  11.322   7.353
 9749POPC   C1B60475   1.815  11.484   6.453
 9749POPC   C2B60476   1.796  11.515   6.753
 9749POPC   C3B60477   1.814  11.461   7.053
 9749POPC   C4B60478   1.841  11.464   7.353
 9750POPC   NC360479  21.422  14.395   5.553
 9750POPC   PO460480  21.370  14.356   5.853
 9750POPC   GL160481  21.427  14.366   6.153
 9750POPC   GL260482  21.442  14.458   6.153
 9750POPC   C1A60483  21.376  14.444   6.453
 9750POPC   D2A60484  21.385  14.438   6.753
 9750POPC   C3A60485  21.355  14.418   7.053
 9750POPC   C4A60486  21.337  14.442   7.353
 9750POPC   C1B60487  21.591  14.567   6.453
 9750POPC   C2B60488  21.520  14.628   6.753
 9750POPC   C3B60489  21.516  14.610   7.053
 9750POPC   C4B60490  21.514  14.626   7.353
 9751POPC   NC360491  16.719   5.075   5.553
 9751POPC   PO460492  16.745   5.050   5.853
 9751POPC   GL160493  16.709   5.102   6.153
 9751POPC   GL260494  16.652   5.122   6.153
 9751POPC   C1A60495  16.693   5.070   6.453
 9751POPC   D2A60496  16.744   5.118   6.753
 9751POPC   C3A60497  16.712   5.130   7.053
 9751POPC   C4A60498  16.706   5.100   7.353
 9751POPC   C1B60499  16.439   5.165   6.453
 9751POPC   C2B60500  16.530   5.110   6.753
 9751POPC   C3B60501  16.512   5.116   7.053
 9751POPC   C4B60502  16.520   5.158   7.353
 9752POPC   NC360503  10.541   3.527   5.553
 9752POPC   PO460504  10.573   3.548   5.853
 9752POPC   GL160505  10.482   3.501   6.153
 9752POPC   GL260506  10.564   3.690   6.153
 9752POPC   C1A60507  10.492   3.577   6.453
 9752POPC   D2A60508  10.541   3.573   6.753
 9752POPC   C3A60509  10.494   3.501   7.053
 9752POPC   C4A60510  10.509   3.560   7.353
 9752POPC   C1B60511  10.658   3.753   6.453
 9752POPC   C2B60512  10.605   3.770   6.753
 9752POPC   C3B60513  10.672   3.716   7.053
 9752POPC   C4B60514  10.687   3.784   7.353
 9753POPC   NC360515  19.863  29.130   5.553
 9753POPC   PO460516  19.793  29.173   5.853
 9753POPC   GL160517  19.793  29.126   6.153
 9753POPC   GL260518  19.740  29.188   6.153
 9753POPC   C1A60519  19.877  29.153   6.453
 9753POPC   D2A60520  19.832  29.119   6.753
 9753POPC   C3A60521  19.868  29.136   7.053
 9753POPC   C4A60522  19.795  29.187   7.353
 9753POPC   C1B60523  19.599  29.288   6.453
 9753POPC   C2B60524  19.651  29.312   6.753
 9753POPC   C3B60525  19.591  29.272   7.053
 9753POPC   C4B60526  19.585  29.233   7.353
 9754POPC   NC360527  15.157  17.499   5.553
 9754POPC   PO460528  15.175  17.469   5.853
 9754POPC   GL160529  15.212  17.545   6.153
 9754POPC   GL260530  15.072  17.487   6.153
 9754POPC   C1A60531  15.204  17.539   6.453
 9754POPC   D2A60532  15.227  17.539   6.753
 9754POPC   C3A60533  15.147  17.546   7.053
 9754POPC   C4A60534  15.224  17.499   7.353
 9754POPC   C1B60535  14.973  17.444   6.453
 9754POPC   C2B60536  14.961  17.386   6.753
 9754POPC   C3B60537  14.920  17.384   7.053
 9754POPC   C4B60538  14.934  17.442   7.353
 9755POPC   NC360539  18.241  32.236   5.553
 9755POPC   PO460540  18.300  32.294   5.853
 9755POPC   GL160541  18.291  32.297   6.153
 9755POPC   GL260542  18.174  32.267   6.153
 9755POPC   C1A60543  18.245  32.226   6.453
 9755POPC   D2A60544  18.241  32.294   6.753
 9755POPC   C3A60545  18.246  32.292   7.053
 9755POPC   C4A60546  18.315  32.291   7.353
 9755POPC   C1B60547  18.031  32.221   6.453
 9755POPC   C2B60548  18.077  32.283   6.753
 9755POPC   C3B60549  18.042  32.266   7.053
 9755POPC   C4B60550  18.078  32.205   7.353
 9756POPC   NC360551   8.994  17.554   5.553
 9756POPC   PO460552   8.931  17.458   5.853
 9756POPC   GL160553   8.925  17.493   6.153
 9756POPC   GL260554   9.058  17.567   6.153
 9756POPC   C1A60555   8.938  17.463   6.453
 9756POPC   D2A60556   8.935  17.520   6.753
 9756POPC   C3A60557   8.926  17.554   7.053
 9756POPC   C4A60558   8.988  17.528   7.353
 9756POPC   C1B60559   9.203  17.684   6.453
 9756POPC   C2B60560   9.121  17.715   6.753
 9756POPC   C3B60561   9.152  17.719   7.053
 9756POPC   C4B60562   9.109  17.665   7.353
 9757POPC   NC360563   4.300  10.516   5.553
 9757POPC   PO460564   4.301  10.485   5.853
 9757POPC   GL160565   4.350  10.487   6.153
 9757POPC   GL260566   4.205  10.527   6.153
 9757POPC   C1A60567   4.349  10.515   6.453
 9757POPC   D2A60568   4.364  10.499   6.753
 9757POPC   C3A60569   4.280  10.489   7.053
 9757POPC   C4A60570   4.339  10.546   7.353
 9757POPC   C1B60571   4.022  10.584   6.453
 9757POPC   C2B60572   4.026  10.534   6.753
 9757POPC   C3B60573   4.033  10.582   7.053
 9757POPC   C4B60574   4.038  10.580   7.353
 9758POPC   NC360575   7.397  33.777   5.553
 9758POPC   PO460576   7.454  33.773   5.853
 9758POPC   GL160577   7.467  33.785   6.153
 9758POPC   GL260578   7.473  33.877   6.153
 9758POPC   C1A60579   7.411  33.777   6.453
 9758POPC   D2A60580   7.371  33.822   6.753
 9758POPC   C3A60581   7.380  33.828   7.053
 9758POPC   C4A60582   7.448  33.830   7.353
 9758POPC   C1B60583   7.620  33.999   6.453
 9758POPC   C2B60584   7.649  33.994   6.753
 9758POPC   C3B60585   7.581  33.949   7.053
 9758POPC   C4B60586   7.652  33.977   7.353
 9759POPC   NC360587  19.857  12.818   5.553
 9759POPC   PO460588  19.786  12.888   5.853
 9759POPC   GL160589  19.846  12.900   6.153
 9759POPC   GL260590  19.838  12.929   6.153
 9759POPC   C1A60591  19.804  12.842   6.453
 9759POPC   D2A60592  19.852  12.848   6.753
 9759POPC   C3A60593  19.810  12.816   7.053
 9759POPC   C4A60594  19.883  12.808   7.353
 9759POPC   C1B60595  19.804  13.150   6.453
 9759POPC   C2B60596  19.786  13.076   6.753
 9759POPC   C3B60597  19.805  13.133   7.053
 9759POPC   C4B60598  19.841  13.076   7.353
 9760POPC   NC360599   1.262  11.251   5.553
 9760POPC   PO460600   1.173  11.334   5.853
 9760POPC   GL160601   1.200  11.336   6.153
 9760POPC   GL260602   1.079  11.192   6.153
 9760POPC   C1A60603   1.180  11.274   6.453
 9760POPC   D2A60604   1.243  11.306   6.753
 9760POPC   C3A60605   1.232  11.272   7.053
 9760POPC   C4A60606   1.177  11.258   7.353
 9760POPC   C1B60607   1.041  11.093   6.453
 9760POPC   C2B60608   1.067  11.114   6.753
 9760POPC   C3B60609   1.069  11.120   7.053
 9760POPC   C4B60610   1.070  11.134   7.353
 9761POPC   NC360611   2.735  20.633   5.553
 9761POPC   PO460612   2.717  20.643   5.853
 9761POPC   GL160613   2.809  20.608   6.153
 9761POPC   GL260614   2.651  20.527   6.153
 9761POPC   C1A60615   2.734  20.660   6.453
 9761POPC   D2A60616   2.795  20.575   6.753
 9761POPC   C3A60617   2.804  20.598   7.053
 9761POPC   C4A60618   2.802  20.632   7.353
 9761POPC   C1B60619   2.535  20.463   6.453
 9761POPC   C2B60620   2.592  20.454   6.753
 9761POPC   C3B60621   2.520  20.472   7.053
 9761POPC   C4B60622   2.531  20.481   7.353
 9762POPC   NC360623  10.520  40.035   5.553
 9762POPC   PO460624  10.510  40.057   5.853
 9762POPC   GL160625  10.522  39.998   6.153
 9762POPC   GL260626  10.601  39.931   6.153
 9762POPC   C1A60627  10.478  40.007   6.453
 9762POPC   D2A60628  10.489  40.014   6.753
 9762POPC   C3A60629  10.486  39.962   7.053
 9762POPC   C4A60630  10.503  39.980   7.353
 9762POPC   C1B60631  10.631  39.738   6.453
 9762POPC   C2B60632  10.663  39.777   6.753
 9762POPC   C3B60633  10.606  39.807   7.053
 9762POPC   C4B60634  10.615  39.747   7.353
 9763POPC   NC360635  12.048   8.981   5.553
 9763POPC   PO460636  12.124   8.952   5.853
 9763POPC   GL160637  12.076   9.015   6.153
 9763POPC   GL260638  12.087   9.048   6.153
 9763POPC   C1A60639  12.076   8.981   6.453
 9763POPC   D2A60640  12.089   8.991   6.753
 9763POPC   C3A60641  12.078   8.953   7.053
 9763POPC   C4A60642  12.123   8.924   7.353
 9763POPC   C1B60643  12.173   9.239   6.453
 9763POPC   C2B60644  12.119   9.210   6.753
 9763POPC   C3B60645  12.161   9.169   7.053
 9763POPC   C4B60646  12.155   9.260   7.353
 9764POPC   NC360647  12.805  43.109   5.553
 9764POPC   PO460648  12.805  43.101   5.853
 9764POPC   GL160649  12.901  43.151   6.153
 9764POPC   GL260650  12.747  43.164   6.153
 9764POPC   C1A60651  12.818  43.073   6.453
 9764POPC   D2A60652  12.895  43.129   6.753
 9764POPC   C3A60653  12.889  43.121   7.053
 9764POPC   C4A60654  12.851  43.118   7.353
 9764POPC   C1B60655  12.610  43.158   6.453
 9764POPC   C2B60656  12.602  43.074   6.753
 9764POPC   C3B60657  12.582  43.102   7.053
 9764POPC   C4B60658  12.639  43.140   7.353
 9765POPC   NC360659  16.752  41.572   5.553
 9765POPC   PO460660  16.709  41.521   5.853
 9765POPC   GL160661  16.737  41.539   6.153
 9765POPC   GL260662  16.847  41.577   6.153
 9765POPC   C1A60663  16.705  41.528   6.453
 9765POPC   D2A60664  16.777  41.509   6.753
 9765POPC   C3A60665  16.712  41.607   7.053
 9765POPC   C4A60666  16.748  41.551   7.353
 9765POPC   C1B60667  17.000  41.590   6.453
 9765POPC   C2B60668  16.980  41.538   6.753
 9765POPC   C3B60669  17.003  41.576   7.053
 9765POPC   C4B60670  17.010  41.530   7.353
 9766POPC   NC360671  15.976  38.441   5.553
 9766POPC   PO460672  15.998  38.472   5.853
 9766POPC   GL160673  15.908  38.474   6.153
 9766POPC   GL260674  16.031  38.374   6.153
 9766POPC   C1A60675  15.909  38.439   6.453
 9766POPC   D2A60676  15.949  38.433   6.753
 9766POPC   C3A60677  15.920  38.469   7.053
 9766POPC   C4A60678  15.989  38.422   7.353
 9766POPC   C1B60679  16.133  38.295   6.453
 9766POPC   C2B60680  16.198  38.298   6.753
 9766POPC   C3B60681  16.223  38.358   7.053
 9766POPC   C4B60682  16.173  38.354   7.353
 9767POPC   NC360683  43.932  37.665   5.553
 9767POPC   PO460684  43.838  37.654   5.853
 9767POPC   GL160685  43.877  37.707   6.153
 9767POPC   GL260686  43.924  37.606   6.153
 9767POPC   C1A60687  43.860  37.662   6.453
 9767POPC   D2A60688  43.924  37.649   6.753
 9767POPC   C3A60689  43.870  37.637   7.053
 9767POPC   C4A60690  43.883  37.690   7.353
 9767POPC   C1B60691  43.971  37.504   6.453
 9767POPC   C2B60692  44.040  37.420   6.753
 9767POPC   C3B60693  44.024  37.421   7.053
 9767POPC   C4B60694  44.001  37.438   7.353
 9768POPC   NC360695  39.208  30.653   5.553
 9768POPC   PO460696  39.252  30.742   5.853
 9768POPC   GL160697  39.255  30.650   6.153
 9768POPC   GL260698  39.108  30.754   6.153
 9768POPC   C1A60699  39.256  30.708   6.453
 9768POPC   D2A60700  39.225  30.746   6.753
 9768POPC   C3A60701  39.257  30.710   7.053
 9768POPC   C4A60702  39.229  30.735   7.353
 9768POPC   C1B60703  39.007  30.794   6.453
 9768POPC   C2B60704  38.974  30.750   6.753
 9768POPC   C3B60705  39.015  30.789   7.053
 9768POPC   C4B60706  38.952  30.810   7.353
 9769POPC   NC360707   6.645  29.130   5.553
 9769POPC   PO460708   6.652  29.194   5.853
 9769POPC   GL160709   6.646  29.139   6.153
 9769POPC   GL260710   6.765  29.124   6.153
 9769POPC   C1A60711   6.689  29.192   6.453
 9769POPC   D2A60712   6.614  29.098   6.753
 9769POPC   C3A60713   6.681  29.114   7.053
 9769POPC   C4A60714   6.687  29.129   7.353
 9769POPC   C1B60715   6.886  29.051   6.453
 9769POPC   C2B60716   6.863  29.101   6.753
 9769POPC   C3B60717   6.897  29.025   7.053
 9769POPC   C4B60718   6.926  29.043   7.353
 9770POPC   NC360719   7.381  34.615   5.553
 9770POPC   PO460720   7.374  34.563   5.853
 9770POPC   GL160721   7.371  34.589   6.153
 9770POPC   GL260722   7.505  34.504   6.153
 9770POPC   C1A60723   7.411  34.577   6.453
 9770POPC   D2A60724   7.432  34.553   6.753
 9770POPC   C3A60725   7.453  34.530   7.053
 9770POPC   C4A60726   7.470  34.565   7.353
 9770POPC   C1B60727   7.653  34.493   6.453
 9770POPC   C2B60728   7.606  34.433   6.753
 9770POPC   C3B60729   7.624  34.421   7.053
 9770POPC   C4B60730   7.654  34.425   7.353
 9771POPC   NC360731  26.026  36.866   5.553
 9771POPC   PO460732  26.055  36.928   5.853
 9771POPC   GL160733  26.078  36.857   6.153
 9771POPC   GL260734  26.104  36.946   6.153
 9771POPC   C1A60735  26.047  36.913   6.453
 9771POPC   D2A60736  26.012  36.887   6.753
 9771POPC   C3A60737  26.018  36.888   7.053
 9771POPC   C4A60738  26.087  36.925   7.353
 9771POPC   C1B60739  26.267  37.106   6.453
 9771POPC   C2B60740  26.217  37.063   6.753
 9771POPC   C3B60741  26.275  37.087   7.053
 9771POPC   C4B60742  26.263  37.091   7.353
 9772POPC   NC360743  26.080  15.163   5.553
 9772POPC   PO460744  26.040  15.172   5.853
 9772POPC   GL160745  26.073  15.163   6.153
 9772POPC   GL260746  25.975  15.323   6.153
 9772POPC   C1A60747  26.000  15.207   6.453
 9772POPC   D2A60748  26.062  15.209   6.753
 9772POPC   C3A60749  26.046  15.211   7.053
 9772POPC   C4A60750  26.071  15.206   7.353
 9772POPC   C1B60751  25.891  15.350   6.453
 9772POPC   C2B60752  25.896  15.394   6.753
 9772POPC   C3B60753  25.896  15.401   7.053
 9772POPC   C4B60754  25.915  15.397   7.353
 9773POPC   NC360755  22.157  13.641   5.553
 9773POPC   PO460756  22.206  13.598   5.853
 9773POPC   GL160757  22.178  13.623   6.153
 9773POPC   GL260758  22.091  13.520   6.153
 9773POPC   C1A60759  22.183  13.581   6.453
 9773POPC   D2A60760  22.204  13.593   6.753
 9773POPC   C3A60761  22.174  13.579   7.053
 9773POPC   C4A60762  22.123  13.602   7.353
 9773POPC   C1B60763  22.001  13.389   6.453
 9773POPC   C2B60764  22.006  13.424   6.753
 9773POPC   C3B60765  22.026  13.397   7.053
 9773POPC   C4B60766  22.010  13.404   7.353
 9774POPC   NC360767  13.618  37.633   5.553
 9774POPC   PO460768  13.651  37.647   5.853
 9774POPC   GL160769  13.627  37.682   6.153
 9774POPC   GL260770  13.587  37.758   6.153
 9774POPC   C1A60771  13.582  37.639   6.453
 9774POPC   D2A60772  13.638  37.663   6.753
 9774POPC   C3A60773  13.667  37.645   7.053
 9774POPC   C4A60774  13.601  37.637   7.353
 9774POPC   C1B60775  13.578  37.964   6.453
 9774POPC   C2B60776  13.635  37.922   6.753
 9774POPC   C3B60777  13.644  37.924   7.053
 9774POPC   C4B60778  13.617  37.915   7.353
 9775POPC   NC360779   1.218   8.234   5.553
 9775POPC   PO460780   1.253   8.150   5.853
 9775POPC   GL160781   1.235   8.223   6.153
 9775POPC   GL260782   1.342   8.062   6.153
 9775POPC   C1A60783   1.240   8.204   6.453
 9775POPC   D2A60784   1.249   8.241   6.753
 9775POPC   C3A60785   1.190   8.186   7.053
 9775POPC   C4A60786   1.255   8.176   7.353
 9775POPC   C1B60787   1.343   7.987   6.453
 9775POPC   C2B60788   1.434   8.067   6.753
 9775POPC   C3B60789   1.369   8.059   7.053
 9775POPC   C4B60790   1.351   8.037   7.353
 9776POPC   NC360791   0.406  40.014   5.553
 9776POPC   PO460792   0.457  39.960   5.853
 9776POPC   GL160793   0.477  40.041   6.153
 9776POPC   GL260794   0.493  40.072   6.153
 9776POPC   C1A60795   0.399  39.967   6.453
 9776POPC   D2A60796   0.475  39.963   6.753
 9776POPC   C3A60797   0.463  39.988   7.053
 9776POPC   C4A60798   0.443  39.975   7.353
 9776POPC   C1B60799   0.527  40.189   6.453
 9776POPC   C2B60800   0.522  40.235   6.753
 9776POPC   C3B60801   0.585  40.243   7.053
 9776POPC   C4B60802   0.585  40.260   7.353
 9777POPC   NC360803  30.739   1.262   5.553
 9777POPC   PO460804  30.717   1.166   5.853
 9777POPC   GL160805  30.659   1.226   6.153
 9777POPC   GL260806  30.830   1.312   6.153
 9777POPC   C1A60807  30.729   1.250   6.453
 9777POPC   D2A60808  30.647   1.256   6.753
 9777POPC   C3A60809  30.678   1.199   7.053
 9777POPC   C4A60810  30.660   1.263   7.353
 9777POPC   C1B60811  30.920   1.374   6.453
 9777POPC   C2B60812  30.935   1.355   6.753
 9777POPC   C3B60813  30.836   1.329   7.053
 9777POPC   C4B60814  30.868   1.378   7.353
 9778POPC   NC360815  14.411  22.963   5.553
 9778POPC   PO460816  14.439  22.986   5.853
 9778POPC   GL160817  14.396  22.907   6.153
 9778POPC   GL260818  14.324  22.971   6.153
 9778POPC   C1A60819  14.451  22.965   6.453
 9778POPC   D2A60820  14.407  22.949   6.753
 9778POPC   C3A60821  14.445  22.925   7.053
 9778POPC   C4A60822  14.378  22.920   7.353
 9778POPC   C1B60823  14.165  23.031   6.453
 9778POPC   C2B60824  14.194  23.000   6.753
 9778POPC   C3B60825  14.133  23.009   7.053
 9778POPC   C4B60826  14.120  23.029   7.353
 9779POPC   NC360827  17.534  42.299   5.553
 9779POPC   PO460828  17.551  42.310   5.853
 9779POPC   GL160829  17.473  42.366   6.153
 9779POPC   GL260830  17.457  42.211   6.153
 9779POPC   C1A60831  17.505  42.371   6.453
 9779POPC   D2A60832  17.537  42.292   6.753
 9779POPC   C3A60833  17.457  42.358   7.053
 9779POPC   C4A60834  17.462  42.328   7.353
 9779POPC   C1B60835  17.311  42.124   6.453
 9779POPC   C2B60836  17.370  42.108   6.753
 9779POPC   C3B60837  17.390  42.182   7.053
 9779POPC   C4B60838  17.306  42.114   7.353
 9780POPC   NC360839  41.524   5.836   5.553
 9780POPC   PO460840  41.547   5.833   5.853
 9780POPC   GL160841  41.512   5.870   6.153
 9780POPC   GL260842  41.480   5.713   6.153
 9780POPC   C1A60843  41.601   5.883   6.453
 9780POPC   D2A60844  41.591   5.917   6.753
 9780POPC   C3A60845  41.540   5.832   7.053
 9780POPC   C4A60846  41.594   5.877   7.353
 9780POPC   C1B60847  41.500   5.680   6.453
 9780POPC   C2B60848  41.500   5.606   6.753
 9780POPC   C3B60849  41.466   5.614   7.053
 9780POPC   C4B60850  41.423   5.634   7.353
 9781POPC   NC360851  19.807   1.164   5.553
 9781POPC   PO460852  19.864   1.207   5.853
 9781POPC   GL160853  19.834   1.214   6.153
 9781POPC   GL260854  19.733   1.323   6.153
 9781POPC   C1A60855  19.809   1.247   6.453
 9781POPC   D2A60856  19.881   1.218   6.753
 9781POPC   C3A60857  19.858   1.168   7.053
 9781POPC   C4A60858  19.861   1.253   7.353
 9781POPC   C1B60859  19.723   1.397   6.453
 9781POPC   C2B60860  19.675   1.437   6.753
 9781POPC   C3B60861  19.761   1.400   7.053
 9781POPC   C4B60862  19.708   1.397   7.353
 9782POPC   NC360863  19.021   4.352   5.553
 9782POPC   PO460864  19.040   4.313   5.853
 9782POPC   GL160865  19.072   4.363   6.153
 9782POPC   GL260866  18.951   4.304   6.153
 9782POPC   C1A60867  19.060   4.310   6.453
 9782POPC   D2A60868  19.066   4.301   6.753
 9782POPC   C3A60869  19.103   4.317   7.053
 9782POPC   C4A60870  19.024   4.293   7.353
 9782POPC   C1B60871  18.805   4.345   6.453
 9782POPC   C2B60872  18.844   4.308   6.753
 9782POPC   C3B60873  18.858   4.369   7.053
 9782POPC   C4B60874  18.802   4.337   7.353
 9783POPC   NC360875  21.409  19.025   5.553
 9783POPC   PO460876  21.344  19.079   5.853
 9783POPC   GL160877  21.384  19.025   6.153
 9783POPC   GL260878  21.335  19.198   6.153
 9783POPC   C1A60879  21.403  19.033   6.453
 9783POPC   D2A60880  21.353  19.042   6.753
 9783POPC   C3A60881  21.399  19.045   7.053
 9783POPC   C4A60882  21.357  19.080   7.353
 9783POPC   C1B60883  21.251  19.211   6.453
 9783POPC   C2B60884  21.212  19.306   6.753
 9783POPC   C3B60885  21.248  19.270   7.053
 9783POPC   C4B60886  21.254  19.229   7.353
 9784POPC   NC360887  19.009  18.306   5.553
 9784POPC   PO460888  19.106  18.290   5.853
 9784POPC   GL160889  19.108  18.324   6.153
 9784POPC   GL260890  19.050  18.206   6.153
 9784POPC   C1A60891  19.074  18.251   6.453
 9784POPC   D2A60892  19.027  18.294   6.753
 9784POPC   C3A60893  19.079  18.268   7.053
 9784POPC   C4A60894  19.085  18.312   7.353
 9784POPC   C1B60895  18.996  18.012   6.453
 9784POPC   C2B60896  18.992  18.065   6.753
 9784POPC   C3B60897  19.025  18.072   7.053
 9784POPC   C4B60898  19.059  18.078   7.353
 9785POPC   NC360899  39.990  36.907   5.553
 9785POPC   PO460900  40.041  36.921   5.853
 9785POPC   GL160901  40.037  36.951   6.153
 9785POPC   GL260902  40.022  36.991   6.153
 9785POPC   C1A60903  40.003  36.926   6.453
 9785POPC   D2A60904  40.002  36.870   6.753
 9785POPC   C3A60905  40.042  36.912   7.053
 9785POPC   C4A60906  40.022  36.879   7.353
 9785POPC   C1B60907  40.105  37.159   6.453
 9785POPC   C2B60908  40.145  37.102   6.753
 9785POPC   C3B60909  40.148  37.107   7.053
 9785POPC   C4B60910  40.120  37.165   7.353
 9786POPC   NC360911  17.484  29.896   5.553
 9786POPC   PO460912  17.501  29.922   5.853
 9786POPC   GL160913  17.495  29.947   6.153
 9786POPC   GL260914  17.344  29.921   6.153
 9786POPC   C1A60915  17.494  29.932   6.453
 9786POPC   D2A60916  17.536  29.968   6.753
 9786POPC   C3A60917  17.515  29.941   7.053
 9786POPC   C4A60918  17.546  29.880   7.353
 9786POPC   C1B60919  17.275  29.955   6.453
 9786POPC   C2B60920  17.296  29.899   6.753
 9786POPC   C3B60921  17.290  29.871   7.053
 9786POPC   C4B60922  17.224  29.874   7.353
 9787POPC   NC360923  32.990  12.026   5.553
 9787POPC   PO460924  33.038  12.037   5.853
 9787POPC   GL160925  33.058  12.051   6.153
 9787POPC   GL260926  32.898  12.094   6.153
 9787POPC   C1A60927  33.046  12.091   6.453
 9787POPC   D2A60928  33.045  12.064   6.753
 9787POPC   C3A60929  33.047  12.108   7.053
 9787POPC   C4A60930  32.995  12.116   7.353
 9787POPC   C1B60931  32.798  12.038   6.453
 9787POPC   C2B60932  32.775  12.052   6.753
 9787POPC   C3B60933  32.743  12.053   7.053
 9787POPC   C4B60934  32.796  11.999   7.353
 9788POPC   NC360935  27.634  36.936   5.553
 9788POPC   PO460936  27.619  36.935   5.853
 9788POPC   GL160937  27.610  36.880   6.153
 9788POPC   GL260938  27.628  37.012   6.153
 9788POPC   C1A60939  27.550  36.932   6.453
 9788POPC   D2A60940  27.565  36.917   6.753
 9788POPC   C3A60941  27.632  36.879   7.053
 9788POPC   C4A60942  27.626  36.947   7.353
 9788POPC   C1B60943  27.743  37.146   6.453
 9788POPC   C2B60944  27.709  37.177   6.753
 9788POPC   C3B60945  27.676  37.132   7.053
 9788POPC   C4B60946  27.722  37.161   7.353
 9789POPC   NC360947  12.843  19.015   5.553
 9789POPC   PO460948  12.816  19.023   5.853
 9789POPC   GL160949  12.839  19.076   6.153
 9789POPC   GL260950  12.755  18.992   6.153
 9789POPC   C1A60951  12.853  19.075   6.453
 9789POPC   D2A60952  12.833  19.034   6.753
 9789POPC   C3A60953  12.863  19.072   7.053
 9789POPC   C4A60954  12.857  19.014   7.353
 9789POPC   C1B60955  12.649  18.942   6.453
 9789POPC   C2B60956  12.620  18.933   6.753
 9789POPC   C3B60957  12.667  18.984   7.053
 9789POPC   C4B60958  12.633  18.898   7.353
 9790POPC   NC360959  14.402  11.291   5.553
 9790POPC   PO460960  14.416  11.268   5.853
 9790POPC   GL160961  14.382  11.298   6.153
 9790POPC   GL260962  14.450  11.190   6.153
 9790POPC   C1A60963  14.396  11.341   6.453
 9790POPC   D2A60964  14.453  11.257   6.753
 9790POPC   C3A60965  14.436  11.320   7.053
 9790POPC   C4A60966  14.395  11.285   7.353
 9790POPC   C1B60967  14.545  11.069   6.453
 9790POPC   C2B60968  14.550  11.092   6.753
 9790POPC   C3B60969  14.548  11.078   7.053
 9790POPC   C4B60970  14.509  11.119   7.353
 9791POPC   NC360971  24.499  37.667   5.553
 9791POPC   PO460972  24.473  37.706   5.853
 9791POPC   GL160973  24.520  37.700   6.153
 9791POPC   GL260974  24.548  37.605   6.153
 9791POPC   C1A60975  24.506  37.631   6.453
 9791POPC   D2A60976  24.528  37.684   6.753
 9791POPC   C3A60977  24.477  37.660   7.053
 9791POPC   C4A60978  24.534  37.709   7.353
 9791POPC   C1B60979  24.620  37.481   6.453
 9791POPC   C2B60980  24.659  37.531   6.753
 9791POPC   C3B60981  24.686  37.547   7.053
 9791POPC   C4B60982  24.621  37.533   7.353
 9792POPC   NC360983  22.179  15.152   5.553
 9792POPC   PO460984  22.154  15.188   5.853
 9792POPC   GL160985  22.153  15.188   6.153
 9792POPC   GL260986  22.080  15.141   6.153
 9792POPC   C1A60987  22.118  15.216   6.453
 9792POPC   D2A60988  22.165  15.216   6.753
 9792POPC   C3A60989  22.179  15.196   7.053
 9792POPC   C4A60990  22.164  15.186   7.353
 9792POPC   C1B60991  21.867  15.181   6.453
 9792POPC   C2B60992  21.917  15.214   6.753
 9792POPC   C3B60993  21.898  15.194   7.053
 9792POPC   C4B60994  21.921  15.135   7.353
 9793POPC   NC360995  18.239  10.499   5.553
 9793POPC   PO460996  18.292  10.541   5.853
 9793POPC   GL160997  18.288  10.568   6.153
 9793POPC   GL260998  18.413  10.460   6.153
 9793POPC   C1A60999  18.259  10.568   6.453
 9793POPC   D2A61000  18.256  10.557   6.753
 9793POPC   C3A61001  18.262  10.572   7.053
 9793POPC   C4A61002  18.268  10.507   7.353
 9793POPC   C1B61003  18.452  10.320   6.453
 9793POPC   C2B61004  18.407  10.297   6.753
 9793POPC   C3B61005  18.466  10.302   7.053
 9793POPC   C4B61006  18.451  10.324   7.353
 9794POPC   NC361007  29.968  30.736   5.553
 9794POPC   PO461008  29.882  30.731   5.853
 9794POPC   GL161009  29.871  30.648   6.153
 9794POPC   GL261010  30.036  30.611   6.153
 9794POPC   C1A61011  29.907  30.726   6.453
 9794POPC   D2A61012  29.954  30.649   6.753
 9794POPC   C3A61013  29.906  30.731   7.053
 9794POPC   C4A61014  29.906  30.698   7.353
 9794POPC   C1B61015  30.132  30.567   6.453
 9794POPC   C2B61016  30.065  30.521   6.753
 9794POPC   C3B61017  30.151  30.519   7.053
 9794POPC   C4B61018  30.152  30.568   7.353
 9795POPC   NC361019   7.400  39.984   5.553
 9795POPC   PO461020   7.417  40.048   5.853
 9795POPC   GL161021   7.440  39.967   6.153
 9795POPC   GL261022   7.496  40.101   6.153
 9795POPC   C1A61023   7.372  40.005   6.453
 9795POPC   D2A61024   7.391  39.970   6.753
 9795POPC   C3A61025   7.438  40.042   7.053
 9795POPC   C4A61026   7.418  39.985   7.353
 9795POPC   C1B61027   7.456  40.211   6.453
 9795POPC   C2B61028   7.465  40.294   6.753
 9795POPC   C3B61029   7.448  40.224   7.053
 9795POPC   C4B61030   7.527  40.261   7.353
 9796POPC   NC361031  20.567  17.519   5.553
 9796POPC   PO461032  20.580  17.495   5.853
 9796POPC   GL161033  20.660  17.482   6.153
 9796POPC   GL261034  20.482  17.514   6.153
 9796POPC   C1A61035  20.564  17.529   6.453
 9796POPC   D2A61036  20.627  17.484   6.753
 9796POPC   C3A61037  20.574  17.461   7.053
 9796POPC   C4A61038  20.619  17.484   7.353
 9796POPC   C1B61039  20.402  17.573   6.453
 9796POPC   C2B61040  20.329  17.513   6.753
 9796POPC   C3B61041  20.402  17.505   7.053
 9796POPC   C4B61042  20.410  17.562   7.353
 9797POPC   NC361043  18.246  35.323   5.553
 9797POPC   PO461044  18.332  35.327   5.853
 9797POPC   GL161045  18.252  35.381   6.153
 9797POPC   GL261046  18.377  35.376   6.153
 9797POPC   C1A61047  18.248  35.324   6.453
 9797POPC   D2A61048  18.237  35.317   6.753
 9797POPC   C3A61049  18.258  35.334   7.053
 9797POPC   C4A61050  18.259  35.344   7.353
 9797POPC   C1B61051  18.537  35.448   6.453
 9797POPC   C2B61052  18.464  35.503   6.753
 9797POPC   C3B61053  18.530  35.441   7.053
 9797POPC   C4B61054  18.551  35.420   7.353
 9798POPC   NC361055  11.306  27.574   5.553
 9798POPC   PO461056  11.342  27.548   5.853
 9798POPC   GL161057  11.283  27.575   6.153
 9798POPC   GL261058  11.361  27.717   6.153
 9798POPC   C1A61059  11.261  27.613   6.453
 9798POPC   D2A61060  11.273  27.630   6.753
 9798POPC   C3A61061  11.349  27.605   7.053
 9798POPC   C4A61062  11.282  27.596   7.353
 9798POPC   C1B61063  11.494  27.801   6.453
 9798POPC   C2B61064  11.453  27.809   6.753
 9798POPC   C3B61065  11.507  27.769   7.053
 9798POPC   C4B61066  11.500  27.804   7.353
 9799POPC   NC361067   5.910  36.158   5.553
 9799POPC   PO461068   5.879  36.094   5.853
 9799POPC   GL161069   5.860  36.139   6.153
 9799POPC   GL261070   5.984  36.147   6.153
 9799POPC   C1A61071   5.842  36.081   6.453
 9799POPC   D2A61072   5.838  36.172   6.753
 9799POPC   C3A61073   5.884  36.164   7.053
 9799POPC   C4A61074   5.896  36.115   7.353
 9799POPC   C1B61075   6.133  36.090   6.453
 9799POPC   C2B61076   6.141  36.030   6.753
 9799POPC   C3B61077   6.152  36.117   7.053
 9799POPC   C4B61078   6.161  36.071   7.353
 9800POPC   NC361079  35.330  25.223   5.553
 9800POPC   PO461080  35.387  25.234   5.853
 9800POPC   GL161081  35.364  25.254   6.153
 9800POPC   GL261082  35.270  25.297   6.153
 9800POPC   C1A61083  35.393  25.230   6.453
 9800POPC   D2A61084  35.308  25.242   6.753
 9800POPC   C3A61085  35.366  25.245   7.053
 9800POPC   C4A61086  35.360  25.284   7.353
 9800POPC   C1B61087  35.119  25.271   6.453
 9800POPC   C2B61088  35.140  25.292   6.753
 9800POPC   C3B61089  35.069  25.269   7.053
 9800POPC   C4B61090  35.074  25.263   7.353
 9801POPC   NC361091  15.160   1.957   5.553
 9801POPC   PO461092  15.187   1.971   5.853
 9801POPC   GL161093  15.164   1.951   6.153
 9801POPC   GL261094  15.158   2.083   6.153
 9801POPC   C1A61095  15.166   2.020   6.453
 9801POPC   D2A61096  15.227   2.029   6.753
 9801POPC   C3A61097  15.147   1.973   7.053
 9801POPC   C4A61098  15.228   2.036   7.353
 9801POPC   C1B61099  15.136   2.277   6.453
 9801POPC   C2B61100  15.214   2.263   6.753
 9801POPC   C3B61101  15.165   2.234   7.053
 9801POPC   C4B61102  15.152   2.275   7.353
 9802POPC   NC361103  28.325  41.608   5.553
 9802POPC   PO461104  28.384  41.522   5.853
 9802POPC   GL161105  28.328  41.526   6.153
 9802POPC   GL261106  28.332  41.390   6.153
 9802POPC   C1A61107  28.345  41.546   6.453
 9802POPC   D2A61108  28.378  41.525   6.753
 9802POPC   C3A61109  28.367  41.524   7.053
 9802POPC   C4A61110  28.320  41.530   7.353
 9802POPC   C1B61111  28.373  41.271   6.453
 9802POPC   C2B61112  28.346  41.296   6.753
 9802POPC   C3B61113  28.356  41.306   7.053
 9802POPC   C4B61114  28.329  41.353   7.353
 9803POPC   NC361115  10.572  31.425   5.553
 9803POPC   PO461116  10.498  31.474   5.853
 9803POPC   GL161117  10.518  31.501   6.153
 9803POPC   GL261118  10.679  31.528   6.153
 9803POPC   C1A61119  10.548  31.436   6.453
 9803POPC   D2A61120  10.489  31.499   6.753
 9803POPC   C3A61121  10.487  31.508   7.053
 9803POPC   C4A61122  10.486  31.459   7.353
 9803POPC   C1B61123  10.802  31.540   6.453
 9803POPC   C2B61124  10.784  31.518   6.753
 9803POPC   C3B61125  10.724  31.471   7.053
 9803POPC   C4B61126  10.817  31.460   7.353
 9804POPC   NC361127  43.849  24.533   5.553
 9804POPC   PO461128  43.893  24.486   5.853
 9804POPC   GL161129  43.895  24.443   6.153
 9804POPC   GL261130  43.797  24.605   6.153
 9804POPC   C1A61131  43.924  24.525   6.453
 9804POPC   D2A61132  43.916  24.528   6.753
 9804POPC   C3A61133  43.893  24.461   7.053
 9804POPC   C4A61134  43.901  24.440   7.353
 9804POPC   C1B61135  43.794  24.756   6.453
 9804POPC   C2B61136  43.756  24.682   6.753
 9804POPC   C3B61137  43.830  24.743   7.053
 9804POPC   C4B61138  43.783  24.681   7.353
 9805POPC   NC361139   2.779  29.908   5.553
 9805POPC   PO461140   2.735  29.901   5.853
 9805POPC   GL161141   2.768  29.962   6.153
 9805POPC   GL261142   2.788  30.012   6.153
 9805POPC   C1A61143   2.773  29.904   6.453
 9805POPC   D2A61144   2.738  29.970   6.753
 9805POPC   C3A61145   2.776  29.883   7.053
 9805POPC   C4A61146   2.726  29.949   7.353
 9805POPC   C1B61147   2.888  30.150   6.453
 9805POPC   C2B61148   2.857  30.164   6.753
 9805POPC   C3B61149   2.851  30.171   7.053
 9805POPC   C4B61150   2.849  30.153   7.353
 9806POPC   NC361151   8.232  27.558   5.553
 9806POPC   PO461152   8.190  27.555   5.853
 9806POPC   GL161153   8.215  27.559   6.153
 9806POPC   GL261154   8.062  27.549   6.153
 9806POPC   C1A61155   8.163  27.640   6.453
 9806POPC   D2A61156   8.237  27.554   6.753
 9806POPC   C3A61157   8.221  27.643   7.053
 9806POPC   C4A61158   8.240  27.623   7.353
 9806POPC   C1B61159   7.910  27.627   6.453
 9806POPC   C2B61160   7.921  27.605   6.753
 9806POPC   C3B61161   7.953  27.622   7.053
 9806POPC   C4B61162   7.938  27.572   7.353
 9807POPC   NC361163   7.432   0.400   5.553
 9807POPC   PO461164   7.401   0.446   5.853
 9807POPC   GL161165   7.449   0.413   6.153
 9807POPC   GL261166   7.476   0.283   6.153
 9807POPC   C1A61167   7.466   0.478   6.453
 9807POPC   D2A61168   7.406   0.431   6.753
 9807POPC   C3A61169   7.416   0.442   7.053
 9807POPC   C4A61170   7.459   0.445   7.353
 9807POPC   C1B61171   7.510   0.186   6.453
 9807POPC   C2B61172   7.527   0.233   6.753
 9807POPC   C3B61173   7.555   0.198   7.053
 9807POPC   C4B61174   7.513   0.228   7.353
 9808POPC   NC361175  16.725  43.062   5.553
 9808POPC   PO461176  16.726  43.073   5.853
 9808POPC   GL161177  16.735  43.065   6.153
 9808POPC   GL261178  16.803  43.217   6.153
 9808POPC   C1A61179  16.774  43.120   6.453
 9808POPC   D2A61180  16.695  43.072   6.753
 9808POPC   C3A61181  16.751  43.155   7.053
 9808POPC   C4A61182  16.737  43.114   7.353
 9808POPC   C1B61183  16.849  43.327   6.453
 9808POPC   C2B61184  16.794  43.377   6.753
 9808POPC   C3B61185  16.801  43.320   7.053
 9808POPC   C4B61186  16.831  43.351   7.353
 9809POPC   NC361187  19.884  29.896   5.553
 9809POPC   PO461188  19.870  29.921   5.853
 9809POPC   GL161189  19.786  29.961   6.153
 9809POPC   GL261190  19.726  29.815   6.153
 9809POPC   C1A61191  19.857  29.909   6.453
 9809POPC   D2A61192  19.853  29.901   6.753
 9809POPC   C3A61193  19.790  29.892   7.053
 9809POPC   C4A61194  19.801  29.950   7.353
 9809POPC   C1B61195  19.687  29.724   6.453
 9809POPC   C2B61196  19.679  29.706   6.753
 9809POPC   C3B61197  19.681  29.733   7.053
 9809POPC   C4B61198  19.677  29.686   7.353
 9810POPC   NC361199  36.160  22.131   5.553
 9810POPC   PO461200  36.165  22.163   5.853
 9810POPC   GL161201  36.170  22.116   6.153
 9810POPC   GL261202  36.154  22.309   6.153
 9810POPC   C1A61203  36.104  22.140   6.453
 9810POPC   D2A61204  36.101  22.172   6.753
 9810POPC   C3A61205  36.148  22.141   7.053
 9810POPC   C4A61206  36.162  22.129   7.353
 9810POPC   C1B61207  36.172  22.457   6.453
 9810POPC   C2B61208  36.166  22.401   6.753
 9810POPC   C3B61209  36.108  22.360   7.053
 9810POPC   C4B61210  36.174  22.409   7.353
 9811POPC   NC361211  37.661  18.266   5.553
 9811POPC   PO461212  37.728  18.269   5.853
 9811POPC   GL161213  37.705  18.310   6.153
 9811POPC   GL261214  37.843  18.262   6.153
 9811POPC   C1A61215  37.630  18.268   6.453
 9811POPC   D2A61216  37.634  18.281   6.753
 9811POPC   C3A61217  37.631  18.309   7.053
 9811POPC   C4A61218  37.688  18.301   7.353
 9811POPC   C1B61219  37.950  18.274   6.453
 9811POPC   C2B61220  37.973  18.344   6.753
 9811POPC   C3B61221  37.918  18.322   7.053
 9811POPC   C4B61222  37.897  18.346   7.353
 9812POPC   NC361223  30.689  28.364   5.553
 9812POPC   PO461224  30.694  28.346   5.853
 9812POPC   GL161225  30.649  28.379   6.153
 9812POPC   GL261226  30.749  28.499   6.153
 9812POPC   C1A61227  30.697  28.379   6.453
 9812POPC   D2A61228  30.689  28.329   6.753
 9812POPC   C3A61229  30.713  28.326   7.053
 9812POPC   C4A61230  30.718  28.388   7.353
 9812POPC   C1B61231  30.799  28.602   6.453
 9812POPC   C2B61232  30.815  28.625   6.753
 9812POPC   C3B61233  30.784  28.643   7.053
 9812POPC   C4B61234  30.802  28.566   7.353
 9813POPC   NC361235  39.280  24.522   5.553
 9813POPC   PO461236  39.183  24.464   5.853
 9813POPC   GL161237  39.244  24.529   6.153
 9813POPC   GL261238  39.175  24.572   6.153
 9813POPC   C1A61239  39.211  24.492   6.453
 9813POPC   D2A61240  39.220  24.459   6.753
 9813POPC   C3A61241  39.186  24.487   7.053
 9813POPC   C4A61242  39.218  24.528   7.353
 9813POPC   C1B61243  39.089  24.737   6.453
 9813POPC   C2B61244  39.136  24.684   6.753
 9813POPC   C3B61245  39.095  24.685   7.053
 9813POPC   C4B61246  39.140  24.694   7.353
 9814POPC   NC361247  32.266  32.290   5.553
 9814POPC   PO461248  32.278  32.240   5.853
 9814POPC   GL161249  32.249  32.229   6.153
 9814POPC   GL261250  32.111  32.250   6.153
 9814POPC   C1A61251  32.263  32.261   6.453
 9814POPC   D2A61252  32.229  32.253   6.753
 9814POPC   C3A61253  32.283  32.260   7.053
 9814POPC   C4A61254  32.229  32.262   7.353
 9814POPC   C1B61255  31.970  32.166   6.453
 9814POPC   C2B61256  32.002  32.207   6.753
 9814POPC   C3B61257  31.979  32.155   7.053
 9814POPC   C4B61258  32.019  32.187   7.353
 9815POPC   NC361259  43.909  42.300   5.553
 9815POPC   PO461260  43.926  42.365   5.853
 9815POPC   GL161261  43.881  42.312   6.153
 9815POPC   GL261262  43.835  42.483   6.153
 9815POPC   C1A61263  43.934  42.292   6.453
 9815POPC   D2A61264  43.909  42.373   6.753
 9815POPC   C3A61265  43.889  42.352   7.053
 9815POPC   C4A61266  43.883  42.363   7.353
 9815POPC   C1B61267  43.889  42.604   6.453
 9815POPC   C2B61268  43.839  42.569   6.753
 9815POPC   C3B61269  43.849  42.612   7.053
 9815POPC   C4B61270  43.821  42.629   7.353
 9816POPC   NC361271  17.545  33.033   5.553
 9816POPC   PO461272  17.489  33.041   5.853
 9816POPC   GL161273  17.503  32.998   6.153
 9816POPC   GL261274  17.432  33.053   6.153
 9816POPC   C1A61275  17.514  33.068   6.453
 9816POPC   D2A61276  17.472  33.043   6.753
 9816POPC   C3A61277  17.521  33.001   7.053
 9816POPC   C4A61278  17.544  33.054   7.353
 9816POPC   C1B61279  17.299  33.015   6.453
 9816POPC   C2B61280  17.252  32.949   6.753
 9816POPC   C3B61281  17.275  32.955   7.053
 9816POPC   C4B61282  17.233  32.988   7.353
 9817POPC   NC361283  44.700   4.320   5.553
 9817POPC   PO461284  44.686   4.341   5.853
 9817POPC   GL161285  44.679   4.321   6.153
 9817POPC   GL261286  44.743   4.409   6.153
 9817POPC   C1A61287  44.649   4.311   6.453
 9817POPC   D2A61288  44.681   4.335   6.753
 9817POPC   C3A61289  44.673   4.334   7.053
 9817POPC   C4A61290  44.613   4.349   7.353
 9817POPC   C1B61291  44.805   4.464   6.453
 9817POPC   C2B61292  44.849   4.460   6.753
 9817POPC   C3B61293  44.865   4.509   7.053
 9817POPC   C4B61294  44.804   4.472   7.353
 9818POPC   NC361295  35.397  36.080   5.553
 9818POPC   PO461296  35.368  36.155   5.853
 9818POPC   GL161297  35.323  36.156   6.153
 9818POPC   GL261298  35.259  36.002   6.153
 9818POPC   C1A61299  35.368  36.131   6.453
 9818POPC   D2A61300  35.372  36.128   6.753
 9818POPC   C3A61301  35.303  36.157   7.053
 9818POPC   C4A61302  35.327  36.113   7.353
 9818POPC   C1B61303  35.278  35.910   6.453
 9818POPC   C2B61304  35.242  35.908   6.753
 9818POPC   C3B61305  35.266  35.915   7.053
 9818POPC   C4B61306  35.236  35.937   7.353
 9819POPC   NC361307  22.891  15.155   5.553
 9819POPC   PO461308  22.976  15.165   5.853
 9819POPC   GL161309  22.929  15.138   6.153
 9819POPC   GL261310  22.807  15.215   6.153
 9819POPC   C1A61311  22.919  15.166   6.453
 9819POPC   D2A61312  22.941  15.151   6.753
 9819POPC   C3A61313  22.908  15.210   7.053
 9819POPC   C4A61314  22.936  15.202   7.353
 9819POPC   C1B61315  22.741  15.322   6.453
 9819POPC   C2B61316  22.754  15.382   6.753
 9819POPC   C3B61317  22.757  15.369   7.053
 9819POPC   C4B61318  22.763  15.343   7.353
 9820POPC   NC361319  33.802  29.956   5.553
 9820POPC   PO461320  33.774  29.880   5.853
 9820POPC   GL161321  33.820  29.879   6.153
 9820POPC   GL261322  33.648  30.003   6.153
 9820POPC   C1A61323  33.843  29.904   6.453
 9820POPC   D2A61324  33.790  29.913   6.753
 9820POPC   C3A61325  33.812  29.914   7.053
 9820POPC   C4A61326  33.753  29.957   7.353
 9820POPC   C1B61327  33.542  30.026   6.453
 9820POPC   C2B61328  33.597  29.974   6.753
 9820POPC   C3B61329  33.568  30.015   7.053
 9820POPC   C4B61330  33.566  30.008   7.353
 9821POPC   NC361331  41.554   8.214   5.553
 9821POPC   PO461332  41.510   8.168   5.853
 9821POPC   GL161333  41.563   8.164   6.153
 9821POPC   GL261334  41.557   8.299   6.153
 9821POPC   C1A61335  41.575   8.166   6.453
 9821POPC   D2A61336  41.515   8.236   6.753
 9821POPC   C3A61337  41.604   8.231   7.053
 9821POPC   C4A61338  41.556   8.221   7.353
 9821POPC   C1B61339  41.483   8.472   6.453
 9821POPC   C2B61340  41.474   8.462   6.753
 9821POPC   C3B61341  41.449   8.434   7.053
 9821POPC   C4B61342  41.497   8.421   7.353
 9822POPC   NC361343  40.042   1.166   5.553
 9822POPC   PO461344  40.029   1.261   5.853
 9822POPC   GL161345  40.052   1.259   6.153
 9822POPC   GL261346  39.890   1.238   6.153
 9822POPC   C1A61347  40.027   1.235   6.453
 9822POPC   D2A61348  39.987   1.173   6.753
 9822POPC   C3A61349  40.055   1.197   7.053
 9822POPC   C4A61350  39.972   1.232   7.353
 9822POPC   C1B61351  39.724   1.172   6.453
 9822POPC   C2B61352  39.782   1.213   6.753
 9822POPC   C3B61353  39.787   1.183   7.053
 9822POPC   C4B61354  39.754   1.206   7.353
 9823POPC   NC361355  39.241  29.169   5.553
 9823POPC   PO461356  39.278  29.116   5.853
 9823POPC   GL161357  39.263  29.157   6.153
 9823POPC   GL261358  39.339  29.078   6.153
 9823POPC   C1A61359  39.274  29.186   6.453
 9823POPC   D2A61360  39.242  29.146   6.753
 9823POPC   C3A61361  39.206  29.146   7.053
 9823POPC   C4A61362  39.191  29.158   7.353
 9823POPC   C1B61363  39.449  29.059   6.453
 9823POPC   C2B61364  39.440  29.020   6.753
 9823POPC   C3B61365  39.430  29.015   7.053
 9823POPC   C4B61366  39.506  29.063   7.353
 9824POPC   NC361367  40.019  10.571   5.553
 9824POPC   PO461368  40.010  10.521   5.853
 9824POPC   GL161369  40.048  10.518   6.153
 9824POPC   GL261370  39.921  10.442   6.153
 9824POPC   C1A61371  40.000  10.539   6.453
 9824POPC   D2A61372  39.969  10.516   6.753
 9824POPC   C3A61373  40.030  10.545   7.053
 9824POPC   C4A61374  39.999  10.528   7.353
 9824POPC   C1B61375  39.936  10.305   6.453
 9824POPC   C2B61376  39.931  10.330   6.753
 9824POPC   C3B61377  39.949  10.336   7.053
 9824POPC   C4B61378  39.942  10.331   7.353
 9825POPC   NC361379  43.136   7.400   5.553
 9825POPC   PO461380  43.065   7.429   5.853
 9825POPC   GL161381  43.132   7.402   6.153
 9825POPC   GL261382  43.039   7.325   6.153
 9825POPC   C1A61383  43.084   7.453   6.453
 9825POPC   D2A61384  43.088   7.436   6.753
 9825POPC   C3A61385  43.140   7.377   7.053
 9825POPC   C4A61386  43.150   7.380   7.353
 9825POPC   C1B61387  42.900   7.260   6.453
 9825POPC   C2B61388  42.843   7.296   6.753
 9825POPC   C3B61389  42.854   7.283   7.053
 9825POPC   C4B61390  42.891   7.298   7.353
 9826POPC   NC361391  36.145  14.447   5.553
 9826POPC   PO461392  36.168  14.442   5.853
 9826POPC   GL161393  36.097  14.406   6.153
 9826POPC   GL261394  36.260  14.391   6.153
 9826POPC   C1A61395  36.081  14.427   6.453
 9826POPC   D2A61396  36.097  14.446   6.753
 9826POPC   C3A61397  36.147  14.360   7.053
 9826POPC   C4A61398  36.130  14.363   7.353
 9826POPC   C1B61399  36.401  14.333   6.453
 9826POPC   C2B61400  36.408  14.308   6.753
 9826POPC   C3B61401  36.339  14.328   7.053
 9826POPC   C4B61402  36.317  14.340   7.353
 9827POPC   NC361403  17.499  35.320   5.553
 9827POPC   PO461404  17.489  35.381   5.853
 9827POPC   GL161405  17.543  35.310   6.153
 9827POPC   GL261406  17.498  35.520   6.153
 9827POPC   C1A61407  17.483  35.390   6.453
 9827POPC   D2A61408  17.525  35.327   6.753
 9827POPC   C3A61409  17.471  35.392   7.053
 9827POPC   C4A61410  17.460  35.328   7.353
 9827POPC   C1B61411  17.536  35.577   6.453
 9827POPC   C2B61412  17.547  35.641   6.753
 9827POPC   C3B61413  17.583  35.646   7.053
 9827POPC   C4B61414  17.558  35.616   7.353
 9828POPC   NC361415  39.977  41.516   5.553
 9828POPC   PO461416  39.963  41.522   5.853
 9828POPC   GL161417  40.049  41.595   6.153
 9828POPC   GL261418  40.003  41.407   6.153
 9828POPC   C1A61419  40.022  41.520   6.453
 9828POPC   D2A61420  40.008  41.534   6.753
 9828POPC   C3A61421  39.993  41.595   7.053
 9828POPC   C4A61422  39.958  41.511   7.353
 9828POPC   C1B61423  39.892  41.282   6.453
 9828POPC   C2B61424  39.911  41.300   6.753
 9828POPC   C3B61425  39.968  41.353   7.053
 9828POPC   C4B61426  39.936  41.361   7.353
 9829POPC   NC361427   1.234  41.574   5.553
 9829POPC   PO461428   1.220  41.580   5.853
 9829POPC   GL161429   1.240  41.568   6.153
 9829POPC   GL261430   1.213  41.420   6.153
 9829POPC   C1A61431   1.229  41.574   6.453
 9829POPC   D2A61432   1.244  41.590   6.753
 9829POPC   C3A61433   1.212  41.569   7.053
 9829POPC   C4A61434   1.262  41.577   7.353
 9829POPC   C1B61435   1.323  41.285   6.453
 9829POPC   C2B61436   1.350  41.316   6.753
 9829POPC   C3B61437   1.324  41.328   7.053
 9829POPC   C4B61438   1.304  41.337   7.353
 9830POPC   NC361439  18.297  38.437   5.553
 9830POPC   PO461440  18.311  38.420   5.853
 9830POPC   GL161441  18.300  38.452   6.153
 9830POPC   GL261442  18.157  38.493   6.153
 9830POPC   C1A61443  18.286  38.409   6.453
 9830POPC   D2A61444  18.300  38.408   6.753
 9830POPC   C3A61445  18.263  38.469   7.053
 9830POPC   C4A61446  18.286  38.416   7.353
 9830POPC   C1B61447  18.027  38.474   6.453
 9830POPC   C2B61448  18.000  38.483   6.753
 9830POPC   C3B61449  18.023  38.457   7.053
 9830POPC   C4B61450  18.074  38.403   7.353
 9831POPC   NC361451  43.891   5.872   5.553
 9831POPC   PO461452  43.926   5.890   5.853
 9831POPC   GL161453  43.880   5.838   6.153
 9831POPC   GL261454  43.789   5.800   6.153
 9831POPC   C1A61455  43.838   5.837   6.453
 9831POPC   D2A61456  43.917   5.870   6.753
 9831POPC   C3A61457  43.880   5.841   7.053
 9831POPC   C4A61458  43.839   5.827   7.353
 9831POPC   C1B61459  43.628   5.747   6.453
 9831POPC   C2B61460  43.658   5.724   6.753
 9831POPC   C3B61461  43.627   5.733   7.053
 9831POPC   C4B61462  43.654   5.811   7.353
 9832POPC   NC361463  30.661  11.344   5.553
 9832POPC   PO461464  30.743  11.298   5.853
 9832POPC   GL161465  30.708  11.319   6.153
 9832POPC   GL261466  30.771  11.310   6.153
 9832POPC   C1A61467  30.707  11.287   6.453
 9832POPC   D2A61468  30.730  11.255   6.753
 9832POPC   C3A61469  30.698  11.321   7.053
 9832POPC   C4A61470  30.651  11.306   7.353
 9832POPC   C1B61471  30.922  11.380   6.453
 9832POPC   C2B61472  30.900  11.370   6.753
 9832POPC   C3B61473  30.940  11.425   7.053
 9832POPC   C4B61474  30.931  11.417   7.353
 9833POPC   NC361475  13.602  22.901   5.553
 9833POPC   PO461476  13.584  22.944   5.853
 9833POPC   GL161477  13.592  22.920   6.153
 9833POPC   GL261478  13.596  22.837   6.153
 9833POPC   C1A61479  13.603  22.985   6.453
 9833POPC   D2A61480  13.641  22.911   6.753
 9833POPC   C3A61481  13.640  22.917   7.053
 9833POPC   C4A61482  13.653  22.922   7.353
 9833POPC   C1B61483  13.638  22.723   6.453
 9833POPC   C2B61484  13.667  22.640   6.753
 9833POPC   C3B61485  13.640  22.654   7.053
 9833POPC   C4B61486  13.639  22.720   7.353
 9834POPC   NC361487  27.558  42.382   5.553
 9834POPC   PO461488  27.607  42.355   5.853
 9834POPC   GL161489  27.564  42.337   6.153
 9834POPC   GL261490  27.535  42.193   6.153
 9834POPC   C1A61491  27.564  42.309   6.453
 9834POPC   D2A61492  27.566  42.377   6.753
 9834POPC   C3A61493  27.635  42.325   7.053
 9834POPC   C4A61494  27.629  42.306   7.353
 9834POPC   C1B61495  27.468  42.144   6.453
 9834POPC   C2B61496  27.436  42.124   6.753
 9834POPC   C3B61497  27.490  42.164   7.053
 9834POPC   C4B61498  27.426  42.115   7.353
 9835POPC   NC361499   5.098  40.747   5.553
 9835POPC   PO461500   5.084  40.741   5.853
 9835POPC   GL161501   5.131  40.762   6.153
 9835POPC   GL261502   5.150  40.667   6.153
 9835POPC   C1A61503   5.045  40.736   6.453
 9835POPC   D2A61504   5.056  40.791   6.753
 9835POPC   C3A61505   5.105  40.793   7.053
 9835POPC   C4A61506   5.114  40.826   7.353
 9835POPC   C1B61507   5.274  40.654   6.453
 9835POPC   C2B61508   5.342  40.615   6.753
 9835POPC   C3B61509   5.273  40.629   7.053
 9835POPC   C4B61510   5.314  40.603   7.353
 9836POPC   NC361511  34.537  36.119   5.553
 9836POPC   PO461512  34.573  36.156   5.853
 9836POPC   GL161513  34.625  36.171   6.153
 9836POPC   GL261514  34.647  36.247   6.153
 9836POPC   C1A61515  34.618  36.160   6.453
 9836POPC   D2A61516  34.583  36.134   6.753
 9836POPC   C3A61517  34.529  36.081   7.053
 9836POPC   C4A61518  34.562  36.130   7.353
 9836POPC   C1B61519  34.740  36.317   6.453
 9836POPC   C2B61520  34.718  36.354   6.753
 9836POPC   C3B61521  34.715  36.380   7.053
 9836POPC   C4B61522  34.760  36.299   7.353
 9837POPC   NC361523  21.419  30.697   5.553
 9837POPC   PO461524  21.380  30.739   5.853
 9837POPC   GL161525  21.344  30.691   6.153
 9837POPC   GL261526  21.445  30.562   6.153
 9837POPC   C1A61527  21.402  30.743   6.453
 9837POPC   D2A61528  21.386  30.658   6.753
 9837POPC   C3A61529  21.368  30.709   7.053
 9837POPC   C4A61530  21.402  30.647   7.353
 9837POPC   C1B61531  21.403  30.452   6.453
 9837POPC   C2B61532  21.382  30.469   6.753
 9837POPC   C3B61533  21.463  30.467   7.053
 9837POPC   C4B61534  21.389  30.453   7.353
 9838POPC   NC361535  33.783  30.662   5.553
 9838POPC   PO461536  33.849  30.664   5.853
 9838POPC   GL161537  33.790  30.732   6.153
 9838POPC   GL261538  33.932  30.792   6.153
 9838POPC   C1A61539  33.755  30.685   6.453
 9838POPC   D2A61540  33.771  30.723   6.753
 9838POPC   C3A61541  33.808  30.699   7.053
 9838POPC   C4A61542  33.799  30.685   7.353
 9838POPC   C1B61543  33.984  30.767   6.453
 9838POPC   C2B61544  34.026  30.811   6.753
 9838POPC   C3B61545  34.018  30.832   7.053
 9838POPC   C4B61546  34.001  30.842   7.353
 9839POPC   NC361547   6.605  33.009   5.553
 9839POPC   PO461548   6.633  32.989   5.853
 9839POPC   GL161549   6.632  33.057   6.153
 9839POPC   GL261550   6.727  33.163   6.153
 9839POPC   C1A61551   6.625  32.976   6.453
 9839POPC   D2A61552   6.609  33.017   6.753
 9839POPC   C3A61553   6.599  33.056   7.053
 9839POPC   C4A61554   6.678  33.034   7.353
 9839POPC   C1B61555   6.748  33.267   6.453
 9839POPC   C2B61556   6.694  33.299   6.753
 9839POPC   C3B61557   6.718  33.285   7.053
 9839POPC   C4B61558   6.736  33.298   7.353
 9840POPC   NC361559  43.090  13.645   5.553
 9840POPC   PO461560  43.090  13.660   5.853
 9840POPC   GL161561  43.111  13.645   6.153
 9840POPC   GL261562  43.018  13.679   6.153
 9840POPC   C1A61563  43.096  13.653   6.453
 9840POPC   D2A61564  43.063  13.593   6.753
 9840POPC   C3A61565  43.130  13.625   7.053
 9840POPC   C4A61566  43.101  13.607   7.353
 9840POPC   C1B61567  42.977  13.804   6.453
 9840POPC   C2B61568  42.916  13.764   6.753
 9840POPC   C3B61569  42.893  13.847   7.053
 9840POPC   C4B61570  42.893  13.802   7.353
 9841POPC   NC361571  37.662  44.702   5.553
 9841POPC   PO461572  37.630  44.686   5.853
 9841POPC   GL161573  37.718  44.620   6.153
 9841POPC   GL261574  37.739  44.526   6.153
 9841POPC   C1A61575  37.656  44.635   6.453
 9841POPC   D2A61576  37.695  44.634   6.753
 9841POPC   C3A61577  37.632  44.634   7.053
 9841POPC   C4A61578  37.675  44.643   7.353
 9841POPC   C1B61579  37.760  44.448   6.453
 9841POPC   C2B61580  37.796  44.411   6.753
 9841POPC   C3B61581  37.754  44.408   7.053
 9841POPC   C4B61582  37.811  44.433   7.353
 9842POPC   NC361583   9.783  25.296   5.553
 9842POPC   PO461584   9.765  25.254   5.853
 9842POPC   GL161585   9.775  25.265   6.153
 9842POPC   GL261586   9.705  25.395   6.153
 9842POPC   C1A61587   9.765  25.287   6.453
 9842POPC   D2A61588   9.731  25.297   6.753
 9842POPC   C3A61589   9.733  25.296   7.053
 9842POPC   C4A61590   9.790  25.274   7.353
 9842POPC   C1B61591   9.684  25.518   6.453
 9842POPC   C2B61592   9.707  25.550   6.753
 9842POPC   C3B61593   9.696  25.555   7.053
 9842POPC   C4B61594   9.669  25.492   7.353
 9843POPC   NC361595  13.593  11.323   5.553
 9843POPC   PO461596  13.675  11.297   5.853
 9843POPC   GL161597  13.580  11.345   6.153
 9843POPC   GL261598  13.512  11.220   6.153
 9843POPC   C1A61599  13.619  11.315   6.453
 9843POPC   D2A61600  13.646  11.349   6.753
 9843POPC   C3A61601  13.611  11.269   7.053
 9843POPC   C4A61602  13.652  11.323   7.353
 9843POPC   C1B61603  13.444  11.107   6.453
 9843POPC   C2B61604  13.533  11.080   6.753
 9843POPC   C3B61605  13.486  11.044   7.053
 9843POPC   C4B61606  13.459  11.060   7.353
 9844POPC   NC361607  10.560  38.486   5.553
 9844POPC   PO461608  10.572  38.441   5.853
 9844POPC   GL161609  10.556  38.499   6.153
 9844POPC   GL261610  10.410  38.425   6.153
 9844POPC   C1A61611  10.542  38.499   6.453
 9844POPC   D2A61612  10.545  38.416   6.753
 9844POPC   C3A61613  10.518  38.493   7.053
 9844POPC   C4A61614  10.553  38.460   7.353
 9844POPC   C1B61615  10.279  38.332   6.453
 9844POPC   C2B61616  10.324  38.370   6.753
 9844POPC   C3B61617  10.295  38.388   7.053
 9844POPC   C4B61618  10.290  38.298   7.353
 9845POPC   NC361619  42.360  27.597   5.553
 9845POPC   PO461620  42.295  27.553   5.853
 9845POPC   GL161621  42.384  27.544   6.153
 9845POPC   GL261622  42.261  27.678   6.153
 9845POPC   C1A61623  42.331  27.632   6.453
 9845POPC   D2A61624  42.366  27.551   6.753
 9845POPC   C3A61625  42.322  27.615   7.053
 9845POPC   C4A61626  42.288  27.553   7.353
 9845POPC   C1B61627  42.119  27.694   6.453
 9845POPC   C2B61628  42.116  27.722   6.753
 9845POPC   C3B61629  42.154  27.705   7.053
 9845POPC   C4B61630  42.066  27.670   7.353
 9846POPC   NC361631  12.055  29.967   5.553
 9846POPC   PO461632  12.069  29.942   5.853
 9846POPC   GL161633  12.123  29.883   6.153
 9846POPC   GL261634  12.171  30.036   6.153
 9846POPC   C1A61635  12.107  29.937   6.453
 9846POPC   D2A61636  12.106  29.963   6.753
 9846POPC   C3A61637  12.062  29.918   7.053
 9846POPC   C4A61638  12.119  29.955   7.353
 9846POPC   C1B61639  12.316  30.042   6.453
 9846POPC   C2B61640  12.318  30.115   6.753
 9846POPC   C3B61641  12.291  30.033   7.053
 9846POPC   C4B61642  12.251  30.106   7.353
 9847POPC   NC361643  43.855  17.546   5.553
 9847POPC   PO461644  43.885  17.542   5.853
 9847POPC   GL161645  43.890  17.535   6.153
 9847POPC   GL261646  44.028  17.557   6.153
 9847POPC   C1A61647  43.900  17.485   6.453
 9847POPC   D2A61648  43.925  17.501   6.753
 9847POPC   C3A61649  43.917  17.490   7.053
 9847POPC   C4A61650  43.872  17.545   7.353
 9847POPC   C1B61651  44.050  17.648   6.453
 9847POPC   C2B61652  44.094  17.609   6.753
 9847POPC   C3B61653  44.039  17.620   7.053
 9847POPC   C4B61654  44.104  17.663   7.353
 9848POPC   NC361655  39.241  22.156   5.553
 9848POPC   PO461656  39.203  22.194   5.853
 9848POPC   GL161657  39.204  22.172   6.153
 9848POPC   GL261658  39.221  21.990   6.153
 9848POPC   C1A61659  39.270  22.132   6.453
 9848POPC   D2A61660  39.254  22.128   6.753
 9848POPC   C3A61661  39.244  22.176   7.053
 9848POPC   C4A61662  39.203  22.141   7.353
 9848POPC   C1B61663  39.206  21.953   6.453
 9848POPC   C2B61664  39.224  21.872   6.753
 9848POPC   C3B61665  39.259  21.883   7.053
 9848POPC   C4B61666  39.210  21.897   7.353
 9849POPC   NC361667  43.063  17.549   5.553
 9849POPC   PO461668  43.159  17.528   5.853
 9849POPC   GL161669  43.141  17.540   6.153
 9849POPC   GL261670  43.096  17.406   6.153
 9849POPC   C1A61671  43.086  17.531   6.453
 9849POPC   D2A61672  43.138  17.500   6.753
 9849POPC   C3A61673  43.122  17.550   7.053
 9849POPC   C4A61674  43.120  17.509   7.353
 9849POPC   C1B61675  43.067  17.239   6.453
 9849POPC   C2B61676  43.004  17.250   6.753
 9849POPC   C3B61677  43.069  17.289   7.053
 9849POPC   C4B61678  43.042  17.287   7.353
 9850POPC   NC361679  19.025  41.513   5.553
 9850POPC   PO461680  19.023  41.551   5.853
 9850POPC   GL161681  19.033  41.557   6.153
 9850POPC   GL261682  18.929  41.633   6.153
 9850POPC   C1A61683  19.049  41.574   6.453
 9850POPC   D2A61684  19.009  41.513   6.753
 9850POPC   C3A61685  19.022  41.583   7.053
 9850POPC   C4A61686  19.071  41.519   7.353
 9850POPC   C1B61687  18.858  41.666   6.453
 9850POPC   C2B61688  18.782  41.618   6.753
 9850POPC   C3B61689  18.834  41.635   7.053
 9850POPC   C4B61690  18.838  41.625   7.353
 9851POPC   NC361691  33.838  11.305   5.553
 9851POPC   PO461692  33.795  11.314   5.853
 9851POPC   GL161693  33.837  11.270   6.153
 9851POPC   GL261694  33.738  11.392   6.153
 9851POPC   C1A61695  33.825  11.315   6.453
 9851POPC   D2A61696  33.846  11.316   6.753
 9851POPC   C3A61697  33.797  11.310   7.053
 9851POPC   C4A61698  33.760  11.311   7.353
 9851POPC   C1B61699  33.647  11.470   6.453
 9851POPC   C2B61700  33.592  11.441   6.753
 9851POPC   C3B61701  33.620  11.461   7.053
 9851POPC   C4B61702  33.658  11.498   7.353
 9852POPC   NC361703  39.225   0.460   5.553
 9852POPC   PO461704  39.202   0.451   5.853
 9852POPC   GL161705  39.202   0.466   6.153
 9852POPC   GL261706  39.148   0.280   6.153
 9852POPC   C1A61707  39.187   0.391   6.453
 9852POPC   D2A61708  39.192   0.415   6.753
 9852POPC   C3A61709  39.256   0.402   7.053
 9852POPC   C4A61710  39.236   0.475   7.353
 9852POPC   C1B61711  39.163   0.174   6.453
 9852POPC   C2B61712  39.152   0.245   6.753
 9852POPC   C3B61713  39.084   0.228   7.053
 9852POPC   C4B61714  39.083   0.205   7.353
 9853POPC   NC361715  34.579  15.906   5.553
 9853POPC   PO461716  34.601  15.982   5.853
 9853POPC   GL161717  34.569  15.986   6.153
 9853POPC   GL261718  34.629  15.884   6.153
 9853POPC   C1A61719  34.548  15.928   6.453
 9853POPC   D2A61720  34.542  15.912   6.753
 9853POPC   C3A61721  34.589  15.988   7.053
 9853POPC   C4A61722  34.600  15.982   7.353
 9853POPC   C1B61723  34.746  15.715   6.453
 9853POPC   C2B61724  34.706  15.770   6.753
 9853POPC   C3B61725  34.749  15.777   7.053
 9853POPC   C4B61726  34.735  15.730   7.353
 9854POPC   NC361727   5.842  29.895   5.553
 9854POPC   PO461728   5.899  29.893   5.853
 9854POPC   GL161729   5.835  29.940   6.153
 9854POPC   GL261730   5.813  30.011   6.153
 9854POPC   C1A61731   5.843  29.949   6.453
 9854POPC   D2A61732   5.884  29.957   6.753
 9854POPC   C3A61733   5.904  29.872   7.053
 9854POPC   C4A61734   5.867  29.939   7.353
 9854POPC   C1B61735   5.688  30.129   6.453
 9854POPC   C2B61736   5.763  30.092   6.753
 9854POPC   C3B61737   5.724  30.095   7.053
 9854POPC   C4B61738   5.688  30.148   7.353
 9855POPC   NC361739   1.239  18.265   5.553
 9855POPC   PO461740   1.196  18.280   5.853
 9855POPC   GL161741   1.254  18.317   6.153
 9855POPC   GL261742   1.144  18.166   6.153
 9855POPC   C1A61743   1.251  18.298   6.453
 9855POPC   D2A61744   1.220  18.288   6.753
 9855POPC   C3A61745   1.229  18.263   7.053
 9855POPC   C4A61746   1.258  18.254   7.353
 9855POPC   C1B61747   1.202  18.083   6.453
 9855POPC   C2B61748   1.149  18.061   6.753
 9855POPC   C3B61749   1.161  18.048   7.053
 9855POPC   C4B61750   1.171  18.064   7.353
 9856POPC   NC361751  21.384  15.970   5.553
 9856POPC   PO461752  21.394  15.989   5.853
 9856POPC   GL161753  21.390  15.944   6.153
 9856POPC   GL261754  21.463  16.027   6.153
 9856POPC   C1A61755  21.350  15.981   6.453
 9856POPC   D2A61756  21.434  15.952   6.753
 9856POPC   C3A61757  21.379  15.915   7.053
 9856POPC   C4A61758  21.352  15.919   7.353
 9856POPC   C1B61759  21.578  16.058   6.453
 9856POPC   C2B61760  21.652  16.090   6.753
 9856POPC   C3B61761  21.622  16.091   7.053
 9856POPC   C4B61762  21.632  16.105   7.353
 9857POPC   NC361763  39.231   5.873   5.553
 9857POPC   PO461764  39.182   5.878   5.853
 9857POPC   GL161765  39.220   5.863   6.153
 9857POPC   GL261766  39.267   5.764   6.153
 9857POPC   C1A61767  39.272   5.871   6.453
 9857POPC   D2A61768  39.210   5.852   6.753
 9857POPC   C3A61769  39.252   5.867   7.053
 9857POPC   C4A61770  39.259   5.902   7.353
 9857POPC   C1B61771  39.347   5.610   6.453
 9857POPC   C2B61772  39.320   5.640   6.753
 9857POPC   C3B61773  39.298   5.613   7.053
 9857POPC   C4B61774  39.351   5.661   7.353
 9858POPC   NC361775  20.577   8.233   5.553
 9858POPC   PO461776  20.576   8.217   5.853
 9858POPC   GL161777  20.658   8.165   6.153
 9858POPC   GL261778  20.457   8.153   6.153
 9858POPC   C1A61779  20.637   8.194   6.453
 9858POPC   D2A61780  20.644   8.184   6.753
 9858POPC   C3A61781  20.609   8.197   7.053
 9858POPC   C4A61782  20.568   8.161   7.353
 9858POPC   C1B61783  20.384   8.198   6.453
 9858POPC   C2B61784  20.364   8.170   6.753
 9858POPC   C3B61785  20.359   8.204   7.053
 9858POPC   C4B61786  20.316   8.137   7.353
 9859POPC   NC361787  27.615  22.150   5.553
 9859POPC   PO461788  27.566  22.137   5.853
 9859POPC   GL161789  27.616  22.148   6.153
 9859POPC   GL261790  27.679  22.056   6.153
 9859POPC   C1A61791  27.567  22.183   6.453
 9859POPC   D2A61792  27.543  22.203   6.753
 9859POPC   C3A61793  27.568  22.175   7.053
 9859POPC   C4A61794  27.617  22.132   7.353
 9859POPC   C1B61795  27.743  22.038   6.453
 9859POPC   C2B61796  27.772  22.004   6.753
 9859POPC   C3B61797  27.744  21.984   7.053
 9859POPC   C4B61798  27.787  22.041   7.353
 9860POPC   NC361799   6.681  10.480   5.553
 9860POPC   PO461800   6.657  10.550   5.853
 9860POPC   GL161801   6.616  10.511   6.153
 9860POPC   GL261802   6.480  10.505   6.153
 9860POPC   C1A61803   6.682  10.538   6.453
 9860POPC   D2A61804   6.638  10.546   6.753
 9860POPC   C3A61805   6.682  10.570   7.053
 9860POPC   C4A61806   6.673  10.505   7.353
 9860POPC   C1B61807   6.438  10.523   6.453
 9860POPC   C2B61808   6.416  10.495   6.753
 9860POPC   C3B61809   6.384  10.532   7.053
 9860POPC   C4B61810   6.415  10.520   7.353
 9861POPC   NC361811  12.060  18.289   5.553
 9861POPC   PO461812  12.039  18.268   5.853
 9861POPC   GL161813  12.108  18.241   6.153
 9861POPC   GL261814  11.950  18.374   6.153
 9861POPC   C1A61815  12.052  18.326   6.453
 9861POPC   D2A61816  12.031  18.273   6.753
 9861POPC   C3A61817  12.092  18.284   7.053
 9861POPC   C4A61818  12.084  18.271   7.353
 9861POPC   C1B61819  11.889  18.429   6.453
 9861POPC   C2B61820  11.864  18.501   6.753
 9861POPC   C3B61821  11.916  18.429   7.053
 9861POPC   C4B61822  11.931  18.424   7.353
 9862POPC   NC361823   5.062  28.369   5.553
 9862POPC   PO461824   5.073  28.339   5.853
 9862POPC   GL161825   5.134  28.408   6.153
 9862POPC   GL261826   5.077  28.447   6.153
 9862POPC   C1A61827   5.143  28.325   6.453
 9862POPC   D2A61828   5.114  28.417   6.753
 9862POPC   C3A61829   5.088  28.397   7.053
 9862POPC   C4A61830   5.075  28.373   7.353
 9862POPC   C1B61831   5.105  28.630   6.453
 9862POPC   C2B61832   5.120  28.645   6.753
 9862POPC   C3B61833   5.110  28.665   7.053
 9862POPC   C4B61834   5.041  28.572   7.353
 9863POPC   NC361835  11.263  43.859   5.553
 9863POPC   PO461836  11.326  43.882   5.853
 9863POPC   GL161837  11.340  43.920   6.153
 9863POPC   GL261838  11.285  43.767   6.153
 9863POPC   C1A61839  11.295  43.915   6.453
 9863POPC   D2A61840  11.306  43.899   6.753
 9863POPC   C3A61841  11.315  43.847   7.053
 9863POPC   C4A61842  11.349  43.908   7.353
 9863POPC   C1B61843  11.295  43.675   6.453
 9863POPC   C2B61844  11.232  43.640   6.753
 9863POPC   C3B61845  11.272  43.605   7.053
 9863POPC   C4B61846  11.233  43.672   7.353
 9864POPC   NC361847  29.129  33.796   5.553
 9864POPC   PO461848  29.164  33.848   5.853
 9864POPC   GL161849  29.133  33.805   6.153
 9864POPC   GL261850  29.223  33.690   6.153
 9864POPC   C1A61851  29.098  33.815   6.453
 9864POPC   D2A61852  29.133  33.773   6.753
 9864POPC   C3A61853  29.179  33.789   7.053
 9864POPC   C4A61854  29.128  33.809   7.353
 9864POPC   C1B61855  29.303  33.579   6.453
 9864POPC   C2B61856  29.236  33.528   6.753
 9864POPC   C3B61857  29.296  33.620   7.053
 9864POPC   C4B61858  29.253  33.623   7.353
 9865POPC   NC361859  40.035  16.773   5.553
 9865POPC   PO461860  39.996  16.752   5.853
 9865POPC   GL161861  40.049  16.686   6.153
 9865POPC   GL261862  39.999  16.865   6.153
 9865POPC   C1A61863  39.973  16.752   6.453
 9865POPC   D2A61864  40.023  16.736   6.753
 9865POPC   C3A61865  39.973  16.769   7.053
 9865POPC   C4A61866  39.960  16.762   7.353
 9865POPC   C1B61867  39.866  16.964   6.453
 9865POPC   C2B61868  39.887  16.950   6.753
 9865POPC   C3B61869  39.892  16.937   7.053
 9865POPC   C4B61870  39.867  16.988   7.353
 9866POPC   NC361871  43.910  25.248   5.553
 9866POPC   PO461872  43.930  25.237   5.853
 9866POPC   GL161873  43.933  25.292   6.153
 9866POPC   GL261874  43.894  25.179   6.153
 9866POPC   C1A61875  43.936  25.285   6.453
 9866POPC   D2A61876  43.892  25.263   6.753
 9866POPC   C3A61877  43.935  25.243   7.053
 9866POPC   C4A61878  43.884  25.257   7.353
 9866POPC   C1B61879  43.851  25.039   6.453
 9866POPC   C2B61880  43.932  25.053   6.753
 9866POPC   C3B61881  43.909  25.056   7.053
 9866POPC   C4B61882  43.854  25.015   7.353
 9867POPC   NC361883  40.001   5.138   5.553
 9867POPC   PO461884  40.034   5.131   5.853
 9867POPC   GL161885  39.960   5.117   6.153
 9867POPC   GL261886  40.135   5.098   6.153
 9867POPC   C1A61887  40.040   5.053   6.453
 9867POPC   D2A61888  40.030   5.076   6.753
 9867POPC   C3A61889  40.032   5.110   7.053
 9867POPC   C4A61890  39.987   5.108   7.353
 9867POPC   C1B61891  40.270   5.106   6.453
 9867POPC   C2B61892  40.306   5.078   6.753
 9867POPC   C3B61893  40.233   5.091   7.053
 9867POPC   C4B61894  40.304   5.049   7.353
 9868POPC   NC361895  32.209  22.972   5.553
 9868POPC   PO461896  32.264  22.953   5.853
 9868POPC   GL161897  32.288  22.971   6.153
 9868POPC   GL261898  32.149  22.817   6.153
 9868POPC   C1A61899  32.269  22.986   6.453
 9868POPC   D2A61900  32.199  22.940   6.753
 9868POPC   C3A61901  32.277  22.924   7.053
 9868POPC   C4A61902  32.265  22.894   7.353
 9868POPC   C1B61903  32.088  22.732   6.453
 9868POPC   C2B61904  32.134  22.686   6.753
 9868POPC   C3B61905  32.146  22.733   7.053
 9868POPC   C4B61906  32.106  22.721   7.353
 9869POPC   NC361907   5.114  11.323   5.553
 9869POPC   PO461908   5.056  11.278   5.853
 9869POPC   GL161909   5.084  11.293   6.153
 9869POPC   GL261910   5.048  11.168   6.153
 9869POPC   C1A61911   5.118  11.254   6.453
 9869POPC   D2A61912   5.077  11.257   6.753
 9869POPC   C3A61913   5.080  11.262   7.053
 9869POPC   C4A61914   5.067  11.305   7.353
 9869POPC   C1B61915   5.012  11.057   6.453
 9869POPC   C2B61916   5.050  11.055   6.753
 9869POPC   C3B61917   5.035  11.078   7.053
 9869POPC   C4B61918   5.035  11.016   7.353
 9870POPC   NC361919  23.760  43.088   5.553
 9870POPC   PO461920  23.730  43.148   5.853
 9870POPC   GL161921  23.680  43.080   6.153
 9870POPC   GL261922  23.611  43.182   6.153
 9870POPC   C1A61923  23.722  43.125   6.453
 9870POPC   D2A61924  23.672  43.109   6.753
 9870POPC   C3A61925  23.693  43.122   7.053
 9870POPC   C4A61926  23.735  43.085   7.353
 9870POPC   C1B61927  23.642  43.336   6.453
 9870POPC   C2B61928  23.636  43.291   6.753
 9870POPC   C3B61929  23.558  43.282   7.053
 9870POPC   C4B61930  23.567  43.330   7.353
 9871POPC   NC361931  43.924  33.066   5.553
 9871POPC   PO461932  43.886  33.072   5.853
 9871POPC   GL161933  43.908  33.074   6.153
 9871POPC   GL261934  43.745  32.980   6.153
 9871POPC   C1A61935  43.923  32.981   6.453
 9871POPC   D2A61936  43.850  33.044   6.753
 9871POPC   C3A61937  43.866  33.055   7.053
 9871POPC   C4A61938  43.859  33.048   7.353
 9871POPC   C1B61939  43.650  32.966   6.453
 9871POPC   C2B61940  43.638  32.998   6.753
 9871POPC   C3B61941  43.646  32.918   7.053
 9871POPC   C4B61942  43.644  32.939   7.353
 9872POPC   NC361943  43.936  10.496   5.553
 9872POPC   PO461944  43.921  10.542   5.853
 9872POPC   GL161945  43.921  10.516   6.153
 9872POPC   GL261946  43.972  10.664   6.153
 9872POPC   C1A61947  43.927  10.564   6.453
 9872POPC   D2A61948  43.915  10.487   6.753
 9872POPC   C3A61949  43.934  10.572   7.053
 9872POPC   C4A61950  43.837  10.475   7.353
 9872POPC   C1B61951  44.080  10.733   6.453
 9872POPC   C2B61952  44.034  10.677   6.753
 9872POPC   C3B61953  44.053  10.731   7.053
 9872POPC   C4B61954  44.022  10.675   7.353
 9873POPC   NC361955  14.397  36.855   5.553
 9873POPC   PO461956  14.387  36.935   5.853
 9873POPC   GL161957  14.407  36.886   6.153
 9873POPC   GL261958  14.442  37.069   6.153
 9873POPC   C1A61959  14.367  36.885   6.453
 9873POPC   D2A61960  14.404  36.904   6.753
 9873POPC   C3A61961  14.433  36.888   7.053
 9873POPC   C4A61962  14.402  36.947   7.353
 9873POPC   C1B61963  14.500  37.097   6.453
 9873POPC   C2B61964  14.537  37.095   6.753
 9873POPC   C3B61965  14.505  37.152   7.053
 9873POPC   C4B61966  14.480  37.117   7.353
 9874POPC   NC361967  19.052  31.518   5.553
 9874POPC   PO461968  19.022  31.474   5.853
 9874POPC   GL161969  19.021  31.502   6.153
 9874POPC   GL261970  19.130  31.430   6.153
 9874POPC   C1A61971  19.044  31.466   6.453
 9874POPC   D2A61972  19.065  31.475   6.753
 9874POPC   C3A61973  19.075  31.520   7.053
 9874POPC   C4A61974  19.051  31.495   7.353
 9874POPC   C1B61975  19.271  31.300   6.453
 9874POPC   C2B61976  19.205  31.269   6.753
 9874POPC   C3B61977  19.269  31.318   7.053
 9874POPC   C4B61978  19.220  31.299   7.353
 9875POPC   NC361979  36.104  12.099   5.553
 9875POPC   PO461980  36.169  12.050   5.853
 9875POPC   GL161981  36.151  12.046   6.153
 9875POPC   GL261982  36.042  12.028   6.153
 9875POPC   C1A61983  36.157  12.053   6.453
 9875POPC   D2A61984  36.142  12.069   6.753
 9875POPC   C3A61985  36.121  12.032   7.053
 9875POPC   C4A61986  36.091  12.052   7.353
 9875POPC   C1B61987  35.925  11.979   6.453
 9875POPC   C2B61988  35.860  12.005   6.753
 9875POPC   C3B61989  35.885  11.999   7.053
 9875POPC   C4B61990  35.873  12.054   7.353
 9876POPC   NC361991  32.253   7.466   5.553
 9876POPC   PO461992  32.272   7.410   5.853
 9876POPC   GL161993  32.252   7.416   6.153
 9876POPC   GL261994  32.323   7.407   6.153
 9876POPC   C1A61995  32.278   7.371   6.453
 9876POPC   D2A61996  32.221   7.404   6.753
 9876POPC   C3A61997  32.260   7.437   7.053
 9876POPC   C4A61998  32.260   7.466   7.353
 9876POPC   C1B61999  32.510   7.312   6.453
 9876POPC   C2B62000  32.459   7.376   6.753
 9876POPC   C3B62001  32.528   7.355   7.053
 9876POPC   C4B62002  32.439   7.355   7.353
 9877POPC   NC362003  34.568  29.964   5.553
 9877POPC   PO462004  34.527  29.931   5.853
 9877POPC   GL162005  34.597  29.946   6.153
 9877POPC   GL262006  34.433  29.916   6.153
 9877POPC   C1A62007  34.612  29.920   6.453
 9877POPC   D2A62008  34.573  29.963   6.753
 9877POPC   C3A62009  34.604  29.888   7.053
 9877POPC   C4A62010  34.586  29.888   7.353
 9877POPC   C1B62011  34.366  29.982   6.453
 9877POPC   C2B62012  34.377  29.942   6.753
 9877POPC   C3B62013  34.375  29.995   7.053
 9877POPC   C4B62014  34.330  29.946   7.353
 9878POPC   NC362015  20.622   1.233   5.553
 9878POPC   PO462016  20.632   1.179   5.853
 9878POPC   GL162017  20.575   1.243   6.153
 9878POPC   GL262018  20.678   1.266   6.153
 9878POPC   C1A62019  20.644   1.209   6.453
 9878POPC   D2A62020  20.614   1.187   6.753
 9878POPC   C3A62021  20.594   1.170   7.053
 9878POPC   C4A62022  20.592   1.240   7.353
 9878POPC   C1B62023  20.827   1.297   6.453
 9878POPC   C2B62024  20.800   1.335   6.753
 9878POPC   C3B62025  20.855   1.359   7.053
 9878POPC   C4B62026  20.791   1.314   7.353
 9879POPC   NC362027  12.114   4.340   5.553
 9879POPC   PO462028  12.112   4.356   5.853
 9879POPC   GL162029  12.115   4.283   6.153
 9879POPC   GL262030  12.171   4.343   6.153
 9879POPC   C1A62031  12.035   4.324   6.453
 9879POPC   D2A62032  12.056   4.358   6.753
 9879POPC   C3A62033  12.039   4.299   7.053
 9879POPC   C4A62034  12.117   4.359   7.353
 9879POPC   C1B62035  12.255   4.502   6.453
 9879POPC   C2B62036  12.310   4.478   6.753
 9879POPC   C3B62037  12.237   4.428   7.053
 9879POPC   C4B62038  12.273   4.488   7.353
 9880POPC   NC362039   9.730  29.173   5.553
 9880POPC   PO462040   9.706  29.186   5.853
 9880POPC   GL162041   9.776  29.116   6.153
 9880POPC   GL262042   9.654  29.082   6.153
 9880POPC   C1A62043   9.777  29.170   6.453
 9880POPC   D2A62044   9.711  29.162   6.753
 9880POPC   C3A62045   9.711  29.125   7.053
 9880POPC   C4A62046   9.746  29.095   7.353
 9880POPC   C1B62047   9.642  28.906   6.453
 9880POPC   C2B62048   9.610  28.895   6.753
 9880POPC   C3B62049   9.606  28.901   7.053
 9880POPC   C4B62050   9.651  28.952   7.353
 9881POPC   NC362051  33.838  19.811   5.553
 9881POPC   PO462052  33.802  19.825   5.853
 9881POPC   GL162053  33.848  19.882   6.153
 9881POPC   GL262054  33.949  19.883   6.153
 9881POPC   C1A62055  33.792  19.827   6.453
 9881POPC   D2A62056  33.782  19.833   6.753
 9881POPC   C3A62057  33.759  19.827   7.053
 9881POPC   C4A62058  33.793  19.832   7.353
 9881POPC   C1B62059  34.069  19.901   6.453
 9881POPC   C2B62060  34.027  19.887   6.753
 9881POPC   C3B62061  34.031  19.914   7.053
 9881POPC   C4B62062  34.025  19.919   7.353
 9882POPC   NC362063   8.197  33.806   5.553
 9882POPC   PO462064   8.152  33.782   5.853
 9882POPC   GL162065   8.219  33.762   6.153
 9882POPC   GL262066   8.169  33.692   6.153
 9882POPC   C1A62067   8.207  33.814   6.453
 9882POPC   D2A62068   8.190  33.774   6.753
 9882POPC   C3A62069   8.227  33.769   7.053
 9882POPC   C4A62070   8.209  33.816   7.353
 9882POPC   C1B62071   8.144  33.567   6.453
 9882POPC   C2B62072   8.167  33.556   6.753
 9882POPC   C3B62073   8.195  33.571   7.053
 9882POPC   C4B62074   8.166  33.506   7.353
 9883POPC   NC362075   2.780  13.591   5.553
 9883POPC   PO462076   2.751  13.646   5.853
 9883POPC   GL162077   2.725  13.594   6.153
 9883POPC   GL262078   2.755  13.742   6.153
 9883POPC   C1A62079   2.811  13.656   6.453
 9883POPC   D2A62080   2.780  13.619   6.753
 9883POPC   C3A62081   2.761  13.630   7.053
 9883POPC   C4A62082   2.785  13.610   7.353
 9883POPC   C1B62083   2.855  13.911   6.453
 9883POPC   C2B62084   2.838  13.821   6.753
 9883POPC   C3B62085   2.828  13.875   7.053
 9883POPC   C4B62086   2.875  13.890   7.353
 9884POPC   NC362087  19.078  37.670   5.553
 9884POPC   PO462088  19.045  37.709   5.853
 9884POPC   GL162089  19.035  37.652   6.153
 9884POPC   GL262090  19.148  37.804   6.153
 9884POPC   C1A62091  19.083  37.660   6.453
 9884POPC   D2A62092  19.083  37.696   6.753
 9884POPC   C3A62093  19.102  37.642   7.053
 9884POPC   C4A62094  19.019  37.657   7.353
 9884POPC   C1B62095  19.271  37.863   6.453
 9884POPC   C2B62096  19.260  37.860   6.753
 9884POPC   C3B62097  19.217  37.861   7.053
 9884POPC   C4B62098  19.282  37.879   7.353
 9885POPC   NC362099  10.518  13.651   5.553
 9885POPC   PO462100  10.524  13.624   5.853
 9885POPC   GL162101  10.500  13.605   6.153
 9885POPC   GL262102  10.513  13.773   6.153
 9885POPC   C1A62103  10.511  13.652   6.453
 9885POPC   D2A62104  10.517  13.673   6.753
 9885POPC   C3A62105  10.519  13.666   7.053
 9885POPC   C4A62106  10.496  13.600   7.353
 9885POPC   C1B62107  10.392  13.882   6.453
 9885POPC   C2B62108  10.379  13.871   6.753
 9885POPC   C3B62109  10.435  13.849   7.053
 9885POPC   C4B62110  10.420  13.802   7.353
 9886POPC   NC362111  19.814  14.436   5.553
 9886POPC   PO462112  19.825  14.360   5.853
 9886POPC   GL162113  19.848  14.430   6.153
 9886POPC   GL262114  19.932  14.437   6.153
 9886POPC   C1A62115  19.864  14.428   6.453
 9886POPC   D2A62116  19.836  14.427   6.753
 9886POPC   C3A62117  19.797  14.445   7.053
 9886POPC   C4A62118  19.802  14.442   7.353
 9886POPC   C1B62119  20.095  14.527   6.453
 9886POPC   C2B62120  20.088  14.494   6.753
 9886POPC   C3B62121  20.097  14.484   7.053
 9886POPC   C4B62122  20.059  14.530   7.353
 9887POPC   NC362123  43.897   8.207   5.553
 9887POPC   PO462124  43.914   8.183   5.853
 9887POPC   GL162125  43.888   8.206   6.153
 9887POPC   GL262126  43.761   8.081   6.153
 9887POPC   C1A62127  43.914   8.161   6.453
 9887POPC   D2A62128  43.919   8.175   6.753
 9887POPC   C3A62129  43.934   8.222   7.053
 9887POPC   C4A62130  43.887   8.171   7.353
 9887POPC   C1B62131  43.644   8.005   6.453
 9887POPC   C2B62132  43.692   8.053   6.753
 9887POPC   C3B62133  43.727   8.034   7.053
 9887POPC   C4B62134  43.660   8.047   7.353
 9888POPC   NC362135  43.858   1.204   5.553
 9888POPC   PO462136  43.844   1.190   5.853
 9888POPC   GL162137  43.928   1.238   6.153
 9888POPC   GL262138  43.992   1.196   6.153
 9888POPC   C1A62139  43.858   1.183   6.453
 9888POPC   D2A62140  43.874   1.215   6.753
 9888POPC   C3A62141  43.854   1.247   7.053
 9888POPC   C4A62142  43.913   1.224   7.353
 9888POPC   C1B62143  44.154   1.197   6.453
 9888POPC   C2B62144  44.098   1.198   6.753
 9888POPC   C3B62145  44.097   1.154   7.053
 9888POPC   C4B62146  44.162   1.138   7.353
 9889POPC   NC362147   0.483  38.451   5.553
 9889POPC   PO462148   0.406  38.411   5.853
 9889POPC   GL162149   0.409  38.480   6.153
 9889POPC   GL262150   0.324  38.584   6.153
 9889POPC   C1A62151   0.404  38.409   6.453
 9889POPC   D2A62152   0.422  38.498   6.753
 9889POPC   C3A62153   0.456  38.435   7.053
 9889POPC   C4A62154   0.471  38.441   7.353
 9889POPC   C1B62155   0.256  38.612   6.453
 9889POPC   C2B62156   0.315  38.615   6.753
 9889POPC   C3B62157   0.262  38.629   7.053
 9889POPC   C4B62158   0.310  38.594   7.353
 9890POPC   NC362159  20.630  42.362   5.553
 9890POPC   PO462160  20.614  42.334   5.853
 9890POPC   GL162161  20.654  42.314   6.153
 9890POPC   GL262162  20.461  42.288   6.153
 9890POPC   C1A62163  20.563  42.379   6.453
 9890POPC   D2A62164  20.636  42.379   6.753
 9890POPC   C3A62165  20.612  42.380   7.053
 9890POPC   C4A62166  20.650  42.369   7.353
 9890POPC   C1B62167  20.369  42.291   6.453
 9890POPC   C2B62168  20.327  42.288   6.753
 9890POPC   C3B62169  20.320  42.295   7.053
 9890POPC   C4B62170  20.350  42.315   7.353
 9891POPC   NC362171  41.531  36.105   5.553
 9891POPC   PO462172  41.568  36.118   5.853
 9891POPC   GL162173  41.553  36.152   6.153
 9891POPC   GL262174  41.454  36.234   6.153
 9891POPC   C1A62175  41.535  36.129   6.453
 9891POPC   D2A62176  41.509  36.157   6.753
 9891POPC   C3A62177  41.559  36.172   7.053
 9891POPC   C4A62178  41.558  36.162   7.353
 9891POPC   C1B62179  41.330  36.232   6.453
 9891POPC   C2B62180  41.376  36.242   6.753
 9891POPC   C3B62181  41.306  36.275   7.053
 9891POPC   C4B62182  41.358  36.242   7.353
 9892POPC   NC362183  13.616  21.355   5.553
 9892POPC   PO462184  13.611  21.346   5.853
 9892POPC   GL162185  13.579  21.370   6.153
 9892POPC   GL262186  13.686  21.310   6.153
 9892POPC   C1A62187  13.600  21.402   6.453
 9892POPC   D2A62188  13.647  21.342   6.753
 9892POPC   C3A62189  13.602  21.373   7.053
 9892POPC   C4A62190  13.669  21.379   7.353
 9892POPC   C1B62191  13.777  21.119   6.453
 9892POPC   C2B62192  13.768  21.158   6.753
 9892POPC   C3B62193  13.699  21.128   7.053
 9892POPC   C4B62194  13.763  21.122   7.353
 9893POPC   NC362195  29.193   0.469   5.553
 9893POPC   PO462196  29.156   0.403   5.853
 9893POPC   GL162197  29.134   0.457   6.153
 9893POPC   GL262198  29.231   0.414   6.153
 9893POPC   C1A62199  29.110   0.463   6.453
 9893POPC   D2A62200  29.175   0.435   6.753
 9893POPC   C3A62201  29.130   0.431   7.053
 9893POPC   C4A62202  29.137   0.472   7.353
 9893POPC   C1B62203  29.339   0.336   6.453
 9893POPC   C2B62204  29.424   0.307   6.753
 9893POPC   C3B62205  29.426   0.306   7.053
 9893POPC   C4B62206  29.411   0.390   7.353
 9894POPC   NC362207  39.267  10.494   5.553
 9894POPC   PO462208  39.236  10.535   5.853
 9894POPC   GL162209  39.260  10.550   6.153
 9894POPC   GL262210  39.119  10.425   6.153
 9894POPC   C1A62211  39.245  10.478   6.453
 9894POPC   D2A62212  39.242  10.501   6.753
 9894POPC   C3A62213  39.206  10.527   7.053
 9894POPC   C4A62214  39.214  10.520   7.353
 9894POPC   C1B62215  39.064  10.312   6.453
 9894POPC   C2B62216  39.091  10.336   6.753
 9894POPC   C3B62217  39.085  10.302   7.053
 9894POPC   C4B62218  39.095  10.308   7.353
 9895POPC   NC362219  11.260  37.707   5.553
 9895POPC   PO462220  11.254  37.665   5.853
 9895POPC   GL162221  11.295  37.699   6.153
 9895POPC   GL262222  11.157  37.726   6.153
 9895POPC   C1A62223  11.293  37.658   6.453
 9895POPC   D2A62224  11.280  37.710   6.753
 9895POPC   C3A62225  11.333  37.696   7.053
 9895POPC   C4A62226  11.316  37.661   7.353
 9895POPC   C1B62227  11.055  37.800   6.453
 9895POPC   C2B62228  11.082  37.768   6.753
 9895POPC   C3B62229  11.072  37.816   7.053
 9895POPC   C4B62230  11.062  37.751   7.353
 9896POPC   NC362231  39.960  42.302   5.553
 9896POPC   PO462232  40.025  42.324   5.853
 9896POPC   GL162233  39.971  42.350   6.153
 9896POPC   GL262234  39.933  42.236   6.153
 9896POPC   C1A62235  40.019  42.302   6.453
 9896POPC   D2A62236  39.964  42.293   6.753
 9896POPC   C3A62237  40.001  42.316   7.053
 9896POPC   C4A62238  40.042  42.341   7.353
 9896POPC   C1B62239  39.756  42.227   6.453
 9896POPC   C2B62240  39.812  42.270   6.753
 9896POPC   C3B62241  39.771  42.200   7.053
 9896POPC   C4B62242  39.832  42.272   7.353
 9897POPC   NC362243   8.211  19.802   5.553
 9897POPC   PO462244   8.179  19.859   5.853
 9897POPC   GL162245   8.206  19.835   6.153
 9897POPC   GL262246   8.194  19.952   6.153
 9897POPC   C1A62247   8.200  19.856   6.453
 9897POPC   D2A62248   8.231  19.873   6.753
 9897POPC   C3A62249   8.239  19.879   7.053
 9897POPC   C4A62250   8.154  19.872   7.353
 9897POPC   C1B62251   8.252  20.072   6.453
 9897POPC   C2B62252   8.337  20.099   6.753
 9897POPC   C3B62253   8.261  20.115   7.053
 9897POPC   C4B62254   8.285  20.081   7.353
 9898POPC   NC362255  37.632  15.928   5.553
 9898POPC   PO462256  37.671  15.952   5.853
 9898POPC   GL162257  37.710  15.984   6.153
 9898POPC   GL262258  37.817  15.868   6.153
 9898POPC   C1A62259  37.630  15.918   6.453
 9898POPC   D2A62260  37.641  15.929   6.753
 9898POPC   C3A62261  37.715  15.918   7.053
 9898POPC   C4A62262  37.673  15.966   7.353
 9898POPC   C1B62263  37.917  15.806   6.453
 9898POPC   C2B62264  37.898  15.868   6.753
 9898POPC   C3B62265  37.845  15.803   7.053
 9898POPC   C4B62266  37.928  15.854   7.353
 9899POPC   NC362267  29.924  27.578   5.553
 9899POPC   PO462268  29.911  27.591   5.853
 9899POPC   GL162269  29.889  27.565   6.153
 9899POPC   GL262270  29.805  27.579   6.153
 9899POPC   C1A62271  29.950  27.600   6.453
 9899POPC   D2A62272  29.876  27.565   6.753
 9899POPC   C3A62273  29.902  27.605   7.053
 9899POPC   C4A62274  29.897  27.598   7.353
 9899POPC   C1B62275  29.644  27.652   6.453
 9899POPC   C2B62276  29.707  27.634   6.753
 9899POPC   C3B62277  29.665  27.634   7.053
 9899POPC   C4B62278  29.672  27.645   7.353
 9900POPC   NC362279  38.452  19.854   5.553
 9900POPC   PO462280  38.432  19.805   5.853
 9900POPC   GL162281  38.421  19.817   6.153
 9900POPC   GL262282  38.356  19.996   6.153
 9900POPC   C1A62283  38.502  19.884   6.453
 9900POPC   D2A62284  38.433  19.825   6.753
 9900POPC   C3A62285  38.481  19.811   7.053
 9900POPC   C4A62286  38.428  19.859   7.353
 9900POPC   C1B62287  38.319  20.011   6.453
 9900POPC   C2B62288  38.382  20.064   6.753
 9900POPC   C3B62289  38.319  20.064   7.053
 9900POPC   C4B62290  38.343  20.100   7.353
 9901POPC   NC362291  12.124   7.401   5.553
 9901POPC   PO462292  12.065   7.438   5.853
 9901POPC   GL162293  12.059   7.452   6.153
 9901POPC   GL262294  12.239   7.512   6.153
 9901POPC   C1A62295  12.027   7.433   6.453
 9901POPC   D2A62296  12.121   7.382   6.753
 9901POPC   C3A62297  12.109   7.418   7.053
 9901POPC   C4A62298  12.117   7.396   7.353
 9901POPC   C1B62299  12.304   7.570   6.453
 9901POPC   C2B62300  12.297   7.497   6.753
 9901POPC   C3B62301  12.295   7.505   7.053
 9901POPC   C4B62302  12.271   7.514   7.353
 9902POPC   NC362303  26.068  23.732   5.553
 9902POPC   PO462304  26.014  23.711   5.853
 9902POPC   GL162305  26.061  23.749   6.153
 9902POPC   GL262306  26.177  23.689   6.153
 9902POPC   C1A62307  26.069  23.749   6.453
 9902POPC   D2A62308  26.032  23.754   6.753
 9902POPC   C3A62309  26.013  23.702   7.053
 9902POPC   C4A62310  26.090  23.710   7.353
 9902POPC   C1B62311  26.240  23.574   6.453
 9902POPC   C2B62312  26.244  23.552   6.753
 9902POPC   C3B62313  26.267  23.552   7.053
 9902POPC   C4B62314  26.208  23.609   7.353
 9903POPC   NC362315  39.987   4.351   5.553
 9903POPC   PO462316  40.008   4.290   5.853
 9903POPC   GL162317  40.016   4.305   6.153
 9903POPC   GL262318  39.966   4.241   6.153
 9903POPC   C1A62319  39.991   4.322   6.453
 9903POPC   D2A62320  40.030   4.359   6.753
 9903POPC   C3A62321  40.057   4.280   7.053
 9903POPC   C4A62322  39.978   4.292   7.353
 9903POPC   C1B62323  40.055   4.051   6.453
 9903POPC   C2B62324  40.029   4.059   6.753
 9903POPC   C3B62325  40.026   4.112   7.053
 9903POPC   C4B62326  40.049   4.034   7.353
 9904POPC   NC362327  41.509  22.185   5.553
 9904POPC   PO462328  41.599  22.202   5.853
 9904POPC   GL162329  41.521  22.195   6.153
 9904POPC   GL262330  41.526  22.266   6.153
 9904POPC   C1A62331  41.540  22.180   6.453
 9904POPC   D2A62332  41.548  22.137   6.753
 9904POPC   C3A62333  41.520  22.115   7.053
 9904POPC   C4A62334  41.546  22.156   7.353
 9904POPC   C1B62335  41.426  22.370   6.453
 9904POPC   C2B62336  41.451  22.365   6.753
 9904POPC   C3B62337  41.422  22.383   7.053
 9904POPC   C4B62338  41.486  22.402   7.353
 9905POPC   NC362339  20.625  43.158   5.553
 9905POPC   PO462340  20.584  43.143   5.853
 9905POPC   GL162341  20.594  43.083   6.153
 9905POPC   GL262342  20.682  43.193   6.153
 9905POPC   C1A62343  20.636  43.066   6.453
 9905POPC   D2A62344  20.572  43.103   6.753
 9905POPC   C3A62345  20.565  43.108   7.053
 9905POPC   C4A62346  20.649  43.110   7.353
 9905POPC   C1B62347  20.827  43.263   6.453
 9905POPC   C2B62348  20.801  43.293   6.753
 9905POPC   C3B62349  20.790  43.220   7.053
 9905POPC   C4B62350  20.830  43.229   7.353
 9906POPC   NC362351  17.539  38.429   5.553
 9906POPC   PO462352  17.457  38.447   5.853
 9906POPC   GL162353  17.480  38.416   6.153
 9906POPC   GL262354  17.511  38.564   6.153
 9906POPC   C1A62355  17.521  38.454   6.453
 9906POPC   D2A62356  17.496  38.421   6.753
 9906POPC   C3A62357  17.541  38.434   7.053
 9906POPC   C4A62358  17.469  38.412   7.353
 9906POPC   C1B62359  17.551  38.726   6.453
 9906POPC   C2B62360  17.501  38.705   6.753
 9906POPC   C3B62361  17.505  38.747   7.053
 9906POPC   C4B62362  17.513  38.706   7.353
 9907POPC   NC362363   2.027  41.598   5.553
 9907POPC   PO462364   2.009  41.583   5.853
 9907POPC   GL162365   1.993  41.592   6.153
 9907POPC   GL262366   2.084  41.661   6.153
 9907POPC   C1A62367   1.991  41.546   6.453
 9907POPC   D2A62368   1.941  41.550   6.753
 9907POPC   C3A62369   1.976  41.535   7.053
 9907POPC   C4A62370   2.037  41.531   7.353
 9907POPC   C1B62371   2.124  41.748   6.453
 9907POPC   C2B62372   2.126  41.770   6.753
 9907POPC   C3B62373   2.171  41.743   7.053
 9907POPC   C4B62374   2.166  41.763   7.353
 9908POPC   NC362375   7.382  26.015   5.553
 9908POPC   PO462376   7.385  26.024   5.853
 9908POPC   GL162377   7.389  26.007   6.153
 9908POPC   GL262378   7.273  26.165   6.153
 9908POPC   C1A62379   7.424  26.071   6.453
 9908POPC   D2A62380   7.416  26.024   6.753
 9908POPC   C3A62381   7.387  26.089   7.053
 9908POPC   C4A62382   7.470  26.080   7.353
 9908POPC   C1B62383   7.208  26.153   6.453
 9908POPC   C2B62384   7.272  26.186   6.753
 9908POPC   C3B62385   7.219  26.162   7.053
 9908POPC   C4B62386   7.272  26.205   7.353
 9909POPC   NC362387  43.145  32.271   5.553
 9909POPC   PO462388  43.129  32.201   5.853
 9909POPC   GL162389  43.125  32.276   6.153
 9909POPC   GL262390  43.217  32.292   6.153
 9909POPC   C1A62391  43.135  32.228   6.453
 9909POPC   D2A62392  43.130  32.244   6.753
 9909POPC   C3A62393  43.118  32.225   7.053
 9909POPC   C4A62394  43.143  32.278   7.353
 9909POPC   C1B62395  43.307  32.418   6.453
 9909POPC   C2B62396  43.352  32.394   6.753
 9909POPC   C3B62397  43.258  32.388   7.053
 9909POPC   C4B62398  43.352  32.385   7.353
 9910POPC   NC362399  34.617   8.956   5.553
 9910POPC   PO462400  34.569   8.981   5.853
 9910POPC   GL162401  34.615   8.965   6.153
 9910POPC   GL262402  34.569   8.900   6.153
 9910POPC   C1A62403  34.570   9.016   6.453
 9910POPC   D2A62404  34.578   8.944   6.753
 9910POPC   C3A62405  34.565   9.008   7.053
 9910POPC   C4A62406  34.596   8.984   7.353
 9910POPC   C1B62407  34.476   8.778   6.453
 9910POPC   C2B62408  34.430   8.739   6.753
 9910POPC   C3B62409  34.492   8.779   7.053
 9910POPC   C4B62410  34.511   8.696   7.353
 9911POPC   NC362411  35.377  16.688   5.553
 9911POPC   PO462412  35.351  16.716   5.853
 9911POPC   GL162413  35.369  16.689   6.153
 9911POPC   GL262414  35.412  16.691   6.153
 9911POPC   C1A62415  35.310  16.702   6.453
 9911POPC   D2A62416  35.306  16.720   6.753
 9911POPC   C3A62417  35.317  16.760   7.053
 9911POPC   C4A62418  35.350  16.758   7.353
 9911POPC   C1B62419  35.490  16.561   6.453
 9911POPC   C2B62420  35.551  16.580   6.753
 9911POPC   C3B62421  35.494  16.576   7.053
 9911POPC   C4B62422  35.522  16.606   7.353
 9912POPC   NC362423  11.266   7.390   5.553
 9912POPC   PO462424  11.297   7.416   5.853
 9912POPC   GL162425  11.313   7.386   6.153
 9912POPC   GL262426  11.288   7.556   6.153
 9912POPC   C1A62427  11.274   7.399   6.453
 9912POPC   D2A62428  11.258   7.428   6.753
 9912POPC   C3A62429  11.312   7.439   7.053
 9912POPC   C4A62430  11.326   7.373   7.353
 9912POPC   C1B62431  11.173   7.630   6.453
 9912POPC   C2B62432  11.176   7.623   6.753
 9912POPC   C3B62433  11.226   7.704   7.053
 9912POPC   C4B62434  11.185   7.663   7.353
 9913POPC   NC362435   1.250  40.798   5.553
 9913POPC   PO462436   1.216  40.773   5.853
 9913POPC   GL162437   1.167  40.793   6.153
 9913POPC   GL262438   1.308  40.712   6.153
 9913POPC   C1A62439   1.224  40.816   6.453
 9913POPC   D2A62440   1.238  40.744   6.753
 9913POPC   C3A62441   1.253  40.815   7.053
 9913POPC   C4A62442   1.183  40.817   7.353
 9913POPC   C1B62443   1.398  40.612   6.453
 9913POPC   C2B62444   1.416  40.625   6.753
 9913POPC   C3B62445   1.413  40.625   7.053
 9913POPC   C4B62446   1.363  40.645   7.353
 9914POPC   NC362447  41.521   2.762   5.553
 9914POPC   PO462448  41.581   2.788   5.853
 9914POPC   GL162449  41.538   2.765   6.153
 9914POPC   GL262450  41.694   2.700   6.153
 9914POPC   C1A62451  41.597   2.732   6.453
 9914POPC   D2A62452  41.594   2.806   6.753
 9914POPC   C3A62453  41.597   2.801   7.053
 9914POPC   C4A62454  41.535   2.743   7.353
 9914POPC   C1B62455  41.812   2.693   6.453
 9914POPC   C2B62456  41.786   2.689   6.753
 9914POPC   C3B62457  41.756   2.675   7.053
 9914POPC   C4B62458  41.787   2.681   7.353
 9915POPC   NC362459   9.020  25.224   5.553
 9915POPC   PO462460   8.959  25.237   5.853
 9915POPC   GL162461   8.964  25.222   6.153
 9915POPC   GL262462   9.089  25.195   6.153
 9915POPC   C1A62463   8.999  25.294   6.453
 9915POPC   D2A62464   8.931  25.227   6.753
 9915POPC   C3A62465   8.992  25.244   7.053
 9915POPC   C4A62466   9.004  25.258   7.353
 9915POPC   C1B62467   9.167  25.062   6.453
 9915POPC   C2B62468   9.111  25.050   6.753
 9915POPC   C3B62469   9.115  25.036   7.053
 9915POPC   C4B62470   9.101  25.027   7.353
 9916POPC   NC362471  40.032  20.594   5.553
 9916POPC   PO462472  40.049  20.628   5.853
 9916POPC   GL162473  39.999  20.632   6.153
 9916POPC   GL262474  40.137  20.503   6.153
 9916POPC   C1A62475  39.969  20.644   6.453
 9916POPC   D2A62476  40.006  20.620   6.753
 9916POPC   C3A62477  40.009  20.562   7.053
 9916POPC   C4A62478  39.981  20.621   7.353
 9916POPC   C1B62479  40.245  20.465   6.453
 9916POPC   C2B62480  40.219  20.485   6.753
 9916POPC   C3B62481  40.194  20.449   7.053
 9916POPC   C4B62482  40.236  20.500   7.353
 9917POPC   NC362483  20.624  37.666   5.553
 9917POPC   PO462484  20.617  37.708   5.853
 9917POPC   GL162485  20.615  37.716   6.153
 9917POPC   GL262486  20.680  37.602   6.153
 9917POPC   C1A62487  20.574  37.638   6.453
 9917POPC   D2A62488  20.658  37.671   6.753
 9917POPC   C3A62489  20.632  37.678   7.053
 9917POPC   C4A62490  20.648  37.650   7.353
 9917POPC   C1B62491  20.834  37.615   6.453
 9917POPC   C2B62492  20.851  37.636   6.753
 9917POPC   C3B62493  20.844  37.600   7.053
 9917POPC   C4B62494  20.897  37.570   7.353
 9918POPC   NC362495  11.259  40.736   5.553
 9918POPC   PO462496  11.313  40.758   5.853
 9918POPC   GL162497  11.338  40.767   6.153
 9918POPC   GL262498  11.409  40.680   6.153
 9918POPC   C1A62499  11.307  40.789   6.453
 9918POPC   D2A62500  11.345  40.734   6.753
 9918POPC   C3A62501  11.337  40.765   7.053
 9918POPC   C4A62502  11.250  40.814   7.353
 9918POPC   C1B62503  11.524  40.625   6.453
 9918POPC   C2B62504  11.525  40.638   6.753
 9918POPC   C3B62505  11.486  40.647   7.053
 9918POPC   C4B62506  11.528  40.589   7.353
 9919POPC   NC362507   5.076  42.304   5.553
 9919POPC   PO462508   5.080  42.304   5.853
 9919POPC   GL162509   5.109  42.295   6.153
 9919POPC   GL262510   5.216  42.368   6.153
 9919POPC   C1A62511   5.065  42.354   6.453
 9919POPC   D2A62512   5.091  42.353   6.753
 9919POPC   C3A62513   5.073  42.298   7.053
 9919POPC   C4A62514   5.142  42.312   7.353
 9919POPC   C1B62515   5.307  42.470   6.453
 9919POPC   C2B62516   5.310  42.400   6.753
 9919POPC   C3B62517   5.288  42.421   7.053
 9919POPC   C4B62518   5.366  42.402   7.353
 9920POPC   NC362519  34.618  12.101   5.553
 9920POPC   PO462520  34.619  12.069   5.853
 9920POPC   GL162521  34.614  12.032   6.153
 9920POPC   GL262522  34.408  12.061   6.153
 9920POPC   C1A62523  34.529  12.088   6.453
 9920POPC   D2A62524  34.574  12.054   6.753
 9920POPC   C3A62525  34.552  12.067   7.053
 9920POPC   C4A62526  34.625  12.084   7.353
 9920POPC   C1B62527  34.300  12.054   6.453
 9920POPC   C2B62528  34.285  12.032   6.753
 9920POPC   C3B62529  34.368  12.096   7.053
 9920POPC   C4B62530  34.371  12.104   7.353
 9921POPC   NC362531   3.566  12.027   5.553
 9921POPC   PO462532   3.495  12.116   5.853
 9921POPC   GL162533   3.560  12.106   6.153
 9921POPC   GL262534   3.697  12.039   6.153
 9921POPC   C1A62535   3.503  12.029   6.453
 9921POPC   D2A62536   3.538  12.084   6.753
 9921POPC   C3A62537   3.544  12.067   7.053
 9921POPC   C4A62538   3.529  12.065   7.353
 9921POPC   C1B62539   3.781  12.103   6.453
 9921POPC   C2B62540   3.744  12.052   6.753
 9921POPC   C3B62541   3.799  12.125   7.053
 9921POPC   C4B62542   3.795  12.074   7.353
 9922POPC   NC362543  44.651   3.532   5.553
 9922POPC   PO462544  44.658   3.499   5.853
 9922POPC   GL162545  44.645   3.555   6.153
 9922POPC   GL262546  44.667   3.441   6.153
 9922POPC   C1A62547  44.630   3.579   6.453
 9922POPC   D2A62548  44.683   3.552   6.753
 9922POPC   C3A62549  44.620   3.500   7.053
 9922POPC   C4A62550  44.671   3.528   7.353
 9922POPC   C1B62551  44.632   3.248   6.453
 9922POPC   C2B62552  44.611   3.252   6.753
 9922POPC   C3B62553  44.600   3.277   7.053
 9922POPC   C4B62554  44.591   3.301   7.353
 9923POPC   NC362555   1.200  39.203   5.553
 9923POPC   PO462556   1.260  39.206   5.853
 9923POPC   GL162557   1.212  39.259   6.153
 9923POPC   GL262558   1.200  39.117   6.153
 9923POPC   C1A62559   1.250  39.189   6.453
 9923POPC   D2A62560   1.170  39.250   6.753
 9923POPC   C3A62561   1.216  39.250   7.053
 9923POPC   C4A62562   1.184  39.188   7.353
 9923POPC   C1B62563   1.280  39.016   6.453
 9923POPC   C2B62564   1.278  38.976   6.753
 9923POPC   C3B62565   1.245  38.955   7.053
 9923POPC   C4B62566   1.218  38.992   7.353
 9924POPC   NC362567  42.302  25.260   5.553
 9924POPC   PO462568  42.297  25.306   5.853
 9924POPC   GL162569  42.367  25.285   6.153
 9924POPC   GL262570  42.430  25.121   6.153
 9924POPC   C1A62571  42.312  25.313   6.453
 9924POPC   D2A62572  42.362  25.233   6.753
 9924POPC   C3A62573  42.314  25.237   7.053
 9924POPC   C4A62574  42.321  25.276   7.353
 9924POPC   C1B62575  42.484  25.078   6.453
 9924POPC   C2B62576  42.491  25.065   6.753
 9924POPC   C3B62577  42.425  25.098   7.053
 9924POPC   C4B62578  42.506  25.079   7.353
 9925POPC   NC362579   9.015   8.172   5.553
 9925POPC   PO462580   8.964   8.219   5.853
 9925POPC   GL162581   8.962   8.168   6.153
 9925POPC   GL262582   8.947   8.113   6.153
 9925POPC   C1A62583   8.950   8.152   6.453
 9925POPC   D2A62584   8.956   8.192   6.753
 9925POPC   C3A62585   8.934   8.228   7.053
 9925POPC   C4A62586   8.935   8.233   7.353
 9925POPC   C1B62587   8.888   7.978   6.453
 9925POPC   C2B62588   8.823   7.940   6.753
 9925POPC   C3B62589   8.819   7.998   7.053
 9925POPC   C4B62590   8.853   7.938   7.353
 9926POPC   NC362591   9.742  30.700   5.553
 9926POPC   PO462592   9.709  30.744   5.853
 9926POPC   GL162593   9.767  30.680   6.153
 9926POPC   GL262594   9.712  30.813   6.153
 9926POPC   C1A62595   9.782  30.737   6.453
 9926POPC   D2A62596   9.755  30.702   6.753
 9926POPC   C3A62597   9.783  30.730   7.053
 9926POPC   C4A62598   9.785  30.668   7.353
 9926POPC   C1B62599   9.686  30.927   6.453
 9926POPC   C2B62600   9.712  30.907   6.753
 9926POPC   C3B62601   9.678  30.984   7.053
 9926POPC   C4B62602   9.634  30.909   7.353
 9927POPC   NC362603  34.561   7.417   5.553
 9927POPC   PO462604  34.575   7.431   5.853
 9927POPC   GL162605  34.615   7.413   6.153
 9927POPC   GL262606  34.704   7.389   6.153
 9927POPC   C1A62607  34.570   7.423   6.453
 9927POPC   D2A62608  34.592   7.462   6.753
 9927POPC   C3A62609  34.616   7.417   7.053
 9927POPC   C4A62610  34.593   7.386   7.353
 9927POPC   C1B62611  34.840   7.409   6.453
 9927POPC   C2B62612  34.807   7.315   6.753
 9927POPC   C3B62613  34.854   7.380   7.053
 9927POPC   C4B62614  34.831   7.355   7.353
 9928POPC   NC362615  36.864   1.165   5.553
 9928POPC   PO462616  36.909   1.193   5.853
 9928POPC   GL162617  36.913   1.247   6.153
 9928POPC   GL262618  37.036   1.179   6.153
 9928POPC   C1A62619  36.890   1.252   6.453
 9928POPC   D2A62620  36.857   1.169   6.753
 9928POPC   C3A62621  36.918   1.257   7.053
 9928POPC   C4A62622  36.916   1.239   7.353
 9928POPC   C1B62623  37.099   1.012   6.453
 9928POPC   C2B62624  37.088   1.026   6.753
 9928POPC   C3B62625  37.125   1.027   7.053
 9928POPC   C4B62626  37.071   1.017   7.353
 9929POPC   NC362627  15.925  25.283   5.553
 9929POPC   PO462628  15.990  25.291   5.853
 9929POPC   GL162629  15.992  25.316   6.153
 9929POPC   GL262630  15.838  25.259   6.153
 9929POPC   C1A62631  15.969  25.216   6.453
 9929POPC   D2A62632  15.954  25.313   6.753
 9929POPC   C3A62633  15.928  25.302   7.053
 9929POPC   C4A62634  15.960  25.275   7.353
 9929POPC   C1B62635  15.672  25.342   6.453
 9929POPC   C2B62636  15.671  25.261   6.753
 9929POPC   C3B62637  15.664  25.302   7.053
 9929POPC   C4B62638  15.670  25.342   7.353
 9930POPC   NC362639  28.405  25.304   5.553
 9930POPC   PO462640  28.409  25.304   5.853
 9930POPC   GL162641  28.359  25.263   6.153
 9930POPC   GL262642  28.262  25.315   6.153
 9930POPC   C1A62643  28.324  25.256   6.453
 9930POPC   D2A62644  28.324  25.245   6.753
 9930POPC   C3A62645  28.348  25.310   7.053
 9930POPC   C4A62646  28.369  25.285   7.353
 9930POPC   C1B62647  28.130  25.415   6.453
 9930POPC   C2B62648  28.129  25.371   6.753
 9930POPC   C3B62649  28.170  25.388   7.053
 9930POPC   C4B62650  28.180  25.338   7.353
 9931POPC   NC362651  43.891  16.705   5.553
 9931POPC   PO462652  43.880  16.710   5.853
 9931POPC   GL162653  43.867  16.724   6.153
 9931POPC   GL262654  43.760  16.729   6.153
 9931POPC   C1A62655  43.853  16.756   6.453
 9931POPC   D2A62656  43.876  16.692   6.753
 9931POPC   C3A62657  43.928  16.757   7.053
 9931POPC   C4A62658  43.901  16.754   7.353
 9931POPC   C1B62659  43.632  16.722   6.453
 9931POPC   C2B62660  43.656  16.652   6.753
 9931POPC   C3B62661  43.662  16.657   7.053
 9931POPC   C4B62662  43.621  16.661   7.353
 9932POPC   NC362663  19.828   7.399   5.553
 9932POPC   PO462664  19.805   7.374   5.853
 9932POPC   GL162665  19.836   7.463   6.153
 9932POPC   GL262666  19.939   7.502   6.153
 9932POPC   C1A62667  19.842   7.391   6.453
 9932POPC   D2A62668  19.786   7.417   6.753
 9932POPC   C3A62669  19.841   7.466   7.053
 9932POPC   C4A62670  19.834   7.432   7.353
 9932POPC   C1B62671  20.094   7.518   6.453
 9932POPC   C2B62672  20.089   7.597   6.753
 9932POPC   C3B62673  20.089   7.554   7.053
 9932POPC   C4B62674  20.010   7.516   7.353
 9933POPC   NC362675  33.766  15.950   5.553
 9933POPC   PO462676  33.812  15.976   5.853
 9933POPC   GL162677  33.775  15.984   6.153
 9933POPC   GL262678  33.895  15.874   6.153
 9933POPC   C1A62679  33.849  15.947   6.453
 9933POPC   D2A62680  33.834  15.974   6.753
 9933POPC   C3A62681  33.809  15.981   7.053
 9933POPC   C4A62682  33.773  15.967   7.353
 9933POPC   C1B62683  34.046  15.865   6.453
 9933POPC   C2B62684  34.069  15.900   6.753
 9933POPC   C3B62685  34.026  15.849   7.053
 9933POPC   C4B62686  34.070  15.865   7.353
 9934POPC   NC362687  29.141   3.555   5.553
 9934POPC   PO462688  29.135   3.583   5.853
 9934POPC   GL162689  29.113   3.568   6.153
 9934POPC   GL262690  29.035   3.506   6.153
 9934POPC   C1A62691  29.149   3.565   6.453
 9934POPC   D2A62692  29.095   3.530   6.753
 9934POPC   C3A62693  29.186   3.496   7.053
 9934POPC   C4A62694  29.102   3.572   7.353
 9934POPC   C1B62695  28.875   3.510   6.453
 9934POPC   C2B62696  28.933   3.528   6.753
 9934POPC   C3B62697  28.910   3.502   7.053
 9934POPC   C4B62698  28.888   3.515   7.353
 9935POPC   NC362699  11.328   0.410   5.553
 9935POPC   PO462700  11.256   0.441   5.853
 9935POPC   GL162701  11.269   0.481   6.153
 9935POPC   GL262702  11.462   0.485   6.153
 9935POPC   C1A62703  11.284   0.475   6.453
 9935POPC   D2A62704  11.265   0.435   6.753
 9935POPC   C3A62705  11.328   0.413   7.053
 9935POPC   C4A62706  11.298   0.470   7.353
 9935POPC   C1B62707  11.595   0.472   6.453
 9935POPC   C2B62708  11.574   0.499   6.753
 9935POPC   C3B62709  11.587   0.416   7.053
 9935POPC   C4B62710  11.546   0.441   7.353
 9936POPC   NC362711  12.810  36.891   5.553
 9936POPC   PO462712  12.844  36.920   5.853
 9936POPC   GL162713  12.883  36.941   6.153
 9936POPC   GL262714  12.735  36.803   6.153
 9936POPC   C1A62715  12.894  36.869   6.453
 9936POPC   D2A62716  12.878  36.869   6.753
 9936POPC   C3A62717  12.846  36.887   7.053
 9936POPC   C4A62718  12.815  36.952   7.353
 9936POPC   C1B62719  12.649  36.719   6.453
 9936POPC   C2B62720  12.684  36.805   6.753
 9936POPC   C3B62721  12.615  36.798   7.053
 9936POPC   C4B62722  12.648  36.798   7.353
 9937POPC   NC362723  36.153  15.974   5.553
 9937POPC   PO462724  36.100  15.992   5.853
 9937POPC   GL162725  36.096  15.986   6.153
 9937POPC   GL262726  35.997  15.874   6.153
 9937POPC   C1A62727  36.165  15.975   6.453
 9937POPC   D2A62728  36.177  15.923   6.753
 9937POPC   C3A62729  36.084  15.957   7.053
 9937POPC   C4A62730  36.160  15.996   7.353
 9937POPC   C1B62731  35.891  15.914   6.453
 9937POPC   C2B62732  35.902  15.910   6.753
 9937POPC   C3B62733  35.918  15.848   7.053
 9937POPC   C4B62734  35.920  15.854   7.353
 9938POPC   NC362735  14.356  40.748   5.553
 9938POPC   PO462736  14.448  40.747   5.853
 9938POPC   GL162737  14.440  40.782   6.153
 9938POPC   GL262738  14.545  40.796   6.153
 9938POPC   C1A62739  14.421  40.824   6.453
 9938POPC   D2A62740  14.394  40.792   6.753
 9938POPC   C3A62741  14.365  40.832   7.053
 9938POPC   C4A62742  14.423  40.752   7.353
 9938POPC   C1B62743  14.673  40.917   6.453
 9938POPC   C2B62744  14.664  40.854   6.753
 9938POPC   C3B62745  14.622  40.889   7.053
 9938POPC   C4B62746  14.608  40.888   7.353
 9939POPC   NC362747  12.060   5.045   5.553
 9939POPC   PO462748  12.092   5.143   5.853
 9939POPC   GL162749  12.087   5.061   6.153
 9939POPC   GL262750  12.034   4.993   6.153
 9939POPC   C1A62751  12.054   5.111   6.453
 9939POPC   D2A62752  12.088   5.133   6.753
 9939POPC   C3A62753  12.037   5.054   7.053
 9939POPC   C4A62754  12.113   5.120   7.353
 9939POPC   C1B62755  11.984   4.819   6.453
 9939POPC   C2B62756  11.967   4.877   6.753
 9939POPC   C3B62757  11.933   4.887   7.053
 9939POPC   C4B62758  11.993   4.917   7.353
 9940POPC   NC362759  34.604  26.832   5.553
 9940POPC   PO462760  34.540  26.804   5.853
 9940POPC   GL162761  34.560  26.807   6.153
 9940POPC   GL262762  34.533  26.700   6.153
 9940POPC   C1A62763  34.555  26.829   6.453
 9940POPC   D2A62764  34.568  26.786   6.753
 9940POPC   C3A62765  34.532  26.855   7.053
 9940POPC   C4A62766  34.561  26.838   7.353
 9940POPC   C1B62767  34.459  26.562   6.453
 9940POPC   C2B62768  34.422  26.557   6.753
 9940POPC   C3B62769  34.520  26.559   7.053
 9940POPC   C4B62770  34.490  26.554   7.353
 9941POPC   NC362771  39.269  14.390   5.553
 9941POPC   PO462772  39.243  14.438   5.853
 9941POPC   GL162773  39.280  14.378   6.153
 9941POPC   GL262774  39.356  14.334   6.153
 9941POPC   C1A62775  39.275  14.403   6.453
 9941POPC   D2A62776  39.238  14.438   6.753
 9941POPC   C3A62777  39.207  14.364   7.053
 9941POPC   C4A62778  39.183  14.423   7.353
 9941POPC   C1B62779  39.501  14.277   6.453
 9941POPC   C2B62780  39.473  14.310   6.753
 9941POPC   C3B62781  39.500  14.345   7.053
 9941POPC   C4B62782  39.449  14.322   7.353
 9942POPC   NC362783  19.881  15.999   5.553
 9942POPC   PO462784  19.806  15.961   5.853
 9942POPC   GL162785  19.845  15.931   6.153
 9942POPC   GL262786  19.931  15.981   6.153
 9942POPC   C1A62787  19.855  15.973   6.453
 9942POPC   D2A62788  19.833  15.991   6.753
 9942POPC   C3A62789  19.879  15.942   7.053
 9942POPC   C4A62790  19.835  15.976   7.353
 9942POPC   C1B62791  20.014  16.074   6.453
 9942POPC   C2B62792  20.087  16.119   6.753
 9942POPC   C3B62793  20.077  16.080   7.053
 9942POPC   C4B62794  20.088  16.106   7.353
 9943POPC   NC362795  39.958  35.381   5.553
 9943POPC   PO462796  40.025  35.330   5.853
 9943POPC   GL162797  40.038  35.317   6.153
 9943POPC   GL262798  39.951  35.506   6.153
 9943POPC   C1A62799  40.055  35.374   6.453
 9943POPC   D2A62800  39.972  35.319   6.753
 9943POPC   C3A62801  39.958  35.365   7.053
 9943POPC   C4A62802  39.958  35.367   7.353
 9943POPC   C1B62803  39.899  35.520   6.453
 9943POPC   C2B62804  39.897  35.543   6.753
 9943POPC   C3B62805  39.828  35.534   7.053
 9943POPC   C4B62806  39.877  35.539   7.353
 9944POPC   NC362807  33.766  14.431   5.553
 9944POPC   PO462808  33.780  14.450   5.853
 9944POPC   GL162809  33.788  14.423   6.153
 9944POPC   GL262810  33.871  14.465   6.153
 9944POPC   C1A62811  33.806  14.400   6.453
 9944POPC   D2A62812  33.781  14.445   6.753
 9944POPC   C3A62813  33.831  14.414   7.053
 9944POPC   C4A62814  33.793  14.446   7.353
 9944POPC   C1B62815  34.021  14.551   6.453
 9944POPC   C2B62816  34.031  14.539   6.753
 9944POPC   C3B62817  33.983  14.470   7.053
 9944POPC   C4B62818  34.043  14.558   7.353
 9945POPC   NC362819  15.935  26.785   5.553
 9945POPC   PO462820  15.935  26.809   5.853
 9945POPC   GL162821  15.967  26.786   6.153
 9945POPC   GL262822  15.940  26.688   6.153
 9945POPC   C1A62823  15.974  26.816   6.453
 9945POPC   D2A62824  15.972  26.821   6.753
 9945POPC   C3A62825  15.922  26.816   7.053
 9945POPC   C4A62826  15.936  26.864   7.353
 9945POPC   C1B62827  15.875  26.590   6.453
 9945POPC   C2B62828  15.925  26.606   6.753
 9945POPC   C3B62829  15.896  26.626   7.053
 9945POPC   C4B62830  15.844  26.549   7.353
 9946POPC   NC362831  19.103  10.551   5.553
 9946POPC   PO462832  19.096  10.477   5.853
 9946POPC   GL162833  19.041  10.564   6.153
 9946POPC   GL262834  19.188  10.522   6.153
 9946POPC   C1A62835  19.041  10.548   6.453
 9946POPC   D2A62836  19.096  10.538   6.753
 9946POPC   C3A62837  19.045  10.547   7.053
 9946POPC   C4A62838  19.082  10.522   7.353
 9946POPC   C1B62839  19.327  10.555   6.453
 9946POPC   C2B62840  19.347  10.536   6.753
 9946POPC   C3B62841  19.307  10.526   7.053
 9946POPC   C4B62842  19.273  10.548   7.353
 9947POPC   NC362843   0.478  33.795   5.553
 9947POPC   PO462844   0.441  33.758   5.853
 9947POPC   GL162845   0.409  33.779   6.153
 9947POPC   GL262846   0.548  33.772   6.153
 9947POPC   C1A62847   0.480  33.794   6.453
 9947POPC   D2A62848   0.397  33.757   6.753
 9947POPC   C3A62849   0.421  33.753   7.053
 9947POPC   C4A62850   0.417  33.848   7.353
 9947POPC   C1B62851   0.703  33.676   6.453
 9947POPC   C2B62852   0.652  33.650   6.753
 9947POPC   C3B62853   0.619  33.700   7.053
 9947POPC   C4B62854   0.655  33.693   7.353
 9948POPC   NC362855  24.461  15.927   5.553
 9948POPC   PO462856  24.490  15.909   5.853
 9948POPC   GL162857  24.453  15.993   6.153
 9948POPC   GL262858  24.344  15.967   6.153
 9948POPC   C1A62859  24.484  15.996   6.453
 9948POPC   D2A62860  24.511  15.913   6.753
 9948POPC   C3A62861  24.495  15.954   7.053
 9948POPC   C4A62862  24.505  15.990   7.353
 9948POPC   C1B62863  24.246  16.020   6.453
 9948POPC   C2B62864  24.217  15.994   6.753
 9948POPC   C3B62865  24.305  16.044   7.053
 9948POPC   C4B62866  24.284  16.042   7.353
 9949POPC   NC362867  19.827  23.683   5.553
 9949POPC   PO462868  19.833  23.669   5.853
 9949POPC   GL162869  19.809  23.670   6.153
 9949POPC   GL262870  19.851  23.879   6.153
 9949POPC   C1A62871  19.871  23.751   6.453
 9949POPC   D2A62872  19.810  23.763   6.753
 9949POPC   C3A62873  19.798  23.744   7.053
 9949POPC   C4A62874  19.827  23.709   7.353
 9949POPC   C1B62875  19.921  23.946   6.453
 9949POPC   C2B62876  19.896  23.921   6.753
 9949POPC   C3B62877  19.922  23.958   7.053
 9949POPC   C4B62878  19.887  23.989   7.353
 9950POPC   NC362879  27.544  20.649   5.553
 9950POPC   PO462880  27.579  20.645   5.853
 9950POPC   GL162881  27.569  20.629   6.153
 9950POPC   GL262882  27.482  20.541   6.153
 9950POPC   C1A62883  27.623  20.634   6.453
 9950POPC   D2A62884  27.569  20.583   6.753
 9950POPC   C3A62885  27.600  20.628   7.053
 9950POPC   C4A62886  27.612  20.611   7.353
 9950POPC   C1B62887  27.354  20.416   6.453
 9950POPC   C2B62888  27.390  20.414   6.753
 9950POPC   C3B62889  27.401  20.486   7.053
 9950POPC   C4B62890  27.429  20.409   7.353
 9951POPC   NC362891  31.489  28.415   5.553
 9951POPC   PO462892  31.456  28.416   5.853
 9951POPC   GL162893  31.477  28.411   6.153
 9951POPC   GL262894  31.439  28.488   6.153
 9951POPC   C1A62895  31.512  28.336   6.453
 9951POPC   D2A62896  31.490  28.368   6.753
 9951POPC   C3A62897  31.432  28.414   7.053
 9951POPC   C4A62898  31.518  28.349   7.353
 9951POPC   C1B62899  31.342  28.535   6.453
 9951POPC   C2B62900  31.299  28.584   6.753
 9951POPC   C3B62901  31.344  28.536   7.053
 9951POPC   C4B62902  31.347  28.543   7.353
 9952POPC   NC362903  18.303  43.904   5.553
 9952POPC   PO462904  18.308  43.848   5.853
 9952POPC   GL162905  18.275  43.875   6.153
 9952POPC   GL262906  18.280  43.728   6.153
 9952POPC   C1A62907  18.294  43.907   6.453
 9952POPC   D2A62908  18.251  43.887   6.753
 9952POPC   C3A62909  18.300  43.917   7.053
 9952POPC   C4A62910  18.279  43.860   7.353
 9952POPC   C1B62911  18.230  43.676   6.453
 9952POPC   C2B62912  18.239  43.662   6.753
 9952POPC   C3B62913  18.281  43.606   7.053
 9952POPC   C4B62914  18.235  43.633   7.353
 9953POPC   NC362915   1.197   4.324   5.553
 9953POPC   PO462916   1.246   4.314   5.853
 9953POPC   GL162917   1.176   4.347   6.153
 9953POPC   GL262918   1.136   4.445   6.153
 9953POPC   C1A62919   1.192   4.269   6.453
 9953POPC   D2A62920   1.262   4.279   6.753
 9953POPC   C3A62921   1.230   4.301   7.053
 9953POPC   C4A62922   1.242   4.304   7.353
 9953POPC   C1B62923   1.059   4.501   6.453
 9953POPC   C2B62924   1.131   4.484   6.753
 9953POPC   C3B62925   1.109   4.496   7.053
 9953POPC   C4B62926   1.054   4.487   7.353
 9954POPC   NC362927   4.304  40.754   5.553
 9954POPC   PO462928   4.313  40.801   5.853
 9954POPC   GL162929   4.297  40.748   6.153
 9954POPC   GL262930   4.300  40.918   6.153
 9954POPC   C1A62931   4.354  40.804   6.453
 9954POPC   D2A62932   4.294  40.780   6.753
 9954POPC   C3A62933   4.303  40.819   7.053
 9954POPC   C4A62934   4.276  40.752   7.353
 9954POPC   C1B62935   4.237  40.965   6.453
 9954POPC   C2B62936   4.200  40.997   6.753
 9954POPC   C3B62937   4.170  41.003   7.053
 9954POPC   C4B62938   4.180  41.012   7.353
 9955POPC   NC362939  41.563  15.150   5.553
 9955POPC   PO462940  41.561  15.179   5.853
 9955POPC   GL162941  41.578  15.150   6.153
 9955POPC   GL262942  41.399  15.183   6.153
 9955POPC   C1A62943  41.556  15.190   6.453
 9955POPC   D2A62944  41.605  15.186   6.753
 9955POPC   C3A62945  41.546  15.185   7.053
 9955POPC   C4A62946  41.559  15.165   7.353
 9955POPC   C1B62947  41.283  15.140   6.453
 9955POPC   C2B62948  41.313  15.099   6.753
 9955POPC   C3B62949  41.296  15.105   7.053
 9955POPC   C4B62950  41.272  15.100   7.353
 9956POPC   NC362951  28.377  43.887   5.553
 9956POPC   PO462952  28.335  43.907   5.853
 9956POPC   GL162953  28.322  43.916   6.153
 9956POPC   GL262954  28.295  43.861   6.153
 9956POPC   C1A62955  28.326  43.850   6.453
 9956POPC   D2A62956  28.387  43.910   6.753
 9956POPC   C3A62957  28.331  43.843   7.053
 9956POPC   C4A62958  28.323  43.903   7.353
 9956POPC   C1B62959  28.160  43.729   6.453
 9956POPC   C2B62960  28.178  43.761   6.753
 9956POPC   C3B62961  28.190  43.718   7.053
 9956POPC   C4B62962  28.156  43.787   7.353
 9957POPC   NC362963   8.987  14.402   5.553
 9957POPC   PO462964   8.950  14.437   5.853
 9957POPC   GL162965   9.015  14.408   6.153
 9957POPC   GL262966   9.089  14.323   6.153
 9957POPC   C1A62967   8.959  14.379   6.453
 9957POPC   D2A62968   8.948  14.390   6.753
 9957POPC   C3A62969   8.940  14.413   7.053
 9957POPC   C4A62970   8.941  14.424   7.353
 9957POPC   C1B62971   9.169  14.196   6.453
 9957POPC   C2B62972   9.105  14.192   6.753
 9957POPC   C3B62973   9.156  14.196   7.053
 9957POPC   C4B62974   9.190  14.229   7.353
 9958POPC   NC362975  33.003  33.750   5.553
 9958POPC   PO462976  32.994  33.806   5.853
 9958POPC   GL162977  33.048  33.761   6.153
 9958POPC   GL262978  33.134  33.899   6.153
 9958POPC   C1A62979  33.054  33.820   6.453
 9958POPC   D2A62980  33.040  33.811   6.753
 9958POPC   C3A62981  33.050  33.753   7.053
 9958POPC   C4A62982  33.017  33.830   7.353
 9958POPC   C1B62983  33.211  34.000   6.453
 9958POPC   C2B62984  33.164  34.021   6.753
 9958POPC   C3B62985  33.209  33.954   7.053
 9958POPC   C4B62986  33.165  33.956   7.353
 9959POPC   NC362987   3.546   7.462   5.553
 9959POPC   PO462988   3.551   7.373   5.853
 9959POPC   GL162989   3.570   7.405   6.153
 9959POPC   GL262990   3.611   7.486   6.153
 9959POPC   C1A62991   3.511   7.457   6.453
 9959POPC   D2A62992   3.513   7.451   6.753
 9959POPC   C3A62993   3.537   7.405   7.053
 9959POPC   C4A62994   3.566   7.381   7.353
 9959POPC   C1B62995   3.732   7.572   6.453
 9959POPC   C2B62996   3.729   7.607   6.753
 9959POPC   C3B62997   3.711   7.536   7.053
 9959POPC   C4B62998   3.736   7.536   7.353
 9960POPC   NC362999  39.997  23.745   5.553
 9960POPC   PO463000  39.980  23.749   5.853
 9960POPC   GL163001  40.000  23.665   6.153
 9960POPC   GL263002  39.964  23.575   6.153
 9960POPC   C1A63003  39.996  23.687   6.453
 9960POPC   D2A63004  39.979  23.748   6.753
 9960POPC   C3A63005  40.002  23.666   7.053
 9960POPC   C4A63006  40.021  23.688   7.353
 9960POPC   C1B63007  39.817  23.542   6.453
 9960POPC   C2B63008  39.862  23.545   6.753
 9960POPC   C3B63009  39.813  23.552   7.053
 9960POPC   C4B63010  39.850  23.511   7.353
 9961POPC   NC363011   6.659  43.917   5.553
 9961POPC   PO463012   6.611  43.907   5.853
 9961POPC   GL163013   6.671  43.885   6.153
 9961POPC   GL263014   6.753  43.789   6.153
 9961POPC   C1A63015   6.600  43.919   6.453
 9961POPC   D2A63016   6.603  43.849   6.753
 9961POPC   C3A63017   6.630  43.852   7.053
 9961POPC   C4A63018   6.674  43.854   7.353
 9961POPC   C1B63019   6.881  43.782   6.453
 9961POPC   C2B63020   6.820  43.713   6.753
 9961POPC   C3B63021   6.888  43.742   7.053
 9961POPC   C4B63022   6.859  43.760   7.353
 9962POPC   NC363023  16.689  43.877   5.553
 9962POPC   PO463024  16.683  43.858   5.853
 9962POPC   GL163025  16.715  43.912   6.153
 9962POPC   GL263026  16.742  44.017   6.153
 9962POPC   C1A63027  16.686  43.906   6.453
 9962POPC   D2A63028  16.723  43.925   6.753
 9962POPC   C3A63029  16.685  43.930   7.053
 9962POPC   C4A63030  16.701  43.856   7.353
 9962POPC   C1B63031  16.868  44.130   6.453
 9962POPC   C2B63032  16.897  44.145   6.753
 9962POPC   C3B63033  16.815  44.120   7.053
 9962POPC   C4B63034  16.853  44.138   7.353
 9963POPC   NC363035  44.687  19.048   5.553
 9963POPC   PO463036  44.699  19.097   5.853
 9963POPC   GL163037  44.616  19.016   6.153
 9963POPC   GL263038  44.492  19.098   6.153
 9963POPC   C1A63039  44.699  19.077   6.453
 9963POPC   D2A63040  44.691  19.063   6.753
 9963POPC   C3A63041  44.663  19.010   7.053
 9963POPC   C4A63042  44.683  19.014   7.353
 9963POPC   C1B63043  44.422  19.067   6.453
 9963POPC   C2B63044  44.419  19.135   6.753
 9963POPC   C3B63045  44.440  19.039   7.053
 9963POPC   C4B63046  44.395  19.128   7.353
 9964POPC   NC363047   1.955  20.574   5.553
 9964POPC   PO463048   1.971  20.582   5.853
 9964POPC   GL163049   2.004  20.583   6.153
 9964POPC   GL263050   1.907  20.530   6.153
 9964POPC   C1A63051   1.983  20.575   6.453
 9964POPC   D2A63052   1.989  20.622   6.753
 9964POPC   C3A63053   2.008  20.576   7.053
 9964POPC   C4A63054   1.978  20.593   7.353
 9964POPC   C1B63055   1.773  20.541   6.453
 9964POPC   C2B63056   1.779  20.472   6.753
 9964POPC   C3B63057   1.728  20.549   7.053
 9964POPC   C4B63058   1.806  20.499   7.353
 9965POPC   NC363059  19.089  29.183   5.553
 9965POPC   PO463060  19.070  29.162   5.853
 9965POPC   GL163061  19.039  29.188   6.153
 9965POPC   GL263062  19.145  29.020   6.153
 9965POPC   C1A63063  19.078  29.184   6.453
 9965POPC   D2A63064  19.101  29.149   6.753
 9965POPC   C3A63065  19.102  29.169   7.053
 9965POPC   C4A63066  19.016  29.103   7.353
 9965POPC   C1B63067  19.246  28.996   6.453
 9965POPC   C2B63068  19.230  28.939   6.753
 9965POPC   C3B63069  19.192  28.928   7.053
 9965POPC   C4B63070  19.219  28.953   7.353
 9966POPC   NC363071  11.258   5.851   5.553
 9966POPC   PO463072  11.308   5.823   5.853
 9966POPC   GL163073  11.350   5.916   6.153
 9966POPC   GL263074  11.253   5.989   6.153
 9966POPC   C1A63075  11.344   5.860   6.453
 9966POPC   D2A63076  11.335   5.848   6.753
 9966POPC   C3A63077  11.270   5.913   7.053
 9966POPC   C4A63078  11.325   5.842   7.353
 9966POPC   C1B63079  11.142   6.076   6.453
 9966POPC   C2B63080  11.193   6.117   6.753
 9966POPC   C3B63081  11.129   6.059   7.053
 9966POPC   C4B63082  11.155   6.029   7.353
 9967POPC   NC363083  11.288  29.119   5.553
 9967POPC   PO463084  11.273  29.166   5.853
 9967POPC   GL163085  11.303  29.159   6.153
 9967POPC   GL263086  11.223  29.039   6.153
 9967POPC   C1A63087  11.332  29.188   6.453
 9967POPC   D2A63088  11.286  29.190   6.753
 9967POPC   C3A63089  11.336  29.165   7.053
 9967POPC   C4A63090  11.322  29.187   7.353
 9967POPC   C1B63091  11.123  29.043   6.453
 9967POPC   C2B63092  11.106  29.065   6.753
 9967POPC   C3B63093  11.078  29.010   7.053
 9967POPC   C4B63094  11.103  29.067   7.353
 9968POPC   NC363095  14.369  43.858   5.553
 9968POPC   PO463096  14.381  43.895   5.853
 9968POPC   GL163097  14.387  43.930   6.153
 9968POPC   GL263098  14.244  43.913   6.153
 9968POPC   C1A63099  14.406  43.906   6.453
 9968POPC   D2A63100  14.421  43.841   6.753
 9968POPC   C3A63101  14.375  43.845   7.053
 9968POPC   C4A63102  14.427  43.913   7.353
 9968POPC   C1B63103  14.158  44.011   6.453
 9968POPC   C2B63104  14.177  44.018   6.753
 9968POPC   C3B63105  14.203  44.021   7.053
 9968POPC   C4B63106  14.153  44.015   7.353
 9969POPC   NC363107  29.130  22.200   5.553
 9969POPC   PO463108  29.194  22.134   5.853
 9969POPC   GL163109  29.098  22.171   6.153
 9969POPC   GL263110  29.219  22.069   6.153
 9969POPC   C1A63111  29.116  22.162   6.453
 9969POPC   D2A63112  29.135  22.199   6.753
 9969POPC   C3A63113  29.139  22.133   7.053
 9969POPC   C4A63114  29.181  22.212   7.353
 9969POPC   C1B63115  29.318  22.040   6.453
 9969POPC   C2B63116  29.357  22.016   6.753
 9969POPC   C3B63117  29.303  21.999   7.053
 9969POPC   C4B63118  29.307  22.028   7.353
 9970POPC   NC363119   2.013  40.782   5.553
 9970POPC   PO463120   1.999  40.738   5.853
 9970POPC   GL163121   1.942  40.828   6.153
 9970POPC   GL263122   1.841  40.794   6.153
 9970POPC   C1A63123   1.940  40.753   6.453
 9970POPC   D2A63124   2.029  40.805   6.753
 9970POPC   C3A63125   1.952  40.787   7.053
 9970POPC   C4A63126   1.947  40.810   7.353
 9970POPC   C1B63127   1.745  40.923   6.453
 9970POPC   C2B63128   1.724  40.866   6.753
 9970POPC   C3B63129   1.760  40.882   7.053
 9970POPC   C4B63130   1.757  40.886   7.353
 9971POPC   NC363131   8.188  35.340   5.553
 9971POPC   PO463132   8.224  35.353   5.853
 9971POPC   GL163133   8.223  35.332   6.153
 9971POPC   GL263134   8.339  35.316   6.153
 9971POPC   C1A63135   8.212  35.331   6.453
 9971POPC   D2A63136   8.204  35.343   6.753
 9971POPC   C3A63137   8.196  35.393   7.053
 9971POPC   C4A63138   8.227  35.350   7.353
 9971POPC   C1B63139   8.417  35.220   6.453
 9971POPC   C2B63140   8.424  35.287   6.753
 9971POPC   C3B63141   8.432  35.223   7.053
 9971POPC   C4B63142   8.402  35.267   7.353
 9972POPC   NC363143  39.202  19.037   5.553
 9972POPC   PO463144  39.195  19.073   5.853
 9972POPC   GL163145  39.256  19.066   6.153
 9972POPC   GL263146  39.293  18.991   6.153
 9972POPC   C1A63147  39.192  19.077   6.453
 9972POPC   D2A63148  39.233  19.106   6.753
 9972POPC   C3A63149  39.216  19.077   7.053
 9972POPC   C4A63150  39.219  19.087   7.353
 9972POPC   C1B63151  39.396  18.848   6.453
 9972POPC   C2B63152  39.364  18.837   6.753
 9972POPC   C3B63153  39.409  18.909   7.053
 9972POPC   C4B63154  39.443  18.898   7.353
 9973POPC   NC363155  15.195   9.789   5.553
 9973POPC   PO463156  15.135   9.718   5.853
 9973POPC   GL163157  15.153   9.783   6.153
 9973POPC   GL263158  15.312   9.735   6.153
 9973POPC   C1A63159  15.159   9.782   6.453
 9973POPC   D2A63160  15.208   9.768   6.753
 9973POPC   C3A63161  15.173   9.710   7.053
 9973POPC   C4A63162  15.223   9.724   7.353
 9973POPC   C1B63163  15.427   9.839   6.453
 9973POPC   C2B63164  15.428   9.845   6.753
 9973POPC   C3B63165  15.430   9.840   7.053
 9973POPC   C4B63166  15.380   9.774   7.353
 9974POPC   NC363167   8.191  44.670   5.553
 9974POPC   PO463168   8.190  44.622   5.853
 9974POPC   GL163169   8.178  44.680   6.153
 9974POPC   GL263170   8.262  44.517   6.153
 9974POPC   C1A63171   8.209  44.639   6.453
 9974POPC   D2A63172   8.179  44.680   6.753
 9974POPC   C3A63173   8.177  44.615   7.053
 9974POPC   C4A63174   8.220  44.688   7.353
 9974POPC   C1B63175   8.283  44.470   6.453
 9974POPC   C2B63176   8.247  44.481   6.753
 9974POPC   C3B63177   8.267  44.466   7.053
 9974POPC   C4B63178   8.282  44.432   7.353
 9975POPC   NC363179  29.181  40.746   5.553
 9975POPC   PO463180  29.101  40.787   5.853
 9975POPC   GL163181  29.104  40.798   6.153
 9975POPC   GL263182  29.081  40.924   6.153
 9975POPC   C1A63183  29.186  40.800   6.453
 9975POPC   D2A63184  29.162  40.780   6.753
 9975POPC   C3A63185  29.149  40.769   7.053
 9975POPC   C4A63186  29.131  40.830   7.353
 9975POPC   C1B63187  29.013  40.974   6.453
 9975POPC   C2B63188  29.023  41.009   6.753
 9975POPC   C3B63189  28.970  40.950   7.053
 9975POPC   C4B63190  28.937  40.971   7.353
 9976POPC   NC363191  12.840  17.474   5.553
 9976POPC   PO463192  12.820  17.505   5.853
 9976POPC   GL163193  12.844  17.464   6.153
 9976POPC   GL263194  12.889  17.624   6.153
 9976POPC   C1A63195  12.893  17.479   6.453
 9976POPC   D2A63196  12.863  17.509   6.753
 9976POPC   C3A63197  12.861  17.508   7.053
 9976POPC   C4A63198  12.825  17.529   7.353
 9976POPC   C1B63199  12.905  17.768   6.453
 9976POPC   C2B63200  12.904  17.753   6.753
 9976POPC   C3B63201  12.917  17.799   7.053
 9976POPC   C4B63202  12.876  17.790   7.353
 9977POPC   NC363203  26.861  34.612   5.553
 9977POPC   PO463204  26.781  34.558   5.853
 9977POPC   GL163205  26.823  34.609   6.153
 9977POPC   GL263206  26.921  34.617   6.153
 9977POPC   C1A63207  26.779  34.568   6.453
 9977POPC   D2A63208  26.785  34.610   6.753
 9977POPC   C3A63209  26.831  34.557   7.053
 9977POPC   C4A63210  26.775  34.605   7.353
 9977POPC   C1B63211  27.066  34.640   6.453
 9977POPC   C2B63212  27.048  34.593   6.753
 9977POPC   C3B63213  27.062  34.647   7.053
 9977POPC   C4B63214  27.065  34.625   7.353
 9978POPC   NC363215  14.412   1.184   5.553
 9978POPC   PO463216  14.393   1.250   5.853
 9978POPC   GL163217  14.426   1.180   6.153
 9978POPC   GL263218  14.451   1.090   6.153
 9978POPC   C1A63219  14.359   1.213   6.453
 9978POPC   D2A63220  14.432   1.256   6.753
 9978POPC   C3A63221  14.431   1.183   7.053
 9978POPC   C4A63222  14.422   1.192   7.353
 9978POPC   C1B63223  14.523   1.021   6.453
 9978POPC   C2B63224  14.540   1.032   6.753
 9978POPC   C3B63225  14.568   0.962   7.053
 9978POPC   C4B63226  14.512   1.032   7.353
 9979POPC   NC363227  17.495  43.874   5.553
 9979POPC   PO463228  17.540  43.897   5.853
 9979POPC   GL163229  17.556  43.890   6.153
 9979POPC   GL263230  17.557  43.734   6.153
 9979POPC   C1A63231  17.475  43.847   6.453
 9979POPC   D2A63232  17.465  43.924   6.753
 9979POPC   C3A63233  17.469  43.866   7.053
 9979POPC   C4A63234  17.519  43.840   7.353
 9979POPC   C1B63235  17.575  43.618   6.453
 9979POPC   C2B63236  17.580  43.624   6.753
 9979POPC   C3B63237  17.547  43.597   7.053
 9979POPC   C4B63238  17.568  43.651   7.353
 9980POPC   NC363239   3.556   1.178   5.553
 9980POPC   PO463240   3.547   1.174   5.853
 9980POPC   GL163241   3.523   1.233   6.153
 9980POPC   GL263242   3.422   1.135   6.153
 9980POPC   C1A63243   3.588   1.255   6.453
 9980POPC   D2A63244   3.524   1.218   6.753
 9980POPC   C3A63245   3.578   1.199   7.053
 9980POPC   C4A63246   3.520   1.254   7.353
 9980POPC   C1B63247   3.343   1.166   6.453
 9980POPC   C2B63248   3.292   1.132   6.753
 9980POPC   C3B63249   3.268   1.130   7.053
 9980POPC   C4B63250   3.277   1.193   7.353
 9981POPC   NC363251  19.023  26.799   5.553
 9981POPC   PO463252  19.036  26.809   5.853
 9981POPC   GL163253  19.029  26.811   6.153
 9981POPC   GL263254  19.216  26.848   6.153
 9981POPC   C1A63255  19.019  26.831   6.453
 9981POPC   D2A63256  19.089  26.773   6.753
 9981POPC   C3A63257  19.031  26.815   7.053
 9981POPC   C4A63258  19.066  26.792   7.353
 9981POPC   C1B63259  19.304  26.842   6.453
 9981POPC   C2B63260  19.273  26.809   6.753
 9981POPC   C3B63261  19.304  26.789   7.053
 9981POPC   C4B63262  19.300  26.806   7.353
 9982POPC   NC363263  39.236   2.776   5.553
 9982POPC   PO463264  39.253   2.755   5.853
 9982POPC   GL163265  39.224   2.792   6.153
 9982POPC   GL263266  39.214   2.911   6.153
 9982POPC   C1A63267  39.205   2.763   6.453
 9982POPC   D2A63268  39.251   2.735   6.753
 9982POPC   C3A63269  39.275   2.782   7.053
 9982POPC   C4A63270  39.256   2.775   7.353
 9982POPC   C1B63271  39.196   3.043   6.453
 9982POPC   C2B63272  39.196   2.968   6.753
 9982POPC   C3B63273  39.243   3.047   7.053
 9982POPC   C4B63274  39.159   3.033   7.353
 9983POPC   NC363275  18.271  20.629   5.553
 9983POPC   PO463276  18.274  20.616   5.853
 9983POPC   GL163277  18.313  20.617   6.153
 9983POPC   GL263278  18.433  20.573   6.153
 9983POPC   C1A63279  18.257  20.564   6.453
 9983POPC   D2A63280  18.242  20.616   6.753
 9983POPC   C3A63281  18.281  20.592   7.053
 9983POPC   C4A63282  18.287  20.624   7.353
 9983POPC   C1B63283  18.499  20.521   6.453
 9983POPC   C2B63284  18.521  20.529   6.753
 9983POPC   C3B63285  18.530  20.515   7.053
 9983POPC   C4B63286  18.487  20.537   7.353
 9984POPC   NC363287  40.041  36.173   5.553
 9984POPC   PO463288  40.020  36.152   5.853
 9984POPC   GL163289  40.035  36.159   6.153
 9984POPC   GL263290  40.102  36.059   6.153
 9984POPC   C1A63291  39.973  36.137   6.453
 9984POPC   D2A63292  39.985  36.113   6.753
 9984POPC   C3A63293  39.990  36.160   7.053
 9984POPC   C4A63294  40.042  36.167   7.353
 9984POPC   C1B63295  40.203  35.938   6.453
 9984POPC   C2B63296  40.251  36.019   6.753
 9984POPC   C3B63297  40.236  36.017   7.053
 9984POPC   C4B63298  40.172  36.012   7.353
 9985POPC   NC363299  12.056  41.564   5.553
 9985POPC   PO463300  12.101  41.525   5.853
 9985POPC   GL163301  12.032  41.588   6.153
 9985POPC   GL263302  11.975  41.441   6.153
 9985POPC   C1A63303  12.121  41.541   6.453
 9985POPC   D2A63304  12.054  41.541   6.753
 9985POPC   C3A63305  12.038  41.554   7.053
 9985POPC   C4A63306  12.039  41.552   7.353
 9985POPC   C1B63307  11.901  41.368   6.453
 9985POPC   C2B63308  11.933  41.387   6.753
 9985POPC   C3B63309  11.909  41.336   7.053
 9985POPC   C4B63310  11.911  41.322   7.353
 9986POPC   NC363311  33.790   1.986   5.553
 9986POPC   PO463312  33.756   2.000   5.853
 9986POPC   GL163313  33.846   1.986   6.153
 9986POPC   GL263314  33.664   2.053   6.153
 9986POPC   C1A63315  33.847   1.972   6.453
 9986POPC   D2A63316  33.815   2.008   6.753
 9986POPC   C3A63317  33.843   2.027   7.053
 9986POPC   C4A63318  33.752   1.961   7.353
 9986POPC   C1B63319  33.582   2.164   6.453
 9986POPC   C2B63320  33.589   2.128   6.753
 9986POPC   C3B63321  33.582   2.131   7.053
 9986POPC   C4B63322  33.628   2.129   7.353
 9987POPC   NC363323  43.926   2.810   5.553
 9987POPC   PO463324  43.852   2.814   5.853
 9987POPC   GL163325  43.890   2.790   6.153
 9987POPC   GL263326  43.748   2.829   6.153
 9987POPC   C1A63327  43.844   2.800   6.453
 9987POPC   D2A63328  43.902   2.810   6.753
 9987POPC   C3A63329  43.934   2.780   7.053
 9987POPC   C4A63330  43.858   2.798   7.353
 9987POPC   C1B63331  43.729   2.912   6.453
 9987POPC   C2B63332  43.718   2.927   6.753
 9987POPC   C3B63333  43.648   2.958   7.053
 9987POPC   C4B63334  43.728   2.916   7.353
 9988POPC   NC363335  31.445   9.757   5.553
 9988POPC   PO463336  31.424   9.720   5.853
 9988POPC   GL163337  31.517   9.772   6.153
 9988POPC   GL263338  31.377   9.872   6.153
 9988POPC   C1A63339  31.426   9.714   6.453
 9988POPC   D2A63340  31.482   9.757   6.753
 9988POPC   C3A63341  31.499   9.706   7.053
 9988POPC   C4A63342  31.456   9.769   7.353
 9988POPC   C1B63343  31.263   9.892   6.453
 9988POPC   C2B63344  31.269   9.955   6.753
 9988POPC   C3B63345  31.293   9.903   7.053
 9988POPC   C4B63346  31.324   9.865   7.353
 9989POPC   NC363347  15.217  44.703   5.553
 9989POPC   PO463348  15.210  44.690   5.853
 9989POPC   GL163349  15.157  44.698   6.153
 9989POPC   GL263350  15.249  44.521   6.153
 9989POPC   C1A63351  15.182  44.616   6.453
 9989POPC   D2A63352  15.153  44.664   6.753
 9989POPC   C3A63353  15.166  44.660   7.053
 9989POPC   C4A63354  15.177  44.675   7.353
 9989POPC   C1B63355  15.276  44.473   6.453
 9989POPC   C2B63356  15.249  44.433   6.753
 9989POPC   C3B63357  15.290  44.445   7.053
 9989POPC   C4B63358  15.307  44.473   7.353
 9990POPC   NC363359  42.336  26.036   5.553
 9990POPC   PO463360  42.327  26.087   5.853
 9990POPC   GL163361  42.383  26.003   6.153
 9990POPC   GL263362  42.231  26.129   6.153
 9990POPC   C1A63363  42.333  25.996   6.453
 9990POPC   D2A63364  42.328  26.067   6.753
 9990POPC   C3A63365  42.360  26.071   7.053
 9990POPC   C4A63366  42.365  26.053   7.353
 9990POPC   C1B63367  42.188  26.221   6.453
 9990POPC   C2B63368  42.219  26.222   6.753
 9990POPC   C3B63369  42.239  26.242   7.053
 9990POPC   C4B63370  42.188  26.269   7.353
 9991POPC   NC363371  40.820  12.097   5.553
 9991POPC   PO463372  40.755  12.075   5.853
 9991POPC   GL163373  40.789  12.054   6.153
 9991POPC   GL263374  40.639  12.044   6.153
 9991POPC   C1A63375  40.822  12.040   6.453
 9991POPC   D2A63376  40.814  12.059   6.753
 9991POPC   C3A63377  40.790  12.100   7.053
 9991POPC   C4A63378  40.752  12.119   7.353
 9991POPC   C1B63379  40.576  11.973   6.453
 9991POPC   C2B63380  40.560  12.039   6.753
 9991POPC   C3B63381  40.534  11.996   7.053
 9991POPC   C4B63382  40.577  12.000   7.353
 9992POPC   NC363383  36.133   1.180   5.553
 9992POPC   PO463384  36.107   1.178   5.853
 9992POPC   GL163385  36.154   1.175   6.153
 9992POPC   GL263386  36.025   1.236   6.153
 9992POPC   C1A63387  36.152   1.166   6.453
 9992POPC   D2A63388  36.173   1.254   6.753
 9992POPC   C3A63389  36.086   1.171   7.053
 9992POPC   C4A63390  36.114   1.191   7.353
 9992POPC   C1B63391  35.935   1.321   6.453
 9992POPC   C2B63392  35.946   1.302   6.753
 9992POPC   C3B63393  35.940   1.337   7.053
 9992POPC   C4B63394  35.864   1.331   7.353
 9993POPC   NC363395  19.084  28.338   5.553
 9993POPC   PO463396  19.026  28.352   5.853
 9993POPC   GL163397  19.041  28.408   6.153
 9993POPC   GL263398  18.934  28.383   6.153
 9993POPC   C1A63399  19.052  28.350   6.453
 9993POPC   D2A63400  19.054  28.323   6.753
 9993POPC   C3A63401  19.104  28.409   7.053
 9993POPC   C4A63402  19.018  28.337   7.353
 9993POPC   C1B63403  18.827  28.431   6.453
 9993POPC   C2B63404  18.787  28.452   6.753
 9993POPC   C3B63405  18.856  28.442   7.053
 9993POPC   C4B63406  18.857  28.389   7.353
 9994POPC   NC363407  43.082   9.769   5.553
 9994POPC   PO463408  43.091   9.734   5.853
 9994POPC   GL163409  43.065   9.784   6.153
 9994POPC   GL263410  43.273   9.742   6.153
 9994POPC   C1A63411  43.061   9.700   6.453
 9994POPC   D2A63412  43.141   9.775   6.753
 9994POPC   C3A63413  43.068   9.785   7.053
 9994POPC   C4A63414  43.152   9.788   7.353
 9994POPC   C1B63415  43.328   9.676   6.453
 9994POPC   C2B63416  43.353   9.674   6.753
 9994POPC   C3B63417  43.368   9.670   7.053
 9994POPC   C4B63418  43.384   9.669   7.353
 9995POPC   NC363419  13.671  26.835   5.553
 9995POPC   PO463420  13.671  26.846   5.853
 9995POPC   GL163421  13.635  26.805   6.153
 9995POPC   GL263422  13.585  26.768   6.153
 9995POPC   C1A63423  13.664  26.863   6.453
 9995POPC   D2A63424  13.593  26.817   6.753
 9995POPC   C3A63425  13.580  26.785   7.053
 9995POPC   C4A63426  13.616  26.787   7.353
 9995POPC   C1B63427  13.460  26.616   6.453
 9995POPC   C2B63428  13.464  26.696   6.753
 9995POPC   C3B63429  13.485  26.603   7.053
 9995POPC   C4B63430  13.487  26.664   7.353
 9996POPC   NC363431   3.587  24.502   5.553
 9996POPC   PO463432   3.550  24.523   5.853
 9996POPC   GL163433   3.500  24.482   6.153
 9996POPC   GL263434   3.491  24.628   6.153
 9996POPC   C1A63435   3.513  24.461   6.453
 9996POPC   D2A63436   3.589  24.533   6.753
 9996POPC   C3A63437   3.508  24.473   7.053
 9996POPC   C4A63438   3.497  24.457   7.353
 9996POPC   C1B63439   3.499  24.756   6.453
 9996POPC   C2B63440   3.560  24.767   6.753
 9996POPC   C3B63441   3.488  24.716   7.053
 9996POPC   C4B63442   3.497  24.761   7.353
 9997POPC   NC363443  22.892  41.604   5.553
 9997POPC   PO463444  22.973  41.590   5.853
 9997POPC   GL163445  22.919  41.605   6.153
 9997POPC   GL263446  23.017  41.684   6.153
 9997POPC   C1A63447  22.924  41.599   6.453
 9997POPC   D2A63448  22.920  41.578   6.753
 9997POPC   C3A63449  22.935  41.517   7.053
 9997POPC   C4A63450  22.942  41.582   7.353
 9997POPC   C1B63451  23.111  41.795   6.453
 9997POPC   C2B63452  23.042  41.800   6.753
 9997POPC   C3B63453  23.094  41.771   7.053
 9997POPC   C4B63454  23.092  41.809   7.353
 9998POPC   NC363455  21.381  40.803   5.553
 9998POPC   PO463456  21.385  40.808   5.853
 9998POPC   GL163457  21.356  40.810   6.153
 9998POPC   GL263458  21.317  40.885   6.153
 9998POPC   C1A63459  21.370  40.813   6.453
 9998POPC   D2A63460  21.417  40.745   6.753
 9998POPC   C3A63461  21.348  40.829   7.053
 9998POPC   C4A63462  21.421  40.792   7.353
 9998POPC   C1B63463  21.197  40.915   6.453
 9998POPC   C2B63464  21.138  40.903   6.753
 9998POPC   C3B63465  21.146  40.932   7.053
 9998POPC   C4B63466  21.188  40.913   7.353
 9999POPC   NC363467   7.448  23.705   5.553
 9999POPC   PO463468   7.437  23.707   5.853
 9999POPC   GL163469   7.458  23.705   6.153
 9999POPC   GL263470   7.488  23.637   6.153
 9999POPC   C1A63471   7.379  23.695   6.453
 9999POPC   D2A63472   7.438  23.723   6.753
 9999POPC   C3A63473   7.384  23.754   7.053
 9999POPC   C4A63474   7.452  23.688   7.353
 9999POPC   C1B63475   7.648  23.562   6.453
 9999POPC   C2B63476   7.621  23.564   6.753
 9999POPC   C3B63477   7.616  23.635   7.053
 9999POPC   C4B63478   7.651  23.627   7.353
10000POPC   NC363479  18.293  19.013   5.553
10000POPC   PO463480  18.287  19.031   5.853
10000POPC   GL163481  18.312  19.025   6.153
10000POPC   GL263482  18.171  19.059   6.153
10000POPC   C1A63483  18.306  19.060   6.453
10000POPC   D2A63484  18.332  19.058   6.753
10000POPC   C3A63485  18.308  19.059   7.053
10000POPC   C4A63486  18.243  19.064   7.353
10000POPC   C1B63487  18.022  18.948   6.453
10000POPC   C2B63488  18.065  19.021   6.753
10000POPC   C3B63489  18.067  18.955   7.053
10000POPC   C4B63490  18.091  18.982   7.353
10001POPC   NC363491  33.005  23.686   5.553
10001POPC   PO463492  33.014  23.760   5.853
10001POPC   GL163493  33.037  23.686   6.153
10001POPC   GL263494  32.960  23.593   6.153
10001POPC   C1A63495  33.017  23.685   6.453
10001POPC   D2A63496  32.977  23.670   6.753
10001POPC   C3A63497  33.054  23.749   7.053
10001POPC   C4A63498  32.982  23.667   7.353
10001POPC   C1B63499  32.947  23.468   6.453
10001POPC   C2B63500  32.958  23.457   6.753
10001POPC   C3B63501  32.947  23.478   7.053
10001POPC   C4B63502  32.962  23.420   7.353
10002POPC   NC363503  36.081  16.709   5.553
10002POPC   PO463504  36.133  16.757   5.853
10002POPC   GL163505  36.166  16.729   6.153
10002POPC   GL263506  36.159  16.889   6.153
10002POPC   C1A63507  36.157  16.721   6.453
10002POPC   D2A63508  36.155  16.764   6.753
10002POPC   C3A63509  36.166  16.687   7.053
10002POPC   C4A63510  36.098  16.780   7.353
10002POPC   C1B63511  36.213  16.946   6.453
10002POPC   C2B63512  36.260  16.945   6.753
10002POPC   C3B63513  36.226  17.003   7.053
10002POPC   C4B63514  36.271  16.923   7.353
10003POPC   NC363515  42.286  22.138   5.553
10003POPC   PO463516  42.294  22.196   5.853
10003POPC   GL163517  42.304  22.164   6.153
10003POPC   GL263518  42.299  22.265   6.153
10003POPC   C1A63519  42.298  22.212   6.453
10003POPC   D2A63520  42.295  22.162   6.753
10003POPC   C3A63521  42.335  22.130   7.053
10003POPC   C4A63522  42.379  22.113   7.353
10003POPC   C1B63523  42.252  22.385   6.453
10003POPC   C2B63524  42.240  22.429   6.753
10003POPC   C3B63525  42.250  22.432   7.053
10003POPC   C4B63526  42.293  22.433   7.353
10004POPC   NC363527  40.045   0.464   5.553
10004POPC   PO463528  40.027   0.402   5.853
10004POPC   GL163529  40.043   0.390   6.153
10004POPC   GL263530  40.079   0.397   6.153
10004POPC   C1A63531  39.997   0.423   6.453
10004POPC   D2A63532  40.018   0.483   6.753
10004POPC   C3A63533  40.002   0.391   7.053
10004POPC   C4A63534  40.037   0.476   7.353
10004POPC   C1B63535  40.192   0.302   6.453
10004POPC   C2B63536  40.219   0.293   6.753
10004POPC   C3B63537  40.257   0.311   7.053
10004POPC   C4B63538  40.208   0.326   7.353
10005POPC   NC363539  44.651   1.238   5.553
10005POPC   PO463540  44.683   1.213   5.853
10005POPC   GL163541  44.644   1.230   6.153
10005POPC   GL263542  44.667   1.318   6.153
10005POPC   C1A63543  44.703   1.195   6.453
10005POPC   D2A63544  44.652   1.176   6.753
10005POPC   C3A63545  44.634   1.226   7.053
10005POPC   C4A63546  44.616   1.251   7.353
10005POPC   C1B63547  44.599   1.422   6.453
10005POPC   C2B63548  44.600   1.433   6.753
10005POPC   C3B63549  44.558   1.409   7.053
10005POPC   C4B63550  44.558   1.423   7.353
10006POPC   NC363551  41.575  24.481   5.553
10006POPC   PO463552  41.509  24.460   5.853
10006POPC   GL163553  41.533  24.449   6.153
10006POPC   GL263554  41.558  24.654   6.153
10006POPC   C1A63555  41.570  24.485   6.453
10006POPC   D2A63556  41.530  24.521   6.753
10006POPC   C3A63557  41.533  24.441   7.053
10006POPC   C4A63558  41.581  24.527   7.353
10006POPC   C1B63559  41.553  24.747   6.453
10006POPC   C2B63560  41.545  24.784   6.753
10006POPC   C3B63561  41.525  24.709   7.053
10006POPC   C4B63562  41.503  24.747   7.353
10007POPC   NC363563  12.850  30.734   5.553
10007POPC   PO463564  12.804  30.697   5.853
10007POPC   GL163565  12.856  30.743   6.153
10007POPC   GL263566  12.927  30.682   6.153
10007POPC   C1A63567  12.850  30.685   6.453
10007POPC   D2A63568  12.896  30.701   6.753
10007POPC   C3A63569  12.840  30.731   7.053
10007POPC   C4A63570  12.813  30.727   7.353
10007POPC   C1B63571  13.082  30.662   6.453
10007POPC   C2B63572  13.059  30.692   6.753
10007POPC   C3B63573  13.128  30.654   7.053
10007POPC   C4B63574  13.079  30.673   7.353
10008POPC   NC363575  40.808  32.231   5.553
10008POPC   PO463576  40.762  32.273   5.853
10008POPC   GL163577  40.796  32.240   6.153
10008POPC   GL263578  40.907  32.369   6.153
10008POPC   C1A63579  40.833  32.214   6.453
10008POPC   D2A63580  40.740  32.247   6.753
10008POPC   C3A63581  40.824  32.271   7.053
10008POPC   C4A63582  40.777  32.285   7.353
10008POPC   C1B63583  40.938  32.439   6.453
10008POPC   C2B63584  41.024  32.453   6.753
10008POPC   C3B63585  41.022  32.399   7.053
10008POPC   C4B63586  40.956  32.381   7.353
10009POPC   NC363587  25.271   8.974   5.553
10009POPC   PO463588  25.283   8.929   5.853
10009POPC   GL163589  25.251   8.933   6.153
10009POPC   GL263590  25.298   9.083   6.153
10009POPC   C1A63591  25.220   8.968   6.453
10009POPC   D2A63592  25.270   8.993   6.753
10009POPC   C3A63593  25.257   8.986   7.053
10009POPC   C4A63594  25.249   8.967   7.353
10009POPC   C1B63595  25.324   9.172   6.453
10009POPC   C2B63596  25.395   9.224   6.753
10009POPC   C3B63597  25.366   9.231   7.053
10009POPC   C4B63598  25.370   9.169   7.353
10010POPC   NC363599  24.468  32.218   5.553
10010POPC   PO463600  24.455  32.198   5.853
10010POPC   GL163601  24.458  32.241   6.153
10010POPC   GL263602  24.423  32.148   6.153
10010POPC   C1A63603  24.504  32.240   6.453
10010POPC   D2A63604  24.479  32.237   6.753
10010POPC   C3A63605  24.493  32.250   7.053
10010POPC   C4A63606  24.468  32.291   7.353
10010POPC   C1B63607  24.264  32.041   6.453
10010POPC   C2B63608  24.271  32.103   6.753
10010POPC   C3B63609  24.258  32.119   7.053
10010POPC   C4B63610  24.298  32.093   7.353
10011POPC   NC363611  37.667  25.242   5.553
10011POPC   PO463612  37.690  25.245   5.853
10011POPC   GL163613  37.680  25.303   6.153
10011POPC   GL263614  37.594  25.149   6.153
10011POPC   C1A63615  37.663  25.236   6.453
10011POPC   D2A63616  37.670  25.302   6.753
10011POPC   C3A63617  37.639  25.296   7.053
10011POPC   C4A63618  37.637  25.278   7.353
10011POPC   C1B63619  37.557  24.998   6.453
10011POPC   C2B63620  37.539  25.056   6.753
10011POPC   C3B63621  37.511  25.008   7.053
10011POPC   C4B63622  37.554  25.060   7.353
10012POPC   NC363623   9.733   5.046   5.553
10012POPC   PO463624   9.768   5.140   5.853
10012POPC   GL163625   9.724   5.082   6.153
10012POPC   GL263626   9.814   4.982   6.153
10012POPC   C1A63627   9.784   5.063   6.453
10012POPC   D2A63628   9.706   5.101   6.753
10012POPC   C3A63629   9.702   5.090   7.053
10012POPC   C4A63630   9.725   5.104   7.353
10012POPC   C1B63631   9.772   4.862   6.453
10012POPC   C2B63632   9.835   4.829   6.753
10012POPC   C3B63633   9.763   4.841   7.053
10012POPC   C4B63634   9.755   4.894   7.353
10013POPC   NC363635  33.767  35.371   5.553
10013POPC   PO463636  33.758  35.310   5.853
10013POPC   GL163637  33.830  35.344   6.153
10013POPC   GL263638  33.920  35.332   6.153
10013POPC   C1A63639  33.842  35.374   6.453
10013POPC   D2A63640  33.763  35.349   6.753
10013POPC   C3A63641  33.844  35.374   7.053
10013POPC   C4A63642  33.759  35.352   7.353
10013POPC   C1B63643  34.009  35.329   6.453
10013POPC   C2B63644  34.086  35.284   6.753
10013POPC   C3B63645  34.020  35.267   7.053
10013POPC   C4B63646  34.070  35.326   7.353
10014POPC   NC363647  33.803  10.571   5.553
10014POPC   PO463648  33.843  10.553   5.853
10014POPC   GL163649  33.758  10.482   6.153
10014POPC   GL263650  33.800  10.447   6.153
10014POPC   C1A63651  33.753  10.563   6.453
10014POPC   D2A63652  33.845  10.497   6.753
10014POPC   C3A63653  33.791  10.488   7.053
10014POPC   C4A63654  33.783  10.562   7.353
10014POPC   C1B63655  33.816  10.321   6.453
10014POPC   C2B63656  33.769  10.277   6.753
10014POPC   C3B63657  33.800  10.236   7.053
10014POPC   C4B63658  33.748  10.281   7.353
10015POPC   NC363659  40.827  16.690   5.553
10015POPC   PO463660  40.811  16.729   5.853
10015POPC   GL163661  40.818  16.728   6.153
10015POPC   GL263662  40.617  16.733   6.153
10015POPC   C1A63663  40.748  16.693   6.453
10015POPC   D2A63664  40.803  16.769   6.753
10015POPC   C3A63665  40.802  16.698   7.053
10015POPC   C4A63666  40.763  16.756   7.353
10015POPC   C1B63667  40.555  16.787   6.453
10015POPC   C2B63668  40.530  16.817   6.753
10015POPC   C3B63669  40.571  16.782   7.053
10015POPC   C4B63670  40.518  16.792   7.353
10016POPC   NC363671  15.940  28.401   5.553
10016POPC   PO463672  15.980  28.368   5.853
10016POPC   GL163673  15.945  28.413   6.153
10016POPC   GL263674  15.917  28.521   6.153
10016POPC   C1A63675  15.927  28.383   6.453
10016POPC   D2A63676  15.982  28.405   6.753
10016POPC   C3A63677  15.940  28.419   7.053
10016POPC   C4A63678  15.949  28.323   7.353
10016POPC   C1B63679  15.841  28.617   6.453
10016POPC   C2B63680  15.884  28.564   6.753
10016POPC   C3B63681  15.848  28.596   7.053
10016POPC   C4B63682  15.864  28.588   7.353
10017POPC   NC363683  33.834  23.728   5.553
10017POPC   PO463684  33.814  23.696   5.853
10017POPC   GL163685  33.774  23.730   6.153
10017POPC   GL263686  33.709  23.666   6.153
10017POPC   C1A63687  33.842  23.680   6.453
10017POPC   D2A63688  33.784  23.674   6.753
10017POPC   C3A63689  33.764  23.673   7.053
10017POPC   C4A63690  33.812  23.711   7.353
10017POPC   C1B63691  33.598  23.498   6.453
10017POPC   C2B63692  33.643  23.507   6.753
10017POPC   C3B63693  33.679  23.504   7.053
10017POPC   C4B63694  33.671  23.534   7.353
10018POPC   NC363695  14.364   3.524   5.553
10018POPC   PO463696  14.424   3.564   5.853
10018POPC   GL163697  14.435   3.495   6.153
10018POPC   GL263698  14.530   3.419   6.153
10018POPC   C1A63699  14.400   3.517   6.453
10018POPC   D2A63700  14.401   3.553   6.753
10018POPC   C3A63701  14.378   3.551   7.053
10018POPC   C4A63702  14.442   3.511   7.353
10018POPC   C1B63703  14.604   3.347   6.453
10018POPC   C2B63704  14.609   3.392   6.753
10018POPC   C3B63705  14.603   3.409   7.053
10018POPC   C4B63706  14.605   3.429   7.353
10019POPC   NC363707  11.332  12.850   5.553
10019POPC   PO463708  11.348  12.813   5.853
10019POPC   GL163709  11.313  12.846   6.153
10019POPC   GL263710  11.229  12.875   6.153
10019POPC   C1A63711  11.350  12.849   6.453
10019POPC   D2A63712  11.250  12.900   6.753
10019POPC   C3A63713  11.300  12.870   7.053
10019POPC   C4A63714  11.300  12.865   7.353
10019POPC   C1B63715  11.054  12.982   6.453
10019POPC   C2B63716  11.078  12.973   6.753
10019POPC   C3B63717  11.127  12.941   7.053
10019POPC   C4B63718  11.089  12.977   7.353
10020POPC   NC363719  21.382  42.380   5.553
10020POPC   PO463720  21.414  42.306   5.853
10020POPC   GL163721  21.393  42.360   6.153
10020POPC   GL263722  21.416  42.420   6.153
10020POPC   C1A63723  21.374  42.354   6.453
10020POPC   D2A63724  21.392  42.338   6.753
10020POPC   C3A63725  21.357  42.348   7.053
10020POPC   C4A63726  21.409  42.317   7.353
10020POPC   C1B63727  21.447  42.549   6.453
10020POPC   C2B63728  21.403  42.618   6.753
10020POPC   C3B63729  21.448  42.554   7.053
10020POPC   C4B63730  21.485  42.616   7.353
10021POPC   NC363731   6.634  32.234   5.553
10021POPC   PO463732   6.684  32.214   5.853
10021POPC   GL163733   6.670  32.215   6.153
10021POPC   GL263734   6.708  32.259   6.153
10021POPC   C1A63735   6.649  32.292   6.453
10021POPC   D2A63736   6.680  32.273   6.753
10021POPC   C3A63737   6.661  32.278   7.053
10021POPC   C4A63738   6.601  32.249   7.353
10021POPC   C1B63739   6.868  32.363   6.453
10021POPC   C2B63740   6.869  32.369   6.753
10021POPC   C3B63741   6.894  32.347   7.053
10021POPC   C4B63742   6.873  32.339   7.353
10022POPC   NC363743   1.965   5.823   5.553
10022POPC   PO463744   2.008   5.838   5.853
10022POPC   GL163745   1.959   5.900   6.153
10022POPC   GL263746   2.131   5.854   6.153
10022POPC   C1A63747   2.014   5.909   6.453
10022POPC   D2A63748   1.953   5.907   6.753
10022POPC   C3A63749   1.997   5.833   7.053
10022POPC   C4A63750   1.991   5.905   7.353
10022POPC   C1B63751   2.275   5.850   6.453
10022POPC   C2B63752   2.201   5.890   6.753
10022POPC   C3B63753   2.226   5.814   7.053
10022POPC   C4B63754   2.200   5.802   7.353
10023POPC   NC363755  43.934   4.315   5.553
10023POPC   PO463756  43.925   4.343   5.853
10023POPC   GL163757  43.919   4.311   6.153
10023POPC   GL263758  43.746   4.325   6.153
10023POPC   C1A63759  43.863   4.351   6.453
10023POPC   D2A63760  43.842   4.303   6.753
10023POPC   C3A63761  43.863   4.281   7.053
10023POPC   C4A63762  43.884   4.289   7.353
10023POPC   C1B63763  43.612   4.382   6.453
10023POPC   C2B63764  43.634   4.366   6.753
10023POPC   C3B63765  43.605   4.399   7.053
10023POPC   C4B63766  43.672   4.390   7.353
10024POPC   NC363767  40.782   7.468   5.553
10024POPC   PO463768  40.825   7.395   5.853
10024POPC   GL163769  40.812   7.387   6.153
10024POPC   GL263770  40.921   7.425   6.153
10024POPC   C1A63771  40.788   7.391   6.453
10024POPC   D2A63772  40.796   7.380   6.753
10024POPC   C3A63773  40.779   7.428   7.053
10024POPC   C4A63774  40.819   7.387   7.353
10024POPC   C1B63775  40.996   7.368   6.453
10024POPC   C2B63776  41.020   7.429   6.753
10024POPC   C3B63777  41.036   7.349   7.053
10024POPC   C4B63778  41.079   7.410   7.353
10025POPC   NC363779  36.911  28.356   5.553
10025POPC   PO463780  36.894  28.401   5.853
10025POPC   GL163781  36.870  28.337   6.153
10025POPC   GL263782  37.041  28.289   6.153
10025POPC   C1A63783  36.874  28.346   6.453
10025POPC   D2A63784  36.912  28.377   6.753
10025POPC   C3A63785  36.865  28.335   7.053
10025POPC   C4A63786  36.903  28.419   7.353
10025POPC   C1B63787  37.108  28.217   6.453
10025POPC   C2B63788  37.104  28.193   6.753
10025POPC   C3B63789  37.100  28.254   7.053
10025POPC   C4B63790  37.087  28.166   7.353
10026POPC   NC363791  23.681  23.716   5.553
10026POPC   PO463792  23.736  23.671   5.853
10026POPC   GL163793  23.747  23.685   6.153
10026POPC   GL263794  23.669  23.803   6.153
10026POPC   C1A63795  23.708  23.698   6.453
10026POPC   D2A63796  23.752  23.703   6.753
10026POPC   C3A63797  23.752  23.666   7.053
10026POPC   C4A63798  23.687  23.757   7.353
10026POPC   C1B63799  23.690  23.953   6.453
10026POPC   C2B63800  23.692  24.000   6.753
10026POPC   C3B63801  23.670  23.910   7.053
10026POPC   C4B63802  23.625  23.991   7.353
10027POPC   NC363803  38.435  42.334   5.553
10027POPC   PO463804  38.503  42.307   5.853
10027POPC   GL163805  38.491  42.323   6.153
10027POPC   GL263806  38.549  42.344   6.153
10027POPC   C1A63807  38.455  42.316   6.453
10027POPC   D2A63808  38.502  42.336   6.753
10027POPC   C3A63809  38.461  42.305   7.053
10027POPC   C4A63810  38.416  42.301   7.353
10027POPC   C1B63811  38.677  42.286   6.453
10027POPC   C2B63812  38.668  42.314   6.753
10027POPC   C3B63813  38.745  42.313   7.053
10027POPC   C4B63814  38.675  42.334   7.353
10028POPC   NC363815  29.169  36.883   5.553
10028POPC   PO463816  29.154  36.931   5.853
10028POPC   GL163817  29.187  36.855   6.153
10028POPC   GL263818  29.259  37.042   6.153
10028POPC   C1A63819  29.189  36.942   6.453
10028POPC   D2A63820  29.100  36.946   6.753
10028POPC   C3A63821  29.133  36.865   7.053
10028POPC   C4A63822  29.106  36.892   7.353
10028POPC   C1B63823  29.294  37.155   6.453
10028POPC   C2B63824  29.267  37.145   6.753
10028POPC   C3B63825  29.338  37.066   7.053
10028POPC   C4B63826  29.306  37.076   7.353
10029POPC   NC363827  20.656  26.079   5.553
10029POPC   PO463828  20.629  26.012   5.853
10029POPC   GL163829  20.628  26.007   6.153
10029POPC   GL263830  20.534  26.100   6.153
10029POPC   C1A63831  20.659  26.056   6.453
10029POPC   D2A63832  20.576  26.090   6.753
10029POPC   C3A63833  20.632  26.034   7.053
10029POPC   C4A63834  20.605  26.045   7.353
10029POPC   C1B63835  20.510  26.288   6.453
10029POPC   C2B63836  20.513  26.210   6.753
10029POPC   C3B63837  20.458  26.214   7.053
10029POPC   C4B63838  20.504  26.274   7.353
10030POPC   NC363839  42.326   7.426   5.553
10030POPC   PO463840  42.381   7.398   5.853
10030POPC   GL163841  42.306   7.438   6.153
10030POPC   GL263842  42.498   7.431   6.153
10030POPC   C1A63843  42.303   7.466   6.453
10030POPC   D2A63844  42.355   7.419   6.753
10030POPC   C3A63845  42.349   7.422   7.053
10030POPC   C4A63846  42.301   7.383   7.353
10030POPC   C1B63847  42.536   7.354   6.453
10030POPC   C2B63848  42.556   7.367   6.753
10030POPC   C3B63849  42.543   7.378   7.053
10030POPC   C4B63850  42.605   7.337   7.353
10031POPC   NC363851  39.187  26.808   5.553
10031POPC   PO463852  39.272  26.860   5.853
10031POPC   GL163853  39.250  26.775   6.153
10031POPC   GL263854  39.309  26.836   6.153
10031POPC   C1A63855  39.183  26.829   6.453
10031POPC   D2A63856  39.268  26.822   6.753
10031POPC   C3A63857  39.202  26.769   7.053
10031POPC   C4A63858  39.236  26.829   7.353
10031POPC   C1B63859  39.431  26.883   6.453
10031POPC   C2B63860  39.506  26.848   6.753
10031POPC   C3B63861  39.469  26.921   7.053
10031POPC   C4B63862  39.442  26.860   7.353
10032POPC   NC363863   9.003  38.414   5.553
10032POPC   PO463864   8.942  38.478   5.853
10032POPC   GL163865   8.961  38.460   6.153
10032POPC   GL263866   8.965  38.301   6.153
10032POPC   C1A63867   8.952  38.461   6.453
10032POPC   D2A63868   9.003  38.416   6.753
10032POPC   C3A63869   9.015  38.470   7.053
10032POPC   C4A63870   8.999  38.426   7.353
10032POPC   C1B63871   9.001  38.209   6.453
10032POPC   C2B63872   9.004  38.225   6.753
10032POPC   C3B63873   9.026  38.169   7.053
10032POPC   C4B63874   9.065  38.221   7.353
10033POPC   NC363875  38.455  20.611   5.553
10033POPC   PO463876  38.498  20.601   5.853
10033POPC   GL163877  38.467  20.637   6.153
10033POPC   GL263878  38.416  20.686   6.153
10033POPC   C1A63879  38.485  20.560   6.453
10033POPC   D2A63880  38.409  20.623   6.753
10033POPC   C3A63881  38.481  20.580   7.053
10033POPC   C4A63882  38.456  20.646   7.353
10033POPC   C1B63883  38.416  20.881   6.453
10033POPC   C2B63884  38.382  20.906   6.753
10033POPC   C3B63885  38.405  20.903   7.053
10033POPC   C4B63886  38.365  20.839   7.353
10034POPC   NC363887  29.961   8.178   5.553
10034POPC   PO463888  29.887   8.245   5.853
10034POPC   GL163889  29.896   8.197   6.153
10034POPC   GL263890  30.045   8.299   6.153
10034POPC   C1A63891  29.873   8.201   6.453
10034POPC   D2A63892  29.954   8.171   6.753
10034POPC   C3A63893  29.949   8.157   7.053
10034POPC   C4A63894  29.890   8.189   7.353
10034POPC   C1B63895  30.070   8.361   6.453
10034POPC   C2B63896  30.024   8.418   6.753
10034POPC   C3B63897  30.063   8.365   7.053
10034POPC   C4B63898  30.089   8.369   7.353
10035POPC   NC363899  36.086  27.592   5.553
10035POPC   PO463900  36.138  27.576   5.853
10035POPC   GL163901  36.122  27.632   6.153
10035POPC   GL263902  35.999  27.483   6.153
10035POPC   C1A63903  36.147  27.617   6.453
10035POPC   D2A63904  36.156  27.604   6.753
10035POPC   C3A63905  36.158  27.597   7.053
10035POPC   C4A63906  36.170  27.635   7.353
10035POPC   C1B63907  35.962  27.440   6.453
10035POPC   C2B63908  35.997  27.390   6.753
10035POPC   C3B63909  35.907  27.453   7.053
10035POPC   C4B63910  35.992  27.439   7.353
10036POPC   NC363911  13.589   1.237   5.553
10036POPC   PO463912  13.629   1.239   5.853
10036POPC   GL163913  13.638   1.260   6.153
10036POPC   GL263914  13.484   1.257   6.153
10036POPC   C1A63915  13.668   1.218   6.453
10036POPC   D2A63916  13.598   1.181   6.753
10036POPC   C3A63917  13.595   1.166   7.053
10036POPC   C4A63918  13.578   1.187   7.353
10036POPC   C1B63919  13.419   1.242   6.453
10036POPC   C2B63920  13.352   1.270   6.753
10036POPC   C3B63921  13.360   1.242   7.053
10036POPC   C4B63922  13.432   1.292   7.353
10037POPC   NC363923  34.551  24.530   5.553
10037POPC   PO463924  34.556  24.502   5.853
10037POPC   GL163925  34.602  24.499   6.153
10037POPC   GL263926  34.732  24.470   6.153
10037POPC   C1A63927  34.537  24.474   6.453
10037POPC   D2A63928  34.557  24.465   6.753
10037POPC   C3A63929  34.599  24.520   7.053
10037POPC   C4A63930  34.579  24.465   7.353
10037POPC   C1B63931  34.863  24.499   6.453
10037POPC   C2B63932  34.847  24.522   6.753
10037POPC   C3B63933  34.832  24.486   7.053
10037POPC   C4B63934  34.820  24.503   7.353
10038POPC   NC363935  17.504  18.288   5.553
10038POPC   PO463936  17.499  18.273   5.853
10038POPC   GL163937  17.542  18.287   6.153
10038POPC   GL263938  17.373  18.341   6.153
10038POPC   C1A63939  17.459  18.237   6.453
10038POPC   D2A63940  17.555  18.260   6.753
10038POPC   C3A63941  17.525  18.294   7.053
10038POPC   C4A63942  17.534  18.312   7.353
10038POPC   C1B63943  17.256  18.407   6.453
10038POPC   C2B63944  17.335  18.421   6.753
10038POPC   C3B63945  17.302  18.477   7.053
10038POPC   C4B63946  17.297  18.408   7.353
10039POPC   NC363947   8.198  12.054   5.553
10039POPC   PO463948   8.225  12.122   5.853
10039POPC   GL163949   8.196  12.032   6.153
10039POPC   GL263950   8.304  12.001   6.153
10039POPC   C1A63951   8.148  12.098   6.453
10039POPC   D2A63952   8.186  12.108   6.753
10039POPC   C3A63953   8.193  12.107   7.053
10039POPC   C4A63954   8.219  12.048   7.353
10039POPC   C1B63955   8.422  11.993   6.453
10039POPC   C2B63956   8.394  12.031   6.753
10039POPC   C3B63957   8.387  12.039   7.053
10039POPC   C4B63958   8.410  11.987   7.353
10040POPC   NC363959  36.920  14.356   5.553
10040POPC   PO463960  36.942  14.371   5.853
10040POPC   GL163961  36.904  14.435   6.153
10040POPC   GL263962  37.009  14.272   6.153
10040POPC   C1A63963  36.908  14.413   6.453
10040POPC   D2A63964  36.881  14.440   6.753
10040POPC   C3A63965  36.898  14.367   7.053
10040POPC   C4A63966  36.913  14.354   7.353
10040POPC   C1B63967  37.010  14.169   6.453
10040POPC   C2B63968  37.068  14.226   6.753
10040POPC   C3B63969  37.034  14.223   7.053
10040POPC   C4B63970  37.090  14.157   7.353
10041POPC   NC363971  23.722  30.651   5.553
10041POPC   PO463972  23.714  30.746   5.853
10041POPC   GL163973  23.696  30.676   6.153
10041POPC   GL263974  23.652  30.596   6.153
10041POPC   C1A63975  23.714  30.659   6.453
10041POPC   D2A63976  23.747  30.674   6.753
10041POPC   C3A63977  23.673  30.668   7.053
10041POPC   C4A63978  23.759  30.725   7.353
10041POPC   C1B63979  23.571  30.474   6.453
10041POPC   C2B63980  23.579  30.472   6.753
10041POPC   C3B63981  23.569  30.509   7.053
10041POPC   C4B63982  23.549  30.516   7.353
10042POPC   NC363983  20.646  36.927   5.553
10042POPC   PO463984  20.574  36.906   5.853
10042POPC   GL163985  20.598  36.857   6.153
10042POPC   GL263986  20.737  36.928   6.153
10042POPC   C1A63987  20.562  36.922   6.453
10042POPC   D2A63988  20.579  36.864   6.753
10042POPC   C3A63989  20.568  36.885   7.053
10042POPC   C4A63990  20.571  36.887   7.353
10042POPC   C1B63991  20.843  36.950   6.453
10042POPC   C2B63992  20.816  36.986   6.753
10042POPC   C3B63993  20.804  37.012   7.053
10042POPC   C4B63994  20.813  37.027   7.353
10043POPC   NC363995  22.901  16.715   5.553
10043POPC   PO463996  22.895  16.693   5.853
10043POPC   GL163997  22.908  16.722   6.153
10043POPC   GL263998  22.970  16.886   6.153
10043POPC   C1A63999  22.929  16.775   6.453
10043POPC   D2A64000  22.900  16.741   6.753
10043POPC   C3A64001  22.968  16.760   7.053
10043POPC   C4A64002  22.904  16.724   7.353
10043POPC   C1B64003  22.977  17.013   6.453
10043POPC   C2B64004  23.027  16.931   6.753
10043POPC   C3B64005  23.044  16.927   7.053
10043POPC   C4B64006  23.024  16.953   7.353
10044POPC   NC364007  37.642  26.776   5.553
10044POPC   PO464008  37.682  26.847   5.853
10044POPC   GL164009  37.712  26.779   6.153
10044POPC   GL264010  37.603  26.925   6.153
10044POPC   C1A64011  37.635  26.778   6.453
10044POPC   D2A64012  37.659  26.786   6.753
10044POPC   C3A64013  37.650  26.845   7.053
10044POPC   C4A64014  37.686  26.791   7.353
10044POPC   C1B64015  37.518  26.972   6.453
10044POPC   C2B64016  37.488  26.953   6.753
10044POPC   C3B64017  37.455  26.986   7.053
10044POPC   C4B64018  37.469  26.953   7.353
10045POPC   NC364019  27.548  43.849   5.553
10045POPC   PO464020  27.582  43.906   5.853
10045POPC   GL164021  27.562  43.916   6.153
10045POPC   GL264022  27.477  43.810   6.153
10045POPC   C1A64023  27.595  43.933   6.453
10045POPC   D2A64024  27.637  43.846   6.753
10045POPC   C3A64025  27.634  43.867   7.053
10045POPC   C4A64026  27.605  43.897   7.353
10045POPC   C1B64027  27.426  43.674   6.453
10045POPC   C2B64028  27.458  43.687   6.753
10045POPC   C3B64029  27.378  43.688   7.053
10045POPC   C4B64030  27.444  43.682   7.353
10046POPC   NC364031  34.558  28.324   5.553
10046POPC   PO464032  34.527  28.346   5.853
10046POPC   GL164033  34.560  28.380   6.153
10046POPC   GL264034  34.589  28.481   6.153
10046POPC   C1A64035  34.553  28.330   6.453
10046POPC   D2A64036  34.606  28.398   6.753
10046POPC   C3A64037  34.626  28.398   7.053
10046POPC   C4A64038  34.606  28.351   7.353
10046POPC   C1B64039  34.639  28.642   6.453
10046POPC   C2B64040  34.625  28.594   6.753
10046POPC   C3B64041  34.619  28.574   7.053
10046POPC   C4B64042  34.603  28.590   7.353
10047POPC   NC364043  37.676  15.151   5.553
10047POPC   PO464044  37.713  15.178   5.853
10047POPC   GL164045  37.690  15.219   6.153
10047POPC   GL264046  37.554  15.266   6.153
10047POPC   C1A64047  37.714  15.198   6.453
10047POPC   D2A64048  37.708  15.200   6.753
10047POPC   C3A64049  37.647  15.161   7.053
10047POPC   C4A64050  37.718  15.228   7.353
10047POPC   C1B64051  37.475  15.295   6.453
10047POPC   C2B64052  37.452  15.261   6.753
10047POPC   C3B64053  37.453  15.320   7.053
10047POPC   C4B64054  37.478  15.262   7.353
10048POPC   NC364055  44.665  34.533   5.553
10048POPC   PO464056  44.652  34.613   5.853
10048POPC   GL164057  44.690  34.566   6.153
10048POPC   GL264058  44.696  34.717   6.153
10048POPC   C1A64059  44.622  34.594   6.453
10048POPC   D2A64060  44.668  34.552   6.753
10048POPC   C3A64061  44.620  34.604   7.053
10048POPC   C4A64062  44.678  34.556   7.353
10048POPC   C1B64063  44.702  34.853   6.453
10048POPC   C2B64064  44.704  34.797   6.753
10048POPC   C3B64065  44.743  34.773   7.053
10048POPC   C4B64066  44.735  34.839   7.353
10049POPC   NC364067  24.509   9.754   5.553
10049POPC   PO464068  24.458   9.785   5.853
10049POPC   GL164069  24.460   9.729   6.153
10049POPC   GL264070  24.453   9.836   6.153
10049POPC   C1A64071  24.528   9.754   6.453
10049POPC   D2A64072  24.531   9.746   6.753
10049POPC   C3A64073  24.474   9.778   7.053
10049POPC   C4A64074  24.493   9.722   7.353
10049POPC   C1B64075  24.420  10.027   6.453
10049POPC   C2B64076  24.426  10.035   6.753
10049POPC   C3B64077  24.468   9.952   7.053
10049POPC   C4B64078  24.509  10.028   7.353
10050POPC   NC364079  16.726  30.680   5.553
10050POPC   PO464080  16.764  30.650   5.853
10050POPC   GL164081  16.741  30.670   6.153
10050POPC   GL264082  16.728  30.542   6.153
10050POPC   C1A64083  16.770  30.735   6.453
10050POPC   D2A64084  16.760  30.691   6.753
10050POPC   C3A64085  16.703  30.664   7.053
10050POPC   C4A64086  16.702  30.719   7.353
10050POPC   C1B64087  16.843  30.498   6.453
10050POPC   C2B64088  16.768  30.477   6.753
10050POPC   C3B64089  16.844  30.481   7.053
10050POPC   C4B64090  16.777  30.428   7.353
10051POPC   NC364091  33.809   4.317   5.553
10051POPC   PO464092  33.843   4.317   5.853
10051POPC   GL164093  33.808   4.286   6.153
10051POPC   GL264094  33.874   4.240   6.153
10051POPC   C1A64095  33.822   4.290   6.453
10051POPC   D2A64096  33.832   4.314   6.753
10051POPC   C3A64097  33.811   4.342   7.053
10051POPC   C4A64098  33.846   4.350   7.353
10051POPC   C1B64099  34.064   4.270   6.453
10051POPC   C2B64100  33.994   4.279   6.753
10051POPC   C3B64101  33.992   4.275   7.053
10051POPC   C4B64102  34.003   4.253   7.353
10052POPC   NC364103  43.884  11.316   5.553
10052POPC   PO464104  43.849  11.338   5.853
10052POPC   GL164105  43.850  11.330   6.153
10052POPC   GL264106  43.959  11.191   6.153
10052POPC   C1A64107  43.901  11.302   6.453
10052POPC   D2A64108  43.892  11.280   6.753
10052POPC   C3A64109  43.901  11.263   7.053
10052POPC   C4A64110  43.839  11.270   7.353
10052POPC   C1B64111  43.975  11.085   6.453
10052POPC   C2B64112  43.949  11.099   6.753
10052POPC   C3B64113  43.995  11.025   7.053
10052POPC   C4B64114  43.995  11.109   7.353
10053POPC   NC364115   0.487   4.295   5.553
10053POPC   PO464116   0.434   4.355   5.853
10053POPC   GL164117   0.398   4.316   6.153
10053POPC   GL264118   0.503   4.259   6.153
10053POPC   C1A64119   0.389   4.282   6.453
10053POPC   D2A64120   0.410   4.298   6.753
10053POPC   C3A64121   0.421   4.307   7.053
10053POPC   C4A64122   0.439   4.268   7.353
10053POPC   C1B64123   0.562   4.135   6.453
10053POPC   C2B64124   0.551   4.121   6.753
10053POPC   C3B64125   0.554   4.143   7.053
10053POPC   C4B64126   0.527   4.129   7.353
10054POPC   NC364127  27.584  40.773   5.553
10054POPC   PO464128  27.643  40.752   5.853
10054POPC   GL164129  27.576  40.825   6.153
10054POPC   GL264130  27.640  40.675   6.153
10054POPC   C1A64131  27.622  40.771   6.453
10054POPC   D2A64132  27.600  40.827   6.753
10054POPC   C3A64133  27.603  40.786   7.053
10054POPC   C4A64134  27.604  40.811   7.353
10054POPC   C1B64135  27.711  40.562   6.453
10054POPC   C2B64136  27.735  40.534   6.753
10054POPC   C3B64137  27.753  40.559   7.053
10054POPC   C4B64138  27.724  40.529   7.353
10055POPC   NC364139   1.974  18.309   5.553
10055POPC   PO464140   1.996  18.257   5.853
10055POPC   GL164141   2.022  18.256   6.153
10055POPC   GL264142   1.892  18.319   6.153
10055POPC   C1A64143   1.972  18.267   6.453
10055POPC   D2A64144   1.954  18.256   6.753
10055POPC   C3A64145   1.944  18.289   7.053
10055POPC   C4A64146   1.977  18.271   7.353
10055POPC   C1B64147   1.708  18.269   6.453
10055POPC   C2B64148   1.761  18.285   6.753
10055POPC   C3B64149   1.692  18.318   7.053
10055POPC   C4B64150   1.761  18.265   7.353
10056POPC   NC364151  23.697  10.497   5.553
10056POPC   PO464152  23.739  10.488   5.853
10056POPC   GL164153  23.699  10.498   6.153
10056POPC   GL264154  23.694  10.405   6.153
10056POPC   C1A64155  23.688  10.477   6.453
10056POPC   D2A64156  23.731  10.543   6.753
10056POPC   C3A64157  23.668  10.503   7.053
10056POPC   C4A64158  23.712  10.531   7.353
10056POPC   C1B64159  23.724  10.247   6.453
10056POPC   C2B64160  23.750  10.251   6.753
10056POPC   C3B64161  23.765  10.271   7.053
10056POPC   C4B64162  23.782  10.283   7.353
10057POPC   NC364163  33.820   9.795   5.553
10057POPC   PO464164  33.826   9.728   5.853
10057POPC   GL164165  33.810   9.750   6.153
10057POPC   GL264166  33.789   9.847   6.153
10057POPC   C1A64167  33.778   9.747   6.453
10057POPC   D2A64168  33.795   9.723   6.753
10057POPC   C3A64169  33.800   9.756   7.053
10057POPC   C4A64170  33.800   9.766   7.353
10057POPC   C1B64171  33.853  10.015   6.453
10057POPC   C2B64172  33.819   9.985   6.753
10057POPC   C3B64173  33.858   9.964   7.053
10057POPC   C4B64174  33.866   9.997   7.353
10058POPC   NC364175  18.283  44.676   5.553
10058POPC   PO464176  18.271  44.665   5.853
10058POPC   GL164177  18.248  44.663   6.153
10058POPC   GL264178  18.259  44.546   6.153
10058POPC   C1A64179  18.317  44.687   6.453
10058POPC   D2A64180  18.289  44.700   6.753
10058POPC   C3A64181  18.318  44.707   7.053
10058POPC   C4A64182  18.264  44.619   7.353
10058POPC   C1B64183  18.359  44.402   6.453
10058POPC   C2B64184  18.358  44.386   6.753
10058POPC   C3B64185  18.306  44.445   7.053
10058POPC   C4B64186  18.304  44.385   7.353
10059POPC   NC364187  18.321   3.588   5.553
10059POPC   PO464188  18.260   3.504   5.853
10059POPC   GL164189  18.264   3.492   6.153
10059POPC   GL264190  18.133   3.532   6.153
10059POPC   C1A64191  18.276   3.517   6.453
10059POPC   D2A64192  18.303   3.551   6.753
10059POPC   C3A64193  18.266   3.575   7.053
10059POPC   C4A64194  18.304   3.577   7.353
10059POPC   C1B64195  18.079   3.506   6.453
10059POPC   C2B64196  18.010   3.543   6.753
10059POPC   C3B64197  18.013   3.463   7.053
10059POPC   C4B64198  18.068   3.499   7.353
10060POPC   NC364199  33.015   8.223   5.553
10060POPC   PO464200  33.070   8.184   5.853
10060POPC   GL164201  32.977   8.172   6.153
10060POPC   GL264202  32.886   8.288   6.153
10060POPC   C1A64203  33.071   8.217   6.453
10060POPC   D2A64204  32.991   8.201   6.753
10060POPC   C3A64205  32.987   8.235   7.053
10060POPC   C4A64206  33.041   8.230   7.353
10060POPC   C1B64207  32.783   8.395   6.453
10060POPC   C2B64208  32.822   8.331   6.753
10060POPC   C3B64209  32.847   8.355   7.053
10060POPC   C4B64210  32.831   8.394   7.353
10061POPC   NC364211  12.094  25.286   5.553
10061POPC   PO464212  12.102  25.304   5.853
10061POPC   GL164213  12.093  25.222   6.153
10061POPC   GL264214  12.116  25.168   6.153
10061POPC   C1A64215  12.071  25.252   6.453
10061POPC   D2A64216  12.068  25.226   6.753
10061POPC   C3A64217  12.045  25.286   7.053
10061POPC   C4A64218  12.097  25.249   7.353
10061POPC   C1B64219  12.172  25.023   6.453
10061POPC   C2B64220  12.215  25.061   6.753
10061POPC   C3B64221  12.152  25.027   7.053
10061POPC   C4B64222  12.173  25.017   7.353
10062POPC   NC364223  13.629  22.178   5.553
10062POPC   PO464224  13.613  22.133   5.853
10062POPC   GL164225  13.599  22.155   6.153
10062POPC   GL264226  13.591  22.299   6.153
10062POPC   C1A64227  13.636  22.117   6.453
10062POPC   D2A64228  13.646  22.164   6.753
10062POPC   C3A64229  13.586  22.158   7.053
10062POPC   C4A64230  13.650  22.195   7.353
10062POPC   C1B64231  13.569  22.345   6.453
10062POPC   C2B64232  13.558  22.384   6.753
10062POPC   C3B64233  13.514  22.365   7.053
10062POPC   C4B64234  13.558  22.421   7.353
10063POPC   NC364235  29.181  35.346   5.553
10063POPC   PO464236  29.118  35.359   5.853
10063POPC   GL164237  29.170  35.341   6.153
10063POPC   GL264238  29.009  35.392   6.153
10063POPC   C1A64239  29.179  35.339   6.453
10063POPC   D2A64240  29.140  35.318   6.753
10063POPC   C3A64241  29.138  35.363   7.053
10063POPC   C4A64242  29.179  35.398   7.353
10063POPC   C1B64243  28.908  35.468   6.453
10063POPC   C2B64244  28.871  35.431   6.753
10063POPC   C3B64245  28.908  35.401   7.053
10063POPC   C4B64246  28.903  35.386   7.353
10064POPC   NC364247  30.663   7.462   5.553
10064POPC   PO464248  30.672   7.426   5.853
10064POPC   GL164249  30.647   7.389   6.153
10064POPC   GL264250  30.697   7.531   6.153
10064POPC   C1A64251  30.708   7.467   6.453
10064POPC   D2A64252  30.745   7.402   6.753
10064POPC   C3A64253  30.680   7.431   7.053
10064POPC   C4A64254  30.735   7.445   7.353
10064POPC   C1B64255  30.781   7.650   6.453
10064POPC   C2B64256  30.818   7.627   6.753
10064POPC   C3B64257  30.783   7.672   7.053
10064POPC   C4B64258  30.789   7.677   7.353
10065POPC   NC364259  12.877  39.972   5.553
10065POPC   PO464260  12.852  39.978   5.853
10065POPC   GL164261  12.856  40.014   6.153
10065POPC   GL264262  12.945  39.891   6.153
10065POPC   C1A64263  12.835  40.012   6.453
10065POPC   D2A64264  12.879  40.009   6.753
10065POPC   C3A64265  12.859  39.988   7.053
10065POPC   C4A64266  12.860  40.026   7.353
10065POPC   C1B64267  13.074  39.831   6.453
10065POPC   C2B64268  13.093  39.896   6.753
10065POPC   C3B64269  13.028  39.842   7.053
10065POPC   C4B64270  13.066  39.820   7.353
10066POPC   NC364271  26.048  17.490   5.553
10066POPC   PO464272  26.075  17.557   5.853
10066POPC   GL164273  26.083  17.553   6.153
10066POPC   GL264274  25.929  17.429   6.153
10066POPC   C1A64275  25.993  17.545   6.453
10066POPC   D2A64276  25.999  17.499   6.753
10066POPC   C3A64277  26.029  17.515   7.053
10066POPC   C4A64278  26.057  17.466   7.353
10066POPC   C1B64279  25.844  17.438   6.453
10066POPC   C2B64280  25.823  17.460   6.753
10066POPC   C3B64281  25.812  17.439   7.053
10066POPC   C4B64282  25.770  17.447   7.353
10067POPC   NC364283   5.096  20.641   5.553
10067POPC   PO464284   5.114  20.577   5.853
10067POPC   GL164285   5.049  20.583   6.153
10067POPC   GL264286   5.234  20.547   6.153
10067POPC   C1A64287   5.045  20.600   6.453
10067POPC   D2A64288   5.098  20.606   6.753
10067POPC   C3A64289   5.139  20.586   7.053
10067POPC   C4A64290   5.130  20.574   7.353
10067POPC   C1B64291   5.334  20.503   6.453
10067POPC   C2B64292   5.380  20.522   6.753
10067POPC   C3B64293   5.320  20.490   7.053
10067POPC   C4B64294   5.345  20.536   7.353
10068POPC   NC364295  26.796  39.257   5.553
10068POPC   PO464296  26.786  39.188   5.853
10068POPC   GL164297  26.864  39.184   6.153
10068POPC   GL264298  26.861  39.127   6.153
10068POPC   C1A64299  26.823  39.228   6.453
10068POPC   D2A64300  26.833  39.200   6.753
10068POPC   C3A64301  26.863  39.268   7.053
10068POPC   C4A64302  26.769  39.210   7.353
10068POPC   C1B64303  26.937  39.091   6.453
10068POPC   C2B64304  27.006  39.026   6.753
10068POPC   C3B64305  26.947  39.064   7.053
10068POPC   C4B64306  26.989  39.054   7.353
10069POPC   NC364307  29.103  12.807   5.553
10069POPC   PO464308  29.180  12.836   5.853
10069POPC   GL164309  29.145  12.812   6.153
10069POPC   GL264310  29.257  12.791   6.153
10069POPC   C1A64311  29.166  12.832   6.453
10069POPC   D2A64312  29.112  12.872   6.753
10069POPC   C3A64313  29.146  12.803   7.053
10069POPC   C4A64314  29.139  12.857   7.353
10069POPC   C1B64315  29.412  12.793   6.453
10069POPC   C2B64316  29.334  12.798   6.753
10069POPC   C3B64317  29.415  12.792   7.053
10069POPC   C4B64318  29.334  12.805   7.353
10070POPC   NC364319   7.387   1.228   5.553
10070POPC   PO464320   7.424   1.210   5.853
10070POPC   GL164321   7.433   1.207   6.153
10070POPC   GL264322   7.295   1.270   6.153
10070POPC   C1A64323   7.428   1.207   6.453
10070POPC   D2A64324   7.459   1.213   6.753
10070POPC   C3A64325   7.399   1.186   7.053
10070POPC   C4A64326   7.377   1.234   7.353
10070POPC   C1B64327   7.271   1.433   6.453
10070POPC   C2B64328   7.206   1.364   6.753
10070POPC   C3B64329   7.251   1.384   7.053
10070POPC   C4B64330   7.219   1.424   7.353
10071POPC   NC364331  28.357   8.945   5.553
10071POPC   PO464332  28.398   8.950   5.853
10071POPC   GL164333  28.400   8.999   6.153
10071POPC   GL264334  28.398   8.875   6.153
10071POPC   C1A64335  28.325   8.951   6.453
10071POPC   D2A64336  28.405   8.924   6.753
10071POPC   C3A64337  28.370   8.924   7.053
10071POPC   C4A64338  28.325   8.982   7.353
10071POPC   C1B64339  28.375   8.712   6.453
10071POPC   C2B64340  28.355   8.771   6.753
10071POPC   C3B64341  28.321   8.745   7.053
10071POPC   C4B64342  28.310   8.753   7.353
10072POPC   NC364343  16.732  42.335   5.553
10072POPC   PO464344  16.688  42.377   5.853
10072POPC   GL164345  16.702  42.334   6.153
10072POPC   GL264346  16.760  42.496   6.153
10072POPC   C1A64347  16.722  42.291   6.453
10072POPC   D2A64348  16.683  42.295   6.753
10072POPC   C3A64349  16.735  42.372   7.053
10072POPC   C4A64350  16.777  42.375   7.353
10072POPC   C1B64351  16.729  42.630   6.453
10072POPC   C2B64352  16.730  42.597   6.753
10072POPC   C3B64353  16.773  42.560   7.053
10072POPC   C4B64354  16.762  42.548   7.353
10073POPC   NC364355  12.116  37.726   5.553
10073POPC   PO464356  12.125  37.651   5.853
10073POPC   GL164357  12.065  37.719   6.153
10073POPC   GL264358  12.086  37.529   6.153
10073POPC   C1A64359  12.115  37.678   6.453
10073POPC   D2A64360  12.091  37.651   6.753
10073POPC   C3A64361  12.121  37.705   7.053
10073POPC   C4A64362  12.034  37.715   7.353
10073POPC   C1B64363  12.089  37.467   6.453
10073POPC   C2B64364  12.090  37.465   6.753
10073POPC   C3B64365  12.137  37.460   7.053
10073POPC   C4B64366  12.121  37.407   7.353
10074POPC   NC364367  24.513  10.479   5.553
10074POPC   PO464368  24.486  10.520   5.853
10074POPC   GL164369  24.533  10.494   6.153
10074POPC   GL264370  24.396  10.526   6.153
10074POPC   C1A64371  24.518  10.528   6.453
10074POPC   D2A64372  24.463  10.552   6.753
10074POPC   C3A64373  24.456  10.499   7.053
10074POPC   C4A64374  24.489  10.499   7.353
10074POPC   C1B64375  24.242  10.561   6.453
10074POPC   C2B64376  24.247  10.492   6.753
10074POPC   C3B64377  24.254  10.564   7.053
10074POPC   C4B64378  24.259  10.548   7.353
10075POPC   NC364379  27.561   9.005   5.553
10075POPC   PO464380  27.638   9.000   5.853
10075POPC   GL164381  27.570   9.017   6.153
10075POPC   GL264382  27.606   8.857   6.153
10075POPC   C1A64383  27.559   8.993   6.453
10075POPC   D2A64384  27.597   9.020   6.753
10075POPC   C3A64385  27.578   9.007   7.053
10075POPC   C4A64386  27.597   8.937   7.353
10075POPC   C1B64387  27.664   8.728   6.453
10075POPC   C2B64388  27.618   8.723   6.753
10075POPC   C3B64389  27.619   8.701   7.053
10075POPC   C4B64390  27.671   8.681   7.353
10076POPC   NC364391  37.658  37.721   5.553
10076POPC   PO464392  37.639  37.664   5.853
10076POPC   GL164393  37.694  37.632   6.153
10076POPC   GL264394  37.674  37.829   6.153
10076POPC   C1A64395  37.728  37.695   6.453
10076POPC   D2A64396  37.704  37.693   6.753
10076POPC   C3A64397  37.691  37.687   7.053
10076POPC   C4A64398  37.700  37.648   7.353
10076POPC   C1B64399  37.725  37.921   6.453
10076POPC   C2B64400  37.627  37.943   6.753
10076POPC   C3B64401  37.676  37.891   7.053
10076POPC   C4B64402  37.654  37.919   7.353
10077POPC   NC364403  23.697  13.590   5.553
10077POPC   PO464404  23.677  13.629   5.853
10077POPC   GL164405  23.710  13.579   6.153
10077POPC   GL264406  23.853  13.604   6.153
10077POPC   C1A64407  23.724  13.649   6.453
10077POPC   D2A64408  23.703  13.667   6.753
10077POPC   C3A64409  23.760  13.624   7.053
10077POPC   C4A64410  23.694  13.615   7.353
10077POPC   C1B64411  23.954  13.491   6.453
10077POPC   C2B64412  23.939  13.536   6.753
10077POPC   C3B64413  23.912  13.553   7.053
10077POPC   C4B64414  23.899  13.525   7.353
10078POPC   NC364415  34.601   0.449   5.553
10078POPC   PO464416  34.602   0.461   5.853
10078POPC   GL164417  34.541   0.437   6.153
10078POPC   GL264418  34.661   0.576   6.153
10078POPC   C1A64419  34.625   0.396   6.453
10078POPC   D2A64420  34.605   0.463   6.753
10078POPC   C3A64421  34.575   0.412   7.053
10078POPC   C4A64422  34.596   0.455   7.353
10078POPC   C1B64423  34.720   0.625   6.453
10078POPC   C2B64424  34.740   0.642   6.753
10078POPC   C3B64425  34.698   0.674   7.053
10078POPC   C4B64426  34.745   0.627   7.353
10079POPC   NC364427  31.511  44.663   5.553
10079POPC   PO464428  31.431  44.646   5.853
10079POPC   GL164429  31.465  44.642   6.153
10079POPC   GL264430  31.515  44.543   6.153
10079POPC   C1A64431  31.477  44.673   6.453
10079POPC   D2A64432  31.517  44.631   6.753
10079POPC   C3A64433  31.469  44.676   7.053
10079POPC   C4A64434  31.508  44.661   7.353
10079POPC   C1B64435  31.567  44.379   6.453
10079POPC   C2B64436  31.557  44.396   6.753
10079POPC   C3B64437  31.600  44.454   7.053
10079POPC   C4B64438  31.520  44.432   7.353
10080POPC   NC364439   1.230  15.953   5.553
10080POPC   PO464440   1.185  15.982   5.853
10080POPC   GL164441   1.167  15.978   6.153
10080POPC   GL264442   1.185  16.087   6.153
10080POPC   C1A64443   1.207  15.926   6.453
10080POPC   D2A64444   1.202  15.995   6.753
10080POPC   C3A64445   1.200  15.962   7.053
10080POPC   C4A64446   1.234  15.996   7.353
10080POPC   C1B64447   1.121  16.179   6.453
10080POPC   C2B64448   1.121  16.190   6.753
10080POPC   C3B64449   1.204  16.248   7.053
10080POPC   C4B64450   1.209  16.246   7.353
10081POPC   NC364451  25.276   7.380   5.553
10081POPC   PO464452  25.280   7.452   5.853
10081POPC   GL164453  25.291   7.409   6.153
10081POPC   GL264454  25.168   7.379   6.153
10081POPC   C1A64455  25.244   7.435   6.453
10081POPC   D2A64456  25.261   7.465   6.753
10081POPC   C3A64457  25.279   7.458   7.053
10081POPC   C4A64458  25.314   7.418   7.353
10081POPC   C1B64459  24.975   7.415   6.453
10081POPC   C2B64460  25.005   7.447   6.753
10081POPC   C3B64461  25.026   7.414   7.053
10081POPC   C4B64462  25.036   7.422   7.353
10082POPC   NC364463  38.478  24.486   5.553
10082POPC   PO464464  38.465  24.533   5.853
10082POPC   GL164465  38.503  24.525   6.153
10082POPC   GL264466  38.463  24.616   6.153
10082POPC   C1A64467  38.420  24.462   6.453
10082POPC   D2A64468  38.405  24.491   6.753
10082POPC   C3A64469  38.476  24.520   7.053
10082POPC   C4A64470  38.474  24.460   7.353
10082POPC   C1B64471  38.459  24.789   6.453
10082POPC   C2B64472  38.447  24.742   6.753
10082POPC   C3B64473  38.461  24.691   7.053
10082POPC   C4B64474  38.440  24.761   7.353
10083POPC   NC364475  29.165  44.656   5.553
10083POPC   PO464476  29.155  44.657   5.853
10083POPC   GL164477  29.182  44.682   6.153
10083POPC   GL264478  29.153  44.796   6.153
10083POPC   C1A64479  29.098  44.676   6.453
10083POPC   D2A64480  29.192  44.636   6.753
10083POPC   C3A64481  29.189  44.691   7.053
10083POPC   C4A64482  29.111  44.696   7.353
10083POPC   C1B64483  29.204  44.926   6.453
10083POPC   C2B64484  29.269  44.919   6.753
10083POPC   C3B64485  29.273  44.912   7.053
10083POPC   C4B64486  29.256  44.895   7.353
10084POPC   NC364487  29.173   9.768   5.553
10084POPC   PO464488  29.125   9.780   5.853
10084POPC   GL164489  29.101   9.766   6.153
10084POPC   GL264490  29.307   9.832   6.153
10084POPC   C1A64491  29.095   9.762   6.453
10084POPC   D2A64492  29.133   9.732   6.753
10084POPC   C3A64493  29.161   9.783   7.053
10084POPC   C4A64494  29.190   9.769   7.353
10084POPC   C1B64495  29.346   9.863   6.453
10084POPC   C2B64496  29.367   9.802   6.753
10084POPC   C3B64497  29.405   9.862   7.053
10084POPC   C4B64498  29.373   9.788   7.353
10085POPC   NC364499  29.141  32.247   5.553
10085POPC   PO464500  29.117  32.238   5.853
10085POPC   GL164501  29.159  32.235   6.153
10085POPC   GL264502  28.995  32.224   6.153
10085POPC   C1A64503  29.112  32.278   6.453
10085POPC   D2A64504  29.161  32.275   6.753
10085POPC   C3A64505  29.192  32.293   7.053
10085POPC   C4A64506  29.147  32.293   7.353
10085POPC   C1B64507  28.920  32.256   6.453
10085POPC   C2B64508  28.854  32.267   6.753
10085POPC   C3B64509  28.879  32.217   7.053
10085POPC   C4B64510  28.926  32.217   7.353
10086POPC   NC364511   6.602   1.191   5.553
10086POPC   PO464512   6.609   1.222   5.853
10086POPC   GL164513   6.668   1.234   6.153
10086POPC   GL264514   6.787   1.263   6.153
10086POPC   C1A64515   6.694   1.209   6.453
10086POPC   D2A64516   6.597   1.262   6.753
10086POPC   C3A64517   6.636   1.215   7.053
10086POPC   C4A64518   6.690   1.204   7.353
10086POPC   C1B64519   6.854   1.268   6.453
10086POPC   C2B64520   6.926   1.260   6.753
10086POPC   C3B64521   6.881   1.262   7.053
10086POPC   C4B64522   6.924   1.284   7.353
10087POPC   NC364523  39.230  31.513   5.553
10087POPC   PO464524  39.267  31.490   5.853
10087POPC   GL164525  39.219  31.431   6.153
10087POPC   GL264526  39.244  31.320   6.153
10087POPC   C1A64527  39.210  31.425   6.453
10087POPC   D2A64528  39.190  31.499   6.753
10087POPC   C3A64529  39.184  31.433   7.053
10087POPC   C4A64530  39.256  31.474   7.353
10087POPC   C1B64531  39.266  31.215   6.453
10087POPC   C2B64532  39.245  31.198   6.753
10087POPC   C3B64533  39.338  31.203   7.053
10087POPC   C4B64534  39.325  31.202   7.353
10088POPC   NC364535  42.317   9.016   5.553
10088POPC   PO464536  42.347   8.935   5.853
10088POPC   GL164537  42.336   8.933   6.153
10088POPC   GL264538  42.465   8.971   6.153
10088POPC   C1A64539  42.288   8.926   6.453
10088POPC   D2A64540  42.350   8.997   6.753
10088POPC   C3A64541  42.302   8.990   7.053
10088POPC   C4A64542  42.309   8.986   7.353
10088POPC   C1B64543  42.608   8.941   6.453
10088POPC   C2B64544  42.563   8.901   6.753
10088POPC   C3B64545  42.540   8.930   7.053
10088POPC   C4B64546  42.570   8.975   7.353
10089POPC   NC364547   9.755  20.630   5.553
10089POPC   PO464548   9.776  20.564   5.853
10089POPC   GL164549   9.700  20.577   6.153
10089POPC   GL264550   9.599  20.510   6.153
10089POPC   C1A64551   9.785  20.587   6.453
10089POPC   D2A64552   9.723  20.568   6.753
10089POPC   C3A64553   9.701  20.581   7.053
10089POPC   C4A64554   9.793  20.607   7.353
10089POPC   C1B64555   9.554  20.445   6.453
10089POPC   C2B64556   9.576  20.472   6.753
10089POPC   C3B64557   9.505  20.459   7.053
10089POPC   C4B64558   9.580  20.423   7.353
10090POPC   NC364559  15.942   5.069   5.553
10090POPC   PO464560  15.959   5.086   5.853
10090POPC   GL164561  15.999   5.085   6.153
10090POPC   GL264562  15.920   4.994   6.153
10090POPC   C1A64563  15.998   5.048   6.453
10090POPC   D2A64564  15.997   5.057   6.753
10090POPC   C3A64565  15.954   5.132   7.053
10090POPC   C4A64566  15.938   5.050   7.353
10090POPC   C1B64567  15.927   4.855   6.453
10090POPC   C2B64568  15.967   4.811   6.753
10090POPC   C3B64569  15.993   4.880   7.053
10090POPC   C4B64570  15.924   4.841   7.353
10091POPC   NC364571  34.621  31.510   5.553
10091POPC   PO464572  34.576  31.430   5.853
10091POPC   GL164573  34.542  31.494   6.153
10091POPC   GL264574  34.597  31.383   6.153
10091POPC   C1A64575  34.540  31.443   6.453
10091POPC   D2A64576  34.585  31.494   6.753
10091POPC   C3A64577  34.617  31.449   7.053
10091POPC   C4A64578  34.550  31.464   7.353
10091POPC   C1B64579  34.661  31.241   6.453
10091POPC   C2B64580  34.575  31.249   6.753
10091POPC   C3B64581  34.578  31.223   7.053
10091POPC   C4B64582  34.619  31.243   7.353
10092POPC   NC364583  10.570  12.091   5.553
10092POPC   PO464584  10.567  12.059   5.853
10092POPC   GL164585  10.483  12.123   6.153
10092POPC   GL264586  10.544  11.923   6.153
10092POPC   C1A64587  10.539  12.096   6.453
10092POPC   D2A64588  10.506  12.110   6.753
10092POPC   C3A64589  10.501  12.076   7.053
10092POPC   C4A64590  10.506  12.114   7.353
10092POPC   C1B64591  10.546  11.831   6.453
10092POPC   C2B64592  10.555  11.794   6.753
10092POPC   C3B64593  10.539  11.791   7.053
10092POPC   C4B64594  10.601  11.876   7.353
10093POPC   NC364595  21.356  25.225   5.553
10093POPC   PO464596  21.433  25.218   5.853
10093POPC   GL164597  21.386  25.261   6.153
10093POPC   GL264598  21.462  25.304   6.153
10093POPC   C1A64599  21.374  25.230   6.453
10093POPC   D2A64600  21.416  25.239   6.753
10093POPC   C3A64601  21.356  25.230   7.053
10093POPC   C4A64602  21.420  25.216   7.353
10093POPC   C1B64603  21.613  25.345   6.453
10093POPC   C2B64604  21.624  25.382   6.753
10093POPC   C3B64605  21.618  25.402   7.053
10093POPC   C4B64606  21.627  25.396   7.353
10094POPC   NC364607  26.779  16.746   5.553
10094POPC   PO464608  26.863  16.711   5.853
10094POPC   GL164609  26.813  16.773   6.153
10094POPC   GL264610  26.821  16.595   6.153
10094POPC   C1A64611  26.853  16.771   6.453
10094POPC   D2A64612  26.778  16.702   6.753
10094POPC   C3A64613  26.840  16.759   7.053
10094POPC   C4A64614  26.829  16.694   7.353
10094POPC   C1B64615  26.885  16.443   6.453
10094POPC   C2B64616  26.808  16.523   6.753
10094POPC   C3B64617  26.812  16.448   7.053
10094POPC   C4B64618  26.843  16.463   7.353
10095POPC   NC364619  33.822  26.789   5.553
10095POPC   PO464620  33.753  26.815   5.853
10095POPC   GL164621  33.829  26.823   6.153
10095POPC   GL264622  33.781  26.903   6.153
10095POPC   C1A64623  33.787  26.851   6.453
10095POPC   D2A64624  33.845  26.839   6.753
10095POPC   C3A64625  33.843  26.866   7.053
10095POPC   C4A64626  33.768  26.787   7.353
10095POPC   C1B64627  33.717  27.065   6.453
10095POPC   C2B64628  33.728  27.070   6.753
10095POPC   C3B64629  33.651  27.032   7.053
10095POPC   C4B64630  33.648  27.055   7.353
10096POPC   NC364631   6.682  36.884   5.553
10096POPC   PO464632   6.663  36.904   5.853
10096POPC   GL164633   6.678  36.875   6.153
10096POPC   GL264634   6.623  36.774   6.153
10096POPC   C1A64635   6.612  36.882   6.453
10096POPC   D2A64636   6.695  36.868   6.753
10096POPC   C3A64637   6.596  36.925   7.053
10096POPC   C4A64638   6.636  36.932   7.353
10096POPC   C1B64639   6.649  36.680   6.453
10096POPC   C2B64640   6.618  36.700   6.753
10096POPC   C3B64641   6.713  36.633   7.053
10096POPC   C4B64642   6.643  36.650   7.353
10097POPC   NC364643  13.659  28.402   5.553
10097POPC   PO464644  13.591  28.410   5.853
10097POPC   GL164645  13.611  28.345   6.153
10097POPC   GL264646  13.635  28.499   6.153
10097POPC   C1A64647  13.634  28.324   6.453
10097POPC   D2A64648  13.658  28.369   6.753
10097POPC   C3A64649  13.588  28.330   7.053
10097POPC   C4A64650  13.599  28.325   7.353
10097POPC   C1B64651  13.664  28.658   6.453
10097POPC   C2B64652  13.629  28.634   6.753
10097POPC   C3B64653  13.623  28.655   7.053
10097POPC   C4B64654  13.689  28.576   7.353
10098POPC   NC364655  17.484  21.433   5.553
10098POPC   PO464656  17.476  21.395   5.853
10098POPC   GL164657  17.525  21.337   6.153
10098POPC   GL264658  17.401  21.346   6.153
10098POPC   C1A64659  17.508  21.375   6.453
10098POPC   D2A64660  17.465  21.341   6.753
10098POPC   C3A64661  17.522  21.342   7.053
10098POPC   C4A64662  17.486  21.388   7.353
10098POPC   C1B64663  17.266  21.387   6.453
10098POPC   C2B64664  17.238  21.403   6.753
10098POPC   C3B64665  17.295  21.394   7.053
10098POPC   C4B64666  17.287  21.416   7.353
10099POPC   NC364667   2.796   4.279   5.553
10099POPC   PO464668   2.807   4.284   5.853
10099POPC   GL164669   2.780   4.316   6.153
10099POPC   GL264670   2.720   4.406   6.153
10099POPC   C1A64671   2.788   4.321   6.453
10099POPC   D2A64672   2.787   4.311   6.753
10099POPC   C3A64673   2.763   4.309   7.053
10099POPC   C4A64674   2.765   4.317   7.353
10099POPC   C1B64675   2.624   4.461   6.453
10099POPC   C2B64676   2.616   4.485   6.753
10099POPC   C3B64677   2.639   4.510   7.053
10099POPC   C4B64678   2.571   4.472   7.353
10100POPC   NC364679  36.137  36.856   5.553
10100POPC   PO464680  36.099  36.902   5.853
10100POPC   GL164681  36.098  36.936   6.153
10100POPC   GL264682  36.068  36.963   6.153
10100POPC   C1A64683  36.168  36.874   6.453
10100POPC   D2A64684  36.079  36.890   6.753
10100POPC   C3A64685  36.138  36.950   7.053
10100POPC   C4A64686  36.083  36.948   7.353
10100POPC   C1B64687  35.993  37.112   6.453
10100POPC   C2B64688  35.974  37.136   6.753
10100POPC   C3B64689  35.994  37.141   7.053
10100POPC   C4B64690  35.990  37.146   7.353
10101POPC   NC364691   2.729  43.874   5.553
10101POPC   PO464692   2.794  43.871   5.853
10101POPC   GL164693   2.742  43.842   6.153
10101POPC   GL264694   2.694  43.775   6.153
10101POPC   C1A64695   2.742  43.877   6.453
10101POPC   D2A64696   2.738  43.897   6.753
10101POPC   C3A64697   2.772  43.903   7.053
10101POPC   C4A64698   2.812  43.895   7.353
10101POPC   C1B64699   2.601  43.705   6.453
10101POPC   C2B64700   2.616  43.726   6.753
10101POPC   C3B64701   2.657  43.631   7.053
10101POPC   C4B64702   2.618  43.655   7.353
10102POPC   NC364703  33.843   2.789   5.553
10102POPC   PO464704  33.834   2.729   5.853
10102POPC   GL164705  33.808   2.733   6.153
10102POPC   GL264706  33.950   2.780   6.153
10102POPC   C1A64707  33.810   2.805   6.453
10102POPC   D2A64708  33.764   2.758   6.753
10102POPC   C3A64709  33.840   2.736   7.053
10102POPC   C4A64710  33.810   2.755   7.353
10102POPC   C1B64711  34.025   2.767   6.453
10102POPC   C2B64712  34.063   2.772   6.753
10102POPC   C3B64713  34.039   2.745   7.053
10102POPC   C4B64714  34.001   2.771   7.353
10103POPC   NC364715  37.689   0.470   5.553
10103POPC   PO464716  37.698   0.424   5.853
10103POPC   GL164717  37.699   0.453   6.153
10103POPC   GL264718  37.792   0.509   6.153
10103POPC   C1A64719  37.668   0.444   6.453
10103POPC   D2A64720  37.726   0.472   6.753
10103POPC   C3A64721  37.674   0.391   7.053
10103POPC   C4A64722  37.645   0.396   7.353
10103POPC   C1B64723  37.851   0.625   6.453
10103POPC   C2B64724  37.861   0.576   6.753
10103POPC   C3B64725  37.877   0.625   7.053
10103POPC   C4B64726  37.878   0.556   7.353
10104POPC   NC364727   2.026  12.862   5.553
10104POPC   PO464728   1.976  12.818   5.853
10104POPC   GL164729   1.965  12.846   6.153
10104POPC   GL264730   2.042  13.006   6.153
10104POPC   C1A64731   2.017  12.866   6.453
10104POPC   D2A64732   2.028  12.861   6.753
10104POPC   C3A64733   1.941  12.840   7.053
10104POPC   C4A64734   2.024  12.888   7.353
10104POPC   C1B64735   2.127  13.108   6.453
10104POPC   C2B64736   2.142  13.078   6.753
10104POPC   C3B64737   2.102  13.087   7.053
10104POPC   C4B64738   2.128  13.047   7.353
10105POPC   NC364739   6.639  23.742   5.553
10105POPC   PO464740   6.620  23.696   5.853
10105POPC   GL164741   6.611  23.736   6.153
10105POPC   GL264742   6.640  23.867   6.153
10105POPC   C1A64743   6.635  23.761   6.453
10105POPC   D2A64744   6.684  23.743   6.753
10105POPC   C3A64745   6.657  23.708   7.053
10105POPC   C4A64746   6.671  23.734   7.353
10105POPC   C1B64747   6.604  23.924   6.453
10105POPC   C2B64748   6.662  23.945   6.753
10105POPC   C3B64749   6.618  23.940   7.053
10105POPC   C4B64750   6.660  23.974   7.353
10106POPC   NC364751  29.945  14.420   5.553
10106POPC   PO464752  29.931  14.415   5.853
10106POPC   GL164753  29.939  14.443   6.153
10106POPC   GL264754  29.998  14.317   6.153
10106POPC   C1A64755  29.877  14.442   6.453
10106POPC   D2A64756  29.916  14.435   6.753
10106POPC   C3A64757  29.934  14.362   7.053
10106POPC   C4A64758  29.932  14.395   7.353
10106POPC   C1B64759  30.155  14.296   6.453
10106POPC   C2B64760  30.176  14.284   6.753
10106POPC   C3B64761  30.104  14.246   7.053
10106POPC   C4B64762  30.159  14.246   7.353
10107POPC   NC364763   2.006   7.399   5.553
10107POPC   PO464764   1.990   7.414   5.853
10107POPC   GL164765   1.946   7.388   6.153
10107POPC   GL264766   1.869   7.470   6.153
10107POPC   C1A64767   1.959   7.447   6.453
10107POPC   D2A64768   2.003   7.439   6.753
10107POPC   C3A64769   1.955   7.430   7.053
10107POPC   C4A64770   1.983   7.385   7.353
10107POPC   C1B64771   1.784   7.476   6.453
10107POPC   C2B64772   1.739   7.475   6.753
10107POPC   C3B64773   1.750   7.508   7.053
10107POPC   C4B64774   1.773   7.480   7.353
10108POPC   NC364775  23.676  22.897   5.553
10108POPC   PO464776  23.709  22.968   5.853
10108POPC   GL164777  23.697  22.924   6.153
10108POPC   GL264778  23.878  23.012   6.153
10108POPC   C1A64779  23.742  22.932   6.453
10108POPC   D2A64780  23.717  22.895   6.753
10108POPC   C3A64781  23.752  22.969   7.053
10108POPC   C4A64782  23.694  22.926   7.353
10108POPC   C1B64783  23.904  23.061   6.453
10108POPC   C2B64784  23.922  22.984   6.753
10108POPC   C3B64785  23.989  23.023   7.053
10108POPC   C4B64786  23.946  23.011   7.353
10109POPC   NC364787  15.221  40.799   5.553
10109POPC   PO464788  15.149  40.795   5.853
10109POPC   GL164789  15.169  40.752   6.153
10109POPC   GL264790  15.209  40.924   6.153
10109POPC   C1A64791  15.131  40.828   6.453
10109POPC   D2A64792  15.196  40.756   6.753
10109POPC   C3A64793  15.214  40.764   7.053
10109POPC   C4A64794  15.205  40.797   7.353
10109POPC   C1B64795  15.225  41.029   6.453
10109POPC   C2B64796  15.161  41.016   6.753
10109POPC   C3B64797  15.208  41.006   7.053
10109POPC   C4B64798  15.217  41.073   7.353
10110POPC   NC364799  22.160  43.917   5.553
10110POPC   PO464800  22.197  43.869   5.853
10110POPC   GL164801  22.190  43.925   6.153
10110POPC   GL264802  22.108  43.991   6.153
10110POPC   C1A64803  22.166  43.895   6.453
10110POPC   D2A64804  22.137  43.880   6.753
10110POPC   C3A64805  22.118  43.858   7.053
10110POPC   C4A64806  22.212  43.846   7.353
10110POPC   C1B64807  21.946  44.044   6.453
10110POPC   C2B64808  21.940  44.076   6.753
10110POPC   C3B64809  21.964  44.049   7.053
10110POPC   C4B64810  21.960  44.077   7.353
10111POPC   NC364811  15.975  26.008   5.553
10111POPC   PO464812  15.950  26.056   5.853
10111POPC   GL164813  15.925  26.042   6.153
10111POPC   GL264814  16.039  26.154   6.153
10111POPC   C1A64815  15.951  26.089   6.453
10111POPC   D2A64816  15.962  26.042   6.753
10111POPC   C3A64817  15.991  25.996   7.053
10111POPC   C4A64818  15.956  26.027   7.353
10111POPC   C1B64819  16.148  26.233   6.453
10111POPC   C2B64820  16.174  26.182   6.753
10111POPC   C3B64821  16.158  26.259   7.053
10111POPC   C4B64822  16.120  26.175   7.353
10112POPC   NC364823  11.317  16.689   5.553
10112POPC   PO464824  11.285  16.738   5.853
10112POPC   GL164825  11.315  16.702   6.153
10112POPC   GL264826  11.288  16.580   6.153
10112POPC   C1A64827  11.308  16.683   6.453
10112POPC   D2A64828  11.272  16.765   6.753
10112POPC   C3A64829  11.271  16.737   7.053
10112POPC   C4A64830  11.340  16.689   7.353
10112POPC   C1B64831  11.274  16.448   6.453
10112POPC   C2B64832  11.299  16.462   6.753
10112POPC   C3B64833  11.318  16.464   7.053
10112POPC   C4B64834  11.315  16.512   7.353
10113POPC   NC364835  43.882  36.145   5.553
10113POPC   PO464836  43.889  36.096   5.853
10113POPC   GL164837  43.867  36.153   6.153
10113POPC   GL264838  43.948  36.049   6.153
10113POPC   C1A64839  43.928  36.137   6.453
10113POPC   D2A64840  43.932  36.151   6.753
10113POPC   C3A64841  43.902  36.139   7.053
10113POPC   C4A64842  43.915  36.112   7.353
10113POPC   C1B64843  44.070  35.983   6.453
10113POPC   C2B64844  44.041  36.003   6.753
10113POPC   C3B64845  44.043  36.004   7.053
10113POPC   C4B64846  44.132  36.006   7.353
10114POPC   NC364847  36.116  33.830   5.553
10114POPC   PO464848  36.175  33.761   5.853
10114POPC   GL164849  36.130  33.846   6.153
10114POPC   GL264850  36.001  33.768   6.153
10114POPC   C1A64851  36.140  33.765   6.453
10114POPC   D2A64852  36.113  33.839   6.753
10114POPC   C3A64853  36.150  33.752   7.053
10114POPC   C4A64854  36.151  33.844   7.353
10114POPC   C1B64855  35.895  33.654   6.453
10114POPC   C2B64856  35.917  33.637   6.753
10114POPC   C3B64857  35.897  33.698   7.053
10114POPC   C4B64858  35.880  33.646   7.353
10115POPC   NC364859   8.170   6.610   5.553
10115POPC   PO464860   8.161   6.648   5.853
10115POPC   GL164861   8.219   6.635   6.153
10115POPC   GL264862   8.286   6.522   6.153
10115POPC   C1A64863   8.220   6.689   6.453
10115POPC   D2A64864   8.191   6.640   6.753
10115POPC   C3A64865   8.231   6.624   7.053
10115POPC   C4A64866   8.161   6.645   7.353
10115POPC   C1B64867   8.295   6.458   6.453
10115POPC   C2B64868   8.269   6.453   6.753
10115POPC   C3B64869   8.310   6.434   7.053
10115POPC   C4B64870   8.251   6.428   7.353
10116POPC   NC364871  30.720  29.956   5.553
10116POPC   PO464872  30.693  29.899   5.853
10116POPC   GL164873  30.675  29.892   6.153
10116POPC   GL264874  30.702  29.996   6.153
10116POPC   C1A64875  30.733  29.943   6.453
10116POPC   D2A64876  30.735  29.954   6.753
10116POPC   C3A64877  30.736  29.937   7.053
10116POPC   C4A64878  30.655  29.943   7.353
10116POPC   C1B64879  30.828  30.145   6.453
10116POPC   C2B64880  30.831  30.147   6.753
10116POPC   C3B64881  30.804  30.117   7.053
10116POPC   C4B64882  30.822  30.149   7.353
10117POPC   NC364883   3.575  15.158   5.553
10117POPC   PO464884   3.503  15.171   5.853
10117POPC   GL164885   3.522  15.154   6.153
10117POPC   GL264886   3.598  15.081   6.153
10117POPC   C1A64887   3.580  15.131   6.453
10117POPC   D2A64888   3.550  15.189   6.753
10117POPC   C3A64889   3.554  15.188   7.053
10117POPC   C4A64890   3.535  15.160   7.353
10117POPC   C1B64891   3.580  14.915   6.453
10117POPC   C2B64892   3.576  14.955   6.753
10117POPC   C3B64893   3.603  14.964   7.053
10117POPC   C4B64894   3.564  14.927   7.353
10118POPC   NC364895  44.640   6.683   5.553
10118POPC   PO464896  44.682   6.630   5.853
10118POPC   GL164897  44.685   6.624   6.153
10118POPC   GL264898  44.517   6.579   6.153
10118POPC   C1A64899  44.671   6.678   6.453
10118POPC   D2A64900  44.660   6.659   6.753
10118POPC   C3A64901  44.681   6.681   7.053
10118POPC   C4A64902  44.666   6.691   7.353
10118POPC   C1B64903  44.487   6.518   6.453
10118POPC   C2B64904  44.404   6.561   6.753
10118POPC   C3B64905  44.452   6.567   7.053
10118POPC   C4B64906  44.435   6.536   7.353
10119POPC   NC364907  31.501   1.173   5.553
10119POPC   PO464908  31.437   1.185   5.853
10119POPC   GL164909  31.444   1.249   6.153
10119POPC   GL264910  31.432   1.105   6.153
10119POPC   C1A64911  31.452   1.220   6.453
10119POPC   D2A64912  31.454   1.257   6.753
10119POPC   C3A64913  31.506   1.194   7.053
10119POPC   C4A64914  31.480   1.262   7.353
10119POPC   C1B64915  31.424   1.019   6.453
10119POPC   C2B64916  31.408   0.956   6.753
10119POPC   C3B64917  31.365   0.925   7.053
10119POPC   C4B64918  31.431   0.933   7.353
10120POPC   NC364919  44.645  12.103   5.553
10120POPC   PO464920  44.683  12.098   5.853
10120POPC   GL164921  44.664  12.111   6.153
10120POPC   GL264922  44.800  12.008   6.153
10120POPC   C1A64923  44.665  12.046   6.453
10120POPC   D2A64924  44.614  12.066   6.753
10120POPC   C3A64925  44.688  12.030   7.053
10120POPC   C4A64926  44.641  12.032   7.353
10120POPC   C1B64927  44.859  11.922   6.453
10120POPC   C2B64928  44.868  11.963   6.753
10120POPC   C3B64929  44.826  11.927   7.053
10120POPC   C4B64930  44.890  11.908   7.353
10121POPC   NC364931  41.575  12.101   5.553
10121POPC   PO464932  41.514  12.071   5.853
10121POPC   GL164933  41.559  12.115   6.153
10121POPC   GL264934  41.612  12.175   6.153
10121POPC   C1A64935  41.562  12.103   6.453
10121POPC   D2A64936  41.573  12.034   6.753
10121POPC   C3A64937  41.572  12.064   7.053
10121POPC   C4A64938  41.573  12.116   7.353
10121POPC   C1B64939  41.659  12.335   6.453
10121POPC   C2B64940  41.639  12.334   6.753
10121POPC   C3B64941  41.660  12.351   7.053
10121POPC   C4B64942  41.693  12.352   7.353
10122POPC   NC364943  24.443  18.255   5.553
10122POPC   PO464944  24.471  18.235   5.853
10122POPC   GL164945  24.466  18.288   6.153
10122POPC   GL264946  24.572  18.373   6.153
10122POPC   C1A64947  24.522  18.264   6.453
10122POPC   D2A64948  24.503  18.287   6.753
10122POPC   C3A64949  24.531  18.239   7.053
10122POPC   C4A64950  24.516  18.265   7.353
10122POPC   C1B64951  24.662  18.425   6.453
10122POPC   C2B64952  24.608  18.431   6.753
10122POPC   C3B64953  24.693  18.420   7.053
10122POPC   C4B64954  24.674  18.506   7.353
10123POPC   NC364955  43.152  36.097   5.553
10123POPC   PO464956  43.083  36.083   5.853
10123POPC   GL164957  43.095  36.138   6.153
10123POPC   GL264958  43.138  36.265   6.153
10123POPC   C1A64959  43.079  36.123   6.453
10123POPC   D2A64960  43.139  36.133   6.753
10123POPC   C3A64961  43.135  36.119   7.053
10123POPC   C4A64962  43.120  36.165   7.353
10123POPC   C1B64963  43.204  36.368   6.453
10123POPC   C2B64964  43.219  36.315   6.753
10123POPC   C3B64965  43.187  36.325   7.053
10123POPC   C4B64966  43.221  36.397   7.353
10124POPC   NC364967  42.303  11.276   5.553
10124POPC   PO464968  42.351  11.348   5.853
10124POPC   GL164969  42.379  11.294   6.153
10124POPC   GL264970  42.394  11.400   6.153
10124POPC   C1A64971  42.367  11.315   6.453
10124POPC   D2A64972  42.374  11.342   6.753
10124POPC   C3A64973  42.314  11.263   7.053
10124POPC   C4A64974  42.327  11.271   7.353
10124POPC   C1B64975  42.517  11.472   6.453
10124POPC   C2B64976  42.456  11.508   6.753
10124POPC   C3B64977  42.523  11.524   7.053
10124POPC   C4B64978  42.534  11.453   7.353
10125POPC   NC364979  37.689  14.447   5.553
10125POPC   PO464980  37.631  14.413   5.853
10125POPC   GL164981  37.682  14.368   6.153
10125POPC   GL264982  37.602  14.398   6.153
10125POPC   C1A64983  37.683  14.428   6.453
10125POPC   D2A64984  37.660  14.392   6.753
10125POPC   C3A64985  37.706  14.399   7.053
10125POPC   C4A64986  37.686  14.449   7.353
10125POPC   C1B64987  37.458  14.266   6.453
10125POPC   C2B64988  37.463  14.280   6.753
10125POPC   C3B64989  37.408  14.267   7.053
10125POPC   C4B64990  37.408  14.319   7.353
10126POPC   NC364991  13.660  27.569   5.553
10126POPC   PO464992  13.615  27.578   5.853
10126POPC   GL164993  13.582  27.621   6.153
10126POPC   GL264994  13.508  27.637   6.153
10126POPC   C1A64995  13.616  27.559   6.453
10126POPC   D2A64996  13.666  27.610   6.753
10126POPC   C3A64997  13.614  27.551   7.053
10126POPC   C4A64998  13.604  27.579   7.353
10126POPC   C1B64999  13.368  27.555   6.453
10126POPC   C2B65000  13.332  27.553   6.753
10126POPC   C3B65001  13.404  27.589   7.053
10126POPC   C4B65002  13.416  27.559   7.353
10127POPC   NC365003  25.301  20.651   5.553
10127POPC   PO465004  25.265  20.617   5.853
10127POPC   GL165005  25.276  20.659   6.153
10127POPC   GL265006  25.281  20.747   6.153
10127POPC   C1A65007  25.262  20.571   6.453
10127POPC   D2A65008  25.289  20.621   6.753
10127POPC   C3A65009  25.221  20.630   7.053
10127POPC   C4A65010  25.269  20.600   7.353
10127POPC   C1B65011  25.349  20.845   6.453
10127POPC   C2B65012  25.355  20.823   6.753
10127POPC   C3B65013  25.318  20.834   7.053
10127POPC   C4B65014  25.408  20.824   7.353
10128POPC   NC365015  20.598  40.786   5.553
10128POPC   PO465016  20.614  40.794   5.853
10128POPC   GL165017  20.584  40.811   6.153
10128POPC   GL265018  20.530  40.683   6.153
10128POPC   C1A65019  20.654  40.771   6.453
10128POPC   D2A65020  20.653  40.831   6.753
10128POPC   C3A65021  20.651  40.829   7.053
10128POPC   C4A65022  20.614  40.765   7.353
10128POPC   C1B65023  20.424  40.666   6.453
10128POPC   C2B65024  20.460  40.625   6.753
10128POPC   C3B65025  20.456  40.663   7.053
10128POPC   C4B65026  20.377  40.619   7.353
10129POPC   NC365027  44.659  36.883   5.553
10129POPC   PO465028  44.635  36.855   5.853
10129POPC   GL165029  44.711  36.854   6.153
10129POPC   GL265030  44.788  36.970   6.153
10129POPC   C1A65031  44.663  36.875   6.453
10129POPC   D2A65032  44.663  36.923   6.753
10129POPC   C3A65033  44.613  36.945   7.053
10129POPC   C4A65034  44.676  36.939   7.353
10129POPC   C1B65035  44.849  37.093   6.453
10129POPC   C2B65036  44.869  37.045   6.753
10129POPC   C3B65037  44.847  37.111   7.053
10129POPC   C4B65038  44.831  37.047   7.353
10130POPC   NC365039  35.374   1.209   5.553
10130POPC   PO465040  35.362   1.222   5.853
10130POPC   GL165041  35.356   1.208   6.153
10130POPC   GL265042  35.302   1.077   6.153
10130POPC   C1A65043  35.360   1.259   6.453
10130POPC   D2A65044  35.345   1.253   6.753
10130POPC   C3A65045  35.363   1.167   7.053
10130POPC   C4A65046  35.371   1.254   7.353
10130POPC   C1B65047  35.333   0.930   6.453
10130POPC   C2B65048  35.344   0.974   6.753
10130POPC   C3B65049  35.270   0.947   7.053
10130POPC   C4B65050  35.293   1.013   7.353
10131POPC   NC365051  15.911  22.965   5.553
10131POPC   PO465052  15.992  22.960   5.853
10131POPC   GL165053  15.935  22.960   6.153
10131POPC   GL265054  16.069  23.040   6.153
10131POPC   C1A65055  15.968  22.922   6.453
10131POPC   D2A65056  15.987  22.962   6.753
10131POPC   C3A65057  15.934  22.938   7.053
10131POPC   C4A65058  15.966  22.923   7.353
10131POPC   C1B65059  16.114  23.096   6.453
10131POPC   C2B65060  16.140  23.172   6.753
10131POPC   C3B65061  16.100  23.084   7.053
10131POPC   C4B65062  16.118  23.101   7.353
10132POPC   NC365063  14.417   6.694   5.553
10132POPC   PO465064  14.357   6.651   5.853
10132POPC   GL165065  14.359   6.656   6.153
10132POPC   GL265066  14.300   6.607   6.153
10132POPC   C1A65067  14.441   6.599   6.453
10132POPC   D2A65068  14.436   6.615   6.753
10132POPC   C3A65069  14.433   6.673   7.053
10132POPC   C4A65070  14.380   6.685   7.353
10132POPC   C1B65071  14.192   6.601   6.453
10132POPC   C2B65072  14.213   6.520   6.753
10132POPC   C3B65073  14.185   6.525   7.053
10132POPC   C4B65074  14.198   6.549   7.353
10133POPC   NC365075  15.132   0.396   5.553
10133POPC   PO465076  15.185   0.468   5.853
10133POPC   GL165077  15.167   0.481   6.153
10133POPC   GL265078  15.119   0.367   6.153
10133POPC   C1A65079  15.186   0.400   6.453
10133POPC   D2A65080  15.165   0.398   6.753
10133POPC   C3A65081  15.202   0.398   7.053
10133POPC   C4A65082  15.174   0.467   7.353
10133POPC   C1B65083  15.029   0.225   6.453
10133POPC   C2B65084  15.075   0.229   6.753
10133POPC   C3B65085  15.025   0.242   7.053
10133POPC   C4B65086  15.056   0.229   7.353
10134POPC   NC365087  13.672  19.816   5.553
10134POPC   PO465088  13.653  19.830   5.853
10134POPC   GL165089  13.673  19.827   6.153
10134POPC   GL265090  13.620  19.732   6.153
10134POPC   C1A65091  13.629  19.883   6.453
10134POPC   D2A65092  13.608  19.850   6.753
10134POPC   C3A65093  13.632  19.826   7.053
10134POPC   C4A65094  13.652  19.806   7.353
10134POPC   C1B65095  13.606  19.578   6.453
10134POPC   C2B65096  13.568  19.568   6.753
10134POPC   C3B65097  13.592  19.604   7.053
10134POPC   C4B65098  13.630  19.613   7.353
10135POPC   NC365099  24.444  12.028   5.553
10135POPC   PO465100  24.473  12.067   5.853
10135POPC   GL165101  24.514  12.099   6.153
10135POPC   GL265102  24.389  12.142   6.153
10135POPC   C1A65103  24.500  12.109   6.453
10135POPC   D2A65104  24.495  12.053   6.753
10135POPC   C3A65105  24.518  12.124   7.053
10135POPC   C4A65106  24.446  12.052   7.353
10135POPC   C1B65107  24.226  12.188   6.453
10135POPC   C2B65108  24.267  12.194   6.753
10135POPC   C3B65109  24.272  12.146   7.053
10135POPC   C4B65110  24.269  12.218   7.353
10136POPC   NC365111  22.922  43.095   5.553
10136POPC   PO465112  22.920  43.094   5.853
10136POPC   GL165113  22.897  43.100   6.153
10136POPC   GL265114  23.019  43.024   6.153
10136POPC   C1A65115  22.912  43.111   6.453
10136POPC   D2A65116  22.971  43.080   6.753
10136POPC   C3A65117  22.934  43.131   7.053
10136POPC   C4A65118  22.894  43.127   7.353
10136POPC   C1B65119  23.093  42.873   6.453
10136POPC   C2B65120  23.034  42.891   6.753
10136POPC   C3B65121  23.008  42.895   7.053
10136POPC   C4B65122  23.057  42.918   7.353
10137POPC   NC365123  32.212  33.835   5.553
10137POPC   PO465124  32.222  33.800   5.853
10137POPC   GL165125  32.245  33.770   6.153
10137POPC   GL265126  32.411  33.769   6.153
10137POPC   C1A65127  32.271  33.841   6.453
10137POPC   D2A65128  32.221  33.846   6.753
10137POPC   C3A65129  32.201  33.780   7.053
10137POPC   C4A65130  32.204  33.779   7.353
10137POPC   C1B65131  32.478  33.700   6.453
10137POPC   C2B65132  32.446  33.738   6.753
10137POPC   C3B65133  32.463  33.671   7.053
10137POPC   C4B65134  32.458  33.658   7.353
10138POPC   NC365135   2.025   9.758   5.553
10138POPC   PO465136   1.957   9.728   5.853
10138POPC   GL165137   1.986   9.711   6.153
10138POPC   GL265138   1.941   9.682   6.153
10138POPC   C1A65139   1.959   9.786   6.453
10138POPC   D2A65140   2.013   9.761   6.753
10138POPC   C3A65141   2.039   9.760   7.053
10138POPC   C4A65142   1.976   9.721   7.353
10138POPC   C1B65143   1.873   9.550   6.453
10138POPC   C2B65144   1.794   9.517   6.753
10138POPC   C3B65145   1.805   9.597   7.053
10138POPC   C4B65146   1.826   9.502   7.353
10139POPC   NC365147  14.429  26.032   5.553
10139POPC   PO465148  14.373  26.049   5.853
10139POPC   GL165149  14.442  25.999   6.153
10139POPC   GL265150  14.429  25.970   6.153
10139POPC   C1A65151  14.436  26.031   6.453
10139POPC   D2A65152  14.360  26.003   6.753
10139POPC   C3A65153  14.433  26.069   7.053
10139POPC   C4A65154  14.441  26.087   7.353
10139POPC   C1B65155  14.521  25.829   6.453
10139POPC   C2B65156  14.474  25.774   6.753
10139POPC   C3B65157  14.463  25.770   7.053
10139POPC   C4B65158  14.524  25.840   7.353
10140POPC   NC365159  32.289   6.638   5.553
10140POPC   PO465160  32.221   6.681   5.853
10140POPC   GL165161  32.296   6.637   6.153
10140POPC   GL265162  32.157   6.529   6.153
10140POPC   C1A65163  32.203   6.602   6.453
10140POPC   D2A65164  32.215   6.668   6.753
10140POPC   C3A65165  32.213   6.682   7.053
10140POPC   C4A65166  32.293   6.674   7.353
10140POPC   C1B65167  32.105   6.430   6.453
10140POPC   C2B65168  32.093   6.446   6.753
10140POPC   C3B65169  32.072   6.387   7.053
10140POPC   C4B65170  32.134   6.425   7.353
10141POPC   NC365171  21.342  39.968   5.553
10141POPC   PO465172  21.404  40.024   5.853
10141POPC   GL165173  21.397  40.028   6.153
10141POPC   GL265174  21.492  40.066   6.153
10141POPC   C1A65175  21.351  40.020   6.453
10141POPC   D2A65176  21.356  39.981   6.753
10141POPC   C3A65177  21.423  39.958   7.053
10141POPC   C4A65178  21.383  40.042   7.353
10141POPC   C1B65179  21.543  40.201   6.453
10141POPC   C2B65180  21.561  40.193   6.753
10141POPC   C3B65181  21.555  40.215   7.053
10141POPC   C4B65182  21.558  40.224   7.353
10142POPC   NC365183  44.669  15.950   5.553
10142POPC   PO465184  44.658  15.990   5.853
10142POPC   GL165185  44.642  15.923   6.153
10142POPC   GL265186  44.609  15.833   6.153
10142POPC   C1A65187  44.634  15.978   6.453
10142POPC   D2A65188  44.681  15.927   6.753
10142POPC   C3A65189  44.692  15.979   7.053
10142POPC   C4A65190  44.689  15.940   7.353
10142POPC   C1B65191  44.559  15.759   6.453
10142POPC   C2B65192  44.622  15.751   6.753
10142POPC   C3B65193  44.648  15.755   7.053
10142POPC   C4B65194  44.577  15.716   7.353
10143POPC   NC365195   8.944   6.692   5.553
10143POPC   PO465196   8.924   6.648   5.853
10143POPC   GL165197   8.948   6.653   6.153
10143POPC   GL265198   8.886   6.750   6.153
10143POPC   C1A65199   9.016   6.651   6.453
10143POPC   D2A65200   8.958   6.624   6.753
10143POPC   C3A65201   8.944   6.665   7.053
10143POPC   C4A65202   8.933   6.607   7.353
10143POPC   C1B65203   8.783   6.861   6.453
10143POPC   C2B65204   8.794   6.881   6.753
10143POPC   C3B65205   8.764   6.879   7.053
10143POPC   C4B65206   8.820   6.818   7.353
10144POPC   NC365207  42.352   3.516   5.553
10144POPC   PO465208  42.380   3.553   5.853
10144POPC   GL165209  42.343   3.500   6.153
10144POPC   GL265210  42.299   3.389   6.153
10144POPC   C1A65211  42.383   3.519   6.453
10144POPC   D2A65212  42.296   3.501   6.753
10144POPC   C3A65213  42.326   3.510   7.053
10144POPC   C4A65214  42.321   3.528   7.353
10144POPC   C1B65215  42.250   3.283   6.453
10144POPC   C2B65216  42.173   3.282   6.753
10144POPC   C3B65217  42.220   3.350   7.053
10144POPC   C4B65218  42.253   3.341   7.353
10145POPC   NC365219  32.222  43.866   5.553
10145POPC   PO465220  32.237  43.913   5.853
10145POPC   GL165221  32.234  43.926   6.153
10145POPC   GL265222  32.075  43.909   6.153
10145POPC   C1A65223  32.274  43.933   6.453
10145POPC   D2A65224  32.233  43.844   6.753
10145POPC   C3A65225  32.229  43.873   7.053
10145POPC   C4A65226  32.250  43.883   7.353
10145POPC   C1B65227  32.010  43.870   6.453
10145POPC   C2B65228  31.980  43.892   6.753
10145POPC   C3B65229  31.982  43.933   7.053
10145POPC   C4B65230  32.036  43.870   7.353
10146POPC   NC365231  41.519   5.119   5.553
10146POPC   PO465232  41.571   5.139   5.853
10146POPC   GL165233  41.514   5.090   6.153
10146POPC   GL265234  41.439   5.172   6.153
10146POPC   C1A65235  41.554   5.086   6.453
10146POPC   D2A65236  41.525   5.078   6.753
10146POPC   C3A65237  41.535   5.084   7.053
10146POPC   C4A65238  41.541   5.109   7.353
10146POPC   C1B65239  41.335   5.173   6.453
10146POPC   C2B65240  41.315   5.123   6.753
10146POPC   C3B65241  41.294   5.171   7.053
10146POPC   C4B65242  41.296   5.130   7.353
10147POPC   NC365243  14.446  25.283   5.553
10147POPC   PO465244  14.442  25.307   5.853
10147POPC   GL165245  14.418  25.232   6.153
10147POPC   GL265246  14.310  25.149   6.153
10147POPC   C1A65247  14.450  25.313   6.453
10147POPC   D2A65248  14.419  25.229   6.753
10147POPC   C3A65249  14.363  25.247   7.053
10147POPC   C4A65250  14.439  25.238   7.353
10147POPC   C1B65251  14.250  25.084   6.453
10147POPC   C2B65252  14.261  25.052   6.753
10147POPC   C3B65253  14.251  25.063   7.053
10147POPC   C4B65254  14.220  25.092   7.353
10148POPC   NC365255  42.295  29.190   5.553
10148POPC   PO465256  42.379  29.114   5.853
10148POPC   GL165257  42.383  29.165   6.153
10148POPC   GL265258  42.438  29.142   6.153
10148POPC   C1A65259  42.291  29.104   6.453
10148POPC   D2A65260  42.372  29.155   6.753
10148POPC   C3A65261  42.294  29.154   7.053
10148POPC   C4A65262  42.352  29.113   7.353
10148POPC   C1B65263  42.539  29.132   6.453
10148POPC   C2B65264  42.606  29.123   6.753
10148POPC   C3B65265  42.599  29.167   7.053
10148POPC   C4B65266  42.536  29.094   7.353
10149POPC   NC365267  24.493  39.244   5.553
10149POPC   PO465268  24.515  39.199   5.853
10149POPC   GL165269  24.452  39.183   6.153
10149POPC   GL265270  24.433  39.323   6.153
10149POPC   C1A65271  24.525  39.249   6.453
10149POPC   D2A65272  24.501  39.251   6.753
10149POPC   C3A65273  24.514  39.246   7.053
10149POPC   C4A65274  24.474  39.259   7.353
10149POPC   C1B65275  24.288  39.411   6.453
10149POPC   C2B65276  24.290  39.349   6.753
10149POPC   C3B65277  24.278  39.325   7.053
10149POPC   C4B65278  24.301  39.382   7.353
10150POPC   NC365279   5.065  43.910   5.553
10150POPC   PO465280   5.131  43.859   5.853
10150POPC   GL165281   5.072  43.889   6.153
10150POPC   GL265282   4.945  43.871   6.153
10150POPC   C1A65283   5.046  43.906   6.453
10150POPC   D2A65284   5.121  43.841   6.753
10150POPC   C3A65285   5.099  43.870   7.053
10150POPC   C4A65286   5.084  43.925   7.353
10150POPC   C1B65287   4.895  43.817   6.453
10150POPC   C2B65288   4.881  43.792   6.753
10150POPC   C3B65289   4.891  43.808   7.053
10150POPC   C4B65290   4.857  43.779   7.353
10151POPC   NC365291  26.851   8.934   5.553
10151POPC   PO465292  26.834   9.012   5.853
10151POPC   GL165293  26.864   8.953   6.153
10151POPC   GL265294  26.737   8.832   6.153
10151POPC   C1A65295  26.772   9.016   6.453
10151POPC   D2A65296  26.794   8.949   6.753
10151POPC   C3A65297  26.796   8.948   7.053
10151POPC   C4A65298  26.858   8.986   7.353
10151POPC   C1B65299  26.722   8.792   6.453
10151POPC   C2B65300  26.690   8.752   6.753
10151POPC   C3B65301  26.675   8.744   7.053
10151POPC   C4B65302  26.637   8.769   7.353
10152POPC   NC365303  22.146  12.035   5.553
10152POPC   PO465304  22.129  12.117   5.853
10152POPC   GL165305  22.122  12.050   6.153
10152POPC   GL265306  22.246  11.948   6.153
10152POPC   C1A65307  22.190  12.065   6.453
10152POPC   D2A65308  22.204  12.061   6.753
10152POPC   C3A65309  22.211  12.060   7.053
10152POPC   C4A65310  22.148  12.085   7.353
10152POPC   C1B65311  22.295  11.875   6.453
10152POPC   C2B65312  22.293  11.836   6.753
10152POPC   C3B65313  22.322  11.874   7.053
10152POPC   C4B65314  22.268  11.845   7.353
10153POPC   NC365315   8.221  24.514   5.553
10153POPC   PO465316   8.176  24.525   5.853
10153POPC   GL165317   8.181  24.527   6.153
10153POPC   GL265318   8.101  24.380   6.153
10153POPC   C1A65319   8.208  24.480   6.453
10153POPC   D2A65320   8.149  24.516   6.753
10153POPC   C3A65321   8.220  24.458   7.053
10153POPC   C4A65322   8.199  24.479   7.353
10153POPC   C1B65323   8.095  24.231   6.453
10153POPC   C2B65324   8.131  24.282   6.753
10153POPC   C3B65325   8.042  24.221   7.053
10153POPC   C4B65326   8.093  24.264   7.353
10154POPC   NC365327  40.768  23.763   5.553
10154POPC   PO465328  40.799  23.710   5.853
10154POPC   GL165329  40.792  23.699   6.153
10154POPC   GL265330  40.772  23.553   6.153
10154POPC   C1A65331  40.817  23.684   6.453
10154POPC   D2A65332  40.801  23.695   6.753
10154POPC   C3A65333  40.743  23.699   7.053
10154POPC   C4A65334  40.738  23.678   7.353
10154POPC   C1B65335  40.764  23.446   6.453
10154POPC   C2B65336  40.758  23.475   6.753
10154POPC   C3B65337  40.751  23.500   7.053
10154POPC   C4B65338  40.811  23.440   7.353
10155POPC   NC365339  29.926  35.358   5.553
10155POPC   PO465340  29.940  35.311   5.853
10155POPC   GL165341  29.939  35.338   6.153
10155POPC   GL265342  29.839  35.324   6.153
10155POPC   C1A65343  29.910  35.385   6.453
10155POPC   D2A65344  29.954  35.305   6.753
10155POPC   C3A65345  29.899  35.376   7.053
10155POPC   C4A65346  29.927  35.349   7.353
10155POPC   C1B65347  29.638  35.371   6.453
10155POPC   C2B65348  29.641  35.413   6.753
10155POPC   C3B65349  29.665  35.358   7.053
10155POPC   C4B65350  29.664  35.345   7.353
10156POPC   NC365351  28.407   7.462   5.553
10156POPC   PO465352  28.322   7.406   5.853
10156POPC   GL165353  28.403   7.414   6.153
10156POPC   GL265354  28.236   7.332   6.153
10156POPC   C1A65355  28.343   7.383   6.453
10156POPC   D2A65356  28.405   7.398   6.753
10156POPC   C3A65357  28.365   7.456   7.053
10156POPC   C4A65358  28.414   7.438   7.353
10156POPC   C1B65359  28.124   7.245   6.453
10156POPC   C2B65360  28.162   7.300   6.753
10156POPC   C3B65361  28.114   7.319   7.053
10156POPC   C4B65362  28.175   7.305   7.353
10157POPC   NC365363  38.446  33.815   5.553
10157POPC   PO465364  38.455  33.797   5.853
10157POPC   GL165365  38.419  33.765   6.153
10157POPC   GL265366  38.312  33.841   6.153
10157POPC   C1A65367  38.467  33.768   6.453
10157POPC   D2A65368  38.498  33.756   6.753
10157POPC   C3A65369  38.450  33.845   7.053
10157POPC   C4A65370  38.456  33.798   7.353
10157POPC   C1B65371  38.225  33.862   6.453
10157POPC   C2B65372  38.182  33.864   6.753
10157POPC   C3B65373  38.219  33.867   7.053
10157POPC   C4B65374  38.255  33.951   7.353
10158POPC   NC365375   4.358  32.288   5.553
10158POPC   PO465376   4.295  32.258   5.853
10158POPC   GL165377   4.280  32.234   6.153
10158POPC   GL265378   4.170  32.298   6.153
10158POPC   C1A65379   4.315  32.203   6.453
10158POPC   D2A65380   4.331  32.203   6.753
10158POPC   C3A65381   4.308  32.234   7.053
10158POPC   C4A65382   4.347  32.282   7.353
10158POPC   C1B65383   4.078  32.366   6.453
10158POPC   C2B65384   4.140  32.389   6.753
10158POPC   C3B65385   4.127  32.371   7.053
10158POPC   C4B65386   4.104  32.351   7.353
10159POPC   NC365387  22.973  28.363   5.553
10159POPC   PO465388  22.947  28.363   5.853
10159POPC   GL165389  22.934  28.398   6.153
10159POPC   GL265390  22.997  28.450   6.153
10159POPC   C1A65391  22.959  28.362   6.453
10159POPC   D2A65392  22.899  28.407   6.753
10159POPC   C3A65393  22.934  28.404   7.053
10159POPC   C4A65394  22.972  28.399   7.353
10159POPC   C1B65395  22.983  28.577   6.453
10159POPC   C2B65396  23.068  28.594   6.753
10159POPC   C3B65397  22.995  28.608   7.053
10159POPC   C4B65398  23.009  28.563   7.353
10160POPC   NC365399  26.848  22.900   5.553
10160POPC   PO465400  26.795  22.987   5.853
10160POPC   GL165401  26.825  22.895   6.153
10160POPC   GL265402  26.752  22.805   6.153
10160POPC   C1A65403  26.837  22.944   6.453
10160POPC   D2A65404  26.769  22.942   6.753
10160POPC   C3A65405  26.783  22.954   7.053
10160POPC   C4A65406  26.796  22.971   7.353
10160POPC   C1B65407  26.618  22.812   6.453
10160POPC   C2B65408  26.675  22.806   6.753
10160POPC   C3B65409  26.668  22.809   7.053
10160POPC   C4B65410  26.662  22.729   7.353
10161POPC   NC365411  25.252  39.195   5.553
10161POPC   PO465412  25.308  39.243   5.853
10161POPC   GL165413  25.263  39.263   6.153
10161POPC   GL265414  25.363  39.285   6.153
10161POPC   C1A65415  25.293  39.228   6.453
10161POPC   D2A65416  25.232  39.243   6.753
10161POPC   C3A65417  25.281  39.212   7.053
10161POPC   C4A65418  25.281  39.267   7.353
10161POPC   C1B65419  25.514  39.369   6.453
10161POPC   C2B65420  25.536  39.308   6.753
10161POPC   C3B65421  25.535  39.313   7.053
10161POPC   C4B65422  25.517  39.308   7.353
10162POPC   NC365423  40.780  25.311   5.553
10162POPC   PO465424  40.804  25.226   5.853
10162POPC   GL165425  40.748  25.223   6.153
10162POPC   GL265426  40.804  25.355   6.153
10162POPC   C1A65427  40.747  25.268   6.453
10162POPC   D2A65428  40.825  25.224   6.753
10162POPC   C3A65429  40.786  25.273   7.053
10162POPC   C4A65430  40.744  25.262   7.353
10162POPC   C1B65431  40.817  25.508   6.453
10162POPC   C2B65432  40.850  25.467   6.753
10162POPC   C3B65433  40.793  25.481   7.053
10162POPC   C4B65434  40.805  25.537   7.353
10163POPC   NC365435  19.850  26.080   5.553
10163POPC   PO465436  19.806  26.054   5.853
10163POPC   GL165437  19.829  26.074   6.153
10163POPC   GL265438  19.687  25.996   6.153
10163POPC   C1A65439  19.865  26.067   6.453
10163POPC   D2A65440  19.852  26.074   6.753
10163POPC   C3A65441  19.802  26.079   7.053
10163POPC   C4A65442  19.812  26.082   7.353
10163POPC   C1B65443  19.595  26.051   6.453
10163POPC   C2B65444  19.580  26.023   6.753
10163POPC   C3B65445  19.537  25.986   7.053
10163POPC   C4B65446  19.573  25.987   7.353
10164POPC   NC365447  34.595   4.304   5.553
10164POPC   PO465448  34.604   4.357   5.853
10164POPC   GL165449  34.527   4.277   6.153
10164POPC   GL265450  34.671   4.348   6.153
10164POPC   C1A65451  34.600   4.272   6.453
10164POPC   D2A65452  34.566   4.356   6.753
10164POPC   C3A65453  34.625   4.304   7.053
10164POPC   C4A65454  34.556   4.301   7.353
10164POPC   C1B65455  34.864   4.317   6.453
10164POPC   C2B65456  34.826   4.392   6.753
10164POPC   C3B65457  34.811   4.343   7.053
10164POPC   C4B65458  34.825   4.309   7.353
10165POPC   NC365459  38.454  27.587   5.553
10165POPC   PO465460  38.410  27.590   5.853
10165POPC   GL165461  38.452  27.612   6.153
10165POPC   GL265462  38.456  27.665   6.153
10165POPC   C1A65463  38.460  27.642   6.453
10165POPC   D2A65464  38.442  27.593   6.753
10165POPC   C3A65465  38.504  27.568   7.053
10165POPC   C4A65466  38.492  27.626   7.353
10165POPC   C1B65467  38.567  27.799   6.453
10165POPC   C2B65468  38.554  27.786   6.753
10165POPC   C3B65469  38.582  27.785   7.053
10165POPC   C4B65470  38.584  27.868   7.353
10166POPC   NC365471  14.424  20.653   5.553
10166POPC   PO465472  14.366  20.626   5.853
10166POPC   GL165473  14.383  20.653   6.153
10166POPC   GL265474  14.293  20.610   6.153
10166POPC   C1A65475  14.448  20.645   6.453
10166POPC   D2A65476  14.368  20.571   6.753
10166POPC   C3A65477  14.395  20.576   7.053
10166POPC   C4A65478  14.391  20.604   7.353
10166POPC   C1B65479  14.190  20.565   6.453
10166POPC   C2B65480  14.178  20.547   6.753
10166POPC   C3B65481  14.168  20.611   7.053
10166POPC   C4B65482  14.165  20.541   7.353
10167POPC   NC365483  15.996  37.672   5.553
10167POPC   PO465484  15.996  37.662   5.853
10167POPC   GL165485  15.935  37.666   6.153
10167POPC   GL265486  16.089  37.621   6.153
10167POPC   C1A65487  15.992  37.635   6.453
10167POPC   D2A65488  15.991  37.716   6.753
10167POPC   C3A65489  15.952  37.724   7.053
10167POPC   C4A65490  15.911  37.630   7.353
10167POPC   C1B65491  16.131  37.527   6.453
10167POPC   C2B65492  16.184  37.551   6.753
10167POPC   C3B65493  16.142  37.496   7.053
10167POPC   C4B65494  16.127  37.553   7.353
10168POPC   NC365495  19.028  39.996   5.553
10168POPC   PO465496  19.100  39.995   5.853
10168POPC   GL165497  19.090  39.999   6.153
10168POPC   GL265498  18.930  39.881   6.153
10168POPC   C1A65499  19.035  39.984   6.453
10168POPC   D2A65500  19.051  40.025   6.753
10168POPC   C3A65501  19.059  40.038   7.053
10168POPC   C4A65502  19.059  40.001   7.353
10168POPC   C1B65503  18.857  39.892   6.453
10168POPC   C2B65504  18.892  39.839   6.753
10168POPC   C3B65505  18.904  39.864   7.053
10168POPC   C4B65506  18.831  39.892   7.353
10169POPC   NC365507  19.094  24.527   5.553
10169POPC   PO465508  19.058  24.469   5.853
10169POPC   GL165509  19.096  24.469   6.153
10169POPC   GL265510  18.902  24.538   6.153
10169POPC   C1A65511  19.092  24.540   6.453
10169POPC   D2A65512  19.069  24.498   6.753
10169POPC   C3A65513  19.035  24.534   7.053
10169POPC   C4A65514  19.037  24.507   7.353
10169POPC   C1B65515  18.783  24.534   6.453
10169POPC   C2B65516  18.822  24.492   6.753
10169POPC   C3B65517  18.767  24.536   7.053
10169POPC   C4B65518  18.799  24.476   7.353
10170POPC   NC365519   9.785   3.504   5.553
10170POPC   PO465520   9.726   3.533   5.853
10170POPC   GL165521   9.746   3.561   6.153
10170POPC   GL265522   9.728   3.395   6.153
10170POPC   C1A65523   9.741   3.563   6.453
10170POPC   D2A65524   9.700   3.583   6.753
10170POPC   C3A65525   9.713   3.572   7.053
10170POPC   C4A65526   9.785   3.554   7.353
10170POPC   C1B65527   9.702   3.275   6.453
10170POPC   C2B65528   9.687   3.332   6.753
10170POPC   C3B65529   9.668   3.260   7.053
10170POPC   C4B65530   9.688   3.274   7.353
10171POPC   NC365531  15.133  19.061   5.553
10171POPC   PO465532  15.182  19.036   5.853
10171POPC   GL165533  15.197  19.099   6.153
10171POPC   GL265534  15.132  19.159   6.153
10171POPC   C1A65535  15.143  19.066   6.453
10171POPC   D2A65536  15.225  19.061   6.753
10171POPC   C3A65537  15.163  19.043   7.053
10171POPC   C4A65538  15.193  19.100   7.353
10171POPC   C1B65539  15.164  19.292   6.453
10171POPC   C2B65540  15.199  19.307   6.753
10171POPC   C3B65541  15.159  19.286   7.053
10171POPC   C4B65542  15.167  19.274   7.353
10172POPC   NC365543   5.857   8.930   5.553
10172POPC   PO465544   5.856   8.935   5.853
10172POPC   GL165545   5.831   8.998   6.153
10172POPC   GL265546   5.945   8.993   6.153
10172POPC   C1A65547   5.841   8.945   6.453
10172POPC   D2A65548   5.850   8.985   6.753
10172POPC   C3A65549   5.893   9.016   7.053
10172POPC   C4A65550   5.888   8.952   7.353
10172POPC   C1B65551   6.081   8.998   6.453
10172POPC   C2B65552   6.145   8.975   6.753
10172POPC   C3B65553   6.101   8.998   7.053
10172POPC   C4B65554   6.077   8.956   7.353
10173POPC   NC365555  39.220  28.328   5.553
10173POPC   PO465556  39.276  28.401   5.853
10173POPC   GL165557  39.280  28.325   6.153
10173POPC   GL265558  39.174  28.277   6.153
10173POPC   C1A65559  39.230  28.331   6.453
10173POPC   D2A65560  39.194  28.339   6.753
10173POPC   C3A65561  39.235  28.382   7.053
10173POPC   C4A65562  39.270  28.324   7.353
10173POPC   C1B65563  39.102  28.095   6.453
10173POPC   C2B65564  39.091  28.172   6.753
10173POPC   C3B65565  39.089  28.104   7.053
10173POPC   C4B65566  39.146  28.166   7.353
10174POPC   NC365567  18.279  30.738   5.553
10174POPC   PO465568  18.240  30.694   5.853
10174POPC   GL165569  18.324  30.654   6.153
10174POPC   GL265570  18.183  30.566   6.153
10174POPC   C1A65571  18.249  30.653   6.453
10174POPC   D2A65572  18.254  30.690   6.753
10174POPC   C3A65573  18.249  30.687   7.053
10174POPC   C4A65574  18.300  30.704   7.353
10174POPC   C1B65575  18.141  30.495   6.453
10174POPC   C2B65576  18.104  30.498   6.753
10174POPC   C3B65577  18.169  30.459   7.053
10174POPC   C4B65578  18.116  30.476   7.353
10175POPC   NC365579  29.113  16.711   5.553
10175POPC   PO465580  29.190  16.714   5.853
10175POPC   GL165581  29.112  16.725   6.153
10175POPC   GL265582  29.057  16.720   6.153
10175POPC   C1A65583  29.135  16.777   6.453
10175POPC   D2A65584  29.110  16.725   6.753
10175POPC   C3A65585  29.130  16.684   7.053
10175POPC   C4A65586  29.189  16.681   7.353
10175POPC   C1B65587  28.858  16.683   6.453
10175POPC   C2B65588  28.852  16.698   6.753
10175POPC   C3B65589  28.938  16.751   7.053
10175POPC   C4B65590  28.853  16.730   7.353
10176POPC   NC365591  30.655  33.037   5.553
10176POPC   PO465592  30.739  33.045   5.853
10176POPC   GL165593  30.746  33.034   6.153
10176POPC   GL265594  30.528  33.027   6.153
10176POPC   C1A65595  30.699  33.070   6.453
10176POPC   D2A65596  30.669  32.974   6.753
10176POPC   C3A65597  30.662  33.023   7.053
10176POPC   C4A65598  30.647  33.035   7.353
10176POPC   C1B65599  30.471  32.916   6.453
10176POPC   C2B65600  30.482  32.922   6.753
10176POPC   C3B65601  30.444  32.997   7.053
10176POPC   C4B65602  30.456  32.908   7.353
10177POPC   NC365603  12.085  24.459   5.553
10177POPC   PO465604  12.060  24.511   5.853
10177POPC   GL165605  12.116  24.524   6.153
10177POPC   GL265606  12.159  24.539   6.153
10177POPC   C1A65607  12.087  24.504   6.453
10177POPC   D2A65608  12.066  24.480   6.753
10177POPC   C3A65609  12.078  24.522   7.053
10177POPC   C4A65610  12.076  24.517   7.353
10177POPC   C1B65611  12.239  24.670   6.453
10177POPC   C2B65612  12.273  24.687   6.753
10177POPC   C3B65613  12.253  24.684   7.053
10177POPC   C4B65614  12.264  24.685   7.353
10178POPC   NC365615  14.381  39.237   5.553
10178POPC   PO465616  14.367  39.248   5.853
10178POPC   GL165617  14.397  39.191   6.153
10178POPC   GL265618  14.350  39.185   6.153
10178POPC   C1A65619  14.393  39.269   6.453
10178POPC   D2A65620  14.355  39.214   6.753
10178POPC   C3A65621  14.433  39.264   7.053
10178POPC   C4A65622  14.399  39.280   7.353
10178POPC   C1B65623  14.220  39.107   6.453
10178POPC   C2B65624  14.218  39.056   6.753
10178POPC   C3B65625  14.198  39.097   7.053
10178POPC   C4B65626  14.232  39.060   7.353
10179POPC   NC365627   5.830  33.026   5.553
10179POPC   PO465628   5.850  33.034   5.853
10179POPC   GL165629   5.900  33.027   6.153
10179POPC   GL265630   5.700  33.084   6.153
10179POPC   C1A65631   5.849  32.990   6.453
10179POPC   D2A65632   5.823  33.067   6.753
10179POPC   C3A65633   5.902  33.014   7.053
10179POPC   C4A65634   5.840  32.990   7.353
10179POPC   C1B65635   5.588  33.031   6.453
10179POPC   C2B65636   5.616  33.049   6.753
10179POPC   C3B65637   5.586  33.084   7.053
10179POPC   C4B65638   5.577  33.028   7.353
10180POPC   NC365639  28.340  12.056   5.553
10180POPC   PO465640  28.349  12.052   5.853
10180POPC   GL165641  28.410  12.070   6.153
10180POPC   GL265642  28.410  11.940   6.153
10180POPC   C1A65643  28.398  12.062   6.453
10180POPC   D2A65644  28.337  12.075   6.753
10180POPC   C3A65645  28.341  12.067   7.053
10180POPC   C4A65646  28.419  12.058   7.353
10180POPC   C1B65647  28.368  11.787   6.453
10180POPC   C2B65648  28.348  11.865   6.753
10180POPC   C3B65649  28.328  11.814   7.053
10180POPC   C4B65650  28.350  11.852   7.353
10181POPC   NC365651  18.254  19.805   5.553
10181POPC   PO465652  18.265  19.809   5.853
10181POPC   GL165653  18.244  19.860   6.153
10181POPC   GL265654  18.367  19.752   6.153
10181POPC   C1A65655  18.267  19.785   6.453
10181POPC   D2A65656  18.246  19.882   6.753
10181POPC   C3A65657  18.287  19.872   7.053
10181POPC   C4A65658  18.324  19.844   7.353
10181POPC   C1B65659  18.449  19.668   6.453
10181POPC   C2B65660  18.452  19.737   6.753
10181POPC   C3B65661  18.472  19.720   7.053
10181POPC   C4B65662  18.479  19.699   7.353
10182POPC   NC365663  26.863  13.588   5.553
10182POPC   PO465664  26.784  13.612   5.853
10182POPC   GL165665  26.787  13.629   6.153
10182POPC   GL265666  26.887  13.692   6.153
10182POPC   C1A65667  26.831  13.642   6.453
10182POPC   D2A65668  26.802  13.597   6.753
10182POPC   C3A65669  26.841  13.660   7.053
10182POPC   C4A65670  26.813  13.613   7.353
10182POPC   C1B65671  27.053  13.736   6.453
10182POPC   C2B65672  27.028  13.771   6.753
10182POPC   C3B65673  26.993  13.765   7.053
10182POPC   C4B65674  27.003  13.793   7.353
10183POPC   NC365675  43.925  38.466   5.553
10183POPC   PO465676  43.897  38.430   5.853
10183POPC   GL165677  43.934  38.502   6.153
10183POPC   GL265678  44.041  38.498   6.153
10183POPC   C1A65679  43.927  38.425   6.453
10183POPC   D2A65680  43.902  38.490   6.753
10183POPC   C3A65681  43.868  38.474   7.053
10183POPC   C4A65682  43.882  38.494   7.353
10183POPC   C1B65683  44.072  38.558   6.453
10183POPC   C2B65684  44.101  38.506   6.753
10183POPC   C3B65685  44.086  38.503   7.053
10183POPC   C4B65686  44.092  38.532   7.353
10184POPC   NC365687  35.325   0.407   5.553
10184POPC   PO465688  35.318   0.404   5.853
10184POPC   GL165689  35.327   0.486   6.153
10184POPC   GL265690  35.454   0.310   6.153
10184POPC   C1A65691  35.329   0.464   6.453
10184POPC   D2A65692  35.320   0.447   6.753
10184POPC   C3A65693  35.371   0.478   7.053
10184POPC   C4A65694  35.376   0.482   7.353
10184POPC   C1B65695  35.455   0.199   6.453
10184POPC   C2B65696  35.481   0.190   6.753
10184POPC   C3B65697  35.459   0.186   7.053
10184POPC   C4B65698  35.473   0.198   7.353
10185POPC   NC365699   2.798  21.342   5.553
10185POPC   PO465700   2.764  21.417   5.853
10185POPC   GL165701   2.814  21.434   6.153
10185POPC   GL265702   2.937  21.452   6.153
10185POPC   C1A65703   2.808  21.405   6.453
10185POPC   D2A65704   2.773  21.408   6.753
10185POPC   C3A65705   2.730  21.409   7.053
10185POPC   C4A65706   2.734  21.386   7.353
10185POPC   C1B65707   3.013  21.488   6.453
10185POPC   C2B65708   3.034  21.439   6.753
10185POPC   C3B65709   3.018  21.455   7.053
10185POPC   C4B65710   2.990  21.446   7.353
10186POPC   NC365711  10.548  19.020   5.553
10186POPC   PO465712  10.534  19.052   5.853
10186POPC   GL165713  10.476  19.100   6.153
10186POPC   GL265714  10.573  18.983   6.153
10186POPC   C1A65715  10.478  19.018   6.453
10186POPC   D2A65716  10.491  19.046   6.753
10186POPC   C3A65717  10.559  19.066   7.053
10186POPC   C4A65718  10.497  19.078   7.353
10186POPC   C1B65719  10.623  18.829   6.453
10186POPC   C2B65720  10.597  18.845   6.753
10186POPC   C3B65721  10.612  18.845   7.053
10186POPC   C4B65722  10.609  18.852   7.353
10187POPC   NC365723  11.349  38.501   5.553
10187POPC   PO465724  11.319  38.458   5.853
10187POPC   GL165725  11.261  38.459   6.153
10187POPC   GL265726  11.255  38.574   6.153
10187POPC   C1A65727  11.307  38.472   6.453
10187POPC   D2A65728  11.335  38.405   6.753
10187POPC   C3A65729  11.280  38.493   7.053
10187POPC   C4A65730  11.336  38.438   7.353
10187POPC   C1B65731  11.133  38.630   6.453
10187POPC   C2B65732  11.157  38.613   6.753
10187POPC   C3B65733  11.142  38.577   7.053
10187POPC   C4B65734  11.115  38.647   7.353
10188POPC   NC365735  20.643   5.866   5.553
10188POPC   PO465736  20.616   5.890   5.853
10188POPC   GL165737  20.652   5.911   6.153
10188POPC   GL265738  20.658   5.970   6.153
10188POPC   C1A65739  20.597   5.904   6.453
10188POPC   D2A65740  20.617   5.837   6.753
10188POPC   C3A65741  20.612   5.889   7.053
10188POPC   C4A65742  20.611   5.889   7.353
10188POPC   C1B65743  20.762   6.108   6.453
10188POPC   C2B65744  20.733   6.044   6.753
10188POPC   C3B65745  20.735   6.092   7.053
10188POPC   C4B65746  20.786   6.023   7.353
10189POPC   NC365747   7.439  36.139   5.553
10189POPC   PO465748   7.418  36.117   5.853
10189POPC   GL165749   7.450  36.086   6.153
10189POPC   GL265750   7.539  36.022   6.153
10189POPC   C1A65751   7.397  36.122   6.453
10189POPC   D2A65752   7.451  36.113   6.753
10189POPC   C3A65753   7.454  36.106   7.053
10189POPC   C4A65754   7.405  36.107   7.353
10189POPC   C1B65755   7.629  36.000   6.453
10189POPC   C2B65756   7.589  36.009   6.753
10189POPC   C3B65757   7.647  35.970   7.053
10189POPC   C4B65758   7.629  35.982   7.353
10190POPC   NC365759   1.200  35.374   5.553
10190POPC   PO465760   1.262  35.353   5.853
10190POPC   GL165761   1.170  35.378   6.153
10190POPC   GL265762   1.161  35.460   6.153
10190POPC   C1A65763   1.255  35.343   6.453
10190POPC   D2A65764   1.233  35.358   6.753
10190POPC   C3A65765   1.200  35.310   7.053
10190POPC   C4A65766   1.263  35.358   7.353
10190POPC   C1B65767   1.120  35.614   6.453
10190POPC   C2B65768   1.106  35.574   6.753
10190POPC   C3B65769   1.079  35.534   7.053
10190POPC   C4B65770   1.113  35.554   7.353
10191POPC   NC365771  39.189  42.305   5.553
10191POPC   PO465772  39.269  42.299   5.853
10191POPC   GL165773  39.262  42.383   6.153
10191POPC   GL265774  39.304  42.297   6.153
10191POPC   C1A65775  39.277  42.363   6.453
10191POPC   D2A65776  39.181  42.382   6.753
10191POPC   C3A65777  39.190  42.307   7.053
10191POPC   C4A65778  39.204  42.382   7.353
10191POPC   C1B65779  39.422  42.273   6.453
10191POPC   C2B65780  39.447  42.313   6.753
10191POPC   C3B65781  39.455  42.270   7.053
10191POPC   C4B65782  39.446  42.254   7.353
10192POPC   NC365783   9.731  19.831   5.553
10192POPC   PO465784   9.704  19.846   5.853
10192POPC   GL165785   9.757  19.859   6.153
10192POPC   GL265786   9.874  19.730   6.153
10192POPC   C1A65787   9.776  19.851   6.453
10192POPC   D2A65788   9.785  19.815   6.753
10192POPC   C3A65789   9.775  19.804   7.053
10192POPC   C4A65790   9.709  19.838   7.353
10192POPC   C1B65791   9.988  19.714   6.453
10192POPC   C2B65792   9.980  19.733   6.753
10192POPC   C3B65793   9.982  19.662   7.053
10192POPC   C4B65794   9.927  19.724   7.353
10193POPC   NC365795  24.440  22.155   5.553
10193POPC   PO465796  24.524  22.210   5.853
10193POPC   GL165797  24.503  22.158   6.153
10193POPC   GL265798  24.402  22.114   6.153
10193POPC   C1A65799  24.534  22.177   6.453
10193POPC   D2A65800  24.462  22.211   6.753
10193POPC   C3A65801  24.457  22.186   7.053
10193POPC   C4A65802  24.472  22.206   7.353
10193POPC   C1B65803  24.362  21.992   6.453
10193POPC   C2B65804  24.337  21.936   6.753
10193POPC   C3B65805  24.351  21.975   7.053
10193POPC   C4B65806  24.320  21.947   7.353
10194POPC   NC365807  23.744  38.497   5.553
10194POPC   PO465808  23.719  38.491   5.853
10194POPC   GL165809  23.707  38.470   6.153
10194POPC   GL265810  23.792  38.326   6.153
10194POPC   C1A65811  23.664  38.496   6.453
10194POPC   D2A65812  23.761  38.467   6.753
10194POPC   C3A65813  23.739  38.443   7.053
10194POPC   C4A65814  23.741  38.497   7.353
10194POPC   C1B65815  23.803  38.279   6.453
10194POPC   C2B65816  23.873  38.246   6.753
10194POPC   C3B65817  23.880  38.226   7.053
10194POPC   C4B65818  23.786  38.256   7.353
10195POPC   NC365819  36.108  43.915   5.553
10195POPC   PO465820  36.107  43.865   5.853
10195POPC   GL165821  36.165  43.925   6.153
10195POPC   GL265822  36.064  43.954   6.153
10195POPC   C1A65823  36.117  43.842   6.453
10195POPC   D2A65824  36.140  43.867   6.753
10195POPC   C3A65825  36.121  43.934   7.053
10195POPC   C4A65826  36.078  43.862   7.353
10195POPC   C1B65827  35.967  44.121   6.453
10195POPC   C2B65828  35.952  44.048   6.753
10195POPC   C3B65829  35.996  44.065   7.053
10195POPC   C4B65830  36.038  44.129   7.353
10196POPC   NC365831  42.317  12.047   5.553
10196POPC   PO465832  42.322  12.119   5.853
10196POPC   GL165833  42.349  12.112   6.153
10196POPC   GL265834  42.290  11.924   6.153
10196POPC   C1A65835  42.317  12.090   6.453
10196POPC   D2A65836  42.348  12.039   6.753
10196POPC   C3A65837  42.362  12.118   7.053
10196POPC   C4A65838  42.371  12.095   7.353
10196POPC   C1B65839  42.368  11.824   6.453
10196POPC   C2B65840  42.306  11.816   6.753
10196POPC   C3B65841  42.295  11.824   7.053
10196POPC   C4B65842  42.343  11.847   7.353
10197POPC   NC365843  33.849  34.562   5.553
10197POPC   PO465844  33.751  34.575   5.853
10197POPC   GL165845  33.791  34.594   6.153
10197POPC   GL265846  33.901  34.542   6.153
10197POPC   C1A65847  33.836  34.573   6.453
10197POPC   D2A65848  33.807  34.594   6.753
10197POPC   C3A65849  33.842  34.588   7.053
10197POPC   C4A65850  33.828  34.604   7.353
10197POPC   C1B65851  34.000  34.585   6.453
10197POPC   C2B65852  34.058  34.535   6.753
10197POPC   C3B65853  34.005  34.584   7.053
10197POPC   C4B65854  34.035  34.575   7.353
10198POPC   NC365855  13.676  29.142   5.553
10198POPC   PO465856  13.640  29.140   5.853
10198POPC   GL165857  13.652  29.143   6.153
10198POPC   GL265858  13.627  29.026   6.153
10198POPC   C1A65859  13.664  29.188   6.453
10198POPC   D2A65860  13.655  29.170   6.753
10198POPC   C3A65861  13.664  29.102   7.053
10198POPC   C4A65862  13.614  29.148   7.353
10198POPC   C1B65863  13.682  28.938   6.453
10198POPC   C2B65864  13.678  28.880   6.753
10198POPC   C3B65865  13.697  28.931   7.053
10198POPC   C4B65866  13.667  28.873   7.353
10199POPC   NC365867  26.827  39.976   5.553
10199POPC   PO465868  26.768  40.028   5.853
10199POPC   GL165869  26.792  40.042   6.153
10199POPC   GL265870  26.766  39.928   6.153
10199POPC   C1A65871  26.831  40.013   6.453
10199POPC   D2A65872  26.830  39.997   6.753
10199POPC   C3A65873  26.824  40.035   7.053
10199POPC   C4A65874  26.792  39.982   7.353
10199POPC   C1B65875  26.623  39.833   6.453
10199POPC   C2B65876  26.662  39.828   6.753
10199POPC   C3B65877  26.585  39.867   7.053
10199POPC   C4B65878  26.595  39.898   7.353
10200POPC   NC365879  27.562  24.516   5.553
10200POPC   PO465880  27.617  24.531   5.853
10200POPC   GL165881  27.567  24.465   6.153
10200POPC   GL265882  27.760  24.463   6.153
10200POPC   C1A65883  27.626  24.505   6.453
10200POPC   D2A65884  27.588  24.480   6.753
10200POPC   C3A65885  27.634  24.464   7.053
10200POPC   C4A65886  27.630  24.523   7.353
10200POPC   C1B65887  27.844  24.489   6.453
10200POPC   C2B65888  27.805  24.497   6.753
10200POPC   C3B65889  27.845  24.477   7.053
10200POPC   C4B65890  27.876  24.510   7.353
10201POPC   NC365891  42.312   5.842   5.553
10201POPC   PO465892  42.379   5.881   5.853
10201POPC   GL165893  42.351   5.881   6.153
10201POPC   GL265894  42.377   5.817   6.153
10201POPC   C1A65895  42.343   5.918   6.453
10201POPC   D2A65896  42.307   5.834   6.753
10201POPC   C3A65897  42.328   5.883   7.053
10201POPC   C4A65898  42.330   5.851   7.353
10201POPC   C1B65899  42.521   5.713   6.453
10201POPC   C2B65900  42.514   5.710   6.753
10201POPC   C3B65901  42.463   5.679   7.053
10201POPC   C4B65902  42.470   5.671   7.353
10202POPC   NC365903   1.981   2.763   5.553
10202POPC   PO465904   2.030   2.796   5.853
10202POPC   GL165905   1.999   2.735   6.153
10202POPC   GL265906   1.915   2.899   6.153
10202POPC   C1A65907   1.982   2.800   6.453
10202POPC   D2A65908   2.010   2.742   6.753
10202POPC   C3A65909   2.023   2.786   7.053
10202POPC   C4A65910   2.033   2.783   7.353
10202POPC   C1B65911   1.810   2.924   6.453
10202POPC   C2B65912   1.799   2.909   6.753
10202POPC   C3B65913   1.792   2.972   7.053
10202POPC   C4B65914   1.790   2.972   7.353
10203POPC   NC365915  15.223   3.556   5.553
10203POPC   PO465916  15.172   3.504   5.853
10203POPC   GL165917  15.153   3.499   6.153
10203POPC   GL265918  15.330   3.595   6.153
10203POPC   C1A65919  15.192   3.586   6.453
10203POPC   D2A65920  15.179   3.550   6.753
10203POPC   C3A65921  15.203   3.526   7.053
10203POPC   C4A65922  15.219   3.547   7.353
10203POPC   C1B65923  15.398   3.609   6.453
10203POPC   C2B65924  15.449   3.516   6.753
10203POPC   C3B65925  15.409   3.559   7.053
10203POPC   C4B65926  15.432   3.536   7.353
10204POPC   NC365927  22.123  21.349   5.553
10204POPC   PO465928  22.203  21.428   5.853
10204POPC   GL165929  22.133  21.350   6.153
10204POPC   GL265930  22.243  21.254   6.153
10204POPC   C1A65931  22.193  21.413   6.453
10204POPC   D2A65932  22.115  21.374   6.753
10204POPC   C3A65933  22.169  21.412   7.053
10204POPC   C4A65934  22.128  21.434   7.353
10204POPC   C1B65935  22.233  21.097   6.453
10204POPC   C2B65936  22.232  21.130   6.753
10204POPC   C3B65937  22.259  21.146   7.053
10204POPC   C4B65938  22.233  21.142   7.353
10205POPC   NC365939   8.152  40.785   5.553
10205POPC   PO465940   8.156  40.745   5.853
10205POPC   GL165941   8.174  40.772   6.153
10205POPC   GL265942   8.273  40.849   6.153
10205POPC   C1A65943   8.182  40.778   6.453
10205POPC   D2A65944   8.211  40.751   6.753
10205POPC   C3A65945   8.237  40.829   7.053
10205POPC   C4A65946   8.245  40.817   7.353
10205POPC   C1B65947   8.431  40.919   6.453
10205POPC   C2B65948   8.434  40.904   6.753
10205POPC   C3B65949   8.398  40.884   7.053
10205POPC   C4B65950   8.476  40.822   7.353
10206POPC   NC365951   8.151  30.728   5.553
10206POPC   PO465952   8.239  30.658   5.853
10206POPC   GL165953   8.232  30.704   6.153
10206POPC   GL265954   8.196  30.539   6.153
10206POPC   C1A65955   8.169  30.693   6.453
10206POPC   D2A65956   8.196  30.694   6.753
10206POPC   C3A65957   8.172  30.746   7.053
10206POPC   C4A65958   8.230  30.655   7.353
10206POPC   C1B65959   8.153  30.504   6.453
10206POPC   C2B65960   8.091  30.460   6.753
10206POPC   C3B65961   8.111  30.412   7.053
10206POPC   C4B65962   8.158  30.504   7.353
10207POPC   NC365963  22.153  29.920   5.553
10207POPC   PO465964  22.168  29.949   5.853
10207POPC   GL165965  22.161  29.945   6.153
10207POPC   GL265966  22.096  30.039   6.153
10207POPC   C1A65967  22.201  29.938   6.453
10207POPC   D2A65968  22.146  29.912   6.753
10207POPC   C3A65969  22.121  29.897   7.053
10207POPC   C4A65970  22.159  29.871   7.353
10207POPC   C1B65971  21.966  30.053   6.453
10207POPC   C2B65972  21.954  30.106   6.753
10207POPC   C3B65973  22.025  30.109   7.053
10207POPC   C4B65974  21.994  30.053   7.353
10208POPC   NC365975  44.686  43.919   5.553
10208POPC   PO465976  44.671  43.880   5.853
10208POPC   GL165977  44.654  43.925   6.153
10208POPC   GL265978  44.674  43.720   6.153
10208POPC   C1A65979  44.669  43.892   6.453
10208POPC   D2A65980  44.695  43.894   6.753
10208POPC   C3A65981  44.662  43.925   7.053
10208POPC   C4A65982  44.673  43.879   7.353
10208POPC   C1B65983  44.658  43.604   6.453
10208POPC   C2B65984  44.722  43.682   6.753
10208POPC   C3B65985  44.709  43.603   7.053
10208POPC   C4B65986  44.703  43.598   7.353
10209POPC   NC365987  31.497   7.384   5.553
10209POPC   PO465988  31.454   7.442   5.853
10209POPC   GL165989  31.424   7.468   6.153
10209POPC   GL265990  31.586   7.434   6.153
10209POPC   C1A65991  31.459   7.398   6.453
10209POPC   D2A65992  31.499   7.413   6.753
10209POPC   C3A65993  31.499   7.435   7.053
10209POPC   C4A65994  31.496   7.420   7.353
10209POPC   C1B65995  31.703   7.401   6.453
10209POPC   C2B65996  31.714   7.355   6.753
10209POPC   C3B65997  31.765   7.430   7.053
10209POPC   C4B65998  31.699   7.408   7.353
10210POPC   NC365999  31.493  10.553   5.553
10210POPC   PO466000  31.457  10.550   5.853
10210POPC   GL166001  31.495  10.542   6.153
10210POPC   GL266002  31.324  10.524   6.153
10210POPC   C1A66003  31.481  10.480   6.453
10210POPC   D2A66004  31.475  10.498   6.753
10210POPC   C3A66005  31.491  10.564   7.053
10210POPC   C4A66006  31.492  10.561   7.353
10210POPC   C1B66007  31.262  10.579   6.453
10210POPC   C2B66008  31.219  10.605   6.753
10210POPC   C3B66009  31.278  10.666   7.053
10210POPC   C4B66010  31.238  10.659   7.353
10211POPC   NC366011   9.762  33.786   5.553
10211POPC   PO466012   9.706  33.829   5.853
10211POPC   GL166013   9.717  33.841   6.153
10211POPC   GL266014   9.600  33.858   6.153
10211POPC   C1A66015   9.706  33.796   6.453
10211POPC   D2A66016   9.714  33.837   6.753
10211POPC   C3A66017   9.794  33.761   7.053
10211POPC   C4A66018   9.727  33.773   7.353
10211POPC   C1B66019   9.535  33.897   6.453
10211POPC   C2B66020   9.593  33.962   6.753
10211POPC   C3B66021   9.500  33.916   7.053
10211POPC   C4B66022   9.541  33.971   7.353
10212POPC   NC366023  44.654  22.169   5.553
10212POPC   PO466024  44.664  22.113   5.853
10212POPC   GL166025  44.689  22.159   6.153
10212POPC   GL266026  44.777  22.277   6.153
10212POPC   C1A66027  44.639  22.193   6.453
10212POPC   D2A66028  44.626  22.135   6.753
10212POPC   C3A66029  44.622  22.178   7.053
10212POPC   C4A66030  44.670  22.161   7.353
10212POPC   C1B66031  44.878  22.316   6.453
10212POPC   C2B66032  44.831  22.382   6.753
10212POPC   C3B66033  44.881  22.381   7.053
10212POPC   C4B66034  44.831  22.293   7.353
10213POPC   NC366035  39.245  32.253   5.553
10213POPC   PO466036  39.232  32.200   5.853
10213POPC   GL166037  39.232  32.240   6.153
10213POPC   GL266038  39.362  32.327   6.153
10213POPC   C1A66039  39.272  32.256   6.453
10213POPC   D2A66040  39.246  32.209   6.753
10213POPC   C3A66041  39.248  32.266   7.053
10213POPC   C4A66042  39.238  32.260   7.353
10213POPC   C1B66043  39.379  32.413   6.453
10213POPC   C2B66044  39.385  32.397   6.753
10213POPC   C3B66045  39.435  32.463   7.053
10213POPC   C4B66046  39.369  32.452   7.353
10214POPC   NC366047  20.615  12.082   5.553
10214POPC   PO466048  20.649  12.054   5.853
10214POPC   GL166049  20.583  12.044   6.153
10214POPC   GL266050  20.607  11.946   6.153
10214POPC   C1A66051  20.596  12.079   6.453
10214POPC   D2A66052  20.578  12.029   6.753
10214POPC   C3A66053  20.573  12.115   7.053
10214POPC   C4A66054  20.623  12.036   7.353
10214POPC   C1B66055  20.552  11.805   6.453
10214POPC   C2B66056  20.603  11.820   6.753
10214POPC   C3B66057  20.550  11.823   7.053
10214POPC   C4B66058  20.585  11.793   7.353
10215POPC   NC366059  27.555  19.061   5.553
10215POPC   PO466060  27.602  19.045   5.853
10215POPC   GL166061  27.574  19.097   6.153
10215POPC   GL266062  27.430  19.139   6.153
10215POPC   C1A66063  27.544  19.058   6.453
10215POPC   D2A66064  27.545  19.050   6.753
10215POPC   C3A66065  27.585  19.049   7.053
10215POPC   C4A66066  27.557  19.083   7.353
10215POPC   C1B66067  27.309  19.175   6.453
10215POPC   C2B66068  27.359  19.108   6.753
10215POPC   C3B66069  27.376  19.127   7.053
10215POPC   C4B66070  27.349  19.117   7.353
10216POPC   NC366071   7.424  18.240   5.553
10216POPC   PO466072   7.467  18.310   5.853
10216POPC   GL166073   7.408  18.271   6.153
10216POPC   GL266074   7.336  18.204   6.153
10216POPC   C1A66075   7.448  18.285   6.453
10216POPC   D2A66076   7.392  18.274   6.753
10216POPC   C3A66077   7.425  18.255   7.053
10216POPC   C4A66078   7.444  18.233   7.353
10216POPC   C1B66079   7.290  18.047   6.453
10216POPC   C2B66080   7.285  18.007   6.753
10216POPC   C3B66081   7.326  18.047   7.053
10216POPC   C4B66082   7.354  18.078   7.353
10217POPC   NC366083  19.858  41.590   5.553
10217POPC   PO466084  19.862  41.519   5.853
10217POPC   GL166085  19.800  41.596   6.153
10217POPC   GL266086  20.008  41.590   6.153
10217POPC   C1A66087  19.792  41.523   6.453
10217POPC   D2A66088  19.869  41.608   6.753
10217POPC   C3A66089  19.798  41.577   7.053
10217POPC   C4A66090  19.867  41.559   7.353
10217POPC   C1B66091  20.072  41.550   6.453
10217POPC   C2B66092  20.106  41.553   6.753
10217POPC   C3B66093  20.037  41.596   7.053
10217POPC   C4B66094  20.075  41.577   7.353
10218POPC   NC366095  33.048  34.566   5.553
10218POPC   PO466096  33.071  34.571   5.853
10218POPC   GL166097  33.062  34.607   6.153
10218POPC   GL266098  32.935  34.516   6.153
10218POPC   C1A66099  33.047  34.544   6.453
10218POPC   D2A66100  33.053  34.606   6.753
10218POPC   C3A66101  33.012  34.573   7.053
10218POPC   C4A66102  32.985  34.554   7.353
10218POPC   C1B66103  32.752  34.548   6.453
10218POPC   C2B66104  32.827  34.509   6.753
10218POPC   C3B66105  32.810  34.506   7.053
10218POPC   C4B66106  32.781  34.563   7.353
10219POPC   NC366107  39.980  27.633   5.553
10219POPC   PO466108  39.987  27.624   5.853
10219POPC   GL166109  40.043  27.545   6.153
10219POPC   GL266110  40.165  27.655   6.153
10219POPC   C1A66111  40.011  27.638   6.453
10219POPC   D2A66112  40.053  27.613   6.753
10219POPC   C3A66113  39.998  27.558   7.053
10219POPC   C4A66114  39.976  27.624   7.353
10219POPC   C1B66115  40.214  27.588   6.453
10219POPC   C2B66116  40.278  27.667   6.753
10219POPC   C3B66117  40.278  27.647   7.053
10219POPC   C4B66118  40.224  27.667   7.353
10220POPC   NC366119   8.964   3.539   5.553
10220POPC   PO466120   9.004   3.578   5.853
10220POPC   GL166121   9.015   3.560   6.153
10220POPC   GL266122   8.969   3.708   6.153
10220POPC   C1A66123   8.953   3.561   6.453
10220POPC   D2A66124   8.939   3.572   6.753
10220POPC   C3A66125   9.004   3.522   7.053
10220POPC   C4A66126   8.970   3.575   7.353
10220POPC   C1B66127   8.939   3.791   6.453
10220POPC   C2B66128   9.002   3.804   6.753
10220POPC   C3B66129   8.937   3.749   7.053
10220POPC   C4B66130   8.969   3.800   7.353
10221POPC   NC366131  42.359   2.747   5.553
10221POPC   PO466132  42.378   2.808   5.853
10221POPC   GL166133  42.293   2.730   6.153
10221POPC   GL266134  42.355   2.624   6.153
10221POPC   C1A66135  42.371   2.720   6.453
10221POPC   D2A66136  42.285   2.778   6.753
10221POPC   C3A66137  42.348   2.757   7.053
10221POPC   C4A66138  42.310   2.774   7.353
10221POPC   C1B66139  42.293   2.562   6.453
10221POPC   C2B66140  42.356   2.566   6.753
10221POPC   C3B66141  42.264   2.504   7.053
10221POPC   C4B66142  42.325   2.525   7.353
10222POPC   NC366143  19.824  24.458   5.553
10222POPC   PO466144  19.879  24.465   5.853
10222POPC   GL166145  19.856  24.470   6.153
10222POPC   GL266146  19.936  24.402   6.153
10222POPC   C1A66147  19.811  24.517   6.453
10222POPC   D2A66148  19.814  24.528   6.753
10222POPC   C3A66149  19.804  24.459   7.053
10222POPC   C4A66150  19.818  24.529   7.353
10222POPC   C1B66151  20.084  24.318   6.453
10222POPC   C2B66152  20.021  24.387   6.753
10222POPC   C3B66153  20.016  24.326   7.053
10222POPC   C4B66154  20.063  24.373   7.353
10223POPC   NC366155  19.017  43.100   5.553
10223POPC   PO466156  19.087  43.113   5.853
10223POPC   GL166157  19.042  43.125   6.153
10223POPC   GL266158  19.185  43.065   6.153
10223POPC   C1A66159  19.097  43.080   6.453
10223POPC   D2A66160  19.072  43.128   6.753
10223POPC   C3A66161  19.035  43.124   7.053
10223POPC   C4A66162  19.107  43.111   7.353
10223POPC   C1B66163  19.310  43.145   6.453
10223POPC   C2B66164  19.268  43.123   6.753
10223POPC   C3B66165  19.302  43.065   7.053
10223POPC   C4B66166  19.309  43.076   7.353
10224POPC   NC366167  39.237  38.436   5.553
10224POPC   PO466168  39.269  38.470   5.853
10224POPC   GL166169  39.261  38.446   6.153
10224POPC   GL266170  39.204  38.377   6.153
10224POPC   C1A66171  39.216  38.473   6.453
10224POPC   D2A66172  39.212  38.422   6.753
10224POPC   C3A66173  39.265  38.459   7.053
10224POPC   C4A66174  39.222  38.408   7.353
10224POPC   C1B66175  39.144  38.267   6.453
10224POPC   C2B66176  39.079  38.204   6.753
10224POPC   C3B66177  39.136  38.270   7.053
10224POPC   C4B66178  39.085  38.225   7.353
10225POPC   NC366179  39.957  43.090   5.553
10225POPC   PO466180  40.045  43.134   5.853
10225POPC   GL166181  39.966  43.075   6.153
10225POPC   GL266182  39.882  43.181   6.153
10225POPC   C1A66183  40.015  43.079   6.453
10225POPC   D2A66184  40.024  43.136   6.753
10225POPC   C3A66185  40.036  43.083   7.053
10225POPC   C4A66186  40.003  43.096   7.353
10225POPC   C1B66187  39.818  43.224   6.453
10225POPC   C2B66188  39.784  43.302   6.753
10225POPC   C3B66189  39.809  43.284   7.053
10225POPC   C4B66190  39.806  43.253   7.353
10226POPC   NC366191  19.831   2.030   5.553
10226POPC   PO466192  19.810   2.017   5.853
10226POPC   GL166193  19.849   2.008   6.153
10226POPC   GL266194  19.842   2.155   6.153
10226POPC   C1A66195  19.802   1.944   6.453
10226POPC   D2A66196  19.817   2.027   6.753
10226POPC   C3A66197  19.798   1.951   7.053
10226POPC   C4A66198  19.862   2.024   7.353
10226POPC   C1B66199  19.938   2.277   6.453
10226POPC   C2B66200  19.870   2.268   6.753
10226POPC   C3B66201  19.913   2.186   7.053
10226POPC   C4B66202  19.888   2.186   7.353
10227POPC   NC366203  29.123  15.952   5.553
10227POPC   PO466204  29.129  15.977   5.853
10227POPC   GL166205  29.123  15.916   6.153
10227POPC   GL266206  29.158  15.820   6.153
10227POPC   C1A66207  29.180  15.922   6.453
10227POPC   D2A66208  29.126  16.002   6.753
10227POPC   C3A66209  29.134  15.963   7.053
10227POPC   C4A66210  29.159  15.921   7.353
10227POPC   C1B66211  29.162  15.753   6.453
10227POPC   C2B66212  29.131  15.672   6.753
10227POPC   C3B66213  29.155  15.717   7.053
10227POPC   C4B66214  29.159  15.690   7.353
10228POPC   NC366215  19.042  17.551   5.553
10228POPC   PO466216  19.023  17.498   5.853
10228POPC   GL166217  19.012  17.480   6.153
10228POPC   GL266218  19.082  17.404   6.153
10228POPC   C1A66219  19.062  17.507   6.453
10228POPC   D2A66220  19.045  17.504   6.753
10228POPC   C3A66221  19.014  17.458   7.053
10228POPC   C4A66222  19.043  17.547   7.353
10228POPC   C1B66223  19.125  17.264   6.453
10228POPC   C2B66224  19.111  17.235   6.753
10228POPC   C3B66225  19.060  17.216   7.053
10228POPC   C4B66226  19.066  17.233   7.353
10229POPC   NC366227  29.177  10.519   5.553
10229POPC   PO466228  29.183  10.501   5.853
10229POPC   GL166229  29.125  10.487   6.153
10229POPC   GL266230  29.288  10.465   6.153
10229POPC   C1A66231  29.153  10.571   6.453
10229POPC   D2A66232  29.170  10.513   6.753
10229POPC   C3A66233  29.177  10.542   7.053
10229POPC   C4A66234  29.180  10.479   7.353
10229POPC   C1B66235  29.411  10.489   6.453
10229POPC   C2B66236  29.353  10.429   6.753
10229POPC   C3B66237  29.406  10.496   7.053
10229POPC   C4B66238  29.370  10.476   7.353
10230POPC   NC366239  43.900   7.378   5.553
10230POPC   PO466240  43.925   7.418   5.853
10230POPC   GL166241  43.912   7.464   6.153
10230POPC   GL266242  44.053   7.446   6.153
10230POPC   C1A66243  43.869   7.371   6.453
10230POPC   D2A66244  43.923   7.449   6.753
10230POPC   C3A66245  43.880   7.413   7.053
10230POPC   C4A66246  43.861   7.414   7.353
10230POPC   C1B66247  44.159   7.494   6.453
10230POPC   C2B66248  44.115   7.470   6.753
10230POPC   C3B66249  44.154   7.504   7.053
10230POPC   C4B66250  44.165   7.475   7.353
10231POPC   NC366251  38.458  38.427   5.553
10231POPC   PO466252  38.489  38.449   5.853
10231POPC   GL166253  38.424  38.475   6.153
10231POPC   GL266254  38.461  38.333   6.153
10231POPC   C1A66255  38.501  38.454   6.453
10231POPC   D2A66256  38.457  38.484   6.753
10231POPC   C3A66257  38.483  38.471   7.053
10231POPC   C4A66258  38.423  38.454   7.353
10231POPC   C1B66259  38.438  38.212   6.453
10231POPC   C2B66260  38.417  38.180   6.753
10231POPC   C3B66261  38.447  38.229   7.053
10231POPC   C4B66262  38.469  38.251   7.353
10232POPC   NC366263  38.461  29.113   5.553
10232POPC   PO466264  38.428  29.156   5.853
10232POPC   GL166265  38.446  29.129   6.153
10232POPC   GL266266  38.466  29.251   6.153
10232POPC   C1A66267  38.493  29.104   6.453
10232POPC   D2A66268  38.414  29.147   6.753
10232POPC   C3A66269  38.481  29.157   7.053
10232POPC   C4A66270  38.472  29.104   7.353
10232POPC   C1B66271  38.391  29.351   6.453
10232POPC   C2B66272  38.375  29.422   6.753
10232POPC   C3B66273  38.392  29.362   7.053
10232POPC   C4B66274  38.416  29.378   7.353
10233POPC   NC366275   8.222   1.216   5.553
10233POPC   PO466276   8.174   1.196   5.853
10233POPC   GL166277   8.210   1.233   6.153
10233POPC   GL266278   8.117   1.315   6.153
10233POPC   C1A66279   8.199   1.245   6.453
10233POPC   D2A66280   8.234   1.259   6.753
10233POPC   C3A66281   8.177   1.240   7.053
10233POPC   C4A66282   8.213   1.168   7.353
10233POPC   C1B66283   8.046   1.381   6.453
10233POPC   C2B66284   8.049   1.409   6.753
10233POPC   C3B66285   8.027   1.443   7.053
10233POPC   C4B66286   8.069   1.415   7.353
10234POPC   NC366287  12.888   1.167   5.553
10234POPC   PO466288  12.805   1.164   5.853
10234POPC   GL166289  12.894   1.194   6.153
10234POPC   GL266290  12.990   1.210   6.153
10234POPC   C1A66291  12.826   1.207   6.453
10234POPC   D2A66292  12.850   1.182   6.753
10234POPC   C3A66293  12.897   1.203   7.053
10234POPC   C4A66294  12.840   1.196   7.353
10234POPC   C1B66295  13.069   1.184   6.453
10234POPC   C2B66296  13.118   1.162   6.753
10234POPC   C3B66297  13.045   1.131   7.053
10234POPC   C4B66298  13.088   1.158   7.353
10235POPC   NC366299  10.493  16.005   5.553
10235POPC   PO466300  10.493  15.942   5.853
10235POPC   GL166301  10.551  15.961   6.153
10235POPC   GL266302  10.408  16.082   6.153
10235POPC   C1A66303  10.515  15.952   6.453
10235POPC   D2A66304  10.494  15.991   6.753
10235POPC   C3A66305  10.519  15.979   7.053
10235POPC   C4A66306  10.559  15.915   7.353
10235POPC   C1B66307  10.361  16.129   6.453
10235POPC   C2B66308  10.332  16.108   6.753
10235POPC   C3B66309  10.338  16.121   7.053
10235POPC   C4B66310  10.334  16.177   7.353
10236POPC   NC366311  12.038  26.860   5.553
10236POPC   PO466312  12.047  26.769   5.853
10236POPC   GL166313  12.101  26.788   6.153
10236POPC   GL266314  12.189  26.837   6.153
10236POPC   C1A66315  12.118  26.848   6.453
10236POPC   D2A66316  12.115  26.785   6.753
10236POPC   C3A66317  12.121  26.824   7.053
10236POPC   C4A66318  12.052  26.819   7.353
10236POPC   C1B66319  12.305  26.879   6.453
10236POPC   C2B66320  12.287  26.966   6.753
10236POPC   C3B66321  12.314  26.944   7.053
10236POPC   C4B66322  12.300  26.910   7.353
10237POPC   NC366323  12.100  43.106   5.553
10237POPC   PO466324  12.056  43.124   5.853
10237POPC   GL166325  12.124  43.070   6.153
10237POPC   GL266326  12.221  43.150   6.153
10237POPC   C1A66327  12.092  43.064   6.453
10237POPC   D2A66328  12.123  43.074   6.753
10237POPC   C3A66329  12.121  43.148   7.053
10237POPC   C4A66330  12.058  43.116   7.353
10237POPC   C1B66331  12.283  43.175   6.453
10237POPC   C2B66332  12.282  43.245   6.753
10237POPC   C3B66333  12.332  43.216   7.053
10237POPC   C4B66334  12.254  43.192   7.353
10238POPC   NC366335  14.428  27.587   5.553
10238POPC   PO466336  14.408  27.567   5.853
10238POPC   GL166337  14.436  27.597   6.153
10238POPC   GL266338  14.297  27.606   6.153
10238POPC   C1A66339  14.439  27.641   6.453
10238POPC   D2A66340  14.401  27.635   6.753
10238POPC   C3A66341  14.394  27.550   7.053
10238POPC   C4A66342  14.423  27.640   7.353
10238POPC   C1B66343  14.105  27.586   6.453
10238POPC   C2B66344  14.139  27.578   6.753
10238POPC   C3B66345  14.116  27.648   7.053
10238POPC   C4B66346  14.123  27.551   7.353
10239POPC   NC366347  43.062  43.901   5.553
10239POPC   PO466348  43.136  43.866   5.853
10239POPC   GL166349  43.144  43.887   6.153
10239POPC   GL266350  43.153  44.002   6.153
10239POPC   C1A66351  43.105  43.878   6.453
10239POPC   D2A66352  43.160  43.879   6.753
10239POPC   C3A66353  43.114  43.862   7.053
10239POPC   C4A66354  43.064  43.882   7.353
10239POPC   C1B66355  43.158  44.144   6.453
10239POPC   C2B66356  43.194  44.108   6.753
10239POPC   C3B66357  43.133  44.144   7.053
10239POPC   C4B66358  43.195  44.142   7.353
10240POPC   NC366359  32.291  14.407   5.553
10240POPC   PO466360  32.296  14.437   5.853
10240POPC   GL166361  32.290  14.421   6.153
10240POPC   GL266362  32.351  14.317   6.153
10240POPC   C1A66363  32.293  14.398   6.453
10240POPC   D2A66364  32.293  14.430   6.753
10240POPC   C3A66365  32.220  14.410   7.053
10240POPC   C4A66366  32.278  14.382   7.353
10240POPC   C1B66367  32.440  14.288   6.453
10240POPC   C2B66368  32.432  14.237   6.753
10240POPC   C3B66369  32.439  14.250   7.053
10240POPC   C4B66370  32.435  14.311   7.353
10241POPC   NC366371  19.076  40.733   5.553
10241POPC   PO466372  19.098  40.749   5.853
10241POPC   GL166373  19.095  40.746   6.153
10241POPC   GL266374  18.940  40.870   6.153
10241POPC   C1A66375  19.095  40.740   6.453
10241POPC   D2A66376  19.011  40.824   6.753
10241POPC   C3A66377  19.031  40.784   7.053
10241POPC   C4A66378  19.106  40.790   7.353
10241POPC   C1B66379  18.885  40.931   6.453
10241POPC   C2B66380  18.847  40.951   6.753
10241POPC   C3B66381  18.831  40.923   7.053
10241POPC   C4B66382  18.873  40.951   7.353
10242POPC   NC366383  29.930  36.088   5.553
10242POPC   PO466384  29.948  36.117   5.853
10242POPC   GL166385  29.921  36.156   6.153
10242POPC   GL266386  29.827  36.092   6.153
10242POPC   C1A66387  29.943  36.130   6.453
10242POPC   D2A66388  29.948  36.101   6.753
10242POPC   C3A66389  29.954  36.154   7.053
10242POPC   C4A66390  29.911  36.129   7.353
10242POPC   C1B66391  29.689  36.029   6.453
10242POPC   C2B66392  29.681  36.048   6.753
10242POPC   C3B66393  29.716  36.018   7.053
10242POPC   C4B66394  29.673  36.069   7.353
10243POPC   NC366395   8.230   5.125   5.553
10243POPC   PO466396   8.206   5.133   5.853
10243POPC   GL166397   8.224   5.085   6.153
10243POPC   GL266398   8.092   5.025   6.153
10243POPC   C1A66399   8.181   5.133   6.453
10243POPC   D2A66400   8.222   5.086   6.753
10243POPC   C3A66401   8.170   5.070   7.053
10243POPC   C4A66402   8.152   5.104   7.353
10243POPC   C1B66403   8.008   4.919   6.453
10243POPC   C2B66404   7.957   4.951   6.753
10243POPC   C3B66405   7.961   4.955   7.053
10243POPC   C4B66406   7.955   4.977   7.353
10244POPC   NC366407  20.626  15.906   5.553
10244POPC   PO466408  20.645  15.988   5.853
10244POPC   GL166409  20.576  15.912   6.153
10244POPC   GL266410  20.604  15.782   6.153
10244POPC   C1A66411  20.607  15.977   6.453
10244POPC   D2A66412  20.644  15.917   6.753
10244POPC   C3A66413  20.654  15.990   7.053
10244POPC   C4A66414  20.607  15.913   7.353
10244POPC   C1B66415  20.634  15.717   6.453
10244POPC   C2B66416  20.673  15.677   6.753
10244POPC   C3B66417  20.653  15.704   7.053
10244POPC   C4B66418  20.659  15.677   7.353
10245POPC   NC366419  33.074  11.341   5.553
10245POPC   PO466420  33.063  11.333   5.853
10245POPC   GL166421  33.055  11.310   6.153
10245POPC   GL266422  32.929  11.199   6.153
10245POPC   C1A66423  33.031  11.338   6.453
10245POPC   D2A66424  33.070  11.342   6.753
10245POPC   C3A66425  33.051  11.301   7.053
10245POPC   C4A66426  33.001  11.297   7.353
10245POPC   C1B66427  32.823  11.105   6.453
10245POPC   C2B66428  32.778  11.124   6.753
10245POPC   C3B66429  32.811  11.174   7.053
10245POPC   C4B66430  32.778  11.137   7.353
10246POPC   NC366431  19.025   8.152   5.553
10246POPC   PO466432  19.018   8.225   5.853
10246POPC   GL166433  19.070   8.213   6.153
10246POPC   GL266434  19.035   8.097   6.153
10246POPC   C1A66435  19.081   8.153   6.453
10246POPC   D2A66436  19.034   8.173   6.753
10246POPC   C3A66437  19.034   8.163   7.053
10246POPC   C4A66438  19.098   8.169   7.353
10246POPC   C1B66439  18.898   8.019   6.453
10246POPC   C2B66440  18.914   7.959   6.753
10246POPC   C3B66441  18.917   7.960   7.053
10246POPC   C4B66442  18.910   7.951   7.353
10247POPC   NC366443  12.802  19.843   5.553
10247POPC   PO466444  12.889  19.828   5.853
10247POPC   GL166445  12.808  19.856   6.153
10247POPC   GL266446  12.709  19.875   6.153
10247POPC   C1A66447  12.807  19.872   6.453
10247POPC   D2A66448  12.857  19.801   6.753
10247POPC   C3A66449  12.820  19.844   7.053
10247POPC   C4A66450  12.836  19.842   7.353
10247POPC   C1B66451  12.603  19.888   6.453
10247POPC   C2B66452  12.647  19.937   6.753
10247POPC   C3B66453  12.602  19.959   7.053
10247POPC   C4B66454  12.669  19.888   7.353
10248POPC   NC366455  26.795  12.085   5.553
10248POPC   PO466456  26.798  12.096   5.853
10248POPC   GL166457  26.772  12.116   6.153
10248POPC   GL266458  26.668  12.093   6.153
10248POPC   C1A66459  26.816  12.030   6.453
10248POPC   D2A66460  26.793  12.036   6.753
10248POPC   C3A66461  26.806  12.063   7.053
10248POPC   C4A66462  26.782  12.087   7.353
10248POPC   C1B66463  26.632  12.154   6.453
10248POPC   C2B66464  26.622  12.244   6.753
10248POPC   C3B66465  26.619  12.165   7.053
10248POPC   C4B66466  26.568  12.191   7.353
10249POPC   NC366467  29.180   2.028   5.553
10249POPC   PO466468  29.171   1.980   5.853
10249POPC   GL166469  29.152   1.953   6.153
10249POPC   GL266470  29.221   1.848   6.153
10249POPC   C1A66471  29.110   1.993   6.453
10249POPC   D2A66472  29.136   1.971   6.753
10249POPC   C3A66473  29.190   2.015   7.053
10249POPC   C4A66474  29.164   1.979   7.353
10249POPC   C1B66475  29.267   1.705   6.453
10249POPC   C2B66476  29.208   1.773   6.753
10249POPC   C3B66477  29.250   1.708   7.053
10249POPC   C4B66478  29.206   1.717   7.353
10250POPC   NC366479  15.967  21.391   5.553
10250POPC   PO466480  15.957  21.386   5.853
10250POPC   GL166481  15.985  21.393   6.153
10250POPC   GL266482  15.967  21.275   6.153
10250POPC   C1A66483  15.971  21.417   6.453
10250POPC   D2A66484  15.965  21.367   6.753
10250POPC   C3A66485  15.910  21.434   7.053
10250POPC   C4A66486  15.967  21.425   7.353
10250POPC   C1B66487  16.079  21.123   6.453
10250POPC   C2B66488  16.060  21.127   6.753
10250POPC   C3B66489  16.034  21.168   7.053
10250POPC   C4B66490  16.051  21.127   7.353
10251POPC   NC366491   9.700  15.970   5.553
10251POPC   PO466492   9.713  15.995   5.853
10251POPC   GL166493   9.749  15.994   6.153
10251POPC   GL266494   9.620  15.902   6.153
10251POPC   C1A66495   9.771  15.915   6.453
10251POPC   D2A66496   9.741  15.921   6.753
10251POPC   C3A66497   9.779  15.922   7.053
10251POPC   C4A66498   9.782  15.968   7.353
10251POPC   C1B66499   9.531  15.858   6.453
10251POPC   C2B66500   9.504  15.928   6.753
10251POPC   C3B66501   9.538  15.929   7.053
10251POPC   C4B66502   9.516  15.927   7.353
10252POPC   NC366503   0.469  36.102   5.553
10252POPC   PO466504   0.449  36.145   5.853
10252POPC   GL166505   0.399  36.177   6.153
10252POPC   GL266506   0.513  36.081   6.153
10252POPC   C1A66507   0.390  36.105   6.453
10252POPC   D2A66508   0.448  36.145   6.753
10252POPC   C3A66509   0.402  36.080   7.053
10252POPC   C4A66510   0.409  36.156   7.353
10252POPC   C1B66511   0.690  36.037   6.453
10252POPC   C2B66512   0.674  36.029   6.753
10252POPC   C3B66513   0.674  36.050   7.053
10252POPC   C4B66514   0.703  36.076   7.353
10253POPC   NC366515  21.436  16.692   5.553
10253POPC   PO466516  21.342  16.749   5.853
10253POPC   GL166517  21.397  16.780   6.153
10253POPC   GL266518  21.333  16.606   6.153
10253POPC   C1A66519  21.348  16.712   6.453
10253POPC   D2A66520  21.403  16.725   6.753
10253POPC   C3A66521  21.373  16.778   7.053
10253POPC   C4A66522  21.336  16.736   7.353
10253POPC   C1B66523  21.293  16.518   6.453
10253POPC   C2B66524  21.268  16.488   6.753
10253POPC   C3B66525  21.244  16.549   7.053
10253POPC   C4B66526  21.270  16.457   7.353
10254POPC   NC366527  43.842  41.567   5.553
10254POPC   PO466528  43.926  41.522   5.853
10254POPC   GL166529  43.846  41.574   6.153
10254POPC   GL266530  44.048  41.625   6.153
10254POPC   C1A66531  43.855  41.578   6.453
10254POPC   D2A66532  43.916  41.591   6.753
10254POPC   C3A66533  43.838  41.590   7.053
10254POPC   C4A66534  43.885  41.572   7.353
10254POPC   C1B66535  44.094  41.664   6.453
10254POPC   C2B66536  44.123  41.661   6.753
10254POPC   C3B66537  44.126  41.682   7.053
10254POPC   C4B66538  44.130  41.624   7.353
10255POPC   NC366539  11.338  28.336   5.553
10255POPC   PO466540  11.345  28.339   5.853
10255POPC   GL166541  11.326  28.333   6.153
10255POPC   GL266542  11.410  28.426   6.153
10255POPC   C1A66543  11.321  28.415   6.453
10255POPC   D2A66544  11.290  28.366   6.753
10255POPC   C3A66545  11.325  28.349   7.053
10255POPC   C4A66546  11.295  28.376   7.353
10255POPC   C1B66547  11.457  28.570   6.453
10255POPC   C2B66548  11.414  28.514   6.753
10255POPC   C3B66549  11.413  28.568   7.053
10255POPC   C4B66550  11.483  28.569   7.353
10256POPC   NC366551  19.024  11.300   5.553
10256POPC   PO466552  19.100  11.292   5.853
10256POPC   GL166553  19.031  11.347   6.153
10256POPC   GL266554  18.952  11.400   6.153
10256POPC   C1A66555  19.092  11.334   6.453
10256POPC   D2A66556  19.098  11.315   6.753
10256POPC   C3A66557  19.032  11.329   7.053
10256POPC   C4A66558  19.053  11.292   7.353
10256POPC   C1B66559  18.864  11.519   6.453
10256POPC   C2B66560  18.936  11.542   6.753
10256POPC   C3B66561  18.943  11.528   7.053
10256POPC   C4B66562  18.924  11.471   7.353
10257POPC   NC366563   3.541  19.871   5.553
10257POPC   PO466564   3.538  19.880   5.853
10257POPC   GL166565   3.517  19.832   6.153
10257POPC   GL266566   3.508  19.994   6.153
10257POPC   C1A66567   3.557  19.792   6.453
10257POPC   D2A66568   3.591  19.788   6.753
10257POPC   C3A66569   3.503  19.831   7.053
10257POPC   C4A66570   3.502  19.792   7.353
10257POPC   C1B66571   3.419  20.092   6.453
10257POPC   C2B66572   3.440  20.072   6.753
10257POPC   C3B66573   3.500  20.075   7.053
10257POPC   C4B66574   3.432  20.100   7.353
10258POPC   NC366575   1.189   5.046   5.553
10258POPC   PO466576   1.208   5.079   5.853
10258POPC   GL166577   1.226   5.074   6.153
10258POPC   GL266578   1.058   5.171   6.153
10258POPC   C1A66579   1.233   5.111   6.453
10258POPC   D2A66580   1.231   5.064   6.753
10258POPC   C3A66581   1.262   5.107   7.053
10258POPC   C4A66582   1.233   5.072   7.353
10258POPC   C1B66583   0.977   5.139   6.453
10258POPC   C2B66584   0.948   5.172   6.753
10258POPC   C3B66585   0.990   5.141   7.053
10258POPC   C4B66586   0.978   5.231   7.353
10259POPC   NC366587  43.061  22.984   5.553
10259POPC   PO466588  43.119  22.986   5.853
10259POPC   GL166589  43.082  22.902   6.153
10259POPC   GL266590  43.239  22.918   6.153
10259POPC   C1A66591  43.090  22.900   6.453
10259POPC   D2A66592  43.114  22.972   6.753
10259POPC   C3A66593  43.092  22.977   7.053
10259POPC   C4A66594  43.103  22.960   7.353
10259POPC   C1B66595  43.328  22.804   6.453
10259POPC   C2B66596  43.357  22.838   6.753
10259POPC   C3B66597  43.325  22.801   7.053
10259POPC   C4B66598  43.364  22.877   7.353
10260POPC   NC366599  26.847   2.743   5.553
10260POPC   PO466600  26.773   2.719   5.853
10260POPC   GL166601  26.792   2.794   6.153
10260POPC   GL266602  26.660   2.822   6.153
10260POPC   C1A66603  26.820   2.725   6.453
10260POPC   D2A66604  26.857   2.717   6.753
10260POPC   C3A66605  26.802   2.720   7.053
10260POPC   C4A66606  26.842   2.721   7.353
10260POPC   C1B66607  26.569   2.911   6.453
10260POPC   C2B66608  26.639   2.855   6.753
10260POPC   C3B66609  26.622   2.876   7.053
10260POPC   C4B66610  26.596   2.869   7.353
10261POPC   NC366611  22.966  26.067   5.553
10261POPC   PO466612  22.903  26.038   5.853
10261POPC   GL166613  22.892  26.043   6.153
10261POPC   GL266614  23.095  26.041   6.153
10261POPC   C1A66615  22.932  26.013   6.453
10261POPC   D2A66616  22.950  26.018   6.753
10261POPC   C3A66617  22.899  26.013   7.053
10261POPC   C4A66618  22.948  26.023   7.353
10261POPC   C1B66619  23.150  26.114   6.453
10261POPC   C2B66620  23.214  26.130   6.753
10261POPC   C3B66621  23.222  26.090   7.053
10261POPC   C4B66622  23.199  26.174   7.353
10262POPC   NC366623   8.982  39.208   5.553
10262POPC   PO466624   9.001  39.212   5.853
10262POPC   GL166625   8.970  39.225   6.153
10262POPC   GL266626   9.123  39.329   6.153
10262POPC   C1A66627   8.965  39.211   6.453
10262POPC   D2A66628   8.950  39.240   6.753
10262POPC   C3A66629   9.001  39.202   7.053
10262POPC   C4A66630   8.951  39.245   7.353
10262POPC   C1B66631   9.238  39.315   6.453
10262POPC   C2B66632   9.195  39.379   6.753
10262POPC   C3B66633   9.186  39.287   7.053
10262POPC   C4B66634   9.185  39.348   7.353
10263POPC   NC366635   8.204  43.845   5.553
10263POPC   PO466636   8.214  43.894   5.853
10263POPC   GL166637   8.213  43.866   6.153
10263POPC   GL266638   8.113  44.000   6.153
10263POPC   C1A66639   8.234  43.911   6.453
10263POPC   D2A66640   8.202  43.910   6.753
10263POPC   C3A66641   8.214  43.876   7.053
10263POPC   C4A66642   8.224  43.908   7.353
10263POPC   C1B66643   7.979  44.010   6.453
10263POPC   C2B66644   7.973  43.979   6.753
10263POPC   C3B66645   7.993  44.017   7.053
10263POPC   C4B66646   7.967  44.049   7.353
10264POPC   NC366647  31.519  38.455   5.553
10264POPC   PO466648  31.520  38.503   5.853
10264POPC   GL166649  31.492  38.486   6.153
10264POPC   GL266650  31.327  38.516   6.153
10264POPC   C1A66651  31.500  38.452   6.453
10264POPC   D2A66652  31.483  38.504   6.753
10264POPC   C3A66653  31.435  38.498   7.053
10264POPC   C4A66654  31.482  38.468   7.353
10264POPC   C1B66655  31.280  38.473   6.453
10264POPC   C2B66656  31.265  38.468   6.753
10264POPC   C3B66657  31.180  38.528   7.053
10264POPC   C4B66658  31.262  38.520   7.353
10265POPC   NC366659  20.563   6.664   5.553
10265POPC   PO466660  20.652   6.679   5.853
10265POPC   GL166661  20.610   6.687   6.153
10265POPC   GL266662  20.763   6.578   6.153
10265POPC   C1A66663  20.612   6.666   6.453
10265POPC   D2A66664  20.633   6.623   6.753
10265POPC   C3A66665  20.566   6.649   7.053
10265POPC   C4A66666  20.594   6.598   7.353
10265POPC   C1B66667  20.888   6.604   6.453
10265POPC   C2B66668  20.892   6.547   6.753
10265POPC   C3B66669  20.892   6.607   7.053
10265POPC   C4B66670  20.895   6.616   7.353
10266POPC   NC366671   2.719  19.881   5.553
10266POPC   PO466672   2.748  19.835   5.853
10266POPC   GL166673   2.809  19.814   6.153
10266POPC   GL266674   2.686  19.799   6.153
10266POPC   C1A66675   2.756  19.802   6.453
10266POPC   D2A66676   2.778  19.838   6.753
10266POPC   C3A66677   2.754  19.804   7.053
10266POPC   C4A66678   2.746  19.881   7.353
10266POPC   C1B66679   2.516  19.852   6.453
10266POPC   C2B66680   2.489  19.791   6.753
10266POPC   C3B66681   2.495  19.825   7.053
10266POPC   C4B66682   2.551  19.818   7.353
10267POPC   NC366683  17.496   5.099   5.553
10267POPC   PO466684  17.498   5.141   5.853
10267POPC   GL166685  17.476   5.073   6.153
10267POPC   GL266686  17.505   4.936   6.153
10267POPC   C1A66687  17.531   5.091   6.453
10267POPC   D2A66688  17.474   5.099   6.753
10267POPC   C3A66689  17.497   5.112   7.053
10267POPC   C4A66690  17.486   5.129   7.353
10267POPC   C1B66691  17.514   4.887   6.453
10267POPC   C2B66692  17.538   4.816   6.753
10267POPC   C3B66693  17.499   4.872   7.053
10267POPC   C4B66694  17.517   4.807   7.353
10268POPC   NC366695  36.136   2.729   5.553
10268POPC   PO466696  36.109   2.736   5.853
10268POPC   GL166697  36.092   2.726   6.153
10268POPC   GL266698  36.093   2.649   6.153
10268POPC   C1A66699  36.158   2.807   6.453
10268POPC   D2A66700  36.147   2.797   6.753
10268POPC   C3A66701  36.153   2.796   7.053
10268POPC   C4A66702  36.115   2.732   7.353
10268POPC   C1B66703  36.110   2.488   6.453
10268POPC   C2B66704  36.057   2.480   6.753
10268POPC   C3B66705  36.080   2.490   7.053
10268POPC   C4B66706  36.136   2.559   7.353
10269POPC   NC366707  29.928  26.009   5.553
10269POPC   PO466708  29.949  26.007   5.853
10269POPC   GL166709  29.937  26.044   6.153
10269POPC   GL266710  30.031  26.047   6.153
10269POPC   C1A66711  29.898  26.002   6.453
10269POPC   D2A66712  29.893  26.069   6.753
10269POPC   C3A66713  29.891  26.063   7.053
10269POPC   C4A66714  29.899  26.065   7.353
10269POPC   C1B66715  30.098  26.100   6.453
10269POPC   C2B66716  30.135  26.192   6.753
10269POPC   C3B66717  30.104  26.195   7.053
10269POPC   C4B66718  30.153  26.120   7.353
10270POPC   NC366719  36.111  29.912   5.553
10270POPC   PO466720  36.081  29.889   5.853
10270POPC   GL166721  36.176  29.901   6.153
10270POPC   GL266722  36.132  29.993   6.153
10270POPC   C1A66723  36.093  29.921   6.453
10270POPC   D2A66724  36.078  29.913   6.753
10270POPC   C3A66725  36.120  29.952   7.053
10270POPC   C4A66726  36.153  29.931   7.353
10270POPC   C1B66727  36.275  30.162   6.453
10270POPC   C2B66728  36.242  30.167   6.753
10270POPC   C3B66729  36.258  30.142   7.053
10270POPC   C4B66730  36.259  30.128   7.353
10271POPC   NC366731   8.985  33.018   5.553
10271POPC   PO466732   8.981  32.978   5.853
10271POPC   GL166733   8.952  33.050   6.153
10271POPC   GL266734   9.040  32.878   6.153
10271POPC   C1A66735   8.981  33.021   6.453
10271POPC   D2A66736   8.986  32.997   6.753
10271POPC   C3A66737   8.975  33.013   7.053
10271POPC   C4A66738   8.990  33.046   7.353
10271POPC   C1B66739   9.107  32.769   6.453
10271POPC   C2B66740   9.125  32.829   6.753
10271POPC   C3B66741   9.084  32.795   7.053
10271POPC   C4B66742   9.130  32.784   7.353
10272POPC   NC366743  29.161  36.078   5.553
10272POPC   PO466744  29.128  36.100   5.853
10272POPC   GL166745  29.148  36.159   6.153
10272POPC   GL266746  29.053  36.019   6.153
10272POPC   C1A66747  29.167  36.083   6.453
10272POPC   D2A66748  29.155  36.117   6.753
10272POPC   C3A66749  29.112  36.161   7.053
10272POPC   C4A66750  29.144  36.081   7.353
10272POPC   C1B66751  29.037  35.956   6.453
10272POPC   C2B66752  29.026  35.951   6.753
10272POPC   C3B66753  28.952  35.911   7.053
10272POPC   C4B66754  29.031  35.961   7.353
10273POPC   NC366755  20.629  24.463   5.553
10273POPC   PO466756  20.618  24.486   5.853
10273POPC   GL166757  20.576  24.447   6.153
10273POPC   GL266758  20.722  24.590   6.153
10273POPC   C1A66759  20.635  24.497   6.453
10273POPC   D2A66760  20.564  24.476   6.753
10273POPC   C3A66761  20.604  24.442   7.053
10273POPC   C4A66762  20.561  24.500   7.353
10273POPC   C1B66763  20.808  24.719   6.453
10273POPC   C2B66764  20.726  24.695   6.753
10273POPC   C3B66765  20.749  24.723   7.053
10273POPC   C4B66766  20.743  24.635   7.353
10274POPC   NC366767   4.287  31.444   5.553
10274POPC   PO466768   4.332  31.455   5.853
10274POPC   GL166769   4.365  31.479   6.153
10274POPC   GL266770   4.293  31.556   6.153
10274POPC   C1A66771   4.288  31.521   6.453
10274POPC   D2A66772   4.269  31.482   6.753
10274POPC   C3A66773   4.307  31.508   7.053
10274POPC   C4A66774   4.302  31.425   7.353
10274POPC   C1B66775   4.333  31.735   6.453
10274POPC   C2B66776   4.372  31.760   6.753
10274POPC   C3B66777   4.299  31.755   7.053
10274POPC   C4B66778   4.342  31.739   7.353
10275POPC   NC366779  10.527   0.453   5.553
10275POPC   PO466780  10.490   0.455   5.853
10275POPC   GL166781  10.482   0.443   6.153
10275POPC   GL266782  10.441   0.511   6.153
10275POPC   C1A66783  10.514   0.465   6.453
10275POPC   D2A66784  10.517   0.447   6.753
10275POPC   C3A66785  10.541   0.468   7.053
10275POPC   C4A66786  10.527   0.397   7.353
10275POPC   C1B66787  10.298   0.540   6.453
10275POPC   C2B66788  10.353   0.561   6.753
10275POPC   C3B66789  10.269   0.561   7.053
10275POPC   C4B66790  10.318   0.545   7.353
10276POPC   NC366791  39.978  34.616   5.553
10276POPC   PO466792  40.015  34.601   5.853
10276POPC   GL166793  39.961  34.528   6.153
10276POPC   GL266794  40.121  34.649   6.153
10276POPC   C1A66795  40.023  34.623   6.453
10276POPC   D2A66796  40.053  34.600   6.753
10276POPC   C3A66797  40.046  34.612   7.053
10276POPC   C4A66798  40.044  34.552   7.353
10276POPC   C1B66799  40.143  34.765   6.453
10276POPC   C2B66800  40.225  34.753   6.753
10276POPC   C3B66801  40.220  34.785   7.053
10276POPC   C4B66802  40.239  34.700   7.353
10277POPC   NC366803  25.306  31.500   5.553
10277POPC   PO466804  25.298  31.423   5.853
10277POPC   GL166805  25.288  31.488   6.153
10277POPC   GL266806  25.118  31.481   6.153
10277POPC   C1A66807  25.271  31.488   6.453
10277POPC   D2A66808  25.226  31.491   6.753
10277POPC   C3A66809  25.233  31.502   7.053
10277POPC   C4A66810  25.236  31.458   7.353
10277POPC   C1B66811  25.025  31.566   6.453
10277POPC   C2B66812  25.019  31.626   6.753
10277POPC   C3B66813  25.025  31.563   7.053
10277POPC   C4B66814  25.020  31.589   7.353
10278POPC   NC366815  29.176   4.299   5.553
10278POPC   PO466816  29.187   4.365   5.853
10278POPC   GL166817  29.135   4.271   6.153
10278POPC   GL266818  29.087   4.164   6.153
10278POPC   C1A66819  29.100   4.320   6.453
10278POPC   D2A66820  29.161   4.288   6.753
10278POPC   C3A66821  29.167   4.347   7.053
10278POPC   C4A66822  29.096   4.328   7.353
10278POPC   C1B66823  29.063   4.102   6.453
10278POPC   C2B66824  29.068   4.139   6.753
10278POPC   C3B66825  29.040   4.107   7.053
10278POPC   C4B66826  29.018   4.070   7.353
10279POPC   NC366827  41.605  29.096   5.553
10279POPC   PO466828  41.514  29.151   5.853
10279POPC   GL166829  41.571  29.180   6.153
10279POPC   GL266830  41.658  29.117   6.153
10279POPC   C1A66831  41.526  29.175   6.453
10279POPC   D2A66832  41.560  29.186   6.753
10279POPC   C3A66833  41.568  29.139   7.053
10279POPC   C4A66834  41.558  29.178   7.353
10279POPC   C1B66835  41.789  29.034   6.453
10279POPC   C2B66836  41.721  29.039   6.753
10279POPC   C3B66837  41.753  29.036   7.053
10279POPC   C4B66838  41.717  29.010   7.353
10280POPC   NC366839  10.536  19.836   5.553
10280POPC   PO466840  10.528  19.867   5.853
10280POPC   GL166841  10.475  19.835   6.153
10280POPC   GL266842  10.587  19.915   6.153
10280POPC   C1A66843  10.566  19.860   6.453
10280POPC   D2A66844  10.551  19.806   6.753
10280POPC   C3A66845  10.499  19.828   7.053
10280POPC   C4A66846  10.504  19.816   7.353
10280POPC   C1B66847  10.582  20.031   6.453
10280POPC   C2B66848  10.569  20.118   6.753
10280POPC   C3B66849  10.607  20.057   7.053
10280POPC   C4B66850  10.639  20.033   7.353
10281POPC   NC366851  12.806  29.885   5.553
10281POPC   PO466852  12.881  29.942   5.853
10281POPC   GL166853  12.853  29.938   6.153
10281POPC   GL266854  12.820  29.768   6.153
10281POPC   C1A66855  12.820  29.906   6.453
10281POPC   D2A66856  12.886  29.930   6.753
10281POPC   C3A66857  12.825  29.961   7.053
10281POPC   C4A66858  12.898  29.961   7.353
10281POPC   C1B66859  12.865  29.669   6.453
10281POPC   C2B66860  12.853  29.657   6.753
10281POPC   C3B66861  12.865  29.673   7.053
10281POPC   C4B66862  12.803  29.688   7.353
10282POPC   NC366863  26.864  22.163   5.553
10282POPC   PO466864  26.783  22.184   5.853
10282POPC   GL166865  26.787  22.141   6.153
10282POPC   GL266866  26.949  22.251   6.153
10282POPC   C1A66867  26.820  22.152   6.453
10282POPC   D2A66868  26.792  22.153   6.753
10282POPC   C3A66869  26.826  22.130   7.053
10282POPC   C4A66870  26.810  22.124   7.353
10282POPC   C1B66871  27.058  22.295   6.453
10282POPC   C2B66872  27.075  22.241   6.753
10282POPC   C3B66873  27.056  22.238   7.053
10282POPC   C4B66874  27.066  22.233   7.353
10283POPC   NC366875  22.211  15.958   5.553
10283POPC   PO466876  22.198  15.998   5.853
10283POPC   GL166877  22.128  15.924   6.153
10283POPC   GL266878  22.242  15.987   6.153
10283POPC   C1A66879  22.154  15.907   6.453
10283POPC   D2A66880  22.178  15.994   6.753
10283POPC   C3A66881  22.191  15.910   7.053
10283POPC   C4A66882  22.154  15.973   7.353
10283POPC   C1B66883  22.416  15.967   6.453
10283POPC   C2B66884  22.397  15.927   6.753
10283POPC   C3B66885  22.437  15.969   7.053
10283POPC   C4B66886  22.445  15.982   7.353
10284POPC   NC366887  31.513  15.220   5.553
10284POPC   PO466888  31.510  15.153   5.853
10284POPC   GL166889  31.518  15.153   6.153
10284POPC   GL266890  31.496  15.318   6.153
10284POPC   C1A66891  31.467  15.177   6.453
10284POPC   D2A66892  31.499  15.133   6.753
10284POPC   C3A66893  31.491  15.148   7.053
10284POPC   C4A66894  31.451  15.219   7.353
10284POPC   C1B66895  31.547  15.466   6.453
10284POPC   C2B66896  31.531  15.441   6.753
10284POPC   C3B66897  31.506  15.374   7.053
10284POPC   C4B66898  31.555  15.434   7.353
10285POPC   NC366899  43.148   2.030   5.553
10285POPC   PO466900  43.093   1.959   5.853
10285POPC   GL166901  43.070   1.973   6.153
10285POPC   GL266902  42.942   2.053   6.153
10285POPC   C1A66903  43.132   1.961   6.453
10285POPC   D2A66904  43.062   2.006   6.753
10285POPC   C3A66905  43.108   1.999   7.053
10285POPC   C4A66906  43.116   1.961   7.353
10285POPC   C1B66907  42.860   2.069   6.453
10285POPC   C2B66908  42.841   2.016   6.753
10285POPC   C3B66909  42.840   2.094   7.053
10285POPC   C4B66910  42.891   2.045   7.353
10286POPC   NC366911  22.173  27.620   5.553
10286POPC   PO466912  22.204  27.582   5.853
10286POPC   GL166913  22.198  27.568   6.153
10286POPC   GL266914  22.143  27.686   6.153
10286POPC   C1A66915  22.179  27.629   6.453
10286POPC   D2A66916  22.151  27.561   6.753
10286POPC   C3A66917  22.172  27.580   7.053
10286POPC   C4A66918  22.197  27.619   7.353
10286POPC   C1B66919  21.984  27.835   6.453
10286POPC   C2B66920  22.000  27.778   6.753
10286POPC   C3B66921  22.014  27.795   7.053
10286POPC   C4B66922  22.073  27.789   7.353
10287POPC   NC366923  29.886  12.895   5.553
10287POPC   PO466924  29.965  12.872   5.853
10287POPC   GL166925  29.904  12.821   6.153
10287POPC   GL266926  29.889  12.740   6.153
10287POPC   C1A66927  29.883  12.813   6.453
10287POPC   D2A66928  29.907  12.846   6.753
10287POPC   C3A66929  29.910  12.817   7.053
10287POPC   C4A66930  29.916  12.848   7.353
10287POPC   C1B66931  29.856  12.660   6.453
10287POPC   C2B66932  29.899  12.651   6.753
10287POPC   C3B66933  29.821  12.611   7.053
10287POPC   C4B66934  29.829  12.599   7.353
10288POPC   NC366935  15.988  36.138   5.553
10288POPC   PO466936  15.981  36.175   5.853
10288POPC   GL166937  15.915  36.116   6.153
10288POPC   GL266938  16.057  36.003   6.153
10288POPC   C1A66939  15.952  36.092   6.453
10288POPC   D2A66940  15.969  36.083   6.753
10288POPC   C3A66941  15.912  36.104   7.053
10288POPC   C4A66942  15.970  36.126   7.353
10288POPC   C1B66943  16.116  35.899   6.453
10288POPC   C2B66944  16.121  35.943   6.753
10288POPC   C3B66945  16.070  35.929   7.053
10288POPC   C4B66946  16.162  35.905   7.353
10289POPC   NC366947  33.784  36.907   5.553
10289POPC   PO466948  33.772  36.877   5.853
10289POPC   GL166949  33.775  36.910   6.153
10289POPC   GL266950  33.886  36.855   6.153
10289POPC   C1A66951  33.781  36.950   6.453
10289POPC   D2A66952  33.814  36.889   6.753
10289POPC   C3A66953  33.816  36.862   7.053
10289POPC   C4A66954  33.767  36.929   7.353
10289POPC   C1B66955  33.943  36.717   6.453
10289POPC   C2B66956  33.929  36.708   6.753
10289POPC   C3B66957  33.956  36.690   7.053
10289POPC   C4B66958  33.936  36.719   7.353
10290POPC   NC366959  15.200  37.657   5.553
10290POPC   PO466960  15.154  37.639   5.853
10290POPC   GL166961  15.161  37.715   6.153
10290POPC   GL266962  15.073  37.740   6.153
10290POPC   C1A66963  15.220  37.688   6.453
10290POPC   D2A66964  15.186  37.648   6.753
10290POPC   C3A66965  15.214  37.711   7.053
10290POPC   C4A66966  15.175  37.719   7.353
10290POPC   C1B66967  14.946  37.885   6.453
10290POPC   C2B66968  14.975  37.842   6.753
10290POPC   C3B66969  15.023  37.846   7.053
10290POPC   C4B66970  14.974  37.817   7.353
10291POPC   NC366971  25.283  33.070   5.553
10291POPC   PO466972  25.268  33.022   5.853
10291POPC   GL166973  25.259  32.997   6.153
10291POPC   GL266974  25.187  33.101   6.153
10291POPC   C1A66975  25.284  33.068   6.453
10291POPC   D2A66976  25.305  33.044   6.753
10291POPC   C3A66977  25.227  33.041   7.053
10291POPC   C4A66978  25.283  33.040   7.353
10291POPC   C1B66979  25.051  33.102   6.453
10291POPC   C2B66980  25.037  33.141   6.753
10291POPC   C3B66981  25.006  33.059   7.053
10291POPC   C4B66982  25.027  33.105   7.353
10292POPC   NC366983   8.191   2.023   5.553
10292POPC   PO466984   8.183   1.966   5.853
10292POPC   GL166985   8.176   1.948   6.153
10292POPC   GL266986   8.127   2.064   6.153
10292POPC   C1A66987   8.167   1.982   6.453
10292POPC   D2A66988   8.238   1.986   6.753
10292POPC   C3A66989   8.166   1.974   7.053
10292POPC   C4A66990   8.230   1.982   7.353
10292POPC   C1B66991   8.055   2.168   6.453
10292POPC   C2B66992   8.081   2.163   6.753
10292POPC   C3B66993   8.016   2.166   7.053
10292POPC   C4B66994   8.033   2.196   7.353
10293POPC   NC366995  39.966  32.293   5.553
10293POPC   PO466996  40.025  32.221   5.853
10293POPC   GL166997  40.028  32.278   6.153
10293POPC   GL266998  39.966  32.312   6.153
10293POPC   C1A66999  40.045  32.296   6.453
10293POPC   D2A67000  40.027  32.200   6.753
10293POPC   C3A67001  39.973  32.242   7.053
10293POPC   C4A67002  40.033  32.283   7.353
10293POPC   C1B67003  39.842  32.474   6.453
10293POPC   C2B67004  39.884  32.408   6.753
10293POPC   C3B67005  39.795  32.387   7.053
10293POPC   C4B67006  39.804  32.405   7.353
10294POPC   NC367007   5.142  12.077   5.553
10294POPC   PO467008   5.080  12.073   5.853
10294POPC   GL167009   5.064  12.074   6.153
10294POPC   GL267010   4.965  11.998   6.153
10294POPC   C1A67011   5.058  12.063   6.453
10294POPC   D2A67012   5.090  12.061   6.753
10294POPC   C3A67013   5.125  12.028   7.053
10294POPC   C4A67014   5.105  12.113   7.353
10294POPC   C1B67015   4.920  11.881   6.453
10294POPC   C2B67016   4.935  11.911   6.753
10294POPC   C3B67017   4.870  11.964   7.053
10294POPC   C4B67018   4.882  11.950   7.353
10295POPC   NC367019  37.672   8.218   5.553
10295POPC   PO467020  37.666   8.164   5.853
10295POPC   GL167021  37.641   8.184   6.153
10295POPC   GL267022  37.695   8.112   6.153
10295POPC   C1A67023  37.661   8.212   6.453
10295POPC   D2A67024  37.688   8.182   6.753
10295POPC   C3A67025  37.682   8.199   7.053
10295POPC   C4A67026  37.703   8.192   7.353
10295POPC   C1B67027  37.748   7.960   6.453
10295POPC   C2B67028  37.699   7.943   6.753
10295POPC   C3B67029  37.700   7.926   7.053
10295POPC   C4B67030  37.766   7.927   7.353
10296POPC   NC367031   4.311  21.395   5.553
10296POPC   PO467032   4.356  21.420   5.853
10296POPC   GL167033   4.270  21.418   6.153
10296POPC   GL267034   4.231  21.330   6.153
10296POPC   C1A67035   4.287  21.408   6.453
10296POPC   D2A67036   4.310  21.413   6.753
10296POPC   C3A67037   4.308  21.403   7.053
10296POPC   C4A67038   4.283  21.359   7.353
10296POPC   C1B67039   4.212  21.191   6.453
10296POPC   C2B67040   4.218  21.165   6.753
10296POPC   C3B67041   4.171  21.147   7.053
10296POPC   C4B67042   4.196  21.180   7.353
10297POPC   NC367043  12.055  40.780   5.553
10297POPC   PO467044  12.093  40.829   5.853
10297POPC   GL167045  12.080  40.785   6.153
10297POPC   GL267046  12.032  40.915   6.153
10297POPC   C1A67047  12.050  40.772   6.453
10297POPC   D2A67048  12.059  40.774   6.753
10297POPC   C3A67049  12.098  40.791   7.053
10297POPC   C4A67050  12.035  40.774   7.353
10297POPC   C1B67051  12.038  41.038   6.453
10297POPC   C2B67052  12.030  41.031   6.753
10297POPC   C3B67053  11.947  41.025   7.053
10297POPC   C4B67054  12.030  41.007   7.353
10298POPC   NC367055  15.970  11.312   5.553
10298POPC   PO467056  15.972  11.300   5.853
10298POPC   GL167057  15.915  11.284   6.153
10298POPC   GL267058  16.042  11.195   6.153
10298POPC   C1A67059  15.916  11.336   6.453
10298POPC   D2A67060  15.943  11.261   6.753
10298POPC   C3A67061  15.925  11.341   7.053
10298POPC   C4A67062  16.002  11.325   7.353
10298POPC   C1B67063  16.020  11.049   6.453
10298POPC   C2B67064  16.026  11.081   6.753
10298POPC   C3B67065  16.071  11.053   7.053
10298POPC   C4B67066  16.065  11.097   7.353
10299POPC   NC367067  33.849  17.542   5.553
10299POPC   PO467068  33.799  17.553   5.853
10299POPC   GL167069  33.806  17.516   6.153
10299POPC   GL267070  33.681  17.468   6.153
10299POPC   C1A67071  33.785  17.545   6.453
10299POPC   D2A67072  33.814  17.524   6.753
10299POPC   C3A67073  33.753  17.554   7.053
10299POPC   C4A67074  33.774  17.547   7.353
10299POPC   C1B67075  33.539  17.504   6.453
10299POPC   C2B67076  33.566  17.445   6.753
10299POPC   C3B67077  33.549  17.457   7.053
10299POPC   C4B67078  33.581  17.500   7.353
10300POPC   NC367079  37.709  39.196   5.553
10300POPC   PO467080  37.710  39.254   5.853
10300POPC   GL167081  37.645  39.182   6.153
10300POPC   GL267082  37.718  39.386   6.153
10300POPC   C1A67083  37.706  39.265   6.453
10300POPC   D2A67084  37.637  39.250   6.753
10300POPC   C3A67085  37.679  39.274   7.053
10300POPC   C4A67086  37.722  39.189   7.353
10300POPC   C1B67087  37.793  39.474   6.453
10300POPC   C2B67088  37.775  39.501   6.753
10300POPC   C3B67089  37.742  39.500   7.053
10300POPC   C4B67090  37.824  39.458   7.353
10301POPC   NC367091  26.016  18.313   5.553
10301POPC   PO467092  26.045  18.283   5.853
10301POPC   GL167093  26.013  18.253   6.153
10301POPC   GL267094  25.931  18.315   6.153
10301POPC   C1A67095  26.034  18.239   6.453
10301POPC   D2A67096  26.090  18.305   6.753
10301POPC   C3A67097  26.047  18.282   7.053
10301POPC   C4A67098  26.020  18.242   7.353
10301POPC   C1B67099  25.757  18.304   6.453
10301POPC   C2B67100  25.780  18.263   6.753
10301POPC   C3B67101  25.830  18.267   7.053
10301POPC   C4B67102  25.833  18.220   7.353
10302POPC   NC367103  27.584  44.659   5.553
10302POPC   PO467104  27.558  44.654   5.853
10302POPC   GL167105  27.626  44.697   6.153
10302POPC   GL267106  27.628  44.813   6.153
10302POPC   C1A67107  27.603  44.613   6.453
10302POPC   D2A67108  27.598  44.624   6.753
10302POPC   C3A67109  27.630  44.699   7.053
10302POPC   C4A67110  27.558  44.687   7.353
10302POPC   C1B67111  27.715  44.911   6.453
10302POPC   C2B67112  27.629  44.910   6.753
10302POPC   C3B67113  27.712  44.939   7.053
10302POPC   C4B67114  27.635  44.909   7.353
10303POPC   NC367115   8.965  24.455   5.553
10303POPC   PO467116   9.011  24.511   5.853
10303POPC   GL167117   8.937  24.534   6.153
10303POPC   GL267118   8.896  24.494   6.153
10303POPC   C1A67119   8.934  24.486   6.453
10303POPC   D2A67120   8.953  24.513   6.753
10303POPC   C3A67121   9.014  24.454   7.053
10303POPC   C4A67122   8.984  24.483   7.353
10303POPC   C1B67123   8.692  24.579   6.453
10303POPC   C2B67124   8.689  24.554   6.753
10303POPC   C3B67125   8.753  24.521   7.053
10303POPC   C4B67126   8.691  24.524   7.353
10304POPC   NC367127   2.736   8.223   5.553
10304POPC   PO467128   2.792   8.227   5.853
10304POPC   GL167129   2.752   8.220   6.153
10304POPC   GL267130   2.711   8.319   6.153
10304POPC   C1A67131   2.756   8.203   6.453
10304POPC   D2A67132   2.745   8.171   6.753
10304POPC   C3A67133   2.800   8.185   7.053
10304POPC   C4A67134   2.801   8.150   7.353
10304POPC   C1B67135   2.775   8.432   6.453
10304POPC   C2B67136   2.769   8.453   6.753
10304POPC   C3B67137   2.742   8.412   7.053
10304POPC   C4B67138   2.702   8.433   7.353
10305POPC   NC367139  11.332  42.306   5.553
10305POPC   PO467140  11.285  42.356   5.853
10305POPC   GL167141  11.274  42.329   6.153
10305POPC   GL267142  11.413  42.446   6.153
10305POPC   C1A67143  11.340  42.313   6.453
10305POPC   D2A67144  11.324  42.380   6.753
10305POPC   C3A67145  11.321  42.293   7.053
10305POPC   C4A67146  11.350  42.335   7.353
10305POPC   C1B67147  11.469  42.444   6.453
10305POPC   C2B67148  11.456  42.453   6.753
10305POPC   C3B67149  11.473  42.470   7.053
10305POPC   C4B67150  11.489  42.470   7.353
10306POPC   NC367151   3.505   8.197   5.553
10306POPC   PO467152   3.578   8.227   5.853
10306POPC   GL167153   3.534   8.188   6.153
10306POPC   GL267154   3.508   8.326   6.153
10306POPC   C1A67155   3.497   8.160   6.453
10306POPC   D2A67156   3.546   8.241   6.753
10306POPC   C3A67157   3.542   8.190   7.053
10306POPC   C4A67158   3.526   8.231   7.353
10306POPC   C1B67159   3.355   8.371   6.453
10306POPC   C2B67160   3.423   8.405   6.753
10306POPC   C3B67161   3.423   8.349   7.053
10306POPC   C4B67162   3.345   8.416   7.353
10307POPC   NC367163  20.607  14.370   5.553
10307POPC   PO467164  20.631  14.395   5.853
10307POPC   GL167165  20.618  14.362   6.153
10307POPC   GL267166  20.706  14.524   6.153
10307POPC   C1A67167  20.635  14.418   6.453
10307POPC   D2A67168  20.653  14.445   6.753
10307POPC   C3A67169  20.648  14.400   7.053
10307POPC   C4A67170  20.628  14.357   7.353
10307POPC   C1B67171  20.721  14.651   6.453
10307POPC   C2B67172  20.725  14.571   6.753
10307POPC   C3B67173  20.706  14.571   7.053
10307POPC   C4B67174  20.766  14.604   7.353
10308POPC   NC367175   0.416  22.195   5.553
10308POPC   PO467176   0.408  22.205   5.853
10308POPC   GL167177   0.455  22.166   6.153
10308POPC   GL267178   0.351  22.113   6.153
10308POPC   C1A67179   0.431  22.117   6.453
10308POPC   D2A67180   0.479  22.163   6.753
10308POPC   C3A67181   0.443  22.117   7.053
10308POPC   C4A67182   0.427  22.156   7.353
10308POPC   C1B67183   0.243  21.999   6.453
10308POPC   C2B67184   0.305  22.013   6.753
10308POPC   C3B67185   0.248  21.945   7.053
10308POPC   C4B67186   0.278  22.014   7.353
10309POPC   NC367187   8.180  36.870   5.553
10309POPC   PO467188   8.211  36.871   5.853
10309POPC   GL167189   8.217  36.921   6.153
10309POPC   GL267190   8.157  36.950   6.153
10309POPC   C1A67191   8.207  36.916   6.453
10309POPC   D2A67192   8.204  36.949   6.753
10309POPC   C3A67193   8.216  36.893   7.053
10309POPC   C4A67194   8.152  36.928   7.353
10309POPC   C1B67195   8.012  37.117   6.453
10309POPC   C2B67196   8.049  37.077   6.753
10309POPC   C3B67197   7.986  37.117   7.053
10309POPC   C4B67198   7.983  37.052   7.353
10310POPC   NC367199  40.005  40.815   5.553
10310POPC   PO467200  40.020  40.808   5.853
10310POPC   GL167201  40.042  40.784   6.153
10310POPC   GL267202  39.909  40.764   6.153
10310POPC   C1A67203  40.010  40.744   6.453
10310POPC   D2A67204  40.014  40.793   6.753
10310POPC   C3A67205  40.055  40.813   7.053
10310POPC   C4A67206  40.032  40.753   7.353
10310POPC   C1B67207  39.752  40.671   6.453
10310POPC   C2B67208  39.735  40.635   6.753
10310POPC   C3B67209  39.755  40.702   7.053
10310POPC   C4B67210  39.774  40.653   7.353
10311POPC   NC367211  41.593  39.268   5.553
10311POPC   PO467212  41.514  39.181   5.853
10311POPC   GL167213  41.534  39.193   6.153
10311POPC   GL267214  41.554  39.138   6.153
10311POPC   C1A67215  41.595  39.194   6.453
10311POPC   D2A67216  41.606  39.262   6.753
10311POPC   C3A67217  41.551  39.189   7.053
10311POPC   C4A67218  41.556  39.256   7.353
10311POPC   C1B67219  41.615  39.024   6.453
10311POPC   C2B67220  41.570  38.984   6.753
10311POPC   C3B67221  41.596  38.950   7.053
10311POPC   C4B67222  41.562  38.999   7.353
10312POPC   NC367223  20.609  12.865   5.553
10312POPC   PO467224  20.622  12.867   5.853
10312POPC   GL167225  20.605  12.869   6.153
10312POPC   GL267226  20.656  12.783   6.153
10312POPC   C1A67227  20.649  12.889   6.453
10312POPC   D2A67228  20.609  12.900   6.753
10312POPC   C3A67229  20.598  12.806   7.053
10312POPC   C4A67230  20.659  12.865   7.353
10312POPC   C1B67231  20.726  12.655   6.453
10312POPC   C2B67232  20.699  12.655   6.753
10312POPC   C3B67233  20.730  12.590   7.053
10312POPC   C4B67234  20.724  12.596   7.353
10313POPC   NC367235  21.390   6.685   5.553
10313POPC   PO467236  21.346   6.629   5.853
10313POPC   GL167237  21.398   6.613   6.153
10313POPC   GL267238  21.545   6.610   6.153
10313POPC   C1A67239  21.419   6.680   6.453
10313POPC   D2A67240  21.404   6.604   6.753
10313POPC   C3A67241  21.406   6.674   7.053
10313POPC   C4A67242  21.431   6.643   7.353
10313POPC   C1B67243  21.662   6.594   6.453
10313POPC   C2B67244  21.678   6.596   6.753
10313POPC   C3B67245  21.596   6.595   7.053
10313POPC   C4B67246  21.629   6.599   7.353
10314POPC   NC367247  15.930  41.509   5.553
10314POPC   PO467248  15.957  41.565   5.853
10314POPC   GL167249  15.979  41.594   6.153
10314POPC   GL267250  15.790  41.542   6.153
10314POPC   C1A67251  15.969  41.516   6.453
10314POPC   D2A67252  15.934  41.518   6.753
10314POPC   C3A67253  15.916  41.509   7.053
10314POPC   C4A67254  15.942  41.556   7.353
10314POPC   C1B67255  15.730  41.530   6.453
10314POPC   C2B67256  15.717  41.577   6.753
10314POPC   C3B67257  15.679  41.490   7.053
10314POPC   C4B67258  15.680  41.582   7.353
10315POPC   NC367259  14.433   0.464   5.553
10315POPC   PO467260  14.392   0.448   5.853
10315POPC   GL167261  14.449   0.406   6.153
10315POPC   GL267262  14.320   0.522   6.153
10315POPC   C1A67263  14.392   0.441   6.453
10315POPC   D2A67264  14.363   0.435   6.753
10315POPC   C3A67265  14.422   0.416   7.053
10315POPC   C4A67266  14.442   0.409   7.353
10315POPC   C1B67267  14.178   0.587   6.453
10315POPC   C2B67268  14.204   0.536   6.753
10315POPC   C3B67269  14.230   0.518   7.053
10315POPC   C4B67270  14.188   0.561   7.353
10316POPC   NC367271   7.403   9.761   5.553
10316POPC   PO467272   7.408   9.794   5.853
10316POPC   GL167273   7.412   9.736   6.153
10316POPC   GL267274   7.536   9.660   6.153
10316POPC   C1A67275   7.433   9.716   6.453
10316POPC   D2A67276   7.464   9.735   6.753
10316POPC   C3A67277   7.423   9.767   7.053
10316POPC   C4A67278   7.417   9.698   7.353
10316POPC   C1B67279   7.612   9.573   6.453
10316POPC   C2B67280   7.588   9.617   6.753
10316POPC   C3B67281   7.665   9.581   7.053
10316POPC   C4B67282   7.626   9.569   7.353
10317POPC   NC367283  43.070  26.772   5.553
10317POPC   PO467284  43.111  26.841   5.853
10317POPC   GL167285  43.108  26.857   6.153
10317POPC   GL267286  43.154  26.898   6.153
10317POPC   C1A67287  43.083  26.793   6.453
10317POPC   D2A67288  43.110  26.851   6.753
10317POPC   C3A67289  43.123  26.853   7.053
10317POPC   C4A67290  43.142  26.797   7.353
10317POPC   C1B67291  43.153  27.072   6.453
10317POPC   C2B67292  43.126  27.072   6.753
10317POPC   C3B67293  43.087  27.026   7.053
10317POPC   C4B67294  43.121  27.025   7.353
10318POPC   NC367295   9.699  39.232   5.553
10318POPC   PO467296   9.716  39.266   5.853
10318POPC   GL167297   9.781  39.198   6.153
10318POPC   GL267298   9.705  39.357   6.153
10318POPC   C1A67299   9.719  39.225   6.453
10318POPC   D2A67300   9.754  39.279   6.753
10318POPC   C3A67301   9.771  39.264   7.053
10318POPC   C4A67302   9.757  39.194   7.353
10318POPC   C1B67303   9.553  39.394   6.453
10318POPC   C2B67304   9.558  39.431   6.753
10318POPC   C3B67305   9.627  39.439   7.053
10318POPC   C4B67306   9.564  39.454   7.353
10319POPC   NC367307  31.478   5.085   5.553
10319POPC   PO467308  31.488   5.085   5.853
10319POPC   GL167309  31.509   5.071   6.153
10319POPC   GL267310  31.321   5.184   6.153
10319POPC   C1A67311  31.444   5.130   6.453
10319POPC   D2A67312  31.470   5.126   6.753
10319POPC   C3A67313  31.510   5.127   7.053
10319POPC   C4A67314  31.439   5.076   7.353
10319POPC   C1B67315  31.286   5.215   6.453
10319POPC   C2B67316  31.217   5.181   6.753
10319POPC   C3B67317  31.247   5.184   7.053
10319POPC   C4B67318  31.267   5.221   7.353
10320POPC   NC367319  12.816   0.436   5.553
10320POPC   PO467320  12.873   0.479   5.853
10320POPC   GL167321  12.866   0.447   6.153
10320POPC   GL267322  12.923   0.540   6.153
10320POPC   C1A67323  12.838   0.482   6.453
10320POPC   D2A67324  12.841   0.450   6.753
10320POPC   C3A67325  12.838   0.481   7.053
10320POPC   C4A67326  12.870   0.425   7.353
10320POPC   C1B67327  13.074   0.519   6.453
10320POPC   C2B67328  13.085   0.517   6.753
10320POPC   C3B67329  13.069   0.561   7.053
10320POPC   C4B67330  13.051   0.544   7.353
10321POPC   NC367331  14.452  38.417   5.553
10321POPC   PO467332  14.439  38.448   5.853
10321POPC   GL167333  14.409  38.425   6.153
10321POPC   GL267334  14.286  38.380   6.153
10321POPC   C1A67335  14.401  38.472   6.453
10321POPC   D2A67336  14.385  38.459   6.753
10321POPC   C3A67337  14.385  38.503   7.053
10321POPC   C4A67338  14.406  38.448   7.353
10321POPC   C1B67339  14.155  38.300   6.453
10321POPC   C2B67340  14.188  38.362   6.753
10321POPC   C3B67341  14.207  38.341   7.053
10321POPC   C4B67342  14.196  38.337   7.353
10322POPC   NC367343  40.743  26.836   5.553
10322POPC   PO467344  40.794  26.781   5.853
10322POPC   GL167345  40.772  26.837   6.153
10322POPC   GL267346  40.612  26.797   6.153
10322POPC   C1A67347  40.741  26.778   6.453
10322POPC   D2A67348  40.736  26.829   6.753
10322POPC   C3A67349  40.787  26.843   7.053
10322POPC   C4A67350  40.773  26.813   7.353
10322POPC   C1B67351  40.542  26.857   6.453
10322POPC   C2B67352  40.499  26.900   6.753
10322POPC   C3B67353  40.530  26.902   7.053
10322POPC   C4B67354  40.566  26.888   7.353
10323POPC   NC367355  25.216   8.207   5.553
10323POPC   PO467356  25.219   8.233   5.853
10323POPC   GL167357  25.250   8.194   6.153
10323POPC   GL267358  25.143   8.160   6.153
10323POPC   C1A67359  25.273   8.179   6.453
10323POPC   D2A67360  25.238   8.188   6.753
10323POPC   C3A67361  25.224   8.163   7.053
10323POPC   C4A67362  25.280   8.232   7.353
10323POPC   C1B67363  25.035   8.100   6.453
10323POPC   C2B67364  25.016   8.078   6.753
10323POPC   C3B67365  25.062   8.091   7.053
10323POPC   C4B67366  25.018   8.021   7.353
10324POPC   NC367367   1.968  43.930   5.553
10324POPC   PO467368   2.025  43.866   5.853
10324POPC   GL167369   2.022  43.933   6.153
10324POPC   GL267370   1.985  43.782   6.153
10324POPC   C1A67371   1.986  43.885   6.453
10324POPC   D2A67372   1.967  43.936   6.753
10324POPC   C3A67373   1.974  43.917   7.053
10324POPC   C4A67374   1.989  43.911   7.353
10324POPC   C1B67375   1.932  43.600   6.453
10324POPC   C2B67376   2.001  43.642   6.753
10324POPC   C3B67377   2.013  43.591   7.053
10324POPC   C4B67378   1.964  43.632   7.353
10325POPC   NC367379  32.984  10.565   5.553
10325POPC   PO467380  32.978  10.486   5.853
10325POPC   GL167381  32.987  10.495   6.153
10325POPC   GL267382  33.094  10.567   6.153
10325POPC   C1A67383  33.066  10.500   6.453
10325POPC   D2A67384  33.055  10.531   6.753
10325POPC   C3A67385  33.014  10.511   7.053
10325POPC   C4A67386  33.071  10.517   7.353
10325POPC   C1B67387  33.210  10.594   6.453
10325POPC   C2B67388  33.300  10.648   6.753
10325POPC   C3B67389  33.270  10.606   7.053
10325POPC   C4B67390  33.282  10.638   7.353
10326POPC   NC367391  12.818  42.294   5.553
10326POPC   PO467392  12.875  42.338   5.853
10326POPC   GL167393  12.809  42.328   6.153
10326POPC   GL267394  12.798  42.249   6.153
10326POPC   C1A67395  12.878  42.376   6.453
10326POPC   D2A67396  12.876  42.309   6.753
10326POPC   C3A67397  12.888  42.361   7.053
10326POPC   C4A67398  12.830  42.289   7.353
10326POPC   C1B67399  12.687  42.098   6.453
10326POPC   C2B67400  12.774  42.097   6.753
10326POPC   C3B67401  12.709  42.114   7.053
10326POPC   C4B67402  12.763  42.155   7.353
10327POPC   NC367403  29.911   2.732   5.553
10327POPC   PO467404  29.909   2.737   5.853
10327POPC   GL167405  29.895   2.766   6.153
10327POPC   GL267406  29.922   2.626   6.153
10327POPC   C1A67407  29.970   2.739   6.453
10327POPC   D2A67408  29.890   2.765   6.753
10327POPC   C3A67409  29.895   2.782   7.053
10327POPC   C4A67410  29.948   2.810   7.353
10327POPC   C1B67411  29.914   2.520   6.453
10327POPC   C2B67412  29.836   2.490   6.753
10327POPC   C3B67413  29.871   2.516   7.053
10327POPC   C4B67414  29.904   2.479   7.353
10328POPC   NC367415  34.599  22.919   5.553
10328POPC   PO467416  34.595  22.988   5.853
10328POPC   GL167417  34.572  22.987   6.153
10328POPC   GL267418  34.426  22.873   6.153
10328POPC   C1A67419  34.590  22.961   6.453
10328POPC   D2A67420  34.622  22.922   6.753
10328POPC   C3A67421  34.548  22.978   7.053
10328POPC   C4A67422  34.612  22.932   7.353
10328POPC   C1B67423  34.347  22.798   6.453
10328POPC   C2B67424  34.306  22.794   6.753
10328POPC   C3B67425  34.352  22.804   7.053
10328POPC   C4B67426  34.365  22.798   7.353
10329POPC   NC367427  15.149   5.074   5.553
10329POPC   PO467428  15.229   5.140   5.853
10329POPC   GL167429  15.179   5.101   6.153
10329POPC   GL267430  15.108   5.144   6.153
10329POPC   C1A67431  15.206   5.132   6.453
10329POPC   D2A67432  15.131   5.085   6.753
10329POPC   C3A67433  15.161   5.108   7.053
10329POPC   C4A67434  15.171   5.115   7.353
10329POPC   C1B67435  14.945   5.190   6.453
10329POPC   C2B67436  14.903   5.190   6.753
10329POPC   C3B67437  14.932   5.155   7.053
10329POPC   C4B67438  14.935   5.158   7.353
10330POPC   NC367439  23.735  28.370   5.553
10330POPC   PO467440  23.710  28.327   5.853
10330POPC   GL167441  23.711  28.409   6.153
10330POPC   GL267442  23.624  28.228   6.153
10330POPC   C1A67443  23.749  28.341   6.453
10330POPC   D2A67444  23.683  28.390   6.753
10330POPC   C3A67445  23.757  28.405   7.053
10330POPC   C4A67446  23.670  28.395   7.353
10330POPC   C1B67447  23.587  28.088   6.453
10330POPC   C2B67448  23.612  28.172   6.753
10330POPC   C3B67449  23.612  28.180   7.053
10330POPC   C4B67450  23.600  28.157   7.353
10331POPC   NC367451  18.324  24.456   5.553
10331POPC   PO467452  18.274  24.537   5.853
10331POPC   GL167453  18.311  24.533   6.153
10331POPC   GL267454  18.136  24.490   6.153
10331POPC   C1A67455  18.244  24.536   6.453
10331POPC   D2A67456  18.321  24.488   6.753
10331POPC   C3A67457  18.266  24.496   7.053
10331POPC   C4A67458  18.255  24.508   7.353
10331POPC   C1B67459  17.995  24.563   6.453
10331POPC   C2B67460  18.073  24.594   6.753
10331POPC   C3B67461  18.058  24.557   7.053
10331POPC   C4B67462  18.016  24.608   7.353
10332POPC   NC367463   1.245  42.378   5.553
10332POPC   PO467464   1.247  42.358   5.853
10332POPC   GL167465   1.194  42.340   6.153
10332POPC   GL267466   1.226  42.498   6.153
10332POPC   C1A67467   1.263  42.321   6.453
10332POPC   D2A67468   1.220  42.323   6.753
10332POPC   C3A67469   1.239  42.355   7.053
10332POPC   C4A67470   1.238  42.361   7.353
10332POPC   C1B67471   1.190  42.542   6.453
10332POPC   C2B67472   1.155  42.580   6.753
10332POPC   C3B67473   1.149  42.556   7.053
10332POPC   C4B67474   1.153  42.604   7.353
10333POPC   NC367475  34.565  10.530   5.553
10333POPC   PO467476  34.530  10.493   5.853
10333POPC   GL167477  34.556  10.531   6.153
10333POPC   GL267478  34.493  10.529   6.153
10333POPC   C1A67479  34.537  10.520   6.453
10333POPC   D2A67480  34.600  10.516   6.753
10333POPC   C3A67481  34.547  10.517   7.053
10333POPC   C4A67482  34.531  10.477   7.353
10333POPC   C1B67483  34.338  10.611   6.453
10333POPC   C2B67484  34.303  10.587   6.753
10333POPC   C3B67485  34.377  10.622   7.053
10333POPC   C4B67486  34.302  10.608   7.353
10334POPC   NC367487  21.417  24.527   5.553
10334POPC   PO467488  21.415  24.512   5.853
10334POPC   GL167489  21.375  24.509   6.153
10334POPC   GL267490  21.462  24.441   6.153
10334POPC   C1A67491  21.360  24.539   6.453
10334POPC   D2A67492  21.387  24.538   6.753
10334POPC   C3A67493  21.369  24.498   7.053
10334POPC   C4A67494  21.337  24.494   7.353
10334POPC   C1B67495  21.590  24.404   6.453
10334POPC   C2B67496  21.627  24.427   6.753
10334POPC   C3B67497  21.596  24.428   7.053
10334POPC   C4B67498  21.615  24.438   7.353
10335POPC   NC367499   8.965  39.969   5.553
10335POPC   PO467500   8.982  39.979   5.853
10335POPC   GL167501   8.974  40.026   6.153
10335POPC   GL267502   8.922  40.062   6.153
10335POPC   C1A67503   8.943  40.042   6.453
10335POPC   D2A67504   8.923  39.981   6.753
10335POPC   C3A67505   8.987  40.052   7.053
10335POPC   C4A67506   8.991  40.004   7.353
10335POPC   C1B67507   8.815  40.181   6.453
10335POPC   C2B67508   8.836  40.199   6.753
10335POPC   C3B67509   8.846  40.206   7.053
10335POPC   C4B67510   8.848  40.252   7.353
10336POPC   NC367511  17.474   1.256   5.553
10336POPC   PO467512  17.518   1.258   5.853
10336POPC   GL167513  17.479   1.260   6.153
10336POPC   GL267514  17.578   1.069   6.153
10336POPC   C1A67515  17.549   1.209   6.453
10336POPC   D2A67516  17.501   1.222   6.753
10336POPC   C3A67517  17.514   1.258   7.053
10336POPC   C4A67518  17.520   1.259   7.353
10336POPC   C1B67519  17.646   1.016   6.453
10336POPC   C2B67520  17.564   0.998   6.753
10336POPC   C3B67521  17.653   0.965   7.053
10336POPC   C4B67522  17.630   1.021   7.353
10337POPC   NC367523  40.817  36.117   5.553
10337POPC   PO467524  40.766  36.103   5.853
10337POPC   GL167525  40.826  36.161   6.153
10337POPC   GL267526  40.894  36.159   6.153
10337POPC   C1A67527  40.765  36.097   6.453
10337POPC   D2A67528  40.818  36.146   6.753
10337POPC   C3A67529  40.800  36.123   7.053
10337POPC   C4A67530  40.807  36.157   7.353
10337POPC   C1B67531  40.976  36.193   6.453
10337POPC   C2B67532  41.037  36.207   6.753
10337POPC   C3B67533  41.058  36.184   7.053
10337POPC   C4B67534  41.020  36.256   7.353
10338POPC   NC367535  19.809   5.844   5.553
10338POPC   PO467536  19.808   5.894   5.853
10338POPC   GL167537  19.825   5.867   6.153
10338POPC   GL267538  19.753   5.887   6.153
10338POPC   C1A67539  19.876   5.869   6.453
10338POPC   D2A67540  19.799   5.881   6.753
10338POPC   C3A67541  19.855   5.838   7.053
10338POPC   C4A67542  19.826   5.857   7.353
10338POPC   C1B67543  19.551   5.824   6.453
10338POPC   C2B67544  19.573   5.849   6.753
10338POPC   C3B67545  19.568   5.780   7.053
10338POPC   C4B67546  19.566   5.792   7.353
10339POPC   NC367547  40.764  31.464   5.553
10339POPC   PO467548  40.820  31.441   5.853
10339POPC   GL167549  40.771  31.479   6.153
10339POPC   GL267550  40.635  31.395   6.153
10339POPC   C1A67551  40.745  31.454   6.453
10339POPC   D2A67552  40.801  31.506   6.753
10339POPC   C3A67553  40.791  31.517   7.053
10339POPC   C4A67554  40.822  31.441   7.353
10339POPC   C1B67555  40.592  31.391   6.453
10339POPC   C2B67556  40.516  31.353   6.753
10339POPC   C3B67557  40.599  31.355   7.053
10339POPC   C4B67558  40.564  31.383   7.353
10340POPC   NC367559  26.809  11.313   5.553
10340POPC   PO467560  26.855  11.289   5.853
10340POPC   GL167561  26.785  11.335   6.153
10340POPC   GL267562  26.959  11.269   6.153
10340POPC   C1A67563  26.790  11.338   6.453
10340POPC   D2A67564  26.808  11.251   6.753
10340POPC   C3A67565  26.831  11.315   7.053
10340POPC   C4A67566  26.843  11.262   7.353
10340POPC   C1B67567  27.016  11.194   6.453
10340POPC   C2B67568  27.045  11.152   6.753
10340POPC   C3B67569  27.034  11.152   7.053
10340POPC   C4B67570  26.985  11.192   7.353
10341POPC   NC367571  17.468  10.551   5.553
10341POPC   PO467572  17.507  10.573   5.853
10341POPC   GL167573  17.502  10.532   6.153
10341POPC   GL267574  17.606  10.564   6.153
10341POPC   C1A67575  17.509  10.556   6.453
10341POPC   D2A67576  17.490  10.502   6.753
10341POPC   C3A67577  17.470  10.535   7.053
10341POPC   C4A67578  17.547  10.544   7.353
10341POPC   C1B67579  17.780  10.540   6.453
10341POPC   C2B67580  17.747  10.569   6.753
10341POPC   C3B67581  17.725  10.597   7.053
10341POPC   C4B67582  17.798  10.608   7.353
10342POPC   NC367583  31.458   1.985   5.553
10342POPC   PO467584  31.482   1.940   5.853
10342POPC   GL167585  31.460   1.942   6.153
10342POPC   GL267586  31.417   2.127   6.153
10342POPC   C1A67587  31.468   2.036   6.453
10342POPC   D2A67588  31.438   2.021   6.753
10342POPC   C3A67589  31.501   2.035   7.053
10342POPC   C4A67590  31.466   1.944   7.353
10342POPC   C1B67591  31.462   2.260   6.453
10342POPC   C2B67592  31.440   2.244   6.753
10342POPC   C3B67593  31.448   2.230   7.053
10342POPC   C4B67594  31.444   2.242   7.353
10343POPC   NC367595   0.451  39.205   5.553
10343POPC   PO467596   0.465  39.264   5.853
10343POPC   GL167597   0.416  39.215   6.153
10343POPC   GL267598   0.527  39.299   6.153
10343POPC   C1A67599   0.427  39.194   6.453
10343POPC   D2A67600   0.444  39.190   6.753
10343POPC   C3A67601   0.406  39.265   7.053
10343POPC   C4A67602   0.430  39.197   7.353
10343POPC   C1B67603   0.602  39.469   6.453
10343POPC   C2B67604   0.531  39.465   6.753
10343POPC   C3B67605   0.528  39.442   7.053
10343POPC   C4B67606   0.583  39.456   7.353
10344POPC   NC367607   0.446  21.382   5.553
10344POPC   PO467608   0.391  21.420   5.853
10344POPC   GL167609   0.432  21.362   6.153
10344POPC   GL267610   0.417  21.459   6.153
10344POPC   C1A67611   0.414  21.398   6.453
10344POPC   D2A67612   0.433  21.402   6.753
10344POPC   C3A67613   0.432  21.390   7.053
10344POPC   C4A67614   0.401  21.394   7.353
10344POPC   C1B67615   0.321  21.670   6.453
10344POPC   C2B67616   0.357  21.594   6.753
10344POPC   C3B67617   0.379  21.603   7.053
10344POPC   C4B67618   0.365  21.595   7.353
10345POPC   NC367619   5.068  26.034   5.553
10345POPC   PO467620   5.046  26.042   5.853
10345POPC   GL167621   5.047  26.003   6.153
10345POPC   GL267622   4.990  25.943   6.153
10345POPC   C1A67623   5.127  25.996   6.453
10345POPC   D2A67624   5.132  26.070   6.753
10345POPC   C3A67625   5.048  26.080   7.053
10345POPC   C4A67626   5.124  26.044   7.353
10345POPC   C1B67627   4.930  25.853   6.453
10345POPC   C2B67628   4.923  25.927   6.753
10345POPC   C3B67629   4.842  25.917   7.053
10345POPC   C4B67630   4.864  25.903   7.353
10346POPC   NC367631  27.609   2.736   5.553
10346POPC   PO467632  27.547   2.774   5.853
10346POPC   GL167633  27.634   2.719   6.153
10346POPC   GL267634  27.655   2.850   6.153
10346POPC   C1A67635  27.574   2.793   6.453
10346POPC   D2A67636  27.555   2.801   6.753
10346POPC   C3A67637  27.547   2.812   7.053
10346POPC   C4A67638  27.582   2.749   7.353
10346POPC   C1B67639  27.614   3.040   6.453
10346POPC   C2B67640  27.617   3.000   6.753
10346POPC   C3B67641  27.689   3.033   7.053
10346POPC   C4B67642  27.616   3.035   7.353
10347POPC   NC367643  35.308   8.951   5.553
10347POPC   PO467644  35.348   8.926   5.853
10347POPC   GL167645  35.389   8.970   6.153
10347POPC   GL267646  35.474   8.953   6.153
10347POPC   C1A67647  35.394   8.946   6.453
10347POPC   D2A67648  35.318   8.959   6.753
10347POPC   C3A67649  35.341   8.962   7.053
10347POPC   C4A67650  35.401   9.017   7.353
10347POPC   C1B67651  35.553   8.936   6.453
10347POPC   C2B67652  35.575   8.989   6.753
10347POPC   C3B67653  35.586   8.988   7.053
10347POPC   C4B67654  35.609   8.981   7.353
10348POPC   NC367655  13.603  20.628   5.553
10348POPC   PO467656  13.670  20.588   5.853
10348POPC   GL167657  13.620  20.593   6.153
10348POPC   GL267658  13.635  20.491   6.153
10348POPC   C1A67659  13.615  20.616   6.453
10348POPC   D2A67660  13.611  20.615   6.753
10348POPC   C3A67661  13.657  20.588   7.053
10348POPC   C4A67662  13.583  20.627   7.353
10348POPC   C1B67663  13.613  20.314   6.453
10348POPC   C2B67664  13.631  20.314   6.753
10348POPC   C3B67665  13.615  20.379   7.053
10348POPC   C4B67666  13.596  20.409   7.353
10349POPC   NC367667  34.617   5.060   5.553
10349POPC   PO467668  34.574   5.064   5.853
10349POPC   GL167669  34.567   5.050   6.153
10349POPC   GL267670  34.696   4.966   6.153
10349POPC   C1A67671  34.533   5.081   6.453
10349POPC   D2A67672  34.564   5.076   6.753
10349POPC   C3A67673  34.588   5.060   7.053
10349POPC   C4A67674  34.536   5.060   7.353
10349POPC   C1B67675  34.777   4.954   6.453
10349POPC   C2B67676  34.801   4.889   6.753
10349POPC   C3B67677  34.768   4.960   7.053
10349POPC   C4B67678  34.786   4.934   7.353
10350POPC   NC367679  40.805  13.677   5.553
10350POPC   PO467680  40.740  13.584   5.853
10350POPC   GL167681  40.758  13.593   6.153
10350POPC   GL267682  40.829  13.737   6.153
10350POPC   C1A67683  40.824  13.607   6.453
10350POPC   D2A67684  40.796  13.633   6.753
10350POPC   C3A67685  40.759  13.599   7.053
10350POPC   C4A67686  40.817  13.665   7.353
10350POPC   C1B67687  40.801  13.914   6.453
10350POPC   C2B67688  40.775  13.886   6.753
10350POPC   C3B67689  40.851  13.910   7.053
10350POPC   C4B67690  40.859  13.900   7.353
10351POPC   NC367691  30.665   8.987   5.553
10351POPC   PO467692  30.691   9.011   5.853
10351POPC   GL167693  30.688   8.948   6.153
10351POPC   GL267694  30.824   8.910   6.153
10351POPC   C1A67695  30.706   9.013   6.453
10351POPC   D2A67696  30.692   9.018   6.753
10351POPC   C3A67697  30.682   8.940   7.053
10351POPC   C4A67698  30.720   8.982   7.353
10351POPC   C1B67699  30.967   8.834   6.453
10351POPC   C2B67700  30.920   8.874   6.753
10351POPC   C3B67701  30.897   8.841   7.053
10351POPC   C4B67702  30.893   8.900   7.353
10352POPC   NC367703  19.845  30.730   5.553
10352POPC   PO467704  19.837  30.664   5.853
10352POPC   GL167705  19.786  30.686   6.153
10352POPC   GL267706  19.720  30.676   6.153
10352POPC   C1A67707  19.831  30.688   6.453
10352POPC   D2A67708  19.814  30.704   6.753
10352POPC   C3A67709  19.790  30.655   7.053
10352POPC   C4A67710  19.787  30.674   7.353
10352POPC   C1B67711  19.581  30.711   6.453
10352POPC   C2B67712  19.569  30.696   6.753
10352POPC   C3B67713  19.609  30.675   7.053
10352POPC   C4B67714  19.569  30.649   7.353
10353POPC   NC367715   8.148  26.791   5.553
10353POPC   PO467716   8.222  26.839   5.853
10353POPC   GL167717   8.237  26.812   6.153
10353POPC   GL267718   8.142  26.948   6.153
10353POPC   C1A67719   8.192  26.861   6.453
10353POPC   D2A67720   8.180  26.796   6.753
10353POPC   C3A67721   8.199  26.830   7.053
10353POPC   C4A67722   8.167  26.853   7.353
10353POPC   C1B67723   8.152  27.095   6.453
10353POPC   C2B67724   8.194  27.091   6.753
10353POPC   C3B67725   8.146  27.045   7.053
10353POPC   C4B67726   8.188  27.062   7.353
10354POPC   NC367727  15.219  21.379   5.553
10354POPC   PO467728  15.196  21.357   5.853
10354POPC   GL167729  15.214  21.393   6.153
10354POPC   GL267730  15.281  21.499   6.153
10354POPC   C1A67731  15.142  21.421   6.453
10354POPC   D2A67732  15.137  21.395   6.753
10354POPC   C3A67733  15.183  21.425   7.053
10354POPC   C4A67734  15.170  21.355   7.353
10354POPC   C1B67735  15.306  21.622   6.453
10354POPC   C2B67736  15.258  21.570   6.753
10354POPC   C3B67737  15.261  21.629   7.053
10354POPC   C4B67738  15.347  21.592   7.353
10355POPC   NC367739   0.445   1.197   5.553
10355POPC   PO467740   0.395   1.205   5.853
10355POPC   GL167741   0.435   1.213   6.153
10355POPC   GL267742   0.381   1.128   6.153
10355POPC   C1A67743   0.443   1.185   6.453
10355POPC   D2A67744   0.442   1.213   6.753
10355POPC   C3A67745   0.469   1.183   7.053
10355POPC   C4A67746   0.487   1.220   7.353
10355POPC   C1B67747   0.325   0.973   6.453
10355POPC   C2B67748   0.318   0.974   6.753
10355POPC   C3B67749   0.285   1.031   7.053
10355POPC   C4B67750   0.320   1.032   7.353
10356POPC   NC367751  29.105  39.217   5.553
10356POPC   PO467752  29.193  39.260   5.853
10356POPC   GL167753  29.164  39.211   6.153
10356POPC   GL267754  29.064  39.383   6.153
10356POPC   C1A67755  29.140  39.270   6.453
10356POPC   D2A67756  29.167  39.236   6.753
10356POPC   C3A67757  29.135  39.201   7.053
10356POPC   C4A67758  29.159  39.239   7.353
10356POPC   C1B67759  29.025  39.453   6.453
10356POPC   C2B67760  29.065  39.423   6.753
10356POPC   C3B67761  29.005  39.457   7.053
10356POPC   C4B67762  28.983  39.447   7.353
10357POPC   NC367763  36.912   2.718   5.553
10357POPC   PO467764  36.893   2.753   5.853
10357POPC   GL167765  36.862   2.779   6.153
10357POPC   GL267766  36.994   2.736   6.153
10357POPC   C1A67767  36.897   2.746   6.453
10357POPC   D2A67768  36.940   2.788   6.753
10357POPC   C3A67769  36.907   2.738   7.053
10357POPC   C4A67770  36.855   2.757   7.353
10357POPC   C1B67771  37.128   2.681   6.453
10357POPC   C2B67772  37.117   2.738   6.753
10357POPC   C3B67773  37.127   2.673   7.053
10357POPC   C4B67774  37.106   2.746   7.353
10358POPC   NC367775  42.356   0.463   5.553
10358POPC   PO467776  42.361   0.429   5.853
10358POPC   GL167777  42.380   0.440   6.153
10358POPC   GL267778  42.246   0.497   6.153
10358POPC   C1A67779  42.369   0.463   6.453
10358POPC   D2A67780  42.347   0.427   6.753
10358POPC   C3A67781  42.297   0.458   7.053
10358POPC   C4A67782  42.322   0.424   7.353
10358POPC   C1B67783  42.155   0.598   6.453
10358POPC   C2B67784  42.177   0.678   6.753
10358POPC   C3B67785  42.151   0.680   7.053
10358POPC   C4B67786  42.158   0.633   7.353
10359POPC   NC367787  18.301  34.552   5.553
10359POPC   PO467788  18.296  34.622   5.853
10359POPC   GL167789  18.259  34.619   6.153
10359POPC   GL267790  18.408  34.546   6.153
10359POPC   C1A67791  18.285  34.609   6.453
10359POPC   D2A67792  18.234  34.595   6.753
10359POPC   C3A67793  18.323  34.584   7.053
10359POPC   C4A67794  18.279  34.598   7.353
10359POPC   C1B67795  18.536  34.582   6.453
10359POPC   C2B67796  18.554  34.539   6.753
10359POPC   C3B67797  18.492  34.535   7.053
10359POPC   C4B67798  18.500  34.530   7.353
10360POPC   NC367799  39.195   7.439   5.553
10360POPC   PO467800  39.264   7.389   5.853
10360POPC   GL167801  39.197   7.380   6.153
10360POPC   GL267802  39.338   7.436   6.153
10360POPC   C1A67803  39.230   7.407   6.453
10360POPC   D2A67804  39.247   7.423   6.753
10360POPC   C3A67805  39.188   7.400   7.053
10360POPC   C4A67806  39.280   7.394   7.353
10360POPC   C1B67807  39.432   7.531   6.453
10360POPC   C2B67808  39.430   7.493   6.753
10360POPC   C3B67809  39.463   7.523   7.053
10360POPC   C4B67810  39.507   7.502   7.353
10361POPC   NC367811  17.514  31.445   5.553
10361POPC   PO467812  17.461  31.426   5.853
10361POPC   GL167813  17.538  31.522   6.153
10361POPC   GL267814  17.430  31.386   6.153
10361POPC   C1A67815  17.517  31.441   6.453
10361POPC   D2A67816  17.526  31.483   6.753
10361POPC   C3A67817  17.530  31.447   7.053
10361POPC   C4A67818  17.542  31.516   7.353
10361POPC   C1B67819  17.243  31.397   6.453
10361POPC   C2B67820  17.320  31.391   6.753
10361POPC   C3B67821  17.256  31.363   7.053
10361POPC   C4B67822  17.330  31.342   7.353
10362POPC   NC367823  22.184   8.224   5.553
10362POPC   PO467824  22.153   8.179   5.853
10362POPC   GL167825  22.113   8.224   6.153
10362POPC   GL267826  22.287   8.271   6.153
10362POPC   C1A67827  22.190   8.161   6.453
10362POPC   D2A67828  22.161   8.213   6.753
10362POPC   C3A67829  22.120   8.234   7.053
10362POPC   C4A67830  22.174   8.238   7.353
10362POPC   C1B67831  22.309   8.408   6.453
10362POPC   C2B67832  22.288   8.363   6.753
10362POPC   C3B67833  22.341   8.382   7.053
10362POPC   C4B67834  22.316   8.341   7.353
10363POPC   NC367835  15.925  42.304   5.553
10363POPC   PO467836  15.987  42.293   5.853
10363POPC   GL167837  15.940  42.367   6.153
10363POPC   GL267838  15.959  42.250   6.153
10363POPC   C1A67839  15.935  42.345   6.453
10363POPC   D2A67840  15.968  42.367   6.753
10363POPC   C3A67841  15.999  42.296   7.053
10363POPC   C4A67842  15.941  42.350   7.353
10363POPC   C1B67843  15.899  42.093   6.453
10363POPC   C2B67844  15.848  42.051   6.753
10363POPC   C3B67845  15.908  42.133   7.053
10363POPC   C4B67846  15.898  42.078   7.353
10364POPC   NC367847  26.769  43.073   5.553
10364POPC   PO467848  26.800  43.099   5.853
10364POPC   GL167849  26.840  43.080   6.153
10364POPC   GL267850  26.875  43.053   6.153
10364POPC   C1A67851  26.833  43.082   6.453
10364POPC   D2A67852  26.860  43.071   6.753
10364POPC   C3A67853  26.824  43.086   7.053
10364POPC   C4A67854  26.778  43.132   7.353
10364POPC   C1B67855  26.898  42.897   6.453
10364POPC   C2B67856  26.940  42.926   6.753
10364POPC   C3B67857  26.937  42.947   7.053
10364POPC   C4B67858  26.995  42.896   7.353
10365POPC   NC367859  19.014  13.642   5.553
10365POPC   PO467860  19.061  13.586   5.853
10365POPC   GL167861  19.092  13.638   6.153
10365POPC   GL267862  19.163  13.618   6.153
10365POPC   C1A67863  19.070  13.638   6.453
10365POPC   D2A67864  19.084  13.631   6.753
10365POPC   C3A67865  19.083  13.655   7.053
10365POPC   C4A67866  19.017  13.581   7.353
10365POPC   C1B67867  19.346  13.658   6.453
10365POPC   C2B67868  19.324  13.693   6.753
10365POPC   C3B67869  19.290  13.688   7.053
10365POPC   C4B67870  19.292  13.695   7.353
10366POPC   NC367871  20.605  21.390   5.553
10366POPC   PO467872  20.607  21.376   5.853
10366POPC   GL167873  20.583  21.386   6.153
10366POPC   GL267874  20.743  21.415   6.153
10366POPC   C1A67875  20.639  21.384   6.453
10366POPC   D2A67876  20.645  21.432   6.753
10366POPC   C3A67877  20.605  21.358   7.053
10366POPC   C4A67878  20.648  21.399   7.353
10366POPC   C1B67879  20.889  21.318   6.453
10366POPC   C2B67880  20.820  21.335   6.753
10366POPC   C3B67881  20.828  21.402   7.053
10366POPC   C4B67882  20.822  21.359   7.353
10367POPC   NC367883  18.267  42.372   5.553
10367POPC   PO467884  18.279  42.318   5.853
10367POPC   GL167885  18.320  42.348   6.153
10367POPC   GL267886  18.373  42.325   6.153
10367POPC   C1A67887  18.311  42.318   6.453
10367POPC   D2A67888  18.331  42.295   6.753
10367POPC   C3A67889  18.250  42.285   7.053
10367POPC   C4A67890  18.251  42.357   7.353
10367POPC   C1B67891  18.486  42.350   6.453
10367POPC   C2B67892  18.545  42.328   6.753
10367POPC   C3B67893  18.498  42.333   7.053
10367POPC   C4B67894  18.533  42.319   7.353
10368POPC   NC367895   8.153  19.045   5.553
10368POPC   PO467896   8.207  19.055   5.853
10368POPC   GL167897   8.180  19.101   6.153
10368POPC   GL267898   8.145  19.217   6.153
10368POPC   C1A67899   8.159  19.075   6.453
10368POPC   D2A67900   8.215  19.040   6.753
10368POPC   C3A67901   8.195  19.101   7.053
10368POPC   C4A67902   8.192  19.046   7.353
10368POPC   C1B67903   8.124  19.276   6.453
10368POPC   C2B67904   8.132  19.284   6.753
10368POPC   C3B67905   8.130  19.290   7.053
10368POPC   C4B67906   8.117  19.277   7.353
10369POPC   NC367907  43.111  16.681   5.553
10369POPC   PO467908  43.113  16.778   5.853
10369POPC   GL167909  43.097  16.756   6.153
10369POPC   GL267910  43.047  16.659   6.153
10369POPC   C1A67911  43.111  16.732   6.453
10369POPC   D2A67912  43.068  16.733   6.753
10369POPC   C3A67913  43.072  16.729   7.053
10369POPC   C4A67914  43.084  16.739   7.353
10369POPC   C1B67915  42.905  16.494   6.453
10369POPC   C2B67916  42.958  16.491   6.753
10369POPC   C3B67917  42.949  16.507   7.053
10369POPC   C4B67918  42.934  16.536   7.353
10370POPC   NC367919   1.956   4.340   5.553
10370POPC   PO467920   1.976   4.352   5.853
10370POPC   GL167921   1.980   4.359   6.153
10370POPC   GL267922   1.952   4.450   6.153
10370POPC   C1A67923   2.009   4.327   6.453
10370POPC   D2A67924   1.974   4.349   6.753
10370POPC   C3A67925   1.993   4.326   7.053
10370POPC   C4A67926   2.022   4.314   7.353
10370POPC   C1B67927   1.886   4.510   6.453
10370POPC   C2B67928   1.853   4.539   6.753
10370POPC   C3B67929   1.931   4.580   7.053
10370POPC   C4B67930   1.876   4.507   7.353
10371POPC   NC367931  19.033  30.657   5.553
10371POPC   PO467932  19.069  30.742   5.853
10371POPC   GL167933  19.059  30.656   6.153
10371POPC   GL267934  19.024  30.848   6.153
10371POPC   C1A67935  19.068  30.740   6.453
10371POPC   D2A67936  19.019  30.691   6.753
10371POPC   C3A67937  19.107  30.696   7.053
10371POPC   C4A67938  19.055  30.737   7.353
10371POPC   C1B67939  19.047  30.986   6.453
10371POPC   C2B67940  19.052  30.923   6.753
10371POPC   C3B67941  18.980  30.942   7.053
10371POPC   C4B67942  18.963  30.978   7.353
10372POPC   NC367943  11.267  44.680   5.553
10372POPC   PO467944  11.250  44.705   5.853
10372POPC   GL167945  11.327  44.675   6.153
10372POPC   GL267946  11.406  44.594   6.153
10372POPC   C1A67947  11.275  44.638   6.453
10372POPC   D2A67948  11.269  44.709   6.753
10372POPC   C3A67949  11.258  44.668   7.053
10372POPC   C4A67950  11.322  44.630   7.353
10372POPC   C1B67951  11.574  44.558   6.453
10372POPC   C2B67952  11.522  44.621   6.753
10372POPC   C3B67953  11.572  44.580   7.053
10372POPC   C4B67954  11.562  44.618   7.353
10373POPC   NC367955   9.709  40.012   5.553
10373POPC   PO467956   9.738  40.048   5.853
10373POPC   GL167957   9.721  39.959   6.153
10373POPC   GL267958   9.605  39.923   6.153
10373POPC   C1A67959   9.736  40.051   6.453
10373POPC   D2A67960   9.699  40.022   6.753
10373POPC   C3A67961   9.783  40.055   7.053
10373POPC   C4A67962   9.777  39.979   7.353
10373POPC   C1B67963   9.562  39.919   6.453
10373POPC   C2B67964   9.570  39.864   6.753
10373POPC   C3B67965   9.523  39.849   7.053
10373POPC   C4B67966   9.491  39.909   7.353
10374POPC   NC367967  40.775  39.202   5.553
10374POPC   PO467968  40.748  39.262   5.853
10374POPC   GL167969  40.797  39.227   6.153
10374POPC   GL267970  40.658  39.299   6.153
10374POPC   C1A67971  40.794  39.198   6.453
10374POPC   D2A67972  40.763  39.261   6.753
10374POPC   C3A67973  40.826  39.261   7.053
10374POPC   C4A67974  40.774  39.279   7.353
10374POPC   C1B67975  40.604  39.377   6.453
10374POPC   C2B67976  40.610  39.395   6.753
10374POPC   C3B67977  40.524  39.344   7.053
10374POPC   C4B67978  40.544  39.399   7.353
10375POPC   NC367979  41.530  16.775   5.553
10375POPC   PO467980  41.539  16.733   5.853
10375POPC   GL167981  41.598  16.773   6.153
10375POPC   GL267982  41.682  16.853   6.153
10375POPC   C1A67983  41.512  16.747   6.453
10375POPC   D2A67984  41.600  16.693   6.753
10375POPC   C3A67985  41.553  16.696   7.053
10375POPC   C4A67986  41.534  16.731   7.353
10375POPC   C1B67987  41.781  16.833   6.453
10375POPC   C2B67988  41.774  16.855   6.753
10375POPC   C3B67989  41.738  16.853   7.053
10375POPC   C4B67990  41.713  16.893   7.353
10376POPC   NC367991  37.674   4.290   5.553
10376POPC   PO467992  37.683   4.321   5.853
10376POPC   GL167993  37.688   4.321   6.153
10376POPC   GL267994  37.569   4.262   6.153
10376POPC   C1A67995  37.660   4.279   6.453
10376POPC   D2A67996  37.724   4.297   6.753
10376POPC   C3A67997  37.714   4.323   7.053
10376POPC   C4A67998  37.699   4.272   7.353
10376POPC   C1B67999  37.434   4.284   6.453
10376POPC   C2B68000  37.437   4.263   6.753
10376POPC   C3B68001  37.403   4.230   7.053
10376POPC   C4B68002  37.459   4.291   7.353
10377POPC   NC368003  32.992   4.328   5.553
10377POPC   PO468004  33.000   4.303   5.853
10377POPC   GL168005  32.976   4.357   6.153
10377POPC   GL268006  33.085   4.194   6.153
10377POPC   C1A68007  32.993   4.295   6.453
10377POPC   D2A68008  33.007   4.309   6.753
10377POPC   C3A68009  33.050   4.275   7.053
10377POPC   C4A68010  33.010   4.276   7.353
10377POPC   C1B68011  33.206   4.115   6.453
10377POPC   C2B68012  33.221   4.129   6.753
10377POPC   C3B68013  33.143   4.100   7.053
10377POPC   C4B68014  33.186   4.135   7.353
10378POPC   NC368015  14.437   5.876   5.553
10378POPC   PO468016  14.386   5.876   5.853
10378POPC   GL168017  14.400   5.820   6.153
10378POPC   GL268018  14.536   5.826   6.153
10378POPC   C1A68019  14.373   5.910   6.453
10378POPC   D2A68020  14.371   5.911   6.753
10378POPC   C3A68021  14.424   5.850   7.053
10378POPC   C4A68022  14.369   5.882   7.353
10378POPC   C1B68023  14.565   5.719   6.453
10378POPC   C2B68024  14.609   5.689   6.753
10378POPC   C3B68025  14.577   5.688   7.053
10378POPC   C4B68026  14.617   5.739   7.353
10379POPC   NC368027  41.557  27.569   5.553
10379POPC   PO468028  41.602  27.629   5.853
10379POPC   GL168029  41.586  27.582   6.153
10379POPC   GL268030  41.559  27.503   6.153
10379POPC   C1A68031  41.512  27.636   6.453
10379POPC   D2A68032  41.599  27.624   6.753
10379POPC   C3A68033  41.588  27.586   7.053
10379POPC   C4A68034  41.537  27.594   7.353
10379POPC   C1B68035  41.630  27.362   6.453
10379POPC   C2B68036  41.601  27.383   6.753
10379POPC   C3B68037  41.685  27.346   7.053
10379POPC   C4B68038  41.643  27.313   7.353
10380POPC   NC368039  32.241   2.039   5.553
10380POPC   PO468040  32.282   1.993   5.853
10380POPC   GL168041  32.265   2.017   6.153
10380POPC   GL268042  32.361   1.941   6.153
10380POPC   C1A68043  32.224   2.028   6.453
10380POPC   D2A68044  32.248   2.036   6.753
10380POPC   C3A68045  32.222   2.017   7.053
10380POPC   C4A68046  32.277   2.004   7.353
10380POPC   C1B68047  32.460   1.935   6.453
10380POPC   C2B68048  32.513   1.913   6.753
10380POPC   C3B68049  32.440   1.897   7.053
10380POPC   C4B68050  32.444   1.934   7.353
10381POPC   NC368051  19.826  44.646   5.553
10381POPC   PO468052  19.834  44.659   5.853
10381POPC   GL168053  19.866  44.659   6.153
10381POPC   GL268054  19.991  44.680   6.153
10381POPC   C1A68055  19.834  44.665   6.453
10381POPC   D2A68056  19.852  44.682   6.753
10381POPC   C3A68057  19.828  44.678   7.053
10381POPC   C4A68058  19.840  44.683   7.353
10381POPC   C1B68059  20.070  44.808   6.453
10381POPC   C2B68060  20.039  44.815   6.753
10381POPC   C3B68061  20.075  44.785   7.053
10381POPC   C4B68062  20.012  44.793   7.353
10382POPC   NC368063   9.728  11.290   5.553
10382POPC   PO468064   9.780  11.283   5.853
10382POPC   GL168065   9.736  11.317   6.153
10382POPC   GL268066   9.815  11.409   6.153
10382POPC   C1A68067   9.700  11.310   6.453
10382POPC   D2A68068   9.787  11.319   6.753
10382POPC   C3A68069   9.733  11.273   7.053
10382POPC   C4A68070   9.768  11.319   7.353
10382POPC   C1B68071   9.936  11.482   6.453
10382POPC   C2B68072   9.958  11.435   6.753
10382POPC   C3B68073   9.971  11.482   7.053
10382POPC   C4B68074  10.005  11.432   7.353
10383POPC   NC368075  11.306  21.430   5.553
10383POPC   PO468076  11.286  21.366   5.853
10383POPC   GL168077  11.288  21.378   6.153
10383POPC   GL268078  11.300  21.284   6.153
10383POPC   C1A68079  11.326  21.376   6.453
10383POPC   D2A68080  11.283  21.380   6.753
10383POPC   C3A68081  11.343  21.378   7.053
10383POPC   C4A68082  11.252  21.354   7.353
10383POPC   C1B68083  11.262  21.109   6.453
10383POPC   C2B68084  11.317  21.135   6.753
10383POPC   C3B68085  11.358  21.092   7.053
10383POPC   C4B68086  11.278  21.089   7.353
10384POPC   NC368087  36.904  11.270   5.553
10384POPC   PO468088  36.863  11.258   5.853
10384POPC   GL168089  36.916  11.261   6.153
10384POPC   GL268090  36.976  11.360   6.153
10384POPC   C1A68091  36.875  11.310   6.453
10384POPC   D2A68092  36.860  11.260   6.753
10384POPC   C3A68093  36.907  11.307   7.053
10384POPC   C4A68094  36.879  11.312   7.353
10384POPC   C1B68095  37.089  11.388   6.453
10384POPC   C2B68096  37.120  11.423   6.753
10384POPC   C3B68097  37.114  11.451   7.053
10384POPC   C4B68098  37.107  11.407   7.353
10385POPC   NC368099  19.066   3.539   5.553
10385POPC   PO468100  19.070   3.591   5.853
10385POPC   GL168101  19.037   3.550   6.153
10385POPC   GL268102  19.123   3.412   6.153
10385POPC   C1A68103  19.046   3.526   6.453
10385POPC   D2A68104  19.073   3.554   6.753
10385POPC   C3A68105  19.046   3.494   7.053
10385POPC   C4A68106  19.083   3.587   7.353
10385POPC   C1B68107  19.244   3.375   6.453
10385POPC   C2B68108  19.178   3.372   6.753
10385POPC   C3B68109  19.250   3.316   7.053
10385POPC   C4B68110  19.218   3.374   7.353
10386POPC   NC368111  21.423  15.161   5.553
10386POPC   PO468112  21.367  15.211   5.853
10386POPC   GL168113  21.373  15.191   6.153
10386POPC   GL268114  21.470  15.179   6.153
10386POPC   C1A68115  21.406  15.202   6.453
10386POPC   D2A68116  21.342  15.208   6.753
10386POPC   C3A68117  21.424  15.145   7.053
10386POPC   C4A68118  21.413  15.158   7.353
10386POPC   C1B68119  21.607  15.238   6.453
10386POPC   C2B68120  21.608  15.277   6.753
10386POPC   C3B68121  21.623  15.264   7.053
10386POPC   C4B68122  21.599  15.261   7.353
10387POPC   NC368123   6.668  13.674   5.553
10387POPC   PO468124   6.631  13.663   5.853
10387POPC   GL168125   6.613  13.580   6.153
10387POPC   GL268126   6.552  13.552   6.153
10387POPC   C1A68127   6.674  13.613   6.453
10387POPC   D2A68128   6.612  13.614   6.753
10387POPC   C3A68129   6.684  13.609   7.053
10387POPC   C4A68130   6.610  13.637   7.353
10387POPC   C1B68131   6.428  13.442   6.453
10387POPC   C2B68132   6.420  13.479   6.753
10387POPC   C3B68133   6.469  13.493   7.053
10387POPC   C4B68134   6.461  13.444   7.353
10388POPC   NC368135  23.688  24.509   5.553
10388POPC   PO468136  23.679  24.495   5.853
10388POPC   GL168137  23.731  24.481   6.153
10388POPC   GL268138  23.861  24.583   6.153
10388POPC   C1A68139  23.726  24.475   6.453
10388POPC   D2A68140  23.693  24.529   6.753
10388POPC   C3A68141  23.667  24.469   7.053
10388POPC   C4A68142  23.755  24.522   7.353
10388POPC   C1B68143  23.911  24.658   6.453
10388POPC   C2B68144  23.893  24.632   6.753
10388POPC   C3B68145  23.907  24.648   7.053
10388POPC   C4B68146  23.961  24.655   7.353
10389POPC   NC368147   8.925  27.565   5.553
10389POPC   PO468148   9.013  27.565   5.853
10389POPC   GL168149   8.941  27.629   6.153
10389POPC   GL268150   9.075  27.589   6.153
10389POPC   C1A68151   8.958  27.548   6.453
10389POPC   D2A68152   9.006  27.555   6.753
10389POPC   C3A68153   9.017  27.594   7.053
10389POPC   C4A68154   8.955  27.620   7.353
10389POPC   C1B68155   9.220  27.597   6.453
10389POPC   C2B68156   9.199  27.530   6.753
10389POPC   C3B68157   9.216  27.605   7.053
10389POPC   C4B68158   9.266  27.543   7.353
10390POPC   NC368159  42.289  32.248   5.553
10390POPC   PO468160  42.330  32.260   5.853
10390POPC   GL168161  42.325  32.226   6.153
10390POPC   GL268162  42.308  32.372   6.153
10390POPC   C1A68163  42.358  32.222   6.453
10390POPC   D2A68164  42.326  32.228   6.753
10390POPC   C3A68165  42.363  32.220   7.053
10390POPC   C4A68166  42.325  32.202   7.353
10390POPC   C1B68167  42.226  32.440   6.453
10390POPC   C2B68168  42.193  32.482   6.753
10390POPC   C3B68169  42.225  32.412   7.053
10390POPC   C4B68170  42.185  32.492   7.353
10391POPC   NC368171  36.877  35.386   5.553
10391POPC   PO468172  36.877  35.362   5.853
10391POPC   GL168173  36.924  35.366   6.153
10391POPC   GL268174  36.825  35.210   6.153
10391POPC   C1A68175  36.935  35.366   6.453
10391POPC   D2A68176  36.914  35.390   6.753
10391POPC   C3A68177  36.912  35.400   7.053
10391POPC   C4A68178  36.888  35.364   7.353
10391POPC   C1B68179  36.761  35.171   6.453
10391POPC   C2B68180  36.789  35.147   6.753
10391POPC   C3B68181  36.825  35.152   7.053
10391POPC   C4B68182  36.797  35.116   7.353
10392POPC   NC368183  36.148   4.353   5.553
10392POPC   PO468184  36.147   4.326   5.853
10392POPC   GL168185  36.109   4.284   6.153
10392POPC   GL268186  36.172   4.456   6.153
10392POPC   C1A68187  36.097   4.364   6.453
10392POPC   D2A68188  36.175   4.304   6.753
10392POPC   C3A68189  36.088   4.281   7.053
10392POPC   C4A68190  36.136   4.309   7.353
10392POPC   C1B68191  36.235   4.500   6.453
10392POPC   C2B68192  36.287   4.565   6.753
10392POPC   C3B68193  36.215   4.538   7.053
10392POPC   C4B68194  36.299   4.543   7.353
10393POPC   NC368195  22.959  42.333   5.553
10393POPC   PO468196  22.986  42.330   5.853
10393POPC   GL168197  22.950  42.375   6.153
10393POPC   GL268198  22.804  42.288   6.153
10393POPC   C1A68199  22.890  42.375   6.453
10393POPC   D2A68200  22.893  42.307   6.753
10393POPC   C3A68201  22.891  42.301   7.053
10393POPC   C4A68202  22.923  42.311   7.353
10393POPC   C1B68203  22.679  42.250   6.453
10393POPC   C2B68204  22.650  42.264   6.753
10393POPC   C3B68205  22.672  42.258   7.053
10393POPC   C4B68206  22.743  42.235   7.353
10394POPC   NC368207  14.359  10.539   5.553
10394POPC   PO468208  14.381  10.523   5.853
10394POPC   GL168209  14.416  10.509   6.153
10394POPC   GL268210  14.462  10.416   6.153
10394POPC   C1A68211  14.426  10.529   6.453
10394POPC   D2A68212  14.430  10.488   6.753
10394POPC   C3A68213  14.364  10.564   7.053
10394POPC   C4A68214  14.387  10.482   7.353
10394POPC   C1B68215  14.499  10.296   6.453
10394POPC   C2B68216  14.510  10.329   6.753
10394POPC   C3B68217  14.528  10.265   7.053
10394POPC   C4B68218  14.542  10.307   7.353
10395POPC   NC368219  16.001  19.872   5.553
10395POPC   PO468220  15.931  19.853   5.853
10395POPC   GL168221  15.981  19.869   6.153
10395POPC   GL268222  15.825  19.753   6.153
10395POPC   C1A68223  15.979  19.834   6.453
10395POPC   D2A68224  15.986  19.820   6.753
10395POPC   C3A68225  15.956  19.794   7.053
10395POPC   C4A68226  15.917  19.835   7.353
10395POPC   C1B68227  15.782  19.710   6.453
10395POPC   C2B68228  15.704  19.712   6.753
10395POPC   C3B68229  15.725  19.691   7.053
10395POPC   C4B68230  15.783  19.741   7.353
10396POPC   NC368231  33.039  14.361   5.553
10396POPC   PO468232  33.058  14.417   5.853
10396POPC   GL168233  33.012  14.355   6.153
10396POPC   GL268234  32.993  14.553   6.153
10396POPC   C1A68235  33.015  14.358   6.453
10396POPC   D2A68236  33.060  14.410   6.753
10396POPC   C3A68237  33.004  14.366   7.053
10396POPC   C4A68238  32.977  14.437   7.353
10396POPC   C1B68239  33.036  14.663   6.453
10396POPC   C2B68240  33.091  14.669   6.753
10396POPC   C3B68241  33.053  14.646   7.053
10396POPC   C4B68242  33.035  14.665   7.353
10397POPC   NC368243  26.781  20.588   5.553
10397POPC   PO468244  26.792  20.602   5.853
10397POPC   GL168245  26.771  20.605   6.153
10397POPC   GL268246  26.799  20.535   6.153
10397POPC   C1A68247  26.787  20.644   6.453
10397POPC   D2A68248  26.816  20.594   6.753
10397POPC   C3A68249  26.793  20.568   7.053
10397POPC   C4A68250  26.791  20.576   7.353
10397POPC   C1B68251  26.660  20.367   6.453
10397POPC   C2B68252  26.708  20.407   6.753
10397POPC   C3B68253  26.716  20.441   7.053
10397POPC   C4B68254  26.639  20.376   7.353
10398POPC   NC368255  32.214  27.592   5.553
10398POPC   PO468256  32.280  27.561   5.853
10398POPC   GL168257  32.229  27.581   6.153
10398POPC   GL268258  32.104  27.613   6.153
10398POPC   C1A68259  32.224  27.627   6.453
10398POPC   D2A68260  32.297  27.592   6.753
10398POPC   C3A68261  32.257  27.610   7.053
10398POPC   C4A68262  32.234  27.593   7.353
10398POPC   C1B68263  31.999  27.659   6.453
10398POPC   C2B68264  32.022  27.618   6.753
10398POPC   C3B68265  32.024  27.684   7.053
10398POPC   C4B68266  31.989  27.705   7.353
10399POPC   NC368267   5.098  32.977   5.553
10399POPC   PO468268   5.121  32.987   5.853
10399POPC   GL168269   5.095  33.059   6.153
10399POPC   GL268270   5.128  32.921   6.153
10399POPC   C1A68271   5.059  32.974   6.453
10399POPC   D2A68272   5.138  33.072   6.753
10399POPC   C3A68273   5.048  33.040   7.053
10399POPC   C4A68274   5.070  33.031   7.353
10399POPC   C1B68275   5.159  32.802   6.453
10399POPC   C2B68276   5.174  32.791   6.753
10399POPC   C3B68277   5.198  32.790   7.053
10399POPC   C4B68278   5.192  32.800   7.353
10400POPC   NC368279   8.239  31.480   5.553
10400POPC   PO468280   8.184  31.428   5.853
10400POPC   GL168281   8.162  31.496   6.153
10400POPC   GL268282   8.313  31.507   6.153
10400POPC   C1A68283   8.189  31.521   6.453
10400POPC   D2A68284   8.227  31.515   6.753
10400POPC   C3A68285   8.246  31.430   7.053
10400POPC   C4A68286   8.224  31.435   7.353
10400POPC   C1B68287   8.446  31.553   6.453
10400POPC   C2B68288   8.421  31.554   6.753
10400POPC   C3B68289   8.400  31.563   7.053
10400POPC   C4B68290   8.446  31.580   7.353
10401POPC   NC368291  18.320   0.419   5.553
10401POPC   PO468292  18.273   0.442   5.853
10401POPC   GL168293  18.294   0.477   6.153
10401POPC   GL268294  18.444   0.414   6.153
10401POPC   C1A68295  18.301   0.476   6.453
10401POPC   D2A68296  18.285   0.485   6.753
10401POPC   C3A68297  18.328   0.458   7.053
10401POPC   C4A68298  18.295   0.481   7.353
10401POPC   C1B68299  18.513   0.383   6.453
10401POPC   C2B68300  18.541   0.405   6.753
10401POPC   C3B68301  18.505   0.415   7.053
10401POPC   C4B68302  18.571   0.395   7.353
10402POPC   NC368303  37.638  35.366   5.553
10402POPC   PO468304  37.703  35.368   5.853
10402POPC   GL168305  37.668  35.391   6.153
10402POPC   GL268306  37.671  35.450   6.153
10402POPC   C1A68307  37.644  35.353   6.453
10402POPC   D2A68308  37.714  35.373   6.753
10402POPC   C3A68309  37.630  35.309   7.053
10402POPC   C4A68310  37.641  35.319   7.353
10402POPC   C1B68311  37.619  35.611   6.453
10402POPC   C2B68312  37.587  35.579   6.753
10402POPC   C3B68313  37.560  35.620   7.053
10402POPC   C4B68314  37.606  35.620   7.353
10403POPC   NC368315   4.343  19.022   5.553
10403POPC   PO468316   4.271  19.034   5.853
10403POPC   GL168317   4.338  19.077   6.153
10403POPC   GL268318   4.346  19.187   6.153
10403POPC   C1A68319   4.358  19.078   6.453
10403POPC   D2A68320   4.318  19.055   6.753
10403POPC   C3A68321   4.316  19.014   7.053
10403POPC   C4A68322   4.288  19.083   7.353
10403POPC   C1B68323   4.472  19.295   6.453
10403POPC   C2B68324   4.418  19.315   6.753
10403POPC   C3B68325   4.468  19.271   7.053
10403POPC   C4B68326   4.458  19.260   7.353
10404POPC   NC368327  14.448   9.009   5.553
10404POPC   PO468328  14.415   8.974   5.853
10404POPC   GL168329  14.408   9.007   6.153
10404POPC   GL268330  14.502   8.899   6.153
10404POPC   C1A68331  14.356   9.022   6.453
10404POPC   D2A68332  14.426   8.975   6.753
10404POPC   C3A68333  14.427   8.999   7.053
10404POPC   C4A68334  14.393   8.976   7.353
10404POPC   C1B68335  14.608   8.874   6.453
10404POPC   C2B68336  14.680   8.889   6.753
10404POPC   C3B68337  14.652   8.897   7.053
10404POPC   C4B68338  14.629   8.879   7.353
10405POPC   NC368339   2.729  22.936   5.553
10405POPC   PO468340   2.796  22.909   5.853
10405POPC   GL168341   2.776  22.986   6.153
10405POPC   GL268342   2.860  22.875   6.153
10405POPC   C1A68343   2.733  22.912   6.453
10405POPC   D2A68344   2.774  22.957   6.753
10405POPC   C3A68345   2.754  22.890   7.053
10405POPC   C4A68346   2.760  22.902   7.353
10405POPC   C1B68347   3.032  22.774   6.453
10405POPC   C2B68348   3.033  22.824   6.753
10405POPC   C3B68349   2.966  22.767   7.053
10405POPC   C4B68350   2.982  22.769   7.353
10406POPC   NC368351  12.101  13.642   5.553
10406POPC   PO468352  12.104  13.675   5.853
10406POPC   GL168353  12.046  13.615   6.153
10406POPC   GL268354  12.197  13.628   6.153
10406POPC   C1A68355  12.067  13.609   6.453
10406POPC   D2A68356  12.088  13.633   6.753
10406POPC   C3A68357  12.116  13.580   7.053
10406POPC   C4A68358  12.103  13.589   7.353
10406POPC   C1B68359  12.335  13.608   6.453
10406POPC   C2B68360  12.280  13.701   6.753
10406POPC   C3B68361  12.294  13.637   7.053
10406POPC   C4B68362  12.322  13.700   7.353
10407POPC   NC368363  35.392   7.443   5.553
10407POPC   PO468364  35.329   7.414   5.853
10407POPC   GL168365  35.306   7.461   6.153
10407POPC   GL268366  35.309   7.286   6.153
10407POPC   C1A68367  35.337   7.436   6.453
10407POPC   D2A68368  35.311   7.461   6.753
10407POPC   C3A68369  35.343   7.386   7.053
10407POPC   C4A68370  35.309   7.428   7.353
10407POPC   C1B68371  35.215   7.274   6.453
10407POPC   C2B68372  35.152   7.250   6.753
10407POPC   C3B68373  35.200   7.256   7.053
10407POPC   C4B68374  35.236   7.231   7.353
10408POPC   NC368375  43.864  34.548   5.553
10408POPC   PO468376  43.933  34.603   5.853
10408POPC   GL168377  43.933  34.566   6.153
10408POPC   GL268378  43.991  34.571   6.153
10408POPC   C1A68379  43.897  34.612   6.453
10408POPC   D2A68380  43.864  34.538   6.753
10408POPC   C3A68381  43.925  34.610   7.053
10408POPC   C4A68382  43.890  34.562   7.353
10408POPC   C1B68383  44.141  34.550   6.453
10408POPC   C2B68384  44.098  34.585   6.753
10408POPC   C3B68385  44.134  34.532   7.053
10408POPC   C4B68386  44.161  34.575   7.353
10409POPC   NC368387   1.249  31.470   5.553
10409POPC   PO468388   1.230  31.450   5.853
10409POPC   GL168389   1.233  31.511   6.153
10409POPC   GL268390   1.195  31.626   6.153
10409POPC   C1A68391   1.177  31.452   6.453
10409POPC   D2A68392   1.168  31.476   6.753
10409POPC   C3A68393   1.197  31.504   7.053
10409POPC   C4A68394   1.217  31.423   7.353
10409POPC   C1B68395   1.228  31.743   6.453
10409POPC   C2B68396   1.157  31.763   6.753
10409POPC   C3B68397   1.177  31.745   7.053
10409POPC   C4B68398   1.224  31.676   7.353
10410POPC   NC368399  32.204  36.864   5.553
10410POPC   PO468400  32.249  36.930   5.853
10410POPC   GL168401  32.289  36.939   6.153
10410POPC   GL268402  32.161  36.897   6.153
10410POPC   C1A68403  32.204  36.877   6.453
10410POPC   D2A68404  32.289  36.952   6.753
10410POPC   C3A68405  32.268  36.949   7.053
10410POPC   C4A68406  32.274  36.923   7.353
10410POPC   C1B68407  31.992  36.897   6.453
10410POPC   C2B68408  31.991  36.806   6.753
10410POPC   C3B68409  31.982  36.841   7.053
10410POPC   C4B68410  32.012  36.846   7.353
10411POPC   NC368411  39.272  12.899   5.553
10411POPC   PO468412  39.205  12.877   5.853
10411POPC   GL168413  39.210  12.836   6.153
10411POPC   GL268414  39.342  12.890   6.153
10411POPC   C1A68415  39.246  12.830   6.453
10411POPC   D2A68416  39.206  12.881   6.753
10411POPC   C3A68417  39.235  12.860   7.053
10411POPC   C4A68418  39.272  12.862   7.353
10411POPC   C1B68419  39.498  12.884   6.453
10411POPC   C2B68420  39.464  12.840   6.753
10411POPC   C3B68421  39.470  12.912   7.053
10411POPC   C4B68422  39.527  12.863   7.353
10412POPC   NC368423   9.790  13.609   5.553
10412POPC   PO468424   9.713  13.625   5.853
10412POPC   GL168425   9.749  13.603   6.153
10412POPC   GL268426   9.756  13.711   6.153
10412POPC   C1A68427   9.737  13.670   6.453
10412POPC   D2A68428   9.721  13.641   6.753
10412POPC   C3A68429   9.719  13.634   7.053
10412POPC   C4A68430   9.751  13.583   7.353
10412POPC   C1B68431   9.838  13.919   6.453
10412POPC   C2B68432   9.780  13.837   6.753
10412POPC   C3B68433   9.796  13.878   7.053
10412POPC   C4B68434   9.765  13.886   7.353
10413POPC   NC368435  40.814  19.852   5.553
10413POPC   PO468436  40.766  19.875   5.853
10413POPC   GL168437  40.804  19.881   6.153
10413POPC   GL268438  40.755  19.695   6.153
10413POPC   C1A68439  40.766  19.829   6.453
10413POPC   D2A68440  40.807  19.790   6.753
10413POPC   C3A68441  40.813  19.843   7.053
10413POPC   C4A68442  40.756  19.790   7.353
10413POPC   C1B68443  40.776  19.628   6.453
10413POPC   C2B68444  40.795  19.548   6.753
10413POPC   C3B68445  40.758  19.581   7.053
10413POPC   C4B68446  40.719  19.599   7.353
10414POPC   NC368447   7.407  43.892   5.553
10414POPC   PO468448   7.468  43.932   5.853
10414POPC   GL168449   7.385  43.934   6.153
10414POPC   GL268450   7.545  43.791   6.153
10414POPC   C1A68451   7.416  43.866   6.453
10414POPC   D2A68452   7.433  43.906   6.753
10414POPC   C3A68453   7.468  43.861   7.053
10414POPC   C4A68454   7.407  43.925   7.353
10414POPC   C1B68455   7.586  43.717   6.453
10414POPC   C2B68456   7.608  43.710   6.753
10414POPC   C3B68457   7.654  43.769   7.053
10414POPC   C4B68458   7.606  43.775   7.353
10415POPC   NC368459  36.125   8.993   5.553
10415POPC   PO468460  36.112   8.986   5.853
10415POPC   GL168461  36.126   8.952   6.153
10415POPC   GL268462  36.205   8.947   6.153
10415POPC   C1A68463  36.162   8.924   6.453
10415POPC   D2A68464  36.091   8.969   6.753
10415POPC   C3A68465  36.092   8.956   7.053
10415POPC   C4A68466  36.161   8.971   7.353
10415POPC   C1B68467  36.408   8.982   6.453
10415POPC   C2B68468  36.333   8.973   6.753
10415POPC   C3B68469  36.341   8.922   7.053
10415POPC   C4B68470  36.359   8.915   7.353
10416POPC   NC368471  36.867  43.137   5.553
10416POPC   PO468472  36.868  43.142   5.853
10416POPC   GL168473  36.941  43.123   6.153
10416POPC   GL268474  36.739  43.125   6.153
10416POPC   C1A68475  36.914  43.069   6.453
10416POPC   D2A68476  36.937  43.145   6.753
10416POPC   C3A68477  36.876  43.140   7.053
10416POPC   C4A68478  36.907  43.076   7.353
10416POPC   C1B68479  36.634  43.186   6.453
10416POPC   C2B68480  36.652  43.183   6.753
10416POPC   C3B68481  36.685  43.158   7.053
10416POPC   C4B68482  36.687  43.206   7.353
10417POPC   NC368483   5.896  10.561   5.553
10417POPC   PO468484   5.895  10.520   5.853
10417POPC   GL168485   5.840  10.574   6.153
10417POPC   GL268486   5.850  10.656   6.153
10417POPC   C1A68487   5.884  10.491   6.453
10417POPC   D2A68488   5.845  10.554   6.753
10417POPC   C3A68489   5.891  10.503   7.053
10417POPC   C4A68490   5.846  10.571   7.353
10417POPC   C1B68491   5.815  10.728   6.453
10417POPC   C2B68492   5.767  10.767   6.753
10417POPC   C3B68493   5.836  10.751   7.053
10417POPC   C4B68494   5.848  10.811   7.353
10418POPC   NC368495   7.418  29.894   5.553
10418POPC   PO468496   7.384  29.915   5.853
10418POPC   GL168497   7.436  29.877   6.153
10418POPC   GL268498   7.310  29.802   6.153
10418POPC   C1A68499   7.448  29.912   6.453
10418POPC   D2A68500   7.458  29.922   6.753
10418POPC   C3A68501   7.407  29.881   7.053
10418POPC   C4A68502   7.394  29.907   7.353
10418POPC   C1B68503   7.217  29.800   6.453
10418POPC   C2B68504   7.253  29.735   6.753
10418POPC   C3B68505   7.232  29.806   7.053
10418POPC   C4B68506   7.188  29.746   7.353
10419POPC   NC368507  26.808  33.028   5.553
10419POPC   PO468508  26.782  33.051   5.853
10419POPC   GL168509  26.848  33.044   6.153
10419POPC   GL268510  26.916  33.112   6.153
10419POPC   C1A68511  26.802  33.007   6.453
10419POPC   D2A68512  26.826  33.013   6.753
10419POPC   C3A68513  26.790  33.029   7.053
10419POPC   C4A68514  26.835  33.060   7.353
10419POPC   C1B68515  27.030  33.205   6.453
10419POPC   C2B68516  27.008  33.232   6.753
10419POPC   C3B68517  26.971  33.202   7.053
10419POPC   C4B68518  27.049  33.182   7.353
10420POPC   NC368519   5.141  36.914   5.553
10420POPC   PO468520   5.098  36.859   5.853
10420POPC   GL168521   5.125  36.885   6.153
10420POPC   GL268522   5.236  36.873   6.153
10420POPC   C1A68523   5.107  36.894   6.453
10420POPC   D2A68524   5.043  36.876   6.753
10420POPC   C3A68525   5.099  36.905   7.053
10420POPC   C4A68526   5.080  36.886   7.353
10420POPC   C1B68527   5.388  36.863   6.453
10420POPC   C2B68528   5.347  36.834   6.753
10420POPC   C3B68529   5.317  36.902   7.053
10420POPC   C4B68530   5.306  36.880   7.353
10421POPC   NC368531   1.217  40.012   5.553
10421POPC   PO468532   1.182  39.990   5.853
10421POPC   GL168533   1.240  39.968   6.153
10421POPC   GL268534   1.281  40.141   6.153
10421POPC   C1A68535   1.171  40.055   6.453
10421POPC   D2A68536   1.236  39.960   6.753
10421POPC   C3A68537   1.198  40.049   7.053
10421POPC   C4A68538   1.169  39.960   7.353
10421POPC   C1B68539   1.393  40.179   6.453
10421POPC   C2B68540   1.346  40.190   6.753
10421POPC   C3B68541   1.357  40.216   7.053
10421POPC   C4B68542   1.410  40.219   7.353
10422POPC   NC368543  15.166   7.372   5.553
10422POPC   PO468544  15.176   7.408   5.853
10422POPC   GL168545  15.133   7.470   6.153
10422POPC   GL268546  15.280   7.490   6.153
10422POPC   C1A68547  15.229   7.449   6.453
10422POPC   D2A68548  15.187   7.372   6.753
10422POPC   C3A68549  15.158   7.446   7.053
10422POPC   C4A68550  15.156   7.374   7.353
10422POPC   C1B68551  15.291   7.643   6.453
10422POPC   C2B68552  15.269   7.599   6.753
10422POPC   C3B68553  15.294   7.690   7.053
10422POPC   C4B68554  15.309   7.641   7.353
10423POPC   NC368555  36.911  36.951   5.553
10423POPC   PO468556  36.896  36.897   5.853
10423POPC   GL168557  36.853  36.943   6.153
10423POPC   GL268558  36.758  36.835   6.153
10423POPC   C1A68559  36.931  36.932   6.453
10423POPC   D2A68560  36.862  36.884   6.753
10423POPC   C3A68561  36.862  36.884   7.053
10423POPC   C4A68562  36.882  36.917   7.353
10423POPC   C1B68563  36.687  36.782   6.453
10423POPC   C2B68564  36.650  36.779   6.753
10423POPC   C3B68565  36.683  36.765   7.053
10423POPC   C4B68566  36.717  36.822   7.353
10424POPC   NC368567  25.278  16.734   5.553
10424POPC   PO468568  25.223  16.777   5.853
10424POPC   GL168569  25.218  16.738   6.153
10424POPC   GL268570  25.122  16.739   6.153
10424POPC   C1A68571  25.287  16.696   6.453
10424POPC   D2A68572  25.264  16.684   6.753
10424POPC   C3A68573  25.315  16.683   7.053
10424POPC   C4A68574  25.283  16.695   7.353
10424POPC   C1B68575  25.064  16.835   6.453
10424POPC   C2B68576  25.007  16.816   6.753
10424POPC   C3B68577  25.012  16.823   7.053
10424POPC   C4B68578  25.027  16.780   7.353
10425POPC   NC368579  29.871  37.670   5.553
10425POPC   PO468580  29.906  37.714   5.853
10425POPC   GL168581  29.878  37.700   6.153
10425POPC   GL268582  29.997  37.601   6.153
10425POPC   C1A68583  29.909  37.707   6.453
10425POPC   D2A68584  29.878  37.712   6.753
10425POPC   C3A68585  29.958  37.643   7.053
10425POPC   C4A68586  29.876  37.675   7.353
10425POPC   C1B68587  30.155  37.586   6.453
10425POPC   C2B68588  30.193  37.631   6.753
10425POPC   C3B68589  30.188  37.587   7.053
10425POPC   C4B68590  30.185  37.570   7.353
10426POPC   NC368591  28.388  22.956   5.553
10426POPC   PO468592  28.385  22.940   5.853
10426POPC   GL168593  28.372  22.970   6.153
10426POPC   GL268594  28.196  22.963   6.153
10426POPC   C1A68595  28.329  22.984   6.453
10426POPC   D2A68596  28.322  22.987   6.753
10426POPC   C3A68597  28.358  22.915   7.053
10426POPC   C4A68598  28.320  22.955   7.353
10426POPC   C1B68599  28.133  22.985   6.453
10426POPC   C2B68600  28.107  22.962   6.753
10426POPC   C3B68601  28.088  22.945   7.053
10426POPC   C4B68602  28.146  22.962   7.353
10427POPC   NC368603   1.230  12.066   5.553
10427POPC   PO468604   1.177  12.096   5.853
10427POPC   GL168605   1.206  12.052   6.153
10427POPC   GL268606   1.224  11.912   6.153
10427POPC   C1A68607   1.223  12.106   6.453
10427POPC   D2A68608   1.201  12.031   6.753
10427POPC   C3A68609   1.182  12.056   7.053
10427POPC   C4A68610   1.191  12.059   7.353
10427POPC   C1B68611   1.336  11.793   6.453
10427POPC   C2B68612   1.330  11.857   6.753
10427POPC   C3B68613   1.309  11.834   7.053
10427POPC   C4B68614   1.336  11.856   7.353
10428POPC   NC368615  22.195  41.592   5.553
10428POPC   PO468616  22.128  41.552   5.853
10428POPC   GL168617  22.143  41.586   6.153
10428POPC   GL268618  22.311  41.516   6.153
10428POPC   C1A68619  22.123  41.581   6.453
10428POPC   D2A68620  22.143  41.587   6.753
10428POPC   C3A68621  22.181  41.554   7.053
10428POPC   C4A68622  22.156  41.552   7.353
10428POPC   C1B68623  22.414  41.534   6.453
10428POPC   C2B68624  22.381  41.497   6.753
10428POPC   C3B68625  22.366  41.500   7.053
10428POPC   C4B68626  22.377  41.529   7.353
10429POPC   NC368627  42.375   6.688   5.553
10429POPC   PO468628  42.321   6.688   5.853
10429POPC   GL168629  42.374   6.631   6.153
10429POPC   GL268630  42.391   6.593   6.153
10429POPC   C1A68631  42.376   6.645   6.453
10429POPC   D2A68632  42.364   6.651   6.753
10429POPC   C3A68633  42.356   6.663   7.053
10429POPC   C4A68634  42.382   6.624   7.353
10429POPC   C1B68635  42.510   6.460   6.453
10429POPC   C2B68636  42.457   6.458   6.753
10429POPC   C3B68637  42.518   6.481   7.053
10429POPC   C4B68638  42.489   6.504   7.353
10430POPC   NC368639   8.192  15.950   5.553
10430POPC   PO468640   8.176  15.939   5.853
10430POPC   GL168641   8.194  15.963   6.153
10430POPC   GL268642   8.327  15.953   6.153
10430POPC   C1A68643   8.161  15.970   6.453
10430POPC   D2A68644   8.151  15.997   6.753
10430POPC   C3A68645   8.212  15.910   7.053
10430POPC   C4A68646   8.175  15.933   7.353
10430POPC   C1B68647   8.445  15.943   6.453
10430POPC   C2B68648   8.471  15.887   6.753
10430POPC   C3B68649   8.456  15.892   7.053
10430POPC   C4B68650   8.484  15.952   7.353
10431POPC   NC368651  17.525   5.871   5.553
10431POPC   PO468652  17.524   5.902   5.853
10431POPC   GL168653  17.470   5.914   6.153
10431POPC   GL268654  17.487   6.000   6.153
10431POPC   C1A68655  17.521   5.893   6.453
10431POPC   D2A68656  17.518   5.823   6.753
10431POPC   C3A68657  17.460   5.894   7.053
10431POPC   C4A68658  17.514   5.886   7.353
10431POPC   C1B68659  17.410   6.130   6.453
10431POPC   C2B68660  17.440   6.127   6.753
10431POPC   C3B68661  17.473   6.063   7.053
10431POPC   C4B68662  17.397   6.064   7.353
10432POPC   NC368663  30.657  43.927   5.553
10432POPC   PO468664  30.703  43.857   5.853
10432POPC   GL168665  30.716  43.872   6.153
10432POPC   GL268666  30.540  43.859   6.153
10432POPC   C1A68667  30.726  43.859   6.453
10432POPC   D2A68668  30.656  43.875   6.753
10432POPC   C3A68669  30.648  43.903   7.053
10432POPC   C4A68670  30.694  43.934   7.353
10432POPC   C1B68671  30.454  43.739   6.453
10432POPC   C2B68672  30.467  43.820   6.753
10432POPC   C3B68673  30.496  43.825   7.053
10432POPC   C4B68674  30.465  43.764   7.353
10433POPC   NC368675   8.211  41.519   5.553
10433POPC   PO468676   8.204  41.543   5.853
10433POPC   GL168677   8.195  41.575   6.153
10433POPC   GL268678   8.116  41.433   6.153
10433POPC   C1A68679   8.177  41.584   6.453
10433POPC   D2A68680   8.231  41.594   6.753
10433POPC   C3A68681   8.153  41.555   7.053
10433POPC   C4A68682   8.156  41.570   7.353
10433POPC   C1B68683   8.119  41.298   6.453
10433POPC   C2B68684   8.099  41.316   6.753
10433POPC   C3B68685   8.097  41.366   7.053
10433POPC   C4B68686   8.050  41.304   7.353
10434POPC   NC368687  44.652  36.093   5.553
10434POPC   PO468688  44.672  36.142   5.853
10434POPC   GL168689  44.689  36.084   6.153
10434POPC   GL268690  44.660  36.224   6.153
10434POPC   C1A68691  44.683  36.147   6.453
10434POPC   D2A68692  44.655  36.135   6.753
10434POPC   C3A68693  44.664  36.081   7.053
10434POPC   C4A68694  44.679  36.114   7.353
10434POPC   C1B68695  44.744  36.414   6.453
10434POPC   C2B68696  44.718  36.376   6.753
10434POPC   C3B68697  44.747  36.378   7.053
10434POPC   C4B68698  44.732  36.328   7.353
10435POPC   NC368699  16.706  38.477   5.553
10435POPC   PO468700  16.701  38.413   5.853
10435POPC   GL168701  16.682  38.476   6.153
10435POPC   GL268702  16.850  38.495   6.153
10435POPC   C1A68703  16.740  38.420   6.453
10435POPC   D2A68704  16.736  38.495   6.753
10435POPC   C3A68705  16.767  38.440   7.053
10435POPC   C4A68706  16.754  38.498   7.353
10435POPC   C1B68707  16.952  38.575   6.453
10435POPC   C2B68708  16.919  38.542   6.753
10435POPC   C3B68709  16.922  38.588   7.053
10435POPC   C4B68710  16.969  38.613   7.353
10436POPC   NC368711  40.048  13.613   5.553
10436POPC   PO468712  40.053  13.597   5.853
10436POPC   GL168713  39.986  13.578   6.153
10436POPC   GL268714  39.860  13.532   6.153
10436POPC   C1A68715  40.032  13.607   6.453
10436POPC   D2A68716  39.977  13.603   6.753
10436POPC   C3A68717  39.970  13.613   7.053
10436POPC   C4A68718  40.022  13.654   7.353
10436POPC   C1B68719  39.806  13.514   6.453
10436POPC   C2B68720  39.842  13.472   6.753
10436POPC   C3B68721  39.805  13.492   7.053
10436POPC   C4B68722  39.790  13.479   7.353
10437POPC   NC368723  26.058   1.227   5.553
10437POPC   PO468724  26.034   1.236   5.853
10437POPC   GL168725  26.029   1.173   6.153
10437POPC   GL268726  26.139   1.345   6.153
10437POPC   C1A68727  26.075   1.207   6.453
10437POPC   D2A68728  26.021   1.168   6.753
10437POPC   C3A68729  26.027   1.214   7.053
10437POPC   C4A68730  26.036   1.263   7.353
10437POPC   C1B68731  26.150   1.406   6.453
10437POPC   C2B68732  26.192   1.396   6.753
10437POPC   C3B68733  26.172   1.481   7.053
10437POPC   C4B68734  26.106   1.436   7.353
10438POPC   NC368735  38.433  18.252   5.553
10438POPC   PO468736  38.470  18.328   5.853
10438POPC   GL168737  38.491  18.273   6.153
10438POPC   GL268738  38.362  18.356   6.153
10438POPC   C1A68739  38.470  18.301   6.453
10438POPC   D2A68740  38.424  18.269   6.753
10438POPC   C3A68741  38.455  18.290   7.053
10438POPC   C4A68742  38.493  18.321   7.353
10438POPC   C1B68743  38.384  18.539   6.453
10438POPC   C2B68744  38.333  18.536   6.753
10438POPC   C3B68745  38.323  18.495   7.053
10438POPC   C4B68746  38.339  18.482   7.353
10439POPC   NC368747  16.690  37.655   5.553
10439POPC   PO468748  16.763  37.710   5.853
10439POPC   GL168749  16.715  37.726   6.153
10439POPC   GL268750  16.726  37.529   6.153
10439POPC   C1A68751  16.682  37.672   6.453
10439POPC   D2A68752  16.700  37.697   6.753
10439POPC   C3A68753  16.717  37.711   7.053
10439POPC   C4A68754  16.714  37.677   7.353
10439POPC   C1B68755  16.675  37.478   6.453
10439POPC   C2B68756  16.638  37.475   6.753
10439POPC   C3B68757  16.627  37.399   7.053
10439POPC   C4B68758  16.662  37.440   7.353
10440POPC   NC368759  21.432  21.387   5.553
10440POPC   PO468760  21.424  21.344   5.853
10440POPC   GL168761  21.430  21.394   6.153
10440POPC   GL268762  21.409  21.222   6.153
10440POPC   C1A68763  21.389  21.389   6.453
10440POPC   D2A68764  21.397  21.373   6.753
10440POPC   C3A68765  21.384  21.360   7.053
10440POPC   C4A68766  21.375  21.389   7.353
10440POPC   C1B68767  21.432  21.123   6.453
10440POPC   C2B68768  21.410  21.143   6.753
10440POPC   C3B68769  21.393  21.130   7.053
10440POPC   C4B68770  21.471  21.089   7.353
10441POPC   NC368771   9.725  15.139   5.553
10441POPC   PO468772   9.714  15.210   5.853
10441POPC   GL168773   9.718  15.172   6.153
10441POPC   GL268774   9.817  15.084   6.153
10441POPC   C1A68775   9.796  15.165   6.453
10441POPC   D2A68776   9.730  15.207   6.753
10441POPC   C3A68777   9.739  15.164   7.053
10441POPC   C4A68778   9.726  15.204   7.353
10441POPC   C1B68779  10.016  15.051   6.453
10441POPC   C2B68780   9.968  15.069   6.753
10441POPC   C3B68781  10.006  15.097   7.053
10441POPC   C4B68782   9.939  15.070   7.353
10442POPC   NC368783   9.704  40.753   5.553
10442POPC   PO468784   9.706  40.750   5.853
10442POPC   GL168785   9.776  40.802   6.153
10442POPC   GL268786   9.600  40.897   6.153
10442POPC   C1A68787   9.709  40.802   6.453
10442POPC   D2A68788   9.715  40.795   6.753
10442POPC   C3A68789   9.727  40.816   7.053
10442POPC   C4A68790   9.774  40.786   7.353
10442POPC   C1B68791   9.516  40.887   6.453
10442POPC   C2B68792   9.501  40.943   6.753
10442POPC   C3B68793   9.514  40.960   7.053
10442POPC   C4B68794   9.540  40.936   7.353
10443POPC   NC368795  40.001   9.018   5.553
10443POPC   PO468796  40.035   8.923   5.853
10443POPC   GL168797  39.976   8.983   6.153
10443POPC   GL268798  40.017   8.809   6.153
10443POPC   C1A68799  40.028   9.006   6.453
10443POPC   D2A68800  39.987   8.955   6.753
10443POPC   C3A68801  40.008   8.941   7.053
10443POPC   C4A68802  40.055   8.982   7.353
10443POPC   C1B68803  39.924   8.703   6.453
10443POPC   C2B68804  39.926   8.771   6.753
10443POPC   C3B68805  39.955   8.713   7.053
10443POPC   C4B68806  39.933   8.737   7.353
10444POPC   NC368807   5.140  21.351   5.553
10444POPC   PO468808   5.046  21.358   5.853
10444POPC   GL168809   5.053  21.424   6.153
10444POPC   GL268810   5.033  21.457   6.153
10444POPC   C1A68811   5.099  21.349   6.453
10444POPC   D2A68812   5.056  21.412   6.753
10444POPC   C3A68813   5.073  21.360   7.053
10444POPC   C4A68814   5.076  21.337   7.353
10444POPC   C1B68815   5.017  21.622   6.453
10444POPC   C2B68816   4.980  21.571   6.753
10444POPC   C3B68817   5.003  21.641   7.053
10444POPC   C4B68818   5.021  21.615   7.353
10445POPC   NC368819   5.828  22.159   5.553
10445POPC   PO468820   5.851  22.141   5.853
10445POPC   GL168821   5.864  22.193   6.153
10445POPC   GL268822   5.928  22.285   6.153
10445POPC   C1A68823   5.899  22.172   6.453
10445POPC   D2A68824   5.833  22.134   6.753
10445POPC   C3A68825   5.870  22.128   7.053
10445POPC   C4A68826   5.853  22.199   7.353
10445POPC   C1B68827   5.977  22.403   6.453
10445POPC   C2B68828   5.965  22.354   6.753
10445POPC   C3B68829   5.935  22.431   7.053
10445POPC   C4B68830   5.970  22.406   7.353
10446POPC   NC368831   5.111  29.924   5.553
10446POPC   PO468832   5.045  29.917   5.853
10446POPC   GL168833   5.075  29.917   6.153
10446POPC   GL268834   5.172  30.066   6.153
10446POPC   C1A68835   5.089  29.893   6.453
10446POPC   D2A68836   5.098  29.934   6.753
10446POPC   C3A68837   5.141  29.928   7.053
10446POPC   C4A68838   5.066  29.949   7.353
10446POPC   C1B68839   5.232  30.099   6.453
10446POPC   C2B68840   5.236  30.125   6.753
10446POPC   C3B68841   5.224  30.135   7.053
10446POPC   C4B68842   5.208  30.142   7.353
10447POPC   NC368843  21.403  10.513   5.553
10447POPC   PO468844  21.342  10.544   5.853
10447POPC   GL168845  21.385  10.476   6.153
10447POPC   GL268846  21.341  10.649   6.153
10447POPC   C1A68847  21.432  10.486   6.453
10447POPC   D2A68848  21.382  10.519   6.753
10447POPC   C3A68849  21.430  10.545   7.053
10447POPC   C4A68850  21.391  10.534   7.353
10447POPC   C1B68851  21.274  10.702   6.453
10447POPC   C2B68852  21.202  10.743   6.753
10447POPC   C3B68853  21.267  10.695   7.053
10447POPC   C4B68854  21.268  10.692   7.353
10448POPC   NC368855  33.017  32.274   5.553
10448POPC   PO468856  33.060  32.250   5.853
10448POPC   GL168857  32.989  32.224   6.153
10448POPC   GL268858  33.152  32.202   6.153
10448POPC   C1A68859  32.994  32.222   6.453
10448POPC   D2A68860  33.073  32.248   6.753
10448POPC   C3A68861  32.987  32.296   7.053
10448POPC   C4A68862  33.051  32.289   7.353
10448POPC   C1B68863  33.273  32.151   6.453
10448POPC   C2B68864  33.250  32.065   6.753
10448POPC   C3B68865  33.267  32.107   7.053
10448POPC   C4B68866  33.268  32.125   7.353
10449POPC   NC368867  24.530  43.145   5.553
10449POPC   PO468868  24.536  43.141   5.853
10449POPC   GL168869  24.454  43.122   6.153
10449POPC   GL268870  24.604  43.048   6.153
10449POPC   C1A68871  24.502  43.086   6.453
10449POPC   D2A68872  24.516  43.144   6.753
10449POPC   C3A68873  24.464  43.082   7.053
10449POPC   C4A68874  24.521  43.106   7.353
10449POPC   C1B68875  24.710  42.957   6.453
10449POPC   C2B68876  24.756  42.969   6.753
10449POPC   C3B68877  24.674  42.991   7.053
10449POPC   C4B68878  24.750  42.960   7.353
10450POPC   NC368879  39.273  40.006   5.553
10450POPC   PO468880  39.238  39.957   5.853
10450POPC   GL168881  39.184  40.041   6.153
10450POPC   GL268882  39.166  40.145   6.153
10450POPC   C1A68883  39.241  40.022   6.453
10450POPC   D2A68884  39.186  39.989   6.753
10450POPC   C3A68885  39.241  39.981   7.053
10450POPC   C4A68886  39.240  39.984   7.353
10450POPC   C1B68887  39.146  40.264   6.453
10450POPC   C2B68888  39.153  40.253   6.753
10450POPC   C3B68889  39.135  40.219   7.053
10450POPC   C4B68890  39.107  40.246   7.353
10451POPC   NC368891   2.753  15.992   5.553
10451POPC   PO468892   2.749  16.004   5.853
10451POPC   GL168893   2.720  16.001   6.153
10451POPC   GL268894   2.853  15.959   6.153
10451POPC   C1A68895   2.793  15.986   6.453
10451POPC   D2A68896   2.750  15.912   6.753
10451POPC   C3A68897   2.726  15.967   7.053
10451POPC   C4A68898   2.813  15.907   7.353
10451POPC   C1B68899   2.981  16.011   6.453
10451POPC   C2B68900   2.966  16.008   6.753
10451POPC   C3B68901   3.017  15.991   7.053
10451POPC   C4B68902   3.013  16.080   7.353
10452POPC   NC368903  35.356  14.442   5.553
10452POPC   PO468904  35.352  14.404   5.853
10452POPC   GL168905  35.370  14.451   6.153
10452POPC   GL268906  35.228  14.519   6.153
10452POPC   C1A68907  35.314  14.374   6.453
10452POPC   D2A68908  35.339  14.355   6.753
10452POPC   C3A68909  35.377  14.418   7.053
10452POPC   C4A68910  35.381  14.397   7.353
10452POPC   C1B68911  35.114  14.568   6.453
10452POPC   C2B68912  35.124  14.582   6.753
10452POPC   C3B68913  35.134  14.594   7.053
10452POPC   C4B68914  35.193  14.578   7.353
10453POPC   NC368915   2.760  12.034   5.553
10453POPC   PO468916   2.768  12.065   5.853
10453POPC   GL168917   2.763  12.088   6.153
10453POPC   GL268918   2.822  12.200   6.153
10453POPC   C1A68919   2.807  12.119   6.453
10453POPC   D2A68920   2.779  12.107   6.753
10453POPC   C3A68921   2.793  12.124   7.053
10453POPC   C4A68922   2.745  12.034   7.353
10453POPC   C1B68923   2.812  12.314   6.453
10453POPC   C2B68924   2.783  12.335   6.753
10453POPC   C3B68925   2.783  12.363   7.053
10453POPC   C4B68926   2.827  12.278   7.353
10454POPC   NC368927  38.438  32.267   5.553
10454POPC   PO468928  38.456  32.291   5.853
10454POPC   GL168929  38.447  32.248   6.153
10454POPC   GL268930  38.500  32.103   6.153
10454POPC   C1A68931  38.413  32.287   6.453
10454POPC   D2A68932  38.423  32.291   6.753
10454POPC   C3A68933  38.445  32.286   7.053
10454POPC   C4A68934  38.483  32.222   7.353
10454POPC   C1B68935  38.523  32.003   6.453
10454POPC   C2B68936  38.505  32.048   6.753
10454POPC   C3B68937  38.507  31.975   7.053
10454POPC   C4B68938  38.558  31.970   7.353
10455POPC   NC368939  40.000  14.369   5.553
10455POPC   PO468940  40.009  14.419   5.853
10455POPC   GL168941  39.978  14.395   6.153
10455POPC   GL268942  39.902  14.346   6.153
10455POPC   C1A68943  39.998  14.387   6.453
10455POPC   D2A68944  40.016  14.420   6.753
10455POPC   C3A68945  40.052  14.381   7.053
10455POPC   C4A68946  40.033  14.366   7.353
10455POPC   C1B68947  39.758  14.230   6.453
10455POPC   C2B68948  39.816  14.246   6.753
10455POPC   C3B68949  39.764  14.259   7.053
10455POPC   C4B68950  39.764  14.231   7.353
10456POPC   NC368951   7.391  30.670   5.553
10456POPC   PO468952   7.469  30.704   5.853
10456POPC   GL168953   7.373  30.651   6.153
10456POPC   GL268954   7.532  30.667   6.153
10456POPC   C1A68955   7.459  30.746   6.453
10456POPC   D2A68956   7.386  30.659   6.753
10456POPC   C3A68957   7.394  30.659   7.053
10456POPC   C4A68958   7.383  30.689   7.353
10456POPC   C1B68959   7.709  30.652   6.453
10456POPC   C2B68960   7.691  30.645   6.753
10456POPC   C3B68961   7.694  30.668   7.053
10456POPC   C4B68962   7.650  30.625   7.353
10457POPC   NC368963  15.912  22.181   5.553
10457POPC   PO468964  15.955  22.143   5.853
10457POPC   GL168965  15.915  22.163   6.153
10457POPC   GL268966  15.903  22.227   6.153
10457POPC   C1A68967  15.922  22.149   6.453
10457POPC   D2A68968  15.972  22.203   6.753
10457POPC   C3A68969  15.914  22.132   7.053
10457POPC   C4A68970  15.942  22.113   7.353
10457POPC   C1B68971  15.759  22.331   6.453
10457POPC   C2B68972  15.765  22.309   6.753
10457POPC   C3B68973  15.769  22.320   7.053
10457POPC   C4B68974  15.759  22.360   7.353
10458POPC   NC368975   6.631  39.237   5.553
10458POPC   PO468976   6.685  39.251   5.853
10458POPC   GL168977   6.665  39.260   6.153
10458POPC   GL268978   6.573  39.389   6.153
10458POPC   C1A68979   6.662  39.231   6.453
10458POPC   D2A68980   6.652  39.182   6.753
10458POPC   C3A68981   6.641  39.226   7.053
10458POPC   C4A68982   6.608  39.219   7.353
10458POPC   C1B68983   6.635  39.446   6.453
10458POPC   C2B68984   6.639  39.456   6.753
10458POPC   C3B68985   6.633  39.469   7.053
10458POPC   C4B68986   6.551  39.438   7.353
10459POPC   NC368987  43.858  36.927   5.553
10459POPC   PO468988  43.902  36.941   5.853
10459POPC   GL168989  43.916  36.870   6.153
10459POPC   GL268990  44.012  36.901   6.153
10459POPC   C1A68991  43.911  36.916   6.453
10459POPC   D2A68992  43.917  36.871   6.753
10459POPC   C3A68993  43.918  36.892   7.053
10459POPC   C4A68994  43.881  36.933   7.353
10459POPC   C1B68995  44.121  36.895   6.453
10459POPC   C2B68996  44.167  36.905   6.753
10459POPC   C3B68997  44.102  36.882   7.053
10459POPC   C4B68998  44.153  36.931   7.353
10460POPC   NC368999   3.569  19.024   5.553
10460POPC   PO469000   3.492  19.055   5.853
10460POPC   GL169001   3.563  19.044   6.153
10460POPC   GL269002   3.532  19.124   6.153
10460POPC   C1A69003   3.548  19.066   6.453
10460POPC   D2A69004   3.579  19.050   6.753
10460POPC   C3A69005   3.526  19.014   7.053
10460POPC   C4A69006   3.536  19.101   7.353
10460POPC   C1B69007   3.467  19.236   6.453
10460POPC   C2B69008   3.401  19.293   6.753
10460POPC   C3B69009   3.419  19.299   7.053
10460POPC   C4B69010   3.421  19.293   7.353
10461POPC   NC369011  43.891  31.482   5.553
10461POPC   PO469012  43.843  31.482   5.853
10461POPC   GL169013  43.856  31.474   6.153
10461POPC   GL269014  43.864  31.392   6.153
10461POPC   C1A69015  43.874  31.520   6.453
10461POPC   D2A69016  43.876  31.463   6.753
10461POPC   C3A69017  43.891  31.433   7.053
10461POPC   C4A69018  43.917  31.485   7.353
10461POPC   C1B69019  43.874  31.237   6.453
10461POPC   C2B69020  43.932  31.194   6.753
10461POPC   C3B69021  43.916  31.211   7.053
10461POPC   C4B69022  43.947  31.268   7.353
10462POPC   NC369023  32.205  29.928   5.553
10462POPC   PO469024  32.285  29.906   5.853
10462POPC   GL169025  32.204  29.943   6.153
10462POPC   GL269026  32.194  30.030   6.153
10462POPC   C1A69027  32.224  29.876   6.453
10462POPC   D2A69028  32.259  29.960   6.753
10462POPC   C3A69029  32.241  29.940   7.053
10462POPC   C4A69030  32.203  29.916   7.353
10462POPC   C1B69031  32.175  30.142   6.453
10462POPC   C2B69032  32.139  30.197   6.753
10462POPC   C3B69033  32.153  30.107   7.053
10462POPC   C4B69034  32.187  30.117   7.353
10463POPC   NC369035  26.015  19.795   5.553
10463POPC   PO469036  26.081  19.805   5.853
10463POPC   GL169037  26.007  19.883   6.153
10463POPC   GL269038  26.016  19.985   6.153
10463POPC   C1A69039  25.993  19.824   6.453
10463POPC   D2A69040  26.073  19.844   6.753
10463POPC   C3A69041  25.997  19.842   7.053
10463POPC   C4A69042  26.020  19.839   7.353
10463POPC   C1B69043  26.048  20.062   6.453
10463POPC   C2B69044  26.035  20.129   6.753
10463POPC   C3B69045  26.058  20.037   7.053
10463POPC   C4B69046  26.057  20.088   7.353
10464POPC   NC369047  20.654  22.964   5.553
10464POPC   PO469048  20.650  22.951   5.853
10464POPC   GL169049  20.633  22.941   6.153
10464POPC   GL269050  20.482  22.876   6.153
10464POPC   C1A69051  20.630  22.985   6.453
10464POPC   D2A69052  20.635  22.893   6.753
10464POPC   C3A69053  20.645  22.888   7.053
10464POPC   C4A69054  20.580  22.895   7.353
10464POPC   C1B69055  20.339  22.775   6.453
10464POPC   C2B69056  20.356  22.845   6.753
10464POPC   C3B69057  20.343  22.786   7.053
10464POPC   C4B69058  20.341  22.828   7.353
10465POPC   NC369059   5.851   8.175   5.553
10465POPC   PO469060   5.908   8.244   5.853
10465POPC   GL169061   5.890   8.215   6.153
10465POPC   GL269062   5.833   8.100   6.153
10465POPC   C1A69063   5.918   8.174   6.453
10465POPC   D2A69064   5.859   8.171   6.753
10465POPC   C3A69065   5.878   8.216   7.053
10465POPC   C4A69066   5.896   8.220   7.353
10465POPC   C1B69067   5.799   7.976   6.453
10465POPC   C2B69068   5.833   7.910   6.753
10465POPC   C3B69069   5.833   7.917   7.053
10465POPC   C4B69070   5.786   8.000   7.353
10466POPC   NC369071  38.421   8.937   5.553
10466POPC   PO469072  38.461   8.998   5.853
10466POPC   GL169073  38.442   9.008   6.153
10466POPC   GL269074  38.561   8.996   6.153
10466POPC   C1A69075  38.495   8.998   6.453
10466POPC   D2A69076  38.420   8.942   6.753
10466POPC   C3A69077  38.474   8.953   7.053
10466POPC   C4A69078  38.470   8.982   7.353
10466POPC   C1B69079  38.738   8.985   6.453
10466POPC   C2B69080  38.686   8.942   6.753
10466POPC   C3B69081  38.680   8.944   7.053
10466POPC   C4B69082  38.670   8.994   7.353
10467POPC   NC369083  29.152  12.082   5.553
10467POPC   PO469084  29.134  12.055   5.853
10467POPC   GL169085  29.111  12.043   6.153
10467POPC   GL269086  29.163  11.962   6.153
10467POPC   C1A69087  29.119  12.039   6.453
10467POPC   D2A69088  29.137  12.072   6.753
10467POPC   C3A69089  29.130  12.103   7.053
10467POPC   C4A69090  29.105  12.072   7.353
10467POPC   C1B69091  29.279  11.834   6.453
10467POPC   C2B69092  29.289  11.831   6.753
10467POPC   C3B69093  29.233  11.850   7.053
10467POPC   C4B69094  29.300  11.898   7.353
10468POPC   NC369095  38.463  21.348   5.553
10468POPC   PO469096  38.447  21.402   5.853
10468POPC   GL169097  38.445  21.387   6.153
10468POPC   GL269098  38.317  21.418   6.153
10468POPC   C1A69099  38.431  21.408   6.453
10468POPC   D2A69100  38.490  21.396   6.753
10468POPC   C3A69101  38.501  21.397   7.053
10468POPC   C4A69102  38.486  21.379   7.353
10468POPC   C1B69103  38.199  21.507   6.453
10468POPC   C2B69104  38.206  21.453   6.753
10468POPC   C3B69105  38.180  21.440   7.053
10468POPC   C4B69106  38.230  21.477   7.353
10469POPC   NC369107  28.405   3.514   5.553
10469POPC   PO469108  28.418   3.575   5.853
10469POPC   GL169109  28.414   3.501   6.153
10469POPC   GL269110  28.480   3.412   6.153
10469POPC   C1A69111  28.410   3.503   6.453
10469POPC   D2A69112  28.367   3.562   6.753
10469POPC   C3A69113  28.320   3.524   7.053
10469POPC   C4A69114  28.375   3.527   7.353
10469POPC   C1B69115  28.542   3.383   6.453
10469POPC   C2B69116  28.505   3.316   6.753
10469POPC   C3B69117  28.547   3.319   7.053
10469POPC   C4B69118  28.532   3.371   7.353
10470POPC   NC369119  15.187  22.163   5.553
10470POPC   PO469120  15.193  22.130   5.853
10470POPC   GL169121  15.193  22.192   6.153
10470POPC   GL269122  15.040  22.197   6.153
10470POPC   C1A69123  15.173  22.140   6.453
10470POPC   D2A69124  15.181  22.118   6.753
10470POPC   C3A69125  15.228  22.195   7.053
10470POPC   C4A69126  15.150  22.199   7.353
10470POPC   C1B69127  14.962  22.280   6.453
10470POPC   C2B69128  14.965  22.302   6.753
10470POPC   C3B69129  14.935  22.338   7.053
10470POPC   C4B69130  14.929  22.319   7.353
10471POPC   NC369131  24.457  23.730   5.553
10471POPC   PO469132  24.449  23.728   5.853
10471POPC   GL169133  24.470  23.734   6.153
10471POPC   GL269134  24.505  23.580   6.153
10471POPC   C1A69135  24.447  23.744   6.453
10471POPC   D2A69136  24.507  23.740   6.753
10471POPC   C3A69137  24.535  23.713   7.053
10471POPC   C4A69138  24.488  23.695   7.353
10471POPC   C1B69139  24.563  23.500   6.453
10471POPC   C2B69140  24.536  23.481   6.753
10471POPC   C3B69141  24.511  23.466   7.053
10471POPC   C4B69142  24.498  23.517   7.353
10472POPC   NC369143  36.107   8.201   5.553
10472POPC   PO469144  36.163   8.217   5.853
10472POPC   GL169145  36.143   8.191   6.153
10472POPC   GL269146  36.218   8.234   6.153
10472POPC   C1A69147  36.117   8.224   6.453
10472POPC   D2A69148  36.110   8.234   6.753
10472POPC   C3A69149  36.136   8.168   7.053
10472POPC   C4A69150  36.078   8.163   7.353
10472POPC   C1B69151  36.419   8.210   6.453
10472POPC   C2B69152  36.360   8.153   6.753
10472POPC   C3B69153  36.339   8.129   7.053
10472POPC   C4B69154  36.385   8.148   7.353
10473POPC   NC369155  36.108  10.535   5.553
10473POPC   PO469156  36.164  10.528   5.853
10473POPC   GL169157  36.103  10.528   6.153
10473POPC   GL269158  36.017  10.572   6.153
10473POPC   C1A69159  36.171  10.475   6.453
10473POPC   D2A69160  36.136  10.501   6.753
10473POPC   C3A69161  36.103  10.493   7.053
10473POPC   C4A69162  36.097  10.502   7.353
10473POPC   C1B69163  35.853  10.590   6.453
10473POPC   C2B69164  35.859  10.558   6.753
10473POPC   C3B69165  35.836  10.608   7.053
10473POPC   C4B69166  35.922  10.585   7.353
10474POPC   NC369167  39.268  19.801   5.553
10474POPC   PO469168  39.196  19.844   5.853
10474POPC   GL169169  39.202  19.792   6.153
10474POPC   GL269170  39.110  19.863   6.153
10474POPC   C1A69171  39.268  19.801   6.453
10474POPC   D2A69172  39.227  19.874   6.753
10474POPC   C3A69173  39.274  19.851   7.053
10474POPC   C4A69174  39.244  19.832   7.353
10474POPC   C1B69175  38.988  19.890   6.453
10474POPC   C2B69176  39.018  19.844   6.753
10474POPC   C3B69177  38.937  19.916   7.053
10474POPC   C4B69178  39.008  19.833   7.353
10475POPC   NC369179  34.526   5.898   5.553
10475POPC   PO469180  34.580   5.870   5.853
10475POPC   GL169181  34.549   5.846   6.153
10475POPC   GL269182  34.522   5.769   6.153
10475POPC   C1A69183  34.606   5.879   6.453
10475POPC   D2A69184  34.551   5.860   6.753
10475POPC   C3A69185  34.586   5.904   7.053
10475POPC   C4A69186  34.613   5.864   7.353
10475POPC   C1B69187  34.381   5.703   6.453
10475POPC   C2B69188  34.449   5.664   6.753
10475POPC   C3B69189  34.436   5.645   7.053
10475POPC   C4B69190  34.373   5.655   7.353
10476POPC   NC369191  39.261  27.560   5.553
10476POPC   PO469192  39.219  27.574   5.853
10476POPC   GL169193  39.212  27.614   6.153
10476POPC   GL269194  39.141  27.522   6.153
10476POPC   C1A69195  39.205  27.635   6.453
10476POPC   D2A69196  39.266  27.594   6.753
10476POPC   C3A69197  39.205  27.590   7.053
10476POPC   C4A69198  39.207  27.566   7.353
10476POPC   C1B69199  39.065  27.334   6.453
10476POPC   C2B69200  39.097  27.373   6.753
10476POPC   C3B69201  39.115  27.414   7.053
10476POPC   C4B69202  39.116  27.393   7.353
10477POPC   NC369203  37.662  17.495   5.553
10477POPC   PO469204  37.658  17.503   5.853
10477POPC   GL169205  37.684  17.508   6.153
10477POPC   GL269206  37.722  17.621   6.153
10477POPC   C1A69207  37.701  17.502   6.453
10477POPC   D2A69208  37.726  17.460   6.753
10477POPC   C3A69209  37.673  17.522   7.053
10477POPC   C4A69210  37.703  17.491   7.353
10477POPC   C1B69211  37.894  17.684   6.453
10477POPC   C2B69212  37.863  17.673   6.753
10477POPC   C3B69213  37.893  17.716   7.053
10477POPC   C4B69214  37.839  17.654   7.353
10478POPC   NC369215  23.744  37.675   5.553
10478POPC   PO469216  23.697  37.691   5.853
10478POPC   GL169217  23.749  37.652   6.153
10478POPC   GL269218  23.641  37.788   6.153
10478POPC   C1A69219  23.700  37.656   6.453
10478POPC   D2A69220  23.677  37.679   6.753
10478POPC   C3A69221  23.745  37.683   7.053
10478POPC   C4A69222  23.720  37.709   7.353
10478POPC   C1B69223  23.566  37.856   6.453
10478POPC   C2B69224  23.592  37.855   6.753
10478POPC   C3B69225  23.574  37.906   7.053
10478POPC   C4B69226  23.559  37.916   7.353
10479POPC   NC369227  10.553  43.071   5.553
10479POPC   PO469228  10.514  43.150   5.853
10479POPC   GL169229  10.565  43.068   6.153
10479POPC   GL269230  10.534  43.242   6.153
10479POPC   C1A69231  10.481  43.061   6.453
10479POPC   D2A69232  10.558  43.084   6.753
10479POPC   C3A69233  10.543  43.083   7.053
10479POPC   C4A69234  10.561  43.089   7.353
10479POPC   C1B69235  10.578  43.342   6.453
10479POPC   C2B69236  10.586  43.385   6.753
10479POPC   C3B69237  10.561  43.353   7.053
10479POPC   C4B69238  10.555  43.366   7.353
10480POPC   NC369239   5.139  23.732   5.553
10480POPC   PO469240   5.136  23.714   5.853
10480POPC   GL169241   5.121  23.702   6.153
10480POPC   GL269242   5.065  23.577   6.153
10480POPC   C1A69243   5.142  23.752   6.453
10480POPC   D2A69244   5.142  23.762   6.753
10480POPC   C3A69245   5.094  23.681   7.053
10480POPC   C4A69246   5.111  23.753   7.353
10480POPC   C1B69247   5.003  23.521   6.453
10480POPC   C2B69248   4.985  23.466   6.753
10480POPC   C3B69249   5.012  23.445   7.053
10480POPC   C4B69250   5.034  23.511   7.353
10481POPC   NC369251  29.171  38.480   5.553
10481POPC   PO469252  29.171  38.425   5.853
10481POPC   GL169253  29.136  38.480   6.153
10481POPC   GL269254  29.070  38.520   6.153
10481POPC   C1A69255  29.128  38.446   6.453
10481POPC   D2A69256  29.158  38.486   6.753
10481POPC   C3A69257  29.177  38.412   7.053
10481POPC   C4A69258  29.183  38.452   7.353
10481POPC   C1B69259  28.919  38.507   6.453
10481POPC   C2B69260  28.939  38.533   6.753
10481POPC   C3B69261  28.921  38.467   7.053
10481POPC   C4B69262  28.929  38.539   7.353
10482POPC   NC369263  12.077  44.695   5.553
10482POPC   PO469264  12.030  44.671   5.853
10482POPC   GL169265  12.096  44.638   6.153
10482POPC   GL269266  11.937  44.604   6.153
10482POPC   C1A69267  12.036  44.656   6.453
10482POPC   D2A69268  12.101  44.695   6.753
10482POPC   C3A69269  12.107  44.651   7.053
10482POPC   C4A69270  12.054  44.646   7.353
10482POPC   C1B69271  11.925  44.522   6.453
10482POPC   C2B69272  11.910  44.526   6.753
10482POPC   C3B69273  11.869  44.500   7.053
10482POPC   C4B69274  11.865  44.515   7.353
10483POPC   NC369275  43.893  15.138   5.553
10483POPC   PO469276  43.902  15.223   5.853
10483POPC   GL169277  43.862  15.150   6.153
10483POPC   GL269278  43.930  15.269   6.153
10483POPC   C1A69279  43.869  15.194   6.453
10483POPC   D2A69280  43.912  15.138   6.753
10483POPC   C3A69281  43.886  15.227   7.053
10483POPC   C4A69282  43.904  15.147   7.353
10483POPC   C1B69283  43.851  15.398   6.453
10483POPC   C2B69284  43.895  15.441   6.753
10483POPC   C3B69285  43.839  15.443   7.053
10483POPC   C4B69286  43.926  15.384   7.353
10484POPC   NC369287  42.312  42.308   5.553
10484POPC   PO469288  42.382  42.382   5.853
10484POPC   GL169289  42.288  42.290   6.153
10484POPC   GL269290  42.457  42.432   6.153
10484POPC   C1A69291  42.287  42.316   6.453
10484POPC   D2A69292  42.307  42.301   6.753
10484POPC   C3A69293  42.340  42.315   7.053
10484POPC   C4A69294  42.378  42.322   7.353
10484POPC   C1B69295  42.504  42.578   6.453
10484POPC   C2B69296  42.443  42.561   6.753
10484POPC   C3B69297  42.453  42.537   7.053
10484POPC   C4B69298  42.510  42.579   7.353
10485POPC   NC369299  40.737  37.711   5.553
10485POPC   PO469300  40.781  37.692   5.853
10485POPC   GL169301  40.777  37.698   6.153
10485POPC   GL269302  40.828  37.752   6.153
10485POPC   C1A69303  40.805  37.655   6.453
10485POPC   D2A69304  40.793  37.641   6.753
10485POPC   C3A69305  40.816  37.691   7.053
10485POPC   C4A69306  40.778  37.689   7.353
10485POPC   C1B69307  40.992  37.909   6.453
10485POPC   C2B69308  40.962  37.888   6.753
10485POPC   C3B69309  40.995  37.873   7.053
10485POPC   C4B69310  40.918  37.912   7.353
10486POPC   NC369311  17.464  44.706   5.553
10486POPC   PO469312  17.478  44.703   5.853
10486POPC   GL169313  17.464  44.707   6.153
10486POPC   GL269314  17.499  44.592   6.153
10486POPC   C1A69315  17.462  44.617   6.453
10486POPC   D2A69316  17.550  44.684   6.753
10486POPC   C3A69317  17.474  44.687   7.053
10486POPC   C4A69318  17.473  44.683   7.353
10486POPC   C1B69319  17.429  44.398   6.453
10486POPC   C2B69320  17.367  44.472   6.753
10486POPC   C3B69321  17.366  44.470   7.053
10486POPC   C4B69322  17.361  44.470   7.353
10487POPC   NC369323  25.231  25.219   5.553
10487POPC   PO469324  25.291  25.240   5.853
10487POPC   GL169325  25.293  25.301   6.153
10487POPC   GL269326  25.350  25.314   6.153
10487POPC   C1A69327  25.232  25.259   6.453
10487POPC   D2A69328  25.291  25.233   6.753
10487POPC   C3A69329  25.306  25.260   7.053
10487POPC   C4A69330  25.279  25.257   7.353
10487POPC   C1B69331  25.532  25.412   6.453
10487POPC   C2B69332  25.443  25.375   6.753
10487POPC   C3B69333  25.476  25.363   7.053
10487POPC   C4B69334  25.527  25.360   7.353
10488POPC   NC369335  40.767  42.291   5.553
10488POPC   PO469336  40.824  42.322   5.853
10488POPC   GL169337  40.753  42.305   6.153
10488POPC   GL269338  40.655  42.277   6.153
10488POPC   C1A69339  40.815  42.345   6.453
10488POPC   D2A69340  40.771  42.289   6.753
10488POPC   C3A69341  40.823  42.321   7.053
10488POPC   C4A69342  40.804  42.344   7.353
10488POPC   C1B69343  40.534  42.227   6.453
10488POPC   C2B69344  40.542  42.228   6.753
10488POPC   C3B69345  40.591  42.216   7.053
10488POPC   C4B69346  40.605  42.181   7.353
10489POPC   NC369347  38.478  35.400   5.553
10489POPC   PO469348  38.465  35.360   5.853
10489POPC   GL169349  38.437  35.368   6.153
10489POPC   GL269350  38.379  35.395   6.153
10489POPC   C1A69351  38.453  35.350   6.453
10489POPC   D2A69352  38.469  35.366   6.753
10489POPC   C3A69353  38.454  35.330   7.053
10489POPC   C4A69354  38.407  35.314   7.353
10489POPC   C1B69355  38.264  35.497   6.453
10489POPC   C2B69356  38.245  35.450   6.753
10489POPC   C3B69357  38.281  35.430   7.053
10489POPC   C4B69358  38.254  35.488   7.353
10490POPC   NC369359  22.973  31.498   5.553
10490POPC   PO469360  22.917  31.519   5.853
10490POPC   GL169361  22.909  31.460   6.153
10490POPC   GL269362  22.967  31.567   6.153
10490POPC   C1A69363  22.953  31.488   6.453
10490POPC   D2A69364  22.956  31.510   6.753
10490POPC   C3A69365  22.941  31.447   7.053
10490POPC   C4A69366  22.948  31.490   7.353
10490POPC   C1B69367  23.091  31.687   6.453
10490POPC   C2B69368  23.038  31.652   6.753
10490POPC   C3B69369  23.086  31.682   7.053
10490POPC   C4B69370  23.046  31.693   7.353
10491POPC   NC369371  43.127  30.652   5.553
10491POPC   PO469372  43.113  30.667   5.853
10491POPC   GL169373  43.156  30.737   6.153
10491POPC   GL269374  43.278  30.743   6.153
10491POPC   C1A69375  43.140  30.688   6.453
10491POPC   D2A69376  43.130  30.693   6.753
10491POPC   C3A69377  43.110  30.660   7.053
10491POPC   C4A69378  43.105  30.658   7.353
10491POPC   C1B69379  43.312  30.785   6.453
10491POPC   C2B69380  43.313  30.743   6.753
10491POPC   C3B69381  43.375  30.735   7.053
10491POPC   C4B69382  43.355  30.772   7.353
10492POPC   NC369383   2.022  23.722   5.553
10492POPC   PO469384   1.999  23.676   5.853
10492POPC   GL169385   1.943  23.679   6.153
10492POPC   GL269386   1.952  23.630   6.153
10492POPC   C1A69387   1.968  23.747   6.453
10492POPC   D2A69388   1.958  23.664   6.753
10492POPC   C3A69389   2.037  23.691   7.053
10492POPC   C4A69390   1.955  23.703   7.353
10492POPC   C1B69391   1.912  23.519   6.453
10492POPC   C2B69392   1.895  23.477   6.753
10492POPC   C3B69393   1.963  23.482   7.053
10492POPC   C4B69394   1.968  23.497   7.353
10493POPC   NC369395  29.911  38.453   5.553
10493POPC   PO469396  29.897  38.442   5.853
10493POPC   GL169397  29.894  38.470   6.153
10493POPC   GL269398  29.785  38.529   6.153
10493POPC   C1A69399  29.961  38.421   6.453
10493POPC   D2A69400  29.916  38.473   6.753
10493POPC   C3A69401  29.898  38.453   7.053
10493POPC   C4A69402  29.890  38.467   7.353
10493POPC   C1B69403  29.659  38.626   6.453
10493POPC   C2B69404  29.663  38.573   6.753
10493POPC   C3B69405  29.694  38.626   7.053
10493POPC   C4B69406  29.668  38.538   7.353
10494POPC   NC369407  41.563  15.991   5.553
10494POPC   PO469408  41.555  15.939   5.853
10494POPC   GL169409  41.567  15.950   6.153
10494POPC   GL269410  41.579  16.080   6.153
10494POPC   C1A69411  41.549  16.005   6.453
10494POPC   D2A69412  41.593  15.967   6.753
10494POPC   C3A69413  41.548  15.922   7.053
10494POPC   C4A69414  41.588  15.919   7.353
10494POPC   C1B69415  41.627  16.140   6.453
10494POPC   C2B69416  41.618  16.140   6.753
10494POPC   C3B69417  41.651  16.172   7.053
10494POPC   C4B69418  41.688  16.153   7.353
10495POPC   NC369419  32.229   8.223   5.553
10495POPC   PO469420  32.289   8.169   5.853
10495POPC   GL169421  32.216   8.183   6.153
10495POPC   GL269422  32.181   8.278   6.153
10495POPC   C1A69423  32.293   8.154   6.453
10495POPC   D2A69424  32.258   8.168   6.753
10495POPC   C3A69425  32.243   8.245   7.053
10495POPC   C4A69426  32.244   8.201   7.353
10495POPC   C1B69427  32.223   8.446   6.453
10495POPC   C2B69428  32.188   8.426   6.753
10495POPC   C3B69429  32.167   8.417   7.053
10495POPC   C4B69430  32.241   8.437   7.353
10496POPC   NC369431  40.001   8.158   5.553
10496POPC   PO469432  40.043   8.179   5.853
10496POPC   GL169433  40.047   8.215   6.153
10496POPC   GL269434  39.926   8.332   6.153
10496POPC   C1A69435  39.975   8.246   6.453
10496POPC   D2A69436  40.037   8.149   6.753
10496POPC   C3A69437  40.034   8.175   7.053
10496POPC   C4A69438  39.986   8.167   7.353
10496POPC   C1B69439  39.838   8.422   6.453
10496POPC   C2B69440  39.883   8.393   6.753
10496POPC   C3B69441  39.816   8.428   7.053
10496POPC   C4B69442  39.889   8.430   7.353
10497POPC   NC369443  17.484  27.565   5.553
10497POPC   PO469444  17.510  27.571   5.853
10497POPC   GL169445  17.552  27.637   6.153
10497POPC   GL269446  17.553  27.429   6.153
10497POPC   C1A69447  17.551  27.599   6.453
10497POPC   D2A69448  17.551  27.609   6.753
10497POPC   C3A69449  17.477  27.544   7.053
10497POPC   C4A69450  17.548  27.600   7.353
10497POPC   C1B69451  17.625  27.328   6.453
10497POPC   C2B69452  17.628  27.391   6.753
10497POPC   C3B69453  17.572  27.379   7.053
10497POPC   C4B69454  17.607  27.355   7.353
10498POPC   NC369455   4.345  33.024   5.553
10498POPC   PO469456   4.327  32.990   5.853
10498POPC   GL169457   4.360  32.991   6.153
10498POPC   GL269458   4.240  32.950   6.153
10498POPC   C1A69459   4.288  33.067   6.453
10498POPC   D2A69460   4.279  32.998   6.753
10498POPC   C3A69461   4.341  33.012   7.053
10498POPC   C4A69462   4.348  32.997   7.353
10498POPC   C1B69463   4.116  32.933   6.453
10498POPC   C2B69464   4.121  32.899   6.753
10498POPC   C3B69465   4.066  32.885   7.053
10498POPC   C4B69466   4.121  32.929   7.353
10499POPC   NC369467  15.910  10.522   5.553
10499POPC   PO469468  15.912  10.477   5.853
10499POPC   GL169469  15.958  10.494   6.153
10499POPC   GL269470  15.896  10.639   6.153
10499POPC   C1A69471  15.923  10.536   6.453
10499POPC   D2A69472  15.970  10.546   6.753
10499POPC   C3A69473  15.911  10.512   7.053
10499POPC   C4A69474  15.973  10.522   7.353
10499POPC   C1B69475  15.824  10.687   6.453
10499POPC   C2B69476  15.823  10.701   6.753
10499POPC   C3B69477  15.834  10.704   7.053
10499POPC   C4B69478  15.833  10.729   7.353
10500POPC   NC369479  40.013   2.814   5.553
10500POPC   PO469480  39.998   2.756   5.853
10500POPC   GL169481  40.027   2.735   6.153
10500POPC   GL269482  39.940   2.933   6.153
10500POPC   C1A69483  39.971   2.780   6.453
10500POPC   D2A69484  40.018   2.721   6.753
10500POPC   C3A69485  39.979   2.778   7.053
10500POPC   C4A69486  39.977   2.763   7.353
10500POPC   C1B69487  39.971   2.976   6.453
10500POPC   C2B69488  39.929   3.016   6.753
10500POPC   C3B69489  40.005   2.990   7.053
10500POPC   C4B69490  39.957   3.056   7.353
10501POPC   NC369491  40.787  43.103   5.553
10501POPC   PO469492  40.818  43.142   5.853
10501POPC   GL169493  40.772  43.120   6.153
10501POPC   GL269494  40.686  43.048   6.153
10501POPC   C1A69495  40.744  43.131   6.453
10501POPC   D2A69496  40.769  43.150   6.753
10501POPC   C3A69497  40.756  43.069   7.053
10501POPC   C4A69498  40.824  43.138   7.353
10501POPC   C1B69499  40.572  42.983   6.453
10501POPC   C2B69500  40.635  42.991   6.753
10501POPC   C3B69501  40.604  42.903   7.053
10501POPC   C4B69502  40.603  42.968   7.353
10502POPC   NC369503  20.646  43.860   5.553
10502POPC   PO469504  20.562  43.840   5.853
10502POPC   GL169505  20.657  43.929   6.153
10502POPC   GL269506  20.674  43.761   6.153
10502POPC   C1A69507  20.653  43.889   6.453
10502POPC   D2A69508  20.629  43.858   6.753
10502POPC   C3A69509  20.573  43.880   7.053
10502POPC   C4A69510  20.596  43.935   7.353
10502POPC   C1B69511  20.762  43.709   6.453
10502POPC   C2B69512  20.693  43.668   6.753
10502POPC   C3B69513  20.723  43.650   7.053
10502POPC   C4B69514  20.729  43.666   7.353
10503POPC   NC369515  36.934  23.751   5.553
10503POPC   PO469516  36.876  23.745   5.853
10503POPC   GL169517  36.874  23.721   6.153
10503POPC   GL269518  37.042  23.732   6.153
10503POPC   C1A69519  36.880  23.717   6.453
10503POPC   D2A69520  36.940  23.759   6.753
10503POPC   C3A69521  36.880  23.693   7.053
10503POPC   C4A69522  36.923  23.717   7.353
10503POPC   C1B69523  37.121  23.843   6.453
10503POPC   C2B69524  37.145  23.845   6.753
10503POPC   C3B69525  37.126  23.870   7.053
10503POPC   C4B69526  37.164  23.838   7.353
10504POPC   NC369527  19.819  43.063   5.553
10504POPC   PO469528  19.874  43.148   5.853
10504POPC   GL169529  19.813  43.156   6.153
10504POPC   GL269530  19.679  43.081   6.153
10504POPC   C1A69531  19.804  43.068   6.453
10504POPC   D2A69532  19.818  43.077   6.753
10504POPC   C3A69533  19.787  43.141   7.053
10504POPC   C4A69534  19.839  43.158   7.353
10504POPC   C1B69535  19.625  42.996   6.453
10504POPC   C2B69536  19.637  42.971   6.753
10504POPC   C3B69537  19.650  42.999   7.053
10504POPC   C4B69538  19.593  43.000   7.353
10505POPC   NC369539  35.308  12.078   5.553
10505POPC   PO469540  35.395  12.101   5.853
10505POPC   GL169541  35.348  12.064   6.153
10505POPC   GL269542  35.413  12.223   6.153
10505POPC   C1A69543  35.388  12.091   6.453
10505POPC   D2A69544  35.379  12.083   6.753
10505POPC   C3A69545  35.322  12.084   7.053
10505POPC   C4A69546  35.339  12.113   7.353
10505POPC   C1B69547  35.458  12.308   6.453
10505POPC   C2B69548  35.445  12.304   6.753
10505POPC   C3B69549  35.494  12.298   7.053
10505POPC   C4B69550  35.471  12.266   7.353
10506POPC   NC369551  24.497  15.158   5.553
10506POPC   PO469552  24.477  15.204   5.853
10506POPC   GL169553  24.462  15.202   6.153
10506POPC   GL269554  24.613  15.274   6.153
10506POPC   C1A69555  24.515  15.194   6.453
10506POPC   D2A69556  24.491  15.139   6.753
10506POPC   C3A69557  24.522  15.196   7.053
10506POPC   C4A69558  24.532  15.179   7.353
10506POPC   C1B69559  24.688  15.284   6.453
10506POPC   C2B69560  24.690  15.346   6.753
10506POPC   C3B69561  24.659  15.310   7.053
10506POPC   C4B69562  24.652  15.356   7.353
10507POPC   NC369563  28.329   8.148   5.553
10507POPC   PO469564  28.384   8.192   5.853
10507POPC   GL169565  28.377   8.227   6.153
10507POPC   GL269566  28.302   8.119   6.153
10507POPC   C1A69567  28.416   8.243   6.453
10507POPC   D2A69568  28.364   8.241   6.753
10507POPC   C3A69569  28.392   8.170   7.053
10507POPC   C4A69570  28.379   8.209   7.353
10507POPC   C1B69571  28.215   7.936   6.453
10507POPC   C2B69572  28.228   7.954   6.753
10507POPC   C3B69573  28.288   8.013   7.053
10507POPC   C4B69574  28.216   7.977   7.353
10508POPC   NC369575  25.288  38.423   5.553
10508POPC   PO469576  25.256  38.411   5.853
10508POPC   GL169577  25.261  38.446   6.153
10508POPC   GL269578  25.195  38.330   6.153
10508POPC   C1A69579  25.257  38.495   6.453
10508POPC   D2A69580  25.250  38.482   6.753
10508POPC   C3A69581  25.312  38.454   7.053
10508POPC   C4A69582  25.254  38.430   7.353
10508POPC   C1B69583  25.172  38.181   6.453
10508POPC   C2B69584  25.228  38.249   6.753
10508POPC   C3B69585  25.203  38.228   7.053
10508POPC   C4B69586  25.254  38.228   7.353
10509POPC   NC369587  35.390  26.825   5.553
10509POPC   PO469588  35.336  26.839   5.853
10509POPC   GL169589  35.305  26.822   6.153
10509POPC   GL269590  35.257  26.914   6.153
10509POPC   C1A69591  35.400  26.804   6.453
10509POPC   D2A69592  35.393  26.768   6.753
10509POPC   C3A69593  35.381  26.811   7.053
10509POPC   C4A69594  35.370  26.866   7.353
10509POPC   C1B69595  35.197  27.023   6.453
10509POPC   C2B69596  35.255  26.991   6.753
10509POPC   C3B69597  35.188  26.989   7.053
10509POPC   C4B69598  35.185  26.977   7.353
10510POPC   NC369599  29.097  34.539   5.553
10510POPC   PO469600  29.148  34.575   5.853
10510POPC   GL169601  29.147  34.562   6.153
10510POPC   GL269602  29.099  34.477   6.153
10510POPC   C1A69603  29.138  34.621   6.453
10510POPC   D2A69604  29.131  34.559   6.753
10510POPC   C3A69605  29.193  34.612   7.053
10510POPC   C4A69606  29.159  34.569   7.353
10510POPC   C1B69607  28.971  34.343   6.453
10510POPC   C2B69608  29.029  34.401   6.753
10510POPC   C3B69609  29.005  34.407   7.053
10510POPC   C4B69610  28.947  34.382   7.353
10511POPC   NC369611   8.228  34.618   5.553
10511POPC   PO469612   8.158  34.603   5.853
10511POPC   GL169613   8.223  34.565   6.153
10511POPC   GL269614   8.302  34.611   6.153
10511POPC   C1A69615   8.229  34.553   6.453
10511POPC   D2A69616   8.164  34.588   6.753
10511POPC   C3A69617   8.149  34.612   7.053
10511POPC   C4A69618   8.238  34.544   7.353
10511POPC   C1B69619   8.444  34.659   6.453
10511POPC   C2B69620   8.376  34.657   6.753
10511POPC   C3B69621   8.458  34.701   7.053
10511POPC   C4B69622   8.433  34.701   7.353
10512POPC   NC369623  41.519  32.211   5.553
10512POPC   PO469624  41.547  32.260   5.853
10512POPC   GL169625  41.530  32.291   6.153
10512POPC   GL269626  41.658  32.131   6.153
10512POPC   C1A69627  41.525  32.289   6.453
10512POPC   D2A69628  41.537  32.294   6.753
10512POPC   C3A69629  41.594  32.240   7.053
10512POPC   C4A69630  41.511  32.238   7.353
10512POPC   C1B69631  41.664  32.018   6.453
10512POPC   C2B69632  41.682  32.038   6.753
10512POPC   C3B69633  41.663  32.057   7.053
10512POPC   C4B69634  41.645  32.076   7.353
10513POPC   NC369635  25.232  36.862   5.553
10513POPC   PO469636  25.217  36.886   5.853
10513POPC   GL169637  25.247  36.918   6.153
10513POPC   GL269638  25.166  36.895   6.153
10513POPC   C1A69639  25.230  36.862   6.453
10513POPC   D2A69640  25.282  36.918   6.753
10513POPC   C3A69641  25.241  36.921   7.053
10513POPC   C4A69642  25.306  36.948   7.353
10513POPC   C1B69643  25.080  36.800   6.453
10513POPC   C2B69644  25.053  36.784   6.753
10513POPC   C3B69645  25.052  36.812   7.053
10513POPC   C4B69646  25.030  36.853   7.353
10514POPC   NC369647  11.259   9.770   5.553
10514POPC   PO469648  11.330   9.736   5.853
10514POPC   GL169649  11.332   9.731   6.153
10514POPC   GL269650  11.166   9.796   6.153
10514POPC   C1A69651  11.349   9.738   6.453
10514POPC   D2A69652  11.338   9.702   6.753
10514POPC   C3A69653  11.266   9.711   7.053
10514POPC   C4A69654  11.344   9.749   7.353
10514POPC   C1B69655  11.011   9.727   6.453
10514POPC   C2B69656  11.019   9.795   6.753
10514POPC   C3B69657  11.041   9.798   7.053
10514POPC   C4B69658  11.050   9.772   7.353
10515POPC   NC369659  22.972  36.891   5.553
10515POPC   PO469660  22.950  36.934   5.853
10515POPC   GL169661  22.901  36.939   6.153
10515POPC   GL269662  22.853  36.894   6.153
10515POPC   C1A69663  22.939  36.888   6.453
10515POPC   D2A69664  22.947  36.878   6.753
10515POPC   C3A69665  22.897  36.886   7.053
10515POPC   C4A69666  22.941  36.933   7.353
10515POPC   C1B69667  22.722  36.751   6.453
10515POPC   C2B69668  22.748  36.847   6.753
10515POPC   C3B69669  22.720  36.773   7.053
10515POPC   C4B69670  22.683  36.809   7.353
10516POPC   NC369671  44.658  16.769   5.553
10516POPC   PO469672  44.634  16.743   5.853
10516POPC   GL169673  44.659  16.754   6.153
10516POPC   GL269674  44.584  16.579   6.153
10516POPC   C1A69675  44.632  16.741   6.453
10516POPC   D2A69676  44.664  16.717   6.753
10516POPC   C3A69677  44.660  16.703   7.053
10516POPC   C4A69678  44.632  16.763   7.353
10516POPC   C1B69679  44.587  16.502   6.453
10516POPC   C2B69680  44.523  16.529   6.753
10516POPC   C3B69681  44.612  16.498   7.053
10516POPC   C4B69682  44.596  16.515   7.353
10517POPC   NC369683  12.046  21.378   5.553
10517POPC   PO469684  12.091  21.361   5.853
10517POPC   GL169685  12.044  21.398   6.153
10517POPC   GL269686  12.018  21.539   6.153
10517POPC   C1A69687  12.037  21.399   6.453
10517POPC   D2A69688  12.113  21.435   6.753
10517POPC   C3A69689  12.110  21.386   7.053
10517POPC   C4A69690  12.122  21.337   7.353
10517POPC   C1B69691  12.008  21.667   6.453
10517POPC   C2B69692  12.010  21.658   6.753
10517POPC   C3B69693  12.053  21.621   7.053
10517POPC   C4B69694  12.010  21.644   7.353
10518POPC   NC369695   6.647  22.133   5.553
10518POPC   PO469696   6.605  22.192   5.853
10518POPC   GL169697   6.662  22.166   6.153
10518POPC   GL269698   6.604  22.220   6.153
10518POPC   C1A69699   6.639  22.206   6.453
10518POPC   D2A69700   6.632  22.178   6.753
10518POPC   C3A69701   6.688  22.156   7.053
10518POPC   C4A69702   6.657  22.121   7.353
10518POPC   C1B69703   6.456  22.339   6.453
10518POPC   C2B69704   6.460  22.403   6.753
10518POPC   C3B69705   6.483  22.357   7.053
10518POPC   C4B69706   6.538  22.403   7.353
10519POPC   NC369707  29.906  28.412   5.553
10519POPC   PO469708  29.944  28.366   5.853
10519POPC   GL169709  29.945  28.324   6.153
10519POPC   GL269710  30.005  28.431   6.153
10519POPC   C1A69711  29.918  28.387   6.453
10519POPC   D2A69712  29.896  28.377   6.753
10519POPC   C3A69713  29.926  28.400   7.053
10519POPC   C4A69714  29.902  28.401   7.353
10519POPC   C1B69715  30.073  28.536   6.453
10519POPC   C2B69716  30.087  28.494   6.753
10519POPC   C3B69717  30.157  28.509   7.053
10519POPC   C4B69718  30.094  28.488   7.353
10520POPC   NC369719  40.042   5.860   5.553
10520POPC   PO469720  40.053   5.869   5.853
10520POPC   GL169721  40.034   5.891   6.153
10520POPC   GL269722  40.055   5.713   6.153
10520POPC   C1A69723  40.046   5.833   6.453
10520POPC   D2A69724  39.986   5.877   6.753
10520POPC   C3A69725  39.980   5.873   7.053
10520POPC   C4A69726  39.959   5.863   7.353
10520POPC   C1B69727  40.088   5.634   6.453
10520POPC   C2B69728  40.119   5.694   6.753
10520POPC   C3B69729  40.155   5.617   7.053
10520POPC   C4B69730  40.121   5.632   7.353
10521POPC   NC369731  35.338   8.197   5.553
10521POPC   PO469732  35.366   8.175   5.853
10521POPC   GL169733  35.368   8.161   6.153
10521POPC   GL269734  35.264   8.167   6.153
10521POPC   C1A69735  35.332   8.168   6.453
10521POPC   D2A69736  35.398   8.216   6.753
10521POPC   C3A69737  35.357   8.237   7.053
10521POPC   C4A69738  35.387   8.172   7.353
10521POPC   C1B69739  35.109   8.088   6.453
10521POPC   C2B69740  35.137   8.013   6.753
10521POPC   C3B69741  35.133   8.080   7.053
10521POPC   C4B69742  35.104   8.095   7.353
10522POPC   NC369743  28.337  42.354   5.553
10522POPC   PO469744  28.348  42.322   5.853
10522POPC   GL169745  28.393  42.359   6.153
10522POPC   GL269746  28.465  42.335   6.153
10522POPC   C1A69747  28.402  42.351   6.453
10522POPC   D2A69748  28.337  42.341   6.753
10522POPC   C3A69749  28.399  42.332   7.053
10522POPC   C4A69750  28.351  42.320   7.353
10522POPC   C1B69751  28.568  42.263   6.453
10522POPC   C2B69752  28.624  42.218   6.753
10522POPC   C3B69753  28.586  42.203   7.053
10522POPC   C4B69754  28.584  42.203   7.353
10523POPC   NC369755  36.927  27.593   5.553
10523POPC   PO469756  36.934  27.584   5.853
10523POPC   GL169757  36.898  27.580   6.153
10523POPC   GL269758  36.780  27.701   6.153
10523POPC   C1A69759  36.872  27.588   6.453
10523POPC   D2A69760  36.902  27.640   6.753
10523POPC   C3A69761  36.940  27.568   7.053
10523POPC   C4A69762  36.909  27.603   7.353
10523POPC   C1B69763  36.790  27.782   6.453
10523POPC   C2B69764  36.743  27.782   6.753
10523POPC   C3B69765  36.758  27.771   7.053
10523POPC   C4B69766  36.762  27.777   7.353
10524POPC   NC369767  27.601  17.476   5.553
10524POPC   PO469768  27.590  17.527   5.853
10524POPC   GL169769  27.547  17.530   6.153
10524POPC   GL269770  27.573  17.426   6.153
10524POPC   C1A69771  27.553  17.535   6.453
10524POPC   D2A69772  27.556  17.550   6.753
10524POPC   C3A69773  27.574  17.543   7.053
10524POPC   C4A69774  27.614  17.540   7.353
10524POPC   C1B69775  27.636  17.239   6.453
10524POPC   C2B69776  27.676  17.232   6.753
10524POPC   C3B69777  27.682  17.255   7.053
10524POPC   C4B69778  27.667  17.233   7.353
10525POPC   NC369779  10.492  21.435   5.553
10525POPC   PO469780  10.513  21.343   5.853
10525POPC   GL169781  10.573  21.412   6.153
10525POPC   GL269782  10.602  21.380   6.153
10525POPC   C1A69783  10.514  21.386   6.453
10525POPC   D2A69784  10.549  21.391   6.753
10525POPC   C3A69785  10.569  21.381   7.053
10525POPC   C4A69786  10.531  21.401   7.353
10525POPC   C1B69787  10.809  21.391   6.453
10525POPC   C2B69788  10.772  21.409   6.753
10525POPC   C3B69789  10.728  21.345   7.053
10525POPC   C4B69790  10.738  21.375   7.353
10526POPC   NC369791  18.241  18.274   5.553
10526POPC   PO469792  18.258  18.287   5.853
10526POPC   GL169793  18.298  18.249   6.153
10526POPC   GL269794  18.416  18.313   6.153
10526POPC   C1A69795  18.273  18.254   6.453
10526POPC   D2A69796  18.252  18.288   6.753
10526POPC   C3A69797  18.255  18.249   7.053
10526POPC   C4A69798  18.272  18.236   7.353
10526POPC   C1B69799  18.496  18.394   6.453
10526POPC   C2B69800  18.475  18.374   6.753
10526POPC   C3B69801  18.529  18.423   7.053
10526POPC   C4B69802  18.559  18.427   7.353
10527POPC   NC369803   6.621  31.436   5.553
10527POPC   PO469804   6.655  31.465   5.853
10527POPC   GL169805   6.655  31.436   6.153
10527POPC   GL269806   6.730  31.383   6.153
10527POPC   C1A69807   6.690  31.516   6.453
10527POPC   D2A69808   6.622  31.517   6.753
10527POPC   C3A69809   6.679  31.460   7.053
10527POPC   C4A69810   6.665  31.469   7.353
10527POPC   C1B69811   6.836  31.278   6.453
10527POPC   C2B69812   6.805  31.230   6.753
10527POPC   C3B69813   6.813  31.304   7.053
10527POPC   C4B69814   6.762  31.252   7.353
10528POPC   NC369815  35.361   6.649   5.553
10528POPC   PO469816  35.323   6.595   5.853
10528POPC   GL169817  35.390   6.605   6.153
10528POPC   GL269818  35.277   6.750   6.153
10528POPC   C1A69819  35.383   6.621   6.453
10528POPC   D2A69820  35.373   6.610   6.753
10528POPC   C3A69821  35.392   6.595   7.053
10528POPC   C4A69822  35.305   6.662   7.353
10528POPC   C1B69823  35.226   6.892   6.453
10528POPC   C2B69824  35.304   6.860   6.753
10528POPC   C3B69825  35.294   6.899   7.053
10528POPC   C4B69826  35.309   6.928   7.353
10529POPC   NC369827  14.357  44.662   5.553
10529POPC   PO469828  14.362  44.633   5.853
10529POPC   GL169829  14.453  44.614   6.153
10529POPC   GL269830  14.521  44.654   6.153
10529POPC   C1A69831  14.382  44.709   6.453
10529POPC   D2A69832  14.403  44.640   6.753
10529POPC   C3A69833  14.391  44.699   7.053
10529POPC   C4A69834  14.434  44.706   7.353
10529POPC   C1B69835  14.625  44.648   6.453
10529POPC   C2B69836  14.623  44.625   6.753
10529POPC   C3B69837  14.660  44.599   7.053
10529POPC   C4B69838  14.650  44.573   7.353
10530POPC   NC369839  38.457   9.736   5.553
10530POPC   PO469840  38.499   9.772   5.853
10530POPC   GL169841  38.406   9.737   6.153
10530POPC   GL269842  38.332   9.663   6.153
10530POPC   C1A69843  38.444   9.707   6.453
10530POPC   D2A69844  38.433   9.794   6.753
10530POPC   C3A69845  38.424   9.717   7.053
10530POPC   C4A69846  38.443   9.719   7.353
10530POPC   C1B69847  38.291   9.634   6.453
10530POPC   C2B69848  38.198   9.654   6.753
10530POPC   C3B69849  38.281   9.602   7.053
10530POPC   C4B69850  38.291   9.613   7.353
10531POPC   NC369851  17.492   2.815   5.553
10531POPC   PO469852  17.485   2.760   5.853
10531POPC   GL169853  17.476   2.759   6.153
10531POPC   GL269854  17.557   2.646   6.153
10531POPC   C1A69855  17.554   2.765   6.453
10531POPC   D2A69856  17.523   2.735   6.753
10531POPC   C3A69857  17.526   2.804   7.053
10531POPC   C4A69858  17.479   2.810   7.353
10531POPC   C1B69859  17.538   2.572   6.453
10531POPC   C2B69860  17.626   2.562   6.753
10531POPC   C3B69861  17.601   2.496   7.053
10531POPC   C4B69862  17.534   2.560   7.353
10532POPC   NC369863  30.696  24.498   5.553
10532POPC   PO469864  30.696  24.458   5.853
10532POPC   GL169865  30.744  24.531   6.153
10532POPC   GL269866  30.846  24.538   6.153
10532POPC   C1A69867  30.701  24.449   6.453
10532POPC   D2A69868  30.742  24.538   6.753
10532POPC   C3A69869  30.648  24.471   7.053
10532POPC   C4A69870  30.695  24.489   7.353
10532POPC   C1B69871  30.942  24.525   6.453
10532POPC   C2B69872  30.944  24.481   6.753
10532POPC   C3B69873  30.923  24.524   7.053
10532POPC   C4B69874  30.947  24.495   7.353
10533POPC   NC369875  26.825  33.810   5.553
10533POPC   PO469876  26.810  33.769   5.853
10533POPC   GL169877  26.811  33.811   6.153
10533POPC   GL269878  26.694  33.712   6.153
10533POPC   C1A69879  26.782  33.772   6.453
10533POPC   D2A69880  26.793  33.824   6.753
10533POPC   C3A69881  26.793  33.795   7.053
10533POPC   C4A69882  26.808  33.755   7.353
10533POPC   C1B69883  26.651  33.642   6.453
10533POPC   C2B69884  26.649  33.571   6.753
10533POPC   C3B69885  26.651  33.636   7.053
10533POPC   C4B69886  26.613  33.604   7.353
10534POPC   NC369887  15.212   6.682   5.553
10534POPC   PO469888  15.187   6.598   5.853
10534POPC   GL169889  15.160   6.628   6.153
10534POPC   GL269890  15.261   6.737   6.153
10534POPC   C1A69891  15.210   6.634   6.453
10534POPC   D2A69892  15.206   6.670   6.753
10534POPC   C3A69893  15.153   6.637   7.053
10534POPC   C4A69894  15.173   6.644   7.353
10534POPC   C1B69895  15.447   6.795   6.453
10534POPC   C2B69896  15.370   6.721   6.753
10534POPC   C3B69897  15.420   6.768   7.053
10534POPC   C4B69898  15.407   6.803   7.353
10535POPC   NC369899  20.624  38.481   5.553
10535POPC   PO469900  20.653  38.418   5.853
10535POPC   GL169901  20.657  38.494   6.153
10535POPC   GL269902  20.737  38.360   6.153
10535POPC   C1A69903  20.622  38.419   6.453
10535POPC   D2A69904  20.577  38.492   6.753
10535POPC   C3A69905  20.653  38.423   7.053
10535POPC   C4A69906  20.572  38.412   7.353
10535POPC   C1B69907  20.848  38.376   6.453
10535POPC   C2B69908  20.812  38.380   6.753
10535POPC   C3B69909  20.826  38.356   7.053
10535POPC   C4B69910  20.880  38.309   7.353
10536POPC   NC369911  38.408   5.078   5.553
10536POPC   PO469912  38.466   5.084   5.853
10536POPC   GL169913  38.433   5.094   6.153
10536POPC   GL269914  38.416   5.250   6.153
10536POPC   C1A69915  38.456   5.064   6.453
10536POPC   D2A69916  38.446   5.097   6.753
10536POPC   C3A69917  38.413   5.088   7.053
10536POPC   C4A69918  38.489   5.095   7.353
10536POPC   C1B69919  38.385   5.326   6.453
10536POPC   C2B69920  38.345   5.313   6.753
10536POPC   C3B69921  38.413   5.360   7.053
10536POPC   C4B69922  38.331   5.364   7.353
10537POPC   NC369923   9.722  43.074   5.553
10537POPC   PO469924   9.793  43.141   5.853
10537POPC   GL169925   9.769  43.061   6.153
10537POPC   GL269926   9.820  43.240   6.153
10537POPC   C1A69927   9.699  43.144   6.453
10537POPC   D2A69928   9.752  43.127   6.753
10537POPC   C3A69929   9.752  43.078   7.053
10537POPC   C4A69930   9.762  43.133   7.353
10537POPC   C1B69931   9.845  43.355   6.453
10537POPC   C2B69932   9.828  43.355   6.753
10537POPC   C3B69933   9.879  43.313   7.053
10537POPC   C4B69934   9.871  43.303   7.353
10538POPC   NC369935   0.429  16.712   5.553
10538POPC   PO469936   0.404  16.683   5.853
10538POPC   GL169937   0.447  16.688   6.153
10538POPC   GL269938   0.441  16.614   6.153
10538POPC   C1A69939   0.459  16.724   6.453
10538POPC   D2A69940   0.482  16.723   6.753
10538POPC   C3A69941   0.396  16.708   7.053
10538POPC   C4A69942   0.431  16.734   7.353
10538POPC   C1B69943   0.437  16.482   6.453
10538POPC   C2B69944   0.432  16.519   6.753
10538POPC   C3B69945   0.416  16.450   7.053
10538POPC   C4B69946   0.485  16.513   7.353
10539POPC   NC369947  22.186  25.231   5.553
10539POPC   PO469948  22.181  25.226   5.853
10539POPC   GL169949  22.140  25.222   6.153
10539POPC   GL269950  22.047  25.247   6.153
10539POPC   C1A69951  22.201  25.244   6.453
10539POPC   D2A69952  22.130  25.226   6.753
10539POPC   C3A69953  22.158  25.229   7.053
10539POPC   C4A69954  22.154  25.281   7.353
10539POPC   C1B69955  21.904  25.221   6.453
10539POPC   C2B69956  21.877  25.251   6.753
10539POPC   C3B69957  21.911  25.223   7.053
10539POPC   C4B69958  21.929  25.240   7.353
10540POPC   NC369959  32.979   2.784   5.553
10540POPC   PO469960  32.992   2.798   5.853
10540POPC   GL169961  33.056   2.813   6.153
10540POPC   GL269962  33.094   2.627   6.153
10540POPC   C1A69963  33.065   2.749   6.453
10540POPC   D2A69964  33.022   2.745   6.753
10540POPC   C3A69965  32.991   2.812   7.053
10540POPC   C4A69966  33.017   2.796   7.353
10540POPC   C1B69967  33.023   2.561   6.453
10540POPC   C2B69968  33.066   2.476   6.753
10540POPC   C3B69969  33.069   2.498   7.053
10540POPC   C4B69970  33.069   2.531   7.353
10541POPC   NC369971   5.077  41.604   5.553
10541POPC   PO469972   5.094  41.569   5.853
10541POPC   GL169973   5.072  41.605   6.153
10541POPC   GL269974   5.008  41.646   6.153
10541POPC   C1A69975   5.087  41.553   6.453
10541POPC   D2A69976   5.062  41.549   6.753
10541POPC   C3A69977   5.140  41.563   7.053
10541POPC   C4A69978   5.064  41.565   7.353
10541POPC   C1B69979   4.838  41.629   6.453
10541POPC   C2B69980   4.837  41.674   6.753
10541POPC   C3B69981   4.823  41.617   7.053
10541POPC   C4B69982   4.883  41.614   7.353
10542POPC   NC369983  24.514  17.531   5.553
10542POPC   PO469984  24.465  17.520   5.853
10542POPC   GL169985  24.498  17.461   6.153
10542POPC   GL269986  24.637  17.508   6.153
10542POPC   C1A69987  24.496  17.542   6.453
10542POPC   D2A69988  24.497  17.504   6.753
10542POPC   C3A69989  24.473  17.508   7.053
10542POPC   C4A69990  24.447  17.531   7.353
10542POPC   C1B69991  24.787  17.512   6.453
10542POPC   C2B69992  24.781  17.532   6.753
10542POPC   C3B69993  24.745  17.551   7.053
10542POPC   C4B69994  24.769  17.467   7.353
10543POPC   NC369995  15.926   4.299   5.553
10543POPC   PO469996  15.910   4.321   5.853
10543POPC   GL169997  15.912   4.360   6.153
10543POPC   GL269998  16.120   4.347   6.153
10543POPC   C1A69999  15.948   4.360   6.453
10543POPC   D2A70000  16.005   4.331   6.753
10543POPC   C3A70001  15.947   4.313   7.053
10543POPC   C4A70002  15.957   4.269   7.353
10543POPC   C1B70003  16.182   4.286   6.453
10543POPC   C2B70004  16.183   4.324   6.753
10543POPC   C3B70005  16.205   4.351   7.053
10543POPC   C4B70006  16.240   4.289   7.353
10544POPC   NC370007  26.864  32.203   5.553
10544POPC   PO470008  26.813  32.221   5.853
10544POPC   GL170009  26.782  32.267   6.153
10544POPC   GL270010  26.726  32.281   6.153
10544POPC   C1A70011  26.804  32.271   6.453
10544POPC   D2A70012  26.860  32.273   6.753
10544POPC   C3A70013  26.769  32.264   7.053
10544POPC   C4A70014  26.804  32.246   7.353
10544POPC   C1B70015  26.631  32.403   6.453
10544POPC   C2B70016  26.661  32.445   6.753
10544POPC   C3B70017  26.630  32.426   7.053
10544POPC   C4B70018  26.627  32.364   7.353
10545POPC   NC370019  12.881  41.596   5.553
10545POPC   PO470020  12.901  41.527   5.853
10545POPC   GL170021  12.860  41.533   6.153
10545POPC   GL270022  12.996  41.665   6.153
10545POPC   C1A70023  12.894  41.580   6.453
10545POPC   D2A70024  12.828  41.571   6.753
10545POPC   C3A70025  12.804  41.579   7.053
10545POPC   C4A70026  12.838  41.566   7.353
10545POPC   C1B70027  13.035  41.742   6.453
10545POPC   C2B70028  13.074  41.703   6.753
10545POPC   C3B70029  13.095  41.697   7.053
10545POPC   C4B70030  13.073  41.707   7.353
10546POPC   NC370031   2.750   1.242   5.553
10546POPC   PO470032   2.762   1.179   5.853
10546POPC   GL170033   2.737   1.233   6.153
10546POPC   GL270034   2.675   1.348   6.153
10546POPC   C1A70035   2.729   1.262   6.453
10546POPC   D2A70036   2.796   1.233   6.753
10546POPC   C3A70037   2.736   1.242   7.053
10546POPC   C4A70038   2.795   1.171   7.353
10546POPC   C1B70039   2.657   1.375   6.453
10546POPC   C2B70040   2.592   1.383   6.753
10546POPC   C3B70041   2.665   1.416   7.053
10546POPC   C4B70042   2.642   1.445   7.353
10547POPC   NC370043  11.304  11.282   5.553
10547POPC   PO470044  11.276  11.307   5.853
10547POPC   GL170045  11.297  11.272   6.153
10547POPC   GL270046  11.389  11.378   6.153
10547POPC   C1A70047  11.329  11.348   6.453
10547POPC   D2A70048  11.290  11.278   6.753
10547POPC   C3A70049  11.342  11.329   7.053
10547POPC   C4A70050  11.278  11.319   7.353
10547POPC   C1B70051  11.428  11.503   6.453
10547POPC   C2B70052  11.407  11.532   6.753
10547POPC   C3B70053  11.479  11.477   7.053
10547POPC   C4B70054  11.476  11.478   7.353
10548POPC   NC370055  23.675  12.125   5.553
10548POPC   PO470056  23.707  12.112   5.853
10548POPC   GL170057  23.760  12.034   6.153
10548POPC   GL270058  23.627  12.194   6.153
10548POPC   C1A70059  23.671  12.039   6.453
10548POPC   D2A70060  23.684  12.033   6.753
10548POPC   C3A70061  23.696  12.079   7.053
10548POPC   C4A70062  23.756  12.125   7.353
10548POPC   C1B70063  23.501  12.274   6.453
10548POPC   C2B70064  23.545  12.211   6.753
10548POPC   C3B70065  23.519  12.252   7.053
10548POPC   C4B70066  23.543  12.224   7.353
10549POPC   NC370067   8.202   3.505   5.553
10549POPC   PO470068   8.203   3.504   5.853
10549POPC   GL170069   8.236   3.537   6.153
10549POPC   GL270070   8.261   3.436   6.153
10549POPC   C1A70071   8.179   3.546   6.453
10549POPC   D2A70072   8.189   3.507   6.753
10549POPC   C3A70073   8.246   3.530   7.053
10549POPC   C4A70074   8.229   3.496   7.353
10549POPC   C1B70075   8.428   3.473   6.453
10549POPC   C2B70076   8.409   3.380   6.753
10549POPC   C3B70077   8.416   3.383   7.053
10549POPC   C4B70078   8.408   3.381   7.353
10550POPC   NC370079  36.141  19.056   5.553
10550POPC   PO470080  36.130  19.061   5.853
10550POPC   GL170081  36.114  19.019   6.153
10550POPC   GL270082  36.003  18.993   6.153
10550POPC   C1A70083  36.124  19.040   6.453
10550POPC   D2A70084  36.162  19.097   6.753
10550POPC   C3A70085  36.118  19.058   7.053
10550POPC   C4A70086  36.177  19.026   7.353
10550POPC   C1B70087  35.880  18.978   6.453
10550POPC   C2B70088  35.940  18.920   6.753
10550POPC   C3B70089  35.853  19.010   7.053
10550POPC   C4B70090  35.887  18.929   7.353
10551POPC   NC370091  10.554  20.629   5.553
10551POPC   PO470092  10.532  20.571   5.853
10551POPC   GL170093  10.531  20.574   6.153
10551POPC   GL270094  10.535  20.763   6.153
10551POPC   C1A70095  10.510  20.597   6.453
10551POPC   D2A70096  10.552  20.595   6.753
10551POPC   C3A70097  10.542  20.581   7.053
10551POPC   C4A70098  10.550  20.628   7.353
10551POPC   C1B70099  10.578  20.802   6.453
10551POPC   C2B70100  10.657  20.854   6.753
10551POPC   C3B70101  10.601  20.811   7.053
10551POPC   C4B70102  10.633  20.835   7.353
10552POPC   NC370103  18.308  43.105   5.553
10552POPC   PO470104  18.242  43.108   5.853
10552POPC   GL170105  18.326  43.095   6.153
10552POPC   GL270106  18.364  43.129   6.153
10552POPC   C1A70107  18.255  43.106   6.453
10552POPC   D2A70108  18.234  43.062   6.753
10552POPC   C3A70109  18.280  43.130   7.053
10552POPC   C4A70110  18.295  43.104   7.353
10552POPC   C1B70111  18.533  43.070   6.453
10552POPC   C2B70112  18.488  43.121   6.753
10552POPC   C3B70113  18.517  43.057   7.053
10552POPC   C4B70114  18.540  43.074   7.353
10553POPC   NC370115  31.452  40.828   5.553
10553POPC   PO470116  31.516  40.743   5.853
10553POPC   GL170117  31.502  40.766   6.153
10553POPC   GL270118  31.520  40.883   6.153
10553POPC   C1A70119  31.473  40.799   6.453
10553POPC   D2A70120  31.462  40.748   6.753
10553POPC   C3A70121  31.465  40.810   7.053
10553POPC   C4A70122  31.446  40.796   7.353
10553POPC   C1B70123  31.518  40.975   6.453
10553POPC   C2B70124  31.577  41.053   6.753
10553POPC   C3B70125  31.569  41.039   7.053
10553POPC   C4B70126  31.562  41.036   7.353
10554POPC   NC370127  11.271  29.897   5.553
10554POPC   PO470128  11.309  29.908   5.853
10554POPC   GL170129  11.330  29.949   6.153
10554POPC   GL270130  11.383  29.903   6.153
10554POPC   C1A70131  11.323  29.919   6.453
10554POPC   D2A70132  11.324  29.951   6.753
10554POPC   C3A70133  11.285  29.933   7.053
10554POPC   C4A70134  11.311  29.936   7.353
10554POPC   C1B70135  11.561  29.888   6.453
10554POPC   C2B70136  11.591  29.869   6.753
10554POPC   C3B70137  11.584  29.892   7.053
10554POPC   C4B70138  11.553  29.863   7.353
10555POPC   NC370139   2.016  15.950   5.553
10555POPC   PO470140   2.019  15.918   5.853
10555POPC   GL170141   1.966  15.981   6.153
10555POPC   GL270142   2.110  15.968   6.153
10555POPC   C1A70143   1.995  15.913   6.453
10555POPC   D2A70144   1.963  15.942   6.753
10555POPC   C3A70145   2.001  15.976   7.053
10555POPC   C4A70146   1.967  15.965   7.353
10555POPC   C1B70147   2.247  15.931   6.453
10555POPC   C2B70148   2.218  15.983   6.753
10555POPC   C3B70149   2.230  15.924   7.053
10555POPC   C4B70150   2.262  15.920   7.353
10556POPC   NC370151  28.327  38.449   5.553
10556POPC   PO470152  28.370  38.444   5.853
10556POPC   GL170153  28.363  38.427   6.153
10556POPC   GL270154  28.450  38.365   6.153
10556POPC   C1A70155  28.340  38.476   6.453
10556POPC   D2A70156  28.397  38.457   6.753
10556POPC   C3A70157  28.334  38.424   7.053
10556POPC   C4A70158  28.377  38.495   7.353
10556POPC   C1B70159  28.482  38.192   6.453
10556POPC   C2B70160  28.485  38.201   6.753
10556POPC   C3B70161  28.444  38.191   7.053
10556POPC   C4B70162  28.399  38.177   7.353
10557POPC   NC370163  21.351  28.325   5.553
10557POPC   PO470164  21.392  28.412   5.853
10557POPC   GL170165  21.358  28.352   6.153
10557POPC   GL270166  21.464  28.433   6.153
10557POPC   C1A70167  21.424  28.342   6.453
10557POPC   D2A70168  21.397  28.360   6.753
10557POPC   C3A70169  21.390  28.360   7.053
10557POPC   C4A70170  21.372  28.322   7.353
10557POPC   C1B70171  21.552  28.493   6.453
10557POPC   C2B70172  21.587  28.466   6.753
10557POPC   C3B70173  21.572  28.521   7.053
10557POPC   C4B70174  21.560  28.515   7.353
10558POPC   NC370175  39.990  33.842   5.553
10558POPC   PO470176  39.978  33.825   5.853
10558POPC   GL170177  40.054  33.820   6.153
10558POPC   GL270178  39.961  33.679   6.153
10558POPC   C1A70179  39.973  33.838   6.453
10558POPC   D2A70180  40.022  33.794   6.753
10558POPC   C3A70181  40.033  33.809   7.053
10558POPC   C4A70182  39.978  33.819   7.353
10558POPC   C1B70183  39.954  33.541   6.453
10558POPC   C2B70184  40.011  33.530   6.753
10558POPC   C3B70185  39.942  33.514   7.053
10558POPC   C4B70186  39.964  33.588   7.353
10559POPC   NC370187  39.999  26.849   5.553
10559POPC   PO470188  40.034  26.837   5.853
10559POPC   GL170189  39.971  26.826   6.153
10559POPC   GL270190  39.925  26.784   6.153
10559POPC   C1A70191  40.048  26.855   6.453
10559POPC   D2A70192  40.019  26.776   6.753
10559POPC   C3A70193  39.989  26.835   7.053
10559POPC   C4A70194  40.034  26.840   7.353
10559POPC   C1B70195  39.781  26.896   6.453
10559POPC   C2B70196  39.750  26.881   6.753
10559POPC   C3B70197  39.806  26.806   7.053
10559POPC   C4B70198  39.769  26.856   7.353
10560POPC   NC370199  19.822  37.636   5.553
10560POPC   PO470200  19.875  37.680   5.853
10560POPC   GL170201  19.861  37.727   6.153
10560POPC   GL270202  19.722  37.740   6.153
10560POPC   C1A70203  19.834  37.704   6.453
10560POPC   D2A70204  19.879  37.725   6.753
10560POPC   C3A70205  19.839  37.696   7.053
10560POPC   C4A70206  19.791  37.641   7.353
10560POPC   C1B70207  19.614  37.725   6.453
10560POPC   C2B70208  19.590  37.730   6.753
10560POPC   C3B70209  19.587  37.775   7.053
10560POPC   C4B70210  19.609  37.692   7.353
10561POPC   NC370211  13.639   4.310   5.553
10561POPC   PO470212  13.621   4.361   5.853
10561POPC   GL170213  13.581   4.320   6.153
10561POPC   GL270214  13.457   4.330   6.153
10561POPC   C1A70215  13.603   4.272   6.453
10561POPC   D2A70216  13.616   4.271   6.753
10561POPC   C3A70217  13.616   4.306   7.053
10561POPC   C4A70218  13.635   4.281   7.353
10561POPC   C1B70219  13.377   4.283   6.453
10561POPC   C2B70220  13.354   4.324   6.753
10561POPC   C3B70221  13.421   4.314   7.053
10561POPC   C4B70222  13.378   4.298   7.353
10562POPC   NC370223   3.531  11.284   5.553
10562POPC   PO470224   3.569  11.341   5.853
10562POPC   GL170225   3.508  11.313   6.153
10562POPC   GL270226   3.448  11.398   6.153
10562POPC   C1A70227   3.574  11.316   6.453
10562POPC   D2A70228   3.555  11.325   6.753
10562POPC   C3A70229   3.577  11.299   7.053
10562POPC   C4A70230   3.494  11.325   7.353
10562POPC   C1B70231   3.315  11.427   6.453
10562POPC   C2B70232   3.324  11.477   6.753
10562POPC   C3B70233   3.336  11.420   7.053
10562POPC   C4B70234   3.371  11.413   7.353
10563POPC   NC370235  15.998   1.259   5.553
10563POPC   PO470236  15.926   1.193   5.853
10563POPC   GL170237  15.979   1.258   6.153
10563POPC   GL270238  15.833   1.228   6.153
10563POPC   C1A70239  15.930   1.179   6.453
10563POPC   D2A70240  16.002   1.172   6.753
10563POPC   C3A70241  15.924   1.227   7.053
10563POPC   C4A70242  15.957   1.253   7.353
10563POPC   C1B70243  15.675   1.105   6.453
10563POPC   C2B70244  15.667   1.192   6.753
10563POPC   C3B70245  15.709   1.111   7.053
10563POPC   C4B70246  15.712   1.164   7.353
10564POPC   NC370247  40.791  20.609   5.553
10564POPC   PO470248  40.785  20.634   5.853
10564POPC   GL170249  40.817  20.607   6.153
10564POPC   GL270250  40.914  20.630   6.153
10564POPC   C1A70251  40.812  20.654   6.453
10564POPC   D2A70252  40.795  20.602   6.753
10564POPC   C3A70253  40.791  20.643   7.053
10564POPC   C4A70254  40.826  20.626   7.353
10564POPC   C1B70255  41.074  20.625   6.453
10564POPC   C2B70256  41.046  20.617   6.753
10564POPC   C3B70257  41.001  20.610   7.053
10564POPC   C4B70258  40.998  20.648   7.353
10565POPC   NC370259   4.313   0.409   5.553
10565POPC   PO470260   4.329   0.474   5.853
10565POPC   GL170261   4.296   0.404   6.153
10565POPC   GL270262   4.446   0.481   6.153
10565POPC   C1A70263   4.344   0.428   6.453
10565POPC   D2A70264   4.316   0.434   6.753
10565POPC   C3A70265   4.336   0.429   7.053
10565POPC   C4A70266   4.327   0.430   7.353
10565POPC   C1B70267   4.545   0.529   6.453
10565POPC   C2B70268   4.499   0.572   6.753
10565POPC   C3B70269   4.529   0.503   7.053
10565POPC   C4B70270   4.550   0.568   7.353
10566POPC   NC370271  35.357  29.102   5.553
10566POPC   PO470272  35.310  29.125   5.853
10566POPC   GL170273  35.370  29.193   6.153
10566POPC   GL270274  35.329  29.223   6.153
10566POPC   C1A70275  35.357  29.195   6.453
10566POPC   D2A70276  35.354  29.111   6.753
10566POPC   C3A70277  35.332  29.170   7.053
10566POPC   C4A70278  35.312  29.147   7.353
10566POPC   C1B70279  35.222  29.363   6.453
10566POPC   C2B70280  35.241  29.406   6.753
10566POPC   C3B70281  35.213  29.372   7.053
10566POPC   C4B70282  35.226  29.409   7.353
10567POPC   NC370283  17.517  26.003   5.553
10567POPC   PO470284  17.544  26.082   5.853
10567POPC   GL170285  17.466  26.021   6.153
10567POPC   GL270286  17.420  25.951   6.153
10567POPC   C1A70287  17.553  26.034   6.453
10567POPC   D2A70288  17.488  26.057   6.753
10567POPC   C3A70289  17.510  26.061   7.053
10567POPC   C4A70290  17.520  26.088   7.353
10567POPC   C1B70291  17.380  25.874   6.453
10567POPC   C2B70292  17.390  25.844   6.753
10567POPC   C3B70293  17.405  25.783   7.053
10567POPC   C4B70294  17.334  25.823   7.353
10568POPC   NC370295   9.797  22.113   5.553
10568POPC   PO470296   9.758  22.207   5.853
10568POPC   GL170297   9.761  22.114   6.153
10568POPC   GL270298   9.890  22.256   6.153
10568POPC   C1A70299   9.722  22.149   6.453
10568POPC   D2A70300   9.716  22.172   6.753
10568POPC   C3A70301   9.759  22.137   7.053
10568POPC   C4A70302   9.727  22.136   7.353
10568POPC   C1B70303   9.935  22.307   6.453
10568POPC   C2B70304   9.955  22.292   6.753
10568POPC   C3B70305   9.976  22.315   7.053
10568POPC   C4B70306   9.993  22.286   7.353
10569POPC   NC370307   2.797  12.835   5.553
10569POPC   PO470308   2.737  12.813   5.853
10569POPC   GL170309   2.776  12.820   6.153
10569POPC   GL270310   2.883  12.917   6.153
10569POPC   C1A70311   2.792  12.869   6.453
10569POPC   D2A70312   2.751  12.866   6.753
10569POPC   C3A70313   2.805  12.877   7.053
10569POPC   C4A70314   2.797  12.847   7.353
10569POPC   C1B70315   2.962  12.922   6.453
10569POPC   C2B70316   3.024  12.987   6.753
10569POPC   C3B70317   3.031  12.976   7.053
10569POPC   C4B70318   3.022  12.963   7.353
10570POPC   NC370319  41.534  28.385   5.553
10570POPC   PO470320  41.597  28.324   5.853
10570POPC   GL170321  41.542  28.378   6.153
10570POPC   GL270322  41.408  28.354   6.153
10570POPC   C1A70323  41.572  28.334   6.453
10570POPC   D2A70324  41.578  28.415   6.753
10570POPC   C3A70325  41.566  28.386   7.053
10570POPC   C4A70326  41.601  28.393   7.353
10570POPC   C1B70327  41.297  28.338   6.453
10570POPC   C2B70328  41.317  28.324   6.753
10570POPC   C3B70329  41.286  28.311   7.053
10570POPC   C4B70330  41.287  28.353   7.353
10571POPC   NC370331  25.218  24.457   5.553
10571POPC   PO470332  25.297  24.498   5.853
10571POPC   GL170333  25.233  24.462   6.153
10571POPC   GL270334  25.400  24.401   6.153
10571POPC   C1A70335  25.220  24.472   6.453
10571POPC   D2A70336  25.216  24.491   6.753
10571POPC   C3A70337  25.253  24.443   7.053
10571POPC   C4A70338  25.245  24.536   7.353
10571POPC   C1B70339  25.525  24.407   6.453
10571POPC   C2B70340  25.473  24.341   6.753
10571POPC   C3B70341  25.484  24.393   7.053
10571POPC   C4B70342  25.471  24.376   7.353
10572POPC   NC370343   1.208  21.346   5.553
10572POPC   PO470344   1.255  21.392   5.853
10572POPC   GL170345   1.193  21.377   6.153
10572POPC   GL270346   1.261  21.292   6.153
10572POPC   C1A70347   1.255  21.401   6.453
10572POPC   D2A70348   1.223  21.356   6.753
10572POPC   C3A70349   1.239  21.433   7.053
10572POPC   C4A70350   1.198  21.396   7.353
10572POPC   C1B70351   1.394  21.250   6.453
10572POPC   C2B70352   1.339  21.200   6.753
10572POPC   C3B70353   1.357  21.245   7.053
10572POPC   C4B70354   1.368  21.213   7.353
10573POPC   NC370355  11.256  15.923   5.553
10573POPC   PO470356  11.295  15.944   5.853
10573POPC   GL170357  11.345  15.954   6.153
10573POPC   GL270358  11.459  15.959   6.153
10573POPC   C1A70359  11.337  15.913   6.453
10573POPC   D2A70360  11.346  15.978   6.753
10573POPC   C3A70361  11.300  15.991   7.053
10573POPC   C4A70362  11.308  15.974   7.353
10573POPC   C1B70363  11.568  15.895   6.453
10573POPC   C2B70364  11.569  15.897   6.753
10573POPC   C3B70365  11.557  15.896   7.053
10573POPC   C4B70366  11.530  15.960   7.353
10574POPC   NC370367  25.302  17.532   5.553
10574POPC   PO470368  25.246  17.552   5.853
10574POPC   GL170369  25.266  17.546   6.153
10574POPC   GL270370  25.251  17.595   6.153
10574POPC   C1A70371  25.277  17.520   6.453
10574POPC   D2A70372  25.294  17.518   6.753
10574POPC   C3A70373  25.229  17.548   7.053
10574POPC   C4A70374  25.250  17.479   7.353
10574POPC   C1B70375  25.220  17.740   6.453
10574POPC   C2B70376  25.254  17.765   6.753
10574POPC   C3B70377  25.209  17.774   7.053
10574POPC   C4B70378  25.239  17.771   7.353
10575POPC   NC370379  12.880   2.723   5.553
10575POPC   PO470380  12.836   2.764   5.853
10575POPC   GL170381  12.831   2.764   6.153
10575POPC   GL270382  12.752   2.736   6.153
10575POPC   C1A70383  12.812   2.731   6.453
10575POPC   D2A70384  12.866   2.800   6.753
10575POPC   C3A70385  12.879   2.766   7.053
10575POPC   C4A70386  12.839   2.731   7.353
10575POPC   C1B70387  12.603   2.816   6.453
10575POPC   C2B70388  12.637   2.797   6.753
10575POPC   C3B70389  12.562   2.763   7.053
10575POPC   C4B70390  12.556   2.789   7.353
10576POPC   NC370391  36.126   5.047   5.553
10576POPC   PO470392  36.170   5.049   5.853
10576POPC   GL170393  36.086   5.093   6.153
10576POPC   GL270394  36.099   4.921   6.153
10576POPC   C1A70395  36.103   5.138   6.453
10576POPC   D2A70396  36.165   5.117   6.753
10576POPC   C3A70397  36.133   5.129   7.053
10576POPC   C4A70398  36.086   5.113   7.353
10576POPC   C1B70399  36.085   4.826   6.453
10576POPC   C2B70400  36.056   4.851   6.753
10576POPC   C3B70401  36.106   4.798   7.053
10576POPC   C4B70402  36.119   4.820   7.353
10577POPC   NC370403  30.711   3.581   5.553
10577POPC   PO470404  30.684   3.527   5.853
10577POPC   GL170405  30.659   3.582   6.153
10577POPC   GL270406  30.605   3.519   6.153
10577POPC   C1A70407  30.656   3.527   6.453
10577POPC   D2A70408  30.739   3.524   6.753
10577POPC   C3A70409  30.699   3.505   7.053
10577POPC   C4A70410  30.709   3.590   7.353
10577POPC   C1B70411  30.445   3.467   6.453
10577POPC   C2B70412  30.460   3.407   6.753
10577POPC   C3B70413  30.449   3.393   7.053
10577POPC   C4B70414  30.521   3.410   7.353
10578POPC   NC370415  29.170   7.408   5.553
10578POPC   PO470416  29.107   7.447   5.853
10578POPC   GL170417  29.101   7.377   6.153
10578POPC   GL270418  29.137   7.594   6.153
10578POPC   C1A70419  29.100   7.423   6.453
10578POPC   D2A70420  29.183   7.373   6.753
10578POPC   C3A70421  29.142   7.397   7.053
10578POPC   C4A70422  29.096   7.390   7.353
10578POPC   C1B70423  29.162   7.684   6.453
10578POPC   C2B70424  29.135   7.713   6.753
10578POPC   C3B70425  29.176   7.654   7.053
10578POPC   C4B70426  29.127   7.716   7.353
10579POPC   NC370427  20.648  28.413   5.553
10579POPC   PO470428  20.593  28.412   5.853
10579POPC   GL170429  20.632  28.339   6.153
10579POPC   GL270430  20.618  28.529   6.153
10579POPC   C1A70431  20.641  28.335   6.453
10579POPC   D2A70432  20.601  28.409   6.753
10579POPC   C3A70433  20.626  28.343   7.053
10579POPC   C4A70434  20.608  28.412   7.353
10579POPC   C1B70435  20.578  28.650   6.453
10579POPC   C2B70436  20.612  28.595   6.753
10579POPC   C3B70437  20.581  28.650   7.053
10579POPC   C4B70438  20.555  28.587   7.353
10580POPC   NC370439  11.321  15.156   5.553
10580POPC   PO470440  11.302  15.159   5.853
10580POPC   GL170441  11.272  15.146   6.153
10580POPC   GL270442  11.202  15.307   6.153
10580POPC   C1A70443  11.257  15.144   6.453
10580POPC   D2A70444  11.286  15.211   6.753
10580POPC   C3A70445  11.261  15.189   7.053
10580POPC   C4A70446  11.267  15.132   7.353
10580POPC   C1B70447  11.180  15.453   6.453
10580POPC   C2B70448  11.185  15.367   6.753
10580POPC   C3B70449  11.213  15.445   7.053
10580POPC   C4B70450  11.214  15.394   7.353
10581POPC   NC370451   1.947  13.664   5.553
10581POPC   PO470452   1.989  13.609   5.853
10581POPC   GL170453   2.016  13.590   6.153
10581POPC   GL270454   2.130  13.700   6.153
10581POPC   C1A70455   2.032  13.590   6.453
10581POPC   D2A70456   1.953  13.613   6.753
10581POPC   C3A70457   1.983  13.657   7.053
10581POPC   C4A70458   2.007  13.610   7.353
10581POPC   C1B70459   2.233  13.747   6.453
10581POPC   C2B70460   2.241  13.686   6.753
10581POPC   C3B70461   2.193  13.720   7.053
10581POPC   C4B70462   2.261  13.704   7.353
10582POPC   NC370463  15.969   5.854   5.553
10582POPC   PO470464  15.939   5.824   5.853
10582POPC   GL170465  15.917   5.915   6.153
10582POPC   GL270466  15.875   5.930   6.153
10582POPC   C1A70467  15.956   5.898   6.453
10582POPC   D2A70468  15.944   5.892   6.753
10582POPC   C3A70469  15.908   5.824   7.053
10582POPC   C4A70470  15.933   5.820   7.353
10582POPC   C1B70471  15.842   6.048   6.453
10582POPC   C2B70472  15.810   6.072   6.753
10582POPC   C3B70473  15.779   6.114   7.053
10582POPC   C4B70474  15.794   6.037   7.353
10583POPC   NC370475  35.315  22.187   5.553
10583POPC   PO470476  35.336  22.116   5.853
10583POPC   GL170477  35.339  22.203   6.153
10583POPC   GL270478  35.478  22.117   6.153
10583POPC   C1A70479  35.361  22.116   6.453
10583POPC   D2A70480  35.397  22.201   6.753
10583POPC   C3A70481  35.357  22.201   7.053
10583POPC   C4A70482  35.365  22.126   7.353
10583POPC   C1B70483  35.557  22.050   6.453
10583POPC   C2B70484  35.560  22.027   6.753
10583POPC   C3B70485  35.551  22.042   7.053
10583POPC   C4B70486  35.613  22.097   7.353
10584POPC   NC370487  40.033   9.784   5.553
10584POPC   PO470488  40.056   9.709   5.853
10584POPC   GL170489  40.055   9.706   6.153
10584POPC   GL270490  39.878   9.839   6.153
10584POPC   C1A70491  39.964   9.727   6.453
10584POPC   D2A70492  39.977   9.795   6.753
10584POPC   C3A70493  40.056   9.787   7.053
10584POPC   C4A70494  40.037   9.782   7.353
10584POPC   C1B70495  39.791   9.902   6.453
10584POPC   C2B70496  39.778   9.881   6.753
10584POPC   C3B70497  39.797   9.820   7.053
10584POPC   C4B70498  39.749   9.887   7.353
10585POPC   NC370499  41.564  17.542   5.553
10585POPC   PO470500  41.524  17.478   5.853
10585POPC   GL170501  41.540  17.479   6.153
10585POPC   GL270502  41.481  17.457   6.153
10585POPC   C1A70503  41.602  17.514   6.453
10585POPC   D2A70504  41.575  17.468   6.753
10585POPC   C3A70505  41.604  17.482   7.053
10585POPC   C4A70506  41.509  17.552   7.353
10585POPC   C1B70507  41.365  17.411   6.453
10585POPC   C2B70508  41.342  17.379   6.753
10585POPC   C3B70509  41.356  17.424   7.053
10585POPC   C4B70510  41.366  17.426   7.353
10586POPC   NC370511  19.820   9.727   5.553
10586POPC   PO470512  19.882   9.770   5.853
10586POPC   GL170513  19.877   9.708   6.153
10586POPC   GL270514  19.789   9.652   6.153
10586POPC   C1A70515  19.850   9.789   6.453
10586POPC   D2A70516  19.788   9.767   6.753
10586POPC   C3A70517  19.813   9.744   7.053
10586POPC   C4A70518  19.847   9.782   7.353
10586POPC   C1B70519  19.778   9.490   6.453
10586POPC   C2B70520  19.707   9.511   6.753
10586POPC   C3B70521  19.741   9.544   7.053
10586POPC   C4B70522  19.739   9.535   7.353
10587POPC   NC370523   4.287  39.992   5.553
10587POPC   PO470524   4.345  40.030   5.853
10587POPC   GL170525   4.300  40.035   6.153
10587POPC   GL270526   4.202  39.888   6.153
10587POPC   C1A70527   4.338  40.049   6.453
10587POPC   D2A70528   4.367  40.027   6.753
10587POPC   C3A70529   4.303  39.959   7.053
10587POPC   C4A70530   4.318  39.980   7.353
10587POPC   C1B70531   4.155  39.849   6.453
10587POPC   C2B70532   4.143  39.809   6.753
10587POPC   C3B70533   4.069  39.895   7.053
10587POPC   C4B70534   4.086  39.843   7.353
10588POPC   NC370535   1.181  15.205   5.553
10588POPC   PO470536   1.201  15.190   5.853
10588POPC   GL170537   1.251  15.228   6.153
10588POPC   GL270538   1.190  15.039   6.153
10588POPC   C1A70539   1.237  15.209   6.453
10588POPC   D2A70540   1.258  15.151   6.753
10588POPC   C3A70541   1.235  15.165   7.053
10588POPC   C4A70542   1.232  15.221   7.353
10588POPC   C1B70543   1.201  14.955   6.453
10588POPC   C2B70544   1.238  14.915   6.753
10588POPC   C3B70545   1.183  14.946   7.053
10588POPC   C4B70546   1.215  14.960   7.353
10589POPC   NC370547  37.712  31.517   5.553
10589POPC   PO470548  37.694  31.452   5.853
10589POPC   GL170549  37.681  31.429   6.153
10589POPC   GL270550  37.706  31.407   6.153
10589POPC   C1A70551  37.724  31.497   6.453
10589POPC   D2A70552  37.649  31.444   6.753
10589POPC   C3A70553  37.630  31.424   7.053
10589POPC   C4A70554  37.699  31.481   7.353
10589POPC   C1B70555  37.823  31.274   6.453
10589POPC   C2B70556  37.861  31.271   6.753
10589POPC   C3B70557  37.855  31.299   7.053
10589POPC   C4B70558  37.776  31.306   7.353
10590POPC   NC370559  29.190  30.703   5.553
10590POPC   PO470560  29.178  30.703   5.853
10590POPC   GL170561  29.144  30.728   6.153
10590POPC   GL270562  29.015  30.827   6.153
10590POPC   C1A70563  29.150  30.702   6.453
10590POPC   D2A70564  29.157  30.678   6.753
10590POPC   C3A70565  29.159  30.730   7.053
10590POPC   C4A70566  29.123  30.737   7.353
10590POPC   C1B70567  29.017  30.879   6.453
10590POPC   C2B70568  29.022  30.861   6.753
10590POPC   C3B70569  28.936  30.912   7.053
10590POPC   C4B70570  28.933  30.836   7.353
10591POPC   NC370571   9.782  44.635   5.553
10591POPC   PO470572   9.723  44.655   5.853
10591POPC   GL170573   9.743  44.634   6.153
10591POPC   GL270574   9.801  44.553   6.153
10591POPC   C1A70575   9.748  44.675   6.453
10591POPC   D2A70576   9.711  44.686   6.753
10591POPC   C3A70577   9.782  44.642   7.053
10591POPC   C4A70578   9.701  44.651   7.353
10591POPC   C1B70579   9.881  44.460   6.453
10591POPC   C2B70580   9.886  44.431   6.753
10591POPC   C3B70581   9.917  44.414   7.053
10591POPC   C4B70582   9.928  44.507   7.353
10592POPC   NC370583  36.882  33.006   5.553
10592POPC   PO470584  36.888  32.996   5.853
10592POPC   GL170585  36.921  33.072   6.153
10592POPC   GL270586  36.842  32.904   6.153
10592POPC   C1A70587  36.878  33.004   6.453
10592POPC   D2A70588  36.929  32.985   6.753
10592POPC   C3A70589  36.874  33.064   7.053
10592POPC   C4A70590  36.879  33.010   7.353
10592POPC   C1B70591  36.786  32.805   6.453
10592POPC   C2B70592  36.794  32.746   6.753
10592POPC   C3B70593  36.772  32.832   7.053
10592POPC   C4B70594  36.814  32.806   7.353
10593POPC   NC370595  24.449  22.904   5.553
10593POPC   PO470596  24.453  22.953   5.853
10593POPC   GL170597  24.481  22.966   6.153
10593POPC   GL270598  24.561  22.892   6.153
10593POPC   C1A70599  24.460  22.951   6.453
10593POPC   D2A70600  24.460  22.945   6.753
10593POPC   C3A70601  24.454  22.903   7.053
10593POPC   C4A70602  24.511  22.935   7.353
10593POPC   C1B70603  24.690  22.717   6.453
10593POPC   C2B70604  24.694  22.744   6.753
10593POPC   C3B70605  24.663  22.761   7.053
10593POPC   C4B70606  24.709  22.716   7.353
10594POPC   NC370607  36.170  17.556   5.553
10594POPC   PO470608  36.086  17.552   5.853
10594POPC   GL170609  36.159  17.465   6.153
10594POPC   GL270610  36.257  17.585   6.153
10594POPC   C1A70611  36.131  17.467   6.453
10594POPC   D2A70612  36.106  17.504   6.753
10594POPC   C3A70613  36.163  17.533   7.053
10594POPC   C4A70614  36.091  17.487   7.353
10594POPC   C1B70615  36.377  17.603   6.453
10594POPC   C2B70616  36.368  17.660   6.753
10594POPC   C3B70617  36.392  17.612   7.053
10594POPC   C4B70618  36.337  17.577   7.353
10595POPC   NC370619  36.166  11.288   5.553
10595POPC   PO470620  36.135  11.314   5.853
10595POPC   GL170621  36.140  11.252   6.153
10595POPC   GL270622  36.147  11.149   6.153
10595POPC   C1A70623  36.108  11.262   6.453
10595POPC   D2A70624  36.123  11.323   6.753
10595POPC   C3A70625  36.100  11.314   7.053
10595POPC   C4A70626  36.084  11.290   7.353
10595POPC   C1B70627  36.151  11.006   6.453
10595POPC   C2B70628  36.213  11.094   6.753
10595POPC   C3B70629  36.215  11.101   7.053
10595POPC   C4B70630  36.163  11.016   7.353
10596POPC   NC370631  29.120   1.205   5.553
10596POPC   PO470632  29.128   1.215   5.853
10596POPC   GL170633  29.156   1.255   6.153
10596POPC   GL270634  29.178   1.356   6.153
10596POPC   C1A70635  29.107   1.178   6.453
10596POPC   D2A70636  29.152   1.177   6.753
10596POPC   C3A70637  29.160   1.205   7.053
10596POPC   C4A70638  29.101   1.244   7.353
10596POPC   C1B70639  29.242   1.408   6.453
10596POPC   C2B70640  29.223   1.484   6.753
10596POPC   C3B70641  29.215   1.387   7.053
10596POPC   C4B70642  29.265   1.401   7.353
10597POPC   NC370643   2.009  33.065   5.553
10597POPC   PO470644   2.013  33.020   5.853
10597POPC   GL170645   1.980  33.043   6.153
10597POPC   GL270646   1.897  33.071   6.153
10597POPC   C1A70647   1.943  32.996   6.453
10597POPC   D2A70648   2.033  33.070   6.753
10597POPC   C3A70649   2.022  33.033   7.053
10597POPC   C4A70650   1.943  33.058   7.353
10597POPC   C1B70651   1.766  33.011   6.453
10597POPC   C2B70652   1.786  33.028   6.753
10597POPC   C3B70653   1.704  32.976   7.053
10597POPC   C4B70654   1.708  32.976   7.353
10598POPC   NC370655   8.220  43.089   5.553
10598POPC   PO470656   8.228  43.070   5.853
10598POPC   GL170657   8.241  43.118   6.153
10598POPC   GL270658   8.055  43.012   6.153
10598POPC   C1A70659   8.221  43.088   6.453
10598POPC   D2A70660   8.239  43.110   6.753
10598POPC   C3A70661   8.243  43.117   7.053
10598POPC   C4A70662   8.226  43.079   7.353
10598POPC   C1B70663   7.948  42.921   6.453
10598POPC   C2B70664   7.979  42.957   6.753
10598POPC   C3B70665   7.975  42.998   7.053
10598POPC   C4B70666   7.989  42.984   7.353
10599POPC   NC370667  35.333  27.609   5.553
10599POPC   PO470668  35.383  27.616   5.853
10599POPC   GL170669  35.304  27.571   6.153
10599POPC   GL270670  35.262  27.634   6.153
10599POPC   C1A70671  35.319  27.611   6.453
10599POPC   D2A70672  35.371  27.621   6.753
10599POPC   C3A70673  35.336  27.583   7.053
10599POPC   C4A70674  35.388  27.566   7.353
10599POPC   C1B70675  35.142  27.658   6.453
10599POPC   C2B70676  35.161  27.621   6.753
10599POPC   C3B70677  35.125  27.657   7.053
10599POPC   C4B70678  35.128  27.630   7.353
10600POPC   NC370679  10.566   7.393   5.553
10600POPC   PO470680  10.566   7.378   5.853
10600POPC   GL170681  10.535   7.426   6.153
10600POPC   GL270682  10.624   7.354   6.153
10600POPC   C1A70683  10.485   7.445   6.453
10600POPC   D2A70684  10.523   7.432   6.753
10600POPC   C3A70685  10.545   7.418   7.053
10600POPC   C4A70686  10.491   7.422   7.353
10600POPC   C1B70687  10.771   7.252   6.453
10600POPC   C2B70688  10.753   7.244   6.753
10600POPC   C3B70689  10.769   7.316   7.053
10600POPC   C4B70690  10.744   7.242   7.353
10601POPC   NC370691   1.176  19.853   5.553
10601POPC   PO470692   1.208  19.854   5.853
10601POPC   GL170693   1.230  19.797   6.153
10601POPC   GL270694   1.233  19.918   6.153
10601POPC   C1A70695   1.189  19.837   6.453
10601POPC   D2A70696   1.226  19.824   6.753
10601POPC   C3A70697   1.233  19.883   7.053
10601POPC   C4A70698   1.233  19.873   7.353
10601POPC   C1B70699   1.277  20.062   6.453
10601POPC   C2B70700   1.320  20.101   6.753
10601POPC   C3B70701   1.357  20.098   7.053
10601POPC   C4B70702   1.275  20.111   7.353
10602POPC   NC370703  26.085  19.098   5.553
10602POPC   PO470704  26.082  19.025   5.853
10602POPC   GL170705  26.048  19.027   6.153
10602POPC   GL270706  26.012  19.202   6.153
10602POPC   C1A70707  26.060  19.024   6.453
10602POPC   D2A70708  26.054  19.014   6.753
10602POPC   C3A70709  26.084  19.038   7.053
10602POPC   C4A70710  26.008  19.089   7.353
10602POPC   C1B70711  26.003  19.337   6.453
10602POPC   C2B70712  25.973  19.343   6.753
10602POPC   C3B70713  25.916  19.335   7.053
10602POPC   C4B70714  25.961  19.343   7.353
10603POPC   NC370715  16.753   4.364   5.553
10603POPC   PO470716  16.723   4.335   5.853
10603POPC   GL170717  16.762   4.345   6.153
10603POPC   GL270718  16.713   4.228   6.153
10603POPC   C1A70719  16.695   4.274   6.453
10603POPC   D2A70720  16.751   4.365   6.753
10603POPC   C3A70721  16.735   4.311   7.053
10603POPC   C4A70722  16.727   4.274   7.353
10603POPC   C1B70723  16.719   4.065   6.453
10603POPC   C2B70724  16.702   4.117   6.753
10603POPC   C3B70725  16.788   4.074   7.053
10603POPC   C4B70726  16.789   4.070   7.353
10604POPC   NC370727  35.343  21.358   5.553
10604POPC   PO470728  35.367  21.362   5.853
10604POPC   GL170729  35.397  21.366   6.153
10604POPC   GL270730  35.360  21.231   6.153
10604POPC   C1A70731  35.391  21.408   6.453
10604POPC   D2A70732  35.339  21.389   6.753
10604POPC   C3A70733  35.369  21.357   7.053
10604POPC   C4A70734  35.309  21.366   7.353
10604POPC   C1B70735  35.328  21.144   6.453
10604POPC   C2B70736  35.346  21.152   6.753
10604POPC   C3B70737  35.274  21.141   7.053
10604POPC   C4B70738  35.267  21.112   7.353
10605POPC   NC370739   4.330  36.114   5.553
10605POPC   PO470740   4.367  36.133   5.853
10605POPC   GL170741   4.268  36.124   6.153
10605POPC   GL270742   4.251  36.228   6.153
10605POPC   C1A70743   4.349  36.126   6.453
10605POPC   D2A70744   4.291  36.121   6.753
10605POPC   C3A70745   4.332  36.079   7.053
10605POPC   C4A70746   4.286  36.172   7.353
10605POPC   C1B70747   4.273  36.380   6.453
10605POPC   C2B70748   4.219  36.418   6.753
10605POPC   C3B70749   4.231  36.359   7.053
10605POPC   C4B70750   4.308  36.324   7.353
10606POPC   NC370751   3.550  20.604   5.553
10606POPC   PO470752   3.527  20.620   5.853
10606POPC   GL170753   3.558  20.578   6.153
10606POPC   GL270754   3.399  20.653   6.153
10606POPC   C1A70755   3.579  20.658   6.453
10606POPC   D2A70756   3.526  20.577   6.753
10606POPC   C3A70757   3.553  20.631   7.053
10606POPC   C4A70758   3.512  20.648   7.353
10606POPC   C1B70759   3.288  20.750   6.453
10606POPC   C2B70760   3.330  20.755   6.753
10606POPC   C3B70761   3.342  20.751   7.053
10606POPC   C4B70762   3.361  20.797   7.353
10607POPC   NC370763   2.815  37.653   5.553
10607POPC   PO470764   2.787  37.718   5.853
10607POPC   GL170765   2.769  37.707   6.153
10607POPC   GL270766   2.653  37.620   6.153
10607POPC   C1A70767   2.755  37.704   6.453
10607POPC   D2A70768   2.722  37.720   6.753
10607POPC   C3A70769   2.730  37.698   7.053
10607POPC   C4A70770   2.785  37.651   7.353
10607POPC   C1B70771   2.547  37.593   6.453
10607POPC   C2B70772   2.500  37.605   6.753
10607POPC   C3B70773   2.511  37.589   7.053
10607POPC   C4B70774   2.538  37.562   7.353
10608POPC   NC370775  29.120  11.289   5.553
10608POPC   PO470776  29.120  11.328   5.853
10608POPC   GL170777  29.178  11.295   6.153
10608POPC   GL270778  29.276  11.318   6.153
10608POPC   C1A70779  29.110  11.265   6.453
10608POPC   D2A70780  29.179  11.320   6.753
10608POPC   C3A70781  29.146  11.259   7.053
10608POPC   C4A70782  29.125  11.287   7.353
10608POPC   C1B70783  29.395  11.375   6.453
10608POPC   C2B70784  29.337  11.332   6.753
10608POPC   C3B70785  29.360  11.420   7.053
10608POPC   C4B70786  29.408  11.388   7.353
10609POPC   NC370787  38.490  40.745   5.553
10609POPC   PO470788  38.481  40.776   5.853
10609POPC   GL170789  38.505  40.799   6.153
10609POPC   GL270790  38.507  40.916   6.153
10609POPC   C1A70791  38.484  40.810   6.453
10609POPC   D2A70792  38.419  40.795   6.753
10609POPC   C3A70793  38.481  40.818   7.053
10609POPC   C4A70794  38.469  40.810   7.353
10609POPC   C1B70795  38.477  41.059   6.453
10609POPC   C2B70796  38.523  41.031   6.753
10609POPC   C3B70797  38.516  41.071   7.053
10609POPC   C4B70798  38.559  41.054   7.353
10610POPC   NC370799  40.039  25.221   5.553
10610POPC   PO470800  39.976  25.227   5.853
10610POPC   GL170801  39.964  25.279   6.153
10610POPC   GL270802  39.872  25.337   6.153
10610POPC   C1A70803  40.018  25.224   6.453
10610POPC   D2A70804  39.965  25.225   6.753
10610POPC   C3A70805  40.042  25.259   7.053
10610POPC   C4A70806  40.012  25.224   7.353
10610POPC   C1B70807  39.780  25.349   6.453
10610POPC   C2B70808  39.748  25.292   6.753
10610POPC   C3B70809  39.746  25.344   7.053
10610POPC   C4B70810  39.738  25.283   7.353
10611POPC   NC370811  40.766   8.968   5.553
10611POPC   PO470812  40.803   8.996   5.853
10611POPC   GL170813  40.762   8.973   6.153
10611POPC   GL270814  40.676   8.861   6.153
10611POPC   C1A70815  40.774   8.949   6.453
10611POPC   D2A70816  40.760   8.948   6.753
10611POPC   C3A70817  40.794   8.981   7.053
10611POPC   C4A70818  40.796   8.969   7.353
10611POPC   C1B70819  40.536   8.861   6.453
10611POPC   C2B70820  40.618   8.834   6.753
10611POPC   C3B70821  40.562   8.802   7.053
10611POPC   C4B70822  40.535   8.868   7.353
10612POPC   NC370823  38.472  22.935   5.553
10612POPC   PO470824  38.410  22.924   5.853
10612POPC   GL170825  38.496  22.959   6.153
10612POPC   GL270826  38.353  22.952   6.153
10612POPC   C1A70827  38.418  22.976   6.453
10612POPC   D2A70828  38.422  22.962   6.753
10612POPC   C3A70829  38.430  22.899   7.053
10612POPC   C4A70830  38.434  22.949   7.353
10612POPC   C1B70831  38.207  23.005   6.453
10612POPC   C2B70832  38.251  22.940   6.753
10612POPC   C3B70833  38.179  22.972   7.053
10612POPC   C4B70834  38.204  22.935   7.353
10613POPC   NC370835   8.212  28.328   5.553
10613POPC   PO470836   8.189  28.352   5.853
10613POPC   GL170837   8.186  28.349   6.153
10613POPC   GL270838   8.088  28.444   6.153
10613POPC   C1A70839   8.200  28.322   6.453
10613POPC   D2A70840   8.225  28.356   6.753
10613POPC   C3A70841   8.184  28.320   7.053
10613POPC   C4A70842   8.169  28.325   7.353
10613POPC   C1B70843   8.070  28.549   6.453
10613POPC   C2B70844   8.083  28.595   6.753
10613POPC   C3B70845   8.060  28.570   7.053
10613POPC   C4B70846   8.044  28.570   7.353
10614POPC   NC370847  31.490   5.832   5.553
10614POPC   PO470848  31.508   5.891   5.853
10614POPC   GL170849  31.466   5.857   6.153
10614POPC   GL270850  31.479   6.027   6.153
10614POPC   C1A70851  31.441   5.847   6.453
10614POPC   D2A70852  31.501   5.881   6.753
10614POPC   C3A70853  31.489   5.883   7.053
10614POPC   C4A70854  31.443   5.880   7.353
10614POPC   C1B70855  31.581   6.132   6.453
10614POPC   C2B70856  31.503   6.100   6.753
10614POPC   C3B70857  31.546   6.084   7.053
10614POPC   C4B70858  31.500   6.076   7.353
10615POPC   NC370859  36.867  26.793   5.553
10615POPC   PO470860  36.913  26.792   5.853
10615POPC   GL170861  36.920  26.867   6.153
10615POPC   GL270862  36.830  26.844   6.153
10615POPC   C1A70863  36.940  26.818   6.453
10615POPC   D2A70864  36.909  26.810   6.753
10615POPC   C3A70865  36.878  26.859   7.053
10615POPC   C4A70866  36.857  26.794   7.353
10615POPC   C1B70867  36.659  26.818   6.453
10615POPC   C2B70868  36.654  26.822   6.753
10615POPC   C3B70869  36.673  26.832   7.053
10615POPC   C4B70870  36.626  26.894   7.353
10616POPC   NC370871  21.390  13.618   5.553
10616POPC   PO470872  21.434  13.579   5.853
10616POPC   GL170873  21.398  13.633   6.153
10616POPC   GL270874  21.393  13.736   6.153
10616POPC   C1A70875  21.385  13.584   6.453
10616POPC   D2A70876  21.350  13.599   6.753
10616POPC   C3A70877  21.355  13.633   7.053
10616POPC   C4A70878  21.399  13.616   7.353
10616POPC   C1B70879  21.529  13.858   6.453
10616POPC   C2B70880  21.532  13.903   6.753
10616POPC   C3B70881  21.524  13.851   7.053
10616POPC   C4B70882  21.467  13.838   7.353
10617POPC   NC370883  27.561  43.071   5.553
10617POPC   PO470884  27.639  43.109   5.853
10617POPC   GL170885  27.554  43.094   6.153
10617POPC   GL270886  27.557  43.221   6.153
10617POPC   C1A70887  27.640  43.160   6.453
10617POPC   D2A70888  27.560  43.151   6.753
10617POPC   C3A70889  27.589  43.103   7.053
10617POPC   C4A70890  27.588  43.076   7.353
10617POPC   C1B70891  27.626  43.313   6.453
10617POPC   C2B70892  27.599  43.409   6.753
10617POPC   C3B70893  27.657  43.362   7.053
10617POPC   C4B70894  27.596  43.378   7.353
10618POPC   NC370895  32.226  26.034   5.553
10618POPC   PO470896  32.238  26.037   5.853
10618POPC   GL170897  32.199  26.047   6.153
10618POPC   GL270898  32.346  25.968   6.153
10618POPC   C1A70899  32.256  25.997   6.453
10618POPC   D2A70900  32.225  26.031   6.753
10618POPC   C3A70901  32.244  26.057   7.053
10618POPC   C4A70902  32.273  25.992   7.353
10618POPC   C1B70903  32.497  25.954   6.453
10618POPC   C2B70904  32.497  25.996   6.753
10618POPC   C3B70905  32.470  25.971   7.053
10618POPC   C4B70906  32.534  26.004   7.353
10619POPC   NC370907   8.955  26.782   5.553
10619POPC   PO470908   8.954  26.779   5.853
10619POPC   GL170909   9.004  26.791   6.153
10619POPC   GL270910   8.976  26.973   6.153
10619POPC   C1A70911   9.014  26.816   6.453
10619POPC   D2A70912   9.014  26.804   6.753
10619POPC   C3A70913   9.009  26.866   7.053
10619POPC   C4A70914   8.955  26.805   7.353
10619POPC   C1B70915   8.980  27.071   6.453
10619POPC   C2B70916   9.005  27.092   6.753
10619POPC   C3B70917   9.051  27.065   7.053
10619POPC   C4B70918   8.996  27.093   7.353
10620POPC   NC370919  20.643  30.671   5.553
10620POPC   PO470920  20.615  30.675   5.853
10620POPC   GL170921  20.575  30.667   6.153
10620POPC   GL270922  20.483  30.745   6.153
10620POPC   C1A70923  20.571  30.692   6.453
10620POPC   D2A70924  20.616  30.746   6.753
10620POPC   C3A70925  20.586  30.661   7.053
10620POPC   C4A70926  20.646  30.660   7.353
10620POPC   C1B70927  20.354  30.665   6.453
10620POPC   C2B70928  20.378  30.732   6.753
10620POPC   C3B70929  20.311  30.730   7.053
10620POPC   C4B70930  20.382  30.670   7.353
10621POPC   NC370931   0.404  12.062   5.553
10621POPC   PO470932   0.431  12.120   5.853
10621POPC   GL170933   0.419  12.028   6.153
10621POPC   GL270934   0.457  11.941   6.153
10621POPC   C1A70935   0.391  12.114   6.453
10621POPC   D2A70936   0.416  12.084   6.753
10621POPC   C3A70937   0.400  12.063   7.053
10621POPC   C4A70938   0.444  12.051   7.353
10621POPC   C1B70939   0.450  11.869   6.453
10621POPC   C2B70940   0.400  11.825   6.753
10621POPC   C3B70941   0.381  11.820   7.053
10621POPC   C4B70942   0.416  11.816   7.353
10622POPC   NC370943  43.907  43.140   5.553
10622POPC   PO470944  43.858  43.094   5.853
10622POPC   GL170945  43.905  43.158   6.153
10622POPC   GL270946  43.815  42.980   6.153
10622POPC   C1A70947  43.858  43.145   6.453
10622POPC   D2A70948  43.891  43.101   6.753
10622POPC   C3A70949  43.883  43.068   7.053
10622POPC   C4A70950  43.839  43.118   7.353
10622POPC   C1B70951  43.810  42.908   6.453
10622POPC   C2B70952  43.838  42.907   6.753
10622POPC   C3B70953  43.798  42.923   7.053
10622POPC   C4B70954  43.760  42.919   7.353
10623POPC   NC370955  18.273   6.605   5.553
10623POPC   PO470956  18.301   6.636   5.853
10623POPC   GL170957  18.262   6.675   6.153
10623POPC   GL270958  18.273   6.534   6.153
10623POPC   C1A70959  18.264   6.683   6.453
10623POPC   D2A70960  18.312   6.677   6.753
10623POPC   C3A70961  18.258   6.609   7.053
10623POPC   C4A70962  18.281   6.618   7.353
10623POPC   C1B70963  18.212   6.439   6.453
10623POPC   C2B70964  18.240   6.384   6.753
10623POPC   C3B70965  18.237   6.356   7.053
10623POPC   C4B70966  18.251   6.405   7.353
10624POPC   NC370967   5.076  31.491   5.553
10624POPC   PO470968   5.067  31.468   5.853
10624POPC   GL170969   5.102  31.518   6.153
10624POPC   GL270970   4.969  31.539   6.153
10624POPC   C1A70971   5.101  31.507   6.453
10624POPC   D2A70972   5.084  31.452   6.753
10624POPC   C3A70973   5.125  31.518   7.053
10624POPC   C4A70974   5.063  31.460   7.353
10624POPC   C1B70975   4.829  31.540   6.453
10624POPC   C2B70976   4.890  31.538   6.753
10624POPC   C3B70977   4.812  31.539   7.053
10624POPC   C4B70978   4.884  31.519   7.353
10625POPC   NC370979  35.320  19.093   5.553
10625POPC   PO470980  35.310  19.058   5.853
10625POPC   GL170981  35.333  19.064   6.153
10625POPC   GL270982  35.293  19.224   6.153
10625POPC   C1A70983  35.315  19.021   6.453
10625POPC   D2A70984  35.379  19.060   6.753
10625POPC   C3A70985  35.401  19.048   7.053
10625POPC   C4A70986  35.309  19.094   7.353
10625POPC   C1B70987  35.238  19.345   6.453
10625POPC   C2B70988  35.264  19.313   6.753
10625POPC   C3B70989  35.248  19.302   7.053
10625POPC   C4B70990  35.249  19.303   7.353
10626POPC   NC370991   3.516  44.654   5.553
10626POPC   PO470992   3.573  44.620   5.853
10626POPC   GL170993   3.551  44.679   6.153
10626POPC   GL270994   3.470  44.491   6.153
10626POPC   C1A70995   3.525  44.704   6.453
10626POPC   D2A70996   3.573  44.666   6.753
10626POPC   C3A70997   3.522  44.664   7.053
10626POPC   C4A70998   3.503  44.695   7.353
10626POPC   C1B70999   3.440  44.459   6.453
10626POPC   C2B71000   3.455  44.436   6.753
10626POPC   C3B71001   3.504  44.393   7.053
10626POPC   C4B71002   3.512  44.409   7.353
10627POPC   NC371003   0.414  41.525   5.553
10627POPC   PO471004   0.480  41.592   5.853
10627POPC   GL171005   0.457  41.585   6.153
10627POPC   GL271006   0.526  41.637   6.153
10627POPC   C1A71007   0.454  41.594   6.453
10627POPC   D2A71008   0.458  41.581   6.753
10627POPC   C3A71009   0.442  41.604   7.053
10627POPC   C4A71010   0.436  41.528   7.353
10627POPC   C1B71011   0.637  41.614   6.453
10627POPC   C2B71012   0.696  41.648   6.753
10627POPC   C3B71013   0.678  41.632   7.053
10627POPC   C4B71014   0.655  41.620   7.353
10628POPC   NC371015   8.961  29.182   5.553
10628POPC   PO471016   8.955  29.128   5.853
10628POPC   GL171017   9.005  29.183   6.153
10628POPC   GL271018   8.807  29.122   6.153
10628POPC   C1A71019   8.940  29.160   6.453
10628POPC   D2A71020   9.014  29.140   6.753
10628POPC   C3A71021   8.927  29.119   7.053
10628POPC   C4A71022   8.991  29.179   7.353
10628POPC   C1B71023   8.690  29.079   6.453
10628POPC   C2B71024   8.701  29.123   6.753
10628POPC   C3B71025   8.746  29.103   7.053
10628POPC   C4B71026   8.683  29.118   7.353
10629POPC   NC371027  36.947   3.543   5.553
10629POPC   PO471028  36.913   3.522   5.853
10629POPC   GL171029  36.922   3.515   6.153
10629POPC   GL271030  36.791   3.679   6.153
10629POPC   C1A71031  36.890   3.571   6.453
10629POPC   D2A71032  36.944   3.570   6.753
10629POPC   C3A71033  36.927   3.569   7.053
10629POPC   C4A71034  36.894   3.519   7.353
10629POPC   C1B71035  36.797   3.718   6.453
10629POPC   C2B71036  36.764   3.699   6.753
10629POPC   C3B71037  36.772   3.760   7.053
10629POPC   C4B71038  36.784   3.711   7.353
10630POPC   NC371039  30.707  34.620   5.553
10630POPC   PO471040  30.741  34.583   5.853
10630POPC   GL171041  30.674  34.553   6.153
10630POPC   GL271042  30.675  34.704   6.153
10630POPC   C1A71043  30.660  34.536   6.453
10630POPC   D2A71044  30.661  34.597   6.753
10630POPC   C3A71045  30.700  34.589   7.053
10630POPC   C4A71046  30.688  34.548   7.353
10630POPC   C1B71047  30.739  34.832   6.453
10630POPC   C2B71048  30.726  34.814   6.753
10630POPC   C3B71049  30.766  34.870   7.053
10630POPC   C4B71050  30.719  34.840   7.353
10631POPC   NC371051  12.075  23.743   5.553
10631POPC   PO471052  12.079  23.732   5.853
10631POPC   GL171053  12.108  23.674   6.153
10631POPC   GL271054  12.012  23.564   6.153
10631POPC   C1A71055  12.076  23.712   6.453
10631POPC   D2A71056  12.055  23.757   6.753
10631POPC   C3A71057  12.119  23.724   7.053
10631POPC   C4A71058  12.116  23.751   7.353
10631POPC   C1B71059  11.951  23.465   6.453
10631POPC   C2B71060  11.934  23.468   6.753
10631POPC   C3B71061  11.965  23.496   7.053
10631POPC   C4B71062  11.992  23.519   7.353
10632POPC   NC371063  25.286  10.552   5.553
10632POPC   PO471064  25.300  10.499   5.853
10632POPC   GL171065  25.285  10.571   6.153
10632POPC   GL271066  25.260  10.358   6.153
10632POPC   C1A71067  25.302  10.520   6.453
10632POPC   D2A71068  25.237  10.512   6.753
10632POPC   C3A71069  25.265  10.557   7.053
10632POPC   C4A71070  25.292  10.568   7.353
10632POPC   C1B71071  25.290  10.296   6.453
10632POPC   C2B71072  25.264  10.282   6.753
10632POPC   C3B71073  25.304  10.256   7.053
10632POPC   C4B71074  25.234  10.229   7.353
10633POPC   NC371075  41.543  23.753   5.553
10633POPC   PO471076  41.560  23.762   5.853
10633POPC   GL171077  41.535  23.670   6.153
10633POPC   GL271078  41.642  23.770   6.153
10633POPC   C1A71079  41.554  23.725   6.453
10633POPC   D2A71080  41.575  23.711   6.753
10633POPC   C3A71081  41.603  23.687   7.053
10633POPC   C4A71082  41.546  23.749   7.353
10633POPC   C1B71083  41.730  23.879   6.453
10633POPC   C2B71084  41.692  23.852   6.753
10633POPC   C3B71085  41.754  23.860   7.053
10633POPC   C4B71086  41.716  23.931   7.353
10634POPC   NC371087   2.812  17.544   5.553
10634POPC   PO471088   2.794  17.482   5.853
10634POPC   GL171089   2.812  17.539   6.153
10634POPC   GL271090   2.871  17.590   6.153
10634POPC   C1A71091   2.755  17.485   6.453
10634POPC   D2A71092   2.795  17.543   6.753
10634POPC   C3A71093   2.718  17.504   7.053
10634POPC   C4A71094   2.719  17.516   7.353
10634POPC   C1B71095   2.890  17.699   6.453
10634POPC   C2B71096   2.889  17.680   6.753
10634POPC   C3B71097   2.887  17.672   7.053
10634POPC   C4B71098   2.983  17.706   7.353
10635POPC   NC371099   5.103  40.004   5.553
10635POPC   PO471100   5.088  39.989   5.853
10635POPC   GL171101   5.069  39.964   6.153
10635POPC   GL271102   4.997  40.130   6.153
10635POPC   C1A71103   5.065  40.004   6.453
10635POPC   D2A71104   5.082  40.039   6.753
10635POPC   C3A71105   5.127  39.967   7.053
10635POPC   C4A71106   5.084  39.966   7.353
10635POPC   C1B71107   4.933  40.196   6.453
10635POPC   C2B71108   4.865  40.127   6.753
10635POPC   C3B71109   4.944  40.192   7.053
10635POPC   C4B71110   4.949  40.190   7.353
10636POPC   NC371111  43.905  21.434   5.553
10636POPC   PO471112  43.880  21.357   5.853
10636POPC   GL171113  43.911  21.366   6.153
10636POPC   GL271114  43.996  21.359   6.153
10636POPC   C1A71115  43.886  21.403   6.453
10636POPC   D2A71116  43.840  21.378   6.753
10636POPC   C3A71117  43.874  21.408   7.053
10636POPC   C4A71118  43.852  21.408   7.353
10636POPC   C1B71119  44.130  21.253   6.453
10636POPC   C2B71120  44.085  21.275   6.753
10636POPC   C3B71121  44.072  21.212   7.053
10636POPC   C4B71122  44.096  21.298   7.353
10637POPC   NC371123  34.528  26.041   5.553
10637POPC   PO471124  34.570  26.050   5.853
10637POPC   GL171125  34.553  26.026   6.153
10637POPC   GL271126  34.531  25.945   6.153
10637POPC   C1A71127  34.607  26.000   6.453
10637POPC   D2A71128  34.621  26.046   6.753
10637POPC   C3A71129  34.556  26.091   7.053
10637POPC   C4A71130  34.574  26.006   7.353
10637POPC   C1B71131  34.344  25.881   6.453
10637POPC   C2B71132  34.400  25.885   6.753
10637POPC   C3B71133  34.374  25.896   7.053
10637POPC   C4B71134  34.402  25.891   7.353
10638POPC   NC371135  32.217  24.445   5.553
10638POPC   PO471136  32.278  24.509   5.853
10638POPC   GL171137  32.239  24.494   6.153
10638POPC   GL271138  32.184  24.605   6.153
10638POPC   C1A71139  32.246  24.444   6.453
10638POPC   D2A71140  32.250  24.490   6.753
10638POPC   C3A71141  32.259  24.501   7.053
10638POPC   C4A71142  32.295  24.441   7.353
10638POPC   C1B71143  32.064  24.667   6.453
10638POPC   C2B71144  32.035  24.669   6.753
10638POPC   C3B71145  32.083  24.706   7.053
10638POPC   C4B71146  32.085  24.665   7.353
10639POPC   NC371147  12.805  11.290   5.553
10639POPC   PO471148  12.826  11.253   5.853
10639POPC   GL171149  12.894  11.338   6.153
10639POPC   GL271150  12.760  11.408   6.153
10639POPC   C1A71151  12.871  11.333   6.453
10639POPC   D2A71152  12.807  11.313   6.753
10639POPC   C3A71153  12.849  11.300   7.053
10639POPC   C4A71154  12.877  11.279   7.353
10639POPC   C1B71155  12.667  11.424   6.453
10639POPC   C2B71156  12.703  11.464   6.753
10639POPC   C3B71157  12.643  11.430   7.053
10639POPC   C4B71158  12.711  11.425   7.353
10640POPC   NC371159  16.698  26.029   5.553
10640POPC   PO471160  16.756  26.004   5.853
10640POPC   GL171161  16.707  26.020   6.153
10640POPC   GL271162  16.607  25.989   6.153
10640POPC   C1A71163  16.775  26.078   6.453
10640POPC   D2A71164  16.733  26.086   6.753
10640POPC   C3A71165  16.748  26.050   7.053
10640POPC   C4A71166  16.717  26.036   7.353
10640POPC   C1B71167  16.515  26.009   6.453
10640POPC   C2B71168  16.443  25.952   6.753
10640POPC   C3B71169  16.492  25.991   7.053
10640POPC   C4B71170  16.447  25.992   7.353
10641POPC   NC371171   1.989  43.136   5.553
10641POPC   PO471172   2.032  43.113   5.853
10641POPC   GL171173   2.009  43.129   6.153
10641POPC   GL271174   2.003  43.277   6.153
10641POPC   C1A71175   2.037  43.080   6.453
10641POPC   D2A71176   2.020  43.156   6.753
10641POPC   C3A71177   2.031  43.148   7.053
10641POPC   C4A71178   2.029  43.098   7.353
10641POPC   C1B71179   2.045  43.385   6.453
10641POPC   C2B71180   2.010  43.321   6.753
10641POPC   C3B71181   2.000  43.312   7.053
10641POPC   C4B71182   1.983  43.345   7.353
10642POPC   NC371183  30.732  10.539   5.553
10642POPC   PO471184  30.674  10.538   5.853
10642POPC   GL171185  30.744  10.510   6.153
10642POPC   GL271186  30.733  10.602   6.153
10642POPC   C1A71187  30.659  10.481   6.453
10642POPC   D2A71188  30.739  10.545   6.753
10642POPC   C3A71189  30.701  10.490   7.053
10642POPC   C4A71190  30.736  10.480   7.353
10642POPC   C1B71191  30.859  10.701   6.453
10642POPC   C2B71192  30.813  10.739   6.753
10642POPC   C3B71193  30.879  10.689   7.053
10642POPC   C4B71194  30.910  10.689   7.353
10643POPC   NC371195  20.566  19.051   5.553
10643POPC   PO471196  20.576  19.034   5.853
10643POPC   GL171197  20.627  19.080   6.153
10643POPC   GL271198  20.548  19.032   6.153
10643POPC   C1A71199  20.623  19.077   6.453
10643POPC   D2A71200  20.651  19.068   6.753
10643POPC   C3A71201  20.587  19.086   7.053
10643POPC   C4A71202  20.639  19.013   7.353
10643POPC   C1B71203  20.408  18.898   6.453
10643POPC   C2B71204  20.360  18.924   6.753
10643POPC   C3B71205  20.438  18.897   7.053
10643POPC   C4B71206  20.433  18.911   7.353
10644POPC   NC371207   2.724  34.605   5.553
10644POPC   PO471208   2.732  34.582   5.853
10644POPC   GL171209   2.784  34.551   6.153
10644POPC   GL271210   2.757  34.682   6.153
10644POPC   C1A71211   2.732  34.550   6.453
10644POPC   D2A71212   2.807  34.586   6.753
10644POPC   C3A71213   2.751  34.535   7.053
10644POPC   C4A71214   2.798  34.560   7.353
10644POPC   C1B71215   2.790  34.797   6.453
10644POPC   C2B71216   2.741  34.803   6.753
10644POPC   C3B71217   2.768  34.873   7.053
10644POPC   C4B71218   2.799  34.800   7.353
10645POPC   NC371219  42.349  14.411   5.553
10645POPC   PO471220  42.299  14.422   5.853
10645POPC   GL171221  42.291  14.358   6.153
10645POPC   GL271222  42.203  14.491   6.153
10645POPC   C1A71223  42.352  14.365   6.453
10645POPC   D2A71224  42.290  14.405   6.753
10645POPC   C3A71225  42.341  14.424   7.053
10645POPC   C4A71226  42.380  14.417   7.353
10645POPC   C1B71227  42.118  14.519   6.453
10645POPC   C2B71228  42.102  14.453   6.753
10645POPC   C3B71229  42.123  14.518   7.053
10645POPC   C4B71230  42.078  14.508   7.353
10646POPC   NC371231  20.561  40.037   5.553
10646POPC   PO471232  20.565  39.975   5.853
10646POPC   GL171233  20.614  39.959   6.153
10646POPC   GL271234  20.511  40.161   6.153
10646POPC   C1A71235  20.607  39.990   6.453
10646POPC   D2A71236  20.568  40.050   6.753
10646POPC   C3A71237  20.631  39.963   7.053
10646POPC   C4A71238  20.614  40.007   7.353
10646POPC   C1B71239  20.520  40.263   6.453
10646POPC   C2B71240  20.508  40.265   6.753
10646POPC   C3B71241  20.504  40.260   7.053
10646POPC   C4B71242  20.431  40.259   7.353
10647POPC   NC371243  41.606  10.560   5.553
10647POPC   PO471244  41.524  10.480   5.853
10647POPC   GL171245  41.549  10.538   6.153
10647POPC   GL271246  41.663  10.650   6.153
10647POPC   C1A71247  41.578  10.505   6.453
10647POPC   D2A71248  41.603  10.494   6.753
10647POPC   C3A71249  41.576  10.503   7.053
10647POPC   C4A71250  41.564  10.507   7.353
10647POPC   C1B71251  41.681  10.735   6.453
10647POPC   C2B71252  41.680  10.729   6.753
10647POPC   C3B71253  41.671  10.687   7.053
10647POPC   C4B71254  41.685  10.683   7.353
10648POPC   NC371255  31.440  30.721   5.553
10648POPC   PO471256  31.519  30.700   5.853
10648POPC   GL171257  31.462  30.731   6.153
10648POPC   GL271258  31.557  30.789   6.153
10648POPC   C1A71259  31.511  30.736   6.453
10648POPC   D2A71260  31.514  30.707   6.753
10648POPC   C3A71261  31.440  30.688   7.053
10648POPC   C4A71262  31.495  30.683   7.353
10648POPC   C1B71263  31.627  30.830   6.453
10648POPC   C2B71264  31.698  30.885   6.753
10648POPC   C3B71265  31.696  30.881   7.053
10648POPC   C4B71266  31.641  30.816   7.353
10649POPC   NC371267  37.717  10.529   5.553
10649POPC   PO471268  37.708  10.484   5.853
10649POPC   GL171269  37.634  10.541   6.153
10649POPC   GL271270  37.601  10.372   6.153
10649POPC   C1A71271  37.691  10.560   6.453
10649POPC   D2A71272  37.632  10.526   6.753
10649POPC   C3A71273  37.680  10.559   7.053
10649POPC   C4A71274  37.683  10.500   7.353
10649POPC   C1B71275  37.609  10.269   6.453
10649POPC   C2B71276  37.626  10.266   6.753
10649POPC   C3B71277  37.570  10.244   7.053
10649POPC   C4B71278  37.564  10.252   7.353
10650POPC   NC371279  31.454  14.387   5.553
10650POPC   PO471280  31.478  14.357   5.853
10650POPC   GL171281  31.505  14.363   6.153
10650POPC   GL271282  31.635  14.407   6.153
10650POPC   C1A71283  31.514  14.428   6.453
10650POPC   D2A71284  31.431  14.403   6.753
10650POPC   C3A71285  31.515  14.453   7.053
10650POPC   C4A71286  31.430  14.369   7.353
10650POPC   C1B71287  31.722  14.467   6.453
10650POPC   C2B71288  31.690  14.524   6.753
10650POPC   C3B71289  31.732  14.477   7.053
10650POPC   C4B71290  31.749  14.545   7.353
10651POPC   NC371291   8.987  19.083   5.553
10651POPC   PO471292   8.951  19.046   5.853
10651POPC   GL171293   9.004  19.061   6.153
10651POPC   GL271294   8.958  18.913   6.153
10651POPC   C1A71295   9.013  19.038   6.453
10651POPC   D2A71296   9.016  19.022   6.753
10651POPC   C3A71297   8.949  19.042   7.053
10651POPC   C4A71298   9.014  19.016   7.353
10651POPC   C1B71299   9.029  18.783   6.453
10651POPC   C2B71300   9.077  18.861   6.753
10651POPC   C3B71301   8.992  18.863   7.053
10651POPC   C4B71302   9.034  18.824   7.353
10652POPC   NC371303   9.793  29.928   5.553
10652POPC   PO471304   9.711  29.950   5.853
10652POPC   GL171305   9.703  29.933   6.153
10652POPC   GL271306   9.853  29.930   6.153
10652POPC   C1A71307   9.767  29.885   6.453
10652POPC   D2A71308   9.765  29.933   6.753
10652POPC   C3A71309   9.745  29.878   7.053
10652POPC   C4A71310   9.701  29.904   7.353
10652POPC   C1B71311   9.993  29.854   6.453
10652POPC   C2B71312   9.979  29.814   6.753
10652POPC   C3B71313   9.941  29.811   7.053
10652POPC   C4B71314   9.950  29.871   7.353
10653POPC   NC371315  23.736  43.861   5.553
10653POPC   PO471316  23.732  43.919   5.853
10653POPC   GL171317  23.689  43.919   6.153
10653POPC   GL271318  23.569  43.880   6.153
10653POPC   C1A71319  23.731  43.841   6.453
10653POPC   D2A71320  23.674  43.862   6.753
10653POPC   C3A71321  23.750  43.898   7.053
10653POPC   C4A71322  23.740  43.890   7.353
10653POPC   C1B71323  23.442  43.923   6.453
10653POPC   C2B71324  23.444  43.894   6.753
10653POPC   C3B71325  23.509  43.902   7.053
10653POPC   C4B71326  23.490  43.876   7.353
10654POPC   NC371327   7.427  19.803   5.553
10654POPC   PO471328   7.371  19.843   5.853
10654POPC   GL171329   7.442  19.809   6.153
10654POPC   GL271330   7.293  19.808   6.153
10654POPC   C1A71331   7.446  19.815   6.453
10654POPC   D2A71332   7.397  19.875   6.753
10654POPC   C3A71333   7.416  19.841   7.053
10654POPC   C4A71334   7.372  19.827   7.353
10654POPC   C1B71335   7.164  19.776   6.453
10654POPC   C2B71336   7.168  19.778   6.753
10654POPC   C3B71337   7.133  19.824   7.053
10654POPC   C4B71338   7.217  19.785   7.353
10655POPC   NC371339   7.421  28.345   5.553
10655POPC   PO471340   7.391  28.375   5.853
10655POPC   GL171341   7.470  28.408   6.153
10655POPC   GL271342   7.392  28.257   6.153
10655POPC   C1A71343   7.373  28.328   6.453
10655POPC   D2A71344   7.450  28.410   6.753
10655POPC   C3A71345   7.446  28.396   7.053
10655POPC   C4A71346   7.470  28.360   7.353
10655POPC   C1B71347   7.245  28.211   6.453
10655POPC   C2B71348   7.259  28.157   6.753
10655POPC   C3B71349   7.223  28.168   7.053
10655POPC   C4B71350   7.272  28.138   7.353
10656POPC   NC371351  26.781  17.504   5.553
10656POPC   PO471352  26.864  17.496   5.853
10656POPC   GL171353  26.825  17.460   6.153
10656POPC   GL271354  26.873  17.657   6.153
10656POPC   C1A71355  26.829  17.521   6.453
10656POPC   D2A71356  26.808  17.482   6.753
10656POPC   C3A71357  26.804  17.524   7.053
10656POPC   C4A71358  26.861  17.458   7.353
10656POPC   C1B71359  26.810  17.746   6.453
10656POPC   C2B71360  26.822  17.781   6.753
10656POPC   C3B71361  26.875  17.744   7.053
10656POPC   C4B71362  26.856  17.778   7.353
10657POPC   NC371363  10.547  37.648   5.553
10657POPC   PO471364  10.522  37.651   5.853
10657POPC   GL171365  10.540  37.651   6.153
10657POPC   GL271366  10.685  37.690   6.153
10657POPC   C1A71367  10.530  37.726   6.453
10657POPC   D2A71368  10.504  37.682   6.753
10657POPC   C3A71369  10.558  37.723   7.053
10657POPC   C4A71370  10.547  37.689   7.353
10657POPC   C1B71371  10.747  37.717   6.453
10657POPC   C2B71372  10.799  37.631   6.753
10657POPC   C3B71373  10.801  37.644   7.053
10657POPC   C4B71374  10.815  37.678   7.353
10658POPC   NC371375  11.258  19.020   5.553
10658POPC   PO471376  11.341  19.035   5.853
10658POPC   GL171377  11.287  19.060   6.153
10658POPC   GL271378  11.183  19.034   6.153
10658POPC   C1A71379  11.269  19.031   6.453
10658POPC   D2A71380  11.291  19.035   6.753
10658POPC   C3A71381  11.279  19.081   7.053
10658POPC   C4A71382  11.346  19.075   7.353
10658POPC   C1B71383  11.036  19.154   6.453
10658POPC   C2B71384  11.047  19.073   6.753
10658POPC   C3B71385  11.079  19.139   7.053
10658POPC   C4B71386  11.071  19.066   7.353
10659POPC   NC371387   2.793  11.252   5.553
10659POPC   PO471388   2.815  11.329   5.853
10659POPC   GL171389   2.733  11.282   6.153
10659POPC   GL271390   2.816  11.413   6.153
10659POPC   C1A71391   2.722  11.263   6.453
10659POPC   D2A71392   2.803  11.313   6.753
10659POPC   C3A71393   2.739  11.344   7.053
10659POPC   C4A71394   2.737  11.277   7.353
10659POPC   C1B71395   2.857  11.477   6.453
10659POPC   C2B71396   2.851  11.521   6.753
10659POPC   C3B71397   2.861  11.529   7.053
10659POPC   C4B71398   2.841  11.554   7.353
10660POPC   NC371399  11.267   1.205   5.553
10660POPC   PO471400  11.269   1.249   5.853
10660POPC   GL171401  11.344   1.179   6.153
10660POPC   GL271402  11.340   1.119   6.153
10660POPC   C1A71403  11.313   1.210   6.453
10660POPC   D2A71404  11.262   1.198   6.753
10660POPC   C3A71405  11.275   1.172   7.053
10660POPC   C4A71406  11.261   1.218   7.353
10660POPC   C1B71407  11.308   0.993   6.453
10660POPC   C2B71408  11.259   0.975   6.753
10660POPC   C3B71409  11.252   0.980   7.053
10660POPC   C4B71410  11.247   0.958   7.353
10661POPC   NC371411  39.246  20.600   5.553
10661POPC   PO471412  39.186  20.618   5.853
10661POPC   GL171413  39.205  20.647   6.153
10661POPC   GL271414  39.158  20.522   6.153
10661POPC   C1A71415  39.225  20.577   6.453
10661POPC   D2A71416  39.188  20.586   6.753
10661POPC   C3A71417  39.196  20.619   7.053
10661POPC   C4A71418  39.184  20.619   7.353
10661POPC   C1B71419  39.005  20.481   6.453
10661POPC   C2B71420  39.041  20.502   6.753
10661POPC   C3B71421  39.018  20.511   7.053
10661POPC   C4B71422  39.064  20.480   7.353
10662POPC   NC371423  12.850   5.909   5.553
10662POPC   PO471424  12.821   5.860   5.853
10662POPC   GL171425  12.888   5.878   6.153
10662POPC   GL271426  12.774   5.981   6.153
10662POPC   C1A71427  12.825   5.864   6.453
10662POPC   D2A71428  12.852   5.907   6.753
10662POPC   C3A71429  12.895   5.887   7.053
10662POPC   C4A71430  12.812   5.913   7.353
10662POPC   C1B71431  12.698   6.114   6.453
10662POPC   C2B71432  12.738   6.096   6.753
10662POPC   C3B71433  12.661   6.079   7.053
10662POPC   C4B71434  12.702   6.069   7.353
10663POPC   NC371435   0.433   9.731   5.553
10663POPC   PO471436   0.418   9.798   5.853
10663POPC   GL171437   0.483   9.796   6.153
10663POPC   GL271438   0.436   9.630   6.153
10663POPC   C1A71439   0.456   9.785   6.453
10663POPC   D2A71440   0.475   9.738   6.753
10663POPC   C3A71441   0.448   9.779   7.053
10663POPC   C4A71442   0.405   9.745   7.353
10663POPC   C1B71443   0.375   9.457   6.453
10663POPC   C2B71444   0.368   9.461   6.753
10663POPC   C3B71445   0.338   9.508   7.053
10663POPC   C4B71446   0.373   9.520   7.353
10664POPC   NC371447  36.868  20.627   5.553
10664POPC   PO471448  36.928  20.597   5.853
10664POPC   GL171449  36.896  20.642   6.153
10664POPC   GL271450  36.807  20.578   6.153
10664POPC   C1A71451  36.895  20.638   6.453
10664POPC   D2A71452  36.926  20.615   6.753
10664POPC   C3A71453  36.889  20.591   7.053
10664POPC   C4A71454  36.941  20.603   7.353
10664POPC   C1B71455  36.621  20.646   6.453
10664POPC   C2B71456  36.644  20.600   6.753
10664POPC   C3B71457  36.642  20.594   7.053
10664POPC   C4B71458  36.637  20.674   7.353
10665POPC   NC371459  22.181  12.871   5.553
10665POPC   PO471460  22.171  12.807   5.853
10665POPC   GL171461  22.168  12.895   6.153
10665POPC   GL271462  22.062  12.810   6.153
10665POPC   C1A71463  22.128  12.821   6.453
10665POPC   D2A71464  22.127  12.840   6.753
10665POPC   C3A71465  22.146  12.808   7.053
10665POPC   C4A71466  22.169  12.870   7.353
10665POPC   C1B71467  21.949  12.738   6.453
10665POPC   C2B71468  21.944  12.665   6.753
10665POPC   C3B71469  21.995  12.749   7.053
10665POPC   C4B71470  21.997  12.665   7.353
10666POPC   NC371471  25.278   1.233   5.553
10666POPC   PO471472  25.247   1.210   5.853
10666POPC   GL171473  25.216   1.242   6.153
10666POPC   GL271474  25.409   1.263   6.153
10666POPC   C1A71475  25.259   1.216   6.453
10666POPC   D2A71476  25.263   1.257   6.753
10666POPC   C3A71477  25.281   1.243   7.053
10666POPC   C4A71478  25.256   1.251   7.353
10666POPC   C1B71479  25.480   1.246   6.453
10666POPC   C2B71480  25.528   1.248   6.753
10666POPC   C3B71481  25.561   1.248   7.053
10666POPC   C4B71482  25.548   1.236   7.353
10667POPC   NC371483   8.923  36.162   5.553
10667POPC   PO471484   8.956  36.104   5.853
10667POPC   GL171485   8.989  36.177   6.153
10667POPC   GL271486   8.953  36.231   6.153
10667POPC   C1A71487   8.999  36.151   6.453
10667POPC   D2A71488   8.933  36.081   6.753
10667POPC   C3A71489   8.984  36.154   7.053
10667POPC   C4A71490   8.933  36.166   7.353
10667POPC   C1B71491   8.871  36.368   6.453
10667POPC   C2B71492   8.905  36.335   6.753
10667POPC   C3B71493   8.851  36.392   7.053
10667POPC   C4B71494   8.874  36.345   7.353
10668POPC   NC371495  28.389  32.284   5.553
10668POPC   PO471496  28.324  32.205   5.853
10668POPC   GL171497  28.394  32.258   6.153
10668POPC   GL271498  28.372  32.172   6.153
10668POPC   C1A71499  28.389  32.259   6.453
10668POPC   D2A71500  28.397  32.267   6.753
10668POPC   C3A71501  28.339  32.212   7.053
10668POPC   C4A71502  28.411  32.298   7.353
10668POPC   C1B71503  28.441  31.979   6.453
10668POPC   C2B71504  28.463  31.960   6.753
10668POPC   C3B71505  28.392  32.027   7.053
10668POPC   C4B71506  28.386  31.967   7.353
10669POPC   NC371507   5.841  26.052   5.553
10669POPC   PO471508   5.918  26.025   5.853
10669POPC   GL171509   5.859  26.012   6.153
10669POPC   GL271510   5.859  26.187   6.153
10669POPC   C1A71511   5.869  26.063   6.453
10669POPC   D2A71512   5.844  26.086   6.753
10669POPC   C3A71513   5.827  26.012   7.053
10669POPC   C4A71514   5.845  26.035   7.353
10669POPC   C1B71515   5.795  26.276   6.453
10669POPC   C2B71516   5.809  26.261   6.753
10669POPC   C3B71517   5.847  26.241   7.053
10669POPC   C4B71518   5.814  26.277   7.353
10670POPC   NC371519  15.174  30.677   5.553
10670POPC   PO471520  15.143  30.723   5.853
10670POPC   GL171521  15.207  30.691   6.153
10670POPC   GL271522  15.104  30.665   6.153
10670POPC   C1A71523  15.203  30.700   6.453
10670POPC   D2A71524  15.226  30.717   6.753
10670POPC   C3A71525  15.215  30.737   7.053
10670POPC   C4A71526  15.217  30.701   7.353
10670POPC   C1B71527  14.957  30.683   6.453
10670POPC   C2B71528  14.978  30.671   6.753
10670POPC   C3B71529  14.935  30.705   7.053
10670POPC   C4B71530  14.974  30.679   7.353
10671POPC   NC371531   8.175  38.429   5.553
10671POPC   PO471532   8.161  38.464   5.853
10671POPC   GL171533   8.203  38.468   6.153
10671POPC   GL271534   8.114  38.352   6.153
10671POPC   C1A71535   8.218  38.452   6.453
10671POPC   D2A71536   8.233  38.451   6.753
10671POPC   C3A71537   8.162  38.495   7.053
10671POPC   C4A71538   8.207  38.470   7.353
10671POPC   C1B71539   7.990  38.357   6.453
10671POPC   C2B71540   7.943  38.381   6.753
10671POPC   C3B71541   7.950  38.328   7.053
10671POPC   C4B71542   8.012  38.359   7.353
10672POPC   NC371543  18.253  17.502   5.553
10672POPC   PO471544  18.319  17.509   5.853
10672POPC   GL171545  18.273  17.474   6.153
10672POPC   GL271546  18.254  17.429   6.153
10672POPC   C1A71547  18.236  17.540   6.453
10672POPC   D2A71548  18.248  17.521   6.753
10672POPC   C3A71549  18.256  17.495   7.053
10672POPC   C4A71550  18.302  17.522   7.353
10672POPC   C1B71551  18.297  17.278   6.453
10672POPC   C2B71552  18.275  17.217   6.753
10672POPC   C3B71553  18.278  17.252   7.053
10672POPC   C4B71554  18.247  17.237   7.353
10673POPC   NC371555  44.710  18.299   5.553
10673POPC   PO471556  44.614  18.265   5.853
10673POPC   GL171557  44.662  18.313   6.153
10673POPC   GL271558  44.795  18.245   6.153
10673POPC   C1A71559  44.676  18.267   6.453
10673POPC   D2A71560  44.703  18.289   6.753
10673POPC   C3A71561  44.658  18.319   7.053
10673POPC   C4A71562  44.630  18.299   7.353
10673POPC   C1B71563  44.867  18.192   6.453
10673POPC   C2B71564  44.833  18.198   6.753
10673POPC   C3B71565  44.888  18.144   7.053
10673POPC   C4B71566  44.927  18.141   7.353
10674POPC   NC371567  25.297  44.688   5.553
10674POPC   PO471568  25.217  44.643   5.853
10674POPC   GL171569  25.279  44.668   6.153
10674POPC   GL271570  25.208  44.731   6.153
10674POPC   C1A71571  25.266  44.689   6.453
10674POPC   D2A71572  25.286  44.617   6.753
10674POPC   C3A71573  25.308  44.682   7.053
10674POPC   C4A71574  25.303  44.671   7.353
10674POPC   C1B71575  25.120  44.823   6.453
10674POPC   C2B71576  25.108  44.882   6.753
10674POPC   C3B71577  25.057  44.864   7.053
10674POPC   C4B71578  25.042  44.814   7.353
10675POPC   NC371579   5.883  32.226   5.553
10675POPC   PO471580   5.888  32.294   5.853
10675POPC   GL171581   5.919  32.206   6.153
10675POPC   GL271582   5.964  32.232   6.153
10675POPC   C1A71583   5.882  32.264   6.453
10675POPC   D2A71584   5.916  32.249   6.753
10675POPC   C3A71585   5.869  32.242   7.053
10675POPC   C4A71586   5.876  32.284   7.353
10675POPC   C1B71587   6.083  32.245   6.453
10675POPC   C2B71588   6.163  32.184   6.753
10675POPC   C3B71589   6.138  32.194   7.053
10675POPC   C4B71590   6.150  32.228   7.353
10676POPC   NC371591  39.192   3.529   5.553
10676POPC   PO471592  39.232   3.492   5.853
10676POPC   GL171593  39.272   3.526   6.153
10676POPC   GL271594  39.377   3.564   6.153
10676POPC   C1A71595  39.215   3.521   6.453
10676POPC   D2A71596  39.194   3.540   6.753
10676POPC   C3A71597  39.275   3.511   7.053
10676POPC   C4A71598  39.221   3.543   7.353
10676POPC   C1B71599  39.493   3.604   6.453
10676POPC   C2B71600  39.444   3.552   6.753
10676POPC   C3B71601  39.439   3.590   7.053
10676POPC   C4B71602  39.469   3.599   7.353
10677POPC   NC371603  13.581  19.041   5.553
10677POPC   PO471604  13.656  19.019   5.853
10677POPC   GL171605  13.670  19.077   6.153
10677POPC   GL271606  13.527  19.186   6.153
10677POPC   C1A71607  13.583  19.054   6.453
10677POPC   D2A71608  13.602  19.050   6.753
10677POPC   C3A71609  13.609  19.025   7.053
10677POPC   C4A71610  13.647  19.083   7.353
10677POPC   C1B71611  13.514  19.271   6.453
10677POPC   C2B71612  13.465  19.282   6.753
10677POPC   C3B71613  13.488  19.298   7.053
10677POPC   C4B71614  13.477  19.315   7.353
10678POPC   NC371615  35.380  12.826   5.553
10678POPC   PO471616  35.340  12.818   5.853
10678POPC   GL171617  35.392  12.874   6.153
10678POPC   GL271618  35.526  12.812   6.153
10678POPC   C1A71619  35.377  12.845   6.453
10678POPC   D2A71620  35.370  12.880   6.753
10678POPC   C3A71621  35.310  12.901   7.053
10678POPC   C4A71622  35.387  12.819   7.353
10678POPC   C1B71623  35.574  12.864   6.453
10678POPC   C2B71624  35.640  12.821   6.753
10678POPC   C3B71625  35.631  12.816   7.053
10678POPC   C4B71626  35.629  12.806   7.353
10679POPC   NC371627  35.308   5.819   5.553
10679POPC   PO471628  35.362   5.847   5.853
10679POPC   GL171629  35.345   5.885   6.153
10679POPC   GL271630  35.322   6.001   6.153
10679POPC   C1A71631  35.316   5.876   6.453
10679POPC   D2A71632  35.344   5.842   6.753
10679POPC   C3A71633  35.374   5.821   7.053
10679POPC   C4A71634  35.394   5.916   7.353
10679POPC   C1B71635  35.254   6.101   6.453
10679POPC   C2B71636  35.287   6.115   6.753
10679POPC   C3B71637  35.291   6.124   7.053
10679POPC   C4B71638  35.295   6.114   7.353
10680POPC   NC371639  12.041   1.204   5.553
10680POPC   PO471640  12.058   1.235   5.853
10680POPC   GL171641  12.065   1.191   6.153
10680POPC   GL271642  12.148   1.314   6.153
10680POPC   C1A71643  12.062   1.208   6.453
10680POPC   D2A71644  12.049   1.174   6.753
10680POPC   C3A71645  12.039   1.211   7.053
10680POPC   C4A71646  12.062   1.263   7.353
10680POPC   C1B71647  12.085   1.423   6.453
10680POPC   C2B71648  12.104   1.468   6.753
10680POPC   C3B71649  12.111   1.423   7.053
10680POPC   C4B71650  12.086   1.413   7.353
10681POPC   NC371651   6.612  24.530   5.553
10681POPC   PO471652   6.666  24.505   5.853
10681POPC   GL171653   6.639  24.504   6.153
10681POPC   GL271654   6.702  24.333   6.153
10681POPC   C1A71655   6.684  24.440   6.453
10681POPC   D2A71656   6.620  24.494   6.753
10681POPC   C3A71657   6.616  24.512   7.053
10681POPC   C4A71658   6.694  24.462   7.353
10681POPC   C1B71659   6.673  24.280   6.453
10681POPC   C2B71660   6.697  24.252   6.753
10681POPC   C3B71661   6.679  24.203   7.053
10681POPC   C4B71662   6.723  24.218   7.353
10682POPC   NC371663  15.925  29.898   5.553
10682POPC   PO471664  15.928  29.948   5.853
10682POPC   GL171665  15.974  29.964   6.153
10682POPC   GL271666  15.818  29.976   6.153
10682POPC   C1A71667  15.966  29.948   6.453
10682POPC   D2A71668  15.974  29.952   6.753
10682POPC   C3A71669  15.999  29.900   7.053
10682POPC   C4A71670  15.940  29.908   7.353
10682POPC   C1B71671  15.714  29.930   6.453
10682POPC   C2B71672  15.748  29.982   6.753
10682POPC   C3B71673  15.738  29.972   7.053
10682POPC   C4B71674  15.742  29.907   7.353
10683POPC   NC371675   9.777  16.709   5.553
10683POPC   PO471676   9.762  16.701   5.853
10683POPC   GL171677   9.703  16.694   6.153
10683POPC   GL271678   9.662  16.812   6.153
10683POPC   C1A71679   9.765  16.699   6.453
10683POPC   D2A71680   9.748  16.780   6.753
10683POPC   C3A71681   9.783  16.722   7.053
10683POPC   C4A71682   9.776  16.735   7.353
10683POPC   C1B71683   9.529  16.803   6.453
10683POPC   C2B71684   9.514  16.799   6.753
10683POPC   C3B71685   9.547  16.834   7.053
10683POPC   C4B71686   9.562  16.840   7.353
10684POPC   NC371687  22.202  30.674   5.553
10684POPC   PO471688  22.163  30.740   5.853
10684POPC   GL171689  22.120  30.704   6.153
10684POPC   GL271690  22.286  30.779   6.153
10684POPC   C1A71691  22.185  30.733   6.453
10684POPC   D2A71692  22.165  30.740   6.753
10684POPC   C3A71693  22.164  30.669   7.053
10684POPC   C4A71694  22.126  30.685   7.353
10684POPC   C1B71695  22.422  30.831   6.453
10684POPC   C2B71696  22.414  30.831   6.753
10684POPC   C3B71697  22.357  30.820   7.053
10684POPC   C4B71698  22.357  30.784   7.353
10685POPC   NC371699  28.409  39.242   5.553
10685POPC   PO471700  28.351  39.269   5.853
10685POPC   GL171701  28.405  39.245   6.153
10685POPC   GL271702  28.208  39.213   6.153
10685POPC   C1A71703  28.353  39.235   6.453
10685POPC   D2A71704  28.340  39.198   6.753
10685POPC   C3A71705  28.381  39.211   7.053
10685POPC   C4A71706  28.331  39.246   7.353
10685POPC   C1B71707  28.103  39.187   6.453
10685POPC   C2B71708  28.095  39.198   6.753
10685POPC   C3B71709  28.096  39.183   7.053
10685POPC   C4B71710  28.147  39.194   7.353
10686POPC   NC371711  10.534  39.248   5.553
10686POPC   PO471712  10.499  39.204   5.853
10686POPC   GL171713  10.565  39.265   6.153
10686POPC   GL271714  10.547  39.300   6.153
10686POPC   C1A71715  10.530  39.220   6.453
10686POPC   D2A71716  10.502  39.268   6.753
10686POPC   C3A71717  10.478  39.244   7.053
10686POPC   C4A71718  10.563  39.277   7.353
10686POPC   C1B71719  10.691  39.489   6.453
10686POPC   C2B71720  10.641  39.436   6.753
10686POPC   C3B71721  10.626  39.476   7.053
10686POPC   C4B71722  10.624  39.471   7.353
10687POPC   NC371723  22.168  20.633   5.553
10687POPC   PO471724  22.180  20.573   5.853
10687POPC   GL171725  22.152  20.599   6.153
10687POPC   GL271726  22.089  20.492   6.153
10687POPC   C1A71727  22.201  20.589   6.453
10687POPC   D2A71728  22.175  20.621   6.753
10687POPC   C3A71729  22.211  20.580   7.053
10687POPC   C4A71730  22.187  20.589   7.353
10687POPC   C1B71731  21.989  20.430   6.453
10687POPC   C2B71732  22.015  20.459   6.753
10687POPC   C3B71733  21.926  20.452   7.053
10687POPC   C4B71734  21.934  20.465   7.353
10688POPC   NC371735  19.083   5.079   5.553
10688POPC   PO471736  19.009   5.044   5.853
10688POPC   GL171737  19.075   5.112   6.153
10688POPC   GL271738  19.004   4.961   6.153
10688POPC   C1A71739  19.104   5.079   6.453
10688POPC   D2A71740  19.082   5.110   6.753
10688POPC   C3A71741  19.087   5.047   7.053
10688POPC   C4A71742  19.015   5.122   7.353
10688POPC   C1B71743  18.928   4.916   6.453
10688POPC   C2B71744  18.875   4.883   6.753
10688POPC   C3B71745  18.893   4.857   7.053
10688POPC   C4B71746  18.956   4.908   7.353
10689POPC   NC371747  13.615  42.300   5.553
10689POPC   PO471748  13.639  42.353   5.853
10689POPC   GL171749  13.597  42.353   6.153
10689POPC   GL271750  13.776  42.305   6.153
10689POPC   C1A71751  13.629  42.312   6.453
10689POPC   D2A71752  13.587  42.367   6.753
10689POPC   C3A71753  13.590  42.296   7.053
10689POPC   C4A71754  13.593  42.291   7.353
10689POPC   C1B71755  13.885  42.196   6.453
10689POPC   C2B71756  13.825  42.179   6.753
10689POPC   C3B71757  13.847  42.176   7.053
10689POPC   C4B71758  13.874  42.152   7.353
10690POPC   NC371759  39.208   2.004   5.553
10690POPC   PO471760  39.257   1.943   5.853
10690POPC   GL171761  39.232   1.955   6.153
10690POPC   GL271762  39.089   1.978   6.153
10690POPC   C1A71763  39.272   2.030   6.453
10690POPC   D2A71764  39.259   1.995   6.753
10690POPC   C3A71765  39.269   1.989   7.053
10690POPC   C4A71766  39.209   1.977   7.353
10690POPC   C1B71767  38.989   2.010   6.453
10690POPC   C2B71768  38.947   2.042   6.753
10690POPC   C3B71769  38.986   2.079   7.053
10690POPC   C4B71770  38.941   2.040   7.353
10691POPC   NC371771   6.661  43.068   5.553
10691POPC   PO471772   6.634  43.131   5.853
10691POPC   GL171773   6.618  43.160   6.153
10691POPC   GL271774   6.758  43.189   6.153
10691POPC   C1A71775   6.676  43.121   6.453
10691POPC   D2A71776   6.625  43.141   6.753
10691POPC   C3A71777   6.602  43.079   7.053
10691POPC   C4A71778   6.669  43.103   7.353
10691POPC   C1B71779   6.892  43.191   6.453
10691POPC   C2B71780   6.886  43.214   6.753
10691POPC   C3B71781   6.905  43.241   7.053
10691POPC   C4B71782   6.857  43.247   7.353
10692POPC   NC371783  24.537  25.271   5.553
10692POPC   PO471784  24.470  25.235   5.853
10692POPC   GL171785  24.444  25.296   6.153
10692POPC   GL271786  24.631  25.266   6.153
10692POPC   C1A71787  24.527  25.293   6.453
10692POPC   D2A71788  24.491  25.279   6.753
10692POPC   C3A71789  24.448  25.257   7.053
10692POPC   C4A71790  24.445  25.219   7.353
10692POPC   C1B71791  24.777  25.263   6.453
10692POPC   C2B71792  24.699  25.323   6.753
10692POPC   C3B71793  24.746  25.269   7.053
10692POPC   C4B71794  24.765  25.294   7.353
10693POPC   NC371795  32.988  29.141   5.553
10693POPC   PO471796  32.999  29.114   5.853
10693POPC   GL171797  33.062  29.158   6.153
10693POPC   GL271798  33.170  29.168   6.153
10693POPC   C1A71799  33.001  29.107   6.453
10693POPC   D2A71800  33.057  29.194   6.753
10693POPC   C3A71801  33.045  29.164   7.053
10693POPC   C4A71802  32.990  29.143   7.353
10693POPC   C1B71803  33.322  29.169   6.453
10693POPC   C2B71804  33.273  29.200   6.753
10693POPC   C3B71805  33.313  29.151   7.053
10693POPC   C4B71806  33.256  29.131   7.353
10694POPC   NC371807  42.366   2.034   5.553
10694POPC   PO471808  42.333   2.014   5.853
10694POPC   GL171809  42.291   1.950   6.153
10694POPC   GL271810  42.442   1.923   6.153
10694POPC   C1A71811  42.292   1.947   6.453
10694POPC   D2A71812  42.329   1.946   6.753
10694POPC   C3A71813  42.346   1.992   7.053
10694POPC   C4A71814  42.304   1.979   7.353
10694POPC   C1B71815  42.611   1.896   6.453
10694POPC   C2B71816  42.571   1.945   6.753
10694POPC   C3B71817  42.607   1.938   7.053
10694POPC   C4B71818  42.533   1.866   7.353
10695POPC   NC371819  15.962  29.099   5.553
10695POPC   PO471820  15.997  29.174   5.853
10695POPC   GL171821  15.922  29.135   6.153
10695POPC   GL271822  15.901  29.015   6.153
10695POPC   C1A71823  15.922  29.173   6.453
10695POPC   D2A71824  15.989  29.121   6.753
10695POPC   C3A71825  15.945  29.132   7.053
10695POPC   C4A71826  15.932  29.145   7.353
10695POPC   C1B71827  15.880  28.925   6.453
10695POPC   C2B71828  15.932  28.895   6.753
10695POPC   C3B71829  15.867  28.926   7.053
10695POPC   C4B71830  15.946  28.946   7.353
10696POPC   NC371831  27.634   0.469   5.553
10696POPC   PO471832  27.590   0.418   5.853
10696POPC   GL171833  27.550   0.485   6.153
10696POPC   GL271834  27.687   0.339   6.153
10696POPC   C1A71835  27.597   0.416   6.453
10696POPC   D2A71836  27.613   0.436   6.753
10696POPC   C3A71837  27.547   0.432   7.053
10696POPC   C4A71838  27.625   0.432   7.353
10696POPC   C1B71839  27.735   0.250   6.453
10696POPC   C2B71840  27.764   0.272   6.753
10696POPC   C3B71841  27.768   0.254   7.053
10696POPC   C4B71842  27.759   0.241   7.353
10697POPC   NC371843   8.187  32.206   5.553
10697POPC   PO471844   8.219  32.207   5.853
10697POPC   GL171845   8.226  32.271   6.153
10697POPC   GL271846   8.156  32.392   6.153
10697POPC   C1A71847   8.229  32.267   6.453
10697POPC   D2A71848   8.204  32.200   6.753
10697POPC   C3A71849   8.191  32.230   7.053
10697POPC   C4A71850   8.246  32.289   7.353
10697POPC   C1B71851   8.151  32.496   6.453
10697POPC   C2B71852   8.139  32.432   6.753
10697POPC   C3B71853   8.151  32.455   7.053
10697POPC   C4B71854   8.056  32.517   7.353
10698POPC   NC371855  21.405  29.932   5.553
10698POPC   PO471856  21.337  29.955   5.853
10698POPC   GL171857  21.377  29.938   6.153
10698POPC   GL271858  21.454  29.986   6.153
10698POPC   C1A71859  21.340  29.955   6.453
10698POPC   D2A71860  21.367  29.908   6.753
10698POPC   C3A71861  21.397  29.912   7.053
10698POPC   C4A71862  21.414  29.942   7.353
10698POPC   C1B71863  21.649  30.035   6.453
10698POPC   C2B71864  21.652  30.074   6.753
10698POPC   C3B71865  21.580  30.048   7.053
10698POPC   C4B71866  21.574  30.051   7.353
10699POPC   NC371867  33.071  36.857   5.553
10699POPC   PO471868  33.051  36.930   5.853
10699POPC   GL171869  33.058  36.948   6.153
10699POPC   GL271870  32.908  36.873   6.153
10699POPC   C1A71871  33.019  36.878   6.453
10699POPC   D2A71872  33.032  36.886   6.753
10699POPC   C3A71873  33.060  36.941   7.053
10699POPC   C4A71874  33.055  36.946   7.353
10699POPC   C1B71875  32.833  36.777   6.453
10699POPC   C2B71876  32.786  36.728   6.753
10699POPC   C3B71877  32.803  36.759   7.053
10699POPC   C4B71878  32.858  36.788   7.353
10700POPC   NC371879  35.334  29.897   5.553
10700POPC   PO471880  35.349  29.951   5.853
10700POPC   GL171881  35.304  29.891   6.153
10700POPC   GL271882  35.414  30.051   6.153
10700POPC   C1A71883  35.380  29.874   6.453
10700POPC   D2A71884  35.319  29.906   6.753
10700POPC   C3A71885  35.382  29.911   7.053
10700POPC   C4A71886  35.356  29.910   7.353
10700POPC   C1B71887  35.439  30.132   6.453
10700POPC   C2B71888  35.409  30.128   6.753
10700POPC   C3B71889  35.408  30.179   7.053
10700POPC   C4B71890  35.464  30.181   7.353
10701POPC   NC371891  43.075  19.801   5.553
10701POPC   PO471892  43.110  19.801   5.853
10701POPC   GL171893  43.078  19.859   6.153
10701POPC   GL271894  42.964  19.881   6.153
10701POPC   C1A71895  43.078  19.809   6.453
10701POPC   D2A71896  43.088  19.869   6.753
10701POPC   C3A71897  43.145  19.813   7.053
10701POPC   C4A71898  43.074  19.884   7.353
10701POPC   C1B71899  42.944  19.960   6.453
10701POPC   C2B71900  42.872  19.953   6.753
10701POPC   C3B71901  42.881  19.992   7.053
10701POPC   C4B71902  42.941  19.982   7.353
10702POPC   NC371903  43.132  38.450   5.553
10702POPC   PO471904  43.091  38.458   5.853
10702POPC   GL171905  43.078  38.469   6.153
10702POPC   GL271906  43.091  38.581   6.153
10702POPC   C1A71907  43.144  38.478   6.453
10702POPC   D2A71908  43.082  38.429   6.753
10702POPC   C3A71909  43.061  38.416   7.053
10702POPC   C4A71910  43.146  38.431   7.353
10702POPC   C1B71911  43.135  38.666   6.453
10702POPC   C2B71912  43.134  38.697   6.753
10702POPC   C3B71913  43.128  38.698   7.053
10702POPC   C4B71914  43.062  38.721   7.353
10703POPC   NC371915  43.910  35.395   5.553
10703POPC   PO471916  43.921  35.323   5.853
10703POPC   GL171917  43.866  35.358   6.153
10703POPC   GL271918  44.007  35.369   6.153
10703POPC   C1A71919  43.884  35.383   6.453
10703POPC   D2A71920  43.858  35.393   6.753
10703POPC   C3A71921  43.907  35.346   7.053
10703POPC   C4A71922  43.853  35.321   7.353
10703POPC   C1B71923  44.090  35.451   6.453
10703POPC   C2B71924  44.147  35.488   6.753
10703POPC   C3B71925  44.133  35.457   7.053
10703POPC   C4B71926  44.115  35.523   7.353
10704POPC   NC371927   0.427  37.728   5.553
10704POPC   PO471928   0.427  37.676   5.853
10704POPC   GL171929   0.457  37.694   6.153
10704POPC   GL271930   0.384  37.762   6.153
10704POPC   C1A71931   0.438  37.729   6.453
10704POPC   D2A71932   0.415  37.639   6.753
10704POPC   C3A71933   0.400  37.686   7.053
10704POPC   C4A71934   0.469  37.631   7.353
10704POPC   C1B71935   0.276  37.907   6.453
10704POPC   C2B71936   0.332  37.903   6.753
10704POPC   C3B71937   0.321  37.912   7.053
10704POPC   C4B71938   0.273  37.913   7.353
10705POPC   NC371939  15.947  43.112   5.553
10705POPC   PO471940  15.949  43.140   5.853
10705POPC   GL171941  15.961  43.100   6.153
10705POPC   GL271942  15.929  42.954   6.153
10705POPC   C1A71943  15.925  43.154   6.453
10705POPC   D2A71944  15.993  43.123   6.753
10705POPC   C3A71945  15.953  43.157   7.053
10705POPC   C4A71946  15.962  43.094   7.353
10705POPC   C1B71947  15.924  42.830   6.453
10705POPC   C2B71948  15.940  42.826   6.753
10705POPC   C3B71949  15.949  42.916   7.053
10705POPC   C4B71950  15.851  42.837   7.353
10706POPC   NC371951  35.371  32.298   5.553
10706POPC   PO471952  35.379  32.297   5.853
10706POPC   GL171953  35.345  32.275   6.153
10706POPC   GL271954  35.199  32.196   6.153
10706POPC   C1A71955  35.359  32.208   6.453
10706POPC   D2A71956  35.323  32.222   6.753
10706POPC   C3A71957  35.305  32.211   7.053
10706POPC   C4A71958  35.327  32.275   7.353
10706POPC   C1B71959  35.101  32.134   6.453
10706POPC   C2B71960  35.134  32.183   6.753
10706POPC   C3B71961  35.108  32.169   7.053
10706POPC   C4B71962  35.128  32.161   7.353
10707POPC   NC371963  36.155  25.225   5.553
10707POPC   PO471964  36.155  25.233   5.853
10707POPC   GL171965  36.116  25.249   6.153
10707POPC   GL271966  36.132  25.178   6.153
10707POPC   C1A71967  36.127  25.293   6.453
10707POPC   D2A71968  36.085  25.286   6.753
10707POPC   C3A71969  36.120  25.293   7.053
10707POPC   C4A71970  36.168  25.247   7.353
10707POPC   C1B71971  36.112  24.973   6.453
10707POPC   C2B71972  36.141  25.042   6.753
10707POPC   C3B71973  36.112  25.038   7.053
10707POPC   C4B71974  36.164  25.056   7.353
10708POPC   NC371975  19.824  18.250   5.553
10708POPC   PO471976  19.857  18.293   5.853
10708POPC   GL171977  19.828  18.272   6.153
10708POPC   GL271978  19.852  18.428   6.153
10708POPC   C1A71979  19.815  18.251   6.453
10708POPC   D2A71980  19.797  18.275   6.753
10708POPC   C3A71981  19.838  18.235   7.053
10708POPC   C4A71982  19.866  18.249   7.353
10708POPC   C1B71983  19.866  18.523   6.453
10708POPC   C2B71984  19.929  18.484   6.753
10708POPC   C3B71985  19.883  18.524   7.053
10708POPC   C4B71986  19.854  18.481   7.353
10709POPC   NC371987   0.454  22.902   5.553
10709POPC   PO471988   0.442  22.973   5.853
10709POPC   GL171989   0.476  22.888   6.153
10709POPC   GL271990   0.456  23.029   6.153
10709POPC   C1A71991   0.389  22.983   6.453
10709POPC   D2A71992   0.389  22.904   6.753
10709POPC   C3A71993   0.445  22.897   7.053
10709POPC   C4A71994   0.484  22.924   7.353
10709POPC   C1B71995   0.589  23.166   6.453
10709POPC   C2B71996   0.545  23.194   6.753
10709POPC   C3B71997   0.506  23.165   7.053
10709POPC   C4B71998   0.533  23.187   7.353
10710POPC   NC371999  21.350  23.727   5.553
10710POPC   PO472000  21.388  23.742   5.853
10710POPC   GL172001  21.433  23.700   6.153
10710POPC   GL272002  21.314  23.609   6.153
10710POPC   C1A72003  21.348  23.731   6.453
10710POPC   D2A72004  21.364  23.673   6.753
10710POPC   C3A72005  21.432  23.679   7.053
10710POPC   C4A72006  21.412  23.728   7.353
10710POPC   C1B72007  21.262  23.481   6.453
10710POPC   C2B72008  21.255  23.545   6.753
10710POPC   C3B72009  21.175  23.562   7.053
10710POPC   C4B72010  21.177  23.569   7.353
10711POPC   NC372011   2.805  24.447   5.553
10711POPC   PO472012   2.719  24.530   5.853
10711POPC   GL172013   2.744  24.468   6.153
10711POPC   GL272014   2.795  24.418   6.153
10711POPC   C1A72015   2.726  24.474   6.453
10711POPC   D2A72016   2.799  24.468   6.753
10711POPC   C3A72017   2.733  24.442   7.053
10711POPC   C4A72018   2.790  24.519   7.353
10711POPC   C1B72019   2.826  24.267   6.453
10711POPC   C2B72020   2.838  24.296   6.753
10711POPC   C3B72021   2.835  24.241   7.053
10711POPC   C4B72022   2.871  24.268   7.353
10712POPC   NC372023  12.823  39.275   5.553
10712POPC   PO472024  12.842  39.251   5.853
10712POPC   GL172025  12.900  39.203   6.153
10712POPC   GL272026  12.975  39.259   6.153
10712POPC   C1A72027  12.817  39.231   6.453
10712POPC   D2A72028  12.860  39.246   6.753
10712POPC   C3A72029  12.818  39.202   7.053
10712POPC   C4A72030  12.886  39.191   7.353
10712POPC   C1B72031  13.069  39.203   6.453
10712POPC   C2B72032  13.067  39.172   6.753
10712POPC   C3B72033  13.110  39.193   7.053
10712POPC   C4B72034  13.099  39.239   7.353
10713POPC   NC372035   7.389  40.818   5.553
10713POPC   PO472036   7.425  40.739   5.853
10713POPC   GL172037   7.383  40.825   6.153
10713POPC   GL272038   7.326  40.880   6.153
10713POPC   C1A72039   7.404  40.751   6.453
10713POPC   D2A72040   7.415  40.824   6.753
10713POPC   C3A72041   7.446  40.817   7.053
10713POPC   C4A72042   7.469  40.798   7.353
10713POPC   C1B72043   7.261  40.976   6.453
10713POPC   C2B72044   7.234  40.955   6.753
10713POPC   C3B72045   7.206  40.892   7.053
10713POPC   C4B72046   7.178  40.947   7.353
10714POPC   NC372047  29.939  34.540   5.553
10714POPC   PO472048  29.886  34.622   5.853
10714POPC   GL172049  29.909  34.565   6.153
10714POPC   GL272050  30.081  34.606   6.153
10714POPC   C1A72051  29.937  34.577   6.453
10714POPC   D2A72052  29.947  34.570   6.753
10714POPC   C3A72053  29.955  34.541   7.053
10714POPC   C4A72054  29.968  34.589   7.353
10714POPC   C1B72055  30.168  34.593   6.453
10714POPC   C2B72056  30.196  34.568   6.753
10714POPC   C3B72057  30.175  34.524   7.053
10714POPC   C4B72058  30.168  34.540   7.353
10715POPC   NC372059  19.098   1.218   5.553
10715POPC   PO472060  19.078   1.205   5.853
10715POPC   GL172061  19.103   1.256   6.153
10715POPC   GL272062  19.094   1.136   6.153
10715POPC   C1A72063  19.048   1.175   6.453
10715POPC   D2A72064  19.018   1.181   6.753
10715POPC   C3A72065  19.055   1.255   7.053
10715POPC   C4A72066  19.067   1.263   7.353
10715POPC   C1B72067  19.042   0.992   6.453
10715POPC   C2B72068  19.066   0.967   6.753
10715POPC   C3B72069  19.074   0.946   7.053
10715POPC   C4B72070  19.042   0.946   7.353
10716POPC   NC372071  10.515  14.442   5.553
10716POPC   PO472072  10.476  14.438   5.853
10716POPC   GL172073  10.511  14.411   6.153
10716POPC   GL272074  10.499  14.310   6.153
10716POPC   C1A72075  10.528  14.417   6.453
10716POPC   D2A72076  10.499  14.387   6.753
10716POPC   C3A72077  10.573  14.437   7.053
10716POPC   C4A72078  10.547  14.396   7.353
10716POPC   C1B72079  10.431  14.142   6.453
10716POPC   C2B72080  10.467  14.169   6.753
10716POPC   C3B72081  10.424  14.126   7.053
10716POPC   C4B72082  10.410  14.131   7.353
10717W        W72083   5.847  25.573  14.515
10718W        W72084  12.727   4.216  11.994
10719W        W72085  23.181  11.730  10.412
10720W        W72086  14.591   4.881   3.805
10721W        W72087   1.349  43.953  11.861
10722W        W72088   3.328  18.235   4.806
10723W        W72089  19.603  12.708  12.093
10724W        W72090   1.463  39.432   2.305
10725W        W72091   1.964   1.816   1.395
10726W        W72092  21.531  21.176  14.394
10727W        W72093  10.338   5.920   2.264
10728W        W72094  17.250  29.470   2.737
10729W        W72095  25.118  39.398  10.513
10730W        W72096   7.825  21.238  12.913
10731W        W72097   1.761  44.891   1.451
10732W        W72098   1.824  37.057   2.302
10733W        W72099  21.564  16.175   0.902
10734W        W72100   1.322   7.781   4.736
10735W        W72101  23.559   8.835   2.181
10736W        W72102   2.364  15.596   3.379
10737W        W72103  22.509  40.467   4.626
10738W        W72104   6.341   7.199  12.377
10739W        W72105  27.632  12.658   4.349
10740W        W72106   1.260  22.663   2.231
10741W        W72107   9.703   9.156   3.670
10742W        W72108   8.683  16.216  14.874
10743W        W72109  23.229  26.663  10.911
10744W        W72110  38.569  20.035   0.262
10745W        W72111  13.172   4.743  10.945
10746W        W72112  11.368  16.584  10.983
10747W        W72113   6.847  25.118  11.391
10748W        W72114  33.943   3.751   1.316
10749W        W72115   2.757  27.093   2.670
10750W        W72116  23.626  37.571  14.866
10751W        W72117  13.137  21.186  14.341
10752W        W72118  30.435  21.549  11.456
10753W        W72119  18.122  44.310   0.790
10754W        W72120  35.055  37.351  13.431
10755W        W72121  12.170  25.479  10.496
10756W        W72122   0.350  30.634   0.868
10757W        W72123  26.548  22.510  12.907
10758W        W72124  35.426  44.873  14.000
10759W        W72125   0.280  20.666   2.191
10760W        W72126   8.722  30.566   3.737
10761W        W72127   6.789  41.005  12.497
10762W        W72128   6.368  25.970  12.367
10763W        W72129   6.861  26.605   4.691
10764W        W72130  42.328   8.885   2.800
10765W        W72131  16.132  12.855   4.813
10766W        W72132  28.086  21.243   1.820
10767W        W72133  39.329  40.928   1.925
10768W        W72134   8.279  20.226   1.257
10769W        W72135  34.480  38.889   1.742
10770W        W72136  25.196  12.767  13.045
10771W        W72137  44.948  19.243   0.299
10772W        W72138  29.098  30.022  14.508
10773W        W72139   5.402  14.319   4.748
10774W        W72140  14.832  40.879  12.468
10775W        W72141   5.691  16.646   4.131
10776W        W72142  42.007  22.192   3.656
10777W        W72143  38.844  27.962   4.696
10778W        W72144  31.982  12.622   0.342
10779W        W72145  36.991  43.302   0.872
10780W        W72146  28.650  31.059  13.043
10781W        W72147   8.745  44.829  13.860
10782W        W72148  40.853  16.670   2.712
10783W        W72149  21.118   5.236   2.691
10784W        W72150  35.533  33.918  14.341
10785W        W72151  39.353  33.606  11.093
10786W        W72152   8.301  26.618  11.530
10787W        W72153  37.957   7.206   3.678
10788W        W72154  11.291   7.386  11.960
10789W        W72155  32.450  34.396  14.002
10790W        W72156  30.080  29.434  14.278
10791W        W72157   2.841  41.457   4.204
10792W        W72158  14.637  33.532   1.931
10793W        W72159  41.368  26.627   3.686
10794W        W72160   3.754  43.773  14.982
10795W        W72161   8.218  41.973   3.334
10796W        W72162  10.782  43.439  12.881
10797W        W72163  32.485   4.279   3.314
10798W        W72164   7.742   1.263  11.863
10799W        W72165  35.487  36.472  13.975
10800W        W72166   1.891   0.342  10.571
10801W        W72167   6.725  13.189  10.469
10802W        W72168  28.994  16.218  14.966
10803W        W72169  11.155   2.315   1.754
10804W        W72170  13.316  41.869  14.996
10805W        W72171  40.861  32.920  12.450
10806W        W72172   4.728   3.261  14.355
10807W        W72173  42.831  11.622  12.491
10808W        W72174  10.721  35.101   3.723
10809W        W72175   9.824  43.890  13.859
10810W        W72176  10.814  34.965  11.958
10811W        W72177   3.792  37.001  11.956
10812W        W72178  36.565  36.481  11.599
10813W        W72179  26.523   4.311  10.496
10814W        W72180  34.077   9.310   2.341
10815W        W72181   1.361   0.850  10.406
10816W        W72182  31.455  43.920   3.688
10817W        W72183  19.244  35.039   2.215
10818W        W72184  16.237  33.099   3.325
10819W        W72185  15.621  31.430   3.824
10820W        W72186   6.392  36.547  13.435
10821W        W72187  14.737   3.440  14.980
10822W        W72188  32.124  24.577   4.676
10823W        W72189   5.839  21.212  11.954
10824W        W72190   7.861  32.117   3.754
10825W        W72191  27.654  25.173  14.339
10826W        W72192   1.306  14.767   2.402
10827W        W72193  26.050  26.674  10.153
10828W        W72194  10.640  30.618  11.571
10829W        W72195  36.518  24.513  13.851
10830W        W72196  41.436   6.879   4.281
10831W        W72197  10.351  26.563  14.984
10832W        W72198  36.576  41.319  14.994
10833W        W72199   6.297  17.283   5.114
10834W        W72200   5.850  12.729  12.915
10835W        W72201  30.000  16.606   1.819
10836W        W72202  33.040   9.304  13.799
10837W        W72203   3.313  14.218  10.976
10838W        W72204  10.318  38.055   1.293
10839W        W72205  40.352  10.296   3.755
10840W        W72206   2.426  40.975   1.884
10841W        W72207   2.253  19.069   0.393
10842W        W72208  17.658   2.892  12.880
10843W        W72209  38.529  12.195  12.444
10844W        W72210   1.909  43.953   4.142
10845W        W72211  12.657  12.342   2.298
10846W        W72212  41.325   5.394   1.715
10847W        W72213  43.516  36.521   4.734
10848W        W72214  16.766  17.201  11.886
10849W        W72215  42.376  41.297   0.963
10850W        W72216  40.347  21.160  13.312
10851W        W72217   6.774  34.611   4.309
10852W        W72218  11.835  12.816   1.933
10853W        W72219  10.169  19.213  14.322
10854W        W72220  20.609  16.714  12.346
10855W        W72221  38.938  44.878   1.851
10856W        W72222  41.818  29.931  11.029
10857W        W72223  39.917  30.090  11.530
10858W        W72224   8.214  16.788  12.455
10859W        W72225  12.354   8.697  10.589
10860W        W72226   8.673  10.639  11.581
10861W        W72227  13.235  26.536   2.667
10862W        W72228  22.127  15.306   2.279
10863W        W72229  14.770  31.953   2.895
10864W        W72230  37.393  11.145   3.868
10865W        W72231   8.231  26.133  11.497
10866W        W72232  33.067  17.068   2.721
10867W        W72233  25.082  16.731   1.885
10868W        W72234  16.094  24.199   1.866
10869W        W72235   6.190  17.665   4.790
10870W        W72236   2.905  23.601   1.362
10871W        W72237  36.512  33.945   0.945
10872W        W72238  34.578  13.231  13.864
10873W        W72239  43.960  40.489  11.868
10874W        W72240  11.286  31.593   0.739
10875W        W72241  32.599  35.471  11.030
10876W        W72242  14.821  30.427   2.226
10877W        W72243  44.797  38.984  14.470
10878W        W72244  11.644  36.059   2.728
10879W        W72245  28.493  29.109  10.459
10880W        W72246  14.736  19.568  11.107
10881W        W72247  42.328  36.371  14.425
10882W        W72248   6.757  31.453  11.933
10883W        W72249  44.464  13.264   1.250
10884W        W72250  13.803  17.105  10.489
10885W        W72251  18.207  44.924   2.408
10886W        W72252   4.380   8.672   0.420
10887W        W72253   6.428  10.205  12.497
10888W        W72254   3.306  43.272   0.401
10889W        W72255  21.133   2.421  11.122
10890W        W72256  17.247  29.168  10.452
10891W        W72257   3.431  37.939  14.934
10892W        W72258  24.612   2.313   1.228
10893W        W72259  20.271  31.499   3.157
10894W        W72260  37.943  41.400   4.616
10895W        W72261  40.454   2.763   4.647
10896W        W72262  35.892  42.020   2.394
10897W        W72263  15.687  24.172  12.486
10898W        W72264  31.922  22.563  11.108
10899W        W72265   8.200  26.569  14.372
10900W        W72266   9.768  32.586   2.419
10901W        W72267  33.600  41.823   4.754
10902W        W72268  19.285  15.169   4.603
10903W        W72269  44.005  17.611   1.229
10904W        W72270  16.191  37.457  11.612
10905W        W72271  39.914  21.026  11.006
10906W        W72272  16.249  27.531  12.082
10907W        W72273  27.582   8.338   0.251
10908W        W72274  44.930  13.691  12.544
10909W        W72275  29.070  41.494  12.828
10910W        W72276  29.097  11.240  11.498
10911W        W72277  23.149  40.319  13.499
10912W        W72278  41.924   4.244  11.394
10913W        W72279  15.238  12.116  10.080
10914W        W72280  37.910  33.423  13.971
10915W        W72281  33.575  31.426   4.255
10916W        W72282  22.205  33.891   1.440
10917W        W72283   6.415   4.432   0.783
10918W        W72284  23.228   7.227  10.608
10919W        W72285  35.856  43.926   2.300
10920W        W72286  32.441  30.135  14.842
10921W        W72287  18.741  44.412  14.818
10922W        W72288  44.350  28.457   5.766
10923W        W72289  18.273   3.280   1.377
10924W        W72290  24.597   7.336  13.832
10925W        W72291  18.551  15.236   4.689
10926W        W72292  35.101  37.515   1.916
10927W        W72293  22.224  19.061  12.348
10928W        W72294   7.855  22.205   3.164
10929W        W72295  26.147  10.143   1.260
10930W        W72296  11.731  34.574   0.781
10931W        W72297  10.634   8.861   2.703
10932W        W72298  31.089  44.463   4.651
10933W        W72299  26.169  11.149  11.613
10934W        W72300  32.415  22.523   4.195
10935W        W72301   9.395  11.785   2.305
10936W        W72302  13.344  41.362  11.604
10937W        W72303  15.111   8.207   0.280
10938W        W72304  17.787  25.167   4.800
10939W        W72305  39.045  36.853   4.303
10940W        W72306  11.163  33.549   5.286
10941W        W72307   3.268  20.650   2.758
10942W        W72308  29.050  43.899   1.774
10943W        W72309  29.601   5.277  12.381
10944W        W72310   0.928  22.629  10.995
10945W        W72311  39.819  34.035   2.330
10946W        W72312   5.381  35.003  13.495
10947W        W72313  37.963  16.688   0.772
10948W        W72314   3.392  33.113  12.410
10949W        W72315  40.036  24.492   3.779
10950W        W72316  16.789  31.000  13.048
10951W        W72317  35.867   5.689   2.837
10952W        W72318  23.163   4.790  13.487
10953W        W72319  33.606  35.584   0.740
10954W        W72320  44.871  17.087   1.776
10955W        W72321   0.264   7.282   1.832
10956W        W72322  44.303   7.286  10.988
10957W        W72323   8.900  32.627  12.020
10958W        W72324   3.319  12.186  12.514
10959W        W72325  29.929   0.875   4.245
10960W        W72326   0.979  39.444  13.823
10961W        W72327  10.227  17.062  12.886
10962W        W72328  38.505   1.386  10.603
10963W        W72329   9.318  44.348  12.397
10964W        W72330   3.805  15.707   1.914
10965W        W72331  18.627  16.224  13.342
10966W        W72332  37.384  32.129   2.788
10967W        W72333  24.202  40.890   3.726
10968W        W72334   2.834   1.279  12.867
10969W        W72335  34.094  13.646   2.769
10970W        W72336  43.491   5.925  14.818
10971W        W72337   5.820  23.178  13.483
10972W        W72338   8.168  21.716   1.394
10973W        W72339  18.571   2.403  10.928
10974W        W72340  10.863  40.334   1.750
10975W        W72341  38.325  34.051   2.255
10976W        W72342  17.713  27.482   2.299
10977W        W72343   0.451   2.951   4.616
10978W        W72344  40.546  12.142  12.344
10979W        W72345  15.722  42.815   3.173
10980W        W72346  11.831  26.977  11.857
10981W        W72347  31.965  30.443  12.918
10982W        W72348  41.301   2.293  11.470
10983W        W72349  18.129  39.378  14.367
10984W        W72350  29.130  16.093  14.346
10985W        W72351  41.943  37.406   1.299
10986W        W72352   6.420  23.564  11.995
10987W        W72353  30.147  43.320   3.242
10988W        W72354  35.571  18.739  14.437
10989W        W72355  21.122  25.660   0.326
10990W        W72356   2.414   3.292   1.909
10991W        W72357  39.935   8.849  12.910
10992W        W72358  27.014  22.710  13.335
10993W        W72359  17.176  13.282   0.788
10994W        W72360  26.104  36.557  13.473
10995W        W72361  26.034  16.154  13.816
10996W        W72362  20.254  28.667   0.870
10997W        W72363   4.230  27.995   0.894
10998W        W72364  28.016   3.290   3.683
10999W        W72365  20.726  20.219   4.638
11000W        W72366  38.447  34.902   2.899
11001W        W72367  40.804  43.447   4.153
11002W        W72368   6.207  36.432   2.734
11003W        W72369  41.349   8.747   1.809
11004W        W72370  42.449  44.419  12.935
11005W        W72371  37.863  17.642   2.846
11006W        W72372  27.502  44.863  14.464
11007W        W72373  19.755  34.005   0.318
11008W        W72374  30.061  24.613  10.538
11009W        W72375   5.802  36.462   2.284
11010W        W72376  43.338  23.608  12.023
11011W        W72377   1.971  16.707   4.286
11012W        W72378   7.880   6.844   2.316
11013W        W72379  29.958  19.043  12.032
11014W        W72380  21.579   7.732   0.425
11015W        W72381   4.312  17.599  10.908
11016W        W72382  38.075  10.813   1.849
11017W        W72383  15.717  35.898   1.297
11018W        W72384  21.048  36.024  13.908
11019W        W72385   5.820   8.180  14.486
11020W        W72386  40.382  25.195   1.767
11021W        W72387  17.182   7.204  13.981
11022W        W72388  35.573  24.651   1.883
11023W        W72389   0.466   7.272   2.327
11024W        W72390  38.432   6.875   0.306
11025W        W72391   3.936   2.959   1.395
11026W        W72392  10.229  34.913  10.456
11027W        W72393  37.579  31.083  11.390
11028W        W72394  27.577  28.098  12.576
11029W        W72395   5.767  38.998   4.748
11030W        W72396  12.649  11.371   3.795
11031W        W72397   9.812  22.223  14.299
11032W        W72398  24.169   6.415  14.328
11033W        W72399   8.166  11.622   0.471
11034W        W72400  25.592   2.964  14.342
11035W        W72401  40.948   7.796  14.987
11036W        W72402  11.162  34.500   1.803
11037W        W72403  33.434   9.243   1.903
11038W        W72404  44.413  15.637   1.419
11039W        W72405  26.972  39.954   2.679
11040W        W72406  24.006  33.613   0.386
11041W        W72407  44.376  23.682  11.389
11042W        W72408  41.031  29.433  10.604
11043W        W72409  35.545  26.050  11.097
11044W        W72410  14.638  14.290  14.278
11045W        W72411  21.727  19.152  13.942
11046W        W72412  30.914  20.043  13.434
11047W        W72413  17.754  20.220  13.841
11048W        W72414  27.002  25.662   9.462
11049W        W72415   6.798   3.462   5.308
11050W        W72416   0.941  28.997   5.665
11051W        W72417  38.967  16.235  13.539
11052W        W72418   2.332   2.888  11.491
11053W        W72419  36.014   1.758   2.676
11054W        W72420  16.205  15.262   4.170
11055W        W72421   6.226  19.069   4.768
11056W        W72422  29.033  32.948   2.682
11057W        W72423  19.128   2.821  11.441
11058W        W72424  44.454  26.526  12.087
11059W        W72425   4.891  29.031   1.222
11060W        W72426  30.495  36.485  14.303
11061W        W72427  31.956  27.469  13.057
11062W        W72428  17.783  13.119   4.832
11063W        W72429  22.089  33.485   0.391
11064W        W72430  17.151  31.488  12.343
11065W        W72431   4.207  24.108  11.594
11066W        W72432  31.570  18.701   4.646
11067W        W72433   5.225   3.916   2.759
11068W        W72434   8.345  33.465  10.101
11069W        W72435  20.211  31.149  12.940
11070W        W72436   5.835  24.041   1.926
11071W        W72437  21.687  14.740   1.234
11072W        W72438  35.922   2.296  10.463
11073W        W72439  28.929  17.294  14.427
11074W        W72440  10.639   8.738   2.372
11075W        W72441  34.004   1.858  11.919
11076W        W72442  30.963   1.804   3.322
11077W        W72443  16.146  23.067  11.454
11078W        W72444  29.935  23.030  14.439
11079W        W72445   4.937  29.993  11.507
11080W        W72446  19.716  42.878  12.577
11081W        W72447  33.476  15.156  12.485
11082W        W72448   0.429  21.576   2.753
11083W        W72449  20.736  34.065  14.455
11084W        W72450   7.200   6.687  13.335
11085W        W72451  42.387  32.399   1.437
11086W        W72452  16.722  41.962  12.515
11087W        W72453   8.704  33.026  14.375
11088W        W72454  44.379  32.901   0.857
11089W        W72455   6.257  35.574  10.906
11090W        W72456   7.774  13.113  10.421
11091W        W72457  44.301  16.714  11.033
11092W        W72458  39.435  10.283   1.443
11093W        W72459  38.033   9.204  10.519
11094W        W72460  34.926  18.162   5.263
11095W        W72461   5.768  13.635  11.528
11096W        W72462  19.538  44.996   0.946
11097W        W72463  15.329  31.402  12.030
11098W        W72464  35.087  10.677   1.746
11099W        W72465  24.614  23.122   3.226
11100W        W72466  22.210  18.088  14.461
11101W        W72467   1.971   8.685   0.386
11102W        W72468   9.249  27.955  10.525
11103W        W72469  36.510  36.415   1.844
11104W        W72470  22.734   7.760  13.824
11105W        W72471  20.666  10.326   3.277
11106W        W72472  39.317   0.323  14.888
11107W        W72473  28.083  34.472  10.628
11108W        W72474  42.022   0.325  11.594
11109W        W72475   5.755  17.673   2.868
11110W        W72476  18.149  12.708  12.907
11111W        W72477  33.434  15.324  14.515
11112W        W72478   7.852   7.702   4.292
11113W        W72479  15.247   2.407  11.075
11114W        W72480  29.029  35.074   3.634
11115W        W72481   3.926  31.138   0.326
11116W        W72482  40.431  18.665   2.380
11117W        W72483  35.578  19.565  11.948
11118W        W72484  32.132  34.538  13.885
11119W        W72485  42.432  40.337  11.379
11120W        W72486  21.209  29.997  11.018
11121W        W72487  28.610  25.608  10.433
11122W        W72488  11.800   4.903  11.569
11123W        W72489   1.236   8.185  14.439
11124W        W72490   3.775  11.802   0.913
11125W        W72491  17.709  23.998  14.838
11126W        W72492  21.620   6.254   2.197
11127W        W72493   6.269   6.815  11.417
11128W        W72494  25.980  38.427   1.323
11129W        W72495  22.087   9.211   3.773
11130W        W72496  18.752  36.439   0.467
11131W        W72497   0.892   3.917   0.323
11132W        W72498  33.027   2.448   0.768
11133W        W72499   9.211  13.836   1.700
11134W        W72500   9.249  20.568  12.354
11135W        W72501  44.475  22.031  14.496
11136W        W72502  24.531  18.068  12.415
11137W        W72503  31.643   1.895   2.184
11138W        W72504  26.658  26.956   9.493
11139W        W72505  22.150  39.843  11.461
11140W        W72506  30.517  29.424   0.731
11141W        W72507  13.813   9.745   4.293
11142W        W72508   5.223  15.770  14.801
11143W        W72509  13.254  17.788  13.024
11144W        W72510   2.366  29.998   4.688
11145W        W72511  30.485  14.773  14.388
11146W        W72512  20.626  24.677   3.322
11147W        W72513  44.850  23.670  10.506
11148W        W72514  44.366  39.048   2.391
11149W        W72515  28.552   2.764   1.906
11150W        W72516  12.623  17.075  14.460
11151W        W72517  35.524  36.048  10.574
11152W        W72518   1.952  33.507  13.469
11153W        W72519  42.490  20.760   1.723
11154W        W72520  17.623  15.128  14.276
11155W        W72521   5.869  28.628  13.410
11156W        W72522   8.195  10.293   2.335
11157W        W72523  33.116  15.646  11.048
11158W        W72524   9.259  19.730  13.996
11159W        W72525  40.528  19.049   1.325
11160W        W72526  14.730  19.540   1.331
11161W        W72527   9.685  11.289   0.846
11162W        W72528  21.596   1.732  12.903
11163W        W72529  25.217  43.004   1.762
11164W        W72530  29.021   7.665  14.373
11165W        W72531   9.765  27.672  13.329
11166W        W72532  22.520  20.639  12.084
11167W        W72533  22.700  16.308  12.952
11168W        W72534  10.287  28.524  13.400
11169W        W72535  25.028  25.124   2.279
11170W        W72536  34.423   0.311   3.153
11171W        W72537  13.347   8.868  10.989
11172W        W72538   9.821   4.332  11.527
11173W        W72539  42.280  42.368   3.303
11174W        W72540   7.403  43.505  12.918
11175W        W72541   5.753  19.257   1.288
11176W        W72542  23.093  35.559   2.896
11177W        W72543  22.567  23.715  12.994
11178W        W72544   6.264   3.768  11.954
11179W        W72545  17.084  42.873  13.794
11180W        W72546  33.433   6.335  12.379
11181W        W72547   4.433  21.154   2.217
11182W        W72548   8.272  27.478   3.220
11183W        W72549  21.647  42.461  13.541
11184W        W72550  36.006  38.007   3.372
11185W        W72551  43.946  23.691   4.665
11186W        W72552  24.498  42.388   2.417
11187W        W72553  43.960  30.554   2.753
11188W        W72554  17.304  30.072   1.842
11189W        W72555   7.856   9.254  12.981
11190W        W72556  31.017  12.317   1.427
11191W        W72557  42.868  21.522   1.426
11192W        W72558  29.127  18.586  10.993
11193W        W72559  43.840  32.117  14.310
11194W        W72560   9.837  32.920  11.490
11195W        W72561   6.397  35.545   0.756
11196W        W72562   3.948  10.193  13.310
11197W        W72563  12.820  19.158  10.966
11198W        W72564  37.356  35.963  14.325
11199W        W72565  21.230  41.806   0.459
11200W        W72566  28.100  33.973   3.701
11201W        W72567   7.174   9.733  10.892
11202W        W72568  27.146  43.798   0.467
11203W        W72569  18.750  12.724  10.558
11204W        W72570   9.724   3.899   4.607
11205W        W72571   0.948  33.596  12.920
11206W        W72572   4.847   2.405   3.152
11207W        W72573  37.573  25.663   5.313
11208W        W72574  35.921  32.457   2.228
11209W        W72575  25.709   9.847   1.809
11210W        W72576  41.854  12.187   0.471
11211W        W72577  29.921   7.871  13.500
11212W        W72578  25.152  40.833  13.806
11213W        W72579  36.517   2.773   2.387
11214W        W72580  14.795  33.420  13.054
11215W        W72581  24.485  26.121  10.932
11216W        W72582  33.888  13.134  12.569
11217W        W72583  35.488  10.256   1.216
11218W        W72584  38.841  19.687   3.294
11219W        W72585   3.937   7.685   1.750
11220W        W72586  24.691  26.022   2.766
11221W        W72587  25.014   5.410  12.087
11222W        W72588  21.239  37.512   4.174
11223W        W72589   4.273  12.657   4.636
11224W        W72590  30.047   0.453  13.064
11225W        W72591  36.992  14.629  11.602
11226W        W72592  25.528   8.861   3.344
11227W        W72593  34.971  18.135   1.761
11228W        W72594  22.055  17.578   3.273
11229W        W72595  36.430  16.584  12.397
11230W        W72596  28.662  31.910   1.250
11231W        W72597  44.455   1.443  14.453
11232W        W72598  41.879  32.928   3.359
11233W        W72599  31.018  33.931  12.840
11234W        W72600  14.735   5.276   0.826
11235W        W72601  37.339  40.356   4.216
11236W        W72602  21.210  37.966   0.766
11237W        W72603  28.028  21.155  13.537
11238W        W72604  17.620   6.798   2.843
11239W        W72605  16.254  21.047  13.528
11240W        W72606  37.005  32.407  12.488
11241W        W72607  15.808  16.222   9.631
11242W        W72608  11.188   5.772  13.813
11243W        W72609   8.793  26.520  13.490
11244W        W72610  19.205  35.405   0.841
11245W        W72611  22.191  38.029   0.805
11246W        W72612  21.698  35.484   4.322
11247W        W72613   1.364   6.714  14.900
11248W        W72614  40.400  16.798   4.806
11249W        W72615  25.111   8.326   1.801
11250W        W72616  43.380  43.950  13.016
11251W        W72617  21.538  25.553   4.181
11252W        W72618  23.514  36.521  14.371
11253W        W72619   6.379  10.185  14.275
11254W        W72620  41.787  25.048  11.124
11255W        W72621  36.861   3.806   1.338
11256W        W72622  31.035  44.261   2.759
11257W        W72623  37.914  34.582  12.932
11258W        W72624  38.570   9.883  10.421
11259W        W72625  35.059  36.375   3.742
11260W        W72626  35.990  33.596  14.003
11261W        W72627  23.236  15.153   3.180
11262W        W72628   7.772   6.208   3.263
11263W        W72629  21.148  13.748   4.238
11264W        W72630  38.928  12.320  14.818
11265W        W72631   0.934  14.794  11.959
11266W        W72632  33.621  22.601   0.369
11267W        W72633   6.777   4.831   3.743
11268W        W72634  21.547   8.738   4.624
11269W        W72635  12.135  21.598  14.875
11270W        W72636   2.315  10.262   0.746
11271W        W72637  25.701   0.770   9.953
11272W        W72638  18.067  36.469   4.229
11273W        W72639  34.897  32.938  12.035
11274W        W72640  33.584   6.281  11.592
11275W        W72641   3.276  39.492   4.723
11276W        W72642   9.152  28.134  13.825
11277W        W72643  29.918  29.560   2.671
11278W        W72644  17.302  29.151  13.059
11279W        W72645   9.353   0.302  14.956
11280W        W72646  17.187   2.945  12.423
11281W        W72647   4.409   6.796   4.631
11282W        W72648  18.762  18.238   2.416
11283W        W72649  30.027  42.448  10.460
11284W        W72650  34.112  19.672  10.420
11285W        W72651  25.552   8.163  13.835
11286W        W72652  17.139  13.691  12.380
11287W        W72653  42.503  43.959  11.572
11288W        W72654  25.176   6.405   4.130
11289W        W72655  35.102   8.358  11.397
11290W        W72656   2.747  14.123  13.051
11291W        W72657  19.066  35.488   9.978
11292W        W72658  16.179  32.538   5.567
11293W        W72659  40.457  20.164   2.879
11294W        W72660  31.006  17.583  12.442
11295W        W72661  20.080   9.381  11.374
11296W        W72662   1.452   7.881  12.414
11297W        W72663   0.454  20.233   0.813
11298W        W72664  25.126   0.882   2.325
11299W        W72665   7.892  15.753  13.414
11300W        W72666   5.239  38.360   4.667
11301W        W72667  18.291  11.851   4.184
11302W        W72668  12.130  32.611  11.558
11303W        W72669  17.182  13.731  12.864
11304W        W72670  15.328   3.819   3.150
11305W        W72671  26.961  19.547   0.294
11306W        W72672  15.270  38.949  11.457
11307W        W72673  13.111  30.616   4.214
11308W        W72674  41.475  19.740  13.944
11309W        W72675  31.022  10.704  12.346
11310W        W72676  38.004  26.560  13.931
11311W        W72677   8.237  40.916   1.396
11312W        W72678  16.190  34.589  11.983
11313W        W72679   2.819  38.461  13.973
11314W        W72680  30.997  30.003  13.517
11315W        W72681  42.870  35.493   1.358
11316W        W72682  32.129   6.870   2.296
11317W        W72683  33.487   7.296   3.153
11318W        W72684  17.081  12.830  14.810
11319W        W72685  43.289  16.087  10.419
11320W        W72686  26.020  14.773   3.207
11321W        W72687   1.738  21.133   1.211
11322W        W72688  14.234  30.030   0.312
11323W        W72689  44.887  34.607  13.004
11324W        W72690  28.094  17.149  14.444
11325W        W72691  40.532  27.633  12.363
11326W        W72692  30.967  35.599  14.414
11327W        W72693  14.311   1.477  11.028
11328W        W72694   4.750  14.808   3.159
11329W        W72695  44.927   9.378  11.858
11330W        W72696   0.900  16.144  13.845
11331W        W72697   1.865  37.974  11.890
11332W        W72698   2.773   4.887  10.462
11333W        W72699  12.334   8.743   2.821
11334W        W72700  30.079  11.359  10.579
11335W        W72701   5.863  32.910   2.840
11336W        W72702   7.307   4.881  14.830
11337W        W72703   5.259  43.955   4.331
11338W        W72704  35.856   2.948  12.919
11339W        W72705  11.270  18.244  13.866
11340W        W72706   2.827  25.655  14.861
11341W        W72707  31.961  43.317  13.537
11342W        W72708  25.654  17.673   1.712
11343W        W72709  43.503  23.034   1.346
11344W        W72710   5.742  33.945  12.918
11345W        W72711   1.404   0.801   4.150
11346W        W72712  30.014  41.039  14.943
11347W        W72713  22.020  27.510  10.993
11348W        W72714   5.232  14.223  11.065
11349W        W72715  27.064  38.544   4.707
11350W        W72716  10.685  41.981  13.461
11351W        W72717  12.685  34.919  13.543
11352W        W72718  40.878   1.969   3.344
11353W        W72719   1.368  25.541  13.963
11354W        W72720   8.292  33.448  11.062
11355W        W72721   4.932  16.598  13.393
11356W        W72722  18.203  19.164   2.193
11357W        W72723  15.164  30.478   1.437
11358W        W72724   6.329  12.172  13.794
11359W        W72725  10.682  43.849  13.913
11360W        W72726  30.972  23.593   1.895
11361W        W72727   8.218  15.284   1.379
11362W        W72728  13.246   6.326   1.776
11363W        W72729  36.458  12.178   2.819
11364W        W72730  17.255   4.698  13.490
11365W        W72731  32.922  31.643   4.705
11366W        W72732  12.281  32.432  14.818
11367W        W72733  27.551  19.637  13.315
11368W        W72734  28.607  20.563  10.513
11369W        W72735  20.625  24.059  13.367
11370W        W72736  42.423  28.616  11.589
11371W        W72737  32.455  18.547  11.379
11372W        W72738  24.063  30.557   3.839
11373W        W72739  34.493  19.268  11.903
11374W        W72740   3.917  28.950   1.721
11375W        W72741  32.927  26.087   0.777
11376W        W72742  12.284   6.711  13.462
11377W        W72743  32.581  39.978  10.554
11378W        W72744  44.333  17.621  11.604
11379W        W72745   9.364  31.083   3.194
11380W        W72746  23.726  21.649   3.210
11381W        W72747  24.144  36.927  14.939
11382W        W72748  36.942  17.674   4.287
11383W        W72749  25.676  18.761   4.250
11384W        W72750  40.547  21.221  13.854
11385W        W72751  10.869  43.019   3.184
11386W        W72752  10.779  39.837  10.975
11387W        W72753  38.940  18.113   9.986
11388W        W72754  44.856  29.138   2.797
11389W        W72755  28.159  30.988  10.933
11390W        W72756  27.634   7.708   3.827
11391W        W72757   7.742  41.391  13.892
11392W        W72758  17.171  22.202  12.969
11393W        W72759  37.538  27.650  14.308
11394W        W72760  26.202   0.476   4.317
11395W        W72761  38.550   6.239   0.947
11396W        W72762  16.188  25.976  14.909
11397W        W72763  40.888  19.584  13.524
11398W        W72764  14.219  36.035  14.465
11399W        W72765  31.635  12.234   3.697
11400W        W72766  27.597  16.651  13.544
11401W        W72767  20.535  31.603   4.747
11402W        W72768  21.522  34.368  14.460
11403W        W72769  17.126   8.248   0.418
11404W        W72770  17.660  31.007  14.475
11405W        W72771   1.432  36.418  13.890
11406W        W72772  40.484  25.637  11.040
11407W        W72773  18.202   9.280  10.628
11408W        W72774  26.597  13.290   1.835
11409W        W72775   5.400  38.037  12.940
11410W        W72776  10.375  33.961   1.909
11411W        W72777  40.317  14.788  11.933
11412W        W72778   3.855  19.102  13.446
11413W        W72779  17.567  29.166   3.344
11414W        W72780  15.135  20.096   1.793
11415W        W72781  44.353  28.084   9.970
11416W        W72782   9.186   7.387   2.238
11417W        W72783  19.670  13.723  13.872
11418W        W72784  16.798  34.898  14.789
11419W        W72785  38.913  38.387  14.429
11420W        W72786  24.664   5.301  14.993
11421W        W72787  31.449  28.496   1.930
11422W        W72788  39.487  14.632   3.254
11423W        W72789  10.178  10.653   0.828
11424W        W72790  20.547  44.392  14.885
11425W        W72791  26.200  22.131  13.547
11426W        W72792   9.218  14.269  13.913
11427W        W72793  32.424  28.079  13.040
11428W        W72794  12.696  14.812   9.629
11429W        W72795  37.463  14.262  10.417
11430W        W72796   9.291  34.922  13.912
11431W        W72797  15.587  41.836  10.480
11432W        W72798  13.660  34.389  14.963
11433W        W72799   0.949  41.512   5.285
11434W        W72800   2.441  43.968   3.366
11435W        W72801  19.654  14.170  14.375
11436W        W72802  25.173  21.093   1.226
11437W        W72803  27.681   9.830  13.021
11438W        W72804  28.615   1.911  13.505
11439W        W72805  11.716  33.390  14.372
11440W        W72806  42.292  12.123   3.228
11441W        W72807  27.139  39.058  13.861
11442W        W72808  29.535  14.730  12.022
11443W        W72809  23.580  15.658  11.559
11444W        W72810  13.837  21.195   2.696
11445W        W72811  39.879  22.242  12.561
11446W        W72812  25.665  31.507   4.272
11447W        W72813  31.517  19.612   2.387
11448W        W72814  18.182   2.409   3.320
11449W        W72815  43.432  33.626   3.343
11450W        W72816   3.944  28.963   3.206
11451W        W72817  18.571  12.818  12.490
11452W        W72818  20.584  28.525  11.452
11453W        W72819  22.132   5.752  13.975
11454W        W72820   3.817  43.435   0.345
11455W        W72821   2.752  20.197  13.478
11456W        W72822  42.858  30.534   2.209
11457W        W72823  24.070   1.889  13.482
11458W        W72824  23.671  44.758   4.306
11459W        W72825   7.363  11.285  10.543
11460W        W72826  43.271  16.743  14.954
11461W        W72827  27.476  19.140   1.335
11462W        W72828  17.612  44.905   0.813
11463W        W72829  24.489  37.577  14.818
11464W        W72830   6.691  44.865   2.234
11465W        W72831  13.128  15.319   1.823
11466W        W72832  42.319  25.123   1.358
11467W        W72833  40.959  11.834   1.901
11468W        W72834  14.299   3.745   0.811
11469W        W72835   9.646  25.091   4.180
11470W        W72836   2.937  34.972   0.778
11471W        W72837   9.793  28.182  10.916
11472W        W72838  41.331   2.895   2.282
11473W        W72839   6.900  34.075   3.245
11474W        W72840  15.701   5.392   0.426
11475W        W72841  38.857   8.751   3.659
11476W        W72842  27.528  18.079  12.847
11477W        W72843  37.397   7.880   5.090
11478W        W72844  14.227  37.336  14.823
11479W        W72845  25.186  18.738  12.007
11480W        W72846  39.558  16.235   0.372
11481W        W72847  14.617  23.615  13.865
11482W        W72848  20.673  33.416   3.646
11483W        W72849   1.833  38.517   2.267
11484W        W72850  33.539  13.264   2.817
11485W        W72851  25.639  17.738   3.350
11486W        W72852  32.899   6.293   1.305
11487W        W72853  16.727  24.694  10.941
11488W        W72854  14.135  44.331   3.192
11489W        W72855  10.314  43.472  14.852
11490W        W72856  13.733  33.626   1.350
11491W        W72857   6.758  29.468   1.234
11492W        W72858  10.200  16.095   0.264
11493W        W72859  39.918   3.896   2.672
11494W        W72860  38.474  36.860  13.337
11495W        W72861  12.809   7.241  12.523
11496W        W72862  14.712  37.057   0.389
11497W        W72863  21.670  40.023  10.477
11498W        W72864  24.700   5.886  14.765
11499W        W72865  17.771  26.690   4.748
11500W        W72866  16.659  16.712  13.995
11501W        W72867  22.033  20.239   1.866
11502W        W72868  38.040  29.470  11.020
11503W        W72869  42.358  43.896   2.293
11504W        W72870   4.312  14.151   1.723
11505W        W72871  12.684  10.782  12.483
11506W        W72872  25.164  19.633  12.451
11507W        W72873  32.628  43.972  13.845
11508W        W72874  17.145  40.463  13.451
11509W        W72875  14.249  30.114   0.770
11510W        W72876  22.025  33.420   4.756
11511W        W72877  14.135  17.210   3.306
11512W        W72878   5.745  11.244  11.557
11513W        W72879  27.566  14.804   3.746
11514W        W72880  20.070  18.750   3.210
11515W        W72881  18.564  34.055  10.997
11516W        W72882  12.782  38.419   0.361
11517W        W72883  10.822  34.873  12.873
11518W        W72884   8.198   6.333   2.705
11519W        W72885  19.283   6.356  10.644
11520W        W72886  35.087  41.039   9.496
11521W        W72887  14.644   5.805  12.994
11522W        W72888  16.089  36.352  11.580
11523W        W72889  31.002  34.873   3.219
11524W        W72890  24.165  11.286  12.458
11525W        W72891  32.001   1.742  14.325
11526W        W72892  43.792  36.358   4.662
11527W        W72893  13.825  31.977   3.276
11528W        W72894  21.222  31.621   3.261
11529W        W72895  44.959   6.296  10.939
11530W        W72896  21.668  38.556  11.489
11531W        W72897   6.774  28.104   4.597
11532W        W72898  19.779  23.035   4.232
11533W        W72899   7.774   4.864   1.905
11534W        W72900  22.124  28.991   2.382
11535W        W72901  44.999  41.027   4.685
11536W        W72902  40.511  16.215  12.987
11537W        W72903  29.646  26.651  12.078
11538W        W72904  10.273  26.115  13.964
11539W        W72905  13.624  21.139  10.427
11540W        W72906  35.045  19.682   3.835
11541W        W72907   1.363  30.940   3.212
11542W        W72908  21.609  39.041  13.309
11543W        W72909  20.722  41.344  11.546
11544W        W72910  35.418  16.239  11.999
11545W        W72911  40.493  11.825   0.261
11546W        W72912  20.155  31.020   4.603
11547W        W72913  35.573  25.130   1.822
11548W        W72914  43.419   8.180   0.797
11549W        W72915  27.497   6.340  14.824
11550W        W72916  43.362  11.797  13.416
11551W        W72917  28.593  26.701  11.412
11552W        W72918  17.280  41.871  14.766
11553W        W72919  10.351  26.104  12.974
11554W        W72920  19.595  11.291  14.302
11555W        W72921  29.945  15.177   3.670
11556W        W72922  41.795  37.931   2.837
11557W        W72923   1.734  32.404   2.210
11558W        W72924   5.249  29.520  10.978
11559W        W72925  19.132  37.984   3.319
11560W        W72926   4.335  17.793  12.411
11561W        W72927  31.611  15.800   3.646
11562W        W72928  39.501  34.035  14.809
11563W        W72929  12.307  20.169  14.299
11564W        W72930  44.999   3.857  11.017
11565W        W72931  12.741  43.380  12.965
11566W        W72932  36.519  41.920   0.398
11567W        W72933   2.807  13.675   0.947
11568W        W72934  19.185  30.994   0.928
11569W        W72935  17.151  30.436  11.078
11570W        W72936  26.621  18.170  10.494
11571W        W72937  25.077  35.096   1.226
11572W        W72938  26.510   7.343   2.233
11573W        W72939  12.704  23.188   0.348
11574W        W72940  20.567  16.149  10.628
11575W        W72941  36.967  12.204  12.943
11576W        W72942   8.194   3.811  12.521
11577W        W72943  31.023  14.263   1.279
11578W        W72944   9.325   2.949   2.301
11579W        W72945  28.649  24.095  13.351
11580W        W72946  39.838  11.837   2.365
11581W        W72947  22.113  29.629   2.871
11582W        W72948   0.323  32.920   4.327
11583W        W72949   6.846  25.982   0.444
11584W        W72950  41.420  31.419   3.674
11585W        W72951  35.534   5.791  14.829
11586W        W72952  24.220   8.682   3.695
11587W        W72953  16.221   6.426  12.845
11588W        W72954   3.366  33.883  12.941
11589W        W72955  33.487  33.544   2.203
11590W        W72956   1.243  15.678  14.391
11591W        W72957  39.893  15.181  13.983
11592W        W72958  13.258  37.903  12.461
11593W        W72959  41.322  38.443  12.550
11594W        W72960   7.358  42.307  14.407
11595W        W72961  24.504  37.505   1.851
11596W        W72962   7.684  36.914   3.792
11597W        W72963  24.000  12.674  11.965
11598W        W72964  17.686  40.516   2.222
11599W        W72965  39.869  12.279  12.930
11600W        W72966  17.158   6.243  12.075
11601W        W72967  26.509  39.859  13.019
11602W        W72968  13.822  10.138   3.698
11603W        W72969  34.054  11.282   1.336
11604W        W72970   7.884   3.826   2.677
11605W        W72971  18.078  36.898  10.906
11606W        W72972  37.366  32.563   3.699
11607W        W72973   2.436  31.627  11.099
11608W        W72974  25.070  17.236  10.636
11609W        W72975   2.427  22.124   2.858
11610W        W72976  16.309   2.434  13.807
11611W        W72977  29.013  30.148   2.393
11612W        W72978  38.950   0.781   4.609
11613W        W72979  31.996  26.967  11.526
11614W        W72980  24.547   7.285   3.346
11615W        W72981  12.759  12.771   4.274
11616W        W72982   3.399  32.397   0.730
11617W        W72983   6.849  25.012  12.958
11618W        W72984   1.421  12.708  10.986
11619W        W72985  24.155  15.128  13.991
11620W        W72986   3.940  16.804   0.461
11621W        W72987  32.539  22.587  11.495
11622W        W72988  19.732  12.781   3.711
11623W        W72989   3.887  29.615  13.513
11624W        W72990  36.570  38.452   1.280
11625W        W72991   6.275  36.843  14.901
11626W        W72992   1.344  29.980   3.297
11627W        W72993  27.492  28.024  13.842
11628W        W72994  32.031  14.648  11.967
11629W        W72995  24.489  23.991   4.644
11630W        W72996  40.943  13.764   4.639
11631W        W72997   8.318   2.333  14.939
11632W        W72998  32.939  12.611   0.794
11633W        W72999  34.586  39.537  14.503
11634W        W73000  12.654  19.100  14.410
11635W        W73001  28.083  26.168   0.891
11636W        W73002   4.215  39.515  11.505
11637W        W73003  19.053  16.729   2.291
11638W        W73004  43.859   3.388   3.826
11639W        W73005   5.770  34.489   4.224
11640W        W73006   6.781  31.047   0.757
11641W        W73007  37.554  43.357  12.900
11642W        W73008  19.603  34.090  14.003
11643W        W73009  12.801  43.283   1.716
11644W        W73010  43.800  23.697  14.343
11645W        W73011  17.767  25.526   1.386
11646W        W73012   5.340  30.015   4.214
11647W        W73013  14.677  27.139   3.633
11648W        W73014  28.123   8.699   0.468
11649W        W73015  30.958   9.210   3.634
11650W        W73016   2.416  13.213   2.858
11651W        W73017  37.949  29.160  10.539
11652W        W73018  37.413  44.820  10.567
11653W        W73019  36.392  33.443   3.861
11654W        W73020   2.398  36.584   2.294
11655W        W73021   1.797  18.646   3.816
11656W        W73022   8.209  37.406  13.317
11657W        W73023  37.872  34.986  11.597
11658W        W73024  37.879  17.283   4.828
11659W        W73025  35.914  28.465  10.417
11660W        W73026  16.571   3.349   0.855
11661W        W73027  38.471  16.093   2.349
11662W        W73028   1.357  26.139  12.405
11663W        W73029  37.074  14.152   4.656
11664W        W73030  23.173  25.568  11.976
11665W        W73031   2.320  41.939   0.371
11666W        W73032  37.018   9.862   0.788
11667W        W73033  24.145  35.361  13.825
11668W        W73034  13.210  29.163   3.834
11669W        W73035  40.389  44.905  13.494
11670W        W73036  30.120   0.800   1.264
11671W        W73037  40.871  11.705   0.264
11672W        W73038  27.534  41.976   3.335
11673W        W73039  41.889   1.898  14.371
11674W        W73040  23.098  44.314  11.865
11675W        W73041  12.163   5.316   3.264
11676W        W73042  30.974  22.998   4.353
11677W        W73043  29.665  12.294   2.794
11678W        W73044   9.817  16.762   3.667
11679W        W73045  31.618   5.232   3.782
11680W        W73046  36.916  34.518   2.214
11681W        W73047   1.839  10.647  14.355
11682W        W73048  41.337  31.964   4.778
11683W        W73049  27.687  38.369  14.961
11684W        W73050   2.327  14.592   2.274
11685W        W73051   1.950  44.760  12.924
11686W        W73052  40.512  11.742   4.261
11687W        W73053   8.667   5.372  12.958
11688W        W73054  44.360  17.271   1.450
11689W        W73055  39.832   3.339   3.741
11690W        W73056  16.599   4.272  14.411
11691W        W73057  20.069   2.745  10.483
11692W        W73058  44.935  35.598   3.705
11693W        W73059  40.974   3.298  10.058
11694W        W73060  16.674  42.434  12.018
11695W        W73061  20.269   9.804   2.783
11696W        W73062  38.480  29.030  12.453
11697W        W73063   9.246  30.489  10.981
11698W        W73064  21.701  16.136  12.930
11699W        W73065  11.852  24.013  13.440
11700W        W73066   9.324  30.439   3.375
11701W        W73067  23.067  23.185  13.401
11702W        W73068  38.958   4.817  13.866
11703W        W73069  33.900  44.978   4.190
11704W        W73070  24.722  38.964   3.806
11705W        W73071  35.481  27.021  11.490
11706W        W73072  19.166  35.502   5.269
11707W        W73073   1.294   5.781   3.351
11708W        W73074  28.124  16.641  14.875
11709W        W73075  39.858  38.447   1.423
11710W        W73076  15.098  11.718   1.292
11711W        W73077  22.609  15.104   1.402
11712W        W73078  19.279  20.227  12.056
11713W        W73079  39.993   1.402  14.922
11714W        W73080  38.843   6.408  11.501
11715W        W73081  31.510   6.236  11.043
11716W        W73082  21.728  29.527   0.832
11717W        W73083  39.376   0.261   4.168
11718W        W73084  28.541  13.274  10.581
11719W        W73085  21.086  34.904   2.263
11720W        W73086  26.209  20.143  12.068
11721W        W73087  37.435  30.957   1.313
11722W        W73088  37.383  29.597   1.225
11723W        W73089  24.217  31.445  13.525
11724W        W73090  15.709  12.177  12.516
11725W        W73091  26.600  24.015   0.849
11726W        W73092  15.592  44.861   0.894
11727W        W73093  40.893  27.564   2.725
11728W        W73094  18.691  40.962  14.024
11729W        W73095  36.405  37.878   1.838
11730W        W73096  39.331  26.155  11.002
11731W        W73097   4.737  40.889  11.880
11732W        W73098  24.121  14.675   2.183
11733W        W73099  38.041   0.782   1.447
11734W        W73100  26.495   6.872   4.349
11735W        W73101  24.220  17.585  13.533
11736W        W73102  31.604   4.253   0.348
11737W        W73103  23.506   8.257  12.886
11738W        W73104  44.918   5.724   0.874
11739W        W73105  40.331  41.802  14.911
11740W        W73106  24.160   6.863  11.864
11741W        W73107  36.403  28.680   0.808
11742W        W73108  18.118  35.494   1.288
11743W        W73109  16.252  22.724   9.981
11744W        W73110   3.901  19.602  10.455
11745W        W73111  31.637  10.662  11.403
11746W        W73112   4.730   0.312   0.317
11747W        W73113  16.085  25.967   0.767
11748W        W73114  10.855   9.259  14.896
11749W        W73115  17.711  38.015  10.573
11750W        W73116  23.562  42.442   0.740
11751W        W73117  21.166  37.034   4.710
11752W        W73118  38.001  40.309   1.826
11753W        W73119  35.101  35.545   4.150
11754W        W73120  29.558  22.652  10.977
11755W        W73121   1.905  25.033  12.349
11756W        W73122  38.563  35.584  10.511
11757W        W73123  31.449   4.738  14.864
11758W        W73124  36.428  26.988  14.951
11759W        W73125  10.706   5.227  10.501
11760W        W73126   6.389  27.610   4.336
11761W        W73127  39.024  25.150  10.976
11762W        W73128  35.518  42.332  13.853
11763W        W73129  35.521  11.161  12.487
11764W        W73130  10.138  35.358   1.853
11765W        W73131  32.564  11.192   1.756
11766W        W73132  20.197  41.808   3.357
11767W        W73133  32.485   7.199  11.463
11768W        W73134  19.128  25.047   1.340
11769W        W73135  28.506  18.704   2.414
11770W        W73136   5.715  35.559  10.449
11771W        W73137   3.324  15.315  14.388
11772W        W73138  15.328  42.523  11.946
11773W        W73139   6.244   7.228  12.941
11774W        W73140  37.060  28.044  12.545
11775W        W73141  38.557   6.259   4.223
11776W        W73142  21.736   8.661   2.675
11777W        W73143   0.430   5.853  13.051
11778W        W73144  42.417   2.288   4.679
11779W        W73145  27.509  41.842  12.359
11780W        W73146  32.052  34.968   2.766
11781W        W73147  26.014  15.285  13.314
11782W        W73148  16.124  16.673  12.515
11783W        W73149  40.529  17.782  14.344
11784W        W73150   9.364   0.266   0.931
11785W        W73151  29.670  25.148   4.263
11786W        W73152  42.986  38.042  14.800
11787W        W73153  32.909   4.712  11.121
11788W        W73154  26.089  24.580   0.363
11789W        W73155  12.182  24.478   2.236
11790W        W73156  25.626  39.825  11.863
11791W        W73157  11.816  44.792  10.453
11792W        W73158  41.536  12.698   4.790
11793W        W73159  11.290  40.455  14.484
11794W        W73160  26.168   7.787  13.501
11795W        W73161  16.691  36.985  11.465
11796W        W73162  11.236   5.898  14.372
11797W        W73163  36.843  40.318  11.873
11798W        W73164  14.641   5.308  12.839
11799W        W73165  36.905   7.779  11.948
11800W        W73166  22.505   2.383  14.791
11801W        W73167  41.797  35.592   2.359
11802W        W73168  28.981  27.644   1.307
11803W        W73169  19.626  35.875  13.507
11804W        W73170  38.897  32.435  10.547
11805W        W73171   8.265   7.255   4.196
11806W        W73172   5.202  26.084   1.332
11807W        W73173  19.639  17.725  12.410
11808W        W73174  15.145   0.346  10.466
11809W        W73175  25.699   3.414  12.392
11810W        W73176  16.292  38.484  12.095
11811W        W73177  30.075  39.524  11.383
11812W        W73178   5.383  18.125  14.781
11813W        W73179  43.364  19.171   1.327
11814W        W73180  20.648  25.049   3.804
11815W        W73181  32.070   8.261  11.410
11816W        W73182  18.577  34.909  14.354
11817W        W73183  18.678  23.128   1.912
11818W        W73184  14.152  34.015   3.172
11819W        W73185  23.038  36.519  12.914
11820W        W73186  34.989   1.791   1.783
11821W        W73187   7.818  25.587   2.386
11822W        W73188   9.367  30.039  10.908
11823W        W73189  39.842  13.767  12.886
11824W        W73190  23.157   1.392   9.602
11825W        W73191  13.648  16.720   2.202
11826W        W73192  16.151  32.574  13.954
11827W        W73193  42.351  20.086  14.437
11828W        W73194  21.622  22.732  12.861
11829W        W73195  20.733  44.399   2.334
11830W        W73196  12.693  29.037   3.731
11831W        W73197  35.548  40.030   2.231
11832W        W73198  39.428  18.175  12.933
11833W        W73199  10.384   8.753  11.875
11834W        W73200   8.299  32.058   2.827
11835W        W73201  19.631  29.052   0.949
11836W        W73202  17.723   5.768  10.545
11837W        W73203   3.419  37.567  10.548
11838W        W73204  29.578   1.377  11.002
11839W        W73205  36.857  40.485   1.366
11840W        W73206  19.565   8.889  13.439
11841W        W73207  16.754   3.449  12.926
11842W        W73208  22.112  37.997   1.742
11843W        W73209  33.585  23.104   3.313
11844W        W73210  42.786  32.060   0.759
11845W        W73211  44.357  20.707  11.581
11846W        W73212  44.391  30.937   2.869
11847W        W73213  25.147  17.788   4.748
11848W        W73214  29.435  12.750  14.032
11849W        W73215  23.535   2.721   3.759
11850W        W73216  27.957  21.199   1.243
11851W        W73217  11.217  17.260   2.218
11852W        W73218  19.724  13.164   1.265
11853W        W73219  15.630  29.425  12.534
11854W        W73220  23.644  22.624   1.928
11855W        W73221   2.847   8.863  13.322
11856W        W73222  26.596  30.537  14.437
11857W        W73223  21.660  34.966   3.382
11858W        W73224  22.709  16.099  12.556
11859W        W73225  44.872   8.835  10.923
11860W        W73226   3.915  27.639   2.294
11861W        W73227  43.844  22.555   2.250
11862W        W73228  27.975  12.793  13.911
11863W        W73229  25.131  34.383  14.500
11864W        W73230  15.251  14.221  12.537
11865W        W73231  31.974  25.114   0.355
11866W        W73232  28.030   9.374   3.370
11867W        W73233  18.263  13.304  14.358
11868W        W73234  31.484  30.413  10.526
11869W        W73235  18.652   4.724  13.341
11870W        W73236  15.303  31.510   0.305
11871W        W73237  38.949  18.618  13.029
11872W        W73238  24.975  18.110   1.799
11873W        W73239  20.543  30.026  14.837
11874W        W73240  31.048  18.599  10.957
11875W        W73241   2.362  31.482  13.910
11876W        W73242  16.217  22.999  13.455
11877W        W73243  39.058  42.427  11.101
11878W        W73244  31.596  27.968   0.419
11879W        W73245  26.104  26.961   5.618
11880W        W73246   9.273  32.611   4.693
11881W        W73247  23.005  18.218  13.862
11882W        W73248  38.977  21.682  13.019
11883W        W73249  38.037   3.269   0.442
11884W        W73250  10.321  15.727  12.395
11885W        W73251   9.645  38.868   2.873
11886W        W73252  19.241  31.576   4.265
11887W        W73253  23.125   0.939   1.360
11888W        W73254  41.000   7.900  11.924
11889W        W73255  17.596  33.874  11.010
11890W        W73256   3.281  35.087   1.259
11891W        W73257  14.191   5.865   0.887
11892W        W73258  23.729  36.569  11.510
11893W        W73259  30.493   0.318  13.317
11894W        W73260  19.235  14.620   1.410
11895W        W73261  32.949  15.655   1.885
11896W        W73262   1.811  41.833  14.283
11897W        W73263  15.279  17.186  13.853
11898W        W73264  28.054  12.798   0.781
11899W        W73265  11.253  24.006  12.030
11900W        W73266  29.496   2.350  10.567
11901W        W73267  16.194   0.937  11.962
11902W        W73268   7.746  20.124  12.565
11903W        W73269  12.677  13.208   3.301
11904W        W73270  41.019  30.536   4.145
11905W        W73271  28.621  43.771   3.246
11906W        W73272  43.440   7.727   0.948
11907W        W73273  36.929   9.248  13.321
11908W        W73274  37.947  20.128   3.386
11909W        W73275  27.140  28.587  12.844
11910W        W73276  16.605   0.332  10.581
11911W        W73277  15.166   0.935   1.815
11912W        W73278  43.334  32.137  10.511
11913W        W73279  19.110  37.845  13.491
11914W        W73280  12.152  43.281   4.834
11915W        W73281   9.671  30.591  12.852
11916W        W73282  37.050  28.032   4.827
11917W        W73283  44.321  12.704   2.409
11918W        W73284   5.193  30.077   1.801
11919W        W73285  43.774   3.416   2.396
11920W        W73286   1.359  23.718  13.939
11921W        W73287  12.632  11.354   0.744
11922W        W73288  40.435  29.547   3.761
11923W        W73289  27.049   3.237  10.014
11924W        W73290  20.035  22.171  12.525
11925W        W73291   7.680  25.675   2.715
11926W        W73292   5.310  43.485  13.309
11927W        W73293  28.600   3.299  12.528
11928W        W73294  10.858  11.704   2.662
11929W        W73295  28.124  35.405   2.407
11930W        W73296  23.002  35.390  14.425
11931W        W73297  13.787  34.941  11.957
11932W        W73298  22.727  33.875   0.963
11933W        W73299  18.652  27.682   0.309
11934W        W73300  32.453   2.912   1.228
11935W        W73301  36.543  27.565   3.299
11936W        W73302   1.889  34.487  11.942
11937W        W73303  43.807   3.330  10.455
11938W        W73304   2.860  13.788   2.404
11939W        W73305   9.245  32.893  12.875
11940W        W73306  41.977  20.612   4.141
11941W        W73307   4.811  42.409   2.672
11942W        W73308  32.464  34.469  11.402
11943W        W73309   6.916  42.004   1.731
11944W        W73310  41.029  38.550  11.482
11945W        W73311  26.149  41.475  13.400
11946W        W73312  26.675   2.724  12.948
11947W        W73313   2.730  36.945  10.921
11948W        W73314  17.741  19.060   2.795
11949W        W73315   6.257   5.811  13.940
11950W        W73316  16.580   9.737  13.330
11951W        W73317  34.099  28.108   4.824
11952W        W73318  14.295   0.470  11.916
11953W        W73319  28.074   1.888  12.351
11954W        W73320  40.937  11.833  10.616
11955W        W73321  29.573   1.300   3.843
11956W        W73322  23.531  31.002   0.863
11957W        W73323  41.811  21.211   0.327
11958W        W73324  35.560   2.267  12.991
11959W        W73325  40.523  37.073  12.540
11960W        W73326  13.300   8.183   4.136
11961W        W73327  41.318  23.584   1.269
11962W        W73328  29.948  32.948  14.447
11963W        W73329  19.604  30.451  11.539
11964W        W73330   9.366  15.254   5.321
11965W        W73331   0.846  42.784  12.509
11966W        W73332  23.577  26.101  13.019
11967W        W73333  33.416  38.925   0.355
11968W        W73334  23.138  15.690  13.963
11969W        W73335  24.994  19.661  13.994
11970W        W73336  11.351  31.998   3.642
11971W        W73337  38.003  24.582  10.601
11972W        W73338   7.687  13.215   0.476
11973W        W73339  23.108  20.126  13.353
11974W        W73340   6.220   0.819   4.751
11975W        W73341  35.097  28.487   0.909
11976W        W73342  11.755  34.080  12.087
11977W        W73343   9.370  18.789   3.837
11978W        W73344   9.169  39.829  13.400
11979W        W73345  43.878  32.531  11.475
11980W        W73346  13.754  17.609  11.526
11981W        W73347  21.530  23.551  12.389
11982W        W73348  13.762  22.535  11.061
11983W        W73349  23.522  20.095   2.188
11984W        W73350  41.344  26.559   2.749
11985W        W73351  41.459  24.202  13.428
11986W        W73352  38.029  21.208  14.410
11987W        W73353  33.534  28.110  11.563
11988W        W73354  36.431  34.953  12.874
11989W        W73355  33.055  24.988   4.814
11990W        W73356  40.013  32.014  12.366
11991W        W73357   2.935   7.364  10.501
11992W        W73358   6.798  20.528  14.762
11993W        W73359  10.250  24.172  10.455
11994W        W73360  10.662   9.878   2.686
11995W        W73361  36.379   7.234   1.764
11996W        W73362  43.510  33.040  13.827
11997W        W73363  33.914  13.674   2.363
11998W        W73364  29.533  18.262   3.821
11999W        W73365  37.972   0.800  10.433
12000W        W73366  40.477  14.325  14.397
12001W        W73367  42.798   2.410   0.851
12002W        W73368  23.048  10.871   4.690
12003W        W73369  35.039  16.746   2.717
12004W        W73370   4.892   1.847   2.225
12005W        W73371  29.002  17.238  11.497
12006W        W73372   4.286  44.796   4.249
12007W        W73373  23.037  24.989   1.852
12008W        W73374  37.890   2.941   1.707
12009W        W73375  14.812  31.101  14.790
12010W        W73376  29.994   9.858   3.245
12011W        W73377   4.426  24.196  13.063
12012W        W73378   0.281   2.239  10.616
12013W        W73379   0.282  15.135   1.314
12014W        W73380  36.585  17.588  13.972
12015W        W73381  23.658  12.775   0.868
12016W        W73382  37.979  18.117   0.897
12017W        W73383   8.348  24.136   1.421
12018W        W73384   9.691  20.591  12.934
12019W        W73385   8.793  14.663  12.994
12020W        W73386  13.108  43.884   2.180
12021W        W73387  39.955   5.303   3.327
12022W        W73388  23.132  34.989   1.870
12023W        W73389   6.321   0.480   4.600
12024W        W73390  36.066  34.884  13.516
12025W        W73391  32.492  30.980  12.004
12026W        W73392  35.563  34.595  14.490
12027W        W73393  18.077  14.205   3.174
12028W        W73394  38.875  32.055   9.991
12029W        W73395  33.499   7.293   1.279
12030W        W73396  11.352  43.811   3.659
12031W        W73397  19.670  21.551   1.223
12032W        W73398   3.448  36.896   4.718
12033W        W73399   4.336   4.294  12.406
12034W        W73400   0.261  32.563   4.743
12035W        W73401   2.964   7.187  14.462
12036W        W73402   3.251  16.710  11.420
12037W        W73403  32.088  39.882  14.803
12038W        W73404   6.383  13.169  12.357
12039W        W73405  39.507   3.258   0.310
12040W        W73406  40.828  10.187   1.382
12041W        W73407   7.351  25.604  14.285
12042W        W73408  18.281  14.192   4.763
12043W        W73409  31.582  39.457  11.910
12044W        W73410  43.476  30.034   0.953
12045W        W73411  31.613   1.459   0.900
12046W        W73412  26.966  39.983  14.479
12047W        W73413  41.016  23.728   0.738
12048W        W73414  16.687  25.576   0.831
12049W        W73415   5.294  30.914  13.486
12050W        W73416  12.845  27.582  13.415
12051W        W73417  31.415  22.086  10.643
12052W        W73418  32.423  22.698  11.888
12053W        W73419  34.397  35.457   1.303
12054W        W73420  28.019  18.173   3.181
12055W        W73421  25.046  14.773  12.986
12056W        W73422  29.974  15.218  12.924
12057W        W73423  25.628  39.554   1.352
12058W        W73424   6.275  14.680  14.805
12059W        W73425  15.206  10.811   1.729
12060W        W73426  14.659  39.446  14.514
12061W        W73427  35.918  39.317   3.693
12062W        W73428  11.278  34.100  14.825
12063W        W73429  28.495  24.628  10.567
12064W        W73430  33.564  43.776   2.827
12065W        W73431  30.561   6.420   2.375
12066W        W73432   4.856   6.771  14.809
12067W        W73433  12.298  16.641   3.207
12068W        W73434  19.647   9.261   1.283
12069W        W73435  36.876  23.609  11.026
12070W        W73436  39.967  29.165   4.775
12071W        W73437  42.404  21.101  12.964
12072W        W73438   8.831   1.463  14.927
12073W        W73439   0.799   9.157   3.348
12074W        W73440   4.928  18.738  12.062
12075W        W73441   3.391  19.167   1.353
12076W        W73442  44.943  19.154   3.829
12077W        W73443  30.553  19.543   2.306
12078W        W73444  18.257  32.926   3.190
12079W        W73445  20.244  23.540   1.765
12080W        W73446  33.910  28.515  10.638
12081W        W73447  24.131  15.129   2.845
12082W        W73448  38.019  27.974  12.497
12083W        W73449   7.755   3.320  11.079
12084W        W73450  11.143   2.326  14.289
12085W        W73451  23.146   7.219   2.284
12086W        W73452  34.901   3.335   2.257
12087W        W73453   0.945  38.023  10.425
12088W        W73454  22.591  32.423  12.991
12089W        W73455  40.527  31.583   2.815
12090W        W73456  18.754  11.684   5.247
12091W        W73457   8.792  22.162  12.078
12092W        W73458  22.076  28.140   3.188
12093W        W73459  27.468  14.803  14.433
12094W        W73460  11.234   1.792  12.072
12095W        W73461  34.476  31.511   1.918
12096W        W73462  10.732  10.766   3.794
12097W        W73463   1.360  20.673  11.119
12098W        W73464  35.003  23.125  14.761
12099W        W73465  15.166  32.955   1.823
12100W        W73466  32.886  36.920  11.971
12101W        W73467   7.234  25.182   0.964
12102W        W73468   5.722   6.340   4.615
12103W        W73469  11.698  26.986   4.753
12104W        W73470  31.431  44.363   2.771
12105W        W73471  25.646  31.051  13.473
12106W        W73472  20.066  27.028   3.644
12107W        W73473  12.144   6.260  14.838
12108W        W73474  32.501  16.206   1.850
12109W        W73475  10.632  11.137   2.384
12110W        W73476  18.585   6.680   3.356
12111W        W73477  44.320  36.558  12.553
12112W        W73478  16.757  24.163  14.874
12113W        W73479  15.123  18.682   4.148
12114W        W73480  42.832   1.417  12.580
12115W        W73481  18.053  19.652  13.917
12116W        W73482  19.184  14.788  13.313
12117W        W73483  20.137  33.049   3.754
12118W        W73484  15.682  26.141  12.542
12119W        W73485  28.054  34.602  13.995
12120W        W73486  22.621   7.295  14.298
12121W        W73487  30.480  24.574  14.829
12122W        W73488  18.212  22.566   2.352
12123W        W73489  15.657  23.991  11.857
12124W        W73490  10.318  24.216  13.829
12125W        W73491  28.476  27.133   1.757
12126W        W73492  36.358  30.925   0.445
12127W        W73493  15.714  16.747   3.736
12128W        W73494  12.787  26.208  14.855
12129W        W73495  36.517   4.370   4.632
12130W        W73496  35.443  26.047   0.469
12131W        W73497  35.431  33.078   2.341
12132W        W73498  43.432  28.050   1.221
12133W        W73499  22.205   6.224   4.816
12134W        W73500   1.870  35.884  14.426
12135W        W73501   3.362  19.653  14.773
12136W        W73502  40.500  33.937  14.986
12137W        W73503  19.602  23.673  12.038
12138W        W73504  16.248   7.755   2.823
12139W        W73505   0.356  33.886   0.266
12140W        W73506  37.377  32.936  11.111
12141W        W73507   9.332  41.896   2.786
12142W        W73508  12.841   6.330  11.032
12143W        W73509  34.901   6.274   4.308
12144W        W73510  31.479  34.523   0.315
12145W        W73511  19.666  28.470  13.450
12146W        W73512  33.583  13.607  11.391
12147W        W73513  42.011  38.007  13.009
12148W        W73514  21.241  21.527  12.035
12149W        W73515  43.288   1.915  13.538
12150W        W73516  36.864  17.124   4.241
12151W        W73517  15.232  22.746   3.651
12152W        W73518  36.550  27.500   0.400
12153W        W73519  32.073   9.715   0.384
12154W        W73520  43.827  44.269   4.286
12155W        W73521   0.931  32.491   2.826
12156W        W73522  38.443  44.504  11.121
12157W        W73523  42.941  40.012  12.462
12158W        W73524  14.672  27.594  12.354
12159W        W73525  13.636   3.259  12.548
12160W        W73526   2.345   8.661  12.547
12161W        W73527  17.776   6.733   3.724
12162W        W73528  31.901  24.982  13.937
12163W        W73529   2.303  11.366   3.843
12164W        W73530  34.599   7.384  11.555
12165W        W73531  25.481   1.960   2.759
12166W        W73532  31.579  39.519  10.460
12167W        W73533  18.667  29.655   2.385
12168W        W73534   4.271  36.990  11.938
12169W        W73535  34.599  34.431  14.859
12170W        W73536  33.556  40.527  12.566
12171W        W73537  34.480  24.719   4.293
12172W        W73538  37.463  28.539   3.828
12173W        W73539  19.161  20.084  12.945
12174W        W73540  37.952  25.636  13.430
12175W        W73541   0.322  16.744  14.022
12176W        W73542   1.834  13.157  12.366
12177W        W73543  25.046  13.673   1.387
12178W        W73544  41.043  44.373   3.267
12179W        W73545   3.412  23.101  11.113
12180W        W73546   4.919  13.294   0.856
12181W        W73547  28.558   9.231  12.388
12182W        W73548   1.456  12.687  10.556
12183W        W73549   8.369  32.605   2.903
12184W        W73550  24.583  23.032   4.331
12185W        W73551  22.141  42.905   0.412
12186W        W73552   4.879   1.885  14.786
12187W        W73553  35.029   9.732   2.796
12188W        W73554   7.327  41.328  11.904
12189W        W73555  42.374  10.370   2.266
12190W        W73556  44.449   9.258  10.479
12191W        W73557  28.106  41.857  13.962
12192W        W73558  21.632   7.398   3.290
12193W        W73559  29.644  40.836  11.564
12194W        W73560  32.929  16.581  13.927
12195W        W73561  40.836  22.080   0.857
12196W        W73562  24.678   2.788  11.456
12197W        W73563  19.673  32.072   5.238
12198W        W73564   2.343  21.037  10.073
12199W        W73565  14.111  30.526  14.829
12200W        W73566   6.786  12.749  10.447
12201W        W73567  23.142   2.268  12.518
12202W        W73568   1.467  40.851   4.668
12203W        W73569  38.011  27.981   0.883
12204W        W73570  15.739  43.829  12.868
12205W        W73571   6.890   0.285   4.616
12206W        W73572  32.566  25.155  12.850
12207W        W73573  12.242  17.245  13.530
12208W        W73574   4.340  20.138   2.238
12209W        W73575   3.378  25.203  11.378
12210W        W73576  37.502  39.514  10.594
12211W        W73577  14.697  40.343  14.459
12212W        W73578   7.297  44.758  14.300
12213W        W73579  44.958  24.630   0.463
12214W        W73580  15.085  37.942  13.443
12215W        W73581   4.410  42.480  10.416
12216W        W73582  21.515  34.502  12.053
12217W        W73583   7.810  31.475   4.298
12218W        W73584  36.486  12.612   2.236
12219W        W73585  30.469  37.509  11.016
12220W        W73586  10.265   6.748  10.580
12221W        W73587  18.569  29.438  13.384
12222W        W73588  17.566  15.178   3.815
12223W        W73589  28.479  12.683  14.827
12224W        W73590  38.396  25.095   3.855
12225W        W73591  17.618  37.963  12.890
12226W        W73592  15.753  32.524   1.345
12227W        W73593  44.384  36.565   0.881
12228W        W73594  31.153  14.592  13.902
12229W        W73595  41.888   8.220  12.387
12230W        W73596   7.788  29.022  12.389
12231W        W73597  32.910  40.408   1.223
12232W        W73598   1.314  13.693  13.310
12233W        W73599   1.785  30.655  11.883
12234W        W73600  44.465  22.115  12.471
12235W        W73601   1.894  25.216   3.630
12236W        W73602  20.537   8.870  12.947
12237W        W73603  19.059  23.197   4.796
12238W        W73604  11.811  38.420  14.490
12239W        W73605   4.699   3.305  13.423
12240W        W73606  14.785  18.694  13.342
12241W        W73607  16.232   4.402  11.576
12242W        W73608  13.643  10.727  11.438
12243W        W73609  22.681  41.005   1.263
12244W        W73610  16.289  39.335  13.430
12245W        W73611   8.232  10.279   0.822
12246W        W73612  30.651  41.920   9.980
12247W        W73613   8.361   6.802  14.891
12248W        W73614  21.054  39.318   0.941
12249W        W73615  37.564   7.824   1.269
12250W        W73616  18.138  34.064   1.298
12251W        W73617  22.147   7.681   4.214
12252W        W73618   0.444  36.473   3.210
12253W        W73619  23.706  43.824   2.320
12254W        W73620  40.390  21.089  10.976
12255W        W73621  31.567  16.809   0.777
12256W        W73622  27.181  12.646  10.915
12257W        W73623  36.937  30.574  12.888
12258W        W73624  16.148   7.871   1.252
12259W        W73625  23.558  31.475   1.224
12260W        W73626  35.859  22.641   2.758
12261W        W73627  16.133  43.270  13.329
12262W        W73628  42.419  41.820  14.485
12263W        W73629  32.477  44.915  12.029
12264W        W73630  12.619  21.524   0.267
12265W        W73631   4.385  28.030  12.025
12266W        W73632  16.749  21.686  13.332
12267W        W73633  44.774  28.439  13.007
12268W        W73634  24.214  27.057   1.736
12269W        W73635  35.858  26.984   0.737
12270W        W73636  44.479  11.270  13.363
12271W        W73637  31.117   3.388   1.717
12272W        W73638  38.869  13.686   0.888
12273W        W73639  33.034  38.073  12.915
12274W        W73640  42.911  40.540  11.601
12275W        W73641   4.438  21.110   1.884
12276W        W73642  28.071  30.558  13.934
12277W        W73643   7.763  12.714   1.862
12278W        W73644   7.872   0.950   2.866
12279W        W73645  24.644  33.080  12.907
12280W        W73646  44.920   9.374  11.018
12281W        W73647   0.906   4.907   5.136
12282W        W73648  14.643  29.551   1.752
12283W        W73649  37.430  11.128  13.799
12284W        W73650  16.119  22.578  11.484
12285W        W73651  24.047  18.788   1.924
12286W        W73652  17.127   3.219   3.781
12287W        W73653  41.388  40.382   2.179
12288W        W73654  22.555  41.484  13.840
12289W        W73655  15.116  18.200  10.157
12290W        W73656  29.111  19.652   3.152
12291W        W73657  42.885  39.847  13.497
12292W        W73658  23.184  16.079  11.593
12293W        W73659   9.346  14.706   9.637
12294W        W73660  22.241  25.084   0.765
12295W        W73661  29.949  23.654  14.904
12296W        W73662  36.354  32.935  10.535
12297W        W73663   7.907  23.195  14.877
12298W        W73664  35.927  41.320  12.559
12299W        W73665  44.980  14.824  13.316
12300W        W73666   4.874  13.839   4.320
12301W        W73667   3.424   4.205   0.371
12302W        W73668  24.149  38.455   4.623
12303W        W73669  29.540  41.934   4.117
12304W        W73670  15.806  23.590   3.341
12305W        W73671  34.411  38.535   0.246
12306W        W73672  11.328  16.698   2.241
12307W        W73673   6.365  28.547   2.388
12308W        W73674   2.309  24.035  14.915
12309W        W73675   2.273  12.625   3.220
12310W        W73676  31.483  39.345  11.580
12311W        W73677  35.383   8.771   1.376
12312W        W73678  23.120  21.618   4.825
12313W        W73679  27.040  27.584  14.836
12314W        W73680  14.162  31.949   9.943
12315W        W73681  21.751  31.961  10.555
12316W        W73682  21.236  25.999  10.535
12317W        W73683  28.019  36.458  11.559
12318W        W73684  24.019  18.732   3.196
12319W        W73685  38.433  43.879   0.370
12320W        W73686  27.107   5.282  11.603
12321W        W73687  38.431   2.746   3.650
12322W        W73688  32.923  37.521   3.793
12323W        W73689  44.780   7.712   3.826
12324W        W73690  26.499  44.439  13.532
12325W        W73691  33.457  35.358   4.154
12326W        W73692   1.930  26.070   0.309
12327W        W73693  13.291  43.920  11.578
12328W        W73694  25.537  34.423  10.017
12329W        W73695   4.819  10.674   4.712
12330W        W73696  32.938  25.030  12.444
12331W        W73697  31.024  15.197  12.409
12332W        W73698  16.114   1.919  11.403
12333W        W73699  16.253  10.284   4.144
12334W        W73700  12.779  29.974  13.469
12335W        W73701  42.962  26.991   2.825
12336W        W73702   2.942  15.259   2.336
12337W        W73703  23.010  27.094  12.556
12338W        W73704   8.166   6.392  10.405
12339W        W73705  41.816  30.038   2.748
12340W        W73706  24.613  13.173   0.902
12341W        W73707  27.196  29.492  11.864
12342W        W73708  23.654   2.876   0.303
12343W        W73709  28.982  26.164   3.702
12344W        W73710  12.355   8.298  10.642
12345W        W73711  30.453  37.932  12.990
12346W        W73712  37.864  42.864   3.264
12347W        W73713  24.138   9.860   0.461
12348W        W73714  21.628   1.963   2.849
12349W        W73715  31.475  38.540   3.640
12350W        W73716  10.187  23.634   3.836
12351W        W73717  20.086  37.070   1.348
12352W        W73718  31.941  18.603  12.043
12353W        W73719  20.544  40.825   4.341
12354W        W73720   4.913  14.742   1.220
12355W        W73721  40.463  26.118   0.929
12356W        W73722   3.236  39.933  11.464
12357W        W73723  33.912  40.328  10.429
12358W        W73724  12.226   1.855  11.978
12359W        W73725  35.496  13.829   1.274
12360W        W73726  27.177   0.352  14.395
12361W        W73727   2.872   7.175  12.852
12362W        W73728  37.509  37.579   1.255
12363W        W73729  21.635  39.505  10.473
12364W        W73730  32.104   4.928   3.665
12365W        W73731   4.784   5.710   0.731
12366W        W73732   9.157   2.749  11.065
12367W        W73733  23.101  35.515   1.732
12368W        W73734  14.652  19.725   1.736
12369W        W73735  27.675  34.074  12.000
12370W        W73736  21.539  30.115  10.895
12371W        W73737  32.518  15.657  10.547
12372W        W73738  27.548   3.258  12.065
12373W        W73739  16.753  10.861   4.348
12374W        W73740  23.091   7.894  11.414
12375W        W73741  23.725   5.241   5.128
12376W        W73742  35.366   0.470   4.167
12377W        W73743  33.584  42.372   4.311
12378W        W73744  21.738  42.905  13.936
12379W        W73745  14.271  42.794   2.707
12380W        W73746  43.975  15.706  13.512
12381W        W73747  18.085  20.530   0.742
12382W        W73748   6.187  43.890   2.840
12383W        W73749  39.333   5.430  13.868
12384W        W73750  25.563  22.671  14.318
12385W        W73751  39.385  19.134   3.669
12386W        W73752  16.169  37.447  11.942
12387W        W73753   4.873  15.198   3.812
12388W        W73754  16.275  39.495   0.800
12389W        W73755  26.177  24.489   2.286
12390W        W73756   1.391  37.553   2.408
12391W        W73757  43.290   4.382   1.216
12392W        W73758  18.741  18.090  14.866
12393W        W73759  37.079   1.846   4.830
12394W        W73760  43.483  19.630  11.998
12395W        W73761   9.766  15.803   0.759
12396W        W73762  17.226   0.434   0.736
12397W        W73763   8.779  18.704  11.058
12398W        W73764  24.974  36.852  14.436
12399W        W73765  40.456  12.340  14.417
12400W        W73766  23.507   6.352   2.774
12401W        W73767  36.524  10.264  11.580
12402W        W73768  20.736   8.867   1.423
12403W        W73769  29.001  10.275   4.156
12404W        W73770   7.313   3.435  14.379
12405W        W73771   9.772  43.953  12.825
12406W        W73772  39.020  36.006  13.320
12407W        W73773   2.314  15.147   2.686
12408W        W73774  30.931  38.529   2.668
12409W        W73775   6.827  12.828   4.274
12410W        W73776  18.712  20.703   1.449
12411W        W73777  12.167  14.600   5.108
12412W        W73778  42.953   4.860  11.879
12413W        W73779  24.696  19.770   3.854
12414W        W73780  26.507  28.013   1.435
12415W        W73781  39.349  29.538   3.281
12416W        W73782  23.559   8.816  11.921
12417W        W73783   3.403  23.651   1.843
12418W        W73784  28.075  25.501  13.820
12419W        W73785   5.253  40.826   1.378
12420W        W73786   5.413   1.885   3.697
12421W        W73787  44.380  20.184   5.268
12422W        W73788   6.898  11.177  14.002
12423W        W73789  26.489  15.097  11.013
12424W        W73790  15.262   7.317   4.228
12425W        W73791  32.986  19.660  13.869
12426W        W73792  24.058  17.700   3.292
12427W        W73793  14.684   8.853  14.283
12428W        W73794   8.262  15.159   2.393
12429W        W73795  10.745  14.137   4.598
12430W        W73796  12.711  40.040   1.232
12431W        W73797  36.088  21.054  11.932
12432W        W73798  14.595  17.178  13.888
12433W        W73799   7.691  14.120   1.715
12434W        W73800   8.658  44.799   3.786
12435W        W73801   1.905   2.810  13.498
12436W        W73802  14.270  13.840  13.540
12437W        W73803   6.379  29.078  10.934
12438W        W73804  13.613   0.776  14.895
12439W        W73805  11.272  38.929  11.059
12440W        W73806  13.291  15.806   1.404
12441W        W73807   1.780   5.792   3.757
12442W        W73808  19.248  39.872   3.251
12443W        W73809  28.175   5.844   0.953
12444W        W73810  29.075  14.732  14.953
12445W        W73811  36.890  12.831   3.676
12446W        W73812  28.106  29.059  11.868
12447W        W73813  24.699  16.740  14.348
12448W        W73814  13.115  24.075   1.327
12449W        W73815  37.991   4.299  14.982
12450W        W73816  36.543  31.069   3.189
12451W        W73817  14.753  22.039  12.577
12452W        W73818  40.506  24.550   1.782
12453W        W73819  31.143  29.514   1.848
12454W        W73820   8.314  17.170   3.296
12455W        W73821   4.360  43.805  12.067
12456W        W73822   0.468  16.274  13.798
12457W        W73823  42.523   2.312   0.758
12458W        W73824  15.604   4.797   2.886
12459W        W73825  22.089  27.031   4.168
12460W        W73826  30.107   1.358  13.406
12461W        W73827   3.253  15.160   0.860
12462W        W73828  22.725  28.056   0.947
12463W        W73829   8.232  16.643  10.628
12464W        W73830   2.858  40.459  10.519
12465W        W73831   9.680   7.893   0.952
12466W        W73832  27.087  42.406   0.827
12467W        W73833  10.742  16.299  14.850
12468W        W73834  14.787   1.432   4.704
12469W        W73835  28.009  30.020  11.898
12470W        W73836  10.352  21.221  12.364
12471W        W73837   4.348  10.877   4.758
12472W        W73838  16.304  13.600  12.549
12473W        W73839  19.063  24.697  13.052
12474W        W73840  10.336   8.368  11.871
12475W        W73841   8.875  28.635  11.590
12476W        W73842  41.797  37.416  10.524
12477W        W73843  12.661  19.240   3.714
12478W        W73844  11.853  30.075  10.928
12479W        W73845  22.542   4.410   3.717
12480W        W73846  25.499   9.215   3.217
12481W        W73847   4.397  37.872  11.552
12482W        W73848  40.377  33.552  10.077
12483W        W73849  30.947  15.253   0.482
12484W        W73850  40.337  18.773  10.538
12485W        W73851   2.375  34.429  12.093
12486W        W73852  18.074  26.983   1.817
12487W        W73853  30.080  18.272  13.870
12488W        W73854   7.388  36.938  10.980
12489W        W73855  35.000  11.826  12.013
12490W        W73856  27.111   7.280   3.741
12491W        W73857  32.550  19.600  11.402
12492W        W73858  30.474   5.838   1.731
12493W        W73859  35.517  32.485  13.499
12494W        W73860  24.211  10.786   3.647
12495W        W73861   3.261  33.505  14.958
12496W        W73862  43.379  37.477   2.891
12497W        W73863  10.304  43.014  11.567
12498W        W73864   6.380  25.977  14.881
12499W        W73865  17.570  23.195  14.485
12500W        W73866  41.427  25.026   1.444
12501W        W73867  17.739  32.060  14.299
12502W        W73868  11.631  39.967  13.820
12503W        W73869   6.425   5.717  11.072
12504W        W73870  31.616   3.265  13.015
12505W        W73871  43.006   7.342   3.296
12506W        W73872   0.874   5.864   0.953
12507W        W73873  42.924  29.134   2.181
12508W        W73874   7.744   5.216  14.348
12509W        W73875  42.450  26.098   0.434
12510W        W73876  30.659  38.914  13.994
12511W        W73877  26.463   1.859  11.426
12512W        W73878  33.054   5.842  10.458
12513W        W73879   0.348  10.149  13.541
12514W        W73880  24.678  32.936  14.936
12515W        W73881  21.063  26.516  11.039
12516W        W73882  39.857   7.898   0.371
12517W        W73883  39.430  12.821  14.833
12518W        W73884   0.387  27.480   0.444
12519W        W73885  40.006   7.248   4.622
12520W        W73886  16.167  11.806   1.879
12521W        W73887  31.052  13.255  11.035
12522W        W73888  20.756  40.047   1.336
12523W        W73889  28.436  27.653   3.756
12524W        W73890  21.172  37.367   3.237
12525W        W73891  35.006  17.653  13.829
12526W        W73892  27.665  36.923  14.414
12527W        W73893  14.723  41.798  14.807
12528W        W73894  38.045  32.520  14.884
12529W        W73895  25.525  19.721  12.569
12530W        W73896  42.006  11.146   1.379
12531W        W73897  35.876  40.515   3.347
12532W        W73898  20.220  37.909  13.017
12533W        W73899  16.768  35.549   0.287
12534W        W73900  31.455   2.816   2.332
12535W        W73901  43.421   1.932   3.361
12536W        W73902  13.289  32.391  14.920
12537W        W73903   1.817  32.967  10.461
12538W        W73904  42.925  20.205  11.117
12539W        W73905  32.113  10.193  13.002
12540W        W73906  34.043  27.658  10.948
12541W        W73907   3.944  13.290  10.577
12542W        W73908  32.408   8.658   3.790
12543W        W73909  30.604  25.153   0.908
12544W        W73910  34.961  19.698  13.031
12545W        W73911   0.458  42.299   4.232
12546W        W73912  33.558  30.490  11.492
12547W        W73913  34.012  23.175   1.802
12548W        W73914  23.572  28.063   3.326
12549W        W73915   4.333  27.089   0.933
12550W        W73916   7.213  31.959  10.008
12551W        W73917   3.260   9.202   1.397
12552W        W73918  11.271  37.459  14.366
12553W        W73919   1.261   2.249   3.663
12554W        W73920  11.344  37.352   1.406
12555W        W73921   9.302   9.182   0.435
12556W        W73922  17.123   0.754  14.772
12557W        W73923  40.425  44.009  14.331
12558W        W73924  24.668  21.670   2.794
12559W        W73925  18.094  44.327   3.319
12560W        W73926   9.168   8.326  11.495
12561W        W73927  39.892   0.485  12.080
12562W        W73928  31.589   2.937  13.405
12563W        W73929   9.269  16.634  12.474
12564W        W73930  25.112   9.672   3.728
12565W        W73931  25.600  14.157  10.582
12566W        W73932  15.163  30.921   4.228
12567W        W73933   3.939  29.965  10.582
12568W        W73934  36.546  15.649   2.726
12569W        W73935  12.683  33.080   2.818
12570W        W73936  30.935  39.428   3.160
12571W        W73937  11.823  37.964   0.794
12572W        W73938  38.891  11.631  14.788
12573W        W73939   4.327  32.594   3.836
12574W        W73940   3.237  25.180  14.865
12575W        W73941  29.432  19.157  13.794
12576W        W73942  34.096  23.581  11.563
12577W        W73943   3.774  40.387   1.262
12578W        W73944   9.349   7.213  11.460
12579W        W73945  24.000  11.145   0.454
12580W        W73946  23.586  39.465  11.458
12581W        W73947  39.056  43.420   5.133
12582W        W73948  25.488   6.875   0.374
12583W        W73949  42.443   5.354   1.832
12584W        W73950   7.397   3.726   3.324
12585W        W73951  32.408  15.803   4.777
12586W        W73952  18.217  33.020  13.411
12587W        W73953  15.148  26.572  12.976
12588W        W73954  32.120  30.059  13.906
12589W        W73955  44.814   7.765  13.925
12590W        W73956   9.279  15.597  10.619
12591W        W73957  22.606  28.586  11.515
12592W        W73958  32.888   9.859  13.858
12593W        W73959  11.317  23.118  14.988
12594W        W73960  35.962   9.365  12.886
12595W        W73961  13.156  38.380  12.920
12596W        W73962   0.301  10.311  11.456
12597W        W73963  23.684   5.881  14.471
12598W        W73964  22.097  13.319  13.014
12599W        W73965  29.514   6.856   0.381
12600W        W73966  19.164  42.287   4.677
12601W        W73967   7.308  11.655  11.952
12602W        W73968  29.552  21.227   2.714
12603W        W73969  11.655  25.476   4.221
12604W        W73970  29.581   3.949  10.415
12605W        W73971   5.708  28.982   0.375
12606W        W73972  13.134  44.006  13.864
12607W        W73973  14.679  44.361   0.856
12608W        W73974   8.698  25.619   1.336
12609W        W73975  14.773  32.142  11.955
12610W        W73976  11.371  42.812  11.523
12611W        W73977  36.027  31.613  13.474
12612W        W73978  23.615  15.681   0.444
12613W        W73979  39.983   1.968   4.633
12614W        W73980  26.970  29.110  13.429
12615W        W73981   7.355  37.509   3.284
12616W        W73982  10.820  18.608   4.618
12617W        W73983  27.517  35.090  10.888
12618W        W73984  18.184  22.517   4.701
12619W        W73985  44.884  43.842   4.326
12620W        W73986  36.346  29.967  13.367
12621W        W73987  32.618  11.202  11.862
12622W        W73988  34.477  43.997   3.643
12623W        W73989  16.694  20.135  14.365
12624W        W73990   0.292  19.201  13.047
12625W        W73991  42.293  26.591   4.183
12626W        W73992   3.895  21.201  13.983
12627W        W73993  19.625  43.352   0.899
12628W        W73994  35.877  42.993   2.401
12629W        W73995  25.483  20.673  10.495
12630W        W73996  40.824   4.741  10.027
12631W        W73997   2.915  25.516   3.730
12632W        W73998  34.382  40.381   1.697
12633W        W73999   4.346   0.908  14.281
12634W        W74000  44.907  26.121   3.712
12635W        W74001  27.944   8.297  11.601
12636W        W74002  22.659  10.334  11.949
12637W        W74003  25.589   8.202   4.177
12638W        W74004  27.092  30.566  13.810
12639W        W74005   7.794  44.308  12.428
12640W        W74006  18.064   0.903  13.478
12641W        W74007  43.009   2.898   4.224
12642W        W74008   3.442  31.560   2.316
12643W        W74009  24.983  39.493  14.016
12644W        W74010   7.202  30.080   2.196
12645W        W74011  21.032  42.434  11.413
12646W        W74012  37.467  38.432  12.373
12647W        W74013  24.996  11.807  13.448
12648W        W74014   5.293  17.611  13.371
12649W        W74015  32.425   0.856   4.757
12650W        W74016   9.666   9.184   0.256
12651W        W74017  22.197  41.458  12.357
12652W        W74018  34.922   5.212  12.964
12653W        W74019  34.503  17.611   2.882
12654W        W74020  23.185  39.509  12.376
12655W        W74021   9.299  22.022   0.360
12656W        W74022  33.041   4.366  14.349
12657W        W74023  32.495  25.154  10.411
12658W        W74024  22.740  11.266   2.202
12659W        W74025   0.804  15.161   4.708
12660W        W74026  13.275  14.213   4.679
12661W        W74027  31.538   3.301   1.822
12662W        W74028  27.184  10.235   0.737
12663W        W74029  39.493  26.501  13.816
12664W        W74030  28.932  39.910  14.946
12665W        W74031   1.797  25.537  14.360
12666W        W74032  31.029  11.362   1.892
12667W        W74033  29.158  35.855  11.431
12668W        W74034  16.770   8.249  11.063
12669W        W74035   8.389  39.339  12.454
12670W        W74036  33.573   3.393  11.572
12671W        W74037   6.249  22.533  13.444
12672W        W74038  27.599  17.112   3.791
12673W        W74039  13.719   6.241  13.367
12674W        W74040   5.231  42.991  14.478
12675W        W74041  14.337   4.382   1.320
12676W        W74042  33.620  12.194   3.717
12677W        W74043   9.810   6.352   2.247
12678W        W74044  42.821  17.705   0.858
12679W        W74045  11.142   3.297   4.733
12680W        W74046  42.893   5.206   4.265
12681W        W74047   8.161   4.771  12.863
12682W        W74048  26.652   7.686   1.800
12683W        W74049   7.826  20.184   2.692
12684W        W74050  21.257   3.898   5.690
12685W        W74051  20.533  38.373  14.796
12686W        W74052  19.727   6.715  11.379
12687W        W74053  24.699  12.705  12.561
12688W        W74054  13.832  39.034  13.387
12689W        W74055   9.890   2.339   1.828
12690W        W74056  36.464  41.518   2.241
12691W        W74057  24.230   0.463  10.944
12692W        W74058   1.407  26.493   9.932
12693W        W74059   7.176   6.804  14.359
12694W        W74060   4.875  33.549   2.752
12695W        W74061  19.155   4.441  12.023
12696W        W74062  20.530  28.057  12.826
12697W        W74063  10.781  30.917  14.855
12698W        W74064  30.161   2.793   4.203
12699W        W74065  27.027  40.933  11.416
12700W        W74066  23.071  33.119  11.602
12701W        W74067  39.451  12.236   0.919
12702W        W74068  10.665  29.105   3.175
12703W        W74069  18.762   0.774  14.883
12704W        W74070  39.322  44.904  12.407
12705W        W74071   3.914  36.009   4.312
12706W        W74072  35.402   4.728   1.812
12707W        W74073  38.001  33.446  12.481
12708W        W74074  27.617  27.098  13.042
12709W        W74075  35.596  19.750  13.506
12710W        W74076  33.115  27.040  10.604
12711W        W74077  36.412  14.234   0.387
12712W        W74078  43.393   0.352  12.413
12713W        W74079  26.000  33.548   0.803
12714W        W74080  21.593  19.778   3.757
12715W        W74081  27.021  38.050  11.371
12716W        W74082  24.501  22.661  13.352
12717W        W74083  41.527  13.680   2.878
12718W        W74084  29.551  38.885   2.698
12719W        W74085  44.309  39.326   2.181
12720W        W74086  12.269  40.505  11.046
12721W        W74087  40.355  44.009  10.997
12722W        W74088  11.301  12.209   2.200
12723W        W74089   3.869  31.489   0.343
12724W        W74090   3.885  41.037   1.755
12725W        W74091  39.440  22.161   2.326
12726W        W74092  34.520  29.088   3.307
12727W        W74093   1.836  35.054  13.438
12728W        W74094  12.631  28.549   4.808
12729W        W74095  26.531  29.107  14.986
12730W        W74096  22.109  23.526   2.383
12731W        W74097  35.956  34.883  10.470
12732W        W74098  28.651  12.736   0.765
12733W        W74099  43.826  26.690  11.086
12734W        W74100   8.294  13.196  10.483
12735W        W74101  17.174  23.645   2.192
12736W        W74102   9.818  22.644   2.249
12737W        W74103  29.104  41.908   3.244
12738W        W74104   2.440  34.457  11.099
12739W        W74105  33.050  44.778  13.467
12740W        W74106  40.335  38.445   3.226
12741W        W74107  15.163  38.998   1.395
12742W        W74108   4.364   7.782   2.893
12743W        W74109  32.397   0.747  10.474
12744W        W74110  39.496   2.762   0.817
12745W        W74111  27.027  10.660   3.315
12746W        W74112  12.162  23.669   0.849
12747W        W74113  13.761  14.325  10.121
12748W        W74114  29.111  36.867   3.747
12749W        W74115   7.737  27.641   3.681
12750W        W74116   2.409  12.181   0.745
12751W        W74117  42.380   6.305   4.289
12752W        W74118  14.703  23.577   0.346
12753W        W74119  19.083  28.621   0.394
12754W        W74120  11.861   5.920   2.748
12755W        W74121  33.105  23.616  11.589
12756W        W74122   0.284  15.270   4.290
12757W        W74123  11.774  16.100   1.299
12758W        W74124  40.024   3.287  10.474
12759W        W74125  30.545  42.472  13.881
12760W        W74126  10.813  33.406   0.863
12761W        W74127  25.657  17.180  11.398
12762W        W74128  24.064  43.768   2.866
12763W        W74129  39.455  38.546  13.065
12764W        W74130   7.248  30.935   2.771
12765W        W74131  32.430  30.079   1.397
12766W        W74132   4.804   4.906  12.530
12767W        W74133  44.813  36.490  14.844
12768W        W74134   5.283  40.990   3.868
12769W        W74135  14.283   7.881   1.850
12770W        W74136  18.189   9.794   0.320
12771W        W74137  16.594  39.977  13.935
12772W        W74138  23.212  15.618  14.887
12773W        W74139  10.366  13.301  14.963
12774W        W74140  18.194  14.820  12.555
12775W        W74141  20.543  31.449   1.870
12776W        W74142  23.734   6.812   0.941
12777W        W74143  13.732  15.608   0.776
12778W        W74144  43.797  30.591   9.530
12779W        W74145   3.254  12.117  13.875
12780W        W74146   0.484  27.047   2.728
12781W        W74147   9.328  11.221  14.786
12782W        W74148  32.439  33.029   1.447
12783W        W74149  13.841  17.777  13.894
12784W        W74150  28.470  35.978  12.380
12785W        W74151  12.659  36.905   2.278
12786W        W74152  31.451  44.341   4.349
12787W        W74153  27.052  43.301   1.339
12788W        W74154  42.820  14.189   2.726
12789W        W74155   3.855  29.638  10.918
12790W        W74156  12.738  37.453   1.786
12791W        W74157  18.213  14.151   9.987
12792W        W74158  28.993  16.637   4.736
12793W        W74159   3.949  13.672  10.620
12794W        W74160   8.381  21.111   4.787
12795W        W74161  31.903  19.078   5.632
12796W        W74162   2.890   0.377  11.108
12797W        W74163  23.611  20.612  14.330
12798W        W74164  28.948  29.161  14.390
12799W        W74165  43.018  32.547   0.364
12800W        W74166   8.239  42.819   1.835
12801W        W74167  33.918  10.293  11.978
12802W        W74168  25.637  33.442   0.961
12803W        W74169  29.141  41.393   1.780
12804W        W74170  21.050  15.308   2.211
12805W        W74171  34.441  44.454   5.212
12806W        W74172  20.713  20.658   2.299
12807W        W74173  16.712  20.654   4.263
12808W        W74174  24.119  39.360  13.476
12809W        W74175  13.603  26.600   2.385
12810W        W74176  37.865  40.449  10.072
12811W        W74177  10.161  13.613   1.252
12812W        W74178  18.190  25.010   0.322
12813W        W74179   2.314  22.195  10.475
12814W        W74180  30.043   7.783  13.002
12815W        W74181   3.325  20.126  11.961
12816W        W74182  44.274  14.131  14.016
12817W        W74183  18.613  30.937   1.282
12818W        W74184  11.677  38.987   0.917
12819W        W74185  16.175  27.462   3.846
12820W        W74186  29.458   1.419   4.706
12821W        W74187  25.983  20.142  10.889
12822W        W74188  10.316  27.084  11.997
12823W        W74189  34.873   7.751   4.788
12824W        W74190  36.841  19.270   0.287
12825W        W74191   4.393   5.758   3.850
12826W        W74192  33.051  44.437  12.376
12827W        W74193  33.602  16.608  10.641
12828W        W74194   2.728   3.783  14.837
12829W        W74195   0.343  25.561  10.558
12830W        W74196  26.057  11.312  10.642
12831W        W74197   4.761  28.946  14.310
12832W        W74198   1.758   1.913  13.960
12833W        W74199  44.837   4.725   9.961
12834W        W74200   0.312  32.551   2.891
12835W        W74201  33.602   0.773  11.103
12836W        W74202  26.676   2.305  13.979
12837W        W74203   1.959  36.491   4.341
12838W        W74204   6.366  22.746   4.283
12839W        W74205  43.300  10.220   9.991
12840W        W74206  39.369  22.668   3.854
12841W        W74207   7.190  21.598   1.893
12842W        W74208  21.539   8.339   4.285
12843W        W74209   9.857  36.879   1.805
12844W        W74210   0.358   3.379  14.807
12845W        W74211   4.843  40.368  14.308
12846W        W74212  26.578  22.680   5.232
12847W        W74213  23.577  14.625  13.823
12848W        W74214  27.120  26.514   2.209
12849W        W74215  30.495  11.628   3.349
12850W        W74216  36.561  39.058  11.897
12851W        W74217  29.592  34.970  14.960
12852W        W74218   4.853  36.448  12.442
12853W        W74219  37.523  17.153  11.375
12854W        W74220  27.163  28.455  13.955
12855W        W74221  21.255  41.362  12.481
12856W        W74222  21.652  36.445  12.534
12857W        W74223  22.566   0.257   3.672
12858W        W74224  39.386  40.968   0.747
12859W        W74225  42.304  16.286   4.207
12860W        W74226   2.237  16.640   2.362
12861W        W74227  32.540  19.756  11.959
12862W        W74228   1.887  30.046   3.240
12863W        W74229  35.398  20.089   0.260
12864W        W74230  22.704  38.342  13.480
12865W        W74231  28.459  35.982   2.669
12866W        W74232  18.055   1.289   0.349
12867W        W74233  40.422  23.131  13.319
12868W        W74234  14.320  40.428   0.437
12869W        W74235  43.835  43.838  13.960
12870W        W74236   2.780  18.651   4.717
12871W        W74237  30.994  22.024   0.764
12872W        W74238  25.202   5.828   0.834
12873W        W74239  39.344  14.121   0.829
12874W        W74240  28.937  32.913   4.321
12875W        W74241  43.971  21.614   3.665
12876W        W74242  29.458  12.176  12.837
12877W        W74243   2.861  12.218   4.344
12878W        W74244  26.515   2.838   3.336
12879W        W74245  26.194  36.005  14.851
12880W        W74246   5.196   8.659  11.093
12881W        W74247  34.898   9.263  11.091
12882W        W74248   4.225   8.182  10.553
12883W        W74249  27.067  13.719  11.500
12884W        W74250  36.571  35.449   2.226
12885W        W74251  18.278  18.713  11.554
12886W        W74252  12.133  25.547   3.767
12887W        W74253   4.902   5.832   0.279
12888W        W74254  24.539  14.234  13.888
12889W        W74255   1.734  43.390   2.241
12890W        W74256   1.308  27.180   2.193
12891W        W74257  29.506   7.364  12.454
12892W        W74258  12.776   0.342   1.307
12893W        W74259  38.041  19.146   1.930
12894W        W74260  21.027   7.289  12.999
12895W        W74261  14.121   9.755   4.168
12896W        W74262  32.531  36.990   0.387
12897W        W74263  12.143  20.194   3.697
12898W        W74264   0.287  12.734   3.261
12899W        W74265  40.400   9.873  10.944
12900W        W74266  33.972   8.768  13.445
12901W        W74267  21.123  18.634   0.352
12902W        W74268  21.522  17.622   1.359
12903W        W74269  19.204  31.920   1.768
12904W        W74270  24.536   8.268  12.543
12905W        W74271  44.375  36.870  13.792
12906W        W74272  22.118   8.826  14.447
12907W        W74273   7.841  27.095  14.413
12908W        W74274  35.452  16.281  10.490
12909W        W74275  27.164   2.775   9.613
12910W        W74276  43.021  10.852  12.541
12911W        W74277  14.729  24.662  13.857
12912W        W74278  13.625  38.852   4.137
12913W        W74279  17.794  21.034  11.528
12914W        W74280  27.529  43.939   0.359
12915W        W74281  17.743  27.970  14.284
12916W        W74282   1.956  37.514   3.677
12917W        W74283  34.075  43.442   2.863
12918W        W74284  35.409  34.930   1.906
12919W        W74285  17.219  33.508   1.860
12920W        W74286   7.199  16.581  14.278
12921W        W74287  42.902  30.625   3.236
12922W        W74288  34.103   5.711  12.077
12923W        W74289  37.457  13.683  13.031
12924W        W74290  33.048  28.493  11.026
12925W        W74291  31.480   6.355   3.298
12926W        W74292  35.996  28.946  14.766
12927W        W74293  29.534   7.398   4.206
12928W        W74294  10.369  11.272  11.883
12929W        W74295  25.031  10.254   4.269
12930W        W74296  33.601   3.901  12.572
12931W        W74297  28.639  34.573   1.221
12932W        W74298  25.081  10.637   2.392
12933W        W74299  41.483  15.140   0.955
12934W        W74300   3.779  23.644  12.937
12935W        W74301  18.604  16.588   1.748
12936W        W74302   7.215  36.070  11.944
12937W        W74303  44.426  39.480   0.817
12938W        W74304  18.714  34.090  11.916
12939W        W74305  32.526  14.620  10.495
12940W        W74306  43.991  17.091   0.898
12941W        W74307  19.139  39.369  14.409
12942W        W74308   6.813  31.523   3.842
12943W        W74309   4.312  24.047   3.247
12944W        W74310  12.686  31.135   1.259
12945W        W74311  28.006  27.025  13.891
12946W        W74312  30.150  11.682  11.099
12947W        W74313  42.907   9.266   1.327
12948W        W74314  43.374  27.685   4.156
12949W        W74315   8.832  10.197  11.081
12950W        W74316  43.957   1.968  14.314
12951W        W74317   1.944   2.374  14.359
12952W        W74318  36.373  13.759   3.824
12953W        W74319  13.649  32.137  12.472
12954W        W74320  27.685   9.245  14.776
12955W        W74321  19.724  22.666   1.364
12956W        W74322  31.901  27.968   1.746
12957W        W74323  25.983  42.469  12.386
12958W        W74324  19.641  44.007   3.641
12959W        W74325  35.970  12.797   1.379
12960W        W74326  32.549  41.850   4.684
12961W        W74327   3.269  40.479  12.938
12962W        W74328  34.017  20.038  14.465
12963W        W74329  26.503  18.585  13.432
12964W        W74330  28.169   9.302   2.277
12965W        W74331  38.904   1.341  12.015
12966W        W74332   5.344   1.880   2.262
12967W        W74333   1.835  17.783  11.597
12968W        W74334  19.720  10.846   3.323
12969W        W74335  32.632   8.720  13.876
12970W        W74336   1.238   6.811  11.457
12971W        W74337   7.400  14.321   0.354
12972W        W74338  30.616   0.344   3.849
12973W        W74339  43.374  31.591   1.284
12974W        W74340  39.496  22.542  11.396
12975W        W74341  44.316  39.841   3.259
12976W        W74342  40.404  36.888  13.810
12977W        W74343  10.841  20.722  14.767
12978W        W74344  32.031   9.653  10.589
12979W        W74345  35.095  12.841   3.671
12980W        W74346   8.312  13.280   0.883
12981W        W74347  39.345  31.538  10.947
12982W        W74348  25.588  14.749  14.433
12983W        W74349  35.943  42.000   3.655
12984W        W74350  30.444  15.814   9.968
12985W        W74351  34.485   7.248   3.751
12986W        W74352  44.315  17.209  10.943
12987W        W74353  43.431   2.904   4.127
12988W        W74354  34.998  43.800  13.912
12989W        W74355   0.450  20.099   2.694
12990W        W74356  10.219  15.279  10.547
12991W        W74357  25.699  13.647  14.514
12992W        W74358  16.162  31.598   1.730
12993W        W74359  30.578  42.411  11.989
12994W        W74360  36.068   4.422   1.248
12995W        W74361  16.721  44.911  12.983
12996W        W74362   9.275  44.961   1.426
12997W        W74363  31.035   6.253   3.243
12998W        W74364  32.118  43.490  14.782
12999W        W74365  36.490  14.729   1.291
13000W        W74366  17.074  32.404   3.826
13001W        W74367  36.967  30.147   2.733
13002W        W74368  25.591  21.639  11.000
13003W        W74369   5.415  41.861  13.036
13004W        W74370  17.307   7.313   9.927
13005W        W74371  29.137  42.515  10.972
13006W        W74372  17.558  22.157   4.733
13007W        W74373  10.334   8.389  10.564
13008W        W74374  23.544  23.158  11.110
13009W        W74375  22.095  12.692  13.975
13010W        W74376  29.626  37.928  14.981
13011W        W74377  13.192   6.340  12.381
13012W        W74378   2.356  26.053  12.019
13013W        W74379  12.156  43.311   2.389
13014W        W74380  16.086  10.806  14.341
13015W        W74381  26.132  11.653  14.870
13016W        W74382  36.028   9.210  13.377
13017W        W74383   8.181  32.535  13.539
13018W        W74384  26.625   9.321   2.683
13019W        W74385  15.103   3.932   3.670
13020W        W74386   0.494   6.734  13.407
13021W        W74387  16.279  34.433  13.393
13022W        W74388  17.198  19.645  14.504
13023W        W74389  18.157  24.596   4.351
13024W        W74390  35.532  30.560   4.194
13025W        W74391  16.296  31.613   0.879
13026W        W74392  37.872   8.398  10.535
13027W        W74393   2.364  28.456   2.672
13028W        W74394   4.222   0.460   0.338
13029W        W74395   6.708  12.839   0.336
13030W        W74396  37.989  34.039  13.401
13031W        W74397  23.539  30.655   1.437
13032W        W74398  39.031   7.673  10.623
13033W        W74399   3.845  37.068  10.599
13034W        W74400  39.995   4.336   3.642
13035W        W74401  35.593  26.506  12.345
13036W        W74402   4.425  26.153  12.440
13037W        W74403  10.639  34.119  11.468
13038W        W74404  21.564   2.375  13.480
13039W        W74405  12.708  10.711  13.500
13040W        W74406  27.527  10.205   3.858
13041W        W74407  39.362  15.104   4.786
13042W        W74408  38.352  44.395  12.566
13043W        W74409   2.353  10.195   3.370
13044W        W74410  44.972  21.671   1.297
13045W        W74411  35.468  25.580  11.529
13046W        W74412  21.067  19.582  13.416
13047W        W74413  42.368   8.388   3.636
13048W        W74414  16.083   6.764   1.857
13049W        W74415  33.089  33.023   2.361
13050W        W74416  34.892  41.514   3.168
13051W        W74417   1.822  27.466   1.703
13052W        W74418  32.454  26.157  12.578
13053W        W74419  12.656  23.089  13.838
13054W        W74420  20.088  11.697   0.940
13055W        W74421  29.960  39.870   0.966
13056W        W74422  30.461  17.704  13.516
13057W        W74423   0.930  14.721   1.240
13058W        W74424   7.901   6.730  10.980
13059W        W74425  20.597  31.074  13.821
13060W        W74426  25.482  34.596   5.314
13061W        W74427  39.862  15.638  13.391
13062W        W74428  20.029   8.331   4.176
13063W        W74429  22.512   8.762   3.332
13064W        W74430  38.055   4.225   1.868
13065W        W74431  35.423  40.919  12.521
13066W        W74432  11.650   8.752  11.506
13067W        W74433   4.224  23.703  14.383
13068W        W74434  10.334  25.615   1.707
13069W        W74435   6.237  30.447   1.739
13070W        W74436   0.462  10.693   2.820
13071W        W74437  39.894  23.135  12.373
13072W        W74438  38.895   6.746   3.315
13073W        W74439  19.177  30.076  13.309
13074W        W74440  25.668  34.114  13.973
13075W        W74441   9.643  23.154   1.410
13076W        W74442  40.008   1.843  10.416
13077W        W74443  44.466  10.356   3.670
13078W        W74444  23.545  26.540   2.299
13079W        W74445  18.232   2.392   2.230
13080W        W74446  19.594  30.093   3.190
13081W        W74447  30.109  40.944   4.671
13082W        W74448   5.853  10.857   0.940
13083W        W74449  14.153   8.840  12.973
13084W        W74450  12.628  30.574  12.962
13085W        W74451  40.860  36.389   3.682
13086W        W74452  22.576   9.734   3.629
13087W        W74453   6.911  22.598  10.592
13088W        W74454  24.486   7.376   4.767
13089W        W74455  16.593   9.786   0.327
13090W        W74456  33.051  24.102   0.760
13091W        W74457  30.071  25.519  10.481
13092W        W74458   7.171  25.013  11.957
13093W        W74459  18.757  44.317  13.410
13094W        W74460  16.658  14.170  12.019
13095W        W74461  22.146  38.442  11.097
13096W        W74462  37.039   1.897   4.152
13097W        W74463   1.424  44.428   3.838
13098W        W74464  24.556  29.516   0.424
13099W        W74465  33.580  10.201   4.298
13100W        W74466  28.167   3.368  11.918
13101W        W74467  31.591  36.046  14.329
13102W        W74468  22.212  22.076  10.455
13103W        W74469  30.538  20.087  14.400
13104W        W74470  42.800  39.971  14.298
13105W        W74471  22.216  21.210   3.646
13106W        W74472  35.101  35.055  10.035
13107W        W74473   7.302  19.692  13.058
13108W        W74474  41.980  27.456  13.483
13109W        W74475  15.234  28.632   2.381
13110W        W74476  44.798   4.404   1.366
13111W        W74477   5.804   9.775  10.893
13112W        W74478  11.649   1.886   0.901
13113W        W74479  38.423  40.041  12.534
13114W        W74480   0.395  12.181  12.932
13115W        W74481  16.598   9.273   0.370
13116W        W74482   9.235  15.117   2.244
13117W        W74483  10.195  32.980  11.510
13118W        W74484   6.335  31.573  11.441
13119W        W74485  12.699  20.549  12.981
13120W        W74486  42.352  21.188   2.696
13121W        W74487  32.008  40.460  12.382
13122W        W74488  19.198  39.402  10.434
13123W        W74489  40.372  11.853  11.401
13124W        W74490  17.584  35.406   0.766
13125W        W74491   9.683  34.543  11.064
13126W        W74492  36.053  34.388   1.234
13127W        W74493  39.483  19.176  13.428
13128W        W74494  39.467  11.804  11.913
13129W        W74495  42.332  20.548   3.831
13130W        W74496  26.199   3.781  13.949
13131W        W74497  26.195  34.449  13.429
13132W        W74498  17.120  15.821  14.911
13133W        W74499  11.222  19.707  11.887
13134W        W74500  40.815  29.459  12.072
13135W        W74501  22.680  39.893  12.059
13136W        W74502  41.945  10.787   1.843
13137W        W74503  13.765  15.208   1.694
13138W        W74504  10.161  33.516  12.487
13139W        W74505  30.635  25.068   3.157
13140W        W74506  33.003  23.095  13.843
13141W        W74507  39.410  36.893  10.584
13142W        W74508  29.519  25.518   4.236
13143W        W74509  11.756   4.240   1.719
13144W        W74510  42.994  16.171  10.474
13145W        W74511  16.648  11.702  13.846
13146W        W74512  22.664   1.857   2.737
13147W        W74513   0.768  17.756  14.844
13148W        W74514  42.987   6.737   1.434
13149W        W74515  10.753  23.587   1.903
13150W        W74516   5.832   1.942  13.806
13151W        W74517   1.832  19.639  12.048
13152W        W74518  21.026  26.075   2.340
13153W        W74519   4.408  35.593  11.495
13154W        W74520  19.091  22.157   4.601
13155W        W74521  19.615  33.433   4.775
13156W        W74522  11.271  30.442   2.186
13157W        W74523   2.414  41.000   0.855
13158W        W74524  15.756  39.014   3.847
13159W        W74525  20.102  42.350   1.717
13160W        W74526   3.363  16.275   3.674
13161W        W74527  23.198  40.034  13.525
13162W        W74528  40.001  20.594  12.931
13163W        W74529  13.129   9.203   1.783
13164W        W74530  39.010  12.297   3.631
13165W        W74531  33.875  28.056  12.522
13166W        W74532  28.113   0.892   5.271
13167W        W74533   8.759   2.777   1.902
13168W        W74534  21.539  18.629   0.285
13169W        W74535  33.011   8.773   2.665
13170W        W74536  44.363  35.939   0.953
13171W        W74537  35.427   5.797  10.463
13172W        W74538  44.808  39.908  13.485
13173W        W74539   9.153  34.520  13.478
13174W        W74540  44.426   0.945   0.860
13175W        W74541  44.914  24.205  10.505
13176W        W74542   5.271  33.038   4.735
13177W        W74543  24.706   8.311   3.725
13178W        W74544  17.693  21.707  11.918
13179W        W74545  37.340  31.014  14.441
13180W        W74546  11.320  38.870  14.462
13181W        W74547  44.829  40.347   0.744
13182W        W74548  41.882  33.010   4.264
13183W        W74549   7.799  38.944   1.345
13184W        W74550   4.825  27.141  12.579
13185W        W74551  30.473  22.107  10.054
13186W        W74552  30.930  16.274   3.259
13187W        W74553   3.818  36.569  13.523
13188W        W74554  23.714  27.454   2.830
13189W        W74555  20.674   5.429  10.906
13190W        W74556  40.961  19.261  14.821
13191W        W74557  21.238  27.491  14.470
13192W        W74558  17.171  11.693  14.304
13193W        W74559  26.475  23.583  14.820
13194W        W74560  12.681  26.994  14.008
13195W        W74561  22.076  33.000  13.796
13196W        W74562  20.737  31.042  13.437
13197W        W74563  11.833   1.282   1.403
13198W        W74564  29.065  21.187  11.047
13199W        W74565  28.554  25.036  14.775
13200W        W74566  44.975  16.612   1.388
13201W        W74567   2.346   3.321   0.389
13202W        W74568  22.640  37.398   0.855
13203W        W74569  19.078  25.154  13.054
13204W        W74570  43.784   7.291   4.763
13205W        W74571  35.100  19.635   0.909
13206W        W74572  34.896  29.026  10.433
13207W        W74573  21.049   9.385  14.967
13208W        W74574  41.927  11.203  11.026
13209W        W74575  30.472  11.727   4.798
13210W        W74576  40.846  10.745  14.299
13211W        W74577  24.052  34.383  13.031
13212W        W74578  44.418  18.784  13.043
13213W        W74579  23.002  37.372   1.221
13214W        W74580  40.311  26.586  12.916
13215W        W74581  10.270   5.859  11.118
13216W        W74582  25.156  30.468   0.923
13217W        W74583   7.777  44.414  10.033
13218W        W74584  36.467  35.495  14.831
13219W        W74585  22.631  41.933   3.647
13220W        W74586  37.355  14.725  10.919
13221W        W74587   8.367  27.165  12.896
13222W        W74588   5.868  18.705   1.920
13223W        W74589   5.756   3.774  12.520
13224W        W74590   0.277   9.772  11.082
13225W        W74591  40.413  25.610  13.375
13226W        W74592  10.668  30.097   1.834
13227W        W74593  32.085   7.889   1.332
13228W        W74594   0.754   5.933  11.416
13229W        W74595  12.621  44.331   4.185
13230W        W74596  16.082  30.161   1.415
13231W        W74597  13.346  20.264  10.935
13232W        W74598  30.413  30.492  14.849
13233W        W74599  29.467  44.855   1.318
13234W        W74600  44.400  14.207  12.970
13235W        W74601  12.813  23.608   0.854
13236W        W74602  11.846   7.725  13.985
13237W        W74603  18.234  29.433  11.371
13238W        W74604  37.014   4.930  14.876
13239W        W74605  19.652  23.138   0.829
13240W        W74606  44.455  43.907   3.738
13241W        W74607   6.901  37.570  12.902
13242W        W74608  14.772  36.097   4.324
13243W        W74609  27.032  23.228  12.944
13244W        W74610  10.234  30.588   2.691
13245W        W74611  40.837  29.006   1.932
13246W        W74612   8.792   9.810  14.378
13247W        W74613  12.826  37.043   2.895
13248W        W74614  23.139  25.695   1.836
13249W        W74615  43.481  21.183  14.419
13250W        W74616  10.705  19.731   1.740
13251W        W74617   1.387   6.333   1.274
13252W        W74618   7.703  36.472   0.296
13253W        W74619  37.065  11.751   1.759
13254W        W74620  29.554   0.815  12.412
13255W        W74621  13.643  34.990   3.783
13256W        W74622   8.756  19.074   4.818
13257W        W74623  38.035  43.283  13.061
13258W        W74624   7.761   9.742  13.422
13259W        W74625   7.171  20.684   2.757
13260W        W74626   9.707  43.805   0.773
13261W        W74627  12.186  25.630   1.383
13262W        W74628   4.835  33.958   2.763
13263W        W74629  27.074   5.876   0.898
13264W        W74630   0.787  35.483   4.673
13265W        W74631   9.870  29.537   2.191
13266W        W74632   5.911  12.766  12.001
13267W        W74633  29.577   2.815  12.993
13268W        W74634  12.721  26.512  10.486
13269W        W74635  34.386  41.040  13.339
13270W        W74636  21.236   1.409  13.307
13271W        W74637  23.998   5.269   1.273
13272W        W74638   2.366  39.517   0.262
13273W        W74639  39.557   4.438   1.438
13274W        W74640  38.076  10.329  11.455
13275W        W74641  39.928  24.627  12.942
13276W        W74642   5.366  36.538  14.415
13277W        W74643  30.521   7.416   4.127
13278W        W74644   3.294  41.850  13.489
13279W        W74645  37.007  40.932   5.268
13280W        W74646  17.736  10.192   2.192
13281W        W74647  29.074  39.414   1.908
13282W        W74648  25.509  37.352  11.906
13283W        W74649  31.476  30.005  14.452
13284W        W74650  41.397   2.825   3.162
13285W        W74651  41.818  24.506   4.189
13286W        W74652  15.625  11.695   3.346
13287W        W74653  32.886  23.651  12.044
13288W        W74654  28.934   7.726   4.628
13289W        W74655  40.965  25.202  12.526
13290W        W74656   3.806  37.837  12.545
13291W        W74657   7.900  20.693  11.582
13292W        W74658  20.266  35.959  14.364
13293W        W74659  33.565  18.185  11.006
13294W        W74660  15.767  42.947   1.812
13295W        W74661  13.713  18.646  14.445
13296W        W74662  38.375  13.820   3.384
13297W        W74663  16.642  38.004   1.336
13298W        W74664  35.896  34.530  11.103
13299W        W74665  19.078   5.292  11.034
13300W        W74666  10.329  15.271   3.344
13301W        W74667  35.882  21.103  12.860
13302W        W74668   3.743  33.388  11.017
13303W        W74669  36.470  26.979  14.276
13304W        W74670  21.055  39.810   1.845
13305W        W74671   2.274   2.820   3.733
13306W        W74672  19.232  43.862   1.281
13307W        W74673  40.451  31.115  10.533
13308W        W74674  30.517   6.838   1.367
13309W        W74675  30.511  38.369   1.258
13310W        W74676   1.955  23.718  10.532
13311W        W74677   2.391  32.484  14.391
13312W        W74678   3.864   7.351  14.282
13313W        W74679  14.096   2.273  13.336
13314W        W74680  29.052  22.703  14.338
13315W        W74681  25.034  35.389   5.254
13316W        W74682  42.325   0.791   0.869
13317W        W74683   1.779  42.958  13.993
13318W        W74684  27.003   5.342  14.396
13319W        W74685  23.592   4.446   1.877
13320W        W74686  37.854  31.911   2.854
13321W        W74687  42.890  16.665  11.603
13322W        W74688   0.919  14.762   2.872
13323W        W74689  25.551  22.039   0.470
13324W        W74690  32.094  23.131  10.893
13325W        W74691  44.918  30.649   2.823
13326W        W74692  12.150   2.917  10.926
13327W        W74693  44.487  40.986   2.203
13328W        W74694  43.509   5.718  12.833
13329W        W74695  13.138  12.762  12.944
13330W        W74696  11.686  17.084   2.405
13331W        W74697   5.258  38.380  14.902
13332W        W74698  29.512  12.840   0.960
13333W        W74699  21.551  17.592   4.145
13334W        W74700  22.532   0.366  12.960
13335W        W74701  21.108  34.107   2.776
13336W        W74702  42.438  12.830  11.906
13337W        W74703  22.662  12.209   1.793
13338W        W74704  31.413   5.698  14.333
13339W        W74705  11.175  33.550  10.610
13340W        W74706  12.200   2.421   2.718
13341W        W74707  21.208  41.968  12.357
13342W        W74708   3.928  43.004  10.133
13343W        W74709   7.910  33.505   2.736
13344W        W74710  42.406  24.038   4.832
13345W        W74711   6.256  26.985  12.444
13346W        W74712   8.372  25.572  13.965
13347W        W74713   3.855   8.246  13.377
13348W        W74714  38.007   0.911   4.834
13349W        W74715  20.644  17.224   1.929
13350W        W74716   6.695   6.794   4.190
13351W        W74717  19.069  36.040  14.805
13352W        W74718  43.898  14.818   3.316
13353W        W74719  28.000   8.748   3.637
13354W        W74720  39.980  43.307  13.346
13355W        W74721  21.084  18.062   0.362
13356W        W74722  33.931  26.002   4.132
13357W        W74723  31.017  23.639   3.380
13358W        W74724  22.032  15.648  12.348
13359W        W74725  14.632  23.233  10.458
13360W        W74726  28.443  42.464  13.943
13361W        W74727  42.006  24.579   1.926
13362W        W74728  13.655  26.004  13.994
13363W        W74729  15.640  39.418   3.170
13364W        W74730   9.369  34.947  11.471
13365W        W74731  11.239  23.676   3.199
13366W        W74732  21.619  29.648  12.096
13367W        W74733  25.995  24.027   1.450
13368W        W74734   2.469   9.755  10.507
13369W        W74735   9.231  20.630  12.078
13370W        W74736  30.492  30.106   2.237
13371W        W74737  25.496  40.045   1.294
13372W        W74738  16.105  39.549   1.919
13373W        W74739  28.502  22.607   2.817
13374W        W74740  21.116   0.902   1.329
13375W        W74741  21.194  41.317   3.384
13376W        W74742  17.632  23.013   2.396
13377W        W74743   2.239   7.324   3.209
13378W        W74744   8.875   4.287   3.262
13379W        W74745  32.963   3.270   4.597
13380W        W74746   9.194  35.487  12.537
13381W        W74747  26.517  32.123  11.478
13382W        W74748  21.701   8.829   0.883
13383W        W74749   7.668   2.944   3.373
13384W        W74750  28.949   9.240   4.736
13385W        W74751  44.936  14.663  11.026
13386W        W74752   3.891  19.750  11.444
13387W        W74753  12.222  34.062  10.491
13388W        W74754  16.650  12.764   2.668
13389W        W74755   9.158  41.803   2.414
13390W        W74756  36.965  23.128   3.760
13391W        W74757   7.234   6.331   0.903
13392W        W74758  18.127   8.273  12.034
13393W        W74759  16.258  31.114  14.387
13394W        W74760  12.703   0.986  13.973
13395W        W74761  40.434  15.150  11.377
13396W        W74762   8.783  23.988  12.436
13397W        W74763   3.366  35.081   0.346
13398W        W74764  23.097  11.222  12.361
13399W        W74765  32.503  21.714  11.086
13400W        W74766  32.418  25.035  14.898
13401W        W74767  16.782  38.540  10.978
13402W        W74768   1.273  44.956   2.792
13403W        W74769  24.226   3.712   3.317
13404W        W74770  35.904  34.385   2.710
13405W        W74771  11.778  25.638  14.305
13406W        W74772  37.481   6.887   1.917
13407W        W74773  27.451  16.109   3.730
13408W        W74774   7.191  34.511  10.488
13409W        W74775  32.900  29.582   2.348
13410W        W74776   2.822  12.286   3.173
13411W        W74777   2.272  10.638  13.793
13412W        W74778  39.553  13.772  12.993
13413W        W74779   8.392  34.906  13.986
13414W        W74780   4.926   3.232   1.417
13415W        W74781  27.032  23.021  13.985
13416W        W74782  21.058  44.346  13.993
13417W        W74783  26.588   2.237  13.024
13418W        W74784  32.636  16.674  11.964
13419W        W74785   9.191   2.905   3.634
13420W        W74786  36.938  37.483   4.270
13421W        W74787   0.305  35.095  14.301
13422W        W74788  23.171  12.292  11.373
13423W        W74789   8.861  34.015   3.249
13424W        W74790  44.349   1.883   1.342
13425W        W74791  34.112  13.219  10.430
13426W        W74792  17.200   8.766   0.256
13427W        W74793  28.936   1.318   2.282
13428W        W74794  31.023  13.288  13.327
13429W        W74795  30.559  25.080  11.911
13430W        W74796   0.284  13.700  13.873
13431W        W74797  12.857  27.068   3.838
13432W        W74798   0.941  38.928  12.048
13433W        W74799  29.452  15.227  12.578
13434W        W74800  27.481  38.428  13.950
13435W        W74801  32.139  27.527   4.220
13436W        W74802  37.030  13.691   1.738
13437W        W74803  26.079  12.136  12.482
13438W        W74804  16.606  29.567   4.222
13439W        W74805  26.536  39.533   2.205
13440W        W74806  17.180  23.989   3.339
13441W        W74807  32.024  44.371   0.937
13442W        W74808  27.477  30.453  10.569
13443W        W74809  36.487  17.279   4.780
13444W        W74810  36.093  11.186   2.741
13445W        W74811   5.708  23.030  11.909
13446W        W74812  38.900   3.906   4.132
13447W        W74813  43.985  24.106  12.012
13448W        W74814   0.815  12.615   4.674
13449W        W74815   7.244  31.045  11.583
13450W        W74816  29.603  30.594   0.921
13451W        W74817  21.072  10.179   0.397
13452W        W74818  30.917  41.479  11.861
13453W        W74819  33.617  23.621   9.923
13454W        W74820  28.126  35.407  14.796
13455W        W74821  28.467  14.158  13.463
13456W        W74822  10.371   2.876   0.385
13457W        W74823   4.356  13.136  12.454
13458W        W74824  37.517  10.749  10.458
13459W        W74825  14.204   5.411  14.383
13460W        W74826  29.498  23.089  11.069
13461W        W74827   5.351  20.078   4.297
13462W        W74828  27.678  12.759  10.559
13463W        W74829   7.872   8.859  11.081
13464W        W74830  23.051   5.689   0.828
13465W        W74831  10.179  33.902  11.007
13466W        W74832   7.677  22.653   2.692
13467W        W74833   8.764  21.090   2.764
13468W        W74834  43.805  39.431  10.969
13469W        W74835  38.037  27.452  11.018
13470W        W74836  44.797   2.918   3.800
13471W        W74837  29.446   5.376  11.433
13472W        W74838  20.585  29.076  12.350
13473W        W74839  42.354  26.479  11.567
13474W        W74840  16.100   9.727   0.894
13475W        W74841  36.907   5.291  12.578
13476W        W74842  43.336  37.359   2.365
13477W        W74843  12.835  30.519  14.376
13478W        W74844  39.423  10.371   0.445
13479W        W74845  22.648   9.233  13.358
13480W        W74846  35.923  39.476  14.931
13481W        W74847  29.104  16.690  12.359
13482W        W74848  33.501  23.549   0.340
13483W        W74849  40.435   1.824   2.770
13484W        W74850  15.322  35.420  14.321
13485W        W74851  15.710   6.248   3.853
13486W        W74852  41.466   5.857  13.019
13487W        W74853   0.883  24.083   0.275
13488W        W74854  22.060   5.783   3.231
13489W        W74855  23.527  40.912  12.001
13490W        W74856  27.547  14.601  10.442
13491W        W74857  43.296   1.463   2.371
13492W        W74858  24.115  18.670   3.656
13493W        W74859  19.774  32.084   0.957
13494W        W74860  11.215  16.242   4.798
13495W        W74861  13.829  14.696   3.278
13496W        W74862  16.790  24.094  13.340
13497W        W74863  28.108  15.665   0.282
13498W        W74864  30.928   3.458  11.017
13499W        W74865  28.470  22.735  12.385
13500W        W74866  18.603  13.766  13.957
13501W        W74867  14.147  34.966   4.186
13502W        W74868  25.571  10.178  13.860
13503W        W74869  41.933  22.111  14.412
13504W        W74870  27.505   3.714  12.557
13505W        W74871   8.196  40.426   0.315
13506W        W74872  36.004  10.713  12.998
13507W        W74873  22.606  20.174  14.865
13508W        W74874  43.781   6.326   4.617
13509W        W74875  11.287  37.964  14.903
13510W        W74876  30.562   9.822   0.417
13511W        W74877  39.063  11.795  12.027
13512W        W74878  15.579   3.378  14.416
13513W        W74879   2.272   3.853   3.719
13514W        W74880  21.639   0.466   2.272
13515W        W74881  17.727  29.936  11.901
13516W        W74882   3.326  13.724  13.918
13517W        W74883  19.207  22.712   4.209
13518W        W74884  20.195   7.183  10.539
13519W        W74885  16.602  40.013   3.295
13520W        W74886  30.424   2.369  11.912
13521W        W74887  33.511  37.971  11.123
13522W        W74888  36.918  17.663   0.475
13523W        W74889  27.182  13.618   4.194
13524W        W74890  26.498  29.601  13.320
13525W        W74891  32.915  33.997  14.369
13526W        W74892  38.569  30.924   0.767
13527W        W74893  34.555  27.043  11.084
13528W        W74894  42.285   7.894  11.612
13529W        W74895   5.396  33.451  13.379
13530W        W74896   8.255  44.427   3.666
13531W        W74897   1.760  29.988  11.419
13532W        W74898  13.787  41.855  13.903
13533W        W74899  26.539  29.149  11.874
13534W        W74900  17.161  44.763  14.376
13535W        W74901  43.285  37.403  14.438
13536W        W74902  25.125  11.685  10.900
13537W        W74903   6.299  13.112   2.824
13538W        W74904  24.209  29.630   3.640
13539W        W74905  36.366  16.627  10.621
13540W        W74906  40.049  16.210  12.068
13541W        W74907  32.949   1.324   4.268
13542W        W74908  28.650  10.155  12.826
13543W        W74909  35.075  40.874   0.435
13544W        W74910  35.603  44.290   2.894
13545W        W74911  32.981   3.432   3.219
13546W        W74912   3.264  23.677   2.408
13547W        W74913   9.197  28.655   1.814
13548W        W74914  40.054  19.734   2.340
13549W        W74915  15.119  31.443  10.601
13550W        W74916   3.863   9.221  11.378
13551W        W74917  25.976  16.576   1.354
13552W        W74918  44.440   9.821   2.332
13553W        W74919  20.150  11.327  12.018
13554W        W74920   1.287  38.950   4.206
13555W        W74921  12.837  17.163  10.608
13556W        W74922  40.455  41.456   0.437
13557W        W74923   7.188   7.257   0.835
13558W        W74924  22.036  16.707  14.010
13559W        W74925  23.074  40.894   3.642
13560W        W74926   2.357   9.216   3.265
13561W        W74927   0.336  31.018  11.072
13562W        W74928  13.182  11.154   0.821
13563W        W74929  21.202   3.911   5.279
13564W        W74930  43.950  12.161   0.373
13565W        W74931  39.913  38.407   3.182
13566W        W74932  16.303  11.816  14.325
13567W        W74933  29.033  13.268   1.399
13568W        W74934  15.724  13.832  14.395
13569W        W74935  16.236  17.207  13.406
13570W        W74936  35.058  24.149   1.889
13571W        W74937  16.627   7.774   4.206
13572W        W74938   4.372  29.615   2.845
13573W        W74939  13.196  28.026   4.824
13574W        W74940  11.230  32.116  10.419
13575W        W74941  25.124  15.202  14.511
13576W        W74942  16.714   3.374  14.931
13577W        W74943  20.089  18.211  12.924
13578W        W74944  31.519   9.286  14.934
13579W        W74945  14.262   0.366  13.027
13580W        W74946  15.207  33.913  14.302
13581W        W74947   7.239  32.001  12.366
13582W        W74948   2.273  13.761   1.371
13583W        W74949  34.372  36.434   1.878
13584W        W74950  14.190   3.938  14.914
13585W        W74951  10.165  19.262   1.353
13586W        W74952  14.265   2.778   2.387
13587W        W74953   9.276  38.866   1.322
13588W        W74954  26.107   9.279  10.549
13589W        W74955  27.175  12.230  14.391
13590W        W74956   1.449   9.734   2.314
13591W        W74957  43.820  41.515   0.934
13592W        W74958  25.060  25.996   1.382
13593W        W74959  34.951   4.320  10.561
13594W        W74960  20.677  19.270  11.021
13595W        W74961  18.202  18.085   3.385
13596W        W74962  28.599   3.847  14.336
13597W        W74963   1.761  34.418  14.450
13598W        W74964  29.047  15.812  14.399
13599W        W74965   9.318  44.311   1.807
13600W        W74966  24.213  22.161  12.495
13601W        W74967  12.137  15.168  14.320
13602W        W74968  24.080   7.301   0.303
13603W        W74969  27.577  21.561  12.545
13604W        W74970  27.529  19.259  10.970
13605W        W74971  22.613   1.452   1.274
13606W        W74972  13.628  10.743  14.766
13607W        W74973  20.164   4.701   1.245
13608W        W74974  25.092  43.948  13.323
13609W        W74975  27.543   0.904   3.667
13610W        W74976   9.762  27.579  14.762
13611W        W74977  32.508   8.710  10.503
13612W        W74978  35.105  23.600  12.515
13613W        W74979   7.257   9.830  13.925
13614W        W74980  21.091  29.440  13.465
13615W        W74981  42.021  39.969   1.875
13616W        W74982  23.599  15.098  13.461
13617W        W74983   7.765  18.565  11.557
13618W        W74984   4.443  19.728  14.971
13619W        W74985  36.951  40.895  10.947
13620W        W74986   3.868   2.243  11.969
13621W        W74987  27.956  20.730  12.366
13622W        W74988  14.729  34.454   3.370
13623W        W74989  11.806   8.718   1.736
13624W        W74990   4.717  12.674   5.269
13625W        W74991  40.836  20.726  11.019
13626W        W74992  14.600  21.057  14.396
13627W        W74993  36.097   1.883  14.287
13628W        W74994  32.528   3.250  10.011
13629W        W74995  33.996  39.939   2.330
13630W        W74996  38.875  38.467  10.943
13631W        W74997  16.653  14.244   1.723
13632W        W74998  20.214  34.990   2.740
13633W        W74999  39.543  26.677  12.024
13634W        W75000  10.874   2.301   0.429
13635W        W75001   7.273  19.172   2.203
13636W        W75002   0.375  36.899  10.945
13637W        W75003  22.675   1.398  13.347
13638W        W75004  33.535  11.725  13.018
13639W        W75005   6.917  15.703   2.185
13640W        W75006  42.317  28.561  11.096
13641W        W75007   5.288  18.127  11.599
13642W        W75008  19.107   4.246   1.256
13643W        W75009   5.747  38.464  14.414
13644W        W75010  22.147  43.868  14.797
13645W        W75011  32.136  13.287  12.437
13646W        W75012  14.265   7.768   3.208
13647W        W75013  25.055   9.282   5.118
13648W        W75014  33.913   3.833  14.345
13649W        W75015  41.005  27.065  13.022
13650W        W75016  32.079  33.391   5.285
13651W        W75017   3.880  38.461  11.058
13652W        W75018  28.585  33.561  12.905
13653W        W75019  14.126   8.838  12.375
13654W        W75020  19.082  38.866  12.436
13655W        W75021   1.242  43.984  13.308
13656W        W75022  28.547   7.700   4.209
13657W        W75023   1.358   4.415  11.066
13658W        W75024  16.151  31.907   1.930
13659W        W75025   9.846  38.560   0.245
13660W        W75026   9.341  12.767   5.156
13661W        W75027  12.281  28.939   3.386
13662W        W75028  18.272  40.468  11.121
13663W        W75029  41.302   0.955   1.374
13664W        W75030  36.494  11.843  10.918
13665W        W75031   9.234  36.399  11.917
13666W        W75032  19.084  19.210  13.849
13667W        W75033  32.554  22.235   3.762
13668W        W75034  39.940   4.444   0.372
13669W        W75035  42.783  44.754   4.294
13670W        W75036  23.103   9.647  14.782
13671W        W75037   9.270   3.253   1.349
13672W        W75038  35.014   5.323   4.249
13673W        W75039  34.073  23.700   0.448
13674W        W75040  30.631  36.909  10.531
13675W        W75041  41.520  21.651   4.209
13676W        W75042  15.254  12.666  14.797
13677W        W75043  28.550  10.673   3.647
13678W        W75044  20.663  36.514  14.791
13679W        W75045  44.934  24.561  12.910
13680W        W75046  14.291  12.117  11.885
13681W        W75047   4.829  40.488   5.086
13682W        W75048   1.927   8.245  11.007
13683W        W75049  25.202  13.290  10.975
13684W        W75050  18.665  44.311   0.421
13685W        W75051   4.788  36.853  13.412
13686W        W75052  15.183  25.612   2.340
13687W        W75053   5.237  37.368   0.937
13688W        W75054   7.231   9.351   4.721
13689W        W75055  42.812  31.143   5.091
13690W        W75056   6.233  31.410   2.251
13691W        W75057  25.156  25.652   2.902
13692W        W75058  21.550  38.457  13.884
13693W        W75059   6.298  11.795  13.012
13694W        W75060   6.711  38.512  11.465
13695W        W75061  35.523  31.486   1.699
13696W        W75062   5.362  17.767  13.948
13697W        W75063  38.543  32.585  11.892
13698W        W75064  13.162  13.181  10.940
13699W        W75065  16.315  29.548  10.626
13700W        W75066  24.481   8.689  12.508
13701W        W75067  16.631  29.599  13.026
13702W        W75068  22.079  32.085   5.224
13703W        W75069  41.805  38.503  12.987
13704W        W75070  12.273  41.801   2.850
13705W        W75071  16.638   5.393  11.502
13706W        W75072  18.779  25.621  10.512
13707W        W75073  26.461   1.893  12.547
13708W        W75074  14.240  40.496   2.419
13709W        W75075  34.523   4.893  12.883
13710W        W75076   2.399  10.766   1.918
13711W        W75077  23.073  38.450  14.389
13712W        W75078  37.942  43.497  14.925
13713W        W75079  32.137   7.220  13.984
13714W        W75080  20.588   7.785   4.257
13715W        W75081  32.084  38.044  13.387
13716W        W75082  25.653  29.169  14.402
13717W        W75083  22.120  31.549   0.400
13718W        W75084  30.005  16.214   2.704
13719W        W75085  17.678   2.465  11.408
13720W        W75086  13.348  14.627   5.568
13721W        W75087  19.702   8.302   3.376
13722W        W75088  27.188  31.132  11.440
13723W        W75089  17.610  16.118   4.276
13724W        W75090  21.545  42.499   0.867
13725W        W75091  25.483  39.991   2.849
13726W        W75092  22.032   9.801  10.418
13727W        W75093  13.778  38.470   3.647
13728W        W75094  19.769  19.201  14.287
13729W        W75095  40.322  33.893   1.293
13730W        W75096  38.433  32.437  13.406
13731W        W75097   7.346  15.190   0.730
13732W        W75098  10.248   6.789  12.842
13733W        W75099   4.747   8.204  14.914
13734W        W75100  41.428  23.732  14.442
13735W        W75101  12.342  35.949  10.139
13736W        W75102  40.317   8.806   2.311
13737W        W75103   8.184  32.056   4.802
13738W        W75104  19.045  14.235  11.866
13739W        W75105   6.381   5.414   0.352
13740W        W75106  33.461  34.999   0.331
13741W        W75107  30.621  12.611  13.360
13742W        W75108  13.212  10.213  10.964
13743W        W75109   7.265  29.491   4.817
13744W        W75110  43.353  27.682  11.899
13745W        W75111  26.069  40.502  13.859
13746W        W75112  25.020  35.095  11.946
13747W        W75113  35.915  16.119   0.445
13748W        W75114   9.890  44.356  11.932
13749W        W75115  34.470  31.583   1.241
13750W        W75116  24.585  11.624  12.518
13751W        W75117  22.706  23.547   3.684
13752W        W75118  12.353   5.759   0.820
13753W        W75119  23.524  11.791  12.364
13754W        W75120  14.304  16.290  12.398
13755W        W75121  11.745  15.626  12.475
13756W        W75122  44.772  31.026  13.819
13757W        W75123  34.105  16.589  13.336
13758W        W75124   3.263  31.057   2.358
13759W        W75125   7.758  21.104   4.144
13760W        W75126  17.300  42.396  11.878
13761W        W75127  32.439  40.866  14.929
13762W        W75128  44.465  34.612   2.261
13763W        W75129  11.199   5.412   0.467
13764W        W75130  16.173  39.365   2.268
13765W        W75131   8.779   8.231   3.173
13766W        W75132  25.570  16.192  14.010
13767W        W75133  25.105  34.043  10.439
13768W        W75134   3.755  36.417  13.024
13769W        W75135  28.674  30.011   0.741
13770W        W75136   4.718  21.200  12.352
13771W        W75137  42.384  42.522  13.993
13772W        W75138   4.283  22.699   4.299
13773W        W75139  23.589   8.233  14.400
13774W        W75140   8.674  26.529  14.823
13775W        W75141   2.433  41.786  12.407
13776W        W75142  38.379  40.424  11.057
13777W        W75143  41.013   8.258  10.911
13778W        W75144  44.300  25.616  10.460
13779W        W75145   2.285  40.408  14.974
13780W        W75146  10.263  37.022   0.277
13781W        W75147  35.061   0.955   2.793
13782W        W75148  38.008  26.580   3.346
13783W        W75149   0.757  34.591   3.324
13784W        W75150  36.933  32.571  13.953
13785W        W75151   2.304  31.513   4.278
13786W        W75152  10.138   5.857   0.332
13787W        W75153  40.515   1.397  11.469
13788W        W75154  13.264  25.636  14.344
13789W        W75155  35.372   4.419   2.407
13790W        W75156  11.746  24.983   9.929
13791W        W75157  30.436  10.313  12.067
13792W        W75158  23.556   2.733  12.352
13793W        W75159  39.487  32.038  14.303
13794W        W75160  13.235  27.187   2.893
13795W        W75161   8.369  20.730  10.904
13796W        W75162  27.181  16.598  12.903
13797W        W75163   5.839  16.619   5.745
13798W        W75164  15.159  14.722   2.880
13799W        W75165   3.434  19.048   3.348
13800W        W75166  31.638  29.540  10.890
13801W        W75167  14.234  20.694  11.389
13802W        W75168  14.258   4.238   4.743
13803W        W75169   3.883  20.660  12.394
13804W        W75170   8.840   6.188   2.270
13805W        W75171   1.810  42.012  11.505
13806W        W75172   4.446   6.255   3.836
13807W        W75173   4.924  20.711  10.930
13808W        W75174   8.174   3.822   2.345
13809W        W75175  13.655  22.588   1.213
13810W        W75176  30.146  24.014  13.934
13811W        W75177  16.755  26.492   3.760
13812W        W75178  27.940   0.345   4.352
13813W        W75179  10.864  36.031   3.193
13814W        W75180   5.275  24.111   2.885
13815W        W75181  17.263  12.126  14.425
13816W        W75182  12.298  38.069  12.930
13817W        W75183  34.528  44.908   4.825
13818W        W75184  10.329  12.648   2.187
13819W        W75185  14.607  39.986   3.823
13820W        W75186  42.377  35.368   1.699
13821W        W75187  28.167  14.180  11.612
13822W        W75188  35.067  42.455   0.369
13823W        W75189   7.819  16.628   3.251
13824W        W75190  16.678   0.774  10.540
13825W        W75191  27.123  33.122   2.381
13826W        W75192  21.262  43.497  13.528
13827W        W75193   5.924  42.327  10.983
13828W        W75194  34.519  26.657   2.754
13829W        W75195  35.913  37.860   0.259
13830W        W75196  23.698  16.153   4.171
13831W        W75197  31.938  27.617  10.121
13832W        W75198  21.597   0.413   1.895
13833W        W75199  11.247  32.083   1.722
13834W        W75200  36.075   7.850   1.722
13835W        W75201  23.670  30.006   4.786
13836W        W75202  28.118  39.025   1.364
13837W        W75203  14.163  33.041   2.360
13838W        W75204  41.935  41.931  14.896
13839W        W75205  33.594   5.738   4.214
13840W        W75206   1.830  44.419  11.085
13841W        W75207  17.260  25.024   0.286
13842W        W75208   5.291  20.537   1.798
13843W        W75209  13.112  23.216  14.840
13844W        W75210  13.107  11.622   1.361
13845W        W75211  38.867   2.933   1.795
13846W        W75212  34.405  16.685   0.390
13847W        W75213   3.231  34.986   3.713
13848W        W75214  37.443  26.538   1.344
13849W        W75215   8.778  35.030   1.846
13850W        W75216  32.916  36.853   3.270
13851W        W75217   7.802  18.552   3.274
13852W        W75218   2.276  28.489  12.522
13853W        W75219   9.278  27.051  13.461
13854W        W75220   3.407  30.076   4.701
13855W        W75221  41.521  34.046   0.278
13856W        W75222   7.201  40.427  11.440
13857W        W75223   5.919  43.992  12.907
13858W        W75224  37.337   7.328  11.018
13859W        W75225  34.397   7.294   0.801
13860W        W75226  42.393  37.074   4.641
13861W        W75227  16.154  21.718  13.541
13862W        W75228  32.543  34.931  12.932
13863W        W75229  15.206  33.585   1.875
13864W        W75230  35.479  13.636   3.691
13865W        W75231  39.844   1.440  12.061
13866W        W75232  18.162  19.737  12.882
13867W        W75233  36.857   0.270   0.416
13868W        W75234  42.333  22.131   1.788
13869W        W75235  28.573  23.025  11.590
13870W        W75236   7.911  14.210  12.894
13871W        W75237   6.833   3.908   2.342
13872W        W75238  26.108  14.614  10.935
13873W        W75239  23.627  33.076   1.246
13874W        W75240   1.911  34.443   1.278
13875W        W75241  39.353  31.060   1.770
13876W        W75242  27.985  31.569   3.631
13877W        W75243   6.397   7.325   0.361
13878W        W75244  30.049  31.644  10.932
13879W        W75245  41.468  39.537  11.451
13880W        W75246  14.231  35.980   4.280
13881W        W75247  29.626  14.337  14.770
13882W        W75248   6.184  12.318  12.852
13883W        W75249  24.225  31.528  14.909
13884W        W75250  10.362  20.639   3.341
13885W        W75251  44.800  33.621   3.749
13886W        W75252   9.675  32.969   1.771
13887W        W75253  40.466  32.965   0.762
13888W        W75254  33.561   9.259   2.803
13889W        W75255  10.209  40.052   3.228
13890W        W75256  30.049  41.447  12.891
13891W        W75257  44.003   9.805   1.258
13892W        W75258   2.843  40.331  13.524
13893W        W75259   1.464  24.080   3.797
13894W        W75260  44.299  28.951  11.063
13895W        W75261  23.608  25.209   3.213
13896W        W75262   5.359  40.024   2.256
13897W        W75263  42.400   7.798   1.889
13898W        W75264  33.556  29.663  14.784
13899W        W75265   0.375  20.711   3.750
13900W        W75266   0.762  40.304  12.429
13901W        W75267  39.390  34.431  14.442
13902W        W75268  16.637  34.610   4.284
13903W        W75269  15.756  22.075   3.796
13904W        W75270   3.258  27.020  12.960
13905W        W75271  11.223  12.756   0.255
13906W        W75272  38.051  14.830   4.735
13907W        W75273  37.048  44.279   4.320
13908W        W75274  19.699  36.373   4.312
13909W        W75275  25.198  34.078   1.843
13910W        W75276  33.019  35.566   1.369
13911W        W75277  26.002  44.266   2.676
13912W        W75278   5.427  30.532  12.472
13913W        W75279  19.194  27.558   2.399
13914W        W75280  37.482  35.999  12.060
13915W        W75281  40.436   5.755  12.997
13916W        W75282  24.159   4.791   9.931
13917W        W75283  13.335   2.726   1.353
13918W        W75284  22.111  17.285   3.708
13919W        W75285  17.641  19.139  12.064
13920W        W75286  10.188  21.717   3.175
13921W        W75287  38.055  24.033   0.360
13922W        W75288   6.193   7.778  13.369
13923W        W75289  36.389   8.710   4.642
13924W        W75290  23.178  15.581  11.865
13925W        W75291  30.150   0.446   1.410
13926W        W75292  15.127  12.178  11.957
13927W        W75293   2.403  21.037   2.872
13928W        W75294  22.510  11.671  10.625
13929W        W75295  28.184  43.314  13.538
13930W        W75296  23.089  43.503   3.215
13931W        W75297  27.519  14.307  10.406
13932W        W75298  19.653   6.225  14.428
13933W        W75299  43.807  36.077  10.582
13934W        W75300  24.720  39.959  12.918
13935W        W75301  26.498  13.699  11.098
13936W        W75302  40.342   8.337  11.878
13937W        W75303  16.306   6.887   2.238
13938W        W75304  18.699   8.781   5.113
13939W        W75305  26.696  16.159  14.000
13940W        W75306  27.007   5.206   9.508
13941W        W75307  26.111  26.090   3.646
13942W        W75308  32.443  44.485  11.908
13943W        W75309  44.781  42.366  14.508
13944W        W75310  39.553  40.968  14.303
13945W        W75311  37.484  17.237   3.865
13946W        W75312  15.688  16.689   0.247
13947W        W75313  24.019  23.985   2.700
13948W        W75314  34.088  42.834  10.634
13949W        W75315   3.348   5.812  12.434
13950W        W75316  13.139  39.494  12.571
13951W        W75317  36.484   3.948   2.748
13952W        W75318   6.904   7.683  12.388
13953W        W75319  43.987  15.746   5.225
13954W        W75320  15.687  39.361  11.453
13955W        W75321  42.286  22.242  11.592
13956W        W75322  43.880  15.157   2.662
13957W        W75323  10.874  31.084  10.899
13958W        W75324   0.890  19.708  13.423
13959W        W75325  30.616  14.099  12.442
13960W        W75326   6.283  18.136  14.986
13961W        W75327  33.401  14.730   2.807
13962W        W75328  43.992  17.103   4.775
13963W        W75329   8.268   0.959  14.847
13964W        W75330  13.651   8.352  11.579
13965W        W75331  32.617  28.057   2.323
13966W        W75332  42.984  25.187  10.594
13967W        W75333  18.765   0.459  11.400
13968W        W75334   8.756  27.637  11.126
13969W        W75335  41.888  35.000  11.082
13970W        W75336   0.398  39.514  13.833
13971W        W75337  40.934  11.186  14.441
13972W        W75338  21.164  43.395   0.307
13973W        W75339  36.533  21.243   2.278
13974W        W75340  40.463  39.497   2.888
13975W        W75341  12.769  43.785  12.942
13976W        W75342  19.698  32.580   2.310
13977W        W75343  35.862  18.163  12.072
13978W        W75344  43.301  34.435  10.599
13979W        W75345   0.333  16.286  14.895
13980W        W75346  13.802  42.520  14.833
13981W        W75347  29.124  24.996   2.839
13982W        W75348  42.462  36.491  14.923
13983W        W75349  31.979  32.597  12.363
13984W        W75350  26.492   7.273  12.451
13985W        W75351  34.492  12.208   2.294
13986W        W75352   7.747  14.652  13.026
13987W        W75353   7.807  16.228   2.341
13988W        W75354  10.683  41.972  13.872
13989W        W75355  43.942   1.382   1.373
13990W        W75356  41.399  22.153  12.938
13991W        W75357   6.225  42.333   4.121
13992W        W75358  38.965  24.505   2.753
13993W        W75359   6.354   6.739   2.370
13994W        W75360  30.013  10.779  14.490
13995W        W75361  17.207  13.769  10.903
13996W        W75362  20.075   8.836   4.193
13997W        W75363  17.699  24.636  11.399
13998W        W75364  12.695  43.006   1.831
13999W        W75365   3.765   2.418   3.719
14000W        W75366  20.040  11.715   2.329
14001W        W75367  36.457  22.519  13.475
14002W        W75368  16.129  23.073  14.414
14003W        W75369  41.878   2.809  11.972
14004W        W75370  36.861  17.231  10.903
14005W        W75371  17.185  16.238  14.910
14006W        W75372  11.795  44.764  14.893
14007W        W75373  24.994  13.177  10.469
14008W        W75374   1.395  33.568  11.025
14009W        W75375  41.475  41.870   0.415
14010W        W75376  23.105  20.260  13.807
14011W        W75377   1.900   9.873  12.497
14012W        W75378  35.531  14.251  14.814
14013W        W75379   6.227  36.061   5.320
14014W        W75380  22.534  27.666  11.510
14015W        W75381  31.514   0.413   4.648
14016W        W75382  29.629   0.273  12.517
14017W        W75383  43.889  26.038  14.894
14018W        W75384  14.745   3.449   9.944
14019W        W75385  32.023  33.900   0.927
14020W        W75386  28.623   6.401   3.762
14021W        W75387   1.306  27.099  13.507
14022W        W75388  16.152   1.479   1.826
14023W        W75389  17.138  37.013  11.526
14024W        W75390  22.696  16.131   4.664
14025W        W75391  33.058  22.211   1.819
14026W        W75392  29.985  26.056  14.329
14027W        W75393  15.216   9.207  12.363
14028W        W75394   2.236  27.003   2.789
14029W        W75395   7.414  23.495   4.294
14030W        W75396  24.520   3.820  12.081
14031W        W75397  17.733   6.238   3.810
14032W        W75398  39.532  16.602   4.788
14033W        W75399  43.299  34.369   0.966
14034W        W75400  35.854  43.855  12.445
14035W        W75401  30.147  42.956   2.882
14036W        W75402  27.972   8.302  11.066
14037W        W75403   5.787  44.779   3.832
14038W        W75404  24.229  30.001   3.869
14039W        W75405   5.319  19.629   4.239
14040W        W75406  13.764  42.486  11.563
14041W        W75407  15.750  38.529   4.656
14042W        W75408  27.552   5.208  12.561
14043W        W75409  36.379  20.744  14.796
14044W        W75410  19.765  20.101  11.610
14045W        W75411  20.161   7.721   3.293
14046W        W75412  10.646  22.620  10.611
14047W        W75413  20.648  19.188   2.222
14048W        W75414   2.874   3.756  10.490
14049W        W75415  36.981  11.857   2.697
14050W        W75416  11.187  39.491   2.754
14051W        W75417  33.893   4.865  13.403
14052W        W75418  24.054   4.337  14.772
14053W        W75419  37.462  19.693  11.549
14054W        W75420  27.041  16.790   2.328
14055W        W75421  20.537  10.154  10.024
14056W        W75422  14.774  23.626  12.433
14057W        W75423  13.757  35.097  14.866
14058W        W75424  43.805  32.133  12.948
14059W        W75425  10.717  20.578  11.856
14060W        W75426  16.132  26.575   0.946
14061W        W75427  30.023  18.553  11.856
14062W        W75428  19.778  24.657  14.471
14063W        W75429  34.983  43.839  10.418
14064W        W75430  14.124   4.805   5.172
14065W        W75431  34.610  12.352  10.440
14066W        W75432  12.649  24.554   2.341
14067W        W75433   2.775  22.249  14.481
14068W        W75434  41.358  34.433  10.449
14069W        W75435  10.852   2.738  14.784
14070W        W75436   3.826  40.817   1.438
14071W        W75437  22.528  34.085   1.697
14072W        W75438  44.917  42.495  11.865
14073W        W75439  31.039  10.641   1.858
14074W        W75440  43.844  18.702  12.419
14075W        W75441  35.430  34.483  11.024
14076W        W75442  39.484   0.471   3.374
14077W        W75443  36.988  34.881  10.580
14078W        W75444  24.494  44.433   0.483
14079W        W75445   1.808  41.943   3.318
14080W        W75446   7.888  12.750  13.438
14081W        W75447  33.509  19.201   0.426
14082W        W75448  25.645   5.863  13.887
14083W        W75449  41.008   1.759  12.491
14084W        W75450  11.786  19.268   3.198
14085W        W75451  30.072  25.540  13.809
14086W        W75452  26.652  31.482   4.138
14087W        W75453  10.672  30.459   5.171
14088W        W75454   2.439  18.108  12.534
14089W        W75455  32.414  12.778  13.918
14090W        W75456  23.160   0.852   1.887
14091W        W75457  28.034  25.963   3.183
14092W        W75458  27.654  32.559   4.619
14093W        W75459   6.397  19.555  12.572
14094W        W75460  42.504  36.946   0.829
14095W        W75461  40.384  27.493   2.801
14096W        W75462   6.191   3.378   3.227
14097W        W75463  27.159   3.914  11.527
14098W        W75464  23.173  18.722  12.875
14099W        W75465  36.435  39.056  10.889
14100W        W75466   1.925  18.599  11.058
14101W        W75467  44.958  25.999   0.875
14102W        W75468   8.665  25.986  14.314
14103W        W75469  36.852  22.176   1.311
14104W        W75470   8.722   1.347  13.918
14105W        W75471  21.605  27.618  13.967
14106W        W75472  43.320  32.601   0.766
14107W        W75473  18.155   9.387   0.445
14108W        W75474  12.632  42.861   2.306
14109W        W75475   3.220  44.840  10.591
14110W        W75476  36.490  23.007  13.415
14111W        W75477  17.571  13.272   2.309
14112W        W75478  39.453  32.538  11.881
14113W        W75479   0.285   6.368  13.514
14114W        W75480   3.775  24.128   3.707
14115W        W75481   5.884  26.067  14.491
14116W        W75482   3.331  43.005  12.942
14117W        W75483  43.959  15.744  13.884
14118W        W75484  12.672  42.441  13.426
14119W        W75485  35.358   8.754  13.935
14120W        W75486  23.990  41.505   3.203
14121W        W75487  27.091  15.149   3.827
14122W        W75488  25.529   8.259   2.776
14123W        W75489  21.594  38.378  14.402
14124W        W75490   9.287  11.148  10.973
14125W        W75491  28.065  17.087  11.442
14126W        W75492  38.381  24.093  12.575
14127W        W75493  36.469  34.417   4.130
14128W        W75494   1.354  34.920  14.790
14129W        W75495  13.124   7.870   3.763
14130W        W75496  43.465  21.222   0.816
14131W        W75497   6.886  18.653  14.924
14132W        W75498  28.934   4.883  14.352
14133W        W75499  37.473  41.410   9.505
14134W        W75500  21.730  36.059   0.409
14135W        W75501  14.125  32.447   0.376
14136W        W75502  22.648  37.366  11.075
14137W        W75503  20.569  44.894   2.895
14138W        W75504  20.228  12.134  11.947
14139W        W75505  22.230  12.248  14.306
14140W        W75506  28.514  17.720  11.898
14141W        W75507  26.003  11.166  10.988
14142W        W75508  34.575  41.957   2.901
14143W        W75509  43.814  15.695  10.418
14144W        W75510  22.669  29.669  13.407
14145W        W75511  13.689  17.130  13.547
14146W        W75512  27.614  37.358  13.913
14147W        W75513  40.841  21.253  13.414
14148W        W75514  14.304  19.602   0.423
14149W        W75515  18.558   7.364   0.903
14150W        W75516  39.553   7.240   5.267
14151W        W75517  44.445   4.237  11.524
14152W        W75518  30.909   7.710   3.697
14153W        W75519  42.462  23.556   1.808
14154W        W75520  17.624  17.647   1.242
14155W        W75521  39.532   1.478  11.437
14156W        W75522  31.600  12.281   1.324
14157W        W75523  25.546  12.793   4.240
14158W        W75524  36.089  11.336   0.257
14159W        W75525  26.127  22.632  13.892
14160W        W75526  21.546   5.893  14.344
14161W        W75527  24.517  34.557  12.363
14162W        W75528  13.740   1.374   4.676
14163W        W75529  19.541  14.652  13.005
14164W        W75530  14.657  15.770   3.656
14165W        W75531  41.915   2.753   0.909
14166W        W75532  23.647   1.932  13.912
14167W        W75533  36.847  27.665   1.272
14168W        W75534  18.176  39.489  13.386
14169W        W75535  22.160   6.188   3.667
14170W        W75536  17.772  30.097   0.862
14171W        W75537  37.450  10.801   3.318
14172W        W75538  35.071   7.171   4.628
14173W        W75539  27.494  43.909   1.259
14174W        W75540  36.847  24.097  10.920
14175W        W75541  18.676  37.922   0.963
14176W        W75542   0.443  24.055  13.492
14177W        W75543  28.961  35.447   3.237
14178W        W75544  43.474  26.125  14.400
14179W        W75545  38.959  16.115   0.378
14180W        W75546  41.881  31.628   4.268
14181W        W75547  24.593   7.710  12.032
14182W        W75548  41.377  33.124   2.691
14183W        W75549  16.207  38.886   3.255
14184W        W75550  23.197  30.928   2.831
14185W        W75551   8.703  11.136  13.538
14186W        W75552  25.105  11.755   2.400
14187W        W75553  27.675   1.784  10.513
14188W        W75554   1.420   1.237  14.964
14189W        W75555  37.502   7.239   2.696
14190W        W75556  14.130  34.029   1.264
14191W        W75557  20.531  39.903   2.847
14192W        W75558   4.338  41.444   4.828
14193W        W75559  26.184   3.436  10.023
14194W        W75560   8.829  22.224  14.476
14195W        W75561  20.050  18.718  11.040
14196W        W75562  29.078  37.474   1.864
14197W        W75563  44.446  36.372   0.313
14198W        W75564   4.800  41.034  13.965
14199W        W75565  25.125  43.395   4.659
14200W        W75566   3.307   2.963   3.246
14201W        W75567  34.888  15.780  11.993
14202W        W75568  41.529  21.178   1.933
14203W        W75569  38.905   4.771   3.809
14204W        W75570  33.963  29.438   0.878
14205W        W75571  13.795  17.703  14.414
14206W        W75572  41.508   5.725  11.589
14207W        W75573  21.720  17.276   9.951
14208W        W75574   5.905  28.670   4.273
14209W        W75575   6.747  12.620   0.826
14210W        W75576  29.127  42.787   4.309
14211W        W75577   7.756  17.301  12.046
14212W        W75578  40.483  18.247  11.396
14213W        W75579   2.940  19.060  13.916
14214W        W75580  27.113  14.124  11.021
14215W        W75581  26.466  30.911  10.942
14216W        W75582  44.009  25.627   1.914
14217W        W75583  29.989  24.118   2.821
14218W        W75584  31.070   5.302   3.736
14219W        W75585  42.785  16.571  14.339
14220W        W75586   3.880  24.706   1.310
14221W        W75587  26.525   0.963  11.974
14222W        W75588  20.056  26.105   0.384
14223W        W75589   9.185  23.548  14.370
14224W        W75590  35.030  41.830   4.801
14225W        W75591  27.054  41.006   4.621
14226W        W75592  17.742  40.909   1.446
14227W        W75593  35.582  20.662  14.304
14228W        W75594  36.559   1.313   4.244
14229W        W75595  23.558  17.702  13.442
14230W        W75596  21.158  38.446  14.869
14231W        W75597  29.164  20.072   2.184
14232W        W75598   8.179  32.537  12.559
14233W        W75599  39.393  41.845   1.915
14234W        W75600  19.693  20.668  13.326
14235W        W75601  38.926  26.670   2.276
14236W        W75602  39.065  11.784  14.006
14237W        W75603  18.693  10.770   2.804
14238W        W75604  23.598  18.181  12.531
14239W        W75605  14.219  44.266  12.557
14240W        W75606  17.630  32.620   4.774
14241W        W75607  39.005  24.608   3.730
14242W        W75608  28.616  32.443   2.361
14243W        W75609  15.115  26.605  12.400
14244W        W75610  23.066  21.027   0.299
14245W        W75611   5.712  41.937   2.728
14246W        W75612  41.974  35.896   4.735
14247W        W75613  26.646  31.499   2.855
14248W        W75614   7.818  39.947  12.541
14249W        W75615  10.215  14.210  14.342
14250W        W75616   1.914  13.676  12.520
14251W        W75617  21.522  38.005  10.082
14252W        W75618  14.268  23.063  12.399
14253W        W75619  14.265   6.237   2.799
14254W        W75620  24.150  37.515  11.020
14255W        W75621   1.287  32.456   5.089
14256W        W75622  25.177  26.060   3.815
14257W        W75623  44.263  31.554   4.597
14258W        W75624  14.665   5.729   1.699
14259W        W75625  14.687  28.475   3.792
14260W        W75626  11.228  30.138   2.189
14261W        W75627   3.297  17.596   2.277
14262W        W75628  37.577  25.690  13.373
14263W        W75629   7.667  16.102   2.874
14264W        W75630  24.026  17.610  11.590
14265W        W75631  30.464  44.312   2.751
14266W        W75632   4.390  14.833  14.352
14267W        W75633  16.718  27.671  10.944
14268W        W75634  34.398  29.560  14.503
14269W        W75635  23.128  18.081  10.935
14270W        W75636  15.725  11.304   0.253
14271W        W75637   4.312  12.749   0.778
14272W        W75638  21.576  29.128   0.830
14273W        W75639   2.310  34.104  12.393
14274W        W75640   3.786  38.832  13.900
14275W        W75641  28.571  35.573   2.670
14276W        W75642   5.235  36.482  13.503
14277W        W75643  27.055   5.874  12.378
14278W        W75644  31.138   8.394   3.188
14279W        W75645   8.288  20.546   1.827
14280W        W75646  18.593  33.991  13.406
14281W        W75647  37.062  38.048  11.537
14282W        W75648  42.492  16.693  10.619
14283W        W75649  10.807  37.070   1.826
14284W        W75650  12.206  40.827   1.344
14285W        W75651  19.039  10.734   3.175
14286W        W75652   3.399  32.443   2.685
14287W        W75653  20.530   6.345  13.827
14288W        W75654  25.057  32.475  14.866
14289W        W75655   9.175  10.175  13.826
14290W        W75656  42.913   1.378   1.273
14291W        W75657  19.556   2.372   3.650
14292W        W75658   2.876  38.333  14.467
14293W        W75659  30.505  24.701   4.797
14294W        W75660  20.530  18.738   1.291
14295W        W75661  38.019  44.495   4.167
14296W        W75662  25.564  43.017   2.390
14297W        W75663  13.712  30.025  10.607
14298W        W75664   2.287  38.899   3.798
14299W        W75665   4.803  28.044   2.322
14300W        W75666  29.438  36.893   2.895
14301W        W75667  37.886  13.169   4.817
14302W        W75668  27.982  27.187   1.239
14303W        W75669   6.264  33.911  13.884
14304W        W75670   1.332  22.571  10.896
14305W        W75671  12.117  17.113   1.696
14306W        W75672  38.907   1.814  14.843
14307W        W75673  18.244  16.169   2.312
14308W        W75674  15.147  37.875  12.042
14309W        W75675  27.488   0.875   3.325
14310W        W75676  42.482  26.027   0.960
14311W        W75677  26.141   5.293   3.216
14312W        W75678  35.953  44.803  10.489
14313W        W75679  14.310  19.682  11.920
14314W        W75680  15.682   3.290  11.392
14315W        W75681  31.080  38.533  14.298
14316W        W75682  20.147  41.324  12.858
14317W        W75683   9.733  32.425   2.721
14318W        W75684  36.370  31.433   4.729
14319W        W75685  34.411   4.701  11.413
14320W        W75686  18.137  35.099  10.998
14321W        W75687  23.642  14.263   0.334
14322W        W75688  23.196   5.316   0.358
14323W        W75689   6.766   5.761   1.907
14324W        W75690  28.547  13.158   1.439
14325W        W75691  12.624   1.411   2.884
14326W        W75692   5.380  40.459   4.227
14327W        W75693  22.153  25.631  13.845
14328W        W75694  40.486  35.967  12.524
14329W        W75695   0.773  36.409   4.321
14330W        W75696  27.992  44.489   4.322
14331W        W75697  11.846  15.722  11.373
14332W        W75698  23.601  37.856  10.588
14333W        W75699  17.191  10.745   2.766
14334W        W75700  18.677  16.590   2.843
14335W        W75701  23.987  27.611   0.790
14336W        W75702  26.146  34.533  13.836
14337W        W75703  27.644   2.835  11.933
14338W        W75704   3.748  33.029   1.926
14339W        W75705  28.445  42.027   0.779
14340W        W75706   2.317  23.714  14.499
14341W        W75707  24.600  41.027   1.793
14342W        W75708  18.192  36.994  14.938
14343W        W75709   2.306  42.438   3.817
14344W        W75710  40.333  41.391  14.784
14345W        W75711  31.939   8.216   1.222
14346W        W75712  35.480  43.287  12.954
14347W        W75713  24.214   2.342   2.195
14348W        W75714  42.385  16.122   1.372
14349W        W75715  19.234  42.994  12.550
14350W        W75716   9.255  10.363  11.544
14351W        W75717  10.773  13.611   2.804
14352W        W75718  41.375  30.505  10.917
14353W        W75719  14.753  35.567  12.342
14354W        W75720  25.045   6.910  12.398
14355W        W75721  36.370  20.614   1.715
14356W        W75722   8.273   2.908  11.989
14357W        W75723  15.638  24.522   1.854
14358W        W75724  12.323  18.716   0.952
14359W        W75725  22.127   4.339   9.460
14360W        W75726  24.098  15.621   5.178
14361W        W75727   0.887  27.549   3.813
14362W        W75728   3.312  10.840  11.083
14363W        W75729   7.394  13.285  12.023
14364W        W75730  43.328   8.764  12.992
14365W        W75731   3.232  31.940   3.651
14366W        W75732  31.138  11.787  12.006
14367W        W75733  17.762  39.364  13.031
14368W        W75734  12.281   2.265   1.737
14369W        W75735  13.664  40.385   3.220
14370W        W75736  17.722  20.594  13.535
14371W        W75737  10.324  42.517  13.891
14372W        W75738  29.558  38.859  12.363
14373W        W75739  20.250  39.917  14.032
14374W        W75740   2.871  29.145   2.351
14375W        W75741  16.263  19.738  14.958
14376W        W75742  22.061  22.241   4.208
14377W        W75743  40.845  33.602  14.779
14378W        W75744  32.600  15.295  14.497
14379W        W75745  17.226  10.322   3.380
14380W        W75746  18.197  34.533  14.941
14381W        W75747   3.269  22.130  11.491
14382W        W75748  29.997  14.652   2.708
14383W        W75749  36.955  24.131   3.742
14384W        W75750  32.457   8.378   0.432
14385W        W75751  19.569  26.086   3.181
14386W        W75752  28.661  29.170   1.930
14387W        W75753  15.187  24.561   1.863
14388W        W75754  33.994  26.105  10.561
14389W        W75755  44.333  32.977  13.386
14390W        W75756   2.271  33.070  12.844
14391W        W75757  38.821  27.688   4.204
14392W        W75758   9.683  44.898  11.905
14393W        W75759  36.486  32.542   3.646
14394W        W75760  31.502  29.590   0.374
14395W        W75761  13.125  27.480   3.687
14396W        W75762   1.426  28.574  14.919
14397W        W75763   5.313  37.071   0.740
14398W        W75764  23.562   8.193  10.925
14399W        W75765  12.236  17.697   3.749
14400W        W75766   8.280   0.788  13.947
14401W        W75767  22.182  33.047  12.038
14402W        W75768   3.332  28.075  13.962
14403W        W75769  25.187   1.315  10.423
14404W        W75770  26.647  28.019   2.822
14405W        W75771  42.835   5.719   4.116
14406W        W75772  30.975  10.695  14.516
14407W        W75773  43.815  15.678  11.601
14408W        W75774  12.791   3.221   0.747
14409W        W75775  34.541   6.724   3.640
14410W        W75776   3.843  26.584  12.834
14411W        W75777  43.329   5.399  10.455
14412W        W75778  37.848   5.805  13.523
14413W        W75779  30.620  11.131   1.347
14414W        W75780  40.331  15.266   0.933
14415W        W75781  13.725  20.600   1.258
14416W        W75782  43.947  33.885  11.387
14417W        W75783   8.885   3.747  13.815
14418W        W75784   4.889  25.631   1.754
14419W        W75785  16.589  34.480  12.425
14420W        W75786  23.230   8.185   4.618
14421W        W75787  23.641  27.951   0.375
14422W        W75788  39.509  41.896  14.969
14423W        W75789  32.014   6.230   0.318
14424W        W75790  27.139  42.030  10.995
14425W        W75791  33.524  11.693  10.547
14426W        W75792  38.475  37.351   1.854
14427W        W75793  22.583  44.914  14.997
14428W        W75794   5.806   0.485  10.499
14429W        W75795  23.192  44.457   4.599
14430W        W75796  31.000  20.548  14.396
14431W        W75797  44.356   5.805  11.424
14432W        W75798   5.368  25.636  11.103
14433W        W75799  20.112  25.144  10.629
14434W        W75800   0.466   3.900  14.918
14435W        W75801   3.361  21.546   1.361
14436W        W75802  14.317  24.667   2.183
14437W        W75803  36.391  44.969   2.763
14438W        W75804  44.474  28.636   1.729
14439W        W75805  38.457   5.910  13.849
14440W        W75806  28.001  11.661   4.265
14441W        W75807  32.045  33.025   1.414
14442W        W75808  24.535  28.584  11.604
14443W        W75809   6.866   4.770   2.791
14444W        W75810  28.665  19.281  12.516
14445W        W75811   3.843  14.297  14.391
14446W        W75812  18.110  10.688   2.239
14447W        W75813  16.588  30.910   2.209
14448W        W75814  16.113  15.308   3.317
14449W        W75815  42.389  33.956  14.486
14450W        W75816  19.768   6.857  13.477
14451W        W75817  14.641  25.607   4.268
14452W        W75818  33.053  23.205   1.712
14453W        W75819   0.850   2.870   4.125
14454W        W75820   6.358  25.154   2.745
14455W        W75821  24.636  23.089  11.070
14456W        W75822  28.518   2.886  14.988
14457W        W75823  28.568  42.900  12.824
14458W        W75824   5.362  34.420  14.853
14459W        W75825  32.078  24.584  13.915
14460W        W75826  26.463  16.770  14.894
14461W        W75827  22.706  38.057   3.316
14462W        W75828  28.029   5.238  14.801
14463W        W75829  26.649  13.607   4.791
14464W        W75830  33.050   1.388  11.106
14465W        W75831  28.180  40.924  11.527
14466W        W75832   6.860  32.126  14.865
14467W        W75833  20.239  34.042  10.962
14468W        W75834  29.140  15.089   2.183
14469W        W75835  19.253  25.701  13.383
14470W        W75836  36.848  24.544   0.738
14471W        W75837  31.928  31.023  14.275
14472W        W75838  30.994  21.702   4.762
14473W        W75839  14.658  24.503  14.880
14474W        W75840  23.696  34.568   0.265
14475W        W75841  35.019  39.831   3.172
14476W        W75842  12.627  26.112   3.307
14477W        W75843  19.129  25.673  10.894
14478W        W75844  35.089   3.883   1.445
14479W        W75845  10.837   0.931  13.376
14480W        W75846   0.397   0.462   2.323
14481W        W75847  24.224  25.617  10.634
14482W        W75848  41.923  33.130  10.582
14483W        W75849  21.720  40.368  10.899
14484W        W75850  38.553   0.367  13.342
14485W        W75851  26.026  31.072  11.467
14486W        W75852  17.067  32.105   4.606
14487W        W75853  20.141  32.543  14.930
14488W        W75854  25.980  35.491  12.398
14489W        W75855  23.006  32.914   0.392
14490W        W75856  33.461  18.199   0.459
14491W        W75857   2.870   0.483  14.030
14492W        W75858  43.377  21.248   9.958
14493W        W75859  42.433  33.899   2.231
14494W        W75860   9.794   5.785   4.838
14495W        W75861  38.518  13.767  13.360
14496W        W75862  38.827  35.049  14.815
14497W        W75863  31.606  28.679  12.538
14498W        W75864  44.995  26.585  13.522
14499W        W75865   0.834  20.643  10.428
14500W        W75866  37.359   4.296   3.789
14501W        W75867  40.054  27.964  14.363
14502W        W75868   3.385  31.019   0.418
14503W        W75869  15.706  24.222  13.535
14504W        W75870  19.749   0.866  13.322
14505W        W75871  40.399  37.885   4.160
14506W        W75872  27.146  14.116  14.346
14507W        W75873  39.438  36.558   3.336
14508W        W75874  35.421  23.606   2.899
14509W        W75875  14.821  12.663  12.519
14510W        W75876  31.977  35.436   2.712
14511W        W75877  20.202  34.889   2.249
14512W        W75878  34.012  18.197   4.131
14513W        W75879  30.981   0.341  14.335
14514W        W75880  10.702  44.431   3.308
14515W        W75881   0.867  15.287  10.933
14516W        W75882  12.809  17.799  11.859
14517W        W75883  23.025  11.151  12.869
14518W        W75884  25.583  22.620   0.900
14519W        W75885   3.434   7.194  12.892
14520W        W75886   6.197  43.997   3.758
14521W        W75887  17.231  38.941  10.526
14522W        W75888  33.526  33.976  13.429
14523W        W75889   6.290  18.060  13.922
14524W        W75890  38.471   8.669   1.879
14525W        W75891  18.147   8.217   0.387
14526W        W75892   9.252  28.660  11.401
14527W        W75893  18.233  36.062   0.755
14528W        W75894   1.737   7.909  12.907
14529W        W75895  43.289  13.657   4.653
14530W        W75896   9.269  18.770  12.828
14531W        W75897  13.673  21.200  14.001
14532W        W75898  14.171  10.158  14.359
14533W        W75899  25.661  12.208   1.339
14534W        W75900  21.205  28.958   2.815
14535W        W75901  13.628  26.005  12.503
14536W        W75902  14.137  28.006   0.815
14537W        W75903  15.256  42.292   1.438
14538W        W75904   2.777  31.520   3.382
14539W        W75905  41.790  32.438  10.453
14540W        W75906   8.809  11.131   4.701
14541W        W75907  29.551  22.186  12.891
14542W        W75908  36.536  16.210   3.259
14543W        W75909  38.826   3.768   2.877
14544W        W75910  37.403   0.929   3.309
14545W        W75911  23.211   2.233   5.645
14546W        W75912   6.734  35.582   0.882
14547W        W75913   2.756  36.011   1.904
14548W        W75914  41.506  22.542  14.922
14549W        W75915  27.620  24.502   0.458
14550W        W75916   3.352  39.027  12.930
14551W        W75917  22.520  33.536   0.247
14552W        W75918   0.273   6.748   3.655
14553W        W75919  26.507  23.616  13.510
14554W        W75920  12.820  29.653  11.538
14555W        W75921  37.070  20.702  12.483
14556W        W75922  38.362  34.942  11.890
14557W        W75923  43.824   4.346  13.008
14558W        W75924   5.209  42.469   4.223
14559W        W75925   2.790  36.856  12.983
14560W        W75926  15.803  44.365  14.876
14561W        W75927   9.347  20.538  14.440
14562W        W75928  11.708  27.066   2.414
14563W        W75929  29.981  33.049  12.050
14564W        W75930  33.929  14.601   0.761
14565W        W75931  37.962  25.010  12.928
14566W        W75932   0.295  22.056   1.766
14567W        W75933  29.538  20.591   0.357
14568W        W75934  25.652  40.839   4.295
14569W        W75935   6.269  25.022  11.530
14570W        W75936  28.088  15.290   0.260
14571W        W75937  40.364  29.114   0.311
14572W        W75938  35.021   7.698   3.741
14573W        W75939  11.137  16.728  14.281
14574W        W75940  19.095  39.352   2.686
14575W        W75941  32.961  41.013  12.829
14576W        W75942  29.638  37.386  10.915
14577W        W75943  36.858  34.528   4.809
14578W        W75944  40.797  40.934   4.296
14579W        W75945  21.758  18.235   0.475
14580W        W75946  41.405  24.718  14.784
14581W        W75947  13.781  23.617   3.198
14582W        W75948   6.361  30.072  13.847
14583W        W75949  44.428  38.374   1.923
14584W        W75950  40.443  20.683   3.691
14585W        W75951  27.092  36.946  13.955
14586W        W75952  42.519  15.691   2.363
14587W        W75953  15.184  29.430  13.966
14588W        W75954   6.361   9.869   4.261
14589W        W75955   5.197  32.537  10.567
14590W        W75956  25.147  19.652   4.179
14591W        W75957   1.239  25.697   3.348
14592W        W75958   9.760  18.209  13.496
14593W        W75959   7.212   7.878   1.741
14594W        W75960  17.124  21.116  11.872
14595W        W75961  39.992  21.170  14.454
14596W        W75962  13.686  36.099   3.234
14597W        W75963  15.617  13.752  14.886
14598W        W75964   1.878  22.690  12.382
14599W        W75965  32.049  38.542   2.265
14600W        W75966  24.013  13.312  11.541
14601W        W75967  17.699  11.360  11.054
14602W        W75968  33.537  33.970   3.864
14603W        W75969  18.663  32.128   5.081
14604W        W75970  27.983  35.109   0.255
14605W        W75971   8.707  39.024   2.260
14606W        W75972  21.711  32.612  10.995
14607W        W75973  36.985  41.885   4.154
14608W        W75974  33.941  40.952  13.382
14609W        W75975  44.938   2.354   3.361
14610W        W75976   3.251  17.222   4.767
14611W        W75977  26.203  15.719   2.349
14612W        W75978  43.301  21.702   0.752
14613W        W75979  44.988  11.195  14.964
14614W        W75980   6.381  29.559   5.300
14615W        W75981  20.149   1.251  14.382
14616W        W75982  23.717  25.512   2.182
14617W        W75983   6.331  36.065   0.767
14618W        W75984  39.056  10.647  14.355
14619W        W75985  11.159  21.724   1.763
14620W        W75986  18.662  19.620   1.335
14621W        W75987  17.171  10.713  10.979
14622W        W75988  39.020  29.577   4.262
14623W        W75989  29.428  16.621   1.406
14624W        W75990  37.876  40.853  14.829
14625W        W75991  26.520  13.706  11.936
14626W        W75992  36.019  16.130  10.404
14627W        W75993   6.840  38.539   0.769
14628W        W75994  44.792  42.519   2.796
14629W        W75995  37.452   4.700  12.575
14630W        W75996  12.179  30.593  13.313
14631W        W75997  43.291  34.372  12.544
14632W        W75998  24.507  12.687   0.290
14633W        W75999   5.216  17.580   2.822
14634W        W76000  39.837  39.521   4.834
14635W        W76001  14.776  28.647  12.899
14636W        W76002  38.485   9.151   1.832
14637W        W76003  33.575   1.441   2.878
14638W        W76004  30.070   6.699   0.304
14639W        W76005  26.528   4.430  13.321
14640W        W76006   6.269   6.775   5.093
14641W        W76007  19.680  20.036   1.371
14642W        W76008  23.098  21.261  14.513
14643W        W76009   9.245  28.672  14.411
14644W        W76010  42.872  42.433   1.822
14645W        W76011  19.267   4.783   4.768
14646W        W76012  13.799   6.385  12.412
14647W        W76013  40.866   9.836   0.744
14648W        W76014  21.739  16.811  12.370
14649W        W76015  12.627  28.936  14.340
14650W        W76016  33.468  17.578   2.265
14651W        W76017  30.558   1.442  10.929
14652W        W76018  41.351  29.489   4.134
14653W        W76019  15.629  32.475  12.475
14654W        W76020  12.330  13.752   4.797
14655W        W76021  18.742  18.654   4.304
14656W        W76022   2.914  22.222   0.346
14657W        W76023  39.525  27.041  12.916
14658W        W76024  21.555   3.910   5.669
14659W        W76025  39.863  33.082   1.838
14660W        W76026  20.271  11.802   4.236
14661W        W76027  39.470   6.714  12.877
14662W        W76028   1.864  13.111  14.931
14663W        W76029  27.517   7.411   0.355
14664W        W76030  38.471  41.937   0.902
14665W        W76031   2.779  43.434   4.643
14666W        W76032  34.892  31.908   2.724
14667W        W76033   3.256  33.971   3.797
14668W        W76034   5.245   1.341  12.974
14669W        W76035  24.480  36.445  14.481
14670W        W76036  37.019  21.591   0.853
14671W        W76037   0.944  12.805   4.283
14672W        W76038   2.750  39.522   0.952
14673W        W76039   5.910  43.836  13.375
14674W        W76040  11.835  25.042  13.889
14675W        W76041  33.621  37.927  12.949
14676W        W76042  22.621  22.553   0.858
14677W        W76043  17.734  27.547   4.206
14678W        W76044  44.300  13.250  11.535
14679W        W76045  25.056  15.750   4.202
14680W        W76046  26.620   6.245   1.423
14681W        W76047  23.199  31.565  14.963
14682W        W76048  22.017  37.425   2.191
14683W        W76049  42.332  26.097   1.727
14684W        W76050   4.404   7.332   0.853
14685W        W76051  18.725   1.938   1.867
14686W        W76052  26.572  36.481  13.003
14687W        W76053  10.315  26.461   4.762
14688W        W76054  40.510  38.876  14.986
14689W        W76055  33.457  17.581  14.929
14690W        W76056  10.208  19.743   2.755
14691W        W76057  38.000  38.007  11.584
14692W        W76058  23.104  31.952   1.793
14693W        W76059  21.657  25.138   2.693
14694W        W76060  15.306  14.814   0.834
14695W        W76061  35.032  41.525   3.799
14696W        W76062  37.419  10.283  11.867
14697W        W76063  29.945   8.172  11.387
14698W        W76064  42.428  23.593   3.657
14699W        W76065   2.812  12.754   1.406
14700W        W76066  10.353  16.809  10.906
14701W        W76067  17.093  10.232   2.696
14702W        W76068  24.125  11.354   4.637
14703W        W76069  17.271  20.253  12.349
14704W        W76070  22.011  42.790   1.817
14705W        W76071  10.783  41.533   2.824
14706W        W76072  44.480  33.458   0.844
14707W        W76073  21.543   2.814   2.335
14708W        W76074   6.765  13.723   1.859
14709W        W76075  11.856  32.054  13.517
14710W        W76076  16.608  12.664  11.521
14711W        W76077  26.195  23.146  13.924
14712W        W76078  26.475  34.405   1.815
14713W        W76079  22.520  41.018   4.156
14714W        W76080   1.472   9.787   4.199
14715W        W76081  34.021  19.757   2.886
14716W        W76082  38.514  10.820   3.705
14717W        W76083   3.410  24.680   0.401
14718W        W76084  41.907  16.316  11.979
14719W        W76085   0.439   6.285  11.883
14720W        W76086  35.433   4.771   3.684
14721W        W76087   8.176  22.058   0.866
14722W        W76088  19.667  35.979   3.848
14723W        W76089   4.896  39.027  14.942
14724W        W76090  38.998  31.007  13.969
14725W        W76091  19.137  36.872  13.322
14726W        W76092  21.149  25.192  10.492
14727W        W76093  17.603  19.769  11.914
14728W        W76094  28.568   9.335   0.850
14729W        W76095  21.039   1.452   3.732
14730W        W76096  16.271  31.481   4.638
14731W        W76097  19.549  42.016   0.907
14732W        W76098   4.346  39.003  12.831
14733W        W76099   6.414   9.812   0.331
14734W        W76100   6.741   2.895  10.898
14735W        W76101  37.842   4.859   4.727
14736W        W76102  20.181  38.368   3.199
14737W        W76103   7.211  38.519  12.958
14738W        W76104  12.241   1.858   1.921
14739W        W76105  27.457   9.647   4.214
14740W        W76106  44.491  13.293   5.127
14741W        W76107   1.946  12.799   2.284
14742W        W76108  13.607  16.803   0.832
14743W        W76109   2.329   9.688   4.259
14744W        W76110  17.176  21.629   2.318
14745W        W76111  26.174  42.006  14.949
14746W        W76112  36.034  20.692   0.270
14747W        W76113  36.049  24.109   2.665
14748W        W76114   3.868  15.324   1.785
14749W        W76115   3.936   9.710  11.873
14750W        W76116  13.773  14.608  12.849
14751W        W76117   4.219  44.472   2.303
14752W        W76118  25.089  31.130   3.221
14753W        W76119   9.241  42.900   1.296
14754W        W76120  34.550  30.621   0.941
14755W        W76121  37.938  15.210  13.321
14756W        W76122   7.270   3.293   5.792
14757W        W76123   1.948  28.027  11.128
14758W        W76124  36.420   9.647  13.061
14759W        W76125  41.804   1.753  13.019
14760W        W76126  36.371  28.982  10.590
14761W        W76127   7.313  26.594   1.826
14762W        W76128  38.403  43.889  10.423
14763W        W76129   3.301  32.120   5.203
14764W        W76130  35.591  26.192  12.497
14765W        W76131  44.466  31.526  10.107
14766W        W76132   1.855  41.327  14.491
14767W        W76133   7.898  17.693   1.930
14768W        W76134  43.351  31.013   0.432
14769W        W76135   9.728  43.456   4.830
14770W        W76136  31.559  14.631  12.901
14771W        W76137  32.494  19.561  14.391
14772W        W76138  41.882   3.911   0.936
14773W        W76139  35.963  36.533   1.903
14774W        W76140  12.670   6.897   1.247
14775W        W76141  42.831  35.952   0.776
14776W        W76142  43.981  34.480  14.998
14777W        W76143  13.688  16.721  12.969
14778W        W76144  42.517   8.882  10.458
14779W        W76145   8.314  43.990   1.282
14780W        W76146  20.191  17.746   2.255
14781W        W76147  25.545  11.221   4.740
14782W        W76148  13.329  11.163  11.944
14783W        W76149  40.881  19.257  13.324
14784W        W76150  40.958  10.837   1.900
14785W        W76151  20.121  27.162  12.874
14786W        W76152  37.063  39.410   4.212
14787W        W76153   5.922  30.612  13.544
14788W        W76154  36.474  20.558   0.951
14789W        W76155   8.878  27.159   3.800
14790W        W76156  20.082   6.349  14.894
14791W        W76157  32.586  12.136  12.009
14792W        W76158  24.001  24.488   3.740
14793W        W76159  22.736  25.004  11.875
14794W        W76160  28.007  32.995   3.349
14795W        W76161  24.982  17.270   5.084
14796W        W76162  24.017  36.883  11.518
14797W        W76163  43.424  27.564  10.471
14798W        W76164   9.889  15.126  12.484
14799W        W76165   2.290  32.481  10.511
14800W        W76166   4.748  14.337  13.871
14801W        W76167  31.027  40.489  13.915
14802W        W76168  16.747  10.345  14.858
14803W        W76169   3.342  34.401   3.377
14804W        W76170  44.999  17.612  13.315
14805W        W76171  15.659  43.864   4.126
14806W        W76172  36.890  28.004   2.782
14807W        W76173  11.204   6.215  12.416
14808W        W76174  34.918  15.095   1.696
14809W        W76175  24.607  27.555   0.808
14810W        W76176  41.420  15.216   2.223
14811W        W76177  35.582   6.891  12.523
14812W        W76178  32.447   0.886  12.516
14813W        W76179   5.831  30.144   4.627
14814W        W76180  20.763  16.135  13.871
14815W        W76181  14.680  43.792  13.343
14816W        W76182   0.930  33.561  13.867
14817W        W76183  23.682  12.151   3.297
14818W        W76184  23.724   0.935   0.808
14819W        W76185   7.415  19.250  10.613
14820W        W76186  42.008  22.037   4.646
14821W        W76187  34.872  33.612  10.887
14822W        W76188  32.416   0.456   4.635
14823W        W76189  18.205  20.746   1.348
14824W        W76190  21.159  41.451   1.376
14825W        W76191  19.709  24.692   2.331
14826W        W76192  35.424   6.755  13.895
14827W        W76193  16.723   9.847  11.415
14828W        W76194  36.082  31.936  13.951
14829W        W76195  24.075  12.318  10.562
14830W        W76196  41.859  25.499   1.230
14831W        W76197  12.614   5.711  10.498
14832W        W76198   1.861  12.734  14.455
14833W        W76199  34.111  41.422  14.941
14834W        W76200  35.564  35.028  11.502
14835W        W76201  42.001  42.826   5.159
14836W        W76202   0.253  22.050   0.755
14837W        W76203  25.005  28.635  11.918
14838W        W76204  35.404  20.735  12.346
14839W        W76205  26.057   1.398   3.351
14840W        W76206  33.130  16.683   4.749
14841W        W76207  24.980   3.349  13.405
14842W        W76208  41.293  29.426  13.373
14843W        W76209  12.749  29.596   3.824
14844W        W76210  27.572   3.855   0.728
14845W        W76211  31.057  16.617   4.300
14846W        W76212  11.821  13.307  14.382
14847W        W76213   7.243  37.489   1.312
14848W        W76214  42.387  15.732  10.561
14849W        W76215  33.915  19.121   4.179
14850W        W76216  14.639  27.534   1.902
14851W        W76217   7.800  22.502   0.326
14852W        W76218  13.118  20.236   0.483
14853W        W76219  17.576   2.793  10.430
14854W        W76220  16.637  22.100  13.025
14855W        W76221  29.987  37.840  12.495
14856W        W76222  12.619   2.239   2.768
14857W        W76223   0.263  32.969   3.635
14858W        W76224  37.537  43.403   4.204
14859W        W76225   6.337  26.506   1.320
14860W        W76226  18.616   3.454   3.338
14861W        W76227  33.580  25.010  11.576
14862W        W76228   0.320  13.680  13.506
14863W        W76229  17.727   4.356  11.128
14864W        W76230  40.965  14.246  14.821
14865W        W76231  42.896  15.804  10.049
14866W        W76232   2.764  18.264   0.951
14867W        W76233   6.780   4.213   0.442
14868W        W76234  40.969  12.735  12.058
14869W        W76235   0.273  32.938  10.529
14870W        W76236  25.638  19.721  11.580
14871W        W76237  28.148   3.714  14.795
14872W        W76238   7.292   3.955   0.927
14873W        W76239   5.219  28.973  10.057
14874W        W76240  11.856   7.882  11.387
14875W        W76241  30.914  36.958   1.389
14876W        W76242   9.384  41.915  12.846
14877W        W76243  41.978  29.089  11.056
14878W        W76244  35.888   8.280  14.780
14879W        W76245  17.571  14.294   2.202
14880W        W76246  25.551  14.695   1.334
14881W        W76247  25.122  31.602   0.844
14882W        W76248  25.660   7.342   2.672
14883W        W76249  30.548   8.227   0.827
14884W        W76250   9.744  30.143  13.516
14885W        W76251  16.231  16.272  14.920
14886W        W76252   8.269  22.640  14.278
14887W        W76253   9.238   2.418   0.346
14888W        W76254  32.431  24.487  10.904
14889W        W76255  31.528  29.604  12.496
14890W        W76256  35.495  14.823  14.009
14891W        W76257  25.580  36.057   3.261
14892W        W76258   1.808   4.226   3.323
14893W        W76259  13.241  20.726  14.834
14894W        W76260   4.357   2.288  10.586
14895W        W76261   6.857   8.345   4.675
14896W        W76262  13.193  35.978  13.958
14897W        W76263  19.731   5.713  14.961
14898W        W76264  15.787   6.725  12.371
14899W        W76265  15.135  28.999   0.325
14900W        W76266  10.172   3.438  10.568
14901W        W76267   2.847   7.723  12.000
14902W        W76268  25.644  17.748  12.558
14903W        W76269   6.421   7.349   4.777
14904W        W76270  37.559  24.719  10.462
14905W        W76271  38.850  22.505   4.617
14906W        W76272  26.076   1.960  13.316
14907W        W76273  36.542  43.829  12.968
14908W        W76274  24.216  34.987   0.955
14909W        W76275  22.093   8.837  11.424
14910W        W76276   1.933  39.970   3.636
14911W        W76277  43.968   0.773  14.016
14912W        W76278  32.595  18.088  11.602
14913W        W76279  34.966   5.809   4.323
14914W        W76280  23.201   9.776   4.769
14915W        W76281  41.319   7.744   1.441
14916W        W76282   3.947  17.704  14.335
14917W        W76283   1.784  39.896  14.407
14918W        W76284   3.896  42.349   1.743
14919W        W76285  15.587  23.113   0.436
14920W        W76286  13.154   8.897  14.294
14921W        W76287   1.732  43.275   0.453
14922W        W76288  29.442   6.279   0.849
14923W        W76289  16.607  12.175  12.929
14924W        W76290  14.236  44.275  11.504
14925W        W76291  32.901  39.887   2.298
14926W        W76292  38.896  39.337   5.155
14927W        W76293  20.756  17.695  14.338
14928W        W76294   9.205  42.445   0.317
14929W        W76295  24.136   8.871  10.907
14930W        W76296  31.522  18.087   2.387
14931W        W76297  29.107  32.624  14.029
14932W        W76298   0.308  29.448   4.193
14933W        W76299  23.984  12.283  14.307
14934W        W76300  40.989   8.306  13.824
14935W        W76301  35.423  15.687  14.382
14936W        W76302   9.765   2.406   3.782
14937W        W76303  10.204  44.941   2.350
14938W        W76304   2.923  14.816   3.824
14939W        W76305  21.049  34.024  13.453
14940W        W76306  36.586  34.464  11.913
14941W        W76307  17.210  35.088  11.980
14942W        W76308  43.960  36.885  14.319
14943W        W76309  22.565   0.347  12.535
14944W        W76310  39.485  17.625   3.156
14945W        W76311  15.174  39.021   4.332
14946W        W76312  34.372  10.294   3.248
14947W        W76313   2.326  13.323   0.299
14948W        W76314  35.496  42.496  13.545
14949W        W76315  33.395   7.908   2.337
14950W        W76316  32.555  38.515  11.919
14951W        W76317  41.937   5.248   0.872
14952W        W76318  17.177   8.221   3.385
14953W        W76319  22.214  38.349   3.250
14954W        W76320   2.457  17.676   4.263
14955W        W76321  37.482   4.702  12.846
14956W        W76322  39.395  29.130   0.252
14957W        W76323  11.730  16.581  11.035
14958W        W76324  13.817  44.914   0.264
14959W        W76325   0.821  28.573  11.982
14960W        W76326  41.409  16.657   2.259
14961W        W76327  19.705  28.586  12.536
14962W        W76328  42.960  12.329   3.722
14963W        W76329  42.379   6.344  10.421
14964W        W76330  18.162  14.728   0.369
14965W        W76331  15.083  31.998  13.040
14966W        W76332  26.122   0.422   2.670
14967W        W76333  19.253  28.129  10.634
14968W        W76334  30.468  33.046   4.736
14969W        W76335  37.389  16.142   2.274
14970W        W76336  42.517  38.360   1.340
14971W        W76337  20.585   8.893  11.496
14972W        W76338  29.995  20.657   1.268
14973W        W76339  32.021  30.911   0.865
14974W        W76340  13.753  19.714  13.409
14975W        W76341   1.465   4.333  12.497
14976W        W76342  37.021  22.527   2.836
14977W        W76343  31.551  23.702  14.414
14978W        W76344  23.099  35.934  11.527
14979W        W76345  18.780  30.597   3.860
14980W        W76346  12.347  41.428   1.815
14981W        W76347  31.046   6.377  14.925
14982W        W76348  24.154  10.347  10.585
14983W        W76349   8.209  41.421   4.279
14984W        W76350  32.017  24.626  13.325
14985W        W76351  17.580   4.817  12.450
14986W        W76352  33.085   4.406   2.319
14987W        W76353  29.974  31.127  14.449
14988W        W76354  38.351  11.738   2.194
14989W        W76355  35.036  37.496   2.311
14990W        W76356  42.777  44.455   0.744
14991W        W76357   0.328   6.859  10.594
14992W        W76358  24.160   9.756  13.472
14993W        W76359  20.151  20.728  11.518
14994W        W76360  33.617  35.871   0.947
14995W        W76361   6.240   5.226  14.308
14996W        W76362   9.182  17.295   0.417
14997W        W76363  39.314  36.544   1.316
14998W        W76364  43.965  27.196  14.347
14999W        W76365  32.610  39.335   0.774
15000W        W76366  11.625  41.822   0.809
15001W        W76367  10.254  23.994  11.608
15002W        W76368  36.932  24.712   2.388
15003W        W76369   9.783  37.057  12.824
15004W        W76370  31.050  23.559  11.022
15005W        W76371  10.696  30.496  12.382
15006W        W76372  42.446  15.323  13.505
15007W        W76373  39.491  29.106   2.364
15008W        W76374  28.651  22.215  10.429
15009W        W76375   2.781  12.737  12.013
15010W        W76376   0.820   3.291  14.431
15011W        W76377   7.756  25.471  11.998
15012W        W76378  20.060  38.327  13.876
15013W        W76379  43.910  28.631   9.494
15014W        W76380  27.952  31.643   2.840
15015W        W76381  28.001  27.655  13.891
15016W        W76382  28.598  17.785   3.203
15017W        W76383  20.572  10.776   0.305
15018W        W76384  30.594  20.560  13.910
15019W        W76385  33.511  33.538   2.740
15020W        W76386  33.907  26.076  12.494
15021W        W76387  34.955  27.671  14.804
15022W        W76388  44.389  38.414  11.391
15023W        W76389  44.897  14.263  11.597
15024W        W76390  44.908  10.195   1.444
15025W        W76391  11.262  12.669  12.551
15026W        W76392  39.047   5.239  12.895
15027W        W76393   2.920  10.775   2.211
15028W        W76394  26.617  19.775  11.004
15029W        W76395  37.378  23.539   1.345
15030W        W76396  29.510   9.214  13.954
15031W        W76397  40.981  35.008   3.702
15032W        W76398  29.054  22.722   0.409
15033W        W76399  20.185  26.702   0.320
15034W        W76400   6.884  21.188   4.324
15035W        W76401  14.129  20.683   3.201
15036W        W76402  10.294  19.663   4.232
15037W        W76403  41.908  23.538   1.371
15038W        W76404  40.414   6.679   2.206
15039W        W76405   0.871  15.610  11.946
15040W        W76406   7.888  40.854   3.672
15041W        W76407   9.212  43.506   1.397
15042W        W76408  21.122  31.425   3.696
15043W        W76409  44.777  36.586   0.754
15044W        W76410   4.917  13.730   3.189
15045W        W76411  20.208  41.948   2.867
15046W        W76412  37.344  18.097  12.924
15047W        W76413  35.070  28.672   0.446
15048W        W76414  15.644  20.730  12.982
15049W        W76415  37.440  30.090  13.820
15050W        W76416  27.528  43.778   4.803
15051W        W76417  36.559  19.772  11.560
15052W        W76418  28.004   1.455  11.091
15053W        W76419   6.879  23.087  12.049
15054W        W76420  39.023   0.887   2.813
15055W        W76421  10.264   1.943  11.938
15056W        W76422  22.709  19.192  13.401
15057W        W76423   1.353  42.777  14.467
15058W        W76424   0.847  11.314  14.916
15059W        W76425  27.970  12.362  14.982
15060W        W76426   8.221  10.681  11.592
15061W        W76427  43.508  40.469  11.027
15062W        W76428  31.458  28.152  10.561
15063W        W76429   1.384   9.259   1.755
15064W        W76430  28.624  13.698  14.956
15065W        W76431   8.854  33.108  12.345
15066W        W76432  43.817   9.734   1.828
15067W        W76433   7.175  18.624   1.244
15068W        W76434  31.036   7.743   0.465
15069W        W76435  32.635  43.004  14.795
15070W        W76436  40.403  42.863  10.405
15071W        W76437  37.086  18.050   4.191
15072W        W76438  20.587   0.390  10.636
15073W        W76439  21.583  11.249  12.438
15074W        W76440  21.639   1.247   2.283
15075W        W76441  11.320  13.262  12.845
15076W        W76442  22.182   1.809  12.954
15077W        W76443   1.836  35.362   0.792
15078W        W76444  33.129  11.271   0.933
15079W        W76445   1.439  42.508   0.469
15080W        W76446   0.900   9.287  13.879
15081W        W76447   7.341   0.397  14.994
15082W        W76448   4.844  44.002  13.046
15083W        W76449  22.174  34.493  11.066
15084W        W76450  37.565  43.861  11.903
15085W        W76451  12.641  35.929   3.225
15086W        W76452   5.233   3.712   1.787
15087W        W76453  21.653  27.090  14.943
15088W        W76454   8.179  27.028  11.043
15089W        W76455  25.592  21.739   3.385
15090W        W76456  16.663  43.003   3.633
15091W        W76457  28.630  22.234   1.212
15092W        W76458  10.679  21.055  14.488
15093W        W76459   7.897  19.104  11.517
15094W        W76460  20.751  33.010   1.352
15095W        W76461  12.316   1.430  12.895
15096W        W76462  38.391  43.881  12.911
15097W        W76463  38.483  38.981   3.328
15098W        W76464  17.725  17.659  13.985
15099W        W76465  20.608  41.931  13.506
15100W        W76466  43.510  25.508   3.740
15101W        W76467  32.043   7.791  12.407
15102W        W76468  36.420   8.755  10.121
15103W        W76469  23.518  23.989  14.280
15104W        W76470  32.597  25.173  13.372
15105W        W76471   3.424  32.933   3.845
15106W        W76472  32.598  42.329  11.120
15107W        W76473  42.377  36.962   4.167
15108W        W76474  35.036  37.845   2.341
15109W        W76475  22.080  14.158  14.326
15110W        W76476  40.922   3.753   3.151
15111W        W76477   7.777  39.045   3.850
15112W        W76478  18.747  26.103   3.700
15113W        W76479  17.296  16.784   1.417
15114W        W76480  23.987  36.531  14.946
15115W        W76481  38.851  28.134   5.259
15116W        W76482  18.640   7.680  14.447
15117W        W76483  43.797  34.038  12.886
15118W        W76484  21.160   0.757   5.168
15119W        W76485  14.656  25.555   3.773
15120W        W76486  32.115  29.005   4.186
15121W        W76487  31.063  32.610  12.580
15122W        W76488  10.717  43.463  14.865
15123W        W76489   5.389  37.392   0.452
15124W        W76490  44.778  16.229   3.795
15125W        W76491   6.224  17.800  11.080
15126W        W76492  11.839  42.302  13.869
15127W        W76493   0.437  33.935   2.859
15128W        W76494  33.047  16.156  14.007
15129W        W76495  23.006   3.460   0.334
15130W        W76496  21.109   4.425   2.870
15131W        W76497   2.762  17.742  13.015
15132W        W76498  12.351  31.478   1.347
15133W        W76499  30.435  31.548   1.226
15134W        W76500   7.817  29.553   2.830
15135W        W76501  44.801  33.407  13.339
15136W        W76502   2.931  41.515  10.544
15137W        W76503   7.344  28.098   3.224
15138W        W76504  44.991  30.555  11.039
15139W        W76505   0.484  17.074  12.955
15140W        W76506  20.174  23.181  10.581
15141W        W76507   4.747  17.277   4.682
15142W        W76508  40.014  38.405   4.277
15143W        W76509   8.293   8.819   0.752
15144W        W76510  24.052   0.321   2.773
15145W        W76511  21.188  24.624   0.306
15146W        W76512  11.146  43.903   1.318
15147W        W76513  30.119   2.731  10.411
15148W        W76514  44.321  16.220   2.792
15149W        W76515  20.642  14.644   4.631
15150W        W76516   1.311  25.064  14.958
15151W        W76517  28.162   4.245  13.921
15152W        W76518   5.319   5.749   2.244
15153W        W76519   4.415  20.143   4.656
15154W        W76520  43.339  30.970   1.717
15155W        W76521  25.569   9.843  11.943
15156W        W76522  42.423   6.802   3.267
15157W        W76523  20.569   8.198  13.033
15158W        W76524  41.976  40.333  13.374
15159W        W76525  17.094  34.380  11.873
15160W        W76526   2.799   7.822   3.379
15161W        W76527  33.113   2.242  11.602
15162W        W76528  42.956   2.778   3.648
15163W        W76529  29.032   8.259   0.337
15164W        W76530  40.826   7.894   4.600
15165W        W76531  11.365  30.145   0.357
15166W        W76532   7.856   6.320  11.106
15167W        W76533   6.413  39.557  14.481
15168W        W76534  30.641   4.408   0.967
15169W        W76535  12.141  15.215   1.255
15170W        W76536  27.539  13.176   1.851
15171W        W76537  44.928  42.817   3.663
15172W        W76538  17.091  25.141   9.987
15173W        W76539   7.199   4.735  12.540
15174W        W76540  31.026  33.005  10.484
15175W        W76541  42.821  26.500  10.006
15176W        W76542  15.699  36.015  11.953
15177W        W76543  18.172  30.065   1.885
15178W        W76544  41.537  14.156  14.479
15179W        W76545  27.010  44.496   3.278
15180W        W76546  16.096  28.662   0.906
15181W        W76547  23.014   5.316  10.001
15182W        W76548   5.337  28.017   5.175
15183W        W76549   0.465  44.408  10.936
15184W        W76550  23.225   7.273  11.587
15185W        W76551   7.700   1.847   4.165
15186W        W76552   1.957   1.434   0.299
15187W        W76553  17.195  31.092  12.012
15188W        W76554  31.073   6.679  13.465
15189W        W76555   7.893  33.922  11.546
15190W        W76556  23.624  25.479   4.638
15191W        W76557  40.840  25.074   0.304
15192W        W76558  43.911  25.990  14.455
15193W        W76559   6.809  34.964  13.996
15194W        W76560  23.045  24.650   4.733
15195W        W76561  43.440  31.550  13.475
15196W        W76562  24.105  35.092   2.852
15197W        W76563  37.979  28.138  13.523
15198W        W76564  39.001  19.179  11.878
15199W        W76565  31.987   5.435   3.184
15200W        W76566  15.691  34.394   5.087
15201W        W76567   7.314  18.052   3.244
15202W        W76568  43.467   2.896   3.708
15203W        W76569  30.043  41.397   4.152
15204W        W76570  11.820  39.515   4.824
15205W        W76571  40.910  43.778  11.604
15206W        W76572  13.629  43.862   2.247
15207W        W76573  13.212  36.526  11.510
15208W        W76574  20.084  13.230   4.788
15209W        W76575  17.776  44.451  13.501
15210W        W76576   1.915  19.087   1.428
15211W        W76577  20.731  34.503  12.434
15212W        W76578  31.409   5.356   2.280
15213W        W76579  14.826  38.025   0.808
15214W        W76580  26.128  11.171  14.919
15215W        W76581  10.347   6.768   1.386
15216W        W76582  29.659   3.338   5.167
15217W        W76583  39.849  17.612   4.814
15218W        W76584  44.792   5.714  14.457
15219W        W76585  28.078  29.643  13.882
15220W        W76586  26.618  42.880  13.015
15221W        W76587  10.799  12.841   4.305
15222W        W76588  31.412   5.715   0.470
15223W        W76589  38.404  36.876  13.891
15224W        W76590  31.905  37.986  11.069
15225W        W76591  17.641  21.650   4.762
15226W        W76592  42.877  21.695  10.593
15227W        W76593   8.654   8.360   1.255
15228W        W76594  17.245  41.481   2.404
15229W        W76595   8.712  23.202  14.831
15230W        W76596  28.659  44.949  13.472
15231W        W76597   8.837  17.307   3.674
15232W        W76598  35.006  27.620   2.869
15233W        W76599  19.208  11.303  14.014
15234W        W76600  42.885   9.651  13.503
15235W        W76601  28.111  43.995  10.637
15236W        W76602  14.285  13.780   4.790
15237W        W76603  26.473  18.283   0.798
15238W        W76604  10.327   2.439   1.724
15239W        W76605  23.131   8.679   2.227
15240W        W76606  19.732  26.977   2.889
15241W        W76607  11.265  41.813   2.723
15242W        W76608  24.107   7.684   1.383
15243W        W76609  31.149  37.904  11.451
15244W        W76610  20.205   5.280  11.495
15245W        W76611   1.921  43.288   0.803
15246W        W76612   2.929  15.811   2.792
15247W        W76613  22.730  44.395   2.676
15248W        W76614   8.729   2.790  14.333
15249W        W76615  18.590  12.246  12.025
15250W        W76616  27.047  32.605   2.291
15251W        W76617  18.237  15.615  14.975
15252W        W76618   3.349  25.207   0.830
15253W        W76619   5.363  43.874   0.814
15254W        W76620  30.504   3.448  11.956
15255W        W76621  41.359  12.814   2.752
15256W        W76622  14.175  38.951  10.930
15257W        W76623   3.806  28.104   0.927
15258W        W76624  10.762  12.800  12.578
15259W        W76625  40.463  29.006  12.410
15260W        W76626  15.633   4.824  11.577
15261W        W76627  10.804  32.447  13.524
15262W        W76628  30.468   9.868   4.792
15263W        W76629  22.619  13.201  12.394
15264W        W76630  27.664   3.739  13.021
15265W        W76631  19.125  36.945  11.946
15266W        W76632  40.914  42.463   4.701
15267W        W76633  28.438  35.543   0.286
15268W        W76634  25.657   2.402   4.719
15269W        W76635  34.869  24.567   2.756
15270W        W76636  27.140  25.543   2.212
15271W        W76637   4.314  28.151   0.302
15272W        W76638  30.108  25.625   0.773
15273W        W76639  43.796  44.881  14.450
15274W        W76640  28.474  12.158  12.354
15275W        W76641  38.326  34.993  11.129
15276W        W76642  13.643  31.510   4.197
15277W        W76643  13.736  29.985  12.982
15278W        W76644  35.411  25.498   4.794
15279W        W76645  32.582  15.621   2.319
15280W        W76646  26.090  17.742  11.516
15281W        W76647  36.399   9.686   3.338
15282W        W76648  18.700  35.446  14.410
15283W        W76649  10.812  23.045  14.452
15284W        W76650  19.147  34.439   2.836
15285W        W76651  43.907  28.060  10.452
15286W        W76652  38.341   4.836  12.538
15287W        W76653  27.657  10.340   1.419
15288W        W76654  13.618  30.949   0.763
15289W        W76655  21.559  40.349   2.327
15290W        W76656  20.693  40.402   1.270
15291W        W76657   2.249  44.781  12.369
15292W        W76658  35.498  12.762   3.839
15293W        W76659   0.881  19.742  13.839
15294W        W76660  25.678  33.973  10.480
15295W        W76661  20.631  24.607  10.968
15296W        W76662  12.147  24.647   0.848
15297W        W76663  29.639  22.111  13.331
15298W        W76664  33.960  34.610  13.497
15299W        W76665  29.552  42.802   1.442
15300W        W76666  16.114  42.483  11.396
15301W        W76667  40.870   5.413  13.457
15302W        W76668  16.241  18.153  11.065
15303W        W76669  40.007   3.714  10.974
15304W        W76670  40.944  20.737  13.443
15305W        W76671   5.753   8.325  10.460
15306W        W76672   5.233   3.218   2.299
15307W        W76673  35.922   6.325   0.790
15308W        W76674  17.730  41.490  12.530
15309W        W76675  26.511   0.285  13.412
15310W        W76676  17.163   1.242  13.037
15311W        W76677   4.320  19.598   2.756
15312W        W76678  22.121  17.190  11.953
15313W        W76679  40.528   5.805   2.881
15314W        W76680  41.330  14.740  11.934
15315W        W76681  26.663   3.300  13.911
15316W        W76682   5.319   1.391  14.860
15317W        W76683  43.301  12.801  14.801
15318W        W76684  20.076  14.740   3.360
15319W        W76685  43.449  18.560   0.768
15320W        W76686   3.306  17.598   1.851
15321W        W76687  26.570  23.594   3.366
15322W        W76688   1.780  13.197   4.201
15323W        W76689  20.220  18.656  13.540
15324W        W76690   3.940  39.498   0.467
15325W        W76691  16.773   6.771  11.525
15326W        W76692   8.225  11.761  11.886
15327W        W76693   8.689  14.169   1.286
15328W        W76694  26.076  32.912  12.871
15329W        W76695  12.225  20.766  10.516
15330W        W76696   0.852  25.689  11.080
15331W        W76697  26.067  36.505   1.704
15332W        W76698   8.400   5.194   3.860
15333W        W76699  30.097  37.573  14.815
15334W        W76700  12.767  19.619   3.633
15335W        W76701  10.808  12.169  12.907
15336W        W76702  31.498  18.255  14.959
15337W        W76703  11.364   7.412   4.341
15338W        W76704  10.797  21.160   3.352
15339W        W76705   9.737  21.652  10.619
15340W        W76706  42.397   5.744   3.337
15341W        W76707   2.387  39.060   4.788
15342W        W76708  26.596  33.013  12.958
15343W        W76709  14.781  18.104   2.321
15344W        W76710  44.311  16.625   0.379
15345W        W76711  31.444  14.657  13.403
15346W        W76712  26.566  39.042   2.729
15347W        W76713  31.427  34.507  10.932
15348W        W76714  36.066  35.357   4.741
15349W        W76715   7.254  44.960   0.456
15350W        W76716  18.629   7.409   2.184
15351W        W76717  42.847  24.092   2.185
15352W        W76718  26.145  13.627  11.102
15353W        W76719  30.466   9.195  12.826
15354W        W76720  15.816  24.541   3.648
15355W        W76721  15.676   4.743  13.451
15356W        W76722  42.511  32.951  13.510
15357W        W76723  14.624  41.024   3.859
15358W        W76724  42.387   2.783  13.324
15359W        W76725  37.510  44.345   0.380
15360W        W76726  30.651  22.033   2.705
15361W        W76727  23.564  34.442   1.239
15362W        W76728   2.426  44.822   4.813
15363W        W76729  35.541  29.453   4.647
15364W        W76730  25.038  14.216   3.212
15365W        W76731  38.350  38.452  10.942
15366W        W76732  27.575   0.856  11.402
15367W        W76733  23.615   1.754   2.760
15368W        W76734   5.334  33.947  12.027
15369W        W76735  11.235  42.946   3.369
15370W        W76736  42.400  21.128   2.248
15371W        W76737  38.545  22.099   1.295
15372W        W76738   4.252  11.276  13.534
15373W        W76739  17.191   3.886  11.543
15374W        W76740  39.331  22.230  10.461
15375W        W76741  30.042   4.380  13.498
15376W        W76742  23.621  20.190  12.914
15377W        W76743  22.219  14.630   1.293
15378W        W76744  43.014  21.026  12.990
15379W        W76745  17.598  42.290  14.872
15380W        W76746  17.195  14.657  13.382
15381W        W76747  11.280  41.487  11.081
15382W        W76748  37.911  16.125   4.794
15383W        W76749   3.402  27.482   4.291
15384W        W76750  22.091  34.516   3.184
15385W        W76751   6.391  44.272  11.461
15386W        W76752  16.231  33.918  10.043
15387W        W76753  14.138  26.606  12.947
15388W        W76754  32.472  40.396   9.602
15389W        W76755  19.749  19.272   2.779
15390W        W76756   4.752  24.196   3.867
15391W        W76757  21.217   6.409  12.917
15392W        W76758  21.701  39.905  11.381
15393W        W76759  10.832  27.584  14.400
15394W        W76760  26.590  40.537  13.891
15395W        W76761  11.648  28.507   3.868
15396W        W76762  37.929  29.044   4.333
15397W        W76763  34.520  15.220   3.286
15398W        W76764  21.030  21.157  11.934
15399W        W76765   5.923   1.468   1.305
15400W        W76766  37.572  11.250  10.444
15401W        W76767  12.631   1.847  14.832
15402W        W76768  12.784  13.272  14.278
15403W        W76769  14.680  14.723   0.328
15404W        W76770  10.838   5.303   3.306
15405W        W76771  28.130   3.727   1.447
15406W        W76772   2.383  29.659  12.431
15407W        W76773  41.493  28.153   3.842
15408W        W76774   9.810  40.812  13.932
15409W        W76775  24.509   7.833  14.833
15410W        W76776  20.743  37.849  10.620
15411W        W76777   6.344  20.530   4.195
15412W        W76778   0.295  22.095   0.375
15413W        W76779  40.310  27.159   3.156
15414W        W76780  29.572  19.130  12.450
15415W        W76781  35.025   5.300  14.936
15416W        W76782  34.425  14.278  11.412
15417W        W76783  33.393  36.093   0.379
15418W        W76784   5.776  18.069   2.903
15419W        W76785  22.236  40.864   2.867
15420W        W76786  17.581  27.991  12.988
15421W        W76787   9.759  19.766   3.284
15422W        W76788  14.783  42.982  11.414
15423W        W76789  13.321   3.422   0.319
15424W        W76790  15.260  19.703   2.699
15425W        W76791  21.028  17.224  14.321
15426W        W76792  32.509  21.562   0.845
15427W        W76793  42.897   6.375   4.295
15428W        W76794  38.949  23.713  12.038
15429W        W76795  17.069  26.971  13.544
15430W        W76796  36.394  42.979  13.922
15431W        W76797  14.184   3.327   4.341
15432W        W76798   1.803  11.701   4.630
15433W        W76799  40.368  32.095  13.966
15434W        W76800  24.027  28.014  11.379
15435W        W76801  42.357  24.095  14.293
15436W        W76802  16.585  34.906   2.889
15437W        W76803  16.183   9.771   3.352
15438W        W76804  26.982   1.470  14.469
15439W        W76805  23.586  30.088   2.191
15440W        W76806  33.551   0.258   3.742
15441W        W76807  33.526   3.258  13.886
15442W        W76808   6.273  42.929  12.491
15443W        W76809   9.864  27.966   0.306
15444W        W76810  26.102  21.607  14.926
15445W        W76811  35.510  42.944   4.182
15446W        W76812  26.546  40.004   4.801
15447W        W76813   3.924   8.219  14.805
15448W        W76814  27.033  31.110   1.245
15449W        W76815   5.337  18.085   1.247
15450W        W76816  31.513  40.996  12.030
15451W        W76817  10.849  33.010   2.820
15452W        W76818  24.518  44.438   3.637
15453W        W76819  27.111   6.362   3.199
15454W        W76820  43.805  15.774   2.225
15455W        W76821  10.660  15.679   1.805
15456W        W76822  43.807  11.844   3.149
15457W        W76823  36.535  11.686   4.191
15458W        W76824  39.555  43.901   0.937
15459W        W76825  18.215  28.128   1.806
15460W        W76826  38.339  21.689  11.981
15461W        W76827  31.138  41.791   0.961
15462W        W76828  22.731  28.941   1.801
15463W        W76829   0.437  43.936  10.909
15464W        W76830   6.801   0.266   3.341
15465W        W76831  44.868  44.498  11.112
15466W        W76832  26.067  29.964   2.682
15467W        W76833   8.219  38.899  14.416
15468W        W76834  26.586  43.345  12.087
15469W        W76835  39.537   1.410   4.267
15470W        W76836  20.159   3.259  14.925
15471W        W76837   2.253  43.421   0.463
15472W        W76838  13.183  38.444  14.843
15473W        W76839  15.198  23.603   3.182
15474W        W76840  24.598  26.035  12.888
15475W        W76841   0.312  21.095   4.798
15476W        W76842  33.032   7.347   1.708
15477W        W76843   2.929  40.829  13.482
15478W        W76844   8.660   8.786   1.346
15479W        W76845  43.443  31.440   3.259
15480W        W76846   8.280  41.965  13.037
15481W        W76847  27.575  16.187  11.029
15482W        W76848  15.785  15.738   5.574
15483W        W76849  35.084  15.801  13.490
15484W        W76850   0.785  19.085   0.817
15485W        W76851  14.208  34.030   5.191
15486W        W76852   0.866  14.758   1.883
15487W        W76853  31.137  27.954   1.348
15488W        W76854  40.869  34.001  12.437
15489W        W76855  35.985   2.884   2.378
15490W        W76856   8.314  24.725   1.839
15491W        W76857   7.412  12.233   0.752
15492W        W76858   3.862  25.475  13.866
15493W        W76859  13.695   5.430   3.377
15494W        W76860  13.258  42.855   3.773
15495W        W76861  37.911  12.239  13.513
15496W        W76862  21.122  17.174   1.826
15497W        W76863  33.423  36.052  14.023
15498W        W76864  27.614  35.475  11.608
15499W        W76865   5.195  27.464   1.893
15500W        W76866  19.741  11.310   0.905
15501W        W76867   6.395  23.119  10.436
15502W        W76868  17.243  36.489   2.845
15503W        W76869   7.347  41.035  10.970
15504W        W76870  32.011  14.673   4.243
15505W        W76871  23.125  27.047   3.754
15506W        W76872  20.767  21.661  12.952
15507W        W76873   1.343  16.075  11.998
15508W        W76874  17.555   8.811  13.393
15509W        W76875  26.969  29.964  10.556
15510W        W76876  30.976  35.089   0.471
15511W        W76877  33.911  16.215   2.868
15512W        W76878   9.766  20.683   4.817
15513W        W76879  16.083  33.436  12.043
15514W        W76880  24.589  33.041   2.254
15515W        W76881  26.987  40.378   1.863
15516W        W76882   5.295  44.496  14.358
15517W        W76883  19.727  33.900  11.545
15518W        W76884   2.946  32.458  14.343
15519W        W76885   7.725  39.892  13.357
15520W        W76886  27.167  16.749  12.479
15521W        W76887   9.262  35.018  11.942
15522W        W76888  32.590  26.519  13.327
15523W        W76889  20.668  35.897  14.425
15524W        W76890   6.779  28.064  13.533
15525W        W76891  28.969  29.961   4.312
15526W        W76892  15.179  10.337  10.491
15527W        W76893  30.537  23.086  11.518
15528W        W76894   4.443  40.326   0.935
15529W        W76895  23.545  44.870  11.057
15530W        W76896  15.768  42.458  14.882
15531W        W76897  33.959  24.102   4.816
15532W        W76898   0.308   3.929  11.919
15533W        W76899   4.386   1.872   4.232
15534W        W76900   3.341  38.373  12.000
15535W        W76901  23.164  35.107  12.876
15536W        W76902   6.278   9.341   4.139
15537W        W76903  32.550   6.705   3.639
15538W        W76904  35.372  16.771   3.748
15539W        W76905  22.646  30.425  12.840
15540W        W76906  36.476  35.931  11.510
15541W        W76907  43.905  22.158  13.986
15542W        W76908  42.442   0.476  14.988
15543W        W76909  36.920  41.834   2.362
15544W        W76910  29.149  23.015   2.806
15545W        W76911  41.483  36.521  14.943
15546W        W76912   2.835  25.183  10.940
15547W        W76913   3.809  21.728  14.785
15548W        W76914  20.205  44.892  11.551
15549W        W76915  44.945  38.413  11.999
15550W        W76916  44.499  19.632   2.740
15551W        W76917  25.178  40.345   4.154
15552W        W76918  20.699  11.168  13.519
15553W        W76919  23.712   8.684   0.765
15554W        W76920  15.271  10.353  12.550
15555W        W76921   1.899  24.997  12.962
15556W        W76922  39.981  33.439  11.612
15557W        W76923   2.239  43.392  11.528
15558W        W76924  21.248  31.966   0.772
15559W        W76925  32.440   9.248  10.636
15560W        W76926  31.508  35.424  10.547
15561W        W76927  29.926  34.107   4.308
15562W        W76928  10.271  17.694   2.779
15563W        W76929  43.452   6.891   1.766
15564W        W76930  31.425  41.847   2.712
15565W        W76931  19.662  38.034   2.814
15566W        W76932  32.053  31.615   4.260
15567W        W76933   7.204  30.651   4.694
15568W        W76934  34.517  29.520   3.234
15569W        W76935  27.574  19.128   2.896
15570W        W76936   9.241  14.121  12.824
15571W        W76937  21.131   6.211   4.749
15572W        W76938  30.604  12.817  14.855
15573W        W76939  27.498  35.600   1.432
15574W        W76940  20.529  29.588  14.282
15575W        W76941  17.305  36.041  10.902
15576W        W76942  17.800  40.990   2.244
15577W        W76943   5.710  37.001   2.695
15578W        W76944  44.881  18.294  10.890
15579W        W76945  44.347  14.784  14.473
15580W        W76946  38.850  29.597   4.630
15581W        W76947   0.803  30.972   2.869
15582W        W76948  21.254   4.924   4.305
15583W        W76949  33.594  32.920   2.402
15584W        W76950  12.225   2.876  13.486
15585W        W76951  15.104  15.685  14.900
15586W        W76952   4.775  29.590   3.382
15587W        W76953  20.092  21.594   4.114
15588W        W76954  29.459  15.669  10.041
15589W        W76955   3.316  16.683   2.288
15590W        W76956  10.797  29.116   0.800
15591W        W76957  33.593  20.718   4.228
15592W        W76958   1.456  21.113   1.716
15593W        W76959  41.433  14.291  11.957
15594W        W76960  44.301  22.147  10.492
15595W        W76961  12.767  23.237   0.837
15596W        W76962  11.714   8.382   9.955
15597W        W76963  10.376  31.058   2.256
15598W        W76964  37.062  39.331   2.270
15599W        W76965  37.448  37.936  13.469
15600W        W76966   9.172   6.391   3.846
15601W        W76967  31.458  38.402   1.302
15602W        W76968   9.193  14.748   3.287
15603W        W76969   7.747  38.436   3.802
15604W        W76970   2.469  41.799   4.695
15605W        W76971  38.337  38.026   3.705
15606W        W76972   1.272  14.648  10.894
15607W        W76973  34.097  34.050   3.808
15608W        W76974   7.723   8.383   4.811
15609W        W76975  42.297  28.605   0.476
15610W        W76976  24.043  30.982  12.447
15611W        W76977   4.910  37.042  10.645
15612W        W76978   2.416  43.004  13.048
15613W        W76979  40.340   8.674  13.403
15614W        W76980  19.252  17.629   2.405
15615W        W76981  11.214  29.163   3.750
15616W        W76982  14.590   2.726  14.030
15617W        W76983  37.478   4.855  14.425
15618W        W76984  13.660   8.379  14.399
15619W        W76985  29.575  14.212   4.334
15620W        W76986   2.395  27.465  12.884
15621W        W76987   0.854  16.115  14.516
15622W        W76988   0.338  33.950   3.786
15623W        W76989  13.192  17.726   3.296
15624W        W76990  17.708  44.863  10.620
15625W        W76991  28.581  27.069  13.412
15626W        W76992  40.881   6.220  10.583
15627W        W76993  14.340  10.172   1.725
15628W        W76994  15.762  10.762  14.441
15629W        W76995  34.909   4.326   2.394
15630W        W76996  27.992  41.874  10.411
15631W        W76997   7.719  44.262  14.995
15632W        W76998  33.973  34.470  13.027
15633W        W76999   3.797  41.429   3.255
15634W        W77000  34.876  37.992   0.916
15635W        W77001   7.808   8.676  12.415
15636W        W77002   8.283   3.280   1.829
15637W        W77003  32.451   0.832  13.972
15638W        W77004  33.094  27.170  14.276
15639W        W77005   8.868   7.828   5.209
15640W        W77006  43.974   3.953  10.949
15641W        W77007   5.760  38.825  10.511
15642W        W77008  31.096  34.454  14.900
15643W        W77009   3.253   4.350  12.865
15644W        W77010   2.275  41.350  11.413
15645W        W77011  41.985   4.885   0.875
15646W        W77012  12.237  26.107  13.533
15647W        W77013   5.905  20.123   0.452
15648W        W77014  34.115  38.409   2.309
15649W        W77015  31.138  15.214   3.310
15650W        W77016  14.291  20.598  12.473
15651W        W77017  26.040  34.441  14.424
15652W        W77018  37.460   2.846   3.840
15653W        W77019  23.503  11.236   0.403
15654W        W77020  19.668  20.547  10.904
15655W        W77021   2.461  15.612   2.734
15656W        W77022  10.858   8.707  11.396
15657W        W77023  25.006   1.443   2.792
15658W        W77024  35.595  31.004  13.955
15659W        W77025   0.888  39.030   0.466
15660W        W77026  12.760   5.317  12.988
15661W        W77027   4.833  15.638   1.265
15662W        W77028  10.834  33.499  14.399
15663W        W77029  35.863  32.610   1.443
15664W        W77030  16.243  23.035   3.647
15665W        W77031  29.118  41.975  10.567
15666W        W77032   7.785  34.378  11.076
15667W        W77033  24.648   4.263  10.064
15668W        W77034   5.877  26.622  12.518
15669W        W77035  27.601   1.859   1.925
15670W        W77036  27.094  25.989   2.212
15671W        W77037   0.906   6.229   1.805
15672W        W77038  12.762  38.427  11.439
15673W        W77039  24.994   3.221  12.020
15674W        W77040  12.152   2.348  14.499
15675W        W77041  13.775  16.300   3.352
15676W        W77042  24.182   4.721   5.629
15677W        W77043   5.314  14.607  10.482
15678W        W77044  28.990   2.318  12.079
15679W        W77045  26.644  36.558   1.329
15680W        W77046   0.801   7.291  10.011
15681W        W77047  26.187  16.211   2.684
15682W        W77048   2.238  21.594  13.886
15683W        W77049  14.138  35.567  12.826
15684W        W77050   1.965   1.863   0.772
15685W        W77051  20.684  40.968  11.390
15686W        W77052  10.260  31.591  11.440
15687W        W77053  41.389  17.252  11.509
15688W        W77054   3.405  43.874  13.327
15689W        W77055  23.538  24.574   2.402
15690W        W77056  22.562  29.926  10.948
15691W        W77057  37.929  30.634  12.341
15692W        W77058   8.287  29.111   3.673
15693W        W77059  20.179  26.161  11.458
15694W        W77060  31.591  15.714  11.919
15695W        W77061  36.442  15.612  14.854
15696W        W77062  16.102  10.709   2.339
15697W        W77063   0.935  38.508  11.416
15698W        W77064   7.258  33.388   2.724
15699W        W77065  15.771  22.618   4.658
15700W        W77066  21.084  24.203  12.979
15701W        W77067   3.925  18.742  11.894
15702W        W77068  35.415  25.158   1.312
15703W        W77069   3.726  16.144   5.291
15704W        W77070  26.647  31.552   4.704
15705W        W77071  21.657   3.944  14.942
15706W        W77072  42.505  29.953  10.551
15707W        W77073  24.216   9.840  14.999
15708W        W77074  27.682  30.506   5.613
15709W        W77075  42.510  15.281  11.958
15710W        W77076   5.402  38.860   0.921
15711W        W77077   1.958  37.337   0.947
15712W        W77078  15.637  41.864  11.057
15713W        W77079  26.593  12.217   3.663
15714W        W77080  16.765  43.916   3.725
15715W        W77081  24.628  18.233   0.913
15716W        W77082  35.077  36.509   0.803
15717W        W77083  16.754  19.240  10.544
15718W        W77084  17.629  13.762  11.465
15719W        W77085  10.754  15.175   1.773
15720W        W77086  41.825   0.370   4.751
15721W        W77087  33.060  18.548  11.078
15722W        W77088  38.567  10.238   4.204
15723W        W77089  14.337  21.082   0.390
15724W        W77090   7.884  38.489   4.769
15725W        W77091  32.557  43.440  14.805
15726W        W77092  37.391  42.491   0.298
15727W        W77093  31.606   7.376  13.977
15728W        W77094  34.610  39.320   9.478
15729W        W77095  26.653  26.972  12.000
15730W        W77096  22.680   8.717  11.559
15731W        W77097   0.354  36.857   3.646
15732W        W77098  33.004  33.043  10.483
15733W        W77099   9.293  17.292   9.551
15734W        W77100  25.045  40.470  14.341
15735W        W77101   6.264  24.059  10.603
15736W        W77102  22.182  25.207   1.233
15737W        W77103  28.987  14.761  11.987
15738W        W77104  39.852  35.061   0.403
15739W        W77105  11.164  30.054   4.811
15740W        W77106  10.675  27.469  12.843
15741W        W77107   7.774  10.677   1.251
15742W        W77108  42.845  31.971  10.000
15743W        W77109  25.625  36.476   1.430
15744W        W77110  19.241   1.954   0.268
15745W        W77111  26.470   9.801  11.859
15746W        W77112   2.376  16.269  11.029
15747W        W77113  28.516  41.996  14.790
15748W        W77114   3.786  11.321   1.929
15749W        W77115  10.195  43.799  14.877
15750W        W77116  22.097  18.593   1.216
15751W        W77117  10.858  41.516   0.921
15752W        W77118   4.411  15.150   5.178
15753W        W77119  34.396   1.459  14.413
15754W        W77120  33.543  30.517  14.297
15755W        W77121  18.714   0.925   0.473
15756W        W77122   4.354  26.987  12.421
15757W        W77123   3.844  18.210   0.470
15758W        W77124  27.158  26.646  10.086
15759W        W77125  34.061  40.448   0.860
15760W        W77126  42.790  26.114   2.232
15761W        W77127  44.315  35.082   3.668
15762W        W77128  36.850  35.082   2.312
15763W        W77129   4.261  12.236  13.370
15764W        W77130  35.076  21.588  13.909
15765W        W77131  21.026  32.500   1.251
15766W        W77132  44.980  36.565   2.242
15767W        W77133  35.996  25.477  12.491
15768W        W77134  36.524  12.855  11.577
15769W        W77135  19.704  34.443   3.208
15770W        W77136  15.204   4.206   2.674
15771W        W77137  33.542   9.217  14.804
15772W        W77138  30.931  19.723   2.838
15773W        W77139  15.185  20.163  14.836
15774W        W77140  16.726  26.976  11.448
15775W        W77141  38.824  13.748   1.260
15776W        W77142  35.090   7.895   2.391
15777W        W77143  38.843  32.497  13.478
15778W        W77144  39.892  20.690   3.716
15779W        W77145  34.096  43.780   3.171
15780W        W77146   7.403  12.275   0.255
15781W        W77147   2.780  12.197  14.358
15782W        W77148  22.735  39.471  13.797
15783W        W77149  14.687  26.960   1.435
15784W        W77150  25.107  34.545  14.829
15785W        W77151  41.029  28.954   0.942
15786W        W77152   5.326  40.544   2.836
15787W        W77153  15.758  20.715   3.731
15788W        W77154  44.772  21.080  14.771
15789W        W77155  42.402  10.838   0.298
15790W        W77156  41.407   5.893  11.861
15791W        W77157  24.550  38.446  12.529
15792W        W77158  19.647  12.255   1.441
15793W        W77159   5.872   4.801   3.677
15794W        W77160  39.055   4.724  11.585
15795W        W77161   0.369  20.717  13.798
15796W        W77162   3.873  35.429  12.529
15797W        W77163  20.265  44.431  10.469
15798W        W77164  25.160  10.194  12.469
15799W        W77165  20.586  29.479   2.341
15800W        W77166  23.545  40.364  11.510
15801W        W77167  31.503  16.641   1.765
15802W        W77168   0.794  29.572  12.939
15803W        W77169   4.439  17.597  13.928
15804W        W77170  43.953  10.301  14.386
15805W        W77171  18.652  37.579   5.099
15806W        W77172  19.643   9.281   1.767
15807W        W77173   6.901  37.368   0.476
15808W        W77174   1.781  11.217  10.930
15809W        W77175  42.522  15.719   4.144
15810W        W77176  18.189  28.557  14.965
15811W        W77177  12.778  41.803   3.757
15812W        W77178   7.911   1.800  12.455
15813W        W77179  12.315  37.406   4.822
15814W        W77180  21.033   1.756  10.631
15815W        W77181  43.010  13.725  13.511
15816W        W77182  26.563   6.829  14.508
15817W        W77183  36.962   6.908  10.904
15818W        W77184  27.087  43.799   2.291
15819W        W77185  11.816   0.357  11.466
15820W        W77186  14.645  31.109   0.359
15821W        W77187  33.912  13.667  12.940
15822W        W77188  25.667  43.853   1.875
15823W        W77189  38.985   5.788  14.987
15824W        W77190  16.669  25.003  12.422
15825W        W77191  22.020  31.506  12.475
15826W        W77192  21.563  42.293   1.314
15827W        W77193  30.535  35.604  11.913
15828W        W77194   9.806  15.595   0.304
15829W        W77195  11.811   0.280   3.657
15830W        W77196  14.103  24.605  12.560
15831W        W77197  15.734  38.913   0.742
15832W        W77198  41.428  27.503   1.912
15833W        W77199  43.848  38.891   2.319
15834W        W77200  44.968   3.428   3.732
15835W        W77201  10.671  16.261   1.322
15836W        W77202  11.293  11.355  11.894
15837W        W77203  17.617  16.749   0.388
15838W        W77204  23.643   6.779   3.236
15839W        W77205  20.045  20.194  14.432
15840W        W77206  24.203   3.855  14.286
15841W        W77207  16.193   4.311  13.021
15842W        W77208  40.939  23.505   1.902
15843W        W77209   2.916  41.456   4.708
15844W        W77210  43.354  40.872   0.384
15845W        W77211  18.251  13.794  11.437
15846W        W77212  20.661  33.983  14.868
15847W        W77213   0.921   8.674  12.076
15848W        W77214  14.134  13.667   1.709
15849W        W77215  11.807  31.118   2.739
15850W        W77216  36.865  12.697  10.529
15851W        W77217  41.829  29.092  12.354
15852W        W77218  35.421   4.860  11.573
15853W        W77219  13.716   3.393  12.955
15854W        W77220  17.187  40.894  14.500
15855W        W77221   0.340  38.380  10.637
15856W        W77222  14.289  35.478  13.447
15857W        W77223  12.263   6.406   1.810
15858W        W77224  12.802   5.206  13.971
15859W        W77225   2.730  39.495  11.082
15860W        W77226   3.824   5.249  13.988
15861W        W77227  35.089  23.599  11.047
15862W        W77228   0.845   0.959  13.516
15863W        W77229   9.758  25.056  11.921
15864W        W77230  28.600  37.987   2.867
15865W        W77231  16.620   9.747   3.834
15866W        W77232   2.908  35.503   2.220
15867W        W77233  30.446  18.231   1.218
15868W        W77234  33.096  37.356   4.157
15869W        W77235  29.998  23.722   2.296
15870W        W77236  13.784  17.136   0.243
15871W        W77237  28.100  12.329   3.248
15872W        W77238  43.496  44.758   4.682
15873W        W77239  26.626  44.341   2.192
15874W        W77240   2.957  21.060  14.506
15875W        W77241  22.239  11.327   2.745
15876W        W77242  28.441   0.473   0.731
15877W        W77243   7.857  37.072   4.739
15878W        W77244  28.962  29.623   2.316
15879W        W77245   9.878  35.963  12.081
15880W        W77246  27.092  12.350   3.808
15881W        W77247  31.636  16.279   0.305
15882W        W77248  41.529  31.057   2.378
15883W        W77249   4.329  27.181   4.678
15884W        W77250  18.279  26.481   2.399
15885W        W77251   7.278   3.332  11.960
15886W        W77252   3.404   3.755  11.008
15887W        W77253  38.831  32.951  14.463
15888W        W77254  32.049  44.979   0.354
15889W        W77255  34.374  32.034  14.491
15890W        W77256  11.310   4.381  13.449
15891W        W77257  29.440  40.893   1.719
15892W        W77258   0.272   2.309   1.775
15893W        W77259   8.657   0.474  10.596
15894W        W77260   8.323   2.418   4.185
15895W        W77261  32.566  15.670   3.656
15896W        W77262  10.363  43.425   0.275
15897W        W77263  34.488  30.932  13.820
15898W        W77264  20.078  24.502   1.796
15899W        W77265   7.293  24.102  11.019
15900W        W77266  44.446  19.054   2.397
15901W        W77267   0.339  27.658   5.276
15902W        W77268  42.319  28.047  10.557
15903W        W77269  25.669  39.017   4.601
15904W        W77270   4.742  17.158  11.483
15905W        W77271  17.212  16.596  10.451
15906W        W77272   1.764  44.791   3.273
15907W        W77273  23.567   5.332  10.029
15908W        W77274  29.537  24.064   0.745
15909W        W77275  35.420  37.500  10.490
15910W        W77276  35.973  22.083  13.377
15911W        W77277   4.213  23.561  12.340
15912W        W77278   5.819  44.346  13.974
15913W        W77279  40.818  43.967  13.054
15914W        W77280   2.266  35.869   4.753
15915W        W77281  16.672  11.306  11.113
15916W        W77282  12.773  25.064   2.701
15917W        W77283   3.880  26.674  14.511
15918W        W77284   0.744  41.536   1.696
15919W        W77285   1.370  32.015   0.351
15920W        W77286  34.398  14.645  12.011
15921W        W77287  11.254   5.918  13.523
15922W        W77288  34.048  16.732   0.815
15923W        W77289  42.415  17.205   0.293
15924W        W77290  18.273  43.809  11.611
15925W        W77291  17.760   0.478  13.512
15926W        W77292  22.604   8.341   1.434
15927W        W77293  34.094  10.768  11.863
15928W        W77294   4.942  14.176  10.991
15929W        W77295  36.025  44.364   3.715
15930W        W77296  36.966  21.180   4.618
15931W        W77297  29.024  41.304  11.042
15932W        W77298  44.784  40.495   0.438
15933W        W77299  42.836   9.816  13.886
15934W        W77300  37.950  36.535  10.902
15935W        W77301   7.688  14.100   3.671
15936W        W77302  24.693   5.912   3.656
15937W        W77303  40.358   1.887  12.368
15938W        W77304  10.187  22.685   1.407
15939W        W77305   8.664  18.657  14.458
15940W        W77306  41.823  26.162  13.931
15941W        W77307  35.474   7.671  12.487
15942W        W77308   7.822  26.083   4.138
15943W        W77309  20.185  18.656  12.474
15944W        W77310  39.363   8.287   0.249
15945W        W77311  34.925  18.257  12.519
15946W        W77312  14.768  34.533   4.166
15947W        W77313  20.687  36.079  11.036
15948W        W77314  15.774  23.609   0.397
15949W        W77315  42.871  25.202   1.370
15950W        W77316  44.277  26.642   4.689
15951W        W77317  40.498  43.785  11.576
15952W        W77318  19.748  22.684  14.784
15953W        W77319  24.668  13.607   3.728
15954W        W77320  20.544  16.108  13.542
15955W        W77321  33.382  26.099  13.525
15956W        W77322  12.286   1.794  14.515
15957W        W77323  24.178  40.403   4.698
15958W        W77324  14.787  15.084  13.437
15959W        W77325  29.981  20.709  13.916
15960W        W77326  41.310  28.118  13.924
15961W        W77327  17.119  17.280   1.328
15962W        W77328  37.850  39.366   4.279
15963W        W77329  31.471  14.669  13.970
15964W        W77330  41.398  35.482  13.479
15965W        W77331  22.537  42.486  13.024
15966W        W77332  29.587  20.675  11.516
15967W        W77333  36.029  18.717   0.452
15968W        W77334  32.520  36.525  11.372
15969W        W77335  21.566   8.162  12.087
15970W        W77336  15.660   9.854   2.335
15971W        W77337  29.107  41.000  14.775
15972W        W77338  34.027   2.746   1.399
15973W        W77339  11.724   3.792  10.419
15974W        W77340  21.179  22.166   4.679
15975W        W77341  37.573  27.998   0.448
15976W        W77342  25.646  19.178   2.737
15977W        W77343  19.665  11.315   3.347
15978W        W77344  40.389  14.188   4.157
15979W        W77345   4.771   2.358   1.847
15980W        W77346  33.900   2.875   4.196
15981W        W77347  15.626   5.792  11.494
15982W        W77348  10.212  13.206   3.735
15983W        W77349   4.395  16.153  13.393
15984W        W77350   1.823  40.385  14.794
15985W        W77351   4.350   9.715   1.253
15986W        W77352   1.388  24.518   3.687
15987W        W77353   0.382   5.805  13.959
15988W        W77354  13.203  41.297  13.008
15989W        W77355   3.939   6.190  11.922
15990W        W77356  15.158   0.489  14.787
15991W        W77357  18.726  24.149   2.305
15992W        W77358  16.718  17.294   3.257
15993W        W77359  36.908  17.261  11.926
15994W        W77360   8.717  23.648   3.369
15995W        W77361  37.347  34.901   2.416
15996W        W77362  30.539  20.030   2.280
15997W        W77363   4.896  28.000   4.640
15998W        W77364  36.495  25.569  14.465
15999W        W77365   3.376   2.827   2.190
16000W        W77366  17.268  19.604  14.761
16001W        W77367  18.176  19.255  14.864
16002W        W77368  13.169  33.911   3.835
16003W        W77369  23.996   6.759   2.280
16004W        W77370   0.805   3.233   1.225
16005W        W77371  44.437  23.105  10.983
16006W        W77372  21.625  33.025   9.638
16007W        W77373  23.127  21.538   0.391
16008W        W77374  10.768  24.613  10.428
16009W        W77375  32.532  37.989   0.470
16010W        W77376  25.153  15.635  14.843
16011W        W77377  38.023  11.632  12.919
16012W        W77378  22.536  21.670   4.164
16013W        W77379   3.765  42.787   0.442
16014W        W77380  41.995  16.604   3.252
16015W        W77381  33.539   2.244  10.585
16016W        W77382  26.483  30.563   2.733
16017W        W77383  39.977  11.205   4.768
16018W        W77384  25.193  44.481  13.027
16019W        W77385   5.807  27.545  14.435
16020W        W77386  32.969  28.184  11.084
16021W        W77387  29.975  23.633   1.711
16022W        W77388  30.966   7.787   3.174
16023W        W77389  28.106  31.027  12.072
16024W        W77390  12.744   6.790   1.806
16025W        W77391  21.025  18.721   2.780
16026W        W77392  19.573  38.420  13.387
16027W        W77393  23.599  25.192  14.983
16028W        W77394  30.002  18.260   1.920
16029W        W77395  25.156  14.240  14.390
16030W        W77396  27.150   5.278  12.579
16031W        W77397  24.495  33.591  10.637
16032W        W77398   7.350  12.820  11.084
16033W        W77399  34.599  35.972  14.325
16034W        W77400  10.245  17.225  14.441
16035W        W77401  20.217  38.832  13.835
16036W        W77402  34.938  38.984  12.017
16037W        W77403  34.414  11.763  14.905
16038W        W77404  14.594  36.497   1.238
16039W        W77405  13.130  26.672  14.909
16040W        W77406  19.601   0.453   2.360
16041W        W77407  30.438  28.137   3.152
16042W        W77408  36.560  32.006   1.369
16043W        W77409   2.240  21.543  14.925
16044W        W77410  44.419  23.120  12.356
16045W        W77411  38.478  25.627   2.875
16046W        W77412  27.551   0.347   4.319
16047W        W77413  28.566   9.776   4.230
16048W        W77414   2.278  43.430   1.395
16049W        W77415   8.868  12.795   0.374
16050W        W77416  33.972  29.048  13.040
16051W        W77417  15.763   4.358  13.053
16052W        W77418  27.122  20.675  13.339
16053W        W77419   5.695  27.618  11.507
16054W        W77420  29.050  16.165  12.876
16055W        W77421  29.426   8.790   1.862
16056W        W77422   4.811   8.333   3.234
16057W        W77423   6.737  20.148  13.033
16058W        W77424  12.310  13.194   2.211
16059W        W77425  41.965  32.393   1.229
16060W        W77426  23.220  10.285  11.118
16061W        W77427  38.365  34.966   0.314
16062W        W77428  23.037  29.980  13.446
16063W        W77429  20.049  26.532   4.157
16064W        W77430  22.114  28.091   2.694
16065W        W77431  18.654  22.096  11.126
16066W        W77432   9.777  39.529  13.934
16067W        W77433  12.203  20.575   4.135
16068W        W77434  29.512  12.335   2.216
16069W        W77435  37.480  13.815   3.862
16070W        W77436  23.576  10.801  13.871
16071W        W77437   3.389  33.502  14.462
16072W        W77438  38.933  29.934   3.256
16073W        W77439   6.274  39.462   4.131
16074W        W77440  36.937   7.883  10.644
16075W        W77441  39.487  37.478  11.951
16076W        W77442   4.785  42.926   3.372
16077W        W77443   2.235  39.975  14.833
16078W        W77444  11.170  40.016  14.342
16079W        W77445  17.301  18.549  13.308
16080W        W77446   8.716  35.503   1.386
16081W        W77447  10.758  32.521  10.609
16082W        W77448  23.616   3.398   1.326
16083W        W77449  23.522   1.977   1.225
16084W        W77450  16.748  38.410   1.695
16085W        W77451  16.710  26.096  11.516
16086W        W77452  44.333  27.504  14.486
16087W        W77453  16.725  24.496   2.218
16088W        W77454  42.971  23.208   0.263
16089W        W77455  19.552  32.107   4.307
16090W        W77456  27.452  10.757  13.009
16091W        W77457  41.344   3.828  11.108
16092W        W77458  11.622  20.247   2.264
16093W        W77459  28.529  25.084   0.760
16094W        W77460   0.747  20.165  10.418
16095W        W77461   0.955  11.280   1.254
16096W        W77462   1.885  25.579  13.347
16097W        W77463  20.622   3.445  11.036
16098W        W77464  40.329  28.969  14.511
16099W        W77465  27.979  12.629  10.439
16100W        W77466  19.582  39.877   2.722
16101W        W77467   8.282  34.495   0.767
16102W        W77468  25.217  22.209  10.518
16103W        W77469   3.750  14.590  11.424
16104W        W77470   7.242  43.333   4.251
16105W        W77471  20.561  42.282  13.954
16106W        W77472  17.647  11.733  13.476
16107W        W77473  32.531  16.147  13.951
16108W        W77474  31.418  14.096   1.699
16109W        W77475   9.669  39.890   4.730
16110W        W77476  27.035  24.230   0.920
16111W        W77477  15.754   4.220   2.398
16112W        W77478  11.710  11.717   3.848
16113W        W77479  20.174  32.125   2.850
16114W        W77480  25.002  10.256   1.432
16115W        W77481  39.942  16.666   0.934
16116W        W77482  18.205  40.446  10.606
16117W        W77483  37.553   8.723  10.022
16118W        W77484  10.156  41.893   3.241
16119W        W77485  11.857  35.882   9.966
16120W        W77486  17.791  18.189  12.990
16121W        W77487  10.342  10.822  14.447
16122W        W77488   3.951  30.931  14.850
16123W        W77489  35.917  30.082  10.596
16124W        W77490  15.145  32.012   1.266
16125W        W77491  24.699  26.982  14.459
16126W        W77492  41.949  33.990   4.178
16127W        W77493  30.659  13.794  14.870
16128W        W77494  34.539  20.214   1.811
16129W        W77495  33.520  35.580  11.600
16130W        W77496  43.446  15.608   1.710
16131W        W77497  34.394  42.919   3.208
16132W        W77498   9.804  17.232   3.795
16133W        W77499   9.267  40.934  10.516
16134W        W77500  11.766  17.610  12.345
16135W        W77501  13.149  14.108   3.863
16136W        W77502  25.102  31.036  10.441
16137W        W77503  13.279  42.305   3.174
16138W        W77504   1.757  42.871   4.802
16139W        W77505  26.471  36.010  10.104
16140W        W77506  14.172  34.491   1.846
16141W        W77507   4.279   5.240   0.811
16142W        W77508   4.767   4.311  14.859
16143W        W77509  26.175  29.447  13.474
16144W        W77510  22.730   6.826   4.174
16145W        W77511   4.866   2.896   5.115
16146W        W77512   0.416  24.200   2.347
16147W        W77513   4.729  25.006  10.415
16148W        W77514  41.508  42.937  11.443
16149W        W77515  44.405  20.140   0.352
16150W        W77516  40.428  39.550   2.221
16151W        W77517  20.753   9.766  11.489
16152W        W77518  32.889  21.186   2.687
16153W        W77519  40.878  26.674  12.937
16154W        W77520  40.548  43.788   1.871
16155W        W77521  28.644  39.980  12.924
16156W        W77522   9.824  19.170   2.277
16157W        W77523  30.636  15.800  12.453
16158W        W77524  44.443  37.948   4.680
16159W        W77525  27.986  25.512  10.899
16160W        W77526   8.773  28.090  13.873
16161W        W77527  36.080  42.347   3.287
16162W        W77528  31.459  14.097   1.373
16163W        W77529  19.596  29.952  11.439
16164W        W77530   5.738  38.909  14.767
16165W        W77531   7.222   8.864   0.357
16166W        W77532  39.519  24.010   4.765
16167W        W77533  18.664  31.042   3.335
16168W        W77534  16.212   0.856  11.419
16169W        W77535  11.792  34.867   0.781
16170W        W77536  10.729   6.814   3.310
16171W        W77537  31.077  22.187   2.743
16172W        W77538   5.365  40.948   0.439
16173W        W77539  28.623  34.544   3.774
16174W        W77540  31.131  31.961   5.249
16175W        W77541  41.298  29.445   3.660
16176W        W77542  35.559  40.967   1.291
16177W        W77543  20.222  26.030   3.345
16178W        W77544   8.289  23.214  12.413
16179W        W77545   3.906  33.468   0.861
16180W        W77546  26.528  14.284  11.486
16181W        W77547  35.593  30.946   0.875
16182W        W77548  11.169  38.028   3.174
16183W        W77549  11.754  42.823  12.455
16184W        W77550  29.592  17.104  11.464
16185W        W77551  19.210  23.205  12.015
16186W        W77552  40.522  15.686   4.645
16187W        W77553  19.661  39.860  13.911
16188W        W77554  26.480  22.539   2.253
16189W        W77555  20.212  43.502  11.106
16190W        W77556  36.886  16.141  11.435
16191W        W77557  36.943  32.097   3.250
16192W        W77558  31.932  31.915   1.819
16193W        W77559   8.755  22.668  13.350
16194W        W77560  21.635   1.399   0.340
16195W        W77561  16.693  26.052  11.048
16196W        W77562   8.337  34.537  14.787
16197W        W77563   7.896  37.976   0.363
16198W        W77564  43.995  23.512   0.424
16199W        W77565  22.143  13.269   4.318
16200W        W77566   3.306  21.051  10.549
16201W        W77567  33.411  33.393  12.841
16202W        W77568  33.518  15.085  10.136
16203W        W77569   0.324  11.235   4.602
16204W        W77570  22.610  15.757   5.144
16205W        W77571   4.900  36.920   9.995
16206W        W77572  42.945   5.418   3.211
16207W        W77573  30.018   4.383   0.786
16208W        W77574  11.331   7.322   1.746
16209W        W77575  42.472  20.621  13.348
16210W        W77576  32.588  19.193  12.042
16211W        W77577   6.362  15.816  12.538
16212W        W77578  12.295  38.421  11.018
16213W        W77579  14.301  37.346   4.684
16214W        W77580   1.444  27.655   2.352
16215W        W77581  18.562  31.929   1.263
16216W        W77582  29.454  30.013   5.213
16217W        W77583  19.063  10.659  12.961
16218W        W77584   9.770  26.063   1.785
16219W        W77585  25.623  19.684  13.054
16220W        W77586  30.047   8.379  14.028
16221W        W77587  22.012  10.224  11.979
16222W        W77588  31.501   1.419   2.226
16223W        W77589  32.052  40.394  14.453
16224W        W77590  16.675  22.133   0.841
16225W        W77591   0.491  36.484  13.933
16226W        W77592  41.025  24.979   2.726
16227W        W77593  23.649  17.752  11.878
16228W        W77594  13.293  44.476  10.551
16229W        W77595  38.019   2.452   4.781
16230W        W77596  33.481  22.646  14.492
16231W        W77597   1.376  13.238  13.865
16232W        W77598  22.658  35.943  12.510
16233W        W77599  32.123   0.317  13.339
16234W        W77600   4.349  25.028   0.404
16235W        W77601   8.771   6.402  14.892
16236W        W77602  19.717  33.447  14.389
16237W        W77603  20.104  18.591   0.835
16238W        W77604  18.290  34.386   1.749
16239W        W77605  20.567  38.556   4.759
16240W        W77606   6.861   8.730   5.206
16241W        W77607   3.406  14.307  12.579
16242W        W77608  41.524  27.131   4.618
16243W        W77609  39.321  43.882   1.905
16244W        W77610  30.029  42.963   3.348
16245W        W77611  30.516  33.099   2.863
16246W        W77612  13.775  13.762   3.236
16247W        W77613  30.450  32.519  12.580
16248W        W77614  25.167  31.967  13.329
16249W        W77615   8.746  33.469  11.375
16250W        W77616   0.930   8.741   4.173
16251W        W77617  18.574  18.252   0.291
16252W        W77618  38.456  41.356   3.797
16253W        W77619  26.524  40.980  13.856
16254W        W77620  43.466  20.694  12.464
16255W        W77621  20.174  23.000  14.936
16256W        W77622   8.296   8.305   3.295
16257W        W77623  29.456  17.643   1.286
16258W        W77624  11.836  11.683  14.859
16259W        W77625  28.173  37.506   3.163
16260W        W77626  14.260  11.295  13.461
16261W        W77627  22.589  16.590  10.496
16262W        W77628  39.384  35.557  13.863
16263W        W77629   4.743   4.281   1.299
16264W        W77630  35.045  20.099   3.269
16265W        W77631  43.271  27.128  13.895
16266W        W77632   3.404  38.360   0.407
16267W        W77633   9.153  19.107   4.226
16268W        W77634  37.371  41.493   3.162
16269W        W77635  15.183   5.368  12.419
16270W        W77636  40.322  37.975  11.538
16271W        W77637  21.076  41.503  14.369
16272W        W77638  33.895  21.736  14.865
16273W        W77639  15.194  43.367   2.237
16274W        W77640   5.196  13.208   2.888
16275W        W77641   2.235  33.464   9.966
16276W        W77642   2.434  23.579  13.874
16277W        W77643  44.913  15.134   0.794
16278W        W77644  21.569  16.731   2.790
16279W        W77645  38.502  16.107  11.520
16280W        W77646  41.917   7.828  11.915
16281W        W77647  18.683   3.793   4.640
16282W        W77648   3.261  30.544  12.052
16283W        W77649  26.600  24.680   4.193
16284W        W77650  10.726  44.434   1.736
16285W        W77651  22.197  30.040   1.841
16286W        W77652   0.420  18.547   0.740
16287W        W77653  43.474  20.569   0.780
16288W        W77654   9.657  33.579  14.887
16289W        W77655  22.549  41.384   4.307
16290W        W77656  13.196  10.263   0.753
16291W        W77657  39.938  19.094  13.545
16292W        W77658  15.190  41.983  13.492
16293W        W77659   4.234   0.387  12.987
16294W        W77660  15.705  37.075   2.308
16295W        W77661   7.837  33.007  13.308
16296W        W77662  36.375  21.658   1.210
16297W        W77663  29.476   7.861  10.546
16298W        W77664  22.660  11.168  11.074
16299W        W77665  25.547  43.394  12.094
16300W        W77666  26.700  11.627  11.890
16301W        W77667  26.073  10.287   1.823
16302W        W77668  32.073   7.684   0.892
16303W        W77669  19.280  15.658  14.973
16304W        W77670  18.216  34.100  13.945
16305W        W77671  15.156  20.167   0.905
16306W        W77672  24.011   4.883   2.333
16307W        W77673  40.350  17.256   2.330
16308W        W77674  40.907  36.479  12.479
16309W        W77675  34.511  39.487  10.639
16310W        W77676   4.227  43.818  10.507
16311W        W77677  10.183  31.588   3.739
16312W        W77678   2.854  41.320   1.699
16313W        W77679  17.146  26.633   5.206
16314W        W77680  23.697   2.364   4.599
16315W        W77681  14.275  19.747   2.319
16316W        W77682  15.785  16.104   5.157
16317W        W77683  16.590  34.517   0.309
16318W        W77684  44.503  40.357  11.450
16319W        W77685  35.972  41.324  13.352
16320W        W77686  18.757  21.555  11.429
16321W        W77687   5.235  20.121  11.933
16322W        W77688  40.370   2.286  12.885
16323W        W77689   4.872  40.872   5.149
16324W        W77690  31.131  22.527   0.958
16325W        W77691   6.385  12.620  13.377
16326W        W77692  36.442  13.124   3.198
16327W        W77693   1.398  23.085   2.748
16328W        W77694   5.692  34.578  13.054
16329W        W77695  16.145  23.134  13.026
16330W        W77696  14.248  24.633  14.840
16331W        W77697  32.138  36.980  11.031
16332W        W77698  12.136  41.363   0.899
16333W        W77699  14.118  11.833   3.209
16334W        W77700  13.240  44.937   4.608
16335W        W77701  26.144  14.256  14.485
16336W        W77702  38.046   5.337   2.266
16337W        W77703   7.365  15.180   0.435
16338W        W77704  30.077  32.965  14.867
16339W        W77705  32.054   6.739  12.572
16340W        W77706  41.012   2.234   1.281
16341W        W77707  29.045  18.747  12.424
16342W        W77708  16.630  37.518  11.608
16343W        W77709  33.086   4.817  13.900
16344W        W77710  34.879   3.884   2.686
16345W        W77711   8.210   2.769   1.392
16346W        W77712   7.285  19.239  14.767
16347W        W77713  33.510  36.091   4.242
16348W        W77714  42.481  10.310   0.419
16349W        W77715  10.667  36.515  10.523
16350W        W77716  43.353  33.483  14.502
16351W        W77717   8.899  19.231  13.427
16352W        W77718   8.874  31.536   3.697
16353W        W77719  35.538  30.027   1.437
16354W        W77720  43.822   3.294  14.342
16355W        W77721  35.402  23.652   2.226
16356W        W77722  29.580  20.201  14.343
16357W        W77723  19.246  14.618  13.813
16358W        W77724  40.395   4.851  13.385
16359W        W77725  38.863  36.910  12.969
16360W        W77726  44.981  13.140   3.701
16361W        W77727  22.620  11.238   9.933
16362W        W77728   2.934  15.771   0.446
16363W        W77729  33.572  34.437  14.781
16364W        W77730  23.108  29.164   1.396
16365W        W77731  14.157  23.175  14.439
16366W        W77732  17.177   8.823   4.147
16367W        W77733  25.625  12.798   1.777
16368W        W77734  19.708  28.616  13.883
16369W        W77735  42.524  43.994   1.421
16370W        W77736  36.389  33.059   3.268
16371W        W77737  14.650   9.216   4.719
16372W        W77738  20.078   9.227   1.301
16373W        W77739  14.217  25.586   2.784
16374W        W77740  13.272  30.138   3.850
16375W        W77741  25.200  21.218   3.726
16376W        W77742  43.918  29.539  13.827
16377W        W77743  23.183  19.634  10.482
16378W        W77744   9.714   3.754  10.501
16379W        W77745  22.703   7.369  13.500
16380W        W77746  14.283  21.527  13.920
16381W        W77747  13.794  39.032   2.263
16382W        W77748  22.715  27.062  12.874
16383W        W77749  37.578  21.026   1.865
16384W        W77750  32.025  42.803  12.386
16385W        W77751  41.890  30.138   3.180
16386W        W77752  15.243   6.415  11.111
16387W        W77753  40.420  41.983   1.327
16388W        W77754  41.445  11.852  11.065
16389W        W77755  36.026  36.864   3.759
16390W        W77756  15.781  38.060   2.800
16391W        W77757  32.598  11.207  12.917
16392W        W77758  22.102  27.619   2.893
16393W        W77759   3.747  28.036   3.716
16394W        W77760  41.362  11.848   3.662
16395W        W77761  23.502  24.113  12.355
16396W        W77762  41.039  36.088   0.857
16397W        W77763  39.852  24.011  12.040
16398W        W77764  43.880  31.056   3.254
16399W        W77765  42.012  29.428   1.776
16400W        W77766   6.841   3.256   2.786
16401W        W77767   5.304  41.396  13.340
16402W        W77768  44.389  12.192  12.419
16403W        W77769  32.103  18.050  10.632
16404W        W77770  29.636  12.350   3.677
16405W        W77771  28.090  37.407   0.766
16406W        W77772  43.791  29.529   3.157
16407W        W77773  33.594  27.951  10.515
16408W        W77774  29.655  10.740  11.126
16409W        W77775  32.911   3.358   1.332
16410W        W77776  41.538   2.758  13.921
16411W        W77777  40.816   4.311  12.528
16412W        W77778  37.929   8.713  14.808
16413W        W77779  21.726  26.682  14.993
16414W        W77780  42.998   2.826  11.124
16415W        W77781  13.690  34.090  14.280
16416W        W77782  37.054  31.149  12.929
16417W        W77783  13.219  10.340  14.332
16418W        W77784  28.056  24.724   2.365
16419W        W77785  11.753  37.434  12.445
16420W        W77786   1.875  29.501  14.306
16421W        W77787  44.489  14.661   2.285
16422W        W77788  43.979  30.129  10.093
16423W        W77789  34.924  10.675  10.931
16424W        W77790  16.195  17.663  14.342
16425W        W77791  36.412  39.554  11.006
16426W        W77792  39.015  40.860   1.299
16427W        W77793   0.926  24.626   3.660
16428W        W77794  39.376  26.116   2.886
16429W        W77795  31.569  20.546  11.385
16430W        W77796   9.195  32.091  13.970
16431W        W77797  19.594  13.659  10.530
16432W        W77798   1.887  22.711  14.408
16433W        W77799  34.527  28.134   3.202
16434W        W77800  17.071  41.032  13.546
16435W        W77801   1.428  40.485  12.994
16436W        W77802  14.625  10.737  12.514
16437W        W77803  12.706   9.336  14.428
16438W        W77804   1.455  10.660  13.803
16439W        W77805  40.545  42.478   3.316
16440W        W77806  21.717  39.065  10.495
16441W        W77807  41.364   1.819   1.767
16442W        W77808  34.580   3.802  10.935
16443W        W77809   3.729  41.032  12.490
16444W        W77810   0.366  12.812  10.407
16445W        W77811  31.451   5.894   2.266
16446W        W77812  29.014   1.808  10.930
16447W        W77813  44.442  28.668  11.059
16448W        W77814  13.120  40.819  12.090
16449W        W77815  34.415  43.297   3.330
16450W        W77816  34.422  40.412  11.391
16451W        W77817  40.911  32.923  12.055
16452W        W77818   4.769  38.017   3.251
16453W        W77819  24.497  43.016  11.421
16454W        W77820  44.792   1.318  14.760
16455W        W77821  13.191  21.236  11.505
16456W        W77822   5.354   0.892  11.602
16457W        W77823   3.416   5.809   3.802
16458W        W77824  14.172  12.282  13.481
16459W        W77825   5.904  28.492  10.916
16460W        W77826  33.077  21.200  13.838
16461W        W77827   0.477  41.380   3.153
16462W        W77828   2.854  16.248   1.765
16463W        W77829  26.060  43.895  12.510
16464W        W77830   9.840  19.757  13.519
16465W        W77831  20.054   0.977   0.433
16466W        W77832   7.336  31.066  13.407
16467W        W77833  37.352  43.291  14.861
16468W        W77834   6.211  23.062  11.464
16469W        W77835  10.666  38.843   3.767
16470W        W77836  30.605  19.657  13.980
16471W        W77837   2.895  11.861  11.451
16472W        W77838  21.671  17.274   3.632
16473W        W77839  10.290   0.818  14.008
16474W        W77840  27.132   0.270  13.024
16475W        W77841   6.679  27.680  13.855
16476W        W77842  25.050  18.052  10.498
16477W        W77843  28.059  17.242  11.893
16478W        W77844  26.153  20.030  12.426
16479W        W77845  22.682  35.038  14.370
16480W        W77846  29.489  13.115   1.894
16481W        W77847   7.238   5.290  13.342
16482W        W77848  17.755  36.533   4.730
16483W        W77849   1.743   0.849  12.059
16484W        W77850  14.325   7.258  12.484
16485W        W77851  28.668  38.338  12.514
16486W        W77852  37.539  32.006   0.321
16487W        W77853  16.684  13.275  14.508
16488W        W77854   8.679   1.849  13.899
16489W        W77855  31.632  36.558   3.195
16490W        W77856  22.035   6.869   2.857
16491W        W77857  13.818  36.384   3.262
16492W        W77858   9.294   9.837  13.336
16493W        W77859  37.864   3.742   2.396
16494W        W77860  35.544  38.822   2.367
16495W        W77861  27.648  12.273   4.202
16496W        W77862  24.137   9.166   0.730
16497W        W77863  40.305   9.840  11.981
16498W        W77864  16.750  32.537  13.528
16499W        W77865  39.018   8.276  14.924
16500W        W77866  32.077  27.956   0.471
16501W        W77867  39.968  37.471  12.906
16502W        W77868  10.678  32.993   2.303
16503W        W77869  36.886  35.588   4.258
16504W        W77870  23.999  34.422   1.928
16505W        W77871  28.066  38.452  11.025
16506W        W77872  19.222  15.590   0.413
16507W        W77873  22.595   2.469  10.516
16508W        W77874   2.748  42.978   1.327
16509W        W77875  37.931  29.105   0.358
16510W        W77876  13.776   9.822   0.937
16511W        W77877  11.712  30.919  10.104
16512W        W77878  22.739  17.173  13.880
16513W        W77879  29.606  35.869   0.481
16514W        W77880  39.883  15.660   0.273
16515W        W77881  36.094  15.683  11.456
16516W        W77882   4.378  24.583  14.880
16517W        W77883   9.682  17.218  12.488
16518W        W77884  39.363  15.717  12.926
16519W        W77885  26.970   1.242   3.838
16520W        W77886   6.295  14.762   0.254
16521W        W77887  39.964  34.973  13.943
16522W        W77888   8.690  10.189  10.506
16523W        W77889  20.696  18.266  13.992
16524W        W77890  33.897  39.885  11.930
16525W        W77891  21.179   4.888  11.054
16526W        W77892  22.047  41.015  12.004
16527W        W77893  41.786  43.855  14.826
16528W        W77894   8.354  30.146   0.820
16529W        W77895   2.789   3.411   5.660
16530W        W77896   9.694  21.693  10.992
16531W        W77897  44.811   9.226   4.178
16532W        W77898   7.203  29.975  10.581
16533W        W77899   6.714  17.799   4.236
16534W        W77900   5.918  21.140  13.430
16535W        W77901   1.303  36.388  13.452
16536W        W77902  23.654  10.642   4.806
16537W        W77903  36.466  17.180  14.997
16538W        W77904  28.110  40.045   1.743
16539W        W77905  33.940  11.681  11.526
16540W        W77906  23.046  16.081  10.425
16541W        W77907  40.522   9.381  10.528
16542W        W77908  15.632   6.274   2.324
16543W        W77909  38.020  10.766  14.337
16544W        W77910  35.035  17.280   1.444
16545W        W77911  42.468  44.420   1.727
16546W        W77912  34.995   1.864   2.683
16547W        W77913  30.930  38.908  14.465
16548W        W77914  15.189  11.764   4.663
16549W        W77915  24.165  23.527  12.468
16550W        W77916  11.661  40.800   4.354
16551W        W77917  25.012  12.794  10.559
16552W        W77918  44.321  36.982  14.433
16553W        W77919  20.233   7.287  11.099
16554W        W77920  29.936  33.985  11.974
16555W        W77921   5.286  13.742  11.990
16556W        W77922  24.712  17.719   2.742
16557W        W77923  30.625  13.124   0.467
16558W        W77924  44.884   7.805  10.479
16559W        W77925  21.133  15.168  12.574
16560W        W77926   4.732   7.894   1.387
16561W        W77927  33.002   2.943   4.354
16562W        W77928   4.942  34.519  10.967
16563W        W77929   3.784   8.183   2.729
16564W        W77930  35.086   1.443   4.631
16565W        W77931  11.807  29.522   4.200
16566W        W77932  12.780   8.886  13.819
16567W        W77933   9.283  42.977   4.146
16568W        W77934   2.241  34.957  11.555
16569W        W77935   1.328  29.036  12.964
16570W        W77936  44.790   2.904  13.882
16571W        W77937  14.180  42.943  13.830
16572W        W77938  43.359   9.775  14.856
16573W        W77939  28.492  17.637   1.864
16574W        W77940  21.758   3.810  14.330
16575W        W77941   2.724  37.492  12.920
16576W        W77942  40.909  35.441  12.406
16577W        W77943  43.961  12.129  10.486
16578W        W77944   1.470  31.145   2.711
16579W        W77945   8.244   1.851  14.347
16580W        W77946  25.135  12.853  14.976
16581W        W77947  25.586  35.466   3.215
16582W        W77948  37.455  44.829   2.206
16583W        W77949  18.277   0.896   0.843
16584W        W77950  14.594  37.394   2.867
16585W        W77951  26.524  23.167  10.963
16586W        W77952  38.936   4.350  11.065
16587W        W77953  18.105  38.526  12.976
16588W        W77954  13.183   5.833  10.642
16589W        W77955  14.232  38.422  11.078
16590W        W77956  28.033  11.668  12.995
16591W        W77957  44.307  34.889  14.917
16592W        W77958  35.856  10.859  14.779
16593W        W77959  22.545  14.207  11.984
16594W        W77960  16.166  14.772   3.646
16595W        W77961   6.353  21.751  10.940
16596W        W77962  27.503   6.250   0.867
16597W        W77963  43.768   4.358  13.807
16598W        W77964  12.193  31.578  14.487
16599W        W77965  21.243  31.973  10.027
16600W        W77966  17.707   7.817   2.664
16601W        W77967  31.074  41.510  12.457
16602W        W77968  44.893  31.636   4.154
16603W        W77969  39.408  31.603  13.370
16604W        W77970  32.524  27.185   1.737
16605W        W77971  33.560   9.811  11.396
16606W        W77972  24.570  18.669   1.327
16607W        W77973  41.313   7.300   4.797
16608W        W77974   6.328  40.339  12.554
16609W        W77975  18.062  37.435  12.533
16610W        W77976  20.530  25.044  14.462
16611W        W77977   6.772   9.800  13.056
16612W        W77978  19.140  35.872  14.511
16613W        W77979  23.008  37.959   3.339
16614W        W77980   2.948  36.349  11.453
16615W        W77981   1.249  32.523   4.715
16616W        W77982  10.688  38.820   2.757
16617W        W77983  30.557  44.901   3.365
16618W        W77984  28.014  13.617  13.832
16619W        W77985  43.348  20.661  11.023
16620W        W77986  14.252  44.321  14.893
16621W        W77987  15.738  30.070   3.193
16622W        W77988  19.267  29.511   3.792
16623W        W77989  18.575   7.827  10.587
16624W        W77990  26.487  39.539  12.958
16625W        W77991   0.252  20.765  14.490
16626W        W77992  40.822  12.851  11.522
16627W        W77993   5.901  27.114   0.302
16628W        W77994  27.624  38.990  11.974
16629W        W77995  39.028  44.496  10.116
16630W        W77996   1.301  13.238  13.031
16631W        W77997  28.064  32.472   2.845
16632W        W77998  15.121  20.084   4.733
16633W        W77999  16.575   5.301   1.803
16634W        W78000  13.702  18.063   2.267
16635W        W78001  10.201  15.783   2.835
16636W        W78002   8.262  15.090  14.865
16637W        W78003   4.801  37.384  12.963
16638W        W78004   6.835  25.976   4.712
16639W        W78005   5.375  37.574  14.282
16640W        W78006  28.016   2.359  10.974
16641W        W78007   1.323  39.537  11.957
16642W        W78008  40.847  27.998  10.556
16643W        W78009   2.831  23.989  12.870
16644W        W78010   5.855   6.753   4.660
16645W        W78011  13.345  38.334   1.343
16646W        W78012  27.977  11.364  11.585
16647W        W78013  33.993   1.341  12.372
16648W        W78014  20.764  22.118   4.150
16649W        W78015  40.483  31.988   2.253
16650W        W78016   1.336   6.680   3.262
16651W        W78017  17.299  13.612  10.130
16652W        W78018  37.854  32.634  10.411
16653W        W78019   8.308   9.289  14.881
16654W        W78020  26.570  42.381  10.927
16655W        W78021  37.336  39.975   1.290
16656W        W78022  23.131  20.584  11.985
16657W        W78023  20.559  25.004   2.192
16658W        W78024  18.771  32.941   3.734
16659W        W78025  19.142  14.131  14.759
16660W        W78026   7.851  18.665  13.529
16661W        W78027  40.456  44.997   0.730
16662W        W78028  31.146   5.322   4.713
16663W        W78029   9.714  10.270   0.873
16664W        W78030  25.574   6.274  10.918
16665W        W78031  15.675  13.260   3.302
16666W        W78032  42.462  31.564   0.451
16667W        W78033  37.551  41.833   4.617
16668W        W78034  25.178  30.419   3.632
16669W        W78035   3.832  26.529   3.772
16670W        W78036  31.028  11.155  13.033
16671W        W78037  27.999   8.832   3.373
16672W        W78038  36.978  17.155   2.863
16673W        W78039  23.235  19.237   3.316
16674W        W78040  34.469  26.555   4.745
16675W        W78041   2.737   4.236  13.932
16676W        W78042  18.777  16.199  14.806
16677W        W78043  24.978  38.426   3.292
16678W        W78044  11.691  31.493   0.469
16679W        W78045  24.112  13.801   2.717
16680W        W78046   0.849  38.498   1.907
16681W        W78047   5.255  31.977   0.296
16682W        W78048  21.232  24.017  11.871
16683W        W78049  24.017  22.213   1.735
16684W        W78050  14.101  27.179  14.850
16685W        W78051  35.529  32.566  13.971
16686W        W78052  16.074  18.249  13.008
16687W        W78053   7.346  17.793  13.379
16688W        W78054  26.547   3.931   4.797
16689W        W78055  29.156   0.826  13.403
16690W        W78056  11.351  43.014   0.927
16691W        W78057  15.730  10.235  12.037
16692W        W78058  33.431  37.868   3.226
16693W        W78059   4.762   3.327   0.355
16694W        W78060  15.591  13.637   1.741
16695W        W78061  10.251  12.855  12.951
16696W        W78062   2.411  19.212   4.768
16697W        W78063  34.075   3.926   2.261
16698W        W78064  34.607   8.299   3.785
16699W        W78065  11.636  14.148  12.949
16700W        W78066  28.024  15.712   3.291
16701W        W78067  31.939   4.390  14.456
16702W        W78068  11.356  37.439  13.423
16703W        W78069   2.788  11.209   3.226
16704W        W78070  41.931  37.524   2.414
16705W        W78071  19.574  35.072  12.035
16706W        W78072  39.048  16.647   1.877
16707W        W78073   1.457  13.132   2.417
16708W        W78074  40.422  28.095  13.548
16709W        W78075  32.599  21.717  14.898
16710W        W78076  31.918  34.523   4.176
16711W        W78077  21.628  33.937   2.197
16712W        W78078   6.253   3.453   1.705
16713W        W78079   3.862  27.451   1.317
16714W        W78080   5.903  39.988  11.394
16715W        W78081   7.222  43.496  13.886
16716W        W78082   9.217  31.111   4.781
16717W        W78083  14.260  18.109   3.793
16718W        W78084  43.985  21.054  11.121
16719W        W78085   2.789  36.907  13.978
16720W        W78086  43.439  16.659  10.573
16721W        W78087  11.146   3.416   2.385
16722W        W78088  42.424   3.430   3.794
16723W        W78089  40.022  43.867   1.879
16724W        W78090  44.925  42.850   1.718
16725W        W78091  22.673   5.736  13.001
16726W        W78092   7.304  10.714   1.352
16727W        W78093  31.434   6.782  13.319
16728W        W78094  22.728  36.074   2.246
16729W        W78095  34.092  16.174  14.865
16730W        W78096   0.481  16.130   2.266
16731W        W78097  42.308  30.065  11.423
16732W        W78098  19.590  31.433  11.442
16733W        W78099  18.229   2.290  11.408
16734W        W78100  42.469  29.136  13.533
16735W        W78101  10.642  11.191   0.415
16736W        W78102  17.113  37.533  13.370
16737W        W78103  38.009  10.701   3.283
16738W        W78104  33.046  23.049  11.556
16739W        W78105  36.355  18.241   0.400
16740W        W78106   7.911  44.490  11.373
16741W        W78107   3.299  26.145   0.459
16742W        W78108  23.646   0.268   0.271
16743W        W78109   5.915  43.964   2.723
16744W        W78110  29.143   7.796  14.922
16745W        W78111  41.854  20.040   4.174
16746W        W78112  29.519  39.045   1.300
16747W        W78113  16.241   2.309   3.224
16748W        W78114  25.020  16.211  14.810
16749W        W78115  21.197  16.700  13.423
16750W        W78116   2.227  38.533   0.874
16751W        W78117  24.097  11.682  12.527
16752W        W78118  20.153  32.423   1.371
16753W        W78119  19.061  35.904   1.424
16754W        W78120  10.747  43.492   3.163
16755W        W78121   9.796   4.350  13.448
16756W        W78122   4.231  18.220  11.463
16757W        W78123  19.197   8.857  11.011
16758W        W78124   7.762  34.881   2.798
16759W        W78125  13.723  17.099   4.242
16760W        W78126  43.805  22.691   3.866
16761W        W78127  23.102  25.510   3.380
16762W        W78128   2.772  11.738  12.513
16763W        W78129  41.358  10.234  10.469
16764W        W78130  35.473  26.178   4.599
16765W        W78131  34.991  40.507  12.927
16766W        W78132  39.528  17.081   0.929
16767W        W78133   6.345  36.046   2.782
16768W        W78134  38.915  37.878  13.329
16769W        W78135  29.931  36.484  14.404
16770W        W78136  33.540  23.589  11.552
16771W        W78137  31.641   1.973  10.486
16772W        W78138  10.264  29.928   1.929
16773W        W78139  43.809  19.093  14.313
16774W        W78140  36.561  29.486  11.459
16775W        W78141  40.860   0.483   4.702
16776W        W78142  31.581  33.930   3.213
16777W        W78143  23.094  43.960   1.439
16778W        W78144   0.394   2.434   1.221
16779W        W78145  21.126  33.943   2.394
16780W        W78146  30.945  24.117  13.799
16781W        W78147  10.143  43.483   3.691
16782W        W78148   5.232  37.969  13.808
16783W        W78149  31.111  41.363   1.865
16784W        W78150   1.272   1.736  14.878
16785W        W78151  35.461   3.272  12.959
16786W        W78152  25.483  10.187  11.925
16787W        W78153  43.810   2.730  10.496
16788W        W78154   6.865  10.652   4.145
16789W        W78155  35.916  14.266  14.929
16790W        W78156   2.791  27.978  13.531
16791W        W78157  38.037  31.441   3.682
16792W        W78158  36.404   0.329   4.219
16793W        W78159  21.215  13.788  14.353
16794W        W78160  21.193  30.646   0.785
16795W        W78161  32.511  36.505  14.422
16796W        W78162   1.330  30.086  14.392
16797W        W78163  37.052   5.279   4.794
16798W        W78164  21.245  29.091   1.743
16799W        W78165  40.508  23.236  13.892
16800W        W78166  23.657  29.636  12.972
16801W        W78167  14.317  27.495  10.466
16802W        W78168   5.306   7.885   2.413
16803W        W78169  26.143  18.216   0.809
16804W        W78170  32.013  23.174  14.878
16805W        W78171  41.012  31.431  14.375
16806W        W78172  11.666   4.419  11.586
16807W        W78173  30.944  39.891  10.599
16808W        W78174  41.477  11.796  13.330
16809W        W78175  10.237  42.457  10.407
16810W        W78176   9.663  18.754   1.347
16811W        W78177   7.346  37.040   2.385
16812W        W78178  43.477  41.851   2.208
16813W        W78179  20.736  38.330  10.922
16814W        W78180  17.155  42.308   1.395
16815W        W78181  21.250   3.939  11.520
16816W        W78182  36.361   6.676  10.958
16817W        W78183  25.133  16.317   0.771
16818W        W78184  39.498  30.052  11.927
16819W        W78185  16.604  25.594   4.319
16820W        W78186  24.075  33.490   3.235
16821W        W78187  42.918  19.668   3.713
16822W        W78188  16.181  34.478   5.094
16823W        W78189  41.005  17.148   2.311
16824W        W78190   9.385  26.051   4.672
16825W        W78191  20.687  12.137   0.737
16826W        W78192  30.125  34.386   4.622
16827W        W78193  26.639  38.041   0.364
16828W        W78194  10.225  10.835   3.304
16829W        W78195  39.526  21.570  13.989
16830W        W78196   5.895  36.099   1.237
16831W        W78197  18.069  23.649  13.838
16832W        W78198  16.685   6.730  11.925
16833W        W78199  14.273  15.648   0.326
16834W        W78200  18.681  14.180   3.205
16835W        W78201  16.090  33.384   0.775
16836W        W78202  22.684   0.370   1.814
16837W        W78203  25.006  25.001  13.485
16838W        W78204   9.684  25.551   0.368
16839W        W78205  33.545  12.689   4.205
16840W        W78206  16.709  44.936  12.091
16841W        W78207  38.975   5.757   0.897
16842W        W78208   3.415  10.287  14.467
16843W        W78209  29.076   9.206   1.695
16844W        W78210  39.917  29.103  14.830
16845W        W78211  43.498  27.969   4.268
16846W        W78212  28.518   0.937  14.324
16847W        W78213  12.799  18.654   4.301
16848W        W78214   8.669  26.150   4.770
16849W        W78215  31.079   3.834  13.857
16850W        W78216  21.142  37.018  11.427
16851W        W78217  32.118  22.550  10.428
16852W        W78218  20.649   2.908   2.222
16853W        W78219  16.134  18.711   0.343
16854W        W78220  24.083   1.388   3.841
16855W        W78221  35.006  40.912   3.850
16856W        W78222  27.965  31.069   1.796
16857W        W78223  17.758  20.190   1.303
16858W        W78224  26.112  21.623   4.278
16859W        W78225  27.118   7.828  10.938
16860W        W78226  22.616   7.674   1.879
16861W        W78227  41.534   3.312  13.958
16862W        W78228  18.745   8.872  12.495
16863W        W78229   1.781  33.024  12.050
16864W        W78230   4.839   7.713  12.502
16865W        W78231  41.013   6.359   4.323
16866W        W78232   7.287  11.237   4.735
16867W        W78233   9.349   2.437   1.284
16868W        W78234  31.601  20.694  13.535
16869W        W78235  28.181  37.919   4.598
16870W        W78236   9.839  28.669  12.485
16871W        W78237  35.079  12.179   0.867
16872W        W78238   6.878  37.543   2.264
16873W        W78239   5.421  10.698  12.011
16874W        W78240  19.776  41.960  10.471
16875W        W78241  30.657  28.645  10.907
16876W        W78242  26.201   5.230   0.866
16877W        W78243  19.607  21.260  10.947
16878W        W78244  13.709  23.021   2.891
16879W        W78245   5.877  23.224   1.747
16880W        W78246  41.833  14.102   2.791
16881W        W78247  26.528  24.120   5.097
16882W        W78248  37.018  17.099   3.198
16883W        W78249   7.784  30.934  13.423
16884W        W78250  11.822  34.088  13.041
16885W        W78251   0.350  11.635  14.934
16886W        W78252  11.803  34.967  13.834
16887W        W78253   8.846  17.595  13.851
16888W        W78254  38.461  33.560   0.949
16889W        W78255  44.922   6.876  10.507
16890W        W78256  39.473   8.703  14.909
16891W        W78257  31.514   2.746  12.030
16892W        W78258  38.429   3.725  14.768
16893W        W78259   4.400  35.913   3.270
16894W        W78260  31.498  17.214   4.630
16895W        W78261  41.948  23.159   4.334
16896W        W78262   1.364   4.333  11.877
16897W        W78263   2.834  10.273   3.377
16898W        W78264  36.043   3.912  11.110
16899W        W78265   9.855  37.835  13.037
16900W        W78266  37.404  14.192   0.894
16901W        W78267   3.249  29.606   1.359
16902W        W78268  19.575  19.700  11.497
16903W        W78269  44.439  39.867  13.396
16904W        W78270  34.992  31.496  13.335
16905W        W78271  26.140  23.679  14.999
16906W        W78272   6.353   2.924  14.356
16907W        W78273  36.583  13.285  14.963
16908W        W78274  44.949   9.665   0.315
16909W        W78275  26.686  15.810  11.860
16910W        W78276  27.580  25.626   2.902
16911W        W78277  20.598   6.426   0.891
16912W        W78278  42.464  20.707   3.181
16913W        W78279  43.920  39.507  14.336
16914W        W78280   5.780  35.926   2.751
16915W        W78281  27.609   5.931  13.489
16916W        W78282   5.378   1.342  11.569
16917W        W78283   8.671  19.089  13.032
16918W        W78284  42.010  30.063   1.408
16919W        W78285   3.396  30.961   1.733
16920W        W78286  23.031  22.189  14.987
16921W        W78287   9.338  11.637  14.800
16922W        W78288  33.888  31.051   3.283
16923W        W78289   4.290   2.847  11.492
16924W        W78290  12.771  20.564   3.382
16925W        W78291  40.426  22.114  11.496
16926W        W78292   6.752  14.666  10.104
16927W        W78293  15.778   0.778   0.793
16928W        W78294  16.654   5.237   4.723
16929W        W78295  20.578   9.364  11.866
16930W        W78296  33.127  30.971   0.406
16931W        W78297  16.271   5.847   0.852
16932W        W78298  34.471   0.957   2.835
16933W        W78299  26.570  26.641   4.266
16934W        W78300  11.741  40.362   2.764
16935W        W78301   8.350  12.249   2.342
16936W        W78302   0.763  27.532  12.553
16937W        W78303   5.789  10.190  10.426
16938W        W78304  41.838  27.038   0.855
16939W        W78305  28.478  16.085  10.962
16940W        W78306  16.134   2.962  13.968
16941W        W78307   4.735  38.996   4.279
16942W        W78308  43.778  35.031  11.911
16943W        W78309  26.984  30.585   4.676
16944W        W78310   6.387   3.314   3.760
16945W        W78311   6.748  21.176   2.404
16946W        W78312  12.808  11.236  11.902
16947W        W78313  26.127  34.600  12.943
16948W        W78314  30.115   3.282   2.670
16949W        W78315  22.187  44.274   3.195
16950W        W78316  10.233   4.935   2.897
16951W        W78317  43.826  42.008  13.318
16952W        W78318  35.026  20.192   3.856
16953W        W78319   8.805  40.509   3.670
16954W        W78320  32.122  43.897  13.997
16955W        W78321  12.180  23.092  11.024
16956W        W78322  39.547  17.061   1.265
16957W        W78323  15.318  43.926  14.428
16958W        W78324  23.136  12.259  13.018
16959W        W78325  27.081  10.153   4.327
16960W        W78326  14.126  44.009   1.772
16961W        W78327  26.118  30.149  13.482
16962W        W78328  44.358   4.739   4.791
16963W        W78329  38.539  30.508   0.257
16964W        W78330  30.512  28.052  12.529
16965W        W78331  27.034  10.148   3.787
16966W        W78332  12.763  18.664   3.214
16967W        W78333  16.773  34.896  13.032
16968W        W78334  34.999  29.052  14.429
16969W        W78335  28.128  33.037   2.352
16970W        W78336  15.167  18.579   3.740
16971W        W78337   1.887  26.979   0.937
16972W        W78338   6.338   2.397  11.378
16973W        W78339  25.996   4.309   9.470
16974W        W78340   9.201  43.960  14.012
16975W        W78341  37.553  24.568   2.883
16976W        W78342  10.143  15.742  13.922
16977W        W78343  16.205  31.975   4.131
16978W        W78344  41.823   5.309   1.882
16979W        W78345  30.914  14.234  13.933
16980W        W78346  26.478  20.585   1.414
16981W        W78347  11.337   4.764   0.964
16982W        W78348   0.486  19.143  10.448
16983W        W78349   9.741  24.664   1.732
16984W        W78350  39.378  26.021  12.073
16985W        W78351  19.536  43.768  13.430
16986W        W78352  18.243  12.693  12.411
16987W        W78353   9.818  36.992   2.886
16988W        W78354  40.537  13.318  12.505
16989W        W78355  26.487  29.645   3.661
16990W        W78356  29.029  34.609   0.797
16991W        W78357  38.880  12.298  13.421
16992W        W78358  20.143   8.368  11.383
16993W        W78359  39.928   0.380   0.266
16994W        W78360  32.107  10.774  14.299
16995W        W78361  24.034  12.294  13.513
16996W        W78362  33.027  32.999  14.368
16997W        W78363  37.914   9.158   4.685
16998W        W78364  21.227  31.547   4.324
16999W        W78365  15.762  43.366   0.369
17000W        W78366   1.473  41.823  13.395
17001W        W78367  30.634  37.057   3.331
17002W        W78368  12.311  44.756   1.773
17003W        W78369  12.130  13.719  11.046
17004W        W78370  12.658   5.230  12.344
17005W        W78371  36.022  30.991  13.402
17006W        W78372  34.492  21.103   0.758
17007W        W78373  31.974  27.488  14.879
17008W        W78374  21.591   7.760   4.338
17009W        W78375   2.449  26.641  11.567
17010W        W78376  34.491   9.792   0.883
17011W        W78377  14.767  11.785   4.293
17012W        W78378  40.340   9.830   0.313
17013W        W78379  21.757  13.656   2.716
17014W        W78380  23.588  30.420  12.973
17015W        W78381  30.481  31.491   0.953
17016W        W78382  36.570  17.256   1.365
17017W        W78383   6.424  38.993   5.140
17018W        W78384  39.430  13.319   4.255
17019W        W78385   8.301  17.697  12.449
17020W        W78386  31.984   9.817   4.757
17021W        W78387  31.506  38.046  14.870
17022W        W78388  31.014   1.298  14.990
17023W        W78389   7.842   3.223   9.456
17024W        W78390  36.841  32.946   1.883
17025W        W78391  23.027  32.436  11.090
17026W        W78392  13.684  16.072   1.827
17027W        W78393  41.936   7.833  11.438
17028W        W78394  25.165  40.858  10.903
17029W        W78395  26.539   1.838   3.172
17030W        W78396  18.290  36.389   1.306
17031W        W78397   9.726  34.099   3.238
17032W        W78398  16.758  21.691   0.331
17033W        W78399  19.733   9.695  11.948
17034W        W78400   8.796   4.406   4.827
17035W        W78401  38.046  19.135  11.583
17036W        W78402   6.771   9.329   1.351
17037W        W78403  16.272   3.323   0.860
17038W        W78404  29.553  27.167   3.871
17039W        W78405  44.850   1.295   4.346
17040W        W78406  10.755  24.063  11.093
17041W        W78407  11.687  19.210  13.859
17042W        W78408  22.691  11.803   1.881
17043W        W78409  29.069  21.022  13.941
17044W        W78410   5.769  39.855   2.320
17045W        W78411  10.332   2.242   0.406
17046W        W78412   2.392  30.631  12.411
17047W        W78413  25.170  28.129   0.734
17048W        W78414  15.587  40.965   4.798
17049W        W78415  31.442  33.470   1.935
17050W        W78416   4.386   1.765  10.645
17051W        W78417  32.591  28.940   0.878
17052W        W78418  15.819  36.450   1.883
17053W        W78419  14.147  24.562  10.627
17054W        W78420  22.995  35.913   2.246
17055W        W78421  24.119  19.217  11.541
17056W        W78422  39.001  41.975   2.887
17057W        W78423  29.953  27.182   3.634
17058W        W78424  34.963  36.970  13.027
17059W        W78425  38.012  38.909   3.699
17060W        W78426  28.074   9.281   4.695
17061W        W78427  17.070  34.448  13.014
17062W        W78428   7.667   6.825   0.870
17063W        W78429  13.822   1.784   4.629
17064W        W78430   4.441   8.401  12.358
17065W        W78431  16.741  20.168   2.287
17066W        W78432  10.326  37.424   9.922
17067W        W78433   5.764  19.278   2.788
17068W        W78434  30.452   1.417   0.858
17069W        W78435  13.120  25.522   0.454
17070W        W78436  23.626  38.062   4.736
17071W        W78437  16.101   7.264  12.079
17072W        W78438  19.190  33.617  13.005
17073W        W78439  10.849  25.646   0.885
17074W        W78440   3.232  13.806   4.197
17075W        W78441  28.589  10.853   3.211
17076W        W78442  15.236  13.325  11.866
17077W        W78443  36.352  38.564  12.897
17078W        W78444  18.725  20.224  11.025
17079W        W78445  29.455  14.728   3.744
17080W        W78446  31.134  27.456  10.495
17081W        W78447   6.741  33.956   4.676
17082W        W78448  42.790  44.926  14.860
17083W        W78449   7.254  11.352   3.701
17084W        W78450  26.180  41.348  11.027
17085W        W78451   4.787   8.795   2.375
17086W        W78452   8.277  19.145  10.971
17087W        W78453  19.045  32.051  14.910
17088W        W78454  25.632  39.894  12.478
17089W        W78455  41.538  12.805   1.343
17090W        W78456  35.398  35.927  13.050
17091W        W78457  30.137   9.367   4.208
17092W        W78458  20.090  43.838   0.959
17093W        W78459  38.038   5.204   1.790
17094W        W78460  14.255  25.694  12.436
17095W        W78461  11.133  17.092   4.152
17096W        W78462   4.731   8.341   1.911
17097W        W78463   6.198  19.220  11.024
17098W        W78464  32.043   5.721  10.611
17099W        W78465  25.668  17.654  14.769
17100W        W78466  35.582   1.335  12.906
17101W        W78467   2.349   7.389  13.818
17102W        W78468  16.174  26.958   4.607
17103W        W78469  36.446  40.504  14.816
17104W        W78470  30.620  36.911  13.471
17105W        W78471  44.008  41.924  10.641
17106W        W78472  30.593  28.134  11.906
17107W        W78473  25.632  24.639  10.535
17108W        W78474  17.271  41.384   4.283
17109W        W78475   5.872  42.966  12.391
17110W        W78476  13.266  13.619  11.590
17111W        W78477  23.585   5.871  12.841
17112W        W78478  29.108  18.120  14.485
17113W        W78479  20.564  43.862   4.201
17114W        W78480  17.740   4.880   3.176
17115W        W78481  18.195  36.349  12.457
17116W        W78482  16.801   2.765  10.904
17117W        W78483  11.310  21.172   5.262
17118W        W78484  21.159   6.897  10.128
17119W        W78485   5.287   7.688   2.792
17120W        W78486  29.117  24.517  13.053
17121W        W78487  30.047   6.711  12.427
17122W        W78488   1.429  20.187  12.580
17123W        W78489   2.373  36.014  11.880
17124W        W78490  36.000  17.779   4.158
17125W        W78491  10.803  25.129  11.923
17126W        W78492   1.249  19.091  11.596
17127W        W78493  24.030   5.835   5.614
17128W        W78494  20.257  38.359  11.102
17129W        W78495  18.547  16.724  10.605
17130W        W78496  29.465  31.935  13.813
17131W        W78497  35.906  27.956   2.179
17132W        W78498  18.165  17.084  13.505
17133W        W78499  33.900  20.673  10.580
17134W        W78500   7.698   0.984   4.684
17135W        W78501   2.394  26.674  13.503
17136W        W78502  14.812  41.964  11.951
17137W        W78503  11.642  33.962  14.764
17138W        W78504  33.916  31.442  14.310
17139W        W78505  23.091   0.313  14.022
17140W        W78506  27.942  27.050  14.308
17141W        W78507  37.387  42.297   4.212
17142W        W78508  21.641  15.625   4.831
17143W        W78509  14.169  20.202  14.014
17144W        W78510  26.199   3.912   1.923
17145W        W78511  11.151  27.054   3.335
17146W        W78512   4.273  27.558   5.302
17147W        W78513  41.430  17.272   2.383
17148W        W78514  22.700  10.216  12.345
17149W        W78515  42.906  20.120   0.367
17150W        W78516  28.532  23.218  13.979
17151W        W78517  43.843  11.256   2.847
17152W        W78518   5.384  43.782  13.048
17153W        W78519  23.686  42.843  13.319
17154W        W78520  41.421  31.507   0.923
17155W        W78521  38.018  35.022  11.966
17156W        W78522  38.354  17.750  13.308
17157W        W78523  37.344  33.387  12.420
17158W        W78524  38.920  42.355   0.964
17159W        W78525  40.001   5.358   2.263
17160W        W78526   1.826   9.850   2.766
17161W        W78527  34.491   2.905  10.492
17162W        W78528   3.353  18.146   3.335
17163W        W78529  22.530  17.169   4.325
17164W        W78530  11.265  27.688   1.308
17165W        W78531  29.575  25.015  13.499
17166W        W78532  37.508  20.574  14.457
17167W        W78533  17.579  34.605   9.501
17168W        W78534  20.637  30.935   4.314
17169W        W78535  44.343  19.214  12.540
17170W        W78536  41.004  31.108   0.762
17171W        W78537  27.150  29.499   1.304
17172W        W78538  31.579   1.849   2.711
17173W        W78539   1.267  35.389   1.935
17174W        W78540  41.433  28.071   4.148
17175W        W78541  24.644  21.208  11.047
17176W        W78542  43.419  18.617   0.316
17177W        W78543  23.987  22.506   5.101
17178W        W78544  11.851  22.591   4.331
17179W        W78545   0.963  41.501   4.774
17180W        W78546  40.839  13.125   4.678
17181W        W78547  27.592  20.204  12.848
17182W        W78548  21.696  41.908   2.698
17183W        W78549  10.295  35.547  12.949
17184W        W78550  14.675  36.980   4.678
17185W        W78551  15.676   6.376  14.289
17186W        W78552  20.104  43.349  12.058
17187W        W78553  13.286   1.757   9.955
17188W        W78554  20.534  28.954   1.329
17189W        W78555  17.128  18.281   2.264
17190W        W78556  30.616  42.900   4.272
17191W        W78557  27.667  17.095  10.607
17192W        W78558  24.560  21.632  11.487
17193W        W78559  10.822  35.488  12.050
17194W        W78560  10.874  40.947   0.808
17195W        W78561  33.463   8.360   3.198
17196W        W78562  43.283  11.860  14.998
17197W        W78563  38.467  32.134  14.982
17198W        W78564  21.572   6.248  12.553
17199W        W78565  22.598   9.276  10.888
17200W        W78566  24.159  37.975   1.912
17201W        W78567   4.816  35.099   5.107
17202W        W78568  32.016   7.252   4.820
17203W        W78569  21.679  28.107  13.890
17204W        W78570  41.393   4.763  13.527
17205W        W78571   1.852   4.863   0.466
17206W        W78572  20.199   7.277   1.338
17207W        W78573  22.722  23.029  12.507
17208W        W78574   6.182   1.275   3.699
17209W        W78575  21.147  27.048  13.978
17210W        W78576   4.743   5.196  11.120
17211W        W78577  30.143   3.872  13.345
17212W        W78578  21.636  21.193  13.841
17213W        W78579  40.962  31.002   1.280
17214W        W78580   5.295  10.827  12.429
17215W        W78581   1.956  30.494   2.759
17216W        W78582   8.815  31.931   3.165
17217W        W78583  10.826  25.005  13.878
17218W        W78584  26.029  40.945  13.018
17219W        W78585  37.940  40.444  12.841
17220W        W78586   0.425  21.070   2.883
17221W        W78587  17.181   7.772  12.355
17222W        W78588  25.062  10.680  12.848
17223W        W78589  36.994  10.175  10.570
17224W        W78590   4.856   0.884   2.301
17225W        W78591  28.989  28.077   0.870
17226W        W78592  18.697  27.692  13.467
17227W        W78593  12.777  11.324   4.720
17228W        W78594  36.980  19.556   3.339
17229W        W78595  30.971  22.729   9.956
17230W        W78596  22.191   2.797  11.546
17231W        W78597   3.852  10.770  12.429
17232W        W78598  15.587  17.785   4.262
17233W        W78599  23.138   1.327   2.821
17234W        W78600  41.297  36.513  11.431
17235W        W78601   2.850  26.055   4.723
17236W        W78602   4.382   0.761   2.264
17237W        W78603  26.667   1.350  13.989
17238W        W78604  39.384  38.973   4.183
17239W        W78605  25.053  33.995   3.371
17240W        W78606   6.881  31.595   0.900
17241W        W78607  14.326  30.074  10.912
17242W        W78608  11.229   6.825  13.995
17243W        W78609  25.487  13.164  11.482
17244W        W78610  39.508  27.642  13.313
17245W        W78611  36.881  39.031  12.571
17246W        W78612  36.451   9.234   3.851
17247W        W78613  11.231  16.584  12.507
17248W        W78614   5.384  23.023  14.866
17249W        W78615  13.202  29.473  13.867
17250W        W78616  21.027  16.668  12.989
17251W        W78617  28.473   9.838  10.436
17252W        W78618  15.741  21.716  13.029
17253W        W78619  38.898  21.675   2.188
17254W        W78620   3.437  27.982   1.784
17255W        W78621  32.006  35.560  14.493
17256W        W78622  31.130  32.079   4.229
17257W        W78623  17.621  33.525   0.276
17258W        W78624  10.862  38.452  12.009
17259W        W78625  32.120  42.381   3.380
17260W        W78626  13.284  44.386   1.283
17261W        W78627  16.747  16.099   2.211
17262W        W78628  34.552  31.409  10.424
17263W        W78629  37.486  24.053  12.359
17264W        W78630  35.595  21.667  14.489
17265W        W78631  31.601   0.404   1.744
17266W        W78632  10.724  36.445  12.474
17267W        W78633  26.112  44.354  12.871
17268W        W78634  11.313  32.921   4.265
17269W        W78635  11.250  32.473  10.550
17270W        W78636  36.994  19.676  10.926
17271W        W78637  27.976  27.557   0.419
17272W        W78638  40.484  13.809   4.193
17273W        W78639  44.757   8.761   5.142
17274W        W78640  25.086  43.941   0.837
17275W        W78641  18.234   0.271  14.914
17276W        W78642  25.576  37.007   1.707
17277W        W78643  43.870  38.558  12.999
17278W        W78644  13.721  41.439   4.285
17279W        W78645  15.311  33.116  12.950
17280W        W78646  23.564  40.920  13.051
17281W        W78647  26.966   0.827   2.817
17282W        W78648  14.803  37.383  14.280
17283W        W78649  26.610  19.061  14.764
17284W        W78650  31.049  20.048   3.638
17285W        W78651  24.126  21.044   1.415
17286W        W78652   8.689  31.514  14.762
17287W        W78653  19.104  33.408   3.766
17288W        W78654  43.272  38.526   1.721
17289W        W78655  27.494  23.223  14.868
17290W        W78656   2.465  27.654  14.426
17291W        W78657   8.665  43.281   0.408
17292W        W78658  41.297   9.771  13.523
17293W        W78659  15.800   5.805   1.900
17294W        W78660  10.730  43.937  10.403
17295W        W78661   1.320  20.223  13.916
17296W        W78662  13.331  23.577   1.443
17297W        W78663   3.235  33.462   1.738
17298W        W78664  30.161  30.417  13.994
17299W        W78665  24.702  37.885  11.485
17300W        W78666  22.221   0.969   4.293
17301W        W78667  36.898   8.673   1.274
17302W        W78668  25.468  29.650  14.336
17303W        W78669  39.851   7.716   2.680
17304W        W78670  26.958  41.462  14.324
17305W        W78671  35.547  29.929   4.680
17306W        W78672  34.069  21.646   4.653
17307W        W78673   0.396  34.037  13.972
17308W        W78674  37.017   1.933  13.977
17309W        W78675  16.117   1.970   1.720
17310W        W78676  26.039   9.653   3.810
17311W        W78677  24.480  33.889   2.227
17312W        W78678   2.752   8.724   0.954
17313W        W78679  43.798  28.513  10.917
17314W        W78680  17.613  26.979   4.296
17315W        W78681   9.712   2.779   4.266
17316W        W78682   8.401   5.722   1.721
17317W        W78683   8.771   1.253   0.953
17318W        W78684  18.628  26.001  14.282
17319W        W78685   1.462  41.514  14.847
17320W        W78686  37.063  29.068  14.438
17321W        W78687  20.143  20.706   1.716
17322W        W78688  24.049  28.673  12.573
17323W        W78689  19.206   8.752  12.950
17324W        W78690  16.810  28.017  14.903
17325W        W78691  37.942  26.481   4.256
17326W        W78692  26.078  18.149   4.792
17327W        W78693  38.910   2.343   1.304
17328W        W78694   6.219  20.048  14.390
17329W        W78695   2.765   8.662   3.715
17330W        W78696  17.692  42.952  10.494
17331W        W78697   0.276   6.238  13.002
17332W        W78698   1.832  19.753   0.925
17333W        W78699  26.953   3.343  11.576
17334W        W78700  36.892  23.090  12.436
17335W        W78701   0.441  41.402  13.355
17336W        W78702   8.878  27.090  14.454
17337W        W78703   7.198  31.402   2.839
17338W        W78704  19.225  27.160  12.935
17339W        W78705  23.503   7.681  14.872
17340W        W78706  35.866  39.956   0.315
17341W        W78707  37.372  31.477  13.002
17342W        W78708  16.799  43.433   0.305
17343W        W78709  14.166  41.810   3.155
17344W        W78710  21.631   7.670  14.836
17345W        W78711   1.834  37.538  11.555
17346W        W78712  42.486   3.233  10.499
17347W        W78713  32.026   8.217   2.715
17348W        W78714  22.011   0.816  11.926
17349W        W78715  43.767   9.316   4.199
17350W        W78716  42.284  19.178   0.341
17351W        W78717  12.621   6.246   0.898
17352W        W78718  32.549  31.600   1.778
17353W        W78719  15.157   8.223  10.436
17354W        W78720  34.903  37.055  12.533
17355W        W78721  37.367  26.571   3.185
17356W        W78722  18.085  43.861   1.314
17357W        W78723  29.054  13.770   2.336
17358W        W78724  22.522  43.293   2.257
17359W        W78725   1.465  13.243  13.516
17360W        W78726  26.193  31.469  14.397
17361W        W78727  38.971   1.819  11.050
17362W        W78728  27.086  40.957   0.285
17363W        W78729  16.160   9.314  13.456
17364W        W78730  15.722  23.530   1.887
17365W        W78731   0.356  28.571   3.231
17366W        W78732  25.964  18.206   3.697
17367W        W78733  42.955   2.380   1.424
17368W        W78734  44.330  19.208  14.277
17369W        W78735  30.005  42.028   1.784
17370W        W78736  24.530  33.620   1.713
17371W        W78737  17.202  16.608   4.183
17372W        W78738  44.459  18.750  10.489
17373W        W78739   2.411  37.543  10.527
17374W        W78740  14.218  11.314  14.380
17375W        W78741  12.302  11.764   0.288
17376W        W78742  16.750  37.506   3.304
17377W        W78743   0.452  19.554   3.835
17378W        W78744  30.162  29.985   0.933
17379W        W78745  27.467  43.291  13.513
17380W        W78746  33.978  28.434  14.797
17381W        W78747  15.138  43.469   0.865
17382W        W78748  16.679  23.112  13.056
17383W        W78749  40.803  42.829   1.249
17384W        W78750   2.844  27.600  12.508
17385W        W78751  29.154  10.831  11.058
17386W        W78752  27.084  35.539  10.579
17387W        W78753  38.996  33.941  11.469
17388W        W78754  14.709  33.878  12.445
17389W        W78755  18.144  41.957  11.035
17390W        W78756  43.429   4.285  14.362
17391W        W78757  23.068  44.302   2.324
17392W        W78758  29.071  38.898  13.037
17393W        W78759  39.412  35.444   4.317
17394W        W78760  26.140   0.458  12.573
17395W        W78761   1.459  21.728   3.731
17396W        W78762  15.752  38.877   1.851
17397W        W78763  28.453   0.414  10.535
17398W        W78764   0.745  13.612  13.313
17399W        W78765  16.632  19.239   2.722
17400W        W78766  31.923  26.611   3.297
17401W        W78767   1.810  21.727  11.115
17402W        W78768  34.052  31.075   2.833
17403W        W78769  18.142  12.153  13.937
17404W        W78770  11.866   0.286   1.398
17405W        W78771  20.231  34.048  14.908
17406W        W78772  15.309  10.274   4.301
17407W        W78773  29.997  31.612   4.707
17408W        W78774  30.634  25.096  13.383
17409W        W78775  19.766  19.667  11.071
17410W        W78776  40.309   6.415   5.296
17411W        W78777  33.405   2.412   0.417
17412W        W78778  15.778  21.174  14.919
17413W        W78779  27.946  18.115   0.827
17414W        W78780  29.164   5.212  10.509
17415W        W78781  44.773  11.135   0.305
17416W        W78782  34.570  32.598   1.396
17417W        W78783  16.170  29.551  12.354
17418W        W78784  34.978  30.485   5.111
17419W        W78785  33.411  24.506  13.993
17420W        W78786   7.714  36.414  11.906
17421W        W78787  12.158  12.690  12.975
17422W        W78788  30.960  42.517  13.817
17423W        W78789  32.487  20.643   0.272
17424W        W78790  36.471  42.477   1.378
17425W        W78791  37.017  18.668  13.478
17426W        W78792   9.738   8.346   4.801
17427W        W78793   8.846  13.732  14.789
17428W        W78794  24.677  37.348  10.565
17429W        W78795  25.615  34.454   0.385
17430W        W78796  12.633  29.640  13.384
17431W        W78797  30.111   4.325  11.996
17432W        W78798  32.546  22.526  12.532
17433W        W78799  36.438  19.636  13.392
17434W        W78800  19.558  31.116   5.227
17435W        W78801  18.210  21.746   4.676
17436W        W78802  27.676  39.467   3.736
17437W        W78803   1.895  19.666   1.430
17438W        W78804  17.251   0.861  14.278
17439W        W78805  30.551  38.482  12.432
17440W        W78806  31.097   1.250  10.627
17441W        W78807  23.118  30.949   1.312
17442W        W78808  35.992  15.760   0.281
17443W        W78809  31.485   3.344  13.413
17444W        W78810  41.971   9.318  13.965
17445W        W78811  25.026  26.472   3.710
17446W        W78812  35.522   4.771   2.688
17447W        W78813  37.425  33.472   4.206
17448W        W78814   3.752  43.859  14.292
17449W        W78815   7.198  26.207  14.426
17450W        W78816  39.948  24.126  14.886
17451W        W78817  31.141  37.425  10.047
17452W        W78818  37.472   6.331   2.395
17453W        W78819  29.558  36.451   1.245
17454W        W78820  40.464  15.821  10.900
17455W        W78821   7.711  32.931   3.688
17456W        W78822   9.842  31.519   4.703
17457W        W78823  41.802  10.347   2.866
17458W        W78824  32.132  30.941   2.301
17459W        W78825  43.848  38.451  12.414
17460W        W78826  32.627  26.683   1.410
17461W        W78827  13.325  26.045  10.424
17462W        W78828  20.070   1.925   2.854
17463W        W78829   9.198  12.299   2.781
17464W        W78830  11.673   9.872   4.138
17465W        W78831   7.789  32.600   0.436
17466W        W78832   1.376  41.368  12.018
17467W        W78833  27.947  26.486  10.541
17468W        W78834  28.037  27.499  11.395
17469W        W78835  12.324  42.307   4.339
17470W        W78836  16.598   3.848  11.028
17471W        W78837  31.050  33.014   3.347
17472W        W78838  37.087  20.542  11.968
17473W        W78839  21.528   8.172   4.731
17474W        W78840  18.713  36.079  13.906
17475W        W78841  24.506  33.103  12.070
17476W        W78842   1.860  29.527  10.936
17477W        W78843  13.614  44.990  13.852
17478W        W78844  41.026  13.660  14.404
17479W        W78845  29.431  29.473   4.123
17480W        W78846  12.307  18.154  10.929
17481W        W78847   2.419  37.522  12.050
17482W        W78848  11.330  22.212  11.928
17483W        W78849  18.734   6.232  12.345
17484W        W78850   9.200   0.840   3.732
17485W        W78851  36.973   5.796  12.995
17486W        W78852   4.909  41.505   3.849
17487W        W78853  39.513  12.743   2.182
17488W        W78854  24.151   0.268  13.498
17489W        W78855  12.701  24.082  11.520
17490W        W78856  10.226  44.442  14.999
17491W        W78857  12.621   6.354  13.309
17492W        W78858  41.491  17.609   2.275
17493W        W78859  29.954  14.202  14.324
17494W        W78860  43.791  24.658   4.215
17495W        W78861  36.020  26.967  12.949
17496W        W78862  34.074  43.412   1.297
17497W        W78863  24.037  15.669  13.795
17498W        W78864  13.785   7.891   4.649
17499W        W78865  10.142  38.071   0.728
17500W        W78866  43.981  17.182   1.400
17501W        W78867  28.648   4.330   4.642
17502W        W78868  20.035  29.996  13.453
17503W        W78869   8.228  16.232  13.524
17504W        W78870  26.533   3.720  14.896
17505W        W78871  12.710  41.893   0.926
17506W        W78872   0.334  43.796  10.437
17507W        W78873  21.666  27.076  11.458
17508W        W78874  26.196  44.291  13.535
17509W        W78875  25.135  40.864   2.200
17510W        W78876  42.345   1.923  14.993
17511W        W78877  43.008   7.346  13.881
17512W        W78878   8.361   6.181  10.118
17513W        W78879  11.702  11.836  10.549
17514W        W78880   0.327   2.763   1.751
17515W        W78881  22.732  26.089  11.573
17516W        W78882  36.028  16.092   2.377
17517W        W78883   7.378  30.515   2.190
17518W        W78884  35.549   7.257  13.929
17519W        W78885  41.508   7.395   3.170
17520W        W78886   4.720  41.432  13.511
17521W        W78887   8.681   6.378   4.343
17522W        W78888  13.778   3.739   2.847
17523W        W78889  28.595  12.704   2.698
17524W        W78890   5.284  24.111   0.369
17525W        W78891  29.553   5.804   0.894
17526W        W78892  14.711  10.291  14.848
17527W        W78893  29.482   3.902  11.117
17528W        W78894   9.175   9.282   4.706
17529W        W78895  14.721  15.590   2.322
17530W        W78896   2.424  39.019   2.231
17531W        W78897   3.353  13.710   0.257
17532W        W78898  20.200  23.034   3.212
17533W        W78899  25.659   8.821  12.851
17534W        W78900  33.489   6.227   0.926
17535W        W78901  21.094  30.106   3.644
17536W        W78902   5.919  42.778  11.055
17537W        W78903  13.685  15.147  11.896
17538W        W78904   8.841  19.596   1.447
17539W        W78905  40.036   0.388   4.786
17540W        W78906  27.660   4.713   2.365
17541W        W78907   5.407  31.064  11.899
17542W        W78908  44.888  30.500  13.966
17543W        W78909  40.855   9.291  13.330
17544W        W78910  13.311   2.417   2.308
17545W        W78911  43.366  38.855  10.505
17546W        W78912  26.632  42.949   0.312
17547W        W78913  40.548  28.944   1.910
17548W        W78914  32.914   0.977  11.996
17549W        W78915  22.049  25.164  12.953
17550W        W78916   3.844   1.279  14.969
17551W        W78917   2.448  33.957  14.394
17552W        W78918  16.250   4.849   1.747
17553W        W78919   7.858   5.376  11.091
17554W        W78920   3.876  32.470  13.499
17555W        W78921  18.131  41.468   4.335
17556W        W78922   1.482   1.471   1.423
17557W        W78923   3.846   0.958  10.993
17558W        W78924   5.265  20.046   1.356
17559W        W78925  40.825  30.613   3.193
17560W        W78926  11.832   3.822  13.435
17561W        W78927  28.658  35.491  14.865
17562W        W78928  32.456  44.908   3.783
17563W        W78929   4.733  43.955   4.759
17564W        W78930  37.503  18.605  11.088
17565W        W78931  27.022  13.667   1.307
17566W        W78932   5.438   1.412  10.933
17567W        W78933  13.647  40.458   4.769
17568W        W78934  13.248  35.478  13.898
17569W        W78935  26.546  16.617   4.769
17570W        W78936   8.208  17.099  11.389
17571W        W78937   2.778  40.830   1.404
17572W        W78938   8.845  12.320  11.397
17573W        W78939   1.908  38.940   2.257
17574W        W78940  39.531  16.773  13.446
17575W        W78941  41.841  14.136  14.821
17576W        W78942   5.382  28.016   3.225
17577W        W78943  16.236   9.733  10.921
17578W        W78944  15.616  26.598   0.387
17579W        W78945  18.590  42.012  12.070
17580W        W78946  39.421  27.602  14.481
17581W        W78947  15.283   7.776   0.423
17582W        W78948  17.078   7.837  10.523
17583W        W78949  35.903  20.535  13.813
17584W        W78950  24.586   5.266   5.154
17585W        W78951  41.804  25.121  11.432
17586W        W78952  21.638  14.192  11.898
17587W        W78953  33.528   0.268   0.893
17588W        W78954  41.961  34.988   2.884
17589W        W78955  36.399  29.926  11.929
17590W        W78956  39.528   2.351   2.853
17591W        W78957  34.041  25.208  13.824
17592W        W78958  29.941  27.610   4.345
17593W        W78959   7.324  28.577  10.569
17594W        W78960  12.727  28.588  11.398
17595W        W78961  31.410   9.310   0.376
17596W        W78962  15.591  44.010   2.830
17597W        W78963  38.474  22.627  13.806
17598W        W78964   8.868   7.339   3.380
17599W        W78965  17.174  38.570  12.083
17600W        W78966  25.616  11.780   3.357
17601W        W78967  24.708  20.595  14.315
17602W        W78968  43.855   6.762  12.083
17603W        W78969   9.863  28.107   2.218
17604W        W78970  19.142   2.945  12.847
17605W        W78971  12.693   6.368  11.549
17606W        W78972  11.175   8.368  10.486
17607W        W78973   6.821  35.601  12.345
17608W        W78974  41.296   9.821  12.849
17609W        W78975  43.801  25.518   4.643
17610W        W78976   9.746  18.685   3.870
17611W        W78977  33.517  28.959  10.601
17612W        W78978  32.478  24.995  14.312
17613W        W78979  40.397  43.958   1.382
17614W        W78980   7.387  20.697   0.378
17615W        W78981  29.134  11.771  11.055
17616W        W78982  28.086   2.404   1.399
17617W        W78983  29.551  35.943  12.065
17618W        W78984  29.670  44.406  10.429
17619W        W78985  38.020   6.288  14.972
17620W        W78986   9.868   7.373  13.333
17621W        W78987   8.257   2.854   4.764
17622W        W78988  32.605   2.877  13.028
17623W        W78989   0.390  17.298  14.375
17624W        W78990  37.834  22.692  11.386
17625W        W78991   2.749   6.918  11.937
17626W        W78992  44.366  33.120  11.117
17627W        W78993  29.577  27.578   2.713
17628W        W78994  16.175  38.927  12.945
17629W        W78995  18.687  38.990   0.375
17630W        W78996  19.763  40.964  11.502
17631W        W78997  33.444  14.213  10.939
17632W        W78998  19.706  11.627  14.967
17633W        W78999   9.308  16.747  12.839
17634W        W79000  17.769  31.545   0.283
17635W        W79001  24.686  36.022   4.689
17636W        W79002  28.066   4.252   2.895
17637W        W79003  35.998   3.308   1.823
17638W        W79004  37.388  41.845   2.664
17639W        W79005   0.372  24.601  14.516
17640W        W79006   7.806  43.471  12.971
17641W        W79007   2.779  43.445   3.851
17642W        W79008  18.233   8.666  12.378
17643W        W79009  27.009  26.025  13.795
17644W        W79010  41.918  14.801  13.406
17645W        W79011  35.087  25.186   4.723
17646W        W79012   8.744  23.107  10.986
17647W        W79013  28.531  20.038   0.904
17648W        W79014  35.891  24.676  12.992
17649W        W79015  43.846  40.432  11.436
17650W        W79016  17.135  35.430  10.129
17651W        W79017  25.585   7.330   2.209
17652W        W79018  31.133  36.077  13.536
17653W        W79019  38.935  19.048  10.469
17654W        W79020   0.839   1.461  10.621
17655W        W79021  39.447  24.227   0.899
17656W        W79022  41.401  20.687  12.393
17657W        W79023  24.527  15.740  13.055
17658W        W79024  28.599   1.301   3.252
17659W        W79025  40.895  37.560   2.349
17660W        W79026  36.986  27.074   1.741
17661W        W79027  32.924   1.343  13.539
17662W        W79028  13.629  19.734   3.183
17663W        W79029  44.873  21.629  12.922
17664W        W79030  32.444   8.789  14.946
17665W        W79031  22.514  37.023   4.725
17666W        W79032   2.786  40.854   4.321
17667W        W79033   7.696   3.904   3.664
17668W        W79034   1.829   3.406  13.953
17669W        W79035  44.318  10.201  10.537
17670W        W79036  41.936   3.314   0.820
17671W        W79037   1.877   6.345  13.378
17672W        W79038   1.812  16.269   4.349
17673W        W79039  42.872  14.700  12.944
17674W        W79040  33.607  36.388   0.292
17675W        W79041  17.704  44.994   4.790
17676W        W79042  29.669   9.241  10.998
17677W        W79043  21.216  18.214   1.748
17678W        W79044  10.222   4.370   0.401
17679W        W79045  26.506  28.653  12.046
17680W        W79046   4.354  15.287  13.802
17681W        W79047  11.293  44.363   0.254
17682W        W79048  25.136   9.364  11.996
17683W        W79049   7.907  44.866  12.856
17684W        W79050  16.763  14.115  13.508
17685W        W79051  15.597  39.433  10.891
17686W        W79052  29.664  29.507   4.743
17687W        W79053   2.736  30.089   3.748
17688W        W79054  15.614   5.746   1.442
17689W        W79055  24.218   8.192   2.197
17690W        W79056  30.597  23.688  11.859
17691W        W79057  30.981  26.612  12.542
17692W        W79058  35.574  41.868   5.175
17693W        W79059  13.182   0.368  13.034
17694W        W79060   1.343  34.007  12.347
17695W        W79061  36.368  41.951  12.043
17696W        W79062  30.469   6.325   1.785
17697W        W79063  10.310   9.759  13.035
17698W        W79064  37.950   2.885  14.868
17699W        W79065  39.521  37.964   2.893
17700W        W79066  40.393  20.104   1.764
17701W        W79067  44.808   9.864   4.712
17702W        W79068  31.635   5.196  14.862
17703W        W79069   5.246  29.542  10.122
17704W        W79070  15.630  43.956  14.917
17705W        W79071  42.362  41.869   1.253
17706W        W79072  27.473  14.150  12.083
17707W        W79073  29.632  37.397   1.372
17708W        W79074  21.566  18.151   2.237
17709W        W79075  40.046  25.664  11.060
17710W        W79076  31.444  44.447   0.296
17711W        W79077  37.017   9.669   1.703
17712W        W79078  44.493  32.932  12.882
17713W        W79079  37.977   3.329   3.830
17714W        W79080  35.890  26.166  12.013
17715W        W79081  21.186   7.402   2.684
17716W        W79082  34.595  26.014   2.871
17717W        W79083  17.675  13.127  12.929
17718W        W79084  14.268  12.312   2.213
17719W        W79085  35.528  43.912  14.427
17720W        W79086   8.260  34.604  10.568
17721W        W79087  20.078   3.388   0.727
17722W        W79088  19.702   4.739  11.101
17723W        W79089   3.275  11.856  13.310
17724W        W79090  25.608   3.446   9.955
17725W        W79091  38.469  27.562   2.406
17726W        W79092  11.127   1.345  10.644
17727W        W79093  19.638  15.577  12.429
17728W        W79094  12.240  20.738   1.838
17729W        W79095  26.565  35.581   3.339
17730W        W79096   9.781  35.933   0.788
17731W        W79097  36.923   1.780   0.300
17732W        W79098  25.678  11.173  13.867
17733W        W79099  12.335   8.679  11.987
17734W        W79100   4.943   7.256  13.023
17735W        W79101   9.206  23.686  10.922
17736W        W79102  27.954   7.779   2.748
17737W        W79103  27.173  19.061  10.502
17738W        W79104  27.610  36.056  10.943
17739W        W79105   6.702  13.287   3.770
17740W        W79106  31.532  40.853  12.434
17741W        W79107  20.272  19.078   0.361
17742W        W79108   9.764  25.709   3.663
17743W        W79109   0.770  28.149   2.382
17744W        W79110  26.052  44.889   0.353
17745W        W79111  33.543  24.611  14.806
17746W        W79112  37.944  22.679   2.344
17747W        W79113  25.699  40.975  12.552
17748W        W79114  32.565  15.085  12.931
17749W        W79115  14.717  35.419   5.222
17750W        W79116  38.372  27.618   3.159
17751W        W79117   8.229  14.288   4.620
17752W        W79118   8.335  14.170   3.798
17753W        W79119   8.700   5.737   2.398
17754W        W79120  26.526  39.335  10.550
17755W        W79121  10.750  19.266  11.569
17756W        W79122   5.299  25.551  14.979
17757W        W79123  36.855  27.135  14.809
17758W        W79124  32.533  15.125   3.757
17759W        W79125  42.367  32.419  11.466
17760W        W79126  39.435  19.707   4.654
17761W        W79127  22.008  28.616  11.476
17762W        W79128   7.899   1.257   3.212
17763W        W79129  14.832   1.929  12.929
17764W        W79130  42.026  26.181  12.520
17765W        W79131  26.550  20.117   0.408
17766W        W79132  12.288  19.717   4.175
17767W        W79133  34.971  36.906  13.504
17768W        W79134  39.879  32.977   2.745
17769W        W79135  25.977   6.306  12.920
17770W        W79136  23.633  41.438  13.936
17771W        W79137  31.472  22.010   1.791
17772W        W79138  38.045  41.532  12.025
17773W        W79139   7.317  33.396   2.289
17774W        W79140  22.536  17.602   9.940
17775W        W79141  23.984  33.891   3.856
17776W        W79142  22.228   4.700   9.659
17777W        W79143   3.739   2.427   4.629
17778W        W79144   9.783  28.540  12.031
17779W        W79145  24.487  34.520   2.316
17780W        W79146   4.770  10.647  12.351
17781W        W79147  38.927  26.996  14.768
17782W        W79148  24.189  19.100   2.820
17783W        W79149  25.679  35.855  11.519
17784W        W79150  14.261  11.301   3.174
17785W        W79151  38.398  14.680   1.417
17786W        W79152  23.049  19.679   1.735
17787W        W79153  15.766  28.997  13.326
17788W        W79154   3.878  30.453   2.699
17789W        W79155  18.674  40.348  14.004
17790W        W79156   0.453  19.233  14.961
17791W        W79157  44.845  34.998  12.029
17792W        W79158  15.199  41.398   1.849
17793W        W79159  26.688  18.095  11.938
17794W        W79160  37.868   5.750  12.876
17795W        W79161  19.138  34.558   5.782
17796W        W79162  13.676  23.125   0.313
17797W        W79163  37.572  43.382   3.859
17798W        W79164  36.023   7.285  13.483
17799W        W79165  40.873  32.930   4.347
17800W        W79166   9.302  27.575  14.328
17801W        W79167  22.571  18.685  14.823
17802W        W79168   6.789  26.032   3.701
17803W        W79169  28.073   4.399  14.308
17804W        W79170   1.299  23.025  10.562
17805W        W79171  24.216  42.879   5.318
17806W        W79172  35.023  24.679   1.340
17807W        W79173  32.598  29.173   2.697
17808W        W79174  16.302  24.603   0.788
17809W        W79175  43.447   7.238  14.955
17810W        W79176  33.954   2.772  14.351
17811W        W79177  23.229  40.468   0.250
17812W        W79178  20.616  37.976  12.913
17813W        W79179   5.402   2.720   2.392
17814W        W79180  28.131  22.644  10.531
17815W        W79181  39.391   2.472  11.526
17816W        W79182  25.652  18.791  13.060
17817W        W79183  18.238   2.788   0.841
17818W        W79184  36.463  17.740   1.869
17819W        W79185  29.014  30.070   2.746
17820W        W79186   2.345  41.475   4.757
17821W        W79187  43.951  29.496  13.433
17822W        W79188   6.377  24.509   2.223
17823W        W79189  15.226  18.653   3.287
17824W        W79190  42.927   4.394  11.550
17825W        W79191  21.100  39.316   2.334
17826W        W79192  34.520  18.708   4.723
17827W        W79193   1.477  23.196   4.721
17828W        W79194  13.315   8.316   0.424
17829W        W79195  23.167  38.531  12.379
17830W        W79196  18.570   7.869  11.604
17831W        W79197  21.636  22.163  12.921
17832W        W79198   7.883  33.461  10.643
17833W        W79199  29.636  13.660  13.380
17834W        W79200   9.213  26.485  12.404
17835W        W79201  12.204  42.955  13.907
17836W        W79202  31.433  21.610  14.310
17837W        W79203   1.429   1.294   3.638
17838W        W79204  27.157   2.260  12.500
17839W        W79205  31.129  25.472   4.727
17840W        W79206  17.705   0.842   3.785
17841W        W79207  26.128  23.056  12.968
17842W        W79208   7.188  31.531  10.937
17843W        W79209  38.560   1.934  14.362
17844W        W79210  23.683   7.888  10.546
17845W        W79211   2.291  35.457   0.404
17846W        W79212   4.798   9.806  11.419
17847W        W79213   7.388  29.176  12.983
17848W        W79214  14.834   9.206   3.172
17849W        W79215   7.278  37.069   4.142
17850W        W79216  27.589  34.909  12.550
17851W        W79217  10.254  24.654  11.579
17852W        W79218  28.984  36.968   0.761
17853W        W79219   8.280  24.032   3.231
17854W        W79220  14.697  19.744  10.638
17855W        W79221  39.410  27.450  14.774
17856W        W79222  32.469  40.338  13.895
17857W        W79223   5.835   5.799  14.924
17858W        W79224  24.976  21.046  13.391
17859W        W79225  31.404  41.373   3.745
17860W        W79226  25.056  20.619  11.965
17861W        W79227  41.306   9.206   0.894
17862W        W79228   3.798   8.892   0.471
17863W        W79229  40.366   4.922  14.499
17864W        W79230   3.832  38.954   1.750
17865W        W79231  32.550  16.103   1.218
17866W        W79232  22.221  31.072   1.806
17867W        W79233   8.761   2.249  11.591
17868W        W79234  23.201  38.072   4.684
17869W        W79235  12.830  15.128  12.863
17870W        W79236  43.386   5.824  14.380
17871W        W79237  17.701  38.949  12.935
17872W        W79238  18.191  31.423  13.898
17873W        W79239  38.506  34.482   2.773
17874W        W79240  39.515  32.027  13.048
17875W        W79241  43.981  29.507  11.955
17876W        W79242   1.246   2.247   4.117
17877W        W79243   8.197  41.030   4.327
17878W        W79244  24.487  40.310   0.385
17879W        W79245   3.245  24.068   4.784
17880W        W79246  38.013  23.539  13.365
17881W        W79247  12.160   0.389   3.719
17882W        W79248  25.468  39.560   2.881
17883W        W79249   3.317  34.073   4.628
17884W        W79250  30.937   6.338  10.948
17885W        W79251  13.758  36.879  14.395
17886W        W79252  43.797  36.914  10.631
17887W        W79253  42.797  41.988   0.260
17888W        W79254  11.746  32.526  13.498
17889W        W79255  39.434  39.007  11.027
17890W        W79256  31.954  32.604   1.786
17891W        W79257  31.134  13.734   2.246
17892W        W79258  37.514  19.670  14.964
17893W        W79259  11.813  16.658  11.865
17894W        W79260  37.424  34.505  10.429
17895W        W79261  22.695  40.530   4.123
17896W        W79262  16.576  33.007  11.894
17897W        W79263  31.560   1.794  12.979
17898W        W79264  22.583  36.490  12.043
17899W        W79265  14.247  15.175  13.045
17900W        W79266  43.393  28.655  13.451
17901W        W79267  27.624  12.718   0.403
17902W        W79268  11.760   2.891   2.823
17903W        W79269  18.170  36.381   3.727
17904W        W79270  10.250  34.116  12.842
17905W        W79271  18.760  27.554  11.428
17906W        W79272  42.367  38.973   3.673
17907W        W79273  16.591   0.979   0.851
17908W        W79274   1.802  17.646  12.439
17909W        W79275  22.619  13.781  13.929
17910W        W79276  34.081   2.410   2.395
17911W        W79277  11.141  35.384  10.527
17912W        W79278  30.988  18.634   3.726
17913W        W79279  21.067  26.987   1.868
17914W        W79280   7.763  29.079   4.226
17915W        W79281  42.911  20.752   3.327
17916W        W79282  13.351  21.755   4.659
17917W        W79283  23.576   7.755  14.007
17918W        W79284  23.178   8.833   4.247
17919W        W79285  16.775   2.465  11.098
17920W        W79286  15.329  28.157  11.957
17921W        W79287  38.944  30.448  11.451
17922W        W79288  18.719  12.178   4.216
17923W        W79289  20.127  18.681  10.609
17924W        W79290  36.545  22.626  12.376
17925W        W79291  31.414  37.557  11.484
17926W        W79292  36.577  36.388  14.295
17927W        W79293  35.885  38.917   1.760
17928W        W79294  18.774  40.381  14.760
17929W        W79295  15.200  44.477   0.793
17930W        W79296   0.871  36.075   5.269
17931W        W79297   5.767  22.701  11.029
17932W        W79298  26.493   2.388   1.309
17933W        W79299  31.476  42.494  12.956
17934W        W79300  11.853  13.259  13.968
17935W        W79301  15.652  32.135   5.166
17936W        W79302  18.768  11.709  12.860
17937W        W79303  40.030  40.397  13.964
17938W        W79304  39.533  35.000   0.853
17939W        W79305  29.089  35.083   4.797
17940W        W79306   3.878   6.328  12.990
17941W        W79307  25.593  29.437   0.826
17942W        W79308  19.735  14.788   1.222
17943W        W79309  36.429  35.479   2.800
17944W        W79310  44.448  14.687  11.377
17945W        W79311  13.644   4.847  13.064
17946W        W79312   4.364  26.128   4.702
17947W        W79313  21.719   0.952   3.229
17948W        W79314  20.137   9.785  12.489
17949W        W79315   0.949  14.612  10.992
17950W        W79316  29.091  42.981   3.254
17951W        W79317  13.668  24.551   0.793
17952W        W79318  36.879  27.008   0.413
17953W        W79319  28.111   6.703   3.252
17954W        W79320   0.462  12.145   3.177
17955W        W79321  26.050  43.389  14.020
17956W        W79322  37.370  21.685   1.269
17957W        W79323  13.735  40.885  12.505
17958W        W79324   8.671  15.796  11.601
17959W        W79325  39.936  18.216  11.455
17960W        W79326  18.634  32.119   1.724
17961W        W79327  22.555  32.957  13.878
17962W        W79328  31.493   9.220   1.287
17963W        W79329   4.378  26.506   3.316
17964W        W79330  32.982  39.532   3.847
17965W        W79331  35.368  17.208   1.772
17966W        W79332   6.767  31.558  12.352
17967W        W79333  20.138  42.398  13.009
17968W        W79334   6.899  37.504   3.774
17969W        W79335  22.677   5.886   3.696
17970W        W79336  23.525  27.018   0.417
17971W        W79337   7.740  30.549  10.908
17972W        W79338  41.323   0.923  11.528
17973W        W79339  24.170   1.397   0.265
17974W        W79340   6.839   8.274   1.433
17975W        W79341  44.494  11.753  10.945
17976W        W79342  27.048  30.484  10.916
17977W        W79343  19.040  42.932  10.947
17978W        W79344  14.807   3.425   2.315
17979W        W79345   9.781  22.124   1.263
17980W        W79346  20.658   2.423  13.795
17981W        W79347  42.972  21.028   3.815
17982W        W79348  20.569  19.717  13.388
17983W        W79349  31.087  30.959  11.420
17984W        W79350  29.054  28.604   2.855
17985W        W79351   7.717  37.436  14.843
17986W        W79352   9.179  18.683   1.888
17987W        W79353  28.172  10.371  12.987
17988W        W79354  25.192  20.169   4.221
17989W        W79355   5.767   4.326   2.867
17990W        W79356  14.764   3.813   1.707
17991W        W79357   9.759  12.340   3.744
17992W        W79358  37.494  43.286  12.387
17993W        W79359  22.636  42.832  12.565
17994W        W79360  41.934  31.939  12.956
17995W        W79361  27.089  28.663  10.147
17996W        W79362  35.988  44.442   0.256
17997W        W79363  15.242  34.590   2.410
17998W        W79364   3.838  27.959  11.877
17999W        W79365  21.059  34.535   3.195
18000W        W79366  43.381  17.702  13.982
18001W        W79367  14.123  32.442   3.164
18002W        W79368   7.667  42.832  14.778
18003W        W79369  28.569  26.501   9.977
18004W        W79370  11.640  18.235   4.196
18005W        W79371  33.916   4.838   2.253
18006W        W79372  26.086  22.726   1.432
18007W        W79373  23.030  29.073   4.248
18008W        W79374   4.363   3.228  11.902
18009W        W79375  38.890  14.214   4.113
18010W        W79376   4.764   5.849  14.925
18011W        W79377  21.743   4.744  10.479
18012W        W79378   1.439  19.550   0.252
18013W        W79379   2.948  34.095   3.816
18014W        W79380  38.068  20.165   4.706
18015W        W79381  14.652  37.496   1.273
18016W        W79382   2.758   1.433   4.122
18017W        W79383   3.268  11.338   0.478
18018W        W79384  31.532  29.990   0.817
18019W        W79385  13.701  31.484   9.947
18020W        W79386  13.613  29.429  14.422
18021W        W79387  14.639  29.003   1.756
18022W        W79388  22.011   8.391   1.734
18023W        W79389   3.879  10.158   3.313
18024W        W79390  41.534   7.355   4.180
18025W        W79391  42.381  35.881   2.415
18026W        W79392  43.311  10.789  13.023
18027W        W79393  26.954  25.652  10.051
18028W        W79394  31.626  26.684  11.511
18029W        W79395  19.107  12.249  12.017
18030W        W79396  10.839   4.890  13.462
18031W        W79397  30.964  30.416  12.896
18032W        W79398  39.919  34.441  12.088
18033W        W79399  32.541  44.444   2.807
18034W        W79400  13.659  19.591   0.409
18035W        W79401  10.676  13.156  14.487
18036W        W79402  16.178  31.946   0.464
18037W        W79403   4.870  40.828   3.261
18038W        W79404  18.183  16.787   1.367
18039W        W79405  30.643  36.971   3.758
18040W        W79406  42.964  38.846   0.343
18041W        W79407  11.275  44.801   0.814
18042W        W79408  17.307  40.411  10.122
18043W        W79409  23.103  13.280  14.435
18044W        W79410  40.354  20.702   0.844
18045W        W79411  28.447  20.696  13.423
18046W        W79412   3.877  21.223  10.527
18047W        W79413  23.564  33.972   5.662
18048W        W79414  43.766  38.412  14.905
18049W        W79415  27.197  31.111   4.598
18050W        W79416  16.088  38.055  10.407
18051W        W79417  24.555  44.925   0.836
18052W        W79418  41.423  41.370  14.933
18053W        W79419  16.666  25.070   1.914
18054W        W79420  37.451  40.941  11.912
18055W        W79421  14.110  23.570  11.567
18056W        W79422  38.409   8.334   0.289
18057W        W79423  25.086  33.527   0.829
18058W        W79424  10.371   0.870   4.325
18059W        W79425  11.635  33.964   0.794
18060W        W79426  42.877  22.714  12.564
18061W        W79427  19.677  18.195  14.933
18062W        W79428   3.392  37.473  14.293
18063W        W79429  44.470  38.400   2.727
18064W        W79430  11.165  32.465   4.128
18065W        W79431   5.342  41.984   0.456
18066W        W79432   5.689   1.381   5.219
18067W        W79433  29.504  21.167  12.920
18068W        W79434   2.764  42.462  10.973
18069W        W79435  40.815  27.688  12.497
18070W        W79436  32.391   3.894  10.953
18071W        W79437  13.619   7.831   2.316
18072W        W79438  40.440  17.304  11.524
18073W        W79439  27.681  19.717   0.452
18074W        W79440  28.050  35.041   5.088
18075W        W79441  36.481   1.874   1.366
18076W        W79442  26.667  21.026   4.706
18077W        W79443  37.912  19.686  13.313
18078W        W79444  42.950  36.453   1.766
18079W        W79445  20.029  28.115   2.243
18080W        W79446  36.944  24.505  12.499
18081W        W79447  23.621  41.323   4.745
18082W        W79448  33.050   0.929   4.293
18083W        W79449  41.960  32.634  11.489
18084W        W79450  36.058   1.342  11.445
18085W        W79451  30.659   9.769  14.848
18086W        W79452  40.529   5.315   4.642
18087W        W79453  39.861  22.146   0.897
18088W        W79454  23.502  30.146   9.958
18089W        W79455  31.958  10.634  14.832
18090W        W79456  36.555  13.127  11.899
18091W        W79457   4.788  44.982  14.906
18092W        W79458  37.513  21.237   0.807
18093W        W79459  12.784  13.602  12.421
18094W        W79460  28.680  29.573   1.381
18095W        W79461  23.219  19.533  13.990
18096W        W79462  40.365  19.111  14.995
18097W        W79463  34.026  33.971  12.878
18098W        W79464  28.034   0.823   3.161
18099W        W79465  39.063  39.881  11.489
18100W        W79466  20.746  33.396  12.885
18101W        W79467  18.601  31.091   2.217
18102W        W79468  25.468  37.542   2.867
18103W        W79469  31.578  20.148   0.788
18104W        W79470  44.356  30.924  11.054
18105W        W79471  24.575   8.279   1.884
18106W        W79472  42.389  11.327   4.787
18107W        W79473  37.365  22.051  11.603
18108W        W79474  25.078  33.906   5.149
18109W        W79475   5.810  40.992   1.449
18110W        W79476  17.075  24.637  10.432
18111W        W79477   2.896  13.323  14.458
18112W        W79478   5.196  41.941  14.393
18113W        W79479  28.075  18.575  12.959
18114W        W79480   6.388   5.728   5.268
18115W        W79481  23.597  43.449  12.959
18116W        W79482  18.132  26.489  10.156
18117W        W79483  41.402  24.711  11.119
18118W        W79484  30.162  37.374   0.392
18119W        W79485  25.145  26.641  12.405
18120W        W79486  11.745   8.898   3.359
18121W        W79487  39.402  41.929  12.053
18122W        W79488  20.087  38.549  12.571
18123W        W79489  19.169  34.104   0.327
18124W        W79490  24.162  42.995   2.721
18125W        W79491  35.568  35.376   2.745
18126W        W79492   8.401  26.557  10.541
18127W        W79493  32.946  32.529   2.332
18128W        W79494  30.071  33.101  13.415
18129W        W79495  16.076  24.108  13.811
18130W        W79496  16.594  35.491  10.569
18131W        W79497  43.327  38.932  12.551
18132W        W79498   4.736  19.557   4.656
18133W        W79499  43.287  38.905   0.292
18134W        W79500  10.723  24.010  11.455
18135W        W79501  14.763  20.547   2.379
18136W        W79502   3.722  13.775  12.823
18137W        W79503  34.966  15.633   3.188
18138W        W79504  39.484  27.037   2.691
18139W        W79505  15.809  31.973  13.373
18140W        W79506  22.246  41.404   0.290
18141W        W79507   4.938  10.213  12.362
18142W        W79508  11.276  13.816  14.867
18143W        W79509  23.496  13.314   1.760
18144W        W79510  17.751  41.876  14.781
18145W        W79511   2.464  14.593   0.866
18146W        W79512  38.907  36.886   3.669
18147W        W79513  29.549   5.416   0.758
18148W        W79514  17.770  42.885  12.973
18149W        W79515  23.721   5.369   4.652
18150W        W79516  15.581  12.700   3.827
18151W        W79517   9.310  29.017  14.954
18152W        W79518  14.214  30.958   9.970
18153W        W79519  42.463  24.515  14.392
18154W        W79520  11.784  21.668  10.556
18155W        W79521   7.792  34.867   4.287
18156W        W79522   6.385   7.284  10.151
18157W        W79523  41.944  37.863  14.007
18158W        W79524  42.989  13.240   4.249
18159W        W79525  35.409  21.215   0.945
18160W        W79526  26.699  32.485   4.223
18161W        W79527  27.105   2.804  11.910
18162W        W79528  39.375  14.129  10.633
18163W        W79529   5.929  20.051  14.318
18164W        W79530  38.399  36.056  11.904
18165W        W79531  33.544  10.713   1.730
18166W        W79532   5.748  16.619   1.257
18167W        W79533   1.271  15.271   4.285
18168W        W79534  12.255  24.691   0.322
18169W        W79535   2.937  31.591  12.565
18170W        W79536   1.359  44.932  13.028
18171W        W79537   8.900  21.723  14.796
18172W        W79538  17.133   2.803  13.990
18173W        W79539  20.095  17.646   3.844
18174W        W79540  29.480  10.735  11.471
18175W        W79541  30.534  37.581   1.916
18176W        W79542  31.080  17.722   3.272
18177W        W79543  21.251   8.752   0.845
18178W        W79544  34.869   8.703  11.611
18179W        W79545   5.354  21.647   0.308
18180W        W79546   1.904  22.205  14.506
18181W        W79547  17.608  14.270   4.235
18182W        W79548   3.910  23.687  14.947
18183W        W79549  23.583  22.096   1.344
18184W        W79550  16.297  18.071  12.368
18185W        W79551  23.198   9.189   0.315
18186W        W79552  44.390  39.997   2.401
18187W        W79553  22.640  37.358  12.554
18188W        W79554   3.327  35.099  13.405
18189W        W79555  35.552  33.389  13.448
18190W        W79556  15.192  41.296   2.692
18191W        W79557  18.763  16.083   2.830
18192W        W79558  23.034   3.735  14.940
18193W        W79559  26.595  15.747  10.578
18194W        W79560  37.991   8.787   0.948
18195W        W79561  15.100  17.137   0.354
18196W        W79562  23.539  41.509  14.878
18197W        W79563  21.174  29.103   2.319
18198W        W79564  33.896   7.765  14.912
18199W        W79565  10.245   8.188   4.747
18200W        W79566   1.382  39.895   0.833
18201W        W79567  43.010  37.547  10.606
18202W        W79568   9.254  39.541  14.507
18203W        W79569  39.528  33.480  13.845
18204W        W79570  11.267  44.947   1.388
18205W        W79571   7.318  33.027  11.584
18206W        W79572  11.748   8.329   4.668
18207W        W79573   0.765   4.936  14.380
18208W        W79574  35.902  30.028  11.494
18209W        W79575  43.394  44.884  13.540
18210W        W79576   0.984  38.048   2.724
18211W        W79577  17.743  42.874   4.684
18212W        W79578  40.884  36.498  13.944
18213W        W79579  24.140  14.784  12.921
18214W        W79580  26.659  17.104  10.924
18215W        W79581  30.929  13.833  12.426
18216W        W79582  22.195  24.050  12.389
18217W        W79583  22.250  11.720   0.363
18218W        W79584  15.696  24.195  13.889
18219W        W79585  25.062  33.386   0.428
18220W        W79586  30.458  44.820  14.492
18221W        W79587  14.183  30.495   1.369
18222W        W79588  32.456  28.949   2.399
18223W        W79589  19.128  43.302   0.411
18224W        W79590  16.075  42.870  14.000
18225W        W79591  42.330   3.837   3.261
18226W        W79592  35.422  28.929   4.296
18227W        W79593   3.914  29.079  11.058
18228W        W79594  13.271  14.647   1.809
18229W        W79595   2.751   0.827   2.260
18230W        W79596  21.720   7.827   0.933
18231W        W79597  16.649  38.063  12.015
18232W        W79598  11.356  17.800   4.746
18233W        W79599  12.209  15.283  11.443
18234W        W79600  41.479   0.304   4.207
18235W        W79601  32.478  26.007  10.528
18236W        W79602  37.956  35.960   4.738
18237W        W79603  23.101  35.578   3.276
18238W        W79604  21.755  10.729   3.201
18239W        W79605  31.605  36.981   4.764
18240W        W79606   4.814  39.837   4.214
18241W        W79607  15.171  16.271  12.345
18242W        W79608  19.663  14.766   4.225
18243W        W79609   5.320  15.201   2.766
18244W        W79610  30.086  12.735   0.915
18245W        W79611  32.548  43.320   2.728
18246W        W79612   4.784  38.878  12.939
18247W        W79613   6.284  18.727   4.632
18248W        W79614  27.977  26.491   3.324
18249W        W79615   5.767  23.734  11.418
18250W        W79616   8.212  42.460  10.961
18251W        W79617   5.923  15.316   0.947
18252W        W79618  30.027  35.945  11.089
18253W        W79619  27.993  32.091   2.381
18254W        W79620  36.058  34.548   0.884
18255W        W79621   3.375  24.101  14.468
18256W        W79622  40.488  34.502   3.631
18257W        W79623  36.932  40.478   2.403
18258W        W79624  11.230  26.062  12.461
18259W        W79625  37.039  42.328  12.470
18260W        W79626   8.349  30.160   1.748
18261W        W79627  30.579  34.481  11.865
18262W        W79628  34.386  13.634  13.064
18263W        W79629  24.096  34.041   0.270
18264W        W79630   5.427  10.682  14.972
18265W        W79631  27.067   7.880  11.575
18266W        W79632  25.648  39.511  11.516
18267W        W79633  10.694  44.927   1.848
18268W        W79634   4.344  39.838  11.444
18269W        W79635  30.599   0.287  12.934
18270W        W79636   0.247  35.504  14.335
18271W        W79637  30.990  28.611  10.511
18272W        W79638   0.982  15.616   4.817
18273W        W79639  11.355   9.328  11.038
18274W        W79640  15.606  20.202   1.341
18275W        W79641  27.566  26.467  13.439
18276W        W79642  29.977  36.364   4.680
18277W        W79643   5.436   6.745  13.428
18278W        W79644  40.442  12.215  10.968
18279W        W79645  34.908   4.863  11.526
18280W        W79646  19.052  26.670  11.919
18281W        W79647  23.572  37.929  13.521
18282W        W79648   3.461  32.587  14.362
18283W        W79649   2.386   8.375  12.081
18284W        W79650   7.378   4.749   5.109
18285W        W79651  42.807  34.863  13.948
18286W        W79652  37.516  13.689   3.258
18287W        W79653   1.743   2.879  14.467
18288W        W79654  35.394  25.618   1.862
18289W        W79655  13.609  21.029  12.036
18290W        W79656  12.634  17.188  12.847
18291W        W79657  20.537   4.379  14.387
18292W        W79658   4.886  30.523  14.427
18293W        W79659  19.547  27.675   3.870
18294W        W79660  44.819  32.457  10.958
18295W        W79661  42.899  11.134   3.238
18296W        W79662   1.316   2.856   3.360
18297W        W79663   8.689  26.525  11.010
18298W        W79664  33.453  17.593  13.957
18299W        W79665   7.736  41.916   2.673
18300W        W79666  34.544   6.902  13.539
18301W        W79667  30.417  37.525   2.199
18302W        W79668  34.500  38.901   2.314
18303W        W79669  23.726  30.493  14.870
18304W        W79670  23.158  12.683  13.871
18305W        W79671  34.517   1.406   0.456
18306W        W79672  44.906  10.379  10.976
18307W        W79673  22.562  27.461  11.104
18308W        W79674   9.666  42.822  13.001
18309W        W79675  31.405  20.271  14.828
18310W        W79676   1.465   1.809  11.431
18311W        W79677  28.948  17.604   3.227
18312W        W79678   4.808   6.218   4.704
18313W        W79679  35.545  34.963  14.807
18314W        W79680  39.985  34.480   4.787
18315W        W79681  42.437  29.495  14.784
18316W        W79682   3.759  43.970  12.459
18317W        W79683  24.061   6.786  10.103
18318W        W79684   6.193   5.822  12.970
18319W        W79685  16.803  42.499   1.830
18320W        W79686  32.904  12.701  14.419
18321W        W79687  25.069  33.900  13.518
18322W        W79688  25.684  20.080  11.505
18323W        W79689  34.112  38.026   4.720
18324W        W79690   4.722  22.054   1.726
18325W        W79691  14.139  20.579  12.843
18326W        W79692  23.213  39.025  12.382
18327W        W79693  30.113   3.906   1.920
18328W        W79694  10.831  12.145  14.963
18329W        W79695  43.304  22.101   1.366
18330W        W79696  27.146  33.436   1.916
18331W        W79697  21.668  29.637  11.590
18332W        W79698  36.869  15.242   4.128
18333W        W79699   8.834  30.593   1.329
18334W        W79700  41.516   5.824  13.830
18335W        W79701  26.595  25.157  10.492
18336W        W79702  23.598  44.324  14.855
18337W        W79703  30.434   9.717   2.357
18338W        W79704  33.962  16.765  14.409
18339W        W79705  25.586  22.033  13.395
18340W        W79706  17.680  22.687   4.262
18341W        W79707   4.829   9.850  10.571
18342W        W79708   0.752   4.205  13.970
18343W        W79709   8.299  42.458  12.931
18344W        W79710  33.622  30.508   5.219
18345W        W79711   9.686   2.862   0.871
18346W        W79712   7.743  20.227  10.413
18347W        W79713   0.357  10.858   1.318
18348W        W79714  37.366  36.542  10.626
18349W        W79715  23.092  16.798  13.905
18350W        W79716  11.724  11.173  14.952
18351W        W79717  23.097  23.096   3.311
18352W        W79718  25.614  25.016  13.345
18353W        W79719  36.991   6.309   4.839
18354W        W79720   2.731   0.851   3.254
18355W        W79721  29.136  16.315   2.225
18356W        W79722  43.462  41.479   0.784
18357W        W79723   6.867  28.587   0.414
18358W        W79724  20.139  30.094   2.735
18359W        W79725  26.107  10.877   4.826
18360W        W79726   2.916   0.878  13.534
18361W        W79727  35.012  36.491  12.027
18362W        W79728  25.072  20.669  14.884
18363W        W79729  22.635  21.714   2.382
18364W        W79730   0.922  12.726  11.607
18365W        W79731   6.782  27.999   3.283
18366W        W79732  15.651   9.851  11.919
18367W        W79733  18.281  24.493  12.827
18368W        W79734   7.346  39.928   3.702
18369W        W79735  22.035  15.154  12.863
18370W        W79736  19.209   8.362  14.349
18371W        W79737   5.429  22.549   0.368
18372W        W79738   1.378   7.285   3.662
18373W        W79739   3.777  36.475  10.929
18374W        W79740  22.191   5.263   1.854
18375W        W79741  16.122  30.572   1.820
18376W        W79742  27.516  41.521   4.736
18377W        W79743  32.099  18.108  11.103
18378W        W79744  30.951  44.933   3.852
18379W        W79745  35.072  34.995  13.837
18380W        W79746  31.091  40.032  13.865
18381W        W79747  10.675   3.934  13.907
18382W        W79748   8.723   0.481  12.858
18383W        W79749  20.589  39.064  10.888
18384W        W79750  26.542  24.724   1.840
18385W        W79751  22.674  15.327   9.943
18386W        W79752  15.744  34.442  10.566
18387W        W79753  39.815  42.811   4.275
18388W        W79754  17.556  15.298  12.946
18389W        W79755  11.158  39.009   4.784
18390W        W79756  28.176  21.640   5.782
18391W        W79757  33.557  44.844   0.829
18392W        W79758  29.068  29.649  13.811
18393W        W79759  18.549  42.513   2.384
18394W        W79760  20.031  23.579  11.969
18395W        W79761  42.391  32.072  12.503
18396W        W79762  41.299  41.886  11.912
18397W        W79763  26.068  35.959   3.320
18398W        W79764  12.135  14.774  12.077
18399W        W79765   3.894  10.844   3.299
18400W        W79766  29.613  12.646  13.037
18401W        W79767  14.223  25.049  11.913
18402W        W79768  16.229  21.526  11.959
18403W        W79769  15.598  12.324   5.310
18404W        W79770   5.194   7.693   0.770
18405W        W79771   0.945  36.031  11.013
18406W        W79772  16.721  30.510  11.598
18407W        W79773  36.499  37.361  10.460
18408W        W79774   9.272  43.869   4.117
18409W        W79775  16.079  38.973   4.814
18410W        W79776  15.257  29.477   1.894
18411W        W79777  11.357  31.043   2.880
18412W        W79778   4.725  31.430   0.287
18413W        W79779  16.683  33.527   3.257
18414W        W79780   5.934  33.570  13.996
18415W        W79781  21.608  28.021  10.635
18416W        W79782  31.957  37.450   3.183
18417W        W79783  21.719  21.159  14.806
18418W        W79784  39.556   4.415   2.232
18419W        W79785  25.573   3.323   5.608
18420W        W79786  13.730  29.655  11.118
18421W        W79787  30.469  22.130   1.810
18422W        W79788  34.611  27.078  11.551
18423W        W79789  30.007  20.611  13.499
18424W        W79790   8.385  37.385   5.145
18425W        W79791   4.351  25.023   1.820
18426W        W79792  43.934  21.204  13.453
18427W        W79793  36.034   7.320   0.795
18428W        W79794   2.915  24.028   1.214
18429W        W79795  26.021  12.214   3.638
18430W        W79796  29.435  41.359   3.337
18431W        W79797  28.131  37.843   2.705
18432W        W79798  35.406  19.183   1.878
18433W        W79799  24.069   9.815   4.762
18434W        W79800  12.851  12.248   2.825
18435W        W79801  24.144  21.624  14.780
18436W        W79802  23.625   1.900   5.298
18437W        W79803   1.819  33.908  10.645
18438W        W79804  15.107  31.079  13.991
18439W        W79805  43.891  32.410   1.792
18440W        W79806  15.087  43.315   2.877
18441W        W79807  44.889  20.610  13.916
18442W        W79808  15.668  28.115   4.237
18443W        W79809  28.591  12.818   1.286
18444W        W79810  42.450   4.346   1.310
18445W        W79811  15.638  28.594   2.845
18446W        W79812  22.708  40.500   0.469
18447W        W79813  36.063   0.961  11.895
18448W        W79814  30.935   9.735   1.413
18449W        W79815  22.687  25.599  11.485
18450W        W79816  40.396  35.410  10.520
18451W        W79817  24.641  40.948  11.973
18452W        W79818   2.807  28.488   1.214
18453W        W79819  44.962  26.067   5.190
18454W        W79820  14.799  23.655  10.627
18455W        W79821  41.483  11.667   1.893
18456W        W79822  39.329   4.271  12.342
18457W        W79823  31.585  23.521  13.885
18458W        W79824  11.188  30.583   0.321
18459W        W79825  10.850  36.993  12.865
18460W        W79826  14.703  23.712  14.952
18461W        W79827   9.230  34.386  11.022
18462W        W79828  23.612  30.973  13.466
18463W        W79829  34.929   5.826  10.431
18464W        W79830   2.379  43.334   3.269
18465W        W79831  21.664  22.053  11.043
18466W        W79832  42.451  35.021  11.396
18467W        W79833  32.906  13.607   3.751
18468W        W79834  33.494  12.241  11.874
18469W        W79835  30.521  36.593  13.890
18470W        W79836   9.169  12.178   4.651
18471W        W79837  11.668  27.077   1.721
18472W        W79838  29.451   2.799  11.048
18473W        W79839  19.590  22.106  12.992
18474W        W79840  21.756   7.226   0.259
18475W        W79841   7.699  12.283  11.547
18476W        W79842  14.177  24.092   2.392
18477W        W79843   2.390   7.276   1.296
18478W        W79844  29.634  16.149  12.947
18479W        W79845  34.916  42.783   2.410
18480W        W79846  40.366  24.494  13.483
18481W        W79847  35.358   6.185   1.243
18482W        W79848   8.194  26.979   2.318
18483W        W79849  43.313  22.519   3.342
18484W        W79850  33.933  13.230   1.868
18485W        W79851  17.278  15.782  12.549
18486W        W79852  22.613  31.953   1.272
18487W        W79853  36.903   6.681   1.451
18488W        W79854  15.799   3.254   2.310
18489W        W79855   0.796  42.525   1.825
18490W        W79856   1.977  42.346  13.494
18491W        W79857  39.474  38.944  10.135
18492W        W79858  15.689  30.039   4.244
18493W        W79859  22.189  16.676  11.514
18494W        W79860  24.702  21.523  12.443
18495W        W79861   5.344   9.204   4.736
18496W        W79862  32.086  25.658   1.872
18497W        W79863  36.371  18.142  12.489
18498W        W79864  11.234  28.557   0.360
18499W        W79865  12.337   0.344  13.917
18500W        W79866  39.485  22.719  10.043
18501W        W79867  17.615  33.887  11.922
18502W        W79868   9.311  33.486   2.793
18503W        W79869  30.442  38.870   1.730
18504W        W79870  19.669  28.588  11.861
18505W        W79871  36.432   0.983  14.326
18506W        W79872  27.989  35.939   4.276
18507W        W79873  41.327   3.746  13.056
18508W        W79874  36.013  38.560   1.378
18509W        W79875  19.171  41.424   0.392
18510W        W79876  29.015  16.156  12.391
18511W        W79877   3.318  30.635  12.865
18512W        W79878  44.270   4.941   5.124
18513W        W79879  38.500   8.827  11.487
18514W        W79880   4.394  11.656   3.193
18515W        W79881  10.780  10.797   2.390
18516W        W79882  38.458  30.543  13.411
18517W        W79883   0.902  17.577   2.256
18518W        W79884  42.409  17.630  14.024
18519W        W79885  13.719   5.721   0.269
18520W        W79886  22.725  22.591   3.298
18521W        W79887  21.236   4.913   5.672
18522W        W79888  17.224  41.331  13.013
18523W        W79889  38.828   4.439  10.045
18524W        W79890  25.551  13.257   3.810
18525W        W79891   8.168  29.490   0.894
18526W        W79892  23.569  28.637   2.415
18527W        W79893  44.758   2.328  12.074
18528W        W79894  18.631  27.184  10.993
18529W        W79895  13.249  19.735   0.912
18530W        W79896  11.645  30.957  11.414
18531W        W79897  38.464  32.520  13.801
18532W        W79898  28.540  12.739   4.342
18533W        W79899   2.357  23.035   2.273
18534W        W79900  11.778  19.056  11.896
18535W        W79901  14.106  14.126  14.790
18536W        W79902  30.497  15.262  11.472
18537W        W79903  17.712  37.009  12.939
18538W        W79904  22.730  36.544   2.350
18539W        W79905   7.294  23.630   2.185
18540W        W79906   6.761  29.624   0.314
18541W        W79907   1.855  27.046   3.203
18542W        W79908  18.684  43.968   3.694
18543W        W79909  23.046  15.253   2.804
18544W        W79910  21.586  17.100  14.298
18545W        W79911  37.529  34.456   3.338
18546W        W79912   5.795  19.641   1.303
18547W        W79913  14.158  32.393   3.778
18548W        W79914  21.754  42.028  12.570
18549W        W79915  37.482  30.614  12.516
18550W        W79916  35.979  44.854  11.406
18551W        W79917  39.834  40.454   0.732
18552W        W79918   5.341  19.144   5.595
18553W        W79919  16.152  19.613   0.477
18554W        W79920   5.295  29.523   1.257
18555W        W79921  18.230  23.162   0.430
18556W        W79922  32.033  10.316   3.852
18557W        W79923  40.335   5.739   0.763
18558W        W79924  19.538  44.793  10.642
18559W        W79925  20.096  26.613  10.521
18560W        W79926  29.939  44.389  10.553
18561W        W79927   9.795  23.685  10.404
18562W        W79928   8.397   6.243   4.125
18563W        W79929  39.999  19.738  14.977
18564W        W79930  40.467  40.429  10.435
18565W        W79931  44.807  25.007   4.231
18566W        W79932  32.949  12.283   0.822
18567W        W79933  28.487  33.408  14.306
18568W        W79934  25.032  25.209   3.283
18569W        W79935  28.440   8.789  10.942
18570W        W79936  44.983   5.328   4.719
18571W        W79937  43.016  18.592   5.266
18572W        W79938   2.794  17.156  10.060
18573W        W79939   6.380   6.355   0.323
18574W        W79940  11.177   9.157   4.677
18575W        W79941  11.167  25.628  14.313
18576W        W79942  34.605  27.535   1.374
18577W        W79943  22.028  37.049  13.322
18578W        W79944  25.511   9.310   1.901
18579W        W79945  36.443  31.535   2.787
18580W        W79946   5.764  17.102   5.210
18581W        W79947  33.882  37.340   1.763
18582W        W79948  22.142  36.851   1.908
18583W        W79949  18.750  12.759   2.380
18584W        W79950  14.635  31.638  13.325
18585W        W79951  33.064  32.397   0.870
18586W        W79952  28.142   5.839  12.505
18587W        W79953  43.466  31.426  11.935
18588W        W79954  19.238  12.216   2.332
18589W        W79955  30.473  31.640  11.538
18590W        W79956   7.878  38.358  11.480
18591W        W79957  12.125  16.204   3.702
18592W        W79958   7.299   2.740  11.570
18593W        W79959  15.274   2.457   3.335
18594W        W79960  28.150  11.822  12.060
18595W        W79961  42.389  28.538  12.416
18596W        W79962   9.338  24.524  14.895
18597W        W79963  14.635  35.565   4.195
18598W        W79964   9.781  22.561   4.157
18599W        W79965   7.892  13.197  14.282
18600W        W79966  34.516  14.794  10.437
18601W        W79967  21.181  15.793   5.115
18602W        W79968  28.648   4.861   0.796
18603W        W79969   5.856  33.083   1.791
18604W        W79970   3.766  35.596   0.747
18605W        W79971   1.325   7.905   0.257
18606W        W79972  23.512  22.996   1.755
18607W        W79973  11.750  24.554   1.764
18608W        W79974  27.019  26.559   5.114
18609W        W79975  18.264  38.863   4.305
18610W        W79976  28.614   2.227  13.417
18611W        W79977  26.031  43.877   2.393
18612W        W79978  17.191  32.442  12.890
18613W        W79979  14.241  33.104   0.402
18614W        W79980  35.526  42.284  14.333
18615W        W79981   4.821  31.994  10.590
18616W        W79982  13.667  42.388  12.577
18617W        W79983  19.262   2.795   3.235
18618W        W79984  34.457  37.054  12.535
18619W        W79985  12.216  29.532  10.485
18620W        W79986  15.743   0.983   2.750
18621W        W79987  44.398  26.160  12.888
18622W        W79988  16.722   6.720  10.520
18623W        W79989  26.698  41.833  12.929
18624W        W79990  19.047  42.962   3.799
18625W        W79991  21.595  27.538   4.237
18626W        W79992  28.486  11.315  11.037
18627W        W79993   0.795   8.240   0.758
18628W        W79994  21.181  28.510   3.862
18629W        W79995   3.290  15.661  10.020
18630W        W79996  25.145   9.855  13.019
18631W        W79997  20.678   1.337  14.482
18632W        W79998   1.302  32.993  12.056
18633W        W79999  13.755  25.983   4.785
18634W        W80000  22.745  30.991   4.707
18635W        W80001  28.094  35.055   2.394
18636W        W80002  13.108   0.455   4.798
18637W        W80003  16.573  33.992  11.111
18638W        W80004  20.609  35.591   3.764
18639W        W80005  41.880  42.025   0.407
18640W        W80006  13.321  35.527  12.452
18641W        W80007  41.486   9.292   2.860
18642W        W80008  26.004  33.556   4.741
18643W        W80009  27.584  36.387   3.348
18644W        W80010   7.378   6.879   5.233
18645W        W80011  17.566  25.210  10.451
18646W        W80012  36.507  19.750   4.668
18647W        W80013  26.199  18.092   0.398
18648W        W80014   5.799  24.685  12.451
18649W        W80015  24.153  13.113  10.501
18650W        W80016  22.596  12.749   1.756
18651W        W80017  41.822   0.801  11.893
18652W        W80018  40.535  36.924   0.952
18653W        W80019   7.343  20.628  12.573
18654W        W80020  42.847  30.024  12.505
18655W        W80021   5.890  15.822  10.414
18656W        W80022  26.180  21.237   4.290
18657W        W80023  24.206  18.112   4.747
18658W        W80024  21.538   9.354   0.406
18659W        W80025  10.358  41.803  11.028
18660W        W80026  34.917   0.417  11.096
18661W        W80027  19.676   8.877  14.350
18662W        W80028   5.756  44.859  14.290
18663W        W80029  29.022  35.087   0.351
18664W        W80030  23.221  12.852   3.865
18665W        W80031  23.201  38.960  14.408
18666W        W80032  32.610  13.279   1.724
18667W        W80033  27.157  39.887  13.330
18668W        W80034  31.550  42.963   1.237
18669W        W80035  12.648  26.121  10.552
18670W        W80036  30.077  22.689  14.949
18671W        W80037  32.028  42.511   0.265
18672W        W80038  38.904  44.762  11.410
18673W        W80039   7.895  35.891   1.320
18674W        W80040  27.131  33.424   4.267
18675W        W80041  29.560   8.187  12.996
18676W        W80042  17.216  20.554   3.153
18677W        W80043   5.770  30.105  14.857
18678W        W80044   8.289  31.583  14.887
18679W        W80045  38.923   6.709  13.369
18680W        W80046  30.592  23.037  10.529
18681W        W80047  11.252   2.465   3.817
18682W        W80048  13.115   1.460   3.735
18683W        W80049  27.065  25.119   3.675
18684W        W80050  29.955   3.887   4.599
18685W        W80051   1.864  18.632   0.893
18686W        W80052  22.545  20.265   2.753
18687W        W80053  37.554  21.514   2.902
18688W        W80054  35.039  12.676   4.671
18689W        W80055  44.869   5.701  13.819
18690W        W80056  32.488  30.131  13.937
18691W        W80057  27.098   8.247   1.281
18692W        W80058  28.165  11.766  13.513
18693W        W80059  33.126  16.613   3.803
18694W        W80060   1.818   8.845  10.974
18695W        W80061   2.262   5.390  13.931
18696W        W80062  23.550  22.209  11.449
18697W        W80063  13.738  17.755  14.856
18698W        W80064  44.412  44.499   3.725
18699W        W80065   1.945   0.294   2.728
18700W        W80066  27.594  24.188   3.771
18701W        W80067  29.663  25.468   3.777
18702W        W80068  37.390  14.671  14.498
18703W        W80069  31.095  42.499   2.679
18704W        W80070  28.605  17.095   2.678
18705W        W80071  40.408  34.922  11.035
18706W        W80072  24.992  37.376   3.730
18707W        W80073  36.527  25.119   2.221
18708W        W80074  20.198   8.402   0.272
18709W        W80075  29.640  42.402  10.974
18710W        W80076  39.523  23.043   4.132
18711W        W80077  16.614   8.229   1.292
18712W        W80078  11.138   3.440  14.822
18713W        W80079   0.450  15.177   1.849
18714W        W80080  41.511  30.931   2.827
18715W        W80081  18.058   1.905   4.195
18716W        W80082  23.599  15.270   2.181
18717W        W80083   5.690   7.259  14.854
18718W        W80084  35.382  16.136   3.274
18719W        W80085  42.385  43.350  11.083
18720W        W80086  27.020  26.471  14.848
18721W        W80087  11.812   6.258   2.366
18722W        W80088  14.772   4.800  14.966
18723W        W80089   9.198   7.350  10.444
18724W        W80090  28.050  20.163   4.695
18725W        W80091  26.564  33.919  12.392
18726W        W80092  41.000  20.206   4.151
18727W        W80093   2.789   8.351  11.538
18728W        W80094  19.660  27.586   2.882
18729W        W80095  33.573  43.904   1.846
18730W        W80096   2.387  11.263   4.705
18731W        W80097   7.832  41.931   3.155
18732W        W80098  15.136  17.147   1.725
18733W        W80099   3.241  36.924   0.761
18734W        W80100  44.785  13.163  14.474
18735W        W80101  44.451  12.125  14.826
18736W        W80102  22.506  25.036  13.852
18737W        W80103  38.941  20.630  12.546
18738W        W80104   2.345  37.341  14.895
18739W        W80105  34.996  37.919   3.227
18740W        W80106   6.190   1.258  14.385
18741W        W80107   1.948  30.416  10.547
18742W        W80108  29.159  43.483   0.889
18743W        W80109  31.607  18.771  13.052
18744W        W80110  33.913  36.000  11.079
18745W        W80111   2.731  43.828  14.274
18746W        W80112  33.563   3.942  10.022
18747W        W80113  31.590  24.042  11.079
18748W        W80114  10.780   8.286  14.994
18749W        W80115  36.963  19.566  10.503
18750W        W80116  26.052  44.762   2.681
18751W        W80117   1.820  37.372   2.842
18752W        W80118  35.381  23.562  11.445
18753W        W80119  14.323   3.284   1.752
18754W        W80120  42.018  14.146  10.887
18755W        W80121  28.962  44.319  13.534
18756W        W80122   0.851  40.445   3.256
18757W        W80123  38.412  44.354   1.414
18758W        W80124   1.342   6.904   2.283
18759W        W80125  19.111   7.413   1.865
18760W        W80126   3.319   7.379   3.333
18761W        W80127   5.696  14.775  11.877
18762W        W80128  18.275  20.083  14.829
18763W        W80129  19.154   9.361  10.966
18764W        W80130  25.507  26.560   1.871
18765W        W80131  41.408  41.942   1.751
18766W        W80132  25.089  19.728  11.083
18767W        W80133  15.131  13.285  10.608
18768W        W80134  42.998  39.380   3.743
18769W        W80135  43.000  18.745  14.917
18770W        W80136   2.818  43.448   1.328
18771W        W80137  42.408  29.133  12.467
18772W        W80138  30.503  12.226   2.681
18773W        W80139  40.315  12.754  10.905
18774W        W80140  15.174   2.853  11.399
18775W        W80141   3.874   0.327   1.237
18776W        W80142  24.692  33.558   9.953
18777W        W80143  32.946  40.916   3.650
18778W        W80144  33.065  19.057  12.039
18779W        W80145  28.181   3.383  10.132
18780W        W80146   9.324  18.700   2.242
18781W        W80147   8.296  34.397   1.737
18782W        W80148  42.412  10.823   4.270
18783W        W80149  44.933  39.435   3.168
18784W        W80150  30.431  40.839  14.506
18785W        W80151   9.677   5.330   3.769
18786W        W80152   9.758   2.759  13.494
18787W        W80153   6.210  25.666   2.195
18788W        W80154  15.314  29.544  11.048
18789W        W80155  14.180  36.567  10.899
18790W        W80156  33.910   0.931   1.889
18791W        W80157  42.329  32.903  13.891
18792W        W80158  21.056  17.183   4.664
18793W        W80159  22.057  18.221  11.578
18794W        W80160  22.105  43.354  12.497
18795W        W80161  10.850  44.448   4.736
18796W        W80162  21.687  17.761  10.564
18797W        W80163  27.471  39.420  12.383
18798W        W80164   2.317  43.318   1.805
18799W        W80165  36.005  10.701   2.360
18800W        W80166  17.206  44.419   5.146
18801W        W80167  22.138  12.325   2.889
18802W        W80168  37.376  26.558  10.928
18803W        W80169  26.067   5.793  11.075
18804W        W80170   1.906  18.244  14.382
18805W        W80171   1.783  30.638   1.234
18806W        W80172  11.189   0.424   4.605
18807W        W80173   7.665  25.152  14.916
18808W        W80174   5.224  39.861   0.777
18809W        W80175   2.281  17.061   1.332
18810W        W80176  26.524  23.541  10.595
18811W        W80177  42.834  28.967  13.330
18812W        W80178   5.218   6.418   0.778
18813W        W80179  33.130  44.319  14.475
18814W        W80180  18.258   9.682   3.162
18815W        W80181  33.898   8.275  11.128
18816W        W80182  44.309  15.288  12.013
18817W        W80183   9.242  12.271  11.992
18818W        W80184  44.264  21.020  11.494
18819W        W80185  18.178   2.755   3.167
18820W        W80186  16.733  19.204  12.909
18821W        W80187  44.295  16.232  14.900
18822W        W80188  34.608  33.963   0.460
18823W        W80189   3.378  43.862  10.934
18824W        W80190  14.711   5.692  11.485
18825W        W80191   3.255  19.255   2.277
18826W        W80192   2.891   6.295   2.783
18827W        W80193  18.296  24.719  13.971
18828W        W80194  19.044  36.419   2.205
18829W        W80195  25.016   5.715   0.422
18830W        W80196  21.543  31.542  13.810
18831W        W80197  36.589  36.995   0.907
18832W        W80198  29.069  24.029   0.329
18833W        W80199  36.906  29.171   2.377
18834W        W80200  33.926  28.606  12.941
18835W        W80201  19.615  23.559  14.348
18836W        W80202   9.814  29.089  14.318
18837W        W80203  24.542  24.996   1.865
18838W        W80204  32.910  40.313   1.784
18839W        W80205  13.752  34.962  12.461
18840W        W80206  26.113   4.728   1.888
18841W        W80207  22.026  39.950  11.859
18842W        W80208   2.357  33.909   2.368
18843W        W80209  14.789  13.615   3.813
18844W        W80210  43.997   5.266   2.405
18845W        W80211  42.029   7.898  14.502
18846W        W80212  32.608  18.050  13.842
18847W        W80213  15.105  27.996   0.760
18848W        W80214  15.125  16.131   5.186
18849W        W80215   6.274   2.817   2.355
18850W        W80216  33.604  10.366  12.922
18851W        W80217  39.370  21.694   2.346
18852W        W80218  37.413  36.558   3.374
18853W        W80219  12.218   1.461  14.837
18854W        W80220  41.509  34.409   4.264
18855W        W80221  36.898  32.891   0.768
18856W        W80222   3.216  37.047  11.518
18857W        W80223  17.288  29.046  13.495
18858W        W80224  26.142  20.744  14.300
18859W        W80225  33.582   8.876   3.827
18860W        W80226  34.605  35.090  13.919
18861W        W80227  31.593  21.640  12.035
18862W        W80228  16.161   0.872   1.827
18863W        W80229  35.537  11.314   0.930
18864W        W80230   6.327  36.931  14.466
18865W        W80231  17.163   3.218   2.400
18866W        W80232   4.788  36.575   0.945
18867W        W80233   4.221  24.670   4.688
18868W        W80234  23.511   7.752   2.712
18869W        W80235  21.201  44.431   4.350
18870W        W80236  38.386   3.866  11.446
18871W        W80237  14.818  10.752  14.294
18872W        W80238  32.961  37.536  11.465
18873W        W80239   8.224   9.827   2.418
18874W        W80240  10.358  21.647  11.911
18875W        W80241  36.890   7.214  12.945
18876W        W80242  41.854  28.456   2.722
18877W        W80243  24.152  21.611   2.737
18878W        W80244   5.414  30.105  14.924
18879W        W80245  22.235  32.042  12.952
18880W        W80246   7.281  22.040   2.887
18881W        W80247  16.601  23.220   2.394
18882W        W80248  24.709  33.057  11.406
18883W        W80249  21.706  37.555  11.531
18884W        W80250  25.643  40.013   4.312
18885W        W80251  19.166  20.544  14.299
18886W        W80252   4.801  44.468  11.477
18887W        W80253   5.912  36.579  13.307
18888W        W80254  11.261  13.693   4.135
18889W        W80255  37.877  44.855   3.227
18890W        W80256  25.151   0.261  12.502
18891W        W80257  28.115  38.352  14.435
18892W        W80258  34.110   6.720  13.492
18893W        W80259  35.392  41.936   3.773
18894W        W80260  37.838  24.495   0.955
18895W        W80261  16.638  43.963  13.463
18896W        W80262  43.858  16.614   4.670
18897W        W80263   8.886  17.762   0.961
18898W        W80264  40.034   3.926  11.950
18899W        W80265  31.088  39.902   2.256
18900W        W80266   5.898  28.619   0.799
18901W        W80267  30.924   4.880  10.062
18902W        W80268  31.983  18.683   2.821
18903W        W80269   6.698  27.990  12.405
18904W        W80270   5.919  39.385   2.380
18905W        W80271   4.448  28.127   4.223
18906W        W80272  33.994  11.167   0.806
18907W        W80273  24.708  30.081   1.787
18908W        W80274  38.387  24.501   3.761
18909W        W80275   8.858  28.994  14.778
18910W        W80276  17.296   2.377  14.902
18911W        W80277  44.962  24.138   0.365
18912W        W80278  40.039  38.449   1.829
18913W        W80279  41.363   8.237   4.614
18914W        W80280   3.929  16.170   0.320
18915W        W80281  42.918  16.216  13.004
18916W        W80282  31.108  37.014  10.992
18917W        W80283   8.802  14.814   2.315
18918W        W80284   3.393  39.024   5.236
18919W        W80285  33.967  29.573  10.972
18920W        W80286  41.488  30.028   0.263
18921W        W80287  43.950   6.813   2.743
18922W        W80288   3.805  40.512   2.383
18923W        W80289   5.790  23.104   2.280
18924W        W80290  16.754  32.469  11.095
18925W        W80291  27.658   8.856  11.039
18926W        W80292  23.036   1.915   2.862
18927W        W80293  34.482   5.426  12.429
18928W        W80294  12.633  32.400  14.340
18929W        W80295  44.381  35.076   2.219
18930W        W80296  10.371  19.691   0.449
18931W        W80297  44.384  15.145  11.566
18932W        W80298  38.891  24.646  11.392
18933W        W80299   0.457  14.672  12.957
18934W        W80300  43.775  31.413   3.725
18935W        W80301  25.166   7.687  11.927
18936W        W80302  40.473  30.512   2.212
18937W        W80303   5.739  15.211  12.849
18938W        W80304   1.910  10.185   5.125
18939W        W80305  10.714  27.047   3.766
18940W        W80306  20.679  37.407   2.826
18941W        W80307   9.292  30.006  11.382
18942W        W80308  26.489  29.040   2.180
18943W        W80309  38.995  25.554   4.241
18944W        W80310  33.507  44.002   2.197
18945W        W80311   5.286  29.064   4.168
18946W        W80312  23.164  29.431   0.895
18947W        W80313  15.099   3.844  12.497
18948W        W80314  13.785   1.881  10.907
18949W        W80315   6.723  28.119  10.549
18950W        W80316  15.197  23.204   0.842
18951W        W80317   1.291   9.776  14.837
18952W        W80318  25.518  27.470  11.459
18953W        W80319  13.619  19.742   4.780
18954W        W80320  25.592  39.013   3.677
18955W        W80321  26.087   0.815  10.902
18956W        W80322   6.722  15.292  11.494
18957W        W80323  10.333  24.078   4.662
18958W        W80324  26.499   4.775  12.067
18959W        W80325  22.165  33.111   3.299
18960W        W80326  39.434  43.916  11.074
18961W        W80327  33.501  26.656   5.215
18962W        W80328  38.927  24.631  14.859
18963W        W80329   5.243  14.101   0.763
18964W        W80330  39.827  17.590  13.417
18965W        W80331   4.364  35.973   4.648
18966W        W80332  34.101  17.763  11.487
18967W        W80333   6.314  24.714  13.351
18968W        W80334  27.605   1.454  13.537
18969W        W80335  28.497   8.823   1.215
18970W        W80336  16.146  11.163  12.535
18971W        W80337   7.771  17.290  13.462
18972W        W80338   9.699  10.184   2.832
18973W        W80339  31.412  42.340   3.165
18974W        W80340  22.116  13.339   2.353
18975W        W80341  23.030   8.686  14.320
18976W        W80342  32.491   4.908   3.865
18977W        W80343  15.321   6.271   1.412
18978W        W80344  33.993  27.596   0.826
18979W        W80345  39.956  37.892   1.381
18980W        W80346   4.822  29.133   4.335
18981W        W80347  11.225  28.964   4.716
18982W        W80348  25.981  38.981  11.474
18983W        W80349  38.327  24.681   4.677
18984W        W80350  44.346  29.063  13.385
18985W        W80351  42.987  37.894  14.318
18986W        W80352  43.513  29.023   3.761
18987W        W80353  44.965   9.228   0.821
18988W        W80354  18.676   8.830  12.981
18989W        W80355  40.494  28.496  14.379
18990W        W80356  26.041  37.416   0.947
18991W        W80357  19.716  12.350   2.770
18992W        W80358  10.763  11.194   2.852
18993W        W80359  41.815  23.618   3.630
18994W        W80360  18.277  33.561  12.383
18995W        W80361  22.648  28.467   2.766
18996W        W80362  23.050  29.994  12.425
18997W        W80363  33.889  33.516  11.023
18998W        W80364  42.499  32.937  14.845
18999W        W80365  37.467  44.430  14.792
19000W        W80366  19.714  34.482  13.905
19001W        W80367  29.164  43.289  12.357
19002W        W80368  15.806  37.846   4.310
19003W        W80369  14.657   8.364   3.658
19004W        W80370   0.799  10.769   4.115
19005W        W80371   8.245  20.597   4.754
19006W        W80372   5.312  42.512   3.253
19007W        W80373  40.441   9.774   3.652
19008W        W80374  24.500  30.508  10.525
19009W        W80375  26.459   0.979   3.755
19010W        W80376  16.638   1.459  13.465
19011W        W80377  39.506   4.230  14.999
19012W        W80378  20.573  21.753   4.757
19013W        W80379  18.774  36.549   4.808
19014W        W80380  12.173  16.672  14.799
19015W        W80381  42.875  31.127  13.402
19016W        W80382  34.552  15.256  12.443
19017W        W80383  33.047  32.511   3.236
19018W        W80384  26.975   3.226   1.368
19019W        W80385  42.472   0.805   2.810
19020W        W80386  14.279  37.376   2.313
19021W        W80387  43.390  13.130   3.171
19022W        W80388  26.639  19.778   0.405
19023W        W80389  37.966   1.773   3.179
19024W        W80390   7.670  19.233   3.656
19025W        W80391   8.764  29.986   0.904
19026W        W80392  13.681  17.694   0.768
19027W        W80393  25.121   5.811  11.560
19028W        W80394  10.762  13.704  14.919
19029W        W80395  32.596  29.172   0.389
19030W        W80396  10.790  40.435  12.575
19031W        W80397   6.233  22.079  10.889
19032W        W80398  35.086  11.224  13.484
19033W        W80399   7.828  38.869   3.257
19034W        W80400  15.723   2.903   4.231
19035W        W80401  10.237   4.282  14.031
19036W        W80402  37.393  36.884  12.874
19037W        W80403  11.838   8.209   0.810
19038W        W80404  44.422  16.704   2.900
19039W        W80405  18.572  40.537   1.898
19040W        W80406  19.154  28.447  10.412
19041W        W80407   4.835   7.412  13.901
19042W        W80408  37.462  20.068  14.454
19043W        W80409  26.077  42.520   3.714
19044W        W80410  23.052  13.256  13.946
19045W        W80411  11.172  43.415   3.675
19046W        W80412   2.827  37.068  13.521
19047W        W80413   8.208  12.695   1.865
19048W        W80414  24.183  16.083  14.496
19049W        W80415  33.895  32.889   4.215
19050W        W80416  34.544  19.252  11.420
19051W        W80417  13.127   0.769  13.902
19052W        W80418  36.958  13.294  13.851
19053W        W80419  33.948  22.023  14.477
19054W        W80420  34.564   2.342  12.039
19055W        W80421   8.664  40.042   3.684
19056W        W80422  19.094  34.874  12.898
19057W        W80423  29.574  27.470  14.821
19058W        W80424  16.258  24.488  14.809
19059W        W80425   6.242  10.770   3.362
19060W        W80426   2.781   8.358   4.278
19061W        W80427  19.650   9.782   0.442
19062W        W80428  24.633  15.626   2.263
19063W        W80429  27.053  26.082  10.908
19064W        W80430   6.701  24.150   2.813
19065W        W80431  13.116  22.683  12.915
19066W        W80432  12.839   6.241  14.494
19067W        W80433  17.204  42.443   3.750
19068W        W80434  40.948  21.118  11.926
19069W        W80435   2.797  24.210  13.838
19070W        W80436  43.996  12.663  12.033
19071W        W80437  17.707  26.611  11.874
19072W        W80438  25.642   2.880  12.893
19073W        W80439  34.097  21.598   9.954
19074W        W80440  33.501  38.411  14.502
19075W        W80441  43.887   0.790   1.826
19076W        W80442  36.938   8.266   4.763
19077W        W80443  16.609  37.014  13.439
19078W        W80444  22.542  44.304   4.797
19079W        W80445   7.735   2.305  12.496
19080W        W80446  43.974  20.726   4.796
19081W        W80447  40.856   3.744   0.458
19082W        W80448   9.681  12.633   0.300
19083W        W80449  20.638  41.943   3.288
19084W        W80450  15.151  22.188   2.302
19085W        W80451  41.535   8.303   3.812
19086W        W80452  26.153  25.028   1.886
19087W        W80453  37.902   6.686  14.381
19088W        W80454   2.451   5.222  12.370
19089W        W80455  17.708  33.524   3.722
19090W        W80456  34.399   5.358   1.695
19091W        W80457  17.691  16.117   3.852
19092W        W80458  30.135   1.280  11.465
19093W        W80459  12.762  31.048  12.556
19094W        W80460  30.555  23.986  10.488
19095W        W80461  43.887  22.251   1.889
19096W        W80462  12.808  42.368  11.085
19097W        W80463  24.652  24.119   2.292
19098W        W80464  34.021  35.982   3.307
19099W        W80465  20.197  37.859  13.448
19100W        W80466  41.849  32.122   2.330
19101W        W80467  33.420  35.455   3.208
19102W        W80468   4.314   2.947   2.268
19103W        W80469  13.787  18.641  12.950
19104W        W80470   4.824  22.643  10.966
19105W        W80471  38.880  41.326   2.316
19106W        W80472  28.502   6.730   4.722
19107W        W80473  18.598  41.329   2.780
19108W        W80474  15.263  36.525  13.466
19109W        W80475  16.599   2.424  13.479
19110W        W80476  27.581  44.378  10.979
19111W        W80477  41.915  21.621   0.267
19112W        W80478  25.524  41.378  10.550
19113W        W80479  28.119  21.638  10.015
19114W        W80480  29.508  38.922   3.304
19115W        W80481   3.810  38.928   0.784
19116W        W80482  31.932  12.288   3.820
19117W        W80483   6.743  14.288  11.496
19118W        W80484  40.399  40.432  12.877
19119W        W80485  43.939  31.050   4.260
19120W        W80486  32.610  30.056   2.676
19121W        W80487  32.918  30.978   1.799
19122W        W80488  26.521  33.462   4.165
19123W        W80489  35.455  20.148  11.547
19124W        W80490  18.690  11.212   3.728
19125W        W80491  40.851  22.078  10.603
19126W        W80492   2.357   7.871   0.423
19127W        W80493  31.419   9.863   3.259
19128W        W80494  32.422  13.325   3.701
19129W        W80495  33.878  21.143  11.105
19130W        W80496  18.551  15.757  12.508
19131W        W80497   3.750  11.744  13.479
19132W        W80498  43.943  22.600   1.746
19133W        W80499  39.873  36.474  10.996
19134W        W80500  37.479  27.005   0.812
19135W        W80501   5.691  40.906  11.957
19136W        W80502   5.738  17.565   1.358
19137W        W80503  43.880  14.801   1.351
19138W        W80504   2.869  21.649  12.959
19139W        W80505   5.875  37.351  10.451
19140W        W80506  31.461  19.583  12.872
19141W        W80507   6.390  43.905  14.864
19142W        W80508   5.910   3.886  14.316
19143W        W80509   9.790  14.648   2.389
19144W        W80510  26.094   2.792   2.764
19145W        W80511  35.455   7.801  11.911
19146W        W80512  32.954  31.513  13.370
19147W        W80513  24.123  44.260   2.216
19148W        W80514  14.104  14.684   3.325
19149W        W80515  31.567   7.907  11.075
19150W        W80516   4.718  43.408  10.538
19151W        W80517  35.414  32.417   2.870
19152W        W80518   3.760   8.375  14.388
19153W        W80519   6.713   0.861   1.233
19154W        W80520   2.885  33.425  11.082
19155W        W80521  23.583  28.162   9.940
19156W        W80522  32.972  29.646  11.600
19157W        W80523  30.037  38.972  11.060
19158W        W80524  16.188  12.652   2.238
19159W        W80525  42.340  29.154   0.777
19160W        W80526  14.654  43.290  10.645
19161W        W80527  28.069   2.238  11.411
19162W        W80528  11.220   7.862   0.260
19163W        W80529   8.313  25.031   4.188
19164W        W80530  32.468  41.429  10.469
19165W        W80531  30.030  12.190   3.768
19166W        W80532  29.580  33.892  14.976
19167W        W80533  12.799   6.873  11.530
19168W        W80534  38.405   3.863  12.456
19169W        W80535  36.870   3.816   4.807
19170W        W80536  44.364  34.611   2.731
19171W        W80537  10.343  14.699  12.011
19172W        W80538  10.277  19.197   5.261
19173W        W80539   8.215  35.587  13.832
19174W        W80540  11.263  41.383  13.853
19175W        W80541  10.865  20.671  12.451
19176W        W80542  12.805  10.212  14.509
19177W        W80543  23.210  12.843   3.264
19178W        W80544  36.387  26.622  12.540
19179W        W80545  21.156  26.594  12.861
19180W        W80546  31.516   3.812   2.399
19181W        W80547  41.380   4.770   1.405
19182W        W80548   0.763  10.307   9.964
19183W        W80549  34.095  32.398  10.509
19184W        W80550   2.736  31.057  13.927
19185W        W80551  17.145  31.502   5.246
19186W        W80552  13.704   2.286   0.274
19187W        W80553  17.118  14.260   0.910
19188W        W80554  34.407  24.065  13.331
19189W        W80555  40.474  23.180   2.737
19190W        W80556  37.081   4.879   0.784
19191W        W80557  18.218  38.357  14.450
19192W        W80558   9.157  40.429   2.248
19193W        W80559  12.172  17.762   1.303
19194W        W80560  38.415  20.641  11.902
19195W        W80561   4.706  40.531  11.886
19196W        W80562  21.175   2.940  13.468
19197W        W80563  20.092  42.889  14.321
19198W        W80564   5.851  11.347   0.267
19199W        W80565  29.061  12.641   1.763
19200W        W80566  12.694  43.274   3.804
19201W        W80567  25.122  42.439   1.235
19202W        W80568   0.391  14.212  12.501
19203W        W80569  31.082   9.777   2.863
19204W        W80570  33.052  22.592   3.641
19205W        W80571  14.183  41.944  13.972
19206W        W80572   5.761   0.797   1.270
19207W        W80573  43.824   7.743  13.046
19208W        W80574  14.684   9.772   2.226
19209W        W80575  33.898  13.650  14.987
19210W        W80576  38.440  29.460  14.461
19211W        W80577  43.818   0.434  13.452
19212W        W80578  24.011  23.683   1.385
19213W        W80579  43.392  28.565   2.351
19214W        W80580   9.191   5.747   4.644
19215W        W80581  33.034  18.721  11.523
19216W        W80582   5.851  24.057  14.863
19217W        W80583  21.025  39.398  10.944
19218W        W80584   1.750  26.566   5.765
19219W        W80585  13.680  42.783  14.315
19220W        W80586  10.693  37.428   0.934
19221W        W80587  21.088  34.438   3.819
19222W        W80588   5.395  34.503  13.429
19223W        W80589  42.310  10.840  14.010
19224W        W80590  11.136  24.625  14.765
19225W        W80591  14.199  27.173  13.881
19226W        W80592  26.120  31.936  11.581
19227W        W80593  40.446   5.199  11.981
19228W        W80594  41.844  35.375   0.904
19229W        W80595  38.482  35.093   3.793
19230W        W80596  25.586  35.050   1.223
19231W        W80597   8.200  25.080   1.728
19232W        W80598  31.023  39.546  10.501
19233W        W80599  12.775  34.044   2.795
19234W        W80600  10.282   7.391  12.428
19235W        W80601  14.664  36.948  13.387
19236W        W80602   8.741  14.632   3.344
19237W        W80603  26.689  38.348  11.942
19238W        W80604  12.776  26.130  13.980
19239W        W80605  43.817  42.988  13.006
19240W        W80606  30.424  23.569   5.292
19241W        W80607  15.297  22.176  14.875
19242W        W80608  12.726  27.589   1.308
19243W        W80609  14.248  37.943  13.349
19244W        W80610  12.696   3.762  11.072
19245W        W80611  31.932  43.983   0.773
19246W        W80612  28.678  14.738   4.741
19247W        W80613  17.692  26.998  12.461
19248W        W80614   6.208   0.307  12.880
19249W        W80615  11.183   0.794  13.324
19250W        W80616   4.405  23.601  13.938
19251W        W80617   9.883  33.082   0.306
19252W        W80618   7.328  24.578  14.490
19253W        W80619  34.978  32.058  11.102
19254W        W80620  24.059  19.278   3.684
19255W        W80621   8.717  35.909  10.129
19256W        W80622   0.348  36.381   0.765
19257W        W80623   1.804  12.138  13.504
19258W        W80624  28.609  37.425  13.443
19259W        W80625  43.378  42.853  11.012
19260W        W80626  17.232   3.431   3.363
19261W        W80627  23.665  17.079  11.104
19262W        W80628  36.570  31.481   4.328
19263W        W80629  35.029  39.952   2.774
19264W        W80630  16.297   3.223   3.665
19265W        W80631   8.687  20.540  12.521
19266W        W80632  17.110  11.795  12.370
19267W        W80633   3.216  42.319  10.894
19268W        W80634  44.494  33.545  13.358
19269W        W80635  14.832   3.238  10.907
19270W        W80636  22.109   3.727   9.645
19271W        W80637  26.498  23.207  13.869
19272W        W80638  30.950  22.640   4.201
19273W        W80639   7.783  28.538  11.073
19274W        W80640  18.194  43.800   4.788
19275W        W80641  42.319  13.306   2.872
19276W        W80642  27.465   6.262   0.386
19277W        W80643  27.658   7.227   0.875
19278W        W80644  28.069  44.396  13.015
19279W        W80645  43.329  30.111  12.840
19280W        W80646  24.685  34.077  13.063
19281W        W80647  40.038  29.983   3.693
19282W        W80648  31.937   5.729  11.467
19283W        W80649  26.188  38.861  13.969
19284W        W80650  21.209  35.523   2.396
19285W        W80651  43.515  33.089  10.555
19286W        W80652  28.508  20.186  14.862
19287W        W80653  20.766   5.280   5.252
19288W        W80654  35.388  42.327   0.945
19289W        W80655   3.320  26.102  14.916
19290W        W80656  20.191  35.489   1.864
19291W        W80657  17.648  35.904  13.794
19292W        W80658  18.684   6.226  12.053
19293W        W80659   6.414  44.903  14.959
19294W        W80660   7.750  33.617  14.400
19295W        W80661  14.326  34.105  12.039
19296W        W80662  23.025  12.156   0.476
19297W        W80663  34.016  43.450  11.493
19298W        W80664  39.867  16.092  13.808
19299W        W80665  30.033  18.611  13.810
19300W        W80666  40.377   5.210  14.023
19301W        W80667  44.807  34.571   1.360
19302W        W80668  25.536  16.622   2.215
19303W        W80669  44.413  15.815   2.217
19304W        W80670  13.243   4.811  11.403
19305W        W80671  10.742  12.155   4.742
19306W        W80672  11.223  19.208  14.788
19307W        W80673  25.085   0.964  13.998
19308W        W80674  20.648  24.985  11.966
19309W        W80675  44.445  36.081   1.879
19310W        W80676  39.956  33.064  14.030
19311W        W80677  21.095   4.231  13.494
19312W        W80678  21.227   8.723   2.843
19313W        W80679  14.724  37.855   3.644
19314W        W80680  20.573  24.678  11.514
19315W        W80681  20.120   1.473   2.687
19316W        W80682   5.782  32.484   2.738
19317W        W80683  17.135  26.146   2.752
19318W        W80684  11.275  26.965   0.753
19319W        W80685  18.774  21.258  11.032
19320W        W80686   5.736  21.586   2.410
19321W        W80687  11.843  44.503  11.969
19322W        W80688  10.221  19.225  10.544
19323W        W80689  20.669  23.625   2.395
19324W        W80690  28.564   8.841   4.241
19325W        W80691  18.175  43.508   4.282
19326W        W80692  20.267  27.467  10.900
19327W        W80693   4.266  32.517   1.223
19328W        W80694  22.648  12.704   0.782
19329W        W80695  15.650  40.391   0.950
19330W        W80696   0.929  19.547   5.126
19331W        W80697  14.786  17.582  12.532
19332W        W80698  28.934  17.282  13.352
19333W        W80699   2.966  11.720   0.848
19334W        W80700   5.750  19.197  11.567
19335W        W80701  23.607  40.476   0.349
19336W        W80702  16.782   2.231   3.318
19337W        W80703   4.779  37.424   0.791
19338W        W80704  21.049  14.242  10.535
19339W        W80705  29.550   5.401   4.143
19340W        W80706  38.934  38.062  14.953
19341W        W80707  11.717  24.978   2.225
19342W        W80708  41.367  20.580   4.176
19343W        W80709  18.256   7.386   4.311
19344W        W80710   0.337  35.488  12.966
19345W        W80711  35.425   7.854   2.876
19346W        W80712   6.693   8.713   0.800
19347W        W80713  36.493  26.631  10.643
19348W        W80714   1.425   2.830  11.013
19349W        W80715   3.801  20.225  10.567
19350W        W80716  37.933  10.726   0.916
19351W        W80717  34.891  16.097   4.178
19352W        W80718  17.161  31.467   4.707
19353W        W80719  28.098  14.612   0.900
19354W        W80720  37.995  15.612   2.860
19355W        W80721  15.730  41.929   4.729
19356W        W80722   5.311  41.334   4.115
19357W        W80723  30.998  19.685   2.389
19358W        W80724  24.221  40.860  13.927
19359W        W80725  29.592  17.653   4.711
19360W        W80726  28.065   9.167  14.824
19361W        W80727  29.658   3.341   1.384
19362W        W80728  22.673  13.696   0.818
19363W        W80729  23.600  20.065   3.789
19364W        W80730  27.048  20.052   2.277
19365W        W80731  40.972  11.801  11.034
19366W        W80732  31.067  15.646  13.479
19367W        W80733  42.868   2.744   1.842
19368W        W80734   7.243  20.653  10.963
19369W        W80735  37.079   3.832   2.795
19370W        W80736  33.951  26.552   3.822
19371W        W80737   0.466   8.685  12.944
19372W        W80738  14.671   7.326   5.264
19373W        W80739  36.962  23.232   2.275
19374W        W80740  13.272  37.503   1.264
19375W        W80741  24.052  26.203   2.717
19376W        W80742  32.983  39.041   3.658
19377W        W80743   7.847  31.612   2.310
19378W        W80744  10.829  31.932  12.982
19379W        W80745  42.300  23.207  12.489
19380W        W80746  37.539  21.177  12.485
19381W        W80747   1.468   9.241  14.983
19382W        W80748   1.968   9.171   3.187
19383W        W80749  41.014  24.680  13.508
19384W        W80750  22.538  38.933  10.409
19385W        W80751   5.225  25.163   2.869
19386W        W80752  41.908  13.162   2.815
19387W        W80753  31.627  33.894   4.187
19388W        W80754  42.446  11.681  13.421
19389W        W80755  44.260  18.649  14.844
19390W        W80756  39.344  14.627  11.887
19391W        W80757  31.078  17.735  14.988
19392W        W80758  27.678  44.809  10.431
19393W        W80759  32.462   8.885  13.032
19394W        W80760  18.126  24.715   1.321
19395W        W80761   5.776  18.186   3.812
19396W        W80762   9.167  27.967   5.315
19397W        W80763  12.848  21.565  10.477
19398W        W80764  19.245  30.120  11.442
19399W        W80765  37.932  13.317  13.046
19400W        W80766  30.461  37.498   2.777
19401W        W80767  20.265   2.240   3.773
19402W        W80768  20.675  39.448   1.419
19403W        W80769  18.176  13.625  10.511
19404W        W80770  24.573   3.443   1.429
19405W        W80771  18.588  33.599   1.785
19406W        W80772  39.407   4.880   2.223
19407W        W80773  13.228   6.858   1.287
19408W        W80774  23.714  12.228  12.086
19409W        W80775  25.148  29.929  13.849
19410W        W80776  13.221  32.142  12.418
19411W        W80777   7.385  23.191  14.507
19412W        W80778  43.326  10.295   0.804
19413W        W80779  20.715   8.881   4.673
19414W        W80780  34.489  32.992   3.197
19415W        W80781  28.057  30.054  13.387
19416W        W80782   0.818  25.513   1.313
19417W        W80783  43.887   7.302   3.264
19418W        W80784  20.043  21.188  11.587
19419W        W80785   6.332  26.004   3.727
19420W        W80786  12.290  33.472   1.796
19421W        W80787  34.000  41.870  14.964
19422W        W80788  35.451  19.579   4.770
19423W        W80789  10.856  17.093   1.428
19424W        W80790  14.145  36.365   1.753
19425W        W80791  23.086  13.655  10.606
19426W        W80792  30.105  11.369  12.424
19427W        W80793  31.557   4.720  11.604
19428W        W80794  11.642  36.042  10.407
19429W        W80795  17.215  32.954   4.647
19430W        W80796  23.179  26.520   4.322
19431W        W80797   7.265  23.721  11.903
19432W        W80798   4.391  23.522  13.055
19433W        W80799  28.530   9.323  13.903
19434W        W80800  16.210  21.652  10.630
19435W        W80801   4.219  18.696   0.889
19436W        W80802  40.832   8.762   3.747
19437W        W80803  35.110   9.856  14.409
19438W        W80804   2.723  40.322   0.462
19439W        W80805   9.390   4.411  11.374
19440W        W80806  12.844  13.740  12.941
19441W        W80807  34.588   7.814   2.699
19442W        W80808  11.634  15.611  13.004
19443W        W80809  42.424  25.028  10.597
19444W        W80810  11.689   2.819  14.968
19445W        W80811  29.064  25.646  12.563
19446W        W80812   7.675  14.153   4.181
19447W        W80813  21.710  31.031   1.705
19448W        W80814   8.886  35.468  11.996
19449W        W80815  27.969  37.012  13.384
19450W        W80816  29.995  11.740  12.071
19451W        W80817  27.071  41.837   4.186
19452W        W80818  42.344  28.085  14.808
19453W        W80819  36.885  38.936   3.777
19454W        W80820  16.718   5.310  12.517
19455W        W80821  15.674  27.640   2.181
19456W        W80822  24.560  14.621  14.311
19457W        W80823  42.010  34.009  12.862
19458W        W80824   7.195  40.378   4.341
19459W        W80825  34.506  11.772  11.969
19460W        W80826   6.373  24.693   4.717
19461W        W80827  42.998  31.044   3.333
19462W        W80828  26.563   7.861   4.274
19463W        W80829   8.657  21.151   2.399
19464W        W80830   2.789  27.451  11.444
19465W        W80831  20.109  13.196   0.269
19466W        W80832  16.311  27.027   1.367
19467W        W80833  22.673  39.966   1.925
19468W        W80834  43.500  32.473   3.247
19469W        W80835  25.135   3.901   2.769
19470W        W80836  20.192  21.532   2.276
19471W        W80837  13.114   0.412   1.895
19472W        W80838  21.653  38.042   4.216
19473W        W80839  13.802  29.954  12.459
19474W        W80840   4.310  30.929   1.726
19475W        W80841  32.986  11.838  11.088
19476W        W80842   1.247  25.964  10.405
19477W        W80843  22.089  17.625   4.195
19478W        W80844  31.088  44.262   3.851
19479W        W80845  42.432   4.403  11.945
19480W        W80846  37.942  30.080   4.610
19481W        W80847  11.749  40.352  12.078
19482W        W80848   2.442  31.931   3.749
19483W        W80849  36.501  12.685   5.194
19484W        W80850   5.810  26.474   2.302
19485W        W80851  35.974   0.763   0.848
19486W        W80852  33.492   6.734   2.202
19487W        W80853  37.906  39.409   1.307
19488W        W80854   2.471  17.111  14.483
19489W        W80855  10.845  19.675  13.383
19490W        W80856   0.474  12.199   1.370
19491W        W80857   9.805  23.096  14.768
19492W        W80858  30.009  14.270   0.738
19493W        W80859  16.151  27.024  13.875
19494W        W80860  23.082   4.288  11.393
19495W        W80861  41.408   2.250   4.817
19496W        W80862  40.887   7.174   2.865
19497W        W80863  35.881  27.184   2.231
19498W        W80864  19.592  23.044  12.928
19499W        W80865   7.358   7.761   2.379
19500W        W80866  26.526  26.638   0.909
19501W        W80867  21.572   8.779  14.334
19502W        W80868  31.441  22.740   2.747
19503W        W80869  44.416  38.923  12.942
19504W        W80870  20.143  19.585   0.870
19505W        W80871  37.942   4.721   0.300
19506W        W80872  37.073  43.358  12.403
19507W        W80873   4.360  14.327  13.518
19508W        W80874  28.174   0.346   2.209
19509W        W80875  24.706  31.470   0.443
19510W        W80876  44.399  29.052   0.937
19511W        W80877  35.048   2.302   2.363
19512W        W80878  15.277  39.999  13.445
19513W        W80879  18.768  16.073   4.630
19514W        W80880  12.649  13.218  13.823
19515W        W80881  27.620  11.230  10.610
19516W        W80882  32.617  11.321   4.695
19517W        W80883  35.982  14.721  11.904
19518W        W80884   9.874  14.803  13.416
19519W        W80885  27.091  20.549  12.012
19520W        W80886  33.019  10.346  10.946
19521W        W80887  20.609  32.505  12.362
19522W        W80888   3.737  43.880   1.401
19523W        W80889  15.234  19.211   0.934
19524W        W80890  11.796  27.965   4.339
19525W        W80891   2.374  33.414  10.891
19526W        W80892   2.784  29.129  11.900
19527W        W80893  27.495  24.974   0.892
19528W        W80894  27.994  31.516  12.363
19529W        W80895  16.298  20.230   3.788
19530W        W80896  21.258  34.482   2.290
19531W        W80897  21.182  44.845  14.778
19532W        W80898  35.992   8.357   2.741
19533W        W80899   2.310   0.483  12.902
19534W        W80900   0.461  37.046  11.893
19535W        W80901  44.881  37.850  14.023
19536W        W80902  26.493  11.149   2.238
19537W        W80903  36.445   0.921   3.753
19538W        W80904  37.085  35.050  13.941
19539W        W80905  33.019  10.712  13.462
19540W        W80906  30.510  17.732   5.135
19541W        W80907  23.706  25.491  11.027
19542W        W80908  37.017  11.777   0.866
19543W        W80909  31.496   5.193   0.779
19544W        W80910  13.736  15.587  14.025
19545W        W80911   2.933   3.408   5.267
19546W        W80912  42.486  32.623  13.531
19547W        W80913   0.784  42.893  13.925
19548W        W80914   3.424  19.753  11.480
19549W        W80915   5.436  23.560  14.795
19550W        W80916  44.759  24.567   4.158
19551W        W80917  38.901  29.057  10.527
19552W        W80918  12.177  33.428   5.709
19553W        W80919  29.530  15.648  13.866
19554W        W80920  24.482  28.146   3.163
19555W        W80921  15.122  41.791   2.680
19556W        W80922  19.157  32.092  12.929
19557W        W80923   5.863  38.957   3.650
19558W        W80924  40.910  38.502  10.576
19559W        W80925   8.732  29.595  12.487
19560W        W80926  14.269  21.566   4.723
19561W        W80927  17.068  21.227  14.904
19562W        W80928  38.985  27.639   1.425
19563W        W80929  21.622  27.193   4.629
19564W        W80930  31.461  32.546  11.058
19565W        W80931   5.876  22.526   4.696
19566W        W80932   9.307  15.653  14.909
19567W        W80933  14.700  10.756  13.479
19568W        W80934  27.109  37.531   4.617
19569W        W80935  21.673  27.968   0.373
19570W        W80936  35.880   8.217  12.407
19571W        W80937  12.758  15.724  12.458
19572W        W80938  30.025  11.867  14.383
19573W        W80939  30.033   5.224   0.793
19574W        W80940  28.139   0.975  11.473
19575W        W80941  27.615   2.335   0.330
19576W        W80942  15.177   1.843   2.693
19577W        W80943   2.820   6.253  11.384
19578W        W80944  31.903  26.636   0.762
19579W        W80945  19.202  27.619   3.634
19580W        W80946  30.134  16.210  12.563
19581W        W80947  35.083  42.917  11.099
19582W        W80948  15.820   7.305   0.290
19583W        W80949  15.785  24.522  12.980
19584W        W80950  22.056  25.587   4.132
19585W        W80951  42.922  32.494  14.421
19586W        W80952   5.430  19.748  11.024
19587W        W80953  42.941  20.699  14.769
19588W        W80954  19.106  12.715  12.074
19589W        W80955  18.628  18.581  11.049
19590W        W80956  15.665   3.758  14.421
19591W        W80957   3.822  39.552  14.434
19592W        W80958  37.573   6.206  12.823
19593W        W80959   6.203  13.602  13.824
19594W        W80960  28.172   1.397   0.745
19595W        W80961  36.393   7.242   3.717
19596W        W80962  13.349  20.742   1.904
19597W        W80963  28.449  44.372  12.380
19598W        W80964  16.218  24.136   1.435
19599W        W80965  29.569  25.039   1.725
19600W        W80966  44.376  31.447  14.361
19601W        W80967  33.400   9.744  13.895
19602W        W80968  39.342  38.336   1.783
19603W        W80969  40.413  16.149   4.319
19604W        W80970  10.868  29.652   0.367
19605W        W80971  40.987   4.248   3.230
19606W        W80972   7.704  10.167  12.401
19607W        W80973  20.126   4.783  13.994
19608W        W80974  25.550  39.042  12.341
19609W        W80975  28.627  15.323  11.939
19610W        W80976  27.531   2.812  11.003
19611W        W80977  23.056  32.497   1.797
19612W        W80978  20.712  40.806   1.248
19613W        W80979   9.716  18.108   4.210
19614W        W80980  32.491   3.952  11.466
19615W        W80981  26.566  11.304  11.988
19616W        W80982  44.886  29.086   0.451
19617W        W80983  13.124  13.749   2.186
19618W        W80984  24.180  43.853   2.318
19619W        W80985  26.524  14.797  12.458
19620W        W80986  21.639  38.981   0.933
19621W        W80987  14.737  17.190  12.347
19622W        W80988  37.553   1.825  14.031
19623W        W80989  34.588  32.054  12.047
19624W        W80990  22.559  19.044  14.958
19625W        W80991  33.996  21.057  14.879
19626W        W80992  40.457  42.014   3.758
19627W        W80993  10.329   4.916   0.374
19628W        W80994  24.517  29.123   2.403
19629W        W80995  38.904  38.950   3.766
19630W        W80996   9.186  16.115   2.883
19631W        W80997   5.934  20.163   3.379
19632W        W80998  18.565   6.284   2.290
19633W        W80999  35.580  36.879  14.763
19634W        W81000   2.319   1.836  14.329
19635W        W81001   4.747  16.797   3.218
19636W        W81002  18.612  13.669   0.864
19637W        W81003   6.210  26.651   0.825
19638W        W81004  10.806  36.357  14.919
19639W        W81005   6.373  21.196   2.677
19640W        W81006  30.506  26.673   1.804
19641W        W81007  18.737   2.964  14.777
19642W        W81008  43.276  39.843   4.767
19643W        W81009   7.775  16.581  13.829
19644W        W81010   5.432  13.719   1.877
19645W        W81011  27.188   6.391  12.497
19646W        W81012  23.582  29.043   4.603
19647W        W81013  34.599  16.122  14.961
19648W        W81014   5.335  14.224   9.469
19649W        W81015  21.648  13.122   1.812
19650W        W81016   8.352  30.628   3.355
19651W        W81017   7.787   7.750   3.145
19652W        W81018   7.239   3.820   0.407
19653W        W81019  41.297  38.957   2.361
19654W        W81020  22.692  30.442   1.847
19655W        W81021  19.225  13.152   4.817
19656W        W81022   9.383  32.891   3.371
19657W        W81023  11.162  34.503   4.637
19658W        W81024   9.255   5.410   3.844
19659W        W81025   2.910  43.781  13.420
19660W        W81026  33.531  11.251   1.259
19661W        W81027   5.217  37.038   0.387
19662W        W81028  12.724  31.472   0.923
19663W        W81029  34.028  32.140   1.371
19664W        W81030  12.713  37.424   0.834
19665W        W81031   2.773   6.415  13.841
19666W        W81032  31.973  40.500   5.088
19667W        W81033  13.161  16.267  12.436
19668W        W81034  27.123  24.046   3.303
19669W        W81035  11.667  31.976  11.004
19670W        W81036  43.348   5.705   0.876
19671W        W81037  40.350  43.984  14.864
19672W        W81038  41.025  25.980  13.526
19673W        W81039  24.204  19.160   0.311
19674W        W81040  20.709  15.732  14.835
19675W        W81041  22.548  32.488  10.427
19676W        W81042  14.272  44.395   0.277
19677W        W81043  12.207  29.146   0.795
19678W        W81044  10.142  17.163  12.464
19679W        W81045  42.475   8.700   4.782
19680W        W81046  37.388  39.421  12.092
19681W        W81047  27.482  14.681   4.120
19682W        W81048  28.023  13.167   0.343
19683W        W81049  32.994  27.956  12.006
19684W        W81050   2.347  36.375   3.190
19685W        W81051  31.929   1.777   1.414
19686W        W81052  21.629  30.461  12.412
19687W        W81053   4.239   7.699  13.921
19688W        W81054  40.867  15.126   3.774
19689W        W81055   7.289  43.425  10.498
19690W        W81056   1.442  43.825  13.944
19691W        W81057  36.920   3.877  11.109
19692W        W81058  31.547  20.553  14.993
19693W        W81059  22.609   6.844  14.426
19694W        W81060  38.912  25.519   2.729
19695W        W81061   4.812  34.423   0.915
19696W        W81062  20.562   9.212   3.646
19697W        W81063  31.513  27.058  14.794
19698W        W81064  43.364  36.425  10.430
19699W        W81065  16.645  32.466  14.774
19700W        W81066  38.522  12.839   0.471
19701W        W81067  19.088  13.631  13.469
19702W        W81068  23.020   9.356   0.962
19703W        W81069  35.971  23.516   2.669
19704W        W81070  44.941  39.940  11.421
19705W        W81071  18.726  17.217  11.538
19706W        W81072  44.966   2.870   1.907
19707W        W81073  41.351  30.056  14.844
19708W        W81074  29.458  23.569   4.776
19709W        W81075  24.714   5.728  12.042
19710W        W81076  12.837  35.891   1.910
19711W        W81077   9.301   3.223  12.061
19712W        W81078  21.158  17.754   0.462
19713W        W81079   2.350  35.013  13.983
19714W        W81080  16.721   6.752  14.794
19715W        W81081  24.662  11.851   3.740
19716W        W81082  37.508   1.297  14.837
19717W        W81083  23.081  33.428   3.265
19718W        W81084  36.891  22.227   4.688
19719W        W81085   5.785   8.366  14.858
19720W        W81086  36.030  13.658   1.705
19721W        W81087  27.105  42.945  14.490
19722W        W81088  19.196  28.005  14.307
19723W        W81089   8.276   3.841  14.330
19724W        W81090  35.576  20.059   3.266
19725W        W81091  18.709  25.535   1.261
19726W        W81092  41.812  17.265   2.675
19727W        W81093  23.070  17.088  14.951
19728W        W81094  21.727  17.236   4.260
19729W        W81095  36.503  10.146  10.452
19730W        W81096  14.777  41.334  13.490
19731W        W81097  14.216  14.823  13.024
19732W        W81098  13.609   9.653   2.417
19733W        W81099   3.915   6.340  13.385
19734W        W81100  38.972  30.028   2.384
19735W        W81101   4.204  27.465  10.636
19736W        W81102  37.415  26.614   1.893
19737W        W81103  22.095  42.476  12.035
19738W        W81104  35.040  37.839  10.439
19739W        W81105   3.255  25.962  13.458
19740W        W81106   9.856  22.523  14.788
19741W        W81107  38.975  16.682   0.305
19742W        W81108  26.489  42.824  14.346
19743W        W81109  31.956  14.303   1.231
19744W        W81110  43.442  14.609   1.313
19745W        W81111  37.395  10.291  10.907
19746W        W81112  23.024  16.095   2.262
19747W        W81113  19.700  39.557   1.927
19748W        W81114  37.528   7.689  12.895
19749W        W81115  25.548  18.217   4.643
19750W        W81116  41.029  43.953  10.514
19751W        W81117  27.031  15.761   0.810
19752W        W81118   1.329  42.902  10.937
19753W        W81119  39.891  10.365   2.388
19754W        W81120  25.527  28.033  13.856
19755W        W81121  38.400  11.281   1.335
19756W        W81122  27.177   8.265  13.875
19757W        W81123  33.006  34.931   1.403
19758W        W81124  33.561   7.789   3.357
19759W        W81125  44.354   7.847   0.884
19760W        W81126  27.601  44.285  14.980
19761W        W81127  15.689   5.795  12.351
19762W        W81128   4.712   9.273  13.893
19763W        W81129  25.709   8.710  13.404
19764W        W81130  38.396  22.633   1.857
19765W        W81131   6.889   6.729  14.924
19766W        W81132  18.154  23.068  11.989
19767W        W81133   9.318  30.506   5.127
19768W        W81134  40.501  28.597   4.237
19769W        W81135   9.165  11.194   4.192
19770W        W81136  21.062  17.133   2.742
19771W        W81137  42.824   2.338   2.219
19772W        W81138  25.178   1.766  10.932
19773W        W81139  32.929  14.636   3.848
19774W        W81140  14.642  33.005  13.051
19775W        W81141  23.732  33.129  14.421
19776W        W81142  38.904   8.819  13.364
19777W        W81143  24.214  20.657   2.698
19778W        W81144  14.680  44.854   0.804
19779W        W81145   8.273  22.094  13.827
19780W        W81146  13.737  28.980   4.629
19781W        W81147  42.400  32.029   1.716
19782W        W81148  40.389  14.762  10.615
19783W        W81149   0.913   5.844   3.361
19784W        W81150  41.486   5.355   3.242
19785W        W81151  20.117  19.690  11.127
19786W        W81152  10.859  41.800  14.765
19787W        W81153  28.011   3.327   5.102
19788W        W81154   7.347   6.345   2.399
19789W        W81155  30.515  10.707   1.720
19790W        W81156   0.874  40.932  14.877
19791W        W81157  39.041  13.626   4.205
19792W        W81158  38.421   8.365   2.775
19793W        W81159   4.911  29.522  13.315
19794W        W81160  29.147   5.201   2.244
19795W        W81161  27.139  17.641   1.327
19796W        W81162   3.870   5.758  12.419
19797W        W81163  38.003  10.155  10.512
19798W        W81164  30.601   6.324  12.059
19799W        W81165  25.971   9.821  14.880
19800W        W81166  44.912  10.145  10.621
19801W        W81167  14.604   5.766  11.982
19802W        W81168  38.336  20.101   0.732
19803W        W81169  24.058  21.528   2.284
19804W        W81170   6.830  37.003  11.392
19805W        W81171  28.074  32.625  14.809
19806W        W81172  32.513   3.854  12.022
19807W        W81173  24.485  30.140  12.502
19808W        W81174  19.723   1.841  12.421
19809W        W81175  22.626  21.668   0.331
19810W        W81176  39.849  40.844   0.353
19811W        W81177   1.783  31.497  11.592
19812W        W81178   5.352  23.081   3.341
19813W        W81179  17.223  11.212   0.270
19814W        W81180  41.917  31.500  13.012
19815W        W81181  28.157  39.397  13.882
19816W        W81182  29.522  12.653  14.948
19817W        W81183  29.020  37.860  12.479
19818W        W81184  13.667  10.820  12.019
19819W        W81185   6.279   0.948  12.471
19820W        W81186  39.499  37.384   1.908
19821W        W81187  16.608  37.056  11.939
19822W        W81188   8.756  18.196   3.866
19823W        W81189  20.164  39.833  10.588
19824W        W81190  35.522  19.728   3.276
19825W        W81191  38.367   9.244   4.252
19826W        W81192  23.678  33.957   3.743
19827W        W81193  28.172  14.327   4.816
19828W        W81194  27.497  15.175   1.719
19829W        W81195  30.968  10.757  12.984
19830W        W81196  36.967  42.381   2.322
19831W        W81197   1.953  35.486   1.412
19832W        W81198  10.230  14.164  12.406
19833W        W81199  20.078  12.653  13.528
19834W        W81200   9.861  32.627  12.471
19835W        W81201  17.728  14.650  12.512
19836W        W81202  17.299  29.146   1.776
19837W        W81203  13.741  39.817   4.273
19838W        W81204   4.255  23.580   3.630
19839W        W81205  33.510  27.673   4.234
19840W        W81206  38.394   3.764   3.264
19841W        W81207  40.327  32.617  13.821
19842W        W81208  16.235  28.452   4.198
19843W        W81209  11.146  38.542  14.874
19844W        W81210   0.405  22.637   0.407
19845W        W81211  40.548  18.564   1.882
19846W        W81212  39.415  33.517   0.433
19847W        W81213  14.684  11.785  11.446
19848W        W81214   3.758   1.243   1.227
19849W        W81215  35.895  34.096  10.509
19850W        W81216  28.580   6.869  11.374
19851W        W81217  25.505  42.827  10.575
19852W        W81218  28.584  28.618   2.384
19853W        W81219  42.926  11.732   1.365
19854W        W81220  34.894   1.396  11.090
19855W        W81221  41.817   8.739  11.585
19856W        W81222   5.924   4.878   4.207
19857W        W81223  14.256  14.730  14.359
19858W        W81224   4.773  22.518   1.847
19859W        W81225  15.791  21.750   1.307
19860W        W81226  16.230  26.113  11.437
19861W        W81227  24.183   3.812   1.423
19862W        W81228  30.983  17.292   2.245
19863W        W81229   6.882   7.205   9.677
19864W        W81230  10.211  32.579   3.705
19865W        W81231  26.659   0.901   5.161
19866W        W81232  16.181  37.997   0.914
19867W        W81233   7.357  24.680  12.053
19868W        W81234   1.751  14.595  14.976
19869W        W81235  32.608   5.266   4.811
19870W        W81236  22.601  30.570  14.795
19871W        W81237  41.484   5.842   4.686
19872W        W81238   6.709  35.448  13.033
19873W        W81239  36.875  28.020  14.895
19874W        W81240  21.230  43.854  13.898
19875W        W81241  15.208  17.738   4.651
19876W        W81242   4.264   1.918   1.270
19877W        W81243  44.267  18.062   1.914
19878W        W81244   1.385  25.204   4.294
19879W        W81245  16.161  30.933  12.366
19880W        W81246  43.013  40.492  12.550
19881W        W81247  25.173   8.184  10.491
19882W        W81248  26.096  20.691   4.185
19883W        W81249  27.535  38.496  13.313
19884W        W81250  18.748  26.078  12.569
19885W        W81251  23.180  44.442   4.209
19886W        W81252  32.427  39.550   3.341
19887W        W81253   3.733  22.078   0.354
19888W        W81254   5.873   2.360   4.730
19889W        W81255  24.075  33.481  10.610
19890W        W81256   8.388   3.326  14.822
19891W        W81257  37.875  18.247  10.404
19892W        W81258  12.315  25.682   1.910
19893W        W81259  33.626  20.244  10.120
19894W        W81260  30.949  16.169   1.255
19895W        W81261   4.877   8.329   2.750
19896W        W81262  22.708   5.750  11.489
19897W        W81263  44.469   2.927  13.529
19898W        W81264  37.949  28.936   1.361
19899W        W81265   6.913  39.521  11.118
19900W        W81266   9.336  11.727   1.432
19901W        W81267  36.902  38.392  14.337
19902W        W81268  41.307  10.260  13.973
19903W        W81269  35.586   9.203  10.517
19904W        W81270  22.645  42.858  14.375
19905W        W81271  29.001  26.994  11.121
19906W        W81272   5.218  41.025   4.262
19907W        W81273  33.920   8.654  12.465
19908W        W81274  22.554  13.709  11.946
19909W        W81275  12.243  33.388  13.484
19910W        W81276  11.308   5.285   3.698
19911W        W81277   1.358   7.308   0.318
19912W        W81278  30.956  37.077  11.953
19913W        W81279  39.401  15.232   3.686
19914W        W81280  44.296  30.923   4.777
19915W        W81281  39.987  13.319  13.905
19916W        W81282   1.337  19.739  12.527
19917W        W81283  16.266  34.571  12.508
19918W        W81284  28.013   3.780  10.035
19919W        W81285   8.331  28.566  14.886
19920W        W81286  13.656  35.560  10.540
19921W        W81287  14.621  43.304   3.834
19922W        W81288   8.381  15.591  13.412
19923W        W81289  41.032   9.220  14.894
19924W        W81290  33.542   3.295   4.233
19925W        W81291  34.471   1.947  12.429
19926W        W81292  29.609  26.506  10.585
19927W        W81293  35.886   4.314   0.349
19928W        W81294  26.463  20.693   0.854
19929W        W81295  36.940  34.459  12.520
19930W        W81296  32.035  18.768   3.711
19931W        W81297  25.562   6.351   2.788
19932W        W81298  38.032  35.040  12.981
19933W        W81299  39.963  16.657   1.351
19934W        W81300   4.916   3.363  12.061
19935W        W81301  43.930  11.866  11.979
19936W        W81302  33.609   8.815  13.366
19937W        W81303   9.749  31.593   3.364
19938W        W81304   4.225  10.237  13.360
19939W        W81305  15.290  11.790   4.228
19940W        W81306  40.984  32.446  12.413
19941W        W81307   6.690  18.263  11.983
19942W        W81308   0.345  37.417  10.625
19943W        W81309  27.050  11.740   2.886
19944W        W81310  37.898  32.083  11.078
19945W        W81311  40.015  22.204   3.150
19946W        W81312   8.741   9.289  13.856
19947W        W81313  33.121  12.128   3.854
19948W        W81314  31.510  25.630   3.858
19949W        W81315  25.680  18.636   3.868
19950W        W81316  14.275   9.384  13.885
19951W        W81317  21.695  20.563   3.646
19952W        W81318  32.412  30.544   4.138
19953W        W81319  34.877   0.285  12.413
19954W        W81320  14.309  44.305  11.971
19955W        W81321  13.611  24.602  14.027
19956W        W81322  32.520   1.478   0.249
19957W        W81323   1.926  29.940  14.927
19958W        W81324  24.990  12.200   0.432
19959W        W81325  27.644  43.384   2.184
19960W        W81326  20.576   2.827  11.029
19961W        W81327  20.731  44.346  12.909
19962W        W81328   4.751  33.431  11.882
19963W        W81329  29.011  39.527   2.737
19964W        W81330  21.045  14.114  14.287
19965W        W81331   4.710  35.863  12.521
19966W        W81332  25.567  44.782   4.166
19967W        W81333  39.398  16.180   1.829
19968W        W81334  40.801  30.601   2.707
19969W        W81335  27.565  10.142  13.019
19970W        W81336   7.385   0.935   4.781
19971W        W81337   5.795  25.134   0.412
19972W        W81338  28.481   7.834   0.820
19973W        W81339   8.673  28.454   3.829
19974W        W81340   8.354  27.562  13.815
19975W        W81341  20.704  23.649   0.359
19976W        W81342  32.505  24.649   1.729
19977W        W81343   5.759  14.301   5.312
19978W        W81344  20.558  35.038   2.799
19979W        W81345  28.086  18.574   0.281
19980W        W81346   4.807   5.278   1.767
19981W        W81347  33.604   5.288  14.385
19982W        W81348  38.335  20.139  12.470
19983W        W81349   9.375  33.958  14.349
19984W        W81350   2.328  33.487   5.252
19985W        W81351   2.831  27.948   1.815
19986W        W81352  22.167  23.677  14.404
19987W        W81353  31.489  37.403  11.127
19988W        W81354   6.730  30.545  13.902
19989W        W81355  35.026  36.904   4.180
19990W        W81356  15.816  26.576  12.058
19991W        W81357  10.271  28.570  13.041
19992W        W81358  43.463  14.794  12.339
19993W        W81359  32.905  14.595  10.606
19994W        W81360   3.345   2.743  10.945
19995W        W81361  12.666  35.037   3.678
19996W        W81362  35.921   3.355  10.507
19997W        W81363  44.478  33.992   1.816
19998W        W81364  19.048  34.586  10.009
19999W        W81365  37.464  40.435  13.889
20000W        W81366   4.722  11.658  10.980
20001W        W81367  14.193  12.677   3.181
20002W        W81368  37.345   0.902  12.026
20003W        W81369  18.669  13.303  12.060
20004W        W81370  39.929  41.517  12.966
20005W        W81371  39.042  40.040   9.922
20006W        W81372   0.936  10.759  12.832
20007W        W81373   6.906   8.824   1.400
20008W        W81374  21.586  28.674  14.354
20009W        W81375  30.021   3.457  13.963
20010W        W81376  20.743  42.812  12.919
20011W        W81377   2.774  26.959  14.323
20012W        W81378  19.633  16.260   0.833
20013W        W81379  27.528  31.133  13.470
20014W        W81380  13.299  14.811   4.244
20015W        W81381  35.859  38.325  11.413
20016W        W81382  37.084  15.804   1.718
20017W        W81383   2.250  33.070   3.370
20018W        W81384  19.096  22.044   3.173
20019W        W81385  27.495  37.023  12.055
20020W        W81386  17.604  32.005   3.288
20021W        W81387   2.376  40.828  13.481
20022W        W81388  32.926  15.772  11.552
20023W        W81389  29.443   1.850  11.877
20024W        W81390   1.765  35.033  12.829
20025W        W81391  26.065   6.896  11.104
20026W        W81392  32.578   8.845   2.832
20027W        W81393   8.356  39.916   2.209
20028W        W81394  17.204   1.920  12.088
20029W        W81395   4.252   9.871  14.876
20030W        W81396   3.434   1.399  14.026
20031W        W81397   1.902   9.781   3.381
20032W        W81398  19.677  39.413  10.615
20033W        W81399  30.604  17.603   4.611
20034W        W81400   9.826   7.354   2.822
20035W        W81401  29.926   6.678  14.903
20036W        W81402  25.510  14.139  11.381
20037W        W81403   7.250   1.865   3.820
20038W        W81404   3.270  21.601   3.857
20039W        W81405  32.604  35.031  10.905
20040W        W81406  24.630  40.335  13.014
20041W        W81407  39.553  34.457  13.827
20042W        W81408  36.417  31.056   2.828
20043W        W81409  32.142  25.065  12.011
20044W        W81410  31.101   0.840   3.196
20045W        W81411  41.938   9.174   1.222
20046W        W81412  28.677  15.637  11.993
20047W        W81413  25.533  15.087  14.853
20048W        W81414  35.580  42.871  14.294
20049W        W81415  40.515  21.639   2.413
20050W        W81416  14.317  43.800  12.913
20051W        W81417  38.851  40.870   0.956
20052W        W81418   0.857  12.677   3.670
20053W        W81419  30.470  22.089  14.889
20054W        W81420  39.436  12.212  11.922
20055W        W81421   6.905  37.953   0.927
20056W        W81422  28.098  40.535   4.216
20057W        W81423  23.708  18.716  13.335
20058W        W81424  20.093  17.112  14.968
20059W        W81425  16.202   8.390   2.784
20060W        W81426  38.446  43.377  14.872
20061W        W81427   9.762  31.142  11.116
20062W        W81428  21.167   5.279  13.021
20063W        W81429  13.278   9.696  12.013
20064W        W81430  11.338  34.566  13.311
20065W        W81431  14.317   8.315   2.873
20066W        W81432  36.590  44.892  12.982
20067W        W81433  26.659  21.576   2.858
20068W        W81434   6.749  30.452  14.377
20069W        W81435  39.547   2.921  14.378
20070W        W81436  25.981  35.572   3.176
20071W        W81437   1.332   0.327  12.886
20072W        W81438   3.294  38.501  12.568
20073W        W81439   2.803  41.927   3.817
20074W        W81440  35.359   2.400  11.522
20075W        W81441   6.798  26.538  12.050
20076W        W81442  13.265  44.920  11.477
20077W        W81443  21.027  40.958  13.401
20078W        W81444  42.429  25.713  13.905
20079W        W81445  26.588  40.363   0.298
20080W        W81446  30.543   3.268  14.286
20081W        W81447  40.326   2.859   3.341
20082W        W81448  12.329  31.946   3.279
20083W        W81449  43.887  13.811   2.231
20084W        W81450  39.529  11.277  14.318
20085W        W81451   6.321  19.041   3.773
20086W        W81452  40.352  13.615   0.817
20087W        W81453   9.715  34.502   4.736
20088W        W81454  21.514  30.416  12.080
20089W        W81455   6.197  34.917  11.953
20090W        W81456  36.038   8.236   0.432
20091W        W81457  31.443  12.777   3.816
20092W        W81458   6.305   1.934   5.199
20093W        W81459  15.247  20.070  13.414
20094W        W81460   8.684  13.341   3.734
20095W        W81461  18.637   4.748  13.045
20096W        W81462  21.242   4.912  12.509
20097W        W81463  42.307  35.887   1.450
20098W        W81464  26.567  15.751   3.150
20099W        W81465  23.212   7.259   1.341
20100W        W81466  21.158  14.747   3.386
20101W        W81467   5.893  29.997   1.313
20102W        W81468  34.964   7.412  14.457
20103W        W81469   9.684  44.505   2.776
20104W        W81470  22.691  20.609   4.121
20105W        W81471  24.142  36.097  10.522
20106W        W81472   8.259  29.053   1.235
20107W        W81473  32.538  31.530  12.469
20108W        W81474  21.736   8.209   1.922
20109W        W81475  33.409  42.884   0.446
20110W        W81476  22.509  15.617   2.387
20111W        W81477  42.002   8.337   0.876
20112W        W81478  13.190  35.591   2.760
20113W        W81479   9.725  44.778   3.846
20114W        W81480  31.090  15.614   1.850
20115W        W81481  22.223  35.896   3.181
20116W        W81482  35.431   0.424   2.851
20117W        W81483  27.078   6.419  10.944
20118W        W81484  16.729  20.714  11.861
20119W        W81485  41.331  37.466   0.796
20120W        W81486   4.376  41.522   0.942
20121W        W81487  11.851  43.990   4.303
20122W        W81488   5.907  39.945  12.951
20123W        W81489  18.753  11.273   4.783
20124W        W81490  22.703  15.670   3.160
20125W        W81491  16.204  14.323   0.766
20126W        W81492  10.846  26.608  11.587
20127W        W81493  34.020  18.780  11.931
20128W        W81494  20.088  21.200   3.318
20129W        W81495  43.287  14.632  11.540
20130W        W81496  37.937   3.370  12.406
20131W        W81497   8.658   0.764   0.884
20132W        W81498  34.420  37.078   0.318
20133W        W81499   4.882  39.881   1.248
20134W        W81500  43.332  22.580  12.838
20135W        W81501  37.862  13.604   4.180
20136W        W81502  42.295  40.954  13.450
20137W        W81503  37.558  14.267  10.063
20138W        W81504  28.626  11.689   1.307
20139W        W81505  10.780  26.170  11.606
20140W        W81506  10.253   9.758  13.319
20141W        W81507  31.129  26.006  14.967
20142W        W81508  34.939  16.089  13.031
20143W        W81509  19.284   6.331   1.917
20144W        W81510   5.907  33.468   1.769
20145W        W81511  39.909   2.283   2.199
20146W        W81512   1.362  10.814   3.216
20147W        W81513  32.893  36.590  13.455
20148W        W81514  43.337  31.631   0.252
20149W        W81515   3.833   7.250  12.996
20150W        W81516  38.860  16.123   2.813
20151W        W81517   0.444  24.653   1.299
20152W        W81518  42.874   0.459   3.643
20153W        W81519  11.855  40.857   0.382
20154W        W81520  42.378  27.155   4.243
20155W        W81521  26.089  44.430   2.301
20156W        W81522  17.558  31.023  12.090
20157W        W81523   6.266  35.925  14.433
20158W        W81524  10.337  13.664  14.763
20159W        W81525  30.622  31.079   3.313
20160W        W81526   3.851   6.340   4.283
20161W        W81527  40.485  11.860   1.827
20162W        W81528  36.854  12.209  14.843
20163W        W81529  43.331  16.800   0.841
20164W        W81530  13.843  34.455  10.093
20165W        W81531  17.696  41.899   4.810
20166W        W81532  10.669  27.682   1.391
20167W        W81533  23.105  10.365  12.823
20168W        W81534  17.063  43.911   0.784
20169W        W81535  44.422  14.172   1.865
20170W        W81536  23.520   2.448  10.999
20171W        W81537  29.068   2.243  10.587
20172W        W81538  19.604  17.778   4.802
20173W        W81539  29.031  10.743  13.855
20174W        W81540   1.786   6.746   1.409
20175W        W81541  21.617   8.379  10.616
20176W        W81542  10.817  10.172  14.782
20177W        W81543  15.248  28.645  14.495
20178W        W81544  15.279  35.451  12.475
20179W        W81545  15.295  13.308  11.432
20180W        W81546   5.366  41.013   1.927
20181W        W81547  31.002  21.628   3.647
20182W        W81548  10.874   9.255   3.809
20183W        W81549  39.540  21.721   4.199
20184W        W81550  20.107  13.261   2.728
20185W        W81551   8.320   6.912   1.323
20186W        W81552  43.857  16.574  10.503
20187W        W81553  40.395  24.149   9.977
20188W        W81554  19.173  37.490   3.251
20189W        W81555   6.273  42.446  10.981
20190W        W81556  30.086  32.537  11.073
20191W        W81557  10.202   8.864  12.850
20192W        W81558   8.252  27.079   1.235
20193W        W81559  44.917  36.889  14.336
20194W        W81560  24.572  11.845   1.280
20195W        W81561  28.045   3.332   1.813
20196W        W81562   2.760  12.619  13.309
20197W        W81563  43.335  40.984  10.922
20198W        W81564   1.346  21.578  11.972
20199W        W81565  25.514  22.731  11.372
20200W        W81566  11.628   9.680  10.585
20201W        W81567  13.119  42.481  14.414
20202W        W81568  12.714  18.215  13.032
20203W        W81569  33.970  10.344   4.789
20204W        W81570  12.633   8.325  10.413
20205W        W81571  43.490  33.621  14.859
20206W        W81572   6.708  44.949   0.899
20207W        W81573  22.107   1.296  11.607
20208W        W81574  14.277  11.797   3.755
20209W        W81575   9.680  40.837   2.853
20210W        W81576  21.180  25.119   2.704
20211W        W81577  39.860  28.650   1.746
20212W        W81578  43.941  31.080  11.493
20213W        W81579   1.914  39.996  13.926
20214W        W81580  31.035  23.609   4.353
20215W        W81581   3.239  31.116  12.090
20216W        W81582   2.745  26.087  11.469
20217W        W81583   1.830  14.325   2.289
20218W        W81584  24.523  25.473  13.914
20219W        W81585  12.132  17.760  12.368
20220W        W81586  38.907  36.010   2.818
20221W        W81587  31.102  26.956  13.899
20222W        W81588  15.729   8.280  11.449
20223W        W81589  13.764  37.058   0.301
20224W        W81590  31.993  18.261   0.477
20225W        W81591  42.985  38.979  11.068
20226W        W81592  36.885  22.612   1.284
20227W        W81593   1.353  31.103  11.425
20228W        W81594   5.350  28.092  15.000
20229W        W81595  37.011   5.361  10.623
20230W        W81596  36.978  21.560  12.364
20231W        W81597  12.242  28.552  10.481
20232W        W81598  32.432  23.657  13.510
20233W        W81599  41.306  22.242  12.027
20234W        W81600  42.453  42.803   5.206
20235W        W81601  40.884  31.587  10.966
20236W        W81602  19.042  12.815   4.645
20237W        W81603   4.720  44.307  10.995
20238W        W81604  29.126  38.028  14.817
20239W        W81605   0.742   7.689   3.728
20240W        W81606  13.783  18.149  11.453
20241W        W81607  34.108  14.206  11.055
20242W        W81608  15.766  21.636  13.336
20243W        W81609  30.520  26.047   1.785
20244W        W81610  26.200   0.432   3.275
20245W        W81611  27.022   2.874  13.808
20246W        W81612  10.215   0.402   2.747
20247W        W81613  40.939  19.120  11.514
20248W        W81614   4.311  11.696  11.404
20249W        W81615  31.453  37.860  13.964
20250W        W81616  42.919  17.648  13.977
20251W        W81617  43.769  11.690   0.949
20252W        W81618  17.248  42.354   4.682
20253W        W81619  20.643  16.240  11.505
20254W        W81620   2.233  37.066   2.248
20255W        W81621  30.110   9.335  13.889
20256W        W81622  32.973  33.542   4.169
20257W        W81623  37.570  34.595  13.346
20258W        W81624  32.405  25.204  11.518
20259W        W81625  13.682  27.518   4.771
20260W        W81626  20.655  30.618   1.744
20261W        W81627  14.116   2.250   2.233
20262W        W81628  20.142  22.690   2.886
20263W        W81629  30.443  38.407   0.963
20264W        W81630  26.614  30.931  13.500
20265W        W81631  19.667  24.104  11.486
20266W        W81632   4.757  44.381  10.451
20267W        W81633  25.588  29.121  13.795
20268W        W81634   4.312  11.685  14.793
20269W        W81635  44.268  19.586   9.998
20270W        W81636   3.901   9.868   1.779
20271W        W81637   5.310   9.747  11.543
20272W        W81638  24.611   8.740  10.598
20273W        W81639  21.696  25.516  14.789
20274W        W81640  22.142  40.353  12.530
20275W        W81641  22.680  35.960  11.416
20276W        W81642  20.062  27.636  14.374
20277W        W81643   4.403  14.813   0.865
20278W        W81644   6.916   9.808   2.668
20279W        W81645   4.297  32.563  14.891
20280W        W81646  23.110  24.071  11.539
20281W        W81647  37.006  42.905   4.331
20282W        W81648  40.538   2.933  12.357
20283W        W81649  41.902  36.487   1.700
20284W        W81650   3.341  21.108  12.504
20285W        W81651  40.033  30.585  10.912
20286W        W81652   0.896  11.654  11.459
20287W        W81653  29.989  33.405  10.519
20288W        W81654  11.834   6.868  14.381
20289W        W81655  43.298   4.788  10.442
20290W        W81656  36.520  38.003   2.406
20291W        W81657  43.855  39.355  12.503
20292W        W81658  26.003  23.204   0.850
20293W        W81659  34.536  43.813   0.879
20294W        W81660  26.142  43.977  11.905
20295W        W81661  44.888  19.105  12.855
20296W        W81662   1.750  27.113   3.787
20297W        W81663   5.327  27.534  10.416
20298W        W81664  44.429   4.720  11.525
20299W        W81665  10.217  30.969   0.778
20300W        W81666  14.305  22.218   0.873
20301W        W81667  32.969  29.106   0.362
20302W        W81668  40.910  39.328  11.099
20303W        W81669  14.601   2.424   4.140
20304W        W81670   6.820  33.447   4.349
20305W        W81671  39.368  28.605  12.847
20306W        W81672  18.103  26.974  11.578
20307W        W81673  29.920  29.997  10.138
20308W        W81674  17.261  37.844   2.406
20309W        W81675  16.316  21.730  11.088
20310W        W81676   4.400  19.250   4.201
20311W        W81677   2.959  37.546  11.510
20312W        W81678  40.860  15.729  14.842
20313W        W81679  24.617  20.207  11.884
20314W        W81680  44.931  27.135  10.529
20315W        W81681  22.189  40.003   1.325
20316W        W81682  39.416  40.926  14.855
20317W        W81683  40.985  42.896  12.539
20318W        W81684  44.811  36.392  13.820
20319W        W81685  25.144  29.622   0.453
20320W        W81686  25.653  12.743   0.866
20321W        W81687  36.427  33.447   1.217
20322W        W81688  36.089  13.795  12.926
20323W        W81689  28.624   9.205   3.723
20324W        W81690  23.698  33.433  14.791
20325W        W81691  14.781  36.910   2.249
20326W        W81692  21.246  14.116  12.517
20327W        W81693  21.678   3.406   1.244
20328W        W81694  28.074  39.430  13.012
20329W        W81695  36.064  16.641   3.331
20330W        W81696   8.802  11.638  12.390
20331W        W81697  39.899   5.290   1.756
20332W        W81698  24.998  28.992   0.804
20333W        W81699  44.996  12.783   2.189
20334W        W81700  13.719   7.413  11.445
20335W        W81701   5.417  35.598   3.290
20336W        W81702  10.337  14.110  12.066
20337W        W81703   9.275  32.493   0.432
20338W        W81704  35.409   1.323   0.475
20339W        W81705  16.183  34.885   3.781
20340W        W81706  44.858  28.065  12.566
20341W        W81707   5.231   7.385  12.035
20342W        W81708  15.626  38.946   2.278
20343W        W81709  15.298   8.368  12.034
20344W        W81710  26.059   0.924   2.697
20345W        W81711  28.937  31.094   2.363
20346W        W81712  35.374   9.246   0.338
20347W        W81713  29.937  19.679   3.672
20348W        W81714   3.264  31.647   1.751
20349W        W81715  20.256  33.001   1.429
20350W        W81716  34.897  25.523  11.120
20351W        W81717  28.096  29.950   3.157
20352W        W81718  21.117   1.745  11.092
20353W        W81719  37.380   4.767   2.858
20354W        W81720  25.990  18.725  14.788
20355W        W81721  25.671  43.293  14.360
20356W        W81722  22.199   1.895  13.399
20357W        W81723  41.808   9.295   4.643
20358W        W81724  41.386  13.245  14.784
20359W        W81725  15.244   1.268  13.543
20360W        W81726  15.671  16.094   2.901
20361W        W81727   5.319   1.253   2.682
20362W        W81728  34.959  24.610  14.421
20363W        W81729  17.158  24.991   3.723
20364W        W81730   7.744  40.394  13.049
20365W        W81731  34.922  31.424   4.209
20366W        W81732   3.914  33.980  11.442
20367W        W81733  38.409  34.531  12.378
20368W        W81734  14.735  41.294  13.915
20369W        W81735  16.741  29.582   3.241
20370W        W81736   1.313  39.333  13.935
20371W        W81737  15.676  16.582   0.789
20372W        W81738  37.537  37.503  14.286
20373W        W81739   5.832   2.815  10.633
20374W        W81740   6.814  10.643   0.848
20375W        W81741  28.598  37.005   1.913
20376W        W81742  30.073  26.613  10.920
20377W        W81743  35.042   4.892  13.924
20378W        W81744  38.044  16.589  14.508
20379W        W81745  30.960   0.963  11.374
20380W        W81746  37.383  24.562   2.369
20381W        W81747  39.529  24.177   3.727
20382W        W81748   6.832  14.831   3.792
20383W        W81749   0.460  19.165  11.375
20384W        W81750   9.847   6.788  11.009
20385W        W81751  39.557  10.814   1.231
20386W        W81752  10.381  30.921  10.637
20387W        W81753   7.414  37.384   1.800
20388W        W81754  15.801  32.116  10.042
20389W        W81755  17.801  24.991   0.780
20390W        W81756  22.130   2.750   4.820
20391W        W81757  18.296  34.937  13.416
20392W        W81758  40.890   9.346   1.852
20393W        W81759  32.397  24.686  12.081
20394W        W81760  36.448  43.998  10.477
20395W        W81761  16.287  21.595  12.462
20396W        W81762  37.865  13.215  11.592
20397W        W81763  27.621   4.939   0.869
20398W        W81764  10.267   0.755   0.787
20399W        W81765  39.869  33.097   4.786
20400W        W81766  42.016  12.775  13.382
20401W        W81767  41.537  31.639  11.128
20402W        W81768  19.666  17.689  10.415
20403W        W81769  12.808  32.410  14.938
20404W        W81770  12.745  22.679   3.361
20405W        W81771   5.282  17.291   0.263
20406W        W81772  28.944  14.707  10.482
20407W        W81773  32.632  10.322  13.496
20408W        W81774  32.573  41.954  11.088
20409W        W81775  28.014  14.122  10.042
20410W        W81776   2.255   7.183  12.506
20411W        W81777   7.780   4.356   1.253
20412W        W81778  11.344  33.953  12.415
20413W        W81779  40.014  41.917  11.106
20414W        W81780  39.821   8.726  13.997
20415W        W81781  22.236  26.583  10.442
20416W        W81782   1.957  30.912  11.602
20417W        W81783  24.090   7.412   0.898
20418W        W81784  33.958  43.322  13.481
20419W        W81785  25.968  28.996  10.037
20420W        W81786  14.335  40.410   3.797
20421W        W81787   0.765  15.665   3.741
20422W        W81788  35.030  38.469  14.291
20423W        W81789  41.508  35.508  13.877
20424W        W81790  27.001  36.048   5.245
20425W        W81791   6.412  40.368   4.177
20426W        W81792  10.307  26.581   4.116
20427W        W81793  30.566  16.740  14.940
20428W        W81794  28.980  15.144  12.888
20429W        W81795  14.283  19.633   1.778
20430W        W81796  39.857  32.978  12.476
20431W        W81797  31.086   6.798   2.282
20432W        W81798  14.658  29.588   2.254
20433W        W81799   2.387  27.646  11.125
20434W        W81800  44.977  43.331  10.947
20435W        W81801  18.552   7.907   2.211
20436W        W81802  20.623  16.305  11.974
20437W        W81803  25.577  12.660  13.986
20438W        W81804  41.410  27.177   1.412
20439W        W81805  29.155   3.230   1.443
20440W        W81806  37.032  28.007   1.448
20441W        W81807  31.924  10.674   1.881
20442W        W81808  26.096  19.774   4.613
20443W        W81809  10.313  27.080  11.459
20444W        W81810  17.599  10.209  14.773
20445W        W81811  10.684   6.809  12.484
20446W        W81812  21.576   1.474   3.322
20447W        W81813  33.452  24.621   0.360
20448W        W81814   2.888  30.464   3.835
20449W        W81815  28.175  25.001   3.786
20450W        W81816  41.369  24.216  10.603
20451W        W81817  15.084  19.051   1.795
20452W        W81818  22.526   4.206   0.405
20453W        W81819  14.134  28.003  11.425
20454W        W81820  16.236  24.585  13.444
20455W        W81821  20.750  15.150  13.420
20456W        W81822  26.121  10.278  13.845
20457W        W81823  14.127  16.120  13.309
20458W        W81824  19.114   5.211   2.783
20459W        W81825   5.329  44.373   4.612
20460W        W81826   7.401   6.269   1.812
20461W        W81827  24.229  10.686  11.377
20462W        W81828  26.059  21.127  12.968
20463W        W81829  42.818  19.566  12.516
20464W        W81830  41.799  25.679  14.422
20465W        W81831  29.057   2.446  14.344
20466W        W81832  24.540  15.235   3.185
20467W        W81833   1.877  42.942  12.096
20468W        W81834  40.856   4.874   1.370
20469W        W81835  27.153   1.425  11.922
20470W        W81836  44.931   8.357   3.232
20471W        W81837  21.228  10.657  10.592
20472W        W81838  15.741  18.056  13.025
20473W        W81839  29.960   6.397  13.894
20474W        W81840  27.994   2.404   5.260
20475W        W81841   2.326  30.581  14.312
20476W        W81842  41.416  28.653   1.886
20477W        W81843  29.109  22.555  13.949
20478W        W81844   2.894  30.136   0.324
20479W        W81845   1.847   5.712  13.055
20480W        W81846  42.895  29.077   4.770
20481W        W81847  26.595   3.377  12.534
20482W        W81848  27.115  12.623  10.403
20483W        W81849   4.280  37.837  12.405
20484W        W81850  20.758  44.451   4.815
20485W        W81851  24.213  34.865   3.238
20486W        W81852  30.597  18.110  10.047
20487W        W81853  13.155  15.789  10.081
20488W        W81854  19.209  24.545   1.376
20489W        W81855  16.720   2.796  14.893
20490W        W81856  17.195   3.225  14.862
20491W        W81857  37.523   3.746   2.190
20492W        W81858  36.909  14.776   4.803
20493W        W81859  38.917  14.815  13.388
20494W        W81860   5.693  23.573   3.311
20495W        W81861  33.578  44.314   4.265
20496W        W81862   3.954  14.207  13.828
20497W        W81863  17.715   6.805  10.924
20498W        W81864  18.638  40.414   2.731
20499W        W81865  38.047   5.211   3.639
20500W        W81866  20.546  43.774  12.405
20501W        W81867  29.626  40.853  11.940
20502W        W81868  38.828  39.438  14.908
20503W        W81869  18.181  18.186   4.818
20504W        W81870  43.441   2.727   1.338
20505W        W81871  21.685  10.842  12.541
20506W        W81872  10.164   9.750  11.374
20507W        W81873  13.801  24.228  11.936
20508W        W81874  25.483  41.321  13.010
20509W        W81875  29.655  17.230   5.088
20510W        W81876  27.614  22.690  14.864
20511W        W81877  44.871  25.134   0.300
20512W        W81878  13.307  12.116   2.833
20513W        W81879  15.239  23.155  11.003
20514W        W81880  30.459   6.222  14.854
20515W        W81881  33.551  38.982  13.331
20516W        W81882  15.182  26.626   4.196
20517W        W81883  38.563  41.839   4.676
20518W        W81884  24.012  23.058  14.344
20519W        W81885  10.317  40.400  12.951
20520W        W81886   0.493  29.120   5.259
20521W        W81887  31.474  34.027  14.460
20522W        W81888  15.815  40.026   9.926
20523W        W81889   1.345  19.122  14.477
20524W        W81890  33.610   8.781  11.952
20525W        W81891  14.653  12.192  12.940
20526W        W81892  37.545  33.907  12.545
20527W        W81893  15.589  41.427   4.317
20528W        W81894   6.921  12.653   3.179
20529W        W81895  35.409   8.376  14.868
20530W        W81896  22.226  31.953  14.849
20531W        W81897  29.551   5.370  10.441
20532W        W81898  27.063  32.413   3.264
20533W        W81899  19.276  38.958   3.227
20534W        W81900  21.526  37.383   4.741
20535W        W81901   8.321  42.500   2.871
20536W        W81902  22.641  15.717  11.431
20537W        W81903  13.296  37.918  11.917
20538W        W81904  17.600  33.982   3.746
20539W        W81905  38.394  38.513  11.579
20540W        W81906  32.006  22.220   2.382
20541W        W81907  44.502  20.250  10.932
20542W        W81908  24.127  29.128   1.720
20543W        W81909  37.420   3.784   4.651
20544W        W81910  28.635  42.967   1.312
20545W        W81911  16.108  42.966   2.868
20546W        W81912  42.336  35.521  13.548
20547W        W81913   5.204   1.911   2.823
20548W        W81914  44.451   1.919   0.267
20549W        W81915   2.440   2.809  12.859
20550W        W81916   1.391  37.443   0.456
20551W        W81917  30.029  23.090  12.833
20552W        W81918  33.555  39.909   3.281
20553W        W81919   9.866   6.253   0.398
20554W        W81920   4.885   7.907   4.784
20555W        W81921  38.023  43.996   4.816
20556W        W81922  42.960  41.307  13.419
20557W        W81923  30.484  11.317   3.700
20558W        W81924   5.234  31.071   2.323
20559W        W81925  19.230   7.846   3.747
20560W        W81926  13.615  17.125   3.347
20561W        W81927  26.664  11.279  11.076
20562W        W81928  36.069   4.422  14.381
20563W        W81929   3.785  11.316   4.829
20564W        W81930  12.788  10.723  14.988
20565W        W81931   7.411  35.485   0.865
20566W        W81932   9.788   6.326   3.770
20567W        W81933  33.567   1.907   2.302
20568W        W81934  35.462  32.477  11.520
20569W        W81935  36.962  12.320   3.347
20570W        W81936  18.184   4.264   3.848
20571W        W81937  20.669  18.285   2.266
20572W        W81938  35.018  19.689   2.344
20573W        W81939  24.132  29.556  13.523
20574W        W81940  26.683   6.857  13.440
20575W        W81941   7.826  44.815   3.352
20576W        W81942  13.133  21.100   3.164
20577W        W81943   8.393  23.645   4.131
20578W        W81944  38.538  27.568   4.172
20579W        W81945  32.540   4.341   4.190
20580W        W81946  15.768   7.872  14.873
20581W        W81947   6.788   2.368   3.182
20582W        W81948  20.721  18.097  12.984
20583W        W81949  23.710  26.051   3.736
20584W        W81950  26.019  20.072   4.620
20585W        W81951  40.494   1.974  11.413
20586W        W81952  30.114  44.892  13.914
20587W        W81953  11.297  31.591  12.455
20588W        W81954  38.476   3.345  11.126
20589W        W81955  21.656  21.626  14.937
20590W        W81956  18.120  36.519   1.736
20591W        W81957   2.884  25.557   0.460
20592W        W81958  20.085  24.502  11.068
20593W        W81959  20.154  30.633   4.354
20594W        W81960  13.722  44.502  10.578
20595W        W81961   0.307  36.047   2.398
20596W        W81962   1.925  33.051   2.761
20597W        W81963   5.788   8.726   0.798
20598W        W81964  37.533  12.652   0.827
20599W        W81965  26.560  31.974   0.748
20600W        W81966  26.688   1.251  14.479
20601W        W81967  31.014  30.020   0.921
20602W        W81968   4.778   8.760  14.931
20603W        W81969  31.461  25.152   4.267
20604W        W81970   3.243  40.438  13.874
20605W        W81971   4.883  28.123   3.250
20606W        W81972  28.440  36.569  12.349
20607W        W81973  30.053  31.476   0.283
20608W        W81974  26.534  11.813   3.370
20609W        W81975  22.517   3.253  12.450
20610W        W81976   3.936   2.461  14.286
20611W        W81977  34.522  11.808  11.038
20612W        W81978  27.176  20.039  12.361
20613W        W81979  21.168  19.142  13.002
20614W        W81980  27.551  16.231   3.198
20615W        W81981   0.970   1.801   2.756
20616W        W81982  27.187  30.070   2.306
20617W        W81983  33.083  20.107   2.313
20618W        W81984   2.322  15.095   0.871
20619W        W81985  37.363  20.045   2.290
20620W        W81986  44.799   9.764   2.378
20621W        W81987  26.978   5.241   4.806
20622W        W81988  38.389  20.542   0.966
20623W        W81989   2.750  26.013  13.999
20624W        W81990  39.980  43.346   4.247
20625W        W81991   2.389  30.603  11.455
20626W        W81992  40.960  36.387  12.952
20627W        W81993  11.352  42.012  11.869
20628W        W81994  25.711   2.869  12.024
20629W        W81995  43.483  13.649  12.006
20630W        W81996  25.538  24.984   4.648
20631W        W81997  22.065  38.845   3.207
20632W        W81998   6.384   3.801   2.720
20633W        W81999  21.686  11.270  14.898
20634W        W82000  31.501  39.834  14.860
20635W        W82001  39.850  21.039   1.867
20636W        W82002  33.971  13.754  13.859
20637W        W82003   5.424  43.356  13.989
20638W        W82004  24.977   1.414   1.322
20639W        W82005  24.601  11.832  12.082
20640W        W82006  34.925  14.596   1.926
20641W        W82007  22.139  26.686  14.831
20642W        W82008  11.173  22.092  13.896
20643W        W82009  30.965  38.924   3.746
20644W        W82010  24.997  24.663   2.693
20645W        W82011  23.725   7.231   1.425
20646W        W82012  38.926  17.645  10.970
20647W        W82013  33.977  41.012  14.777
20648W        W82014  15.629  18.205  14.397
20649W        W82015  24.618  24.570  12.056
20650W        W82016  22.245  40.540   2.716
20651W        W82017  14.220   9.783   0.733
20652W        W82018   0.465   6.379  11.064
20653W        W82019  37.337  37.978   2.276
20654W        W82020  22.738  44.408  12.501
20655W        W82021  23.591  37.436   3.752
20656W        W82022  30.565  26.550   3.355
20657W        W82023  26.104  32.552   3.716
20658W        W82024  15.249  20.591  13.876
20659W        W82025   7.341  36.987   0.736
20660W        W82026  40.835  26.627  13.869
20661W        W82027   1.409   1.817   3.263
20662W        W82028   4.343  24.582   3.792
20663W        W82029  20.599  21.164  11.081
20664W        W82030   4.896  41.018  12.515
20665W        W82031  13.210  36.893   4.246
20666W        W82032  13.188   8.663   1.843
20667W        W82033  33.588  42.455  14.351
20668W        W82034  41.916  24.201   0.897
20669W        W82035  18.159  22.701  12.962
20670W        W82036   8.329  23.092  14.449
20671W        W82037  38.551   0.482   0.885
20672W        W82038  19.118   0.968  10.581
20673W        W82039   2.255   4.287  13.975
20674W        W82040   9.875   1.428   0.415
20675W        W82041  27.662  39.318  13.865
20676W        W82042  19.626  18.253   4.834
20677W        W82043   6.351  16.142  11.940
20678W        W82044  23.630  11.325  14.320
20679W        W82045  32.893   5.333   3.228
20680W        W82046   5.261  25.088   1.784
20681W        W82047  29.069   3.425  14.777
20682W        W82048  27.152  20.227   0.476
20683W        W82049  12.317  22.687   1.755
20684W        W82050  40.359  27.652  10.621
20685W        W82051  34.549  23.227  14.795
20686W        W82052  44.314   2.296   4.831
20687W        W82053   7.759  32.994   4.668
20688W        W82054  27.112  44.792  12.994
20689W        W82055  26.089  18.283  12.067
20690W        W82056  36.902  44.772  13.402
20691W        W82057  44.357  34.541   1.804
20692W        W82058  31.461   6.295  11.912
20693W        W82059  11.859  14.213   4.598
20694W        W82060  35.477  11.268   2.286
20695W        W82061   8.873  10.813   3.637
20696W        W82062  41.305  34.966  10.989
20697W        W82063  36.422  27.186  10.947
20698W        W82064  35.964  19.541  14.924
20699W        W82065  14.302   9.697   1.263
20700W        W82066   6.205  28.554  11.102
20701W        W82067  31.920   7.344  13.390
20702W        W82068   5.381  29.152   2.302
20703W        W82069  43.961   1.344   3.805
20704W        W82070  29.061   9.767   4.777
20705W        W82071  25.109  44.837   1.350
20706W        W82072  15.588  40.490  10.601
20707W        W82073  31.118  27.162  11.384
20708W        W82074  26.662  27.677   3.846
20709W        W82075  16.669   0.364   0.744
20710W        W82076  29.634  38.028   2.733
20711W        W82077  26.061  40.463  11.470
20712W        W82078  26.551   9.389  10.543
20713W        W82079   6.322  20.542   1.812
20714W        W82080  41.402   3.424   1.306
20715W        W82081  42.776  13.223   0.332
20716W        W82082  42.308   2.799  13.996
20717W        W82083  20.265  37.017   1.879
20718W        W82084  27.513   8.213  13.005
20719W        W82085  20.745  36.385   0.822
20720W        W82086  29.935   7.682   4.268
20721W        W82087   9.273  43.430  14.781
20722W        W82088  11.809  40.844   1.309
20723W        W82089  43.970  31.635   2.303
20724W        W82090  13.274   5.726  11.855
20725W        W82091  26.519   2.411   2.410
20726W        W82092  23.573  21.679  13.048
20727W        W82093  15.748   9.315  13.005
20728W        W82094  44.002  17.702  12.954
20729W        W82095  33.475  19.542  13.052
20730W        W82096  32.439   2.758   4.274
20731W        W82097  28.518   2.905   2.846
20732W        W82098  15.702  11.220   2.189
20733W        W82099   9.737  24.158  13.355
20734W        W82100  28.451   4.858   3.216
20735W        W82101  24.705   6.325   5.254
20736W        W82102  31.445  42.859  12.066
20737W        W82103  38.399  32.071  10.427
20738W        W82104  32.421  36.529   1.696
20739W        W82105  42.378  32.963  12.415
20740W        W82106  19.713   5.422   1.893
20741W        W82107  34.542   8.822  11.576
20742W        W82108  34.044   1.411   4.343
20743W        W82109  29.641   8.300   2.689
20744W        W82110  37.998  18.647   2.244
20745W        W82111  18.578  23.086   3.340
20746W        W82112  20.108  30.594   5.257
20747W        W82113   1.242  32.485   9.560
20748W        W82114   8.658  30.525  14.785
20749W        W82115  37.078  10.319  13.539
20750W        W82116  31.114  40.900  13.424
20751W        W82117   7.178  38.486   1.706
20752W        W82118   6.746  22.572  14.463
20753W        W82119  17.232  21.539  13.801
20754W        W82120  29.024  32.947  10.983
20755W        W82121  28.160  29.561  12.033
20756W        W82122  40.836   0.983   3.154
20757W        W82123  30.102  19.268   5.160
20758W        W82124   9.196   0.270   0.399
20759W        W82125  38.493  21.750  13.013
20760W        W82126   5.750  38.851  10.917
20761W        W82127  10.262  28.663  13.861
20762W        W82128  36.539   8.756   2.416
20763W        W82129   1.259   7.233  11.591
20764W        W82130   2.765   0.413  14.290
20765W        W82131  31.115  41.927   1.397
20766W        W82132  31.483   9.210   3.147
20767W        W82133  10.679  20.655  10.497
20768W        W82134  39.886   6.246   0.254
20769W        W82135  33.948   7.303   1.290
20770W        W82136   8.656  37.513  14.815
20771W        W82137  24.112  39.331   0.943
20772W        W82138  26.123  10.637   1.432
20773W        W82139  12.719  32.889   0.735
20774W        W82140   1.974  39.970   1.213
20775W        W82141  20.094  23.680  14.353
20776W        W82142  43.960  33.021  14.989
20777W        W82143  23.707  11.770   1.909
20778W        W82144  11.297  10.667  14.801
20779W        W82145   4.359  29.097  10.523
20780W        W82146  13.601  31.430  14.507
20781W        W82147  16.668  30.448   0.461
20782W        W82148   2.812  19.735   3.252
20783W        W82149   7.379   8.844  10.444
20784W        W82150  39.059  37.037  10.458
20785W        W82151  33.108  27.971   4.313
20786W        W82152  40.522  17.230   3.637
20787W        W82153  38.031  34.026  12.367
20788W        W82154   1.423  18.726   2.187
20789W        W82155  19.693  30.513  13.436
20790W        W82156  28.486  36.082   5.287
20791W        W82157  43.895  30.640   4.274
20792W        W82158  16.651  36.521  13.362
20793W        W82159  42.390  34.374   0.376
20794W        W82160  40.850   2.382  11.915
20795W        W82161   1.440  27.461  13.939
20796W        W82162  43.352   9.671   3.357
20797W        W82163  10.859   0.440   0.921
20798W        W82164  38.022  15.118   4.320
20799W        W82165  22.236  14.589   2.397
20800W        W82166   1.803   3.880   1.294
20801W        W82167  41.406  19.576  11.008
20802W        W82168  33.506  31.445  10.554
20803W        W82169  25.038  24.977  12.454
20804W        W82170  44.269  34.119   2.217
20805W        W82171  21.047  13.280  10.979
20806W        W82172  30.917  19.660  13.424
20807W        W82173  36.498  29.145  11.890
20808W        W82174  30.073  28.543   1.376
20809W        W82175   5.391   9.685  11.037
20810W        W82176   6.827  33.116  13.459
20811W        W82177   2.375   6.300   2.267
20812W        W82178  34.882  31.406   4.643
20813W        W82179  40.367  16.682   1.268
20814W        W82180  29.587  24.054   4.215
20815W        W82181  17.598  31.414   0.909
20816W        W82182   0.272   0.916  13.322
20817W        W82183  44.998  37.363   1.410
20818W        W82184  28.612  42.833  12.543
20819W        W82185  10.245  13.674  13.513
20820W        W82186   8.886  36.508  13.469
20821W        W82187  35.921  35.397   4.148
20822W        W82188  26.473  23.598   2.196
20823W        W82189  18.757  30.570   2.896
20824W        W82190   2.771  31.638   1.262
20825W        W82191  26.206   0.449  14.445
20826W        W82192  31.448  11.682   2.366
20827W        W82193  31.567  37.880   0.933
20828W        W82194  24.980  43.503  12.575
20829W        W82195  16.112  15.281  11.982
20830W        W82196  18.640  31.064   0.455
20831W        W82197  41.907  13.804  13.826
20832W        W82198  33.473  11.865   1.873
20833W        W82199  13.312   1.767   4.115
20834W        W82200  35.016   1.737  12.565
20835W        W82201  33.101  28.935   1.767
20836W        W82202   9.782  39.984  12.435
20837W        W82203   7.238   1.902  12.847
20838W        W82204  33.406  33.463  11.023
20839W        W82205  25.506  19.171  12.992
20840W        W82206  30.090  30.956  13.378
20841W        W82207  21.633  37.056   2.718
20842W        W82208  19.210  33.383   1.870
20843W        W82209  23.111  37.337   3.193
20844W        W82210  39.041  28.603   0.832
20845W        W82211  36.574  14.613  10.488
20846W        W82212  14.185  44.920  11.081
20847W        W82213  34.985  44.502   2.844
20848W        W82214  23.105   1.381   0.734
20849W        W82215  27.683  25.016   0.378
20850W        W82216  26.994  20.161   4.768
20851W        W82217  12.251  13.284  14.283
20852W        W82218  40.941  13.160  10.621
20853W        W82219   2.433   6.839  12.846
20854W        W82220  11.836   9.168  11.114
20855W        W82221  32.545  38.530  14.300
20856W        W82222  37.855  32.069  12.510
20857W        W82223  28.659  17.744  14.390
20858W        W82224  29.643  31.515  10.571
20859W        W82225  26.094   3.767  11.505
20860W        W82226  35.929  41.824   0.962
20861W        W82227  17.785  43.449  14.498
20862W        W82228  22.025  12.812   4.306
20863W        W82229  37.896  43.842  13.813
20864W        W82230   0.363  32.535  13.453
20865W        W82231  20.132   0.467  11.076
20866W        W82232  21.630  23.098  10.463
20867W        W82233   7.743  35.413   3.318
20868W        W82234  38.851   3.893   3.729
20869W        W82235  34.926  34.586  13.018
20870W        W82236   4.421  30.013  13.831
20871W        W82237   7.391  22.641   1.743
20872W        W82238  31.591  24.185   1.889
20873W        W82239  24.013  27.551  10.903
20874W        W82240  31.082  36.530   1.211
20875W        W82241  12.742  19.617   2.882
20876W        W82242  32.532  21.209   4.660
20877W        W82243  19.103  21.692  13.013
20878W        W82244  27.115  17.150   1.775
20879W        W82245  41.954  19.214  14.283
20880W        W82246  39.985  20.070  12.555
20881W        W82247   3.800  11.689   4.229
20882W        W82248   0.486  17.168   0.276
20883W        W82249  16.110  12.150   3.670
20884W        W82250  20.180  39.552  12.960
20885W        W82251   8.794  12.185  14.435
20886W        W82252  13.625  33.029  13.893
20887W        W82253   6.387   2.406  13.018
20888W        W82254   8.351  38.021  10.540
20889W        W82255  38.380  38.019   4.674
20890W        W82256  39.813  17.121   2.307
20891W        W82257  16.212  39.863   3.146
20892W        W82258  12.178  21.099  14.020
20893W        W82259  12.629  23.124  14.512
20894W        W82260  14.146   9.163   4.194
20895W        W82261  43.398  27.144   3.249
20896W        W82262  39.463  39.494   3.182
20897W        W82263   3.243   2.809  10.516
20898W        W82264  33.506  30.636  12.524
20899W        W82265  41.894  38.474  13.485
20900W        W82266  22.024  10.288  10.585
20901W        W82267  11.369  38.428  13.034
20902W        W82268  39.388  42.853  12.095
20903W        W82269  12.312   8.359   2.269
20904W        W82270  12.649  35.569  11.523
20905W        W82271  14.187  20.099  11.398
20906W        W82272   8.252  35.397  12.039
20907W        W82273  37.517  35.854  12.970
20908W        W82274  14.155  31.520   1.387
20909W        W82275  40.358  23.071   3.232
20910W        W82276  42.918  16.806  14.952
20911W        W82277  16.750  12.171  13.469
20912W        W82278   0.956  37.938  11.940
20913W        W82279  14.241  14.237   3.646
20914W        W82280   3.265  12.362   4.698
20915W        W82281  12.353  24.018   2.262
20916W        W82282  40.902  23.512   1.391
20917W        W82283  12.131  26.021   2.685
20918W        W82284  38.036  36.564   3.651
20919W        W82285  21.613   6.368  10.446
20920W        W82286  23.097   9.229   1.327
20921W        W82287   8.870  20.156  11.893
20922W        W82288  11.182   7.876  10.407
20923W        W82289   8.380  39.905  12.846
20924W        W82290  21.537  33.884  11.043
20925W        W82291  26.090   3.289  13.061
20926W        W82292  31.964  14.252   3.159
20927W        W82293   2.451  37.449  11.387
20928W        W82294  24.659  27.194  11.467
20929W        W82295  12.756  35.539  11.919
20930W        W82296  41.872   1.941   3.188
20931W        W82297   8.741   2.774   0.475
20932W        W82298  28.541   3.261  14.492
20933W        W82299   6.366  13.786   0.342
20934W        W82300  26.490  17.125  11.970
20935W        W82301  43.389  15.225   4.667
20936W        W82302  40.539   8.224   2.746
20937W        W82303  32.592   8.756   4.755
20938W        W82304  16.715   4.325  14.920
20939W        W82305  24.047  14.721   4.163
20940W        W82306  21.030  40.352  12.844
20941W        W82307  37.867  28.576   1.437
20942W        W82308   5.292   7.673   9.942
20943W        W82309  28.632  28.574   0.954
20944W        W82310  27.491   2.267   1.710
20945W        W82311   4.358  17.154  13.800
20946W        W82312  27.972   9.853  12.824
20947W        W82313  31.540  22.717  13.347
20948W        W82314   3.942   3.782  13.898
20949W        W82315   2.371   1.465  10.925
20950W        W82316  14.253  30.428  12.018
20951W        W82317   5.323  38.914  12.015
20952W        W82318  19.623  22.747  14.414
20953W        W82319   4.823  19.646  13.500
20954W        W82320  17.099  33.959  10.087
20955W        W82321  44.009   6.269  14.460
20956W        W82322  37.919  14.260  14.341
20957W        W82323  15.787  30.067  14.284
20958W        W82324  20.084  27.568  13.989
20959W        W82325  39.855  37.551  12.027
20960W        W82326  37.543  30.577  14.875
20961W        W82327  10.798  15.238  12.384
20962W        W82328  27.537  34.544  12.962
20963W        W82329  11.647   3.323   4.629
20964W        W82330  40.311   4.303  13.521
20965W        W82331  40.478  13.273  10.635
20966W        W82332   3.820  26.461   0.326
20967W        W82333  44.300  22.250   1.697
20968W        W82334  11.223  14.595   0.861
20969W        W82335  24.539  17.227   4.191
20970W        W82336  30.940   0.402   0.248
20971W        W82337  40.497   8.808  14.780
20972W        W82338  12.698  32.506  13.407
20973W        W82339  29.071  21.072  13.044
20974W        W82340  13.747  34.994   1.210
20975W        W82341  32.042  12.154   0.361
20976W        W82342  20.223  16.228   3.784
20977W        W82343  20.659   2.244   1.881
20978W        W82344  26.980   0.918   3.240
20979W        W82345  26.636   6.357  14.829
20980W        W82346  25.623  37.052  14.800
20981W        W82347  34.083  25.004  10.581
20982W        W82348   7.850  30.951   4.175
20983W        W82349  40.346  21.105   2.416
20984W        W82350  15.246  24.625  12.517
20985W        W82351  17.660   2.468  13.521
20986W        W82352   8.252  21.583  14.483
20987W        W82353  11.756  23.511   0.359
20988W        W82354   5.873  15.672  11.881
20989W        W82355  10.165  16.160  13.861
20990W        W82356  24.506  10.803  13.993
20991W        W82357  20.227   4.332  13.913
20992W        W82358   7.803  13.286  12.049
20993W        W82359   6.231  19.756  10.493
20994W        W82360  38.409  20.588   1.835
20995W        W82361  15.658  16.268  10.984
20996W        W82362  39.549   5.739  11.956
20997W        W82363   9.345   3.713   3.703
20998W        W82364  14.672   5.727   2.402
20999W        W82365  16.755  34.023   4.227
21000W        W82366  28.620  12.829  11.074
21001W        W82367  44.348  35.890   1.271
21002W        W82368  19.152  26.099   4.331
21003W        W82369   8.394  19.609   4.123
21004W        W82370  30.095   6.404  12.954
21005W        W82371  10.312  25.503  14.389
21006W        W82372  33.465  36.035   1.384
21007W        W82373   9.821  16.235  11.954
21008W        W82374  20.643  23.610   0.831
21009W        W82375  44.353  17.250   5.251
21010W        W82376   2.465  23.659  11.398
21011W        W82377  39.810  29.558   0.411
21012W        W82378  32.057  28.117   5.216
21013W        W82379   3.851   7.693  14.844
21014W        W82380  18.586  11.362   3.201
21015W        W82381   6.361  17.635  12.392
21016W        W82382  22.696  37.355   1.780
21017W        W82383  24.666  31.571   1.279
21018W        W82384  24.044  19.538  10.043
21019W        W82385   5.911  33.081   4.275
21020W        W82386   4.708  16.699   2.210
21021W        W82387  18.170   2.876   2.178
21022W        W82388   7.830  35.454   4.159
21023W        W82389  21.063  12.178  14.403
21024W        W82390  43.421  26.981   2.212
21025W        W82391  29.434  22.729  13.900
21026W        W82392  18.100  40.320   3.639
21027W        W82393  30.984  16.776   1.811
21028W        W82394  39.814  12.154  11.513
21029W        W82395  19.128  24.194  11.599
21030W        W82396   3.738  28.491   2.296
21031W        W82397   3.847  27.581   2.812
21032W        W82398  34.446  30.002   1.334
21033W        W82399   1.792   4.338  13.873
21034W        W82400  39.061  31.513   2.357
21035W        W82401  43.938  33.454  11.401
21036W        W82402  42.471  37.952   3.722
21037W        W82403  26.127  14.296  12.950
21038W        W82404  28.634   6.835   3.341
21039W        W82405  27.553  27.156   2.792
21040W        W82406   2.426  43.786  13.900
21041W        W82407  10.731  38.851  10.586
21042W        W82408  21.567  15.124   2.339
21043W        W82409   9.692  44.761   0.443
21044W        W82410  42.940  27.024  12.423
21045W        W82411  11.247  20.533  14.771
21046W        W82412  37.484  19.074  14.376
21047W        W82413  29.601  28.078   5.243
21048W        W82414  24.028  31.055  10.512
21049W        W82415  33.128  42.923   2.330
21050W        W82416   7.729  22.639   3.281
21051W        W82417  19.148  15.306   3.782
21052W        W82418  29.991   6.271   4.658
21053W        W82419  26.122  32.125   1.715
21054W        W82420  11.303  19.165  12.091
21055W        W82421  22.611  10.175  11.468
21056W        W82422  36.966  44.484   1.394
21057W        W82423  36.900   6.385  13.479
21058W        W82424  38.905  30.910  14.424
21059W        W82425  29.582  17.233  13.872
21060W        W82426   1.911  19.646  14.798
21061W        W82427   6.815  38.459  14.901
21062W        W82428  43.276  31.907  13.803
21063W        W82429  12.822  25.480   3.355
21064W        W82430  31.612  12.663   1.790
21065W        W82431  14.145   1.270   3.342
21066W        W82432  23.648  27.453   1.255
21067W        W82433  31.494  33.967  12.484
21068W        W82434  25.683  40.436   4.653
21069W        W82435  38.993  22.599  11.480
21070W        W82436  30.108  31.148   2.244
21071W        W82437  19.132  27.100   2.837
21072W        W82438  39.865  39.470   3.868
21073W        W82439  29.071  36.012   1.231
21074W        W82440  37.058  33.102  13.392
21075W        W82441  15.100  29.553   3.699
21076W        W82442  11.775  40.891   2.859
21077W        W82443  22.108  39.351   3.376
21078W        W82444  18.108  44.282  14.475
21079W        W82445   2.289  16.577   1.318
21080W        W82446  11.714  22.198   4.244
21081W        W82447  32.104  10.685   4.293
21082W        W82448   7.781  39.834  10.973
21083W        W82449   1.743  21.020  12.053
21084W        W82450   3.372  41.333  11.898
21085W        W82451  31.516  25.525   4.328
21086W        W82452  19.087   0.898   1.284
21087W        W82453  43.809  37.458  12.038
21088W        W82454  37.879   6.709   2.828
21089W        W82455   0.906  43.919  13.823
21090W        W82456  29.107   4.381   3.203
21091W        W82457   1.815  38.877   4.168
21092W        W82458   9.805  38.908  13.922
21093W        W82459  39.432  32.894   3.869
21094W        W82460  38.861  11.641   3.333
21095W        W82461  40.451  36.006   4.660
21096W        W82462   4.739  21.063  11.929
21097W        W82463  40.385   3.349  14.023
21098W        W82464  20.234  41.854   0.757
21099W        W82465  20.563  42.376   0.961
21100W        W82466  16.087  24.176   2.402
21101W        W82467  29.550  34.120   4.611
21102W        W82468   1.473  15.281   0.312
21103W        W82469  13.183   9.844   0.774
21104W        W82470   3.756  32.486  11.861
21105W        W82471  30.101  15.611   4.282
21106W        W82472  26.487  22.721  13.343
21107W        W82473   9.332  21.620   2.254
21108W        W82474  27.530  36.581   0.273
21109W        W82475  32.026   4.873   4.254
21110W        W82476   4.369  36.516  14.503
21111W        W82477  28.166  36.414   4.674
21112W        W82478  21.567  32.541  10.006
21113W        W82479  10.222  33.887  11.968
21114W        W82480  42.384  33.084   0.473
21115W        W82481   9.171  22.077  12.989
21116W        W82482  15.094  36.887  13.350
21117W        W82483   0.260  19.533   2.352
21118W        W82484  14.770  31.494   4.743
21119W        W82485  25.095   4.801   0.343
21120W        W82486  24.008   5.362  13.844
21121W        W82487   7.344  42.810  12.501
21122W        W82488  35.058  10.687   4.641
21123W        W82489  17.119  30.560   0.802
21124W        W82490   3.850  13.758  10.999
21125W        W82491  21.074   8.381   2.849
21126W        W82492   2.850  19.198  10.473
21127W        W82493  14.703  30.070   5.702
21128W        W82494  20.082  10.160  10.488
21129W        W82495  16.177   8.370  13.801
21130W        W82496   8.185  16.139  14.302
21131W        W82497  26.645  33.126   1.226
21132W        W82498  11.350  11.767   4.278
21133W        W82499  43.808  12.637   4.818
21134W        W82500  13.793  27.041   0.847
21135W        W82501  21.717  29.487   1.878
21136W        W82502  16.158  25.182  12.892
21137W        W82503  43.785  21.206   4.288
21138W        W82504  16.249  37.014  12.578
21139W        W82505  19.643   0.853   3.758
21140W        W82506   6.734  19.664  13.036
21141W        W82507  32.000  39.482   1.423
21142W        W82508  14.168  28.145   2.188
21143W        W82509  36.462  26.021  13.424
21144W        W82510  42.514  40.390   2.785
21145W        W82511  33.114   4.363  13.036
21146W        W82512  10.740  13.190  13.515
21147W        W82513  15.597  33.611   2.811
21148W        W82514  35.906  34.400  11.873
21149W        W82515   3.239  13.343  13.845
21150W        W82516  43.831  11.672  10.888
21151W        W82517  17.072  17.610  13.339
21152W        W82518   9.831   3.736   1.705
21153W        W82519  18.190  30.126  14.429
21154W        W82520   8.165  42.386  13.923
21155W        W82521   0.851  17.704  13.472
21156W        W82522   4.303  14.759   4.244
21157W        W82523  23.556   6.390   0.769
21158W        W82524   1.339   1.421  14.503
21159W        W82525  22.646  30.970  13.826
21160W        W82526  20.130  16.726   4.644
21161W        W82527  29.498  25.080   9.990
21162W        W82528  21.238  44.989   1.234
21163W        W82529  22.520  30.575  11.116
21164W        W82530   4.816  40.874  11.548
21165W        W82531   8.842  17.305  11.480
21166W        W82532  18.172   6.869  11.010
21167W        W82533  11.797   0.312  13.811
21168W        W82534  29.621  19.580   9.508
21169W        W82535  43.317   8.800   0.813
21170W        W82536  22.186  19.707  11.471
21171W        W82537  32.001  17.597  14.478
21172W        W82538   7.193   4.225   0.437
21173W        W82539  36.481  28.182  14.507
21174W        W82540   0.425  41.915  11.374
21175W        W82541  30.552  17.663   4.116
21176W        W82542  26.051  14.646   2.896
21177W        W82543  28.143  29.645  11.401
21178W        W82544  38.360  42.341   2.303
21179W        W82545  43.509  44.356  10.432
21180W        W82546  42.950   5.764  13.043
21181W        W82547   3.225  30.600   3.236
21182W        W82548  29.511  35.045  11.422
21183W        W82549  10.344  31.126  13.985
21184W        W82550  32.598  30.031   3.231
21185W        W82551  27.591  35.031   3.199
21186W        W82552  11.212  14.832  13.993
21187W        W82553  18.594   9.243  11.116
21188W        W82554   1.301   8.238  13.064
21189W        W82555  17.713  44.937  14.992
21190W        W82556  38.343  32.083   2.275
21191W        W82557  10.863  19.248  14.853
21192W        W82558  43.875  21.664  11.887
21193W        W82559  16.243  11.638   3.843
21194W        W82560  25.054  39.476  14.442
21195W        W82561  15.088  36.039  10.967
21196W        W82562  34.435   4.289   4.255
21197W        W82563  38.393  26.513   1.746
21198W        W82564  25.984  25.516  13.916
21199W        W82565  15.323  18.556  14.789
21200W        W82566  24.684   2.377   2.386
21201W        W82567  25.989  25.087  11.992
21202W        W82568  16.597  16.657   3.840
21203W        W82569  25.152   6.691   0.281
21204W        W82570  24.489  22.091  12.061
21205W        W82571   1.957   9.165   1.849
21206W        W82572   1.302  23.048   1.820
21207W        W82573  25.978   2.278   2.663
21208W        W82574   4.240  39.369  12.910
21209W        W82575  15.608   0.267  11.053
21210W        W82576  30.959  24.017  11.425
21211W        W82577   9.873  34.532  13.894
21212W        W82578   3.857  43.432   3.164
21213W        W82579  14.196  23.498   1.376
21214W        W82580  20.148  38.877  14.509
21215W        W82581  20.555   6.760   0.839
21216W        W82582   7.387   5.898   4.191
21217W        W82583  22.574  44.863   3.187
21218W        W82584  18.715   5.800   2.690
21219W        W82585   8.705  44.272   0.777
21220W        W82586  13.209  11.206  11.503
21221W        W82587   3.273  24.491   3.262
21222W        W82588  23.584  10.271  14.449
21223W        W82589  28.026  20.599  11.929
21224W        W82590  35.863  36.456   2.764
21225W        W82591  17.274   8.819   1.782
21226W        W82592  16.208  13.206   4.692
21227W        W82593  38.459  14.268  13.029
21228W        W82594  25.184  17.707  11.926
21229W        W82595   3.812  30.553  10.961
21230W        W82596  40.851   6.799  14.777
21231W        W82597  32.936  38.836   0.762
21232W        W82598  15.665  39.024  11.549
21233W        W82599   2.909   0.381   4.282
21234W        W82600  31.011  24.186   1.889
21235W        W82601  28.001   4.928  11.022
21236W        W82602  16.618  19.280   2.385
21237W        W82603  38.988   2.792   3.763
21238W        W82604   1.378  22.584  10.441
21239W        W82605  11.230  22.104   3.775
21240W        W82606   5.786  15.701   3.385
21241W        W82607  14.678  11.721  13.324
21242W        W82608   8.678   2.819   2.894
21243W        W82609   1.915  26.964   5.100
21244W        W82610  33.452   3.822   4.238
21245W        W82611   4.775   0.393   0.954
21246W        W82612  39.488  23.604  12.002
21247W        W82613  20.254   0.786  11.914
21248W        W82614   4.816  33.053   3.717
21249W        W82615  30.533  14.222  14.842
21250W        W82616  36.946   9.316  14.005
21251W        W82617  17.302  40.435   4.271
21252W        W82618   9.163  37.889   2.329
21253W        W82619  33.523  19.745   1.882
21254W        W82620  35.381  39.922   0.935
21255W        W82621  13.207  16.665  13.959
21256W        W82622  31.148   8.682   4.732
21257W        W82623  22.135  34.435   3.778
21258W        W82624  44.310  16.117  13.448
21259W        W82625  37.943  29.143  13.483
21260W        W82626  24.633  41.820  14.459
21261W        W82627  33.584  15.119  10.999
21262W        W82628  25.023  33.893   0.242
21263W        W82629  22.060  32.916   1.214
21264W        W82630  43.964  23.616  14.844
21265W        W82631  10.702  35.365   0.735
21266W        W82632   5.280  32.045  11.556
21267W        W82633   0.392  35.859   0.748
21268W        W82634  13.821  28.472  13.367
21269W        W82635   9.155   7.666  10.950
21270W        W82636  40.402  16.759  11.572
21271W        W82637  22.116  15.692  10.916
21272W        W82638   3.359  25.217  13.019
21273W        W82639   2.417  41.912   2.776
21274W        W82640  24.568  25.132  14.861
21275W        W82641   0.277  11.834  12.565
21276W        W82642  18.070  30.513  13.487
21277W        W82643  27.679  42.891   4.188
21278W        W82644  42.909  36.502   2.851
21279W        W82645  39.940  38.872  12.345
21280W        W82646  39.946  21.708  12.404
21281W        W82647  20.690  40.535  11.521
21282W        W82648  29.091   6.424   3.760
21283W        W82649   1.334  18.706   4.667
21284W        W82650  25.539  16.573   0.966
21285W        W82651  26.600  32.556   2.320
21286W        W82652  40.531  41.970   4.323
21287W        W82653  14.251  19.119  12.940
21288W        W82654   5.305  32.621   1.778
21289W        W82655  11.672  34.459   1.778
21290W        W82656  13.201  41.536   1.329
21291W        W82657  21.177   1.862   2.847
21292W        W82658  25.051  39.905   1.813
21293W        W82659  34.465  18.051  12.909
21294W        W82660  20.634   4.217   1.339
21295W        W82661  41.328   5.822  12.451
21296W        W82662  14.293   1.751   4.824
21297W        W82663  28.079   4.811  10.472
21298W        W82664  16.301  38.398   2.220
21299W        W82665  31.626   9.805   1.827
21300W        W82666  19.693   5.213   3.718
21301W        W82667  31.057   1.871  13.465
21302W        W82668  17.774   9.649  12.450
21303W        W82669  16.272   2.431   0.374
21304W        W82670  24.626  12.761   1.346
21305W        W82671  43.339  18.748   3.743
21306W        W82672  13.722  22.033   2.683
21307W        W82673  27.473  32.141   0.845
21308W        W82674  44.376  15.221  13.412
21309W        W82675   6.685  21.733  13.420
21310W        W82676   4.861  15.752   2.721
21311W        W82677  21.043  14.104   1.817
21312W        W82678  29.640   8.262   1.310
21313W        W82679  26.496  32.906   2.841
21314W        W82680  37.918  43.288   0.413
21315W        W82681  21.737  12.650  12.555
21316W        W82682   5.691  35.952   2.377
21317W        W82683  29.930   5.925   4.638
21318W        W82684   0.417  24.715   2.392
21319W        W82685  38.935   8.200  10.406
21320W        W82686  39.021   8.224   0.347
21321W        W82687  40.873  21.187   2.838
21322W        W82688  16.186  24.654   0.384
21323W        W82689   1.946  10.378  12.051
21324W        W82690   0.269  35.545  10.946
21325W        W82691  40.473   3.853   3.283
21326W        W82692  11.234  33.544   2.718
21327W        W82693  43.940  35.382  12.964
21328W        W82694  41.353  35.083  12.927
21329W        W82695  33.459  42.282   1.384
21330W        W82696   0.333   0.834  11.026
21331W        W82697  34.506   6.394  13.923
21332W        W82698   6.774  35.076   3.353
21333W        W82699  10.367   6.318  13.311
21334W        W82700  20.254  26.183   2.251
21335W        W82701  16.077  37.881   2.753
21336W        W82702  18.293  26.468   5.110
21337W        W82703  41.475   1.891  13.334
21338W        W82704  29.518  43.335  10.900
21339W        W82705  24.513  39.538  14.348
21340W        W82706   3.737  30.153  12.892
21341W        W82707   6.262  12.841   5.211
21342W        W82708  31.530  44.793   0.967
21343W        W82709  32.440  39.914  12.885
21344W        W82710  13.612   2.826  12.852
21345W        W82711  39.814  22.528   0.821
21346W        W82712   0.886  37.454   3.811
21347W        W82713  17.616  33.505  13.532
21348W        W82714   7.784  22.567   2.391
21349W        W82715  13.641   8.244  14.841
21350W        W82716  35.857  20.159  13.367
21351W        W82717  24.574  11.172   2.208
21352W        W82718   6.252  26.491   2.664
21353W        W82719   5.716   2.883   1.410
21354W        W82720  10.270  26.962   4.656
21355W        W82721  32.431  35.384   0.386
21356W        W82722  32.026  23.002  13.975
21357W        W82723  38.983  15.717   5.110
21358W        W82724  41.948  11.689  11.017
21359W        W82725  20.671   4.413   2.215
21360W        W82726  36.846  14.793  13.805
21361W        W82727  10.683  42.907  14.927
21362W        W82728  23.729  38.056   3.332
21363W        W82729  18.711  16.792   1.437
21364W        W82730  17.217  12.711   1.275
21365W        W82731   9.309  41.483  10.633
21366W        W82732  36.589  26.683   0.264
21367W        W82733  37.552  15.718  11.609
21368W        W82734  10.269   4.774  10.989
21369W        W82735   7.695  32.407   3.309
21370W        W82736  37.971  39.366  12.546
21371W        W82737  44.354   8.712   0.270
21372W        W82738  21.077  12.786   4.147
21373W        W82739  39.455  11.667  11.579
21374W        W82740   8.718  29.925  11.077
21375W        W82741  14.116  12.705  11.035
21376W        W82742  41.037  18.210   1.844
21377W        W82743  10.370  21.232  14.514
21378W        W82744  38.967  38.496   0.832
21379W        W82745  10.214   5.737   4.140
21380W        W82746  34.974  35.096  11.577
21381W        W82747   4.912  22.175   0.448
21382W        W82748  29.459  19.676   1.911
21383W        W82749  30.058  25.613   3.697
21384W        W82750  36.006  26.497  12.065
21385W        W82751  29.645  34.399  13.515
21386W        W82752  27.639   3.288  13.339
21387W        W82753   4.898  18.228   3.313
21388W        W82754  30.588  33.931   4.267
21389W        W82755  31.935  43.421  11.015
21390W        W82756  20.745  27.643  12.024
21391W        W82757  10.193  36.454   0.907
21392W        W82758   7.911   3.380  10.088
21393W        W82759  42.842  42.848  10.465
21394W        W82760  38.467  35.483   1.348
21395W        W82761  11.284   9.209   2.242
21396W        W82762   4.899   1.852  10.406
21397W        W82763  21.584  36.403   3.298
21398W        W82764  32.075  30.505   0.732
21399W        W82765  21.176  15.646  12.882
21400W        W82766   1.280   9.220  13.041
21401W        W82767   3.400  37.945  10.991
21402W        W82768  38.448  17.299   0.760
21403W        W82769  15.305  23.585   2.373
21404W        W82770  27.003  40.503   1.280
21405W        W82771  16.109  43.388  11.034
21406W        W82772  12.824  28.530   0.316
21407W        W82773   4.333  14.132  10.907
21408W        W82774  32.552  25.045   2.345
21409W        W82775   6.373  37.056  11.426
21410W        W82776  42.003  26.967  14.919
21411W        W82777   5.290  20.655   0.849
21412W        W82778  13.220   2.871   0.837
21413W        W82779   6.785  14.806  14.279
21414W        W82780  17.759  23.001   2.820
21415W        W82781  21.162  23.071   2.721
21416W        W82782  37.991  15.734  13.900
21417W        W82783   3.723  44.335   9.971
21418W        W82784   0.813   1.349  14.853
21419W        W82785  36.895  29.657   4.764
21420W        W82786  23.573  33.619   4.813
21421W        W82787   1.373  33.924   1.740
21422W        W82788  36.588  26.016  13.895
21423W        W82789   3.883  43.493  11.979
21424W        W82790  20.748  30.003   0.731
21425W        W82791  30.543   5.284  14.456
21426W        W82792  28.151  37.490   4.626
21427W        W82793  23.529  30.499  13.491
21428W        W82794  31.595   3.423  14.904
21429W        W82795  33.549  15.129  12.975
21430W        W82796  21.711  36.473  13.407
21431W        W82797  37.342   1.297  14.365
21432W        W82798  27.980  17.204   0.324
21433W        W82799   6.331  39.008  12.898
21434W        W82800  14.667  12.362   3.232
21435W        W82801  44.461   3.892   2.786
21436W        W82802  12.689  42.883   0.806
21437W        W82803  38.330  15.165  11.092
21438W        W82804   7.811  31.928   4.166
21439W        W82805  12.186  25.125  13.050
21440W        W82806  22.662  21.073  10.425
21441W        W82807  32.993  42.500   0.727
21442W        W82808  35.454  15.809  13.457
21443W        W82809   7.798  10.864  13.465
21444W        W82810  37.037  33.958  13.338
21445W        W82811  10.752   7.809  10.598
21446W        W82812  24.223  37.381   2.759
21447W        W82813  23.180   4.814   2.276
21448W        W82814  17.213  14.834  13.796
21449W        W82815  20.262  33.535  14.992
21450W        W82816   8.257  13.322   2.382
21451W        W82817  21.134  10.353  14.808
21452W        W82818  11.631  41.022   3.861
21453W        W82819  25.096  25.046  10.891
21454W        W82820  25.552  36.930  11.015
21455W        W82821  37.396  32.092   1.275
21456W        W82822   2.303  43.780  11.042
21457W        W82823  11.852  11.295  10.893
21458W        W82824  39.888  28.038  11.102
21459W        W82825  18.646  36.563  14.298
21460W        W82826  19.753  41.434  10.522
21461W        W82827  31.412  29.159  14.376
21462W        W82828  41.406  28.142   0.731
21463W        W82829  39.814  14.198  13.493
21464W        W82830  15.755  35.878  10.439
21465W        W82831   8.364  29.627  12.516
21466W        W82832   4.426  38.437   2.765
21467W        W82833  26.147  31.450  13.026
21468W        W82834  17.182  41.871  13.888
21469W        W82835  28.553  25.134  12.398
21470W        W82836   1.352  24.517  11.392
21471W        W82837  24.033   4.333  13.389
21472W        W82838  10.227  15.170  14.778
21473W        W82839  31.947   3.864   3.642
21474W        W82840  28.481  41.895   3.714
21475W        W82841   0.908  28.565   0.265
21476W        W82842   7.713  30.040   1.701
21477W        W82843  42.929   0.296  11.926
21478W        W82844  27.946  26.022   4.606
21479W        W82845  22.596  10.859  13.906
21480W        W82846  40.337   3.456  14.440
21481W        W82847  11.633  32.623  10.409
21482W        W82848  21.044  29.667  14.331
21483W        W82849   5.396  18.214  10.534
21484W        W82850   7.261  41.336   2.412
21485W        W82851  38.039  35.450  10.521
21486W        W82852  25.650  36.423   0.428
21487W        W82853  17.217  31.624   2.883
21488W        W82854   4.896  27.048  11.058
21489W        W82855  26.206  21.724  12.913
21490W        W82856  42.440   6.320  14.311
21491W        W82857  33.979  20.104  14.854
21492W        W82858  19.587  25.084  10.981
21493W        W82859  42.793  40.871  12.355
21494W        W82860  33.933  40.457  14.313
21495W        W82861  10.250  38.016   3.211
21496W        W82862  14.716  28.472  12.042
21497W        W82863   0.259  17.767   2.236
21498W        W82864  19.699  25.086  12.394
21499W        W82865  18.115  43.353  10.510
21500W        W82866  34.028  38.538  12.052
21501W        W82867  41.003  32.891  11.041
21502W        W82868   1.452  11.324  14.405
21503W        W82869  27.154  25.527  12.020
21504W        W82870  40.845  34.871   4.685
21505W        W82871  36.444  21.730   4.193
21506W        W82872  31.053  29.129  11.499
21507W        W82873  33.902   7.288  12.410
21508W        W82874  22.232   0.812  10.996
21509W        W82875  38.849  38.068  14.289
21510W        W82876  19.221  24.136   2.310
21511W        W82877  19.536  22.242   2.782
21512W        W82878  32.000  25.183   4.337
21513W        W82879  26.478  26.561   0.253
21514W        W82880  36.371   6.308  10.093
21515W        W82881  10.752  31.149  13.904
21516W        W82882  19.286  44.310   1.773
21517W        W82883  12.656  13.260  14.976
21518W        W82884  37.886  37.921  10.917
21519W        W82885  27.581  30.984  10.020
21520W        W82886  29.051  16.119  11.543
21521W        W82887  40.840  33.442   3.864
21522W        W82888  22.080  21.721   1.310
21523W        W82889   9.183   4.770   3.244
21524W        W82890  33.103  15.217  13.904
21525W        W82891  13.166   6.821  11.962
21526W        W82892   2.439   5.278  14.466
21527W        W82893   1.917  21.616  11.566
21528W        W82894  11.704  19.586   1.931
21529W        W82895  42.520  12.623  14.938
21530W        W82896  41.470   3.936   3.180
21531W        W82897   2.882  24.060  11.508
21532W        W82898  24.055   5.351  14.487
21533W        W82899  12.824  16.804  14.791
21534W        W82900  40.007   9.207  11.378
21535W        W82901  42.383  20.116   2.313
21536W        W82902  20.668  30.657  14.837
21537W        W82903   9.152  16.609   2.187
21538W        W82904  28.561  24.174   2.361
21539W        W82905  13.637  38.932   1.844
21540W        W82906  12.742  14.132   3.757
21541W        W82907  21.612   0.971  13.496
21542W        W82908  19.283  23.508   0.460
21543W        W82909  16.736  28.935   2.362
21544W        W82910  21.085   7.303  14.324
21545W        W82911  32.071  43.475   1.720
21546W        W82912  15.315  26.185  13.023
21547W        W82913   0.462  16.226  14.328
21548W        W82914  24.545  14.338   4.237
21549W        W82915  21.645  19.620  12.064
21550W        W82916  43.888   1.883   4.601
21551W        W82917  16.253  23.693  10.999
21552W        W82918  10.846  17.749  12.869
21553W        W82919  34.955  41.042  10.427
21554W        W82920  35.053  30.931   1.816
21555W        W82921   3.845  32.508   2.848
21556W        W82922  40.382  18.199   2.863
21557W        W82923  11.160  27.068   3.771
21558W        W82924   2.786  40.803  11.572
21559W        W82925  17.616   0.923  11.900
21560W        W82926   2.409  41.512  14.440
21561W        W82927  28.973  30.082   3.212
21562W        W82928  34.423  32.457   1.805
21563W        W82929  36.053  31.567   4.113
21564W        W82930   8.371  43.982  11.439
21565W        W82931  19.763  13.115  11.929
21566W        W82932   0.378  39.458   4.706
21567W        W82933  20.144  29.005  14.966
21568W        W82934  30.000  40.497  14.344
21569W        W82935  22.242  27.174  13.964
21570W        W82936  34.506  33.392   1.299
21571W        W82937  19.079  22.643  11.593
21572W        W82938  38.339  42.324   3.352
21573W        W82939  12.853   0.312  12.825
21574W        W82940  41.325  27.654   3.151
21575W        W82941  43.793  12.298   3.221
21576W        W82942  31.089   3.950   4.832
21577W        W82943  39.872  17.626   4.205
21578W        W82944  31.601   8.867  12.461
21579W        W82945  26.016  29.468  10.926
21580W        W82946  24.042  27.564   4.758
21581W        W82947  13.297  24.563   3.850
21582W        W82948   7.882   5.336  14.809
21583W        W82949  41.404  20.745   2.682
21584W        W82950   5.228  10.770  14.417
21585W        W82951  22.208   0.984   0.383
21586W        W82952  20.266  39.381   2.188
21587W        W82953  10.709  27.676   4.765
21588W        W82954   5.358  34.388   4.625
21589W        W82955  35.483  44.410   3.645
21590W        W82956   2.954  10.729  12.921
21591W        W82957  39.491  32.011   1.925
21592W        W82958  34.920  23.002   0.483
21593W        W82959   2.246  31.994   4.262
21594W        W82960  17.574  34.433  13.374
21595W        W82961   1.888   0.757  14.917
21596W        W82962   7.763  19.209   4.285
21597W        W82963   9.198  18.212   3.161
21598W        W82964  22.732  42.284  13.379
21599W        W82965   4.714   3.833   1.294
21600W        W82966  35.530  22.527   4.724
21601W        W82967  44.888  14.272   0.473
21602W        W82968   2.364   8.832  10.109
21603W        W82969  32.985  35.003   3.706
21604W        W82970  19.255   9.815  12.483
21605W        W82971  27.512  11.198   1.251
21606W        W82972   8.722   4.293   3.739
21607W        W82973   1.457  10.202   1.770
21608W        W82974  14.172  23.103   4.637
21609W        W82975  41.880  19.611  11.505
21610W        W82976  31.141   9.680   0.410
21611W        W82977   2.462  15.620  13.984
21612W        W82978   3.937  38.893   4.817
21613W        W82979  11.370  26.489   3.660
21614W        W82980  21.206  10.240   2.255
21615W        W82981  25.648  23.592   1.221
21616W        W82982  10.157   6.203  13.922
21617W        W82983  33.910  31.606  12.342
21618W        W82984  43.901  16.645   3.382
21619W        W82985   5.389  22.541   0.932
21620W        W82986  29.959  34.079   3.311
21621W        W82987  18.062  37.017  13.484
21622W        W82988  12.690  10.140   2.730
21623W        W82989   5.933   1.353   3.221
21624W        W82990  17.155  33.096   2.723
21625W        W82991  12.681  35.078   2.184
21626W        W82992   1.381   4.724  14.444
21627W        W82993  30.042  30.978   1.931
21628W        W82994  18.592  20.048   0.442
21629W        W82995  32.936  26.499   1.800
21630W        W82996  25.582  24.985   3.334
21631W        W82997  14.713  43.828   0.370
21632W        W82998  25.566   9.327   4.683
21633W        W82999  22.066  19.070  11.924
21634W        W83000   6.895   9.830   4.630
21635W        W83001   1.365  30.598   4.746
21636W        W83002  11.798   0.321   0.856
21637W        W83003  29.474  44.261   2.346
21638W        W83004   6.270  27.954   5.311
21639W        W83005   4.412   6.881   0.906
21640W        W83006  23.648  15.715   1.359
21641W        W83007  43.822  24.558   0.325
21642W        W83008  10.159   0.297  13.909
21643W        W83009  29.949  44.378  11.486
21644W        W83010   8.838   8.792  14.294
21645W        W83011  43.422  35.856   3.278
21646W        W83012  27.533  31.052   2.767
21647W        W83013  36.891   0.251   3.334
21648W        W83014  35.913  18.084  13.929
21649W        W83015  10.797  18.211  13.969
21650W        W83016  13.194  13.695   4.598
21651W        W83017  12.345  30.545   2.809
21652W        W83018   1.802  15.784   4.600
21653W        W83019  26.590  25.985  11.969
21654W        W83020   8.673  13.718   3.749
21655W        W83021  24.541  23.059   4.716
21656W        W83022  28.625  15.125  13.402
21657W        W83023  42.395   9.262   3.183
21658W        W83024  21.017  32.121   4.624
21659W        W83025  40.449   0.340   3.710
21660W        W83026  28.647   3.945   3.748
21661W        W83027  13.672  15.693  10.451
21662W        W83028   9.714  26.120  12.893
21663W        W83029  38.438  23.693  10.994
21664W        W83030   0.255  38.032  13.840
21665W        W83031  17.643  30.464  10.555
21666W        W83032  40.842  35.402   3.207
21667W        W83033   4.384  27.484  14.303
21668W        W83034  26.105   2.943   4.209
21669W        W83035  33.022  10.321   2.846
21670W        W83036   5.889  19.043  14.351
21671W        W83037  39.962  39.052   0.290
21672W        W83038   0.971  19.631  10.040
21673W        W83039  41.803   4.700  14.352
21674W        W83040  43.960   6.765  14.938
21675W        W83041  21.560  38.956   2.806
21676W        W83042  35.989  21.234  12.510
21677W        W83043   2.828   4.922   1.225
21678W        W83044   8.696  16.651   3.635
21679W        W83045  15.578  17.112   0.806
21680W        W83046  15.642  29.929  11.044
21681W        W83047  35.954   7.820  13.796
21682W        W83048   0.810  31.080  14.779
21683W        W83049  34.435  24.563  11.101
21684W        W83050   9.230  43.494  14.322
21685W        W83051  14.619  40.410   9.995
21686W        W83052  38.461  36.501   0.773
21687W        W83053  26.488  33.622   5.157
21688W        W83054   5.399   5.768  14.448
21689W        W83055  11.665   2.847   1.750
21690W        W83056  16.781  42.490   0.847
21691W        W83057  26.055  24.110   0.770
21692W        W83058  43.006  11.726   4.744
21693W        W83059  14.314  20.531  11.125
21694W        W83060  20.174  29.079   4.144
21695W        W83061   4.928   6.678   4.830
21696W        W83062  21.103  15.152  12.846
21697W        W83063  28.006  22.085   3.306
21698W        W83064  33.905  28.982  13.426
21699W        W83065  34.921  24.586   0.480
21700W        W83066  42.433   4.876   0.347
21701W        W83067  16.690  36.042   4.231
21702W        W83068  26.581  18.589   0.281
21703W        W83069  28.097  20.120   0.745
21704W        W83070  19.657  22.031  10.445
21705W        W83071  23.689  30.910  12.062
21706W        W83072  40.991  13.674  12.363
21707W        W83073  42.342  17.188   1.328
21708W        W83074   1.866   7.759   2.669
21709W        W83075  38.956   1.822   1.413
21710W        W83076  16.698   5.859  13.505
21711W        W83077   0.970  37.913  14.944
21712W        W83078  17.072  37.393   4.704
21713W        W83079  11.829  21.089   1.869
21714W        W83080  41.405  37.368   4.277
21715W        W83081  30.659   5.735  11.521
21716W        W83082   5.777  29.950   0.412
21717W        W83083  32.960  39.949   3.830
21718W        W83084  13.622  25.502   2.241
21719W        W83085  20.041  33.486   2.188
21720W        W83086  20.532   1.957   4.327
21721W        W83087  32.595  19.643  12.916
21722W        W83088  26.521  34.484  14.958
21723W        W83089  40.508   4.700   3.670
21724W        W83090  13.723   7.740   0.836
21725W        W83091  38.553   0.816  11.432
21726W        W83092  41.834  14.112   1.902
21727W        W83093   9.769  30.494  13.485
21728W        W83094   4.432   6.273   0.258
21729W        W83095  36.989  18.672  14.016
21730W        W83096  20.652  16.773  14.415
21731W        W83097  28.622  22.640  14.446
21732W        W83098   9.251  22.526  13.454
21733W        W83099  13.136  43.405   2.261
21734W        W83100  10.276  27.463   3.364
21735W        W83101   2.868  32.108  13.546
21736W        W83102  17.613  25.015  12.359
21737W        W83103   7.309  24.695   0.399
21738W        W83104   3.902  10.758   4.762
21739W        W83105  25.128  18.143   3.754
21740W        W83106  20.135  43.929  11.875
21741W        W83107  44.812  24.071  12.028
21742W        W83108  28.050  32.484  12.870
21743W        W83109  18.756  11.720   4.631
21744W        W83110   5.309  14.631   1.917
21745W        W83111  21.752   8.368   2.318
21746W        W83112  26.510  18.557   2.266
21747W        W83113   8.259  16.763  11.893
21748W        W83114  21.698  29.138   2.876
21749W        W83115  41.395  29.937  13.042
21750W        W83116   2.959  42.907  11.040
21751W        W83117   5.929  29.967   1.789
21752W        W83118  44.828  41.361   1.237
21753W        W83119  18.053  20.674   1.922
21754W        W83120  39.365  31.006   4.188
21755W        W83121  40.921  40.432  14.952
21756W        W83122  25.138  38.837  13.881
21757W        W83123   7.909   7.287  10.958
21758W        W83124   1.734   3.910  13.402
21759W        W83125  12.744  10.312  13.838
21760W        W83126  33.443   6.816   3.784
21761W        W83127  22.042  37.509   1.364
21762W        W83128  43.905  42.795  13.353
21763W        W83129  27.534  17.567  14.931
21764W        W83130  34.025   3.833  12.966
21765W        W83131  23.546  41.339   3.717
21766W        W83132  28.516  35.065   2.227
21767W        W83133  36.003  12.645   3.244
21768W        W83134  39.959  17.114  14.405
21769W        W83135  14.324  31.568   0.832
21770W        W83136   9.827  31.938   0.745
21771W        W83137   8.237   8.848  14.333
21772W        W83138  26.964  26.043   0.475
21773W        W83139   4.813   8.767  10.469
21774W        W83140  13.118  32.920  14.505
21775W        W83141   0.747  26.684   3.276
21776W        W83142  24.119  29.051  12.841
21777W        W83143  14.701   9.303  14.369
21778W        W83144  33.451  33.958  14.822
21779W        W83145  11.220  22.622   2.852
21780W        W83146  36.967  23.519  12.084
21781W        W83147  20.092  14.740   0.807
21782W        W83148  31.631   7.307   1.792
21783W        W83149  24.985   0.380  14.391
21784W        W83150  43.515  11.136   0.291
21785W        W83151  40.394   9.866   0.882
21786W        W83152   7.722  42.882   0.895
21787W        W83153  39.481  28.142   1.341
21788W        W83154  27.006  28.475  10.573
21789W        W83155  15.770  28.621  11.570
21790W        W83156  31.112   9.666  11.960
21791W        W83157   7.708  19.636   1.390
21792W        W83158  24.136  16.633  14.369
21793W        W83159   6.374  40.521  10.942
21794W        W83160  43.904  37.349  14.456
21795W        W83161  41.374  43.910   4.686
21796W        W83162  22.653   4.300   1.287
21797W        W83163  10.330  26.059   1.271
21798W        W83164  30.470  21.092   9.996
21799W        W83165  14.125   6.307  13.026
21800W        W83166  15.230  38.457   0.775
21801W        W83167  34.955  24.150  14.964
21802W        W83168  33.428  18.573  13.953
21803W        W83169   4.354  25.497   4.168
21804W        W83170  34.085   5.378   0.336
21805W        W83171  43.927  24.541  11.996
21806W        W83172  44.370   6.744  11.034
21807W        W83173  38.823   1.975   2.378
21808W        W83174  43.946  41.002   1.422
21809W        W83175  14.249   4.275  11.482
21810W        W83176  12.198  21.708   3.226
21811W        W83177  34.964   1.388  11.959
21812W        W83178   9.838   6.228   2.770
21813W        W83179  27.599  41.355  12.570
21814W        W83180  35.979  28.131  10.526
21815W        W83181  10.787  26.103   2.694
21816W        W83182  13.166  12.621   0.314
21817W        W83183  36.047  44.991   0.453
21818W        W83184  35.514  15.134   3.762
21819W        W83185  14.246  39.425   3.717
21820W        W83186   5.738  29.102  11.907
21821W        W83187  40.807  21.203  10.586
21822W        W83188   4.915  13.779   1.714
21823W        W83189   9.798   9.766   1.244
21824W        W83190  17.136  36.407  10.611
21825W        W83191  29.070  24.507  11.406
21826W        W83192  41.335  44.773  10.594
21827W        W83193  13.157  22.019   0.424
21828W        W83194  22.609  44.796  13.503
21829W        W83195  38.049  33.990  11.408
21830W        W83196   0.765  31.993  12.001
21831W        W83197  41.417  21.077  13.476
21832W        W83198  43.493  30.140  11.434
21833W        W83199  42.961  27.642   1.362
21834W        W83200  43.480  19.120   3.679
21835W        W83201   5.224   5.767   4.221
21836W        W83202   9.308  30.079   2.730
21837W        W83203  18.573  11.631  10.076
21838W        W83204  18.588  23.491  11.388
21839W        W83205  13.621  43.848   0.430
21840W        W83206  33.007  20.208  14.280
21841W        W83207  30.106   3.412   3.703
21842W        W83208   4.841  43.441  13.402
21843W        W83209  35.383  44.346   3.315
21844W        W83210  26.070   4.849  14.282
21845W        W83211  42.992  29.064  14.006
21846W        W83212  27.953  14.314   0.756
21847W        W83213  20.061  32.965  11.990
21848W        W83214   9.739  39.377   4.702
21849W        W83215  32.926  16.200   3.282
21850W        W83216  43.896  21.678   1.807
21851W        W83217  41.961  37.471  13.794
21852W        W83218  33.445  15.144   3.711
21853W        W83219  25.560  22.555   5.226
21854W        W83220  20.692   6.716   3.659
21855W        W83221  20.056  33.056  10.530
21856W        W83222  44.787  23.004   2.790
21857W        W83223  28.078  14.112   1.926
21858W        W83224  10.737  41.412  10.571
21859W        W83225  26.650  10.865   4.266
21860W        W83226  23.727  22.534   4.660
21861W        W83227  23.650   6.919  11.505
21862W        W83228  12.159  10.229  11.439
21863W        W83229   6.916  26.679  12.522
21864W        W83230   4.435  30.472   0.414
21865W        W83231  36.094  44.402  10.611
21866W        W83232  26.011  11.340   1.353
21867W        W83233   1.367  16.086   0.339
21868W        W83234  38.881  38.967   4.265
21869W        W83235   9.152  35.909  13.973
21870W        W83236  22.087  12.205   1.884
21871W        W83237   0.976  34.507   3.707
21872W        W83238  32.137  23.681  10.945
21873W        W83239  43.321  44.783  11.538
21874W        W83240  37.475  26.494   3.709
21875W        W83241  40.866  41.396  10.976
21876W        W83242  32.431  20.033   1.755
21877W        W83243  34.555  18.710   4.272
21878W        W83244  26.155  22.616   2.268
21879W        W83245  17.273  15.304   3.849
21880W        W83246  36.900  12.346   0.425
21881W        W83247  25.991  43.936  13.858
21882W        W83248  31.579  41.415   2.208
21883W        W83249  15.109  14.731   2.318
21884W        W83250  10.673  21.208  13.992
21885W        W83251   5.772  37.031  14.321
21886W        W83252  31.035  30.982   4.119
21887W        W83253  43.832  13.842  10.409
21888W        W83254  28.574   7.292  13.028
21889W        W83255  21.646   9.206  14.852
21890W        W83256  14.789   8.663  11.577
21891W        W83257   2.966  43.867  10.435
21892W        W83258  44.337  25.000   5.300
21893W        W83259  25.983  40.992  11.447
21894W        W83260  10.853   4.257   4.212
21895W        W83261  18.695   9.204   3.238
21896W        W83262  29.170  18.210   3.789
21897W        W83263  44.305  32.440   3.632
21898W        W83264  25.530  44.899   3.727
21899W        W83265   4.211  26.549   2.668
21900W        W83266  29.104  40.360  13.968
21901W        W83267   2.952  43.816   4.222
21902W        W83268  13.774   3.907  14.317
21903W        W83269  26.594  36.498   1.902
21904W        W83270  43.949  28.144  14.801
21905W        W83271  20.139  36.993  10.984
21906W        W83272  33.404  43.287   1.809
21907W        W83273   9.333  27.684  11.077
21908W        W83274   7.282  11.688   2.729
21909W        W83275  35.929  27.485   4.325
21910W        W83276   1.430  38.463  13.365
21911W        W83277  41.913   4.810  13.416
21912W        W83278  14.229   3.428   0.301
21913W        W83279  38.567  38.972   1.322
21914W        W83280  20.217   5.839   2.283
21915W        W83281  25.048  26.595   0.297
21916W        W83282   0.978  44.767  13.829
21917W        W83283  21.654  14.645  11.567
21918W        W83284   5.307  28.622  11.989
21919W        W83285  17.624   0.774   1.763
21920W        W83286   9.862  25.699  14.850
21921W        W83287   7.797  11.810  11.050
21922W        W83288   3.838  12.708   1.719
21923W        W83289  28.552   6.900   2.389
21924W        W83290  27.448  31.587   4.163
21925W        W83291  31.499  39.543   4.688
21926W        W83292  25.520  23.157  13.311
21927W        W83293  34.988  23.145   2.403
21928W        W83294  43.358  18.138  13.842
21929W        W83295  17.607  36.556   1.854
21930W        W83296   4.279  13.294  11.581
21931W        W83297  13.164  27.151   4.794
21932W        W83298  30.634  24.568   2.310
21933W        W83299  29.574  43.321  14.837
21934W        W83300  40.043  10.671  12.080
21935W        W83301  27.106   2.345  11.975
21936W        W83302  16.777   3.406  13.881
21937W        W83303   0.484  36.046   3.250
21938W        W83304  32.487   4.257  14.011
21939W        W83305  36.396  28.564  14.024
21940W        W83306  28.982  31.008   2.836
21941W        W83307  21.529  35.363   3.654
21942W        W83308  23.152   1.369  13.477
21943W        W83309   6.755  36.478  11.449
21944W        W83310  43.320  15.311  12.373
21945W        W83311   6.192  39.054  14.775
21946W        W83312  31.590  37.510   2.782
21947W        W83313  41.790  32.589  11.109
21948W        W83314  33.473  33.382   0.274
21949W        W83315   6.188   1.461   0.292
21950W        W83316  20.218   1.761  11.994
21951W        W83317  18.673  13.250  12.563
21952W        W83318  29.933   0.264  13.919
21953W        W83319  17.067  11.287   3.222
21954W        W83320   3.869   9.353  13.053
21955W        W83321  31.621  31.995  14.782
21956W        W83322  39.978  23.586  14.781
21957W        W83323  40.848   4.378   2.698
21958W        W83324  34.579   5.412   2.286
21959W        W83325  34.887  22.019   1.719
21960W        W83326  11.817  21.036  13.902
21961W        W83327   9.868   0.463   2.234
21962W        W83328  33.999   5.830   3.203
21963W        W83329  15.169  16.779  14.889
21964W        W83330   3.954  43.383   1.386
21965W        W83331  19.657  12.630   2.276
21966W        W83332  30.946   0.810  13.993
21967W        W83333  40.314  27.641   4.644
21968W        W83334  35.564  28.940  13.489
21969W        W83335  19.704  17.657  14.841
21970W        W83336  40.423  24.685   2.408
21971W        W83337  12.755  40.850  12.515
21972W        W83338  23.151  10.746  12.953
21973W        W83339  38.011  35.928  13.950
21974W        W83340  44.387  31.605  11.085
21975W        W83341  37.404  27.186  13.851
21976W        W83342  42.330   5.272   0.736
21977W        W83343  13.820  37.986   4.191
21978W        W83344  24.506  13.121   1.224
21979W        W83345  12.292   3.760   2.825
21980W        W83346   7.787   8.323  10.605
21981W        W83347  11.832   0.773  12.879
21982W        W83348  32.956  30.658   1.282
21983W        W83349  17.777  15.325   2.818
21984W        W83350  21.596  20.750   3.316
21985W        W83351  37.369  30.001   2.665
21986W        W83352  30.953  10.276   3.667
21987W        W83353  18.076   7.204   1.698
21988W        W83354   6.326  43.901   0.317
21989W        W83355  12.287  15.769   2.407
21990W        W83356   2.863  16.573   0.792
21991W        W83357  31.916   6.290   1.305
21992W        W83358  16.607  25.670  13.389
21993W        W83359   4.322  34.018   0.404
21994W        W83360  33.515  21.734   3.682
21995W        W83361   1.384  10.750  14.887
21996W        W83362  32.593  13.676  11.058
21997W        W83363  35.360  14.102  14.397
21998W        W83364  37.910  24.071  14.962
21999W        W83365   8.215  13.290   4.814
22000W        W83366  32.032  15.732   3.696
22001W        W83367   1.939  33.564   2.716
22002W        W83368  20.619  19.638   3.743
22003W        W83369   8.856  33.008  10.503
22004W        W83370  13.196  36.583  10.427
22005W        W83371  27.620  21.755   3.176
22006W        W83372  40.454  11.690  14.375
22007W        W83373  30.087  33.945  14.801
22008W        W83374  26.007  36.970  11.091
22009W        W83375  17.608  25.193   3.792
22010W        W83376  38.390   2.271   2.886
22011W        W83377  40.436  24.622   0.819
22012W        W83378  30.444  31.462   3.303
22013W        W83379   8.274  10.650   3.727
22014W        W83380  39.441   5.413  10.588
22015W        W83381  26.630  22.142   1.805
22016W        W83382  40.403  34.063   3.348
22017W        W83383  21.152  14.197   0.892
22018W        W83384   4.745  12.134   3.327
22019W        W83385  25.623  39.028  11.111
22020W        W83386  42.887  23.614  12.081
22021W        W83387  29.963  11.329  12.004
22022W        W83388  19.122   8.244  10.417
22023W        W83389   9.334  27.048  12.020
22024W        W83390   5.760  44.802  13.443
22025W        W83391  34.420  16.783   3.823
22026W        W83392  24.521  14.157   2.863
22027W        W83393  43.866  34.521   3.866
22028W        W83394   0.421  33.075   4.601
22029W        W83395  16.284  28.657  13.905
22030W        W83396  42.991   9.831   4.808
22031W        W83397  17.706  25.482   4.724
22032W        W83398   1.286  24.212   2.216
22033W        W83399   4.893   3.410   0.837
22034W        W83400  28.566  24.194   3.690
22035W        W83401  25.515  33.579   2.813
22036W        W83402  31.448  15.291  10.524
22037W        W83403  19.208  12.132  11.422
22038W        W83404  38.820  28.659   9.946
22039W        W83405  10.763  10.716  13.001
22040W        W83406  19.692  36.418   0.255
22041W        W83407  15.143  21.616  13.828
22042W        W83408  21.567  15.592  11.578
22043W        W83409  12.363  27.167  10.458
22044W        W83410   1.357  19.267   3.649
22045W        W83411  10.178  42.455  11.407
22046W        W83412   1.877  25.048   2.717
22047W        W83413  19.575  14.799   2.200
22048W        W83414   7.378  16.233  13.486
22049W        W83415   5.220   3.729  14.874
22050W        W83416  34.047  32.426  13.380
22051W        W83417  20.680  33.563  11.389
22052W        W83418  18.566   4.286  13.399
22053W        W83419  34.590  36.944  11.555
22054W        W83420  27.070  26.127   5.593
22055W        W83421  16.228  30.071   2.792
22056W        W83422  31.027   5.804   3.852
22057W        W83423   4.330  15.758   0.282
22058W        W83424  15.251  23.065   2.301
22059W        W83425  23.606  25.487   2.711
22060W        W83426  26.607  12.748   1.796
22061W        W83427   0.278  11.367  10.928
22062W        W83428   3.361  34.543  14.421
22063W        W83429  35.868  41.471   3.683
22064W        W83430  39.388   9.183  12.411
22065W        W83431  12.248  19.555   3.863
22066W        W83432  38.528  43.832  12.402
22067W        W83433  30.925  18.259   0.340
22068W        W83434   4.378   8.310   1.789
22069W        W83435  19.539  10.845   2.375
22070W        W83436  19.054  32.048   2.678
22071W        W83437  44.342  34.049   0.755
22072W        W83438   1.968  11.145   1.923
22073W        W83439   4.876  34.600   3.645
22074W        W83440  24.499  23.599  10.460
22075W        W83441  43.919  32.120  11.083
22076W        W83442  24.162  17.684  10.574
22077W        W83443   4.242   4.361  14.359
22078W        W83444  20.769  11.279   3.199
22079W        W83445  15.324  12.704  10.547
22080W        W83446  16.796   8.172  12.084
22081W        W83447  15.773  43.852   1.255
22082W        W83448  12.137   4.849   0.890
22083W        W83449   3.951  25.493  14.513
22084W        W83450  15.198  19.720   1.776
22085W        W83451   2.305  14.158   0.869
22086W        W83452  27.129  12.193  11.879
22087W        W83453  17.707  36.500  13.346
22088W        W83454  32.095  11.659   3.648
22089W        W83455  26.171  26.601  14.918
22090W        W83456  33.083  38.556   2.247
22091W        W83457  29.006   3.875   1.395
22092W        W83458  31.516   9.207  11.094
22093W        W83459  30.909  13.157  10.518
22094W        W83460  40.529  29.474  12.490
22095W        W83461  23.030  29.165   3.171
22096W        W83462   3.400  16.714   3.165
22097W        W83463   2.273  17.112  11.026
22098W        W83464   1.923   6.419  11.945
22099W        W83465  28.667  28.601   5.168
22100W        W83466   9.734  24.141   4.742
22101W        W83467  18.060  11.310  12.430
22102W        W83468  28.175  10.662  10.518
22103W        W83469   0.959  18.253  12.825
22104W        W83470  20.256  31.939   1.249
22105W        W83471  12.220  15.632  12.851
22106W        W83472  44.300  44.916  10.569
22107W        W83473  37.565  27.006  10.412
22108W        W83474  18.248   6.289  14.946
22109W        W83475  27.954   2.238   4.709
22110W        W83476  27.653  15.103  12.542
22111W        W83477   7.685  26.482   1.403
22112W        W83478  39.453   5.836  13.388
22113W        W83479  30.029  25.012  10.635
22114W        W83480   3.442  17.197   1.372
22115W        W83481  41.448  41.502   4.340
22116W        W83482  24.703  43.767  10.470
22117W        W83483  32.951  13.796  11.858
22118W        W83484  30.600   2.433   1.384
22119W        W83485  24.172  20.707  12.887
22120W        W83486  12.151  27.029  13.028
22121W        W83487   0.459  25.201   2.372
22122W        W83488  14.776   8.352   2.271
22123W        W83489   6.703  44.457   2.895
22124W        W83490  12.205  43.007   0.363
22125W        W83491  20.596  21.702  11.603
22126W        W83492  44.907  22.669  14.759
22127W        W83493  32.945  26.054  14.499
22128W        W83494   6.905   2.895   9.924
22129W        W83495  36.435  23.713  12.023
22130W        W83496   2.776   0.881  10.446
22131W        W83497  39.050  32.041   0.476
22132W        W83498  40.992  44.347  10.513
22133W        W83499  31.075  43.979   2.291
22134W        W83500  38.358  41.328  14.865
22135W        W83501  27.119  31.962   2.403
22136W        W83502  23.189   2.259  11.512
22137W        W83503  13.347  24.092  11.566
22138W        W83504  33.920   4.292   2.715
22139W        W83505  16.147  35.597   2.794
22140W        W83506  30.651   2.233  13.345
22141W        W83507   4.814  41.344   2.309
22142W        W83508  29.628  27.608   0.425
22143W        W83509  41.925  12.805   3.727
22144W        W83510  44.295   7.867  14.960
22145W        W83511  22.039   0.307  10.944
22146W        W83512   7.755   5.818   3.348
22147W        W83513  16.619  19.603  12.022
22148W        W83514   5.404  13.318   3.338
22149W        W83515  35.545  28.567  12.541
22150W        W83516  36.052  34.016  11.036
22151W        W83517  38.570  28.490  11.546
22152W        W83518   9.393  40.371   0.818
22153W        W83519  16.695  18.565  12.508
22154W        W83520  12.267   4.865  14.946
22155W        W83521  14.622  10.652   0.328
22156W        W83522  20.667  39.448  10.889
22157W        W83523  42.813   4.913  12.546
22158W        W83524  43.453   1.334  11.381
22159W        W83525  44.496  41.935   0.803
22160W        W83526  37.849  18.069  12.014
22161W        W83527   6.883   1.355   3.759
22162W        W83528   7.722  41.936   3.657
22163W        W83529  13.331  42.368  13.976
22164W        W83530  24.514   4.385   1.314
22165W        W83531  27.672  14.201   2.732
22166W        W83532   8.831  39.461   1.399
22167W        W83533  42.306  13.706   0.336
22168W        W83534  20.764  18.186  14.286
22169W        W83535  10.332  39.958  12.950
22170W        W83536  20.668  37.396  14.827
22171W        W83537  15.127  33.103   2.821
22172W        W83538  36.882  37.401   3.315
22173W        W83539  14.320  27.136  13.000
22174W        W83540  17.087   3.457   1.256
22175W        W83541  15.222  38.510   4.778
22176W        W83542  44.454  14.235  13.503
22177W        W83543  24.708  30.953   5.223
22178W        W83544   5.824  44.391  12.400
22179W        W83545  16.605  30.949   4.634
22180W        W83546  32.064   7.912   2.752
22181W        W83547  43.788  28.571  13.547
22182W        W83548  35.538   9.346   3.747
22183W        W83549  35.511  10.644   2.234
22184W        W83550  39.369  17.659  10.907
22185W        W83551  13.784  43.269  10.489
22186W        W83552  41.910   1.945   9.935
22187W        W83553  25.519   5.766  11.466
22188W        W83554  22.156  35.920   0.807
22189W        W83555  43.473  15.641  12.904
22190W        W83556  12.738   3.743  12.902
22191W        W83557   9.316  11.673  13.364
22192W        W83558  13.630  38.068   2.777
22193W        W83559  24.490  15.767  11.425
22194W        W83560  19.664  29.018  14.830
22195W        W83561  44.438  30.424   1.746
22196W        W83562  23.505  27.015  14.921
22197W        W83563  30.638  23.724   1.328
22198W        W83564  18.584  21.091   3.327
22199W        W83565  15.247  15.318  11.877
22200W        W83566  22.140  14.641  11.859
22201W        W83567  37.373   3.244   5.093
22202W        W83568  44.276  39.996   4.631
22203W        W83569   4.702   6.389  13.540
22204W        W83570  23.497  35.434   0.870
22205W        W83571   8.247   5.840  14.440
22206W        W83572  25.520   8.386  11.023
22207W        W83573   3.844  25.186  11.507
22208W        W83574  35.882  19.182   2.237
22209W        W83575  18.247   1.865  13.829
22210W        W83576   7.376  25.601   2.750
22211W        W83577  12.713  34.086  10.054
22212W        W83578  44.481   9.386   2.876
22213W        W83579   6.679  21.123  14.406
22214W        W83580  37.484  14.240   0.376
22215W        W83581  36.882  13.287  11.482
22216W        W83582   7.846  20.167   2.213
22217W        W83583   5.799  30.940   4.127
22218W        W83584  17.666  14.651   0.424
22219W        W83585  22.687  27.636   3.853
22220W        W83586  33.470  23.095   4.142
22221W        W83587  37.365  37.036  11.094
22222W        W83588  26.178  26.029   1.749
22223W        W83589  23.098   0.949  13.924
22224W        W83590  25.565  29.501   2.405
22225W        W83591   6.378  11.758  14.006
22226W        W83592  32.005  13.283  14.947
22227W        W83593   7.666  43.413   0.805
22228W        W83594   6.428  37.526   4.642
22229W        W83595  43.787   8.679   0.820
22230W        W83596  31.982   9.678   1.310
22231W        W83597  19.268   5.316  13.819
22232W        W83598   0.898  22.222   4.141
22233W        W83599  18.577  18.291   2.755
22234W        W83600  18.293  27.029  13.429
22235W        W83601  20.195  13.721   4.737
22236W        W83602  14.271  34.942  14.878
22237W        W83603  18.555  38.373  12.350
22238W        W83604   7.678   9.788  14.318
22239W        W83605   8.333  31.513   4.179
22240W        W83606  22.557  31.901   5.283
22241W        W83607  35.089  43.976   4.604
22242W        W83608  25.660  34.555   0.929
22243W        W83609   4.781  20.184   3.842
22244W        W83610  24.657  25.663  10.554
22245W        W83611  24.632  43.303  13.038
22246W        W83612  18.102  23.678   3.727
22247W        W83613  39.062   4.702   4.713
22248W        W83614   9.338  41.422  10.114
22249W        W83615  38.928  25.539  10.485
22250W        W83616   6.245  29.668   0.819
22251W        W83617  41.975  28.938  10.127
22252W        W83618   2.787  22.732  14.953
22253W        W83619  29.085   3.718   4.792
22254W        W83620  16.616  23.080   3.325
22255W        W83621   8.681  31.970  13.537
22256W        W83622  18.777   4.751  10.013
22257W        W83623   4.912  40.888   3.691
22258W        W83624  18.269  21.689  13.348
22259W        W83625  27.456  31.946   5.283
22260W        W83626   0.467  11.362  12.376
22261W        W83627   6.312  21.142  12.055
22262W        W83628  40.319  43.886   2.343
22263W        W83629  44.861   3.400  13.974
22264W        W83630  32.534  33.573  13.381
22265W        W83631  12.851  34.900   2.731
22266W        W83632  40.346  21.022   0.793
22267W        W83633   5.240  41.817   2.409
22268W        W83634  12.623  40.992   1.885
22269W        W83635  22.238  16.283  11.585
22270W        W83636  26.634  41.940   0.343
22271W        W83637  34.583  12.219   4.129
22272W        W83638  36.581  10.821  12.435
22273W        W83639  33.888  10.723   1.334
22274W        W83640  44.389  37.845   2.669
22275W        W83641  20.196  37.980  11.492
22276W        W83642  12.722  13.679  11.541
22277W        W83643  30.589  36.435   4.709
22278W        W83644  26.582  18.732   0.877
22279W        W83645   5.354   3.837   1.325
22280W        W83646  22.051   8.191  12.460
22281W        W83647  31.450  30.440   3.798
22282W        W83648  41.299   9.230   0.351
22283W        W83649  31.015   2.269  13.368
22284W        W83650  23.228  20.634   4.827
22285W        W83651  41.339  30.433   1.403
22286W        W83652  30.159  25.704  12.563
22287W        W83653  27.132  29.083  14.816
22288W        W83654  17.199  22.252   2.369
22289W        W83655   5.379  17.578   1.781
22290W        W83656  10.827  29.622   1.917
22291W        W83657   3.292  11.208   1.439
22292W        W83658  17.794  44.327  11.420
22293W        W83659   8.864   9.684   0.358
22294W        W83660  43.840  11.206   3.324
22295W        W83661  25.198  40.040   4.733
22296W        W83662  16.079  42.331   3.342
22297W        W83663   9.385  39.961  10.986
22298W        W83664  39.479  25.058   0.452
22299W        W83665  15.174  24.679  14.791
22300W        W83666   9.255  35.924   4.162
22301W        W83667  33.541  35.046  13.337
22302W        W83668  18.289  31.590   0.748
22303W        W83669  24.541  41.884   2.889
22304W        W83670   6.417  18.565   3.198
22305W        W83671  27.581  14.311   0.795
22306W        W83672  42.317  21.234   0.347
22307W        W83673  23.562  35.426  14.842
22308W        W83674  11.754  16.281  11.415
22309W        W83675  14.231  22.030   1.442
22310W        W83676  15.136  39.808  12.869
22311W        W83677  18.560  21.142   3.836
22312W        W83678  21.716  21.164   3.258
22313W        W83679  16.194  10.217   1.777
22314W        W83680  21.024   1.912   3.663
22315W        W83681   2.873  28.629  13.019
22316W        W83682   2.764  30.475   2.189
22317W        W83683   3.805  40.468  13.863
22318W        W83684  37.460  44.882  12.420
22319W        W83685  41.296  32.464  10.592
22320W        W83686   3.396  31.438   1.417
22321W        W83687  43.281  20.523  11.498
22322W        W83688  44.436  34.596  10.545
22323W        W83689  21.144  42.945  11.073
22324W        W83690  17.198   5.876   2.765
22325W        W83691  30.422  22.614   4.266
22326W        W83692  40.493  35.593  14.423
22327W        W83693  16.141   5.885  11.049
22328W        W83694  44.312  11.181  10.462
22329W        W83695  21.188  44.352   2.212
22330W        W83696  24.556  12.166   1.406
22331W        W83697  17.204   7.193  10.629
22332W        W83698  36.048  35.550   2.187
22333W        W83699   0.409  42.823   0.366
22334W        W83700  32.119  21.099  11.607
22335W        W83701  36.903  42.821   3.844
22336W        W83702  29.483  13.178   0.739
22337W        W83703  35.996  18.718   2.719
22338W        W83704  23.729  34.449  14.937
22339W        W83705   5.251  32.921  11.874
22340W        W83706  43.943  22.101  11.386
22341W        W83707   1.377  41.809  13.902
22342W        W83708  35.516  44.946   3.768
22343W        W83709  28.545  30.129  14.927
22344W        W83710  41.001  19.737  11.888
22345W        W83711  31.491  35.580   4.296
22346W        W83712  27.566  33.040  10.470
22347W        W83713  17.264  31.134   0.332
22348W        W83714  27.472  16.293   2.245
22349W        W83715  15.140   1.833  12.095
22350W        W83716   0.809   0.444  14.463
22351W        W83717  35.578   0.274   3.169
22352W        W83718  36.900  42.013  10.958
22353W        W83719  11.243   3.437   3.848
22354W        W83720  21.129  29.933  13.801
22355W        W83721   4.805  21.560  11.110
22356W        W83722  19.668  12.617   0.441
22357W        W83723  28.508  43.837   1.367
22358W        W83724  17.298  34.465  10.460
22359W        W83725  36.563   6.344  14.871
22360W        W83726  15.593  44.319  10.912
22361W        W83727  30.414  41.957  12.405
22362W        W83728  36.086  24.691  13.545
22363W        W83729   8.203  37.582  14.793
22364W        W83730  42.486  14.602   4.230
22365W        W83731   6.231  18.069   2.770
22366W        W83732   3.949  30.484  14.288
22367W        W83733  41.442  14.209  12.999
22368W        W83734  36.937  26.033   0.356
22369W        W83735  24.981  24.985   0.800
22370W        W83736  19.057   8.311  10.909
22371W        W83737  19.730  14.620   0.916
22372W        W83738  29.430  19.682  11.399
22373W        W83739  27.028  43.431   4.663
22374W        W83740   1.845  22.517  14.866
22375W        W83741  33.616   5.393  13.905
22376W        W83742  31.075   6.254  10.550
22377W        W83743  38.970  28.986   4.309
22378W        W83744  39.964  22.056  14.413
22379W        W83745  26.590   0.274  11.530
22380W        W83746  38.865  25.554   0.263
22381W        W83747  26.021  21.639   4.821
22382W        W83748  21.205  36.028   2.665
22383W        W83749   9.709  36.988  10.428
22384W        W83750  25.512   2.824   2.841
22385W        W83751  14.593  24.149   0.261
22386W        W83752   2.455   3.864   2.277
22387W        W83753  12.305   1.832   4.637
22388W        W83754  17.288  34.092   3.342
22389W        W83755  25.195  32.531  10.595
22390W        W83756  40.033  30.567   1.826
22391W        W83757  24.542  11.792   1.845
22392W        W83758  11.749  11.850   0.857
22393W        W83759   3.423  42.023   2.318
22394W        W83760   0.479  25.709  13.831
22395W        W83761   4.213  36.045   4.131
22396W        W83762  42.025  18.211  13.504
22397W        W83763  30.451  27.544  13.029
22398W        W83764  31.504   0.272   1.253
22399W        W83765  24.539  16.097   1.814
22400W        W83766  38.462  10.657   1.814
22401W        W83767  39.964  20.082   2.753
22402W        W83768  32.585  25.504   4.331
22403W        W83769  43.404  31.134   1.232
22404W        W83770  37.039  34.963  11.536
22405W        W83771  25.968  38.562   4.757
22406W        W83772  40.498  35.046   1.913
22407W        W83773   5.211  36.389   2.735
22408W        W83774  14.286   0.379   1.904
22409W        W83775  15.329   8.707   3.224
22410W        W83776  41.988  39.961  11.590
22411W        W83777   8.317  21.047  14.999
22412W        W83778  11.313   0.920  14.840
22413W        W83779  23.527  40.039  12.824
22414W        W83780   4.902  11.235   4.775
22415W        W83781  32.432  12.208   2.863
22416W        W83782  19.638  31.910  14.999
22417W        W83783  43.874  22.100  12.516
22418W        W83784  40.008  24.697   2.714
22419W        W83785  30.557  35.600  11.550
22420W        W83786  17.256   6.249   3.366
22421W        W83787  28.459  33.482   3.773
22422W        W83788  33.966  22.074   9.928
22423W        W83789  27.062  18.547   1.935
22424W        W83790  44.362  28.998   1.245
22425W        W83791  17.099  36.407   3.244
22426W        W83792  43.880   6.713  10.914
22427W        W83793   3.827  35.906   0.381
22428W        W83794   7.365  38.551   3.343
22429W        W83795   1.447  18.150   4.327
22430W        W83796  13.348  12.623  14.424
22431W        W83797  21.081  37.480  13.493
22432W        W83798  23.096   8.783  12.379
22433W        W83799  38.979  19.693  12.845
22434W        W83800  26.635  44.911   1.715
22435W        W83801   5.868  41.872   1.853
22436W        W83802  43.289  42.315   0.370
22437W        W83803  30.935  15.216  10.407
22438W        W83804  21.676  33.513   5.733
22439W        W83805  25.215  43.466  10.576
22440W        W83806   9.674   7.680  10.599
22441W        W83807  42.887  32.109  12.520
22442W        W83808   5.874  40.538   2.898
22443W        W83809  31.925  44.349   1.285
22444W        W83810   6.707  43.515  10.969
22445W        W83811  40.321  12.322  14.017
22446W        W83812  22.549  32.113   4.233
22447W        W83813  22.633  30.498   4.161
22448W        W83814  27.625  35.972   3.257
22449W        W83815  24.600  26.197   4.126
22450W        W83816  44.811  28.644   1.768
22451W        W83817  37.519  30.657   0.361
22452W        W83818   6.325  28.621   0.799
22453W        W83819  16.744  32.544   9.590
22454W        W83820  31.429  31.408  11.044
22455W        W83821   3.403  10.143  12.564
22456W        W83822  21.216  14.735   0.770
22457W        W83823  16.654  20.065   3.353
22458W        W83824  28.672  13.226   1.888
22459W        W83825  29.932  36.436  14.771
22460W        W83826  27.183  37.865   1.799
22461W        W83827  36.576  37.381   2.209
22462W        W83828  16.795  29.617   3.720
22463W        W83829  41.849  24.082   3.196
22464W        W83830   1.906  11.672  14.306
22465W        W83831  35.901  37.574  12.051
22466W        W83832  30.599  32.442   0.966
22467W        W83833   7.304   4.249   1.820
22468W        W83834   1.292  42.969  12.066
22469W        W83835   8.794  32.025   4.796
22470W        W83836   7.674  20.542  12.389
22471W        W83837   5.846  37.518  12.031
22472W        W83838  35.064  32.611  10.445
22473W        W83839   0.965  38.056  13.479
22474W        W83840  27.490   6.839   4.701
22475W        W83841  14.693   3.371   3.322
22476W        W83842   4.908  42.874  14.917
22477W        W83843  31.065  37.038   0.385
22478W        W83844  23.024  22.707  11.416
22479W        W83845  43.991  22.636  13.917
22480W        W83846  43.322  31.116   3.376
22481W        W83847   5.407   9.296  11.891
22482W        W83848  18.251   2.878   4.659
22483W        W83849  41.815   4.765  11.912
22484W        W83850  33.443   7.717  14.924
22485W        W83851  26.071  14.704  12.094
22486W        W83852  43.953   1.364  10.973
22487W        W83853  13.135  18.585  11.589
22488W        W83854   2.723   2.323   4.294
22489W        W83855  26.001  13.324   0.255
22490W        W83856   7.748  34.466   4.335
22491W        W83857  26.080   5.299  14.338
22492W        W83858  14.747  20.153   0.306
22493W        W83859   0.310   9.665  11.557
22494W        W83860  36.843  29.434  13.410
22495W        W83861  44.494  17.659  12.950
22496W        W83862  28.089  27.489  14.762
22497W        W83863  33.878  14.775   0.362
22498W        W83864   9.764  23.669   4.213
22499W        W83865  43.910   5.820  12.960
22500W        W83866  16.634  44.907   1.323
22501W        W83867  16.113  38.895  11.045
22502W        W83868   8.719  42.401   1.905
22503W        W83869  17.754  12.303   3.695
22504W        W83870   0.961  34.947  11.019
22505W        W83871  13.125  39.869  14.892
22506W        W83872  20.600  33.556  10.918
22507W        W83873  13.339   9.214   1.437
22508W        W83874  38.876  24.159  13.945
22509W        W83875   8.333  22.049   3.354
22510W        W83876   6.857   7.717   2.753
22511W        W83877  14.322  24.550   0.423
22512W        W83878  29.092  36.914   1.265
22513W        W83879  32.975  26.587  14.925
22514W        W83880  14.221  12.695  11.953
22515W        W83881  11.237   6.261  10.895
22516W        W83882  13.151  18.214  13.418
22517W        W83883   5.893  30.457  13.854
22518W        W83884  33.032  37.376  12.087
22519W        W83885  37.446  26.023  12.426
22520W        W83886  26.601  14.284  14.759
22521W        W83887  35.997  31.482   1.746
22522W        W83888  21.629  27.101  13.376
22523W        W83889  36.046  19.628  11.885
22524W        W83890  36.539   4.867  14.350
22525W        W83891  14.203   9.734   4.662
22526W        W83892  12.248   4.701  10.519
22527W        W83893   1.384  11.256   2.713
22528W        W83894   8.874   8.824   3.366
22529W        W83895  33.497  21.588   1.842
22530W        W83896  11.348  38.495  12.575
22531W        W83897   2.411  31.566   0.922
22532W        W83898  42.902  16.569   4.259
22533W        W83899  44.426  20.226   3.339
22534W        W83900  28.092  35.580  13.013
22535W        W83901  38.914  32.519  14.018
22536W        W83902   4.754  43.482   4.791
22537W        W83903   8.717  28.594   0.311
22538W        W83904   0.911  14.759   0.382
22539W        W83905  14.290   1.317  12.392
22540W        W83906  18.065   5.267  11.059
22541W        W83907  14.741  10.163  10.915
22542W        W83908  24.650  44.980  10.456
22543W        W83909  14.781   8.898  13.997
22544W        W83910  44.792  29.971  10.488
22545W        W83911  43.376  17.069  10.974
22546W        W83912  20.747  32.588   2.364
22547W        W83913  35.432  28.988   0.749
22548W        W83914   4.815  25.207   3.167
22549W        W83915  18.125  39.828  12.033
22550W        W83916   1.953  31.951   4.743
22551W        W83917  38.044  29.562  11.605
22552W        W83918  20.637  27.687  12.874
22553W        W83919  26.571   9.672  10.411
22554W        W83920  18.550  40.304   4.353
22555W        W83921  10.200  40.396  10.437
22556W        W83922  17.721  33.049  13.517
22557W        W83923   8.804  20.094  12.424
22558W        W83924  22.723  25.048  13.332
22559W        W83925  23.105   7.869  14.321
22560W        W83926  18.545  19.263   0.398
22561W        W83927  30.929   3.728  12.877
22562W        W83928  35.522  31.574   4.796
22563W        W83929  21.184   4.760   3.291
22564W        W83930  10.674  34.084   3.859
22565W        W83931  31.638  38.045   3.827
22566W        W83932  12.618  39.397   3.358
22567W        W83933  44.963  24.162   2.772
22568W        W83934  33.064  41.889  12.029
22569W        W83935   4.816  12.699   1.228
22570W        W83936  43.868  41.301  14.794
22571W        W83937  39.411   1.402  12.947
22572W        W83938  43.435   6.783  12.522
22573W        W83939  26.196   1.835   4.786
22574W        W83940  13.183  29.619  12.045
22575W        W83941  36.018  34.555   1.802
22576W        W83942  20.211  41.929  14.991
22577W        W83943   4.904   3.313   3.223
22578W        W83944   3.409   9.320   2.893
22579W        W83945  21.531  14.231  14.338
22580W        W83946  44.797  14.182   2.808
22581W        W83947  15.126  20.720   0.302
22582W        W83948  33.929  41.815   0.743
22583W        W83949  14.159  18.235   3.372
22584W        W83950  34.891   8.754  13.794
22585W        W83951  26.694  23.158  14.392
22586W        W83952  43.952   5.841   3.818
22587W        W83953  24.175  37.989  11.378
22588W        W83954  36.503   9.721   1.848
22589W        W83955  26.997  25.559  12.908
22590W        W83956   7.345  15.816   3.725
22591W        W83957  44.412  37.445  12.993
22592W        W83958  44.310  24.668  14.842
22593W        W83959  43.014  42.008  12.991
22594W        W83960  10.141  10.324   1.254
22595W        W83961  25.620  22.597  13.883
22596W        W83962  40.391  20.582  10.469
22597W        W83963   9.186   3.287   3.665
22598W        W83964   4.782   4.342   2.325
22599W        W83965  19.572  42.893   0.738
22600W        W83966  20.759  34.603   0.481
22601W        W83967  16.796   5.910  10.519
22602W        W83968  41.294  21.080  13.930
22603W        W83969   2.357  13.663  10.640
22604W        W83970  19.085  44.813   2.384
22605W        W83971  20.531   9.389   2.897
22606W        W83972  20.616   4.316   2.801
22607W        W83973  16.785  36.966  14.002
22608W        W83974   0.248   9.736  13.479
22609W        W83975  27.509   0.924   2.807
22610W        W83976  38.488  44.440   0.448
22611W        W83977   6.269  30.442  12.090
22612W        W83978  35.932  23.987  11.010
22613W        W83979  17.583  29.003   4.233
22614W        W83980  24.537  30.439   9.927
22615W        W83981   2.848  41.958   0.942
22616W        W83982  26.650  15.130  12.076
22617W        W83983  31.421  39.336  14.414
22618W        W83984   2.396  28.148   3.273
22619W        W83985  33.620  44.446  11.949
22620W        W83986   8.853  40.879   3.837
22621W        W83987  20.631  23.714  10.587
22622W        W83988  17.769  41.533   3.297
22623W        W83989  34.479  17.716  12.344
22624W        W83990   0.361  22.571   3.681
22625W        W83991  37.507  27.193   1.850
22626W        W83992  37.016  43.991  10.424
22627W        W83993  41.019  15.650   4.232
22628W        W83994   1.748  11.133   2.731
22629W        W83995   9.858  15.697   2.826
22630W        W83996   8.324  20.568  10.589
22631W        W83997  28.983  15.317   4.215
22632W        W83998  39.819   3.733  12.451
22633W        W83999  14.624  12.698   4.157
22634W        W84000  42.826   0.754  14.318
22635W        W84001  32.030   3.388   1.762
22636W        W84002   0.423  27.486  13.906
22637W        W84003   6.264  43.379   0.284
22638W        W84004  41.979  24.525  14.020
22639W        W84005  41.532   2.345  11.014
22640W        W84006  16.630  33.520  13.814
22641W        W84007  29.167  43.865   2.830
22642W        W84008  40.025   8.333   1.737
22643W        W84009  39.841  31.092   3.761
22644W        W84010  23.193   6.274  12.889
22645W        W84011  12.170  21.038   0.369
22646W        W84012   7.699  42.428   0.869
22647W        W84013   1.426  44.831  10.580
22648W        W84014  21.022  13.210  12.902
22649W        W84015   2.472  24.153  10.572
22650W        W84016   6.187  38.861   3.234
22651W        W84017  35.483   0.816   4.828
22652W        W84018  30.954   2.865  11.927
22653W        W84019   4.859  11.828  14.486
22654W        W84020  44.280  31.431   1.908
22655W        W84021  17.685  24.662   2.789
22656W        W84022  10.639  40.873   4.815
22657W        W84023  39.919  32.608   2.849
22658W        W84024  11.724  23.607  14.393
22659W        W84025  32.079  37.026  12.498
22660W        W84026   9.252  31.579  13.053
22661W        W84027  26.467  30.475   9.978
22662W        W84028  18.097  43.441   3.636
22663W        W84029  27.974  11.813   4.779
22664W        W84030  20.088  16.755   2.863
22665W        W84031   0.394  14.717  12.088
22666W        W84032   4.722  35.927  11.903
22667W        W84033  25.679  41.463   3.636
22668W        W84034  15.633   3.453   3.176
22669W        W84035  22.505  31.111  12.085
22670W        W84036  34.371   7.287  12.556
22671W        W84037  38.934  43.360   4.676
22672W        W84038  42.949  34.899  10.894
22673W        W84039  21.617   3.323  12.944
22674W        W84040  21.167  38.524   2.886
22675W        W84041  24.525  14.713   4.685
22676W        W84042  35.497  11.251  13.006
22677W        W84043  30.453  31.454  13.484
22678W        W84044  18.709  13.213   0.754
22679W        W84045  28.987  30.052   0.385
22680W        W84046  26.078  17.275   0.890
22681W        W84047  43.000   2.429  14.776
22682W        W84048   7.210  15.121  13.951
22683W        W84049  12.704  37.832  13.415
22684W        W84050  19.683  42.447  14.291
22685W        W84051  28.456  35.026  11.087
22686W        W84052   0.459  20.617  12.061
22687W        W84053   8.229   6.836  12.416
22688W        W84054  33.392  15.698  11.965
22689W        W84055   4.921   1.354   4.694
22690W        W84056  44.790  40.863   3.309
22691W        W84057  22.540   8.760  14.475
22692W        W84058   0.766  35.543  14.984
22693W        W84059   5.200  17.223   2.372
22694W        W84060  23.144  13.817   1.776
22695W        W84061  38.836  10.699  14.782
22696W        W84062  29.468  40.388  12.366
22697W        W84063  36.405  10.654   3.369
22698W        W84064  15.614  18.649   0.295
22699W        W84065   1.466  13.157   3.297
22700W        W84066  14.715  41.397  14.422
22701W        W84067  30.010  26.965   3.165
22702W        W84068  18.164  13.815   2.189
22703W        W84069  25.082   0.362   1.411
22704W        W84070  19.227  38.052   2.277
22705W        W84071  10.239  37.846   2.341
22706W        W84072  38.887  27.011   1.219
22707W        W84073   8.748   7.892   3.770
22708W        W84074  24.643   7.898   1.776
22709W        W84075   3.247  12.682  13.511
22710W        W84076  37.050  24.696  14.869
22711W        W84077  25.688   3.921   0.275
22712W        W84078  13.266  18.637   5.193
22713W        W84079  17.088  19.215  11.073
22714W        W84080  24.004   4.263   3.248
22715W        W84081  36.964  32.137   1.451
22716W        W84082  11.370  18.221   4.292
22717W        W84083  33.018  13.653  14.467
22718W        W84084   3.712   7.739   1.378
22719W        W84085  13.273  37.910   2.269
22720W        W84086  33.063  35.943   0.396
22721W        W84087   8.686   8.798  13.856
22722W        W84088   5.863  33.567   2.700
22723W        W84089   4.294  24.227   4.176
22724W        W84090  29.083  31.465  12.947
22725W        W84091  15.120  44.875   2.715
22726W        W84092  43.434  40.847   4.340
22727W        W84093  13.240   8.384  10.594
22728W        W84094  31.951  41.434   5.694
22729W        W84095  44.965   1.403  10.985
22730W        W84096  26.632   2.962  13.908
22731W        W84097  15.671  20.245  11.400
22732W        W84098  39.004  19.090  13.824
22733W        W84099  37.505   6.791  14.018
22734W        W84100  40.506  31.648  13.435
22735W        W84101  44.820  41.347  11.949
22736W        W84102  33.038  19.223   4.634
22737W        W84103  25.564  36.385  13.410
22738W        W84104   6.766  33.064   0.257
22739W        W84105  39.495  31.979  13.978
22740W        W84106   5.302  19.711   2.223
22741W        W84107  19.263  44.848   4.337
22742W        W84108   8.715  10.207   1.414
22743W        W84109  36.964  17.740  12.461
22744W        W84110  29.941  14.132  12.044
22745W        W84111  27.628  30.466   9.997
22746W        W84112  11.147  33.016  12.905
22747W        W84113  39.398  13.716  11.587
22748W        W84114  36.499  12.356  14.486
22749W        W84115  33.601  21.095   3.235
22750W        W84116  11.691  35.587   2.712
22751W        W84117   2.793   2.283  11.593
22752W        W84118  16.146  39.494  10.464
22753W        W84119  15.196   7.885   3.815
22754W        W84120  36.089  31.984   1.443
22755W        W84121  43.935  28.526   3.367
22756W        W84122  21.645  20.258   3.797
22757W        W84123  39.525  15.303   2.668
22758W        W84124  19.057  16.210   2.810
22759W        W84125   9.395  17.104  10.515
22760W        W84126  14.179   5.332   2.830
22761W        W84127  42.822  19.589   4.780
22762W        W84128   3.425  39.851  10.549
22763W        W84129  29.662   0.755   3.373
22764W        W84130  44.908   0.920   0.428
22765W        W84131  29.597  35.570  14.810
22766W        W84132  12.731  23.210   1.342
22767W        W84133  26.038  33.466   2.396
22768W        W84134  28.554  12.801  11.494
22769W        W84135  42.346  32.126   0.772
22770W        W84136  37.885   5.363   0.762
22771W        W84137   0.476  18.777   4.163
22772W        W84138  25.655  18.235   2.699
22773W        W84139  21.552   6.691   1.933
22774W        W84140  37.349  37.027   2.745
22775W        W84141   9.672  40.934  12.503
22776W        W84142  37.011  25.965  12.474
22777W        W84143  23.619  11.797  14.482
22778W        W84144  15.595  40.476   4.290
22779W        W84145  20.254  35.369   4.704
22780W        W84146  29.597  11.627  14.495
22781W        W84147  15.115  43.891  10.605
22782W        W84148  29.555  15.669   3.689
22783W        W84149   3.367  15.083  10.548
22784W        W84150  39.892   2.913  14.408
22785W        W84151   4.225  40.347  14.916
22786W        W84152  18.122  16.742  13.975
22787W        W84153  39.837  31.140  14.775
22788W        W84154   2.455  32.897   4.702
22789W        W84155  14.739   4.725   0.788
22790W        W84156  15.762  16.267  12.875
22791W        W84157   9.180  30.611  12.452
22792W        W84158   1.275  36.993  11.071
22793W        W84159  31.024  10.784  10.600
22794W        W84160  44.917  26.679   0.886
22795W        W84161   1.402  38.025  10.899
22796W        W84162  15.711  19.239   4.629
22797W        W84163  37.008   8.721  13.333
22798W        W84164  15.758  15.741  13.864
22799W        W84165  24.098  20.738  14.764
22800W        W84166   3.890  20.075   1.263
22801W        W84167  11.741  38.064   3.346
22802W        W84168  27.516  32.927  12.845
22803W        W84169  40.433  18.704  10.971
22804W        W84170  44.286   8.821  12.029
22805W        W84171  32.605   6.385   0.312
22806W        W84172  18.061  34.411  12.525
22807W        W84173  26.163  18.546   2.399
22808W        W84174   6.206  31.037   0.775
22809W        W84175  13.840  22.647  14.819
22810W        W84176  19.157   7.680  11.372
22811W        W84177  27.172  31.910  13.436
22812W        W84178  13.110   0.792  12.340
22813W        W84179  17.791  18.604  12.868
22814W        W84180  28.083  37.347  14.892
22815W        W84181  35.520  13.810  14.350
22816W        W84182   5.700  38.510   1.438
22817W        W84183  38.048  38.820   1.805
22818W        W84184  22.141  40.004  14.370
22819W        W84185   0.864  10.651  10.517
22820W        W84186  33.477  39.425  12.933
22821W        W84187  23.643  14.210  14.323
22822W        W84188  10.282  28.142  12.998
22823W        W84189  35.602  29.009  11.995
22824W        W84190  12.294  44.261  13.408
22825W        W84191  26.067   0.326   0.388
22826W        W84192   5.774  41.793   0.884
22827W        W84193  19.074   5.819  14.975
22828W        W84194  26.985  41.896  13.058
22829W        W84195  37.922   2.878  11.417
22830W        W84196   7.756  16.665   0.838
22831W        W84197  15.644   3.384   0.844
22832W        W84198  10.327  21.584  13.835
22833W        W84199   4.421  28.065   3.275
22834W        W84200  10.221  41.989   4.271
22835W        W84201  14.750  10.302  10.139
22836W        W84202  19.625  34.461  10.007
22837W        W84203   1.467  17.598  14.280
22838W        W84204  21.248  37.079  10.062
22839W        W84205   6.686  31.120   0.308
22840W        W84206  29.483  32.470   3.713
22841W        W84207  34.470  12.796   1.856
22842W        W84208  29.572  23.520  10.938
22843W        W84209  35.040  42.962   2.898
22844W        W84210  34.505   6.709  10.625
22845W        W84211  31.430  38.829  11.562
22846W        W84212  21.578  21.042  13.472
22847W        W84213  12.190  35.575   2.826
22848W        W84214   9.821  39.429  10.539
22849W        W84215  27.028  14.188   4.142
22850W        W84216  18.100   0.362  11.054
22851W        W84217  17.089   7.910  13.390
22852W        W84218  23.717   0.412  11.890
22853W        W84219   1.911  37.461   4.217
22854W        W84220  25.650  20.734  12.467
22855W        W84221  43.774   3.215   2.827
22856W        W84222  38.921  43.296   0.413
22857W        W84223  39.470   4.313  14.328
22858W        W84224   4.797  37.053   5.276
22859W        W84225   7.678   5.304   4.721
22860W        W84226   8.886  11.201  14.801
22861W        W84227  18.676  40.958  11.400
22862W        W84228   9.256  41.476   4.137
22863W        W84229  42.446  29.948   1.247
22864W        W84230  33.543   0.493  12.427
22865W        W84231  26.540  37.480  10.099
22866W        W84232  24.229  34.422   5.209
22867W        W84233   0.747  15.131   1.816
22868W        W84234  15.151  17.154  14.484
22869W        W84235   7.683   9.277  11.106
22870W        W84236  15.695  31.518   3.299
22871W        W84237  31.587  43.991  14.462
22872W        W84238  10.742  13.613  14.383
22873W        W84239   0.882  19.218  14.395
22874W        W84240  22.560   8.270  10.000
22875W        W84241  27.129  13.122  11.574
22876W        W84242  35.982   3.362   4.771
22877W        W84243  41.983  24.643   4.616
22878W        W84244  26.483  23.202  10.575
22879W        W84245  24.585  12.641  12.863
22880W        W84246  16.150  31.550  14.931
22881W        W84247  32.958  18.055   0.414
22882W        W84248  22.531  37.974  10.973
22883W        W84249  12.344  18.551  11.582
22884W        W84250  39.878  35.918   0.391
22885W        W84251  17.686  10.328   4.241
22886W        W84252   8.348  42.879   0.885
22887W        W84253   5.301  44.922  11.486
22888W        W84254  25.676  29.092   1.451
22889W        W84255   0.782   2.276   3.350
22890W        W84256  10.261   9.161  10.524
22891W        W84257   2.871  42.380  14.327
22892W        W84258  37.036  20.762  13.929
22893W        W84259  12.348  40.827   3.686
22894W        W84260  26.128  37.402   2.191
22895W        W84261  41.515  15.754   0.834
22896W        W84262  29.003  26.022   0.941
22897W        W84263  17.799  10.828  12.848
22898W        W84264  42.509   3.792  10.603
22899W        W84265  12.680  40.833  13.347
22900W        W84266  15.762  15.089  12.366
22901W        W84267   4.818  35.404   1.242
22902W        W84268  11.846  22.578   1.321
22903W        W84269  31.460  12.851  13.035
22904W        W84270  10.346  28.532   5.280
22905W        W84271  27.486  18.600   3.712
22906W        W84272  15.094   7.871  11.074
22907W        W84273   7.242   4.314  12.531
22908W        W84274  28.435   3.859   1.271
22909W        W84275  28.098  11.232  14.401
22910W        W84276   8.863  27.600   3.647
22911W        W84277  13.656  29.627   3.754
22912W        W84278   8.733  17.277  12.991
22913W        W84279  18.265  42.355  13.509
22914W        W84280   0.416  18.197   4.787
22915W        W84281   9.264  34.606   3.770
22916W        W84282   2.410  17.704  11.508
22917W        W84283  35.505  37.336   0.947
22918W        W84284   3.370   1.827   0.868
22919W        W84285  42.938  25.041   4.716
22920W        W84286  18.284  38.428   3.795
22921W        W84287  24.639   2.815   1.288
22922W        W84288  21.629  33.938   3.184
22923W        W84289  40.919  18.136  12.852
22924W        W84290  33.129   9.262  13.503
22925W        W84291  20.755  21.712   1.448
22926W        W84292  36.405  14.729  13.035
22927W        W84293  36.872  37.474   2.771
22928W        W84294   9.279  34.870  14.299
22929W        W84295   0.911  11.694   2.765
22930W        W84296  12.213  16.260  10.575
22931W        W84297  41.866  37.385  14.487
22932W        W84298  22.576  31.522   3.755
22933W        W84299  15.618  26.518   0.844
22934W        W84300  31.047   0.481   3.231
22935W        W84301   4.823  11.241   0.277
22936W        W84302   0.846  31.997   2.681
22937W        W84303  21.193   0.430  14.337
22938W        W84304  42.977  42.414   4.208
22939W        W84305   3.355  31.083   4.295
22940W        W84306  13.157  38.331  11.121
22941W        W84307  16.118   2.332   2.752
22942W        W84308   2.856   4.306   3.251
22943W        W84309  33.907   1.904   0.841
22944W        W84310   8.345  40.481   3.156
22945W        W84311  11.340  29.645  13.355
22946W        W84312  37.981  15.683  11.055
22947W        W84313  30.113  30.939  11.103
22948W        W84314  31.500  12.323   0.812
22949W        W84315  43.960   0.943  10.618
22950W        W84316  23.112  44.485  10.084
22951W        W84317  30.521  30.003   1.267
22952W        W84318  44.941  33.597   4.766
22953W        W84319  18.575  29.669   1.294
22954W        W84320  24.531  19.229  13.349
22955W        W84321  20.066  18.231   1.725
22956W        W84322   4.431   9.798  12.005
22957W        W84323  42.958  40.408   4.183
22958W        W84324  34.422  39.009  11.606
22959W        W84325  44.979  22.664   2.703
22960W        W84326  33.891  24.506   0.806
22961W        W84327  29.983  37.527   0.764
22962W        W84328   8.858  18.111  14.972
22963W        W84329  15.141  16.154  12.022
22964W        W84330   7.669   8.404  11.421
22965W        W84331  30.068  27.192  13.470
22966W        W84332   4.293  21.642   1.747
22967W        W84333   3.874  17.709  10.446
22968W        W84334  36.006  21.748  11.096
22969W        W84335  37.474  40.368  11.509
22970W        W84336  44.819  42.367  14.841
22971W        W84337  21.708   1.846  14.939
22972W        W84338  43.857   7.872  14.474
22973W        W84339  23.722  11.134   2.294
22974W        W84340  32.580  37.079   1.446
22975W        W84341  43.440  32.524  12.375
22976W        W84342  14.653  10.733  10.416
22977W        W84343   6.249  38.918   2.218
22978W        W84344  39.933  10.378  11.015
22979W        W84345   9.702  43.380   1.243
22980W        W84346  36.572  42.934   5.231
22981W        W84347  14.820  14.780  11.907
22982W        W84348  11.811  39.875   3.288
22983W        W84349  34.439   3.829  12.888
22984W        W84350  38.352  29.626   0.957
22985W        W84351  25.573  32.513  10.962
22986W        W84352  14.693  23.587  11.554
22987W        W84353  21.200   2.420  13.520
22988W        W84354  13.251  35.935  11.414
22989W        W84355  33.878  26.083   3.310
22990W        W84356  27.084  16.155  11.393
22991W        W84357  22.117  29.477  12.343
22992W        W84358  41.907  38.934   5.084
22993W        W84359   3.834  29.472   2.793
22994W        W84360  18.634  14.185  12.345
22995W        W84361  13.836  21.193  12.533
22996W        W84362  21.085  10.669  12.823
22997W        W84363  13.247  20.633   4.641
22998W        W84364  34.417  35.567  14.990
22999W        W84365   6.232  17.749   1.214
23000W        W84366  28.180  40.054   4.143
23001W        W84367  17.750  18.256   3.199
23002W        W84368   9.857  28.505   3.158
23003W        W84369   9.347  15.615   9.923
23004W        W84370  11.143  32.915  10.054
23005W        W84371   8.245  23.549  13.025
23006W        W84372   1.744  42.904   1.832
23007W        W84373   7.287  43.893  12.856
23008W        W84374   9.793  31.564  13.915
23009W        W84375  26.690  16.085   0.755
23010W        W84376  23.022   3.952  14.506
23011W        W84377  42.396  40.858  13.870
23012W        W84378  18.147  22.620  13.959
23013W        W84379  41.517  15.197  14.293
23014W        W84380  41.022  43.921   1.901
23015W        W84381  42.423  27.050   0.803
23016W        W84382  21.097  15.783  13.349
23017W        W84383   3.415  21.154  11.096
23018W        W84384  44.852  18.096  14.430
23019W        W84385  30.418   3.399   1.411
23020W        W84386  36.474  23.176   0.790
23021W        W84387  44.300  29.596   1.823
23022W        W84388   7.817  31.900   0.844
23023W        W84389   8.891  44.447  13.890
23024W        W84390  38.013  10.870  11.449
23025W        W84391  16.276  28.164   3.333
23026W        W84392  44.421  23.122  13.387
23027W        W84393  28.568  43.305   0.338
23028W        W84394   5.227  28.547   0.730
23029W        W84395  21.201   7.241   3.710
23030W        W84396  23.591  23.581   4.317
23031W        W84397  31.441  26.472  12.403
23032W        W84398  42.284  10.191   4.349
23033W        W84399  33.448  31.904  10.527
23034W        W84400  11.818   9.729  13.869
23035W        W84401  17.585  32.128  14.897
23036W        W84402  14.239  25.011  13.363
23037W        W84403  37.014  37.882  11.039
23038W        W84404  41.879   4.893  12.542
23039W        W84405  10.324  25.031   1.362
23040W        W84406   1.334   8.767  14.310
23041W        W84407  20.044   1.967  10.535
23042W        W84408  36.466  20.186  11.960
23043W        W84409  25.974  27.182   1.386
23044W        W84410   6.424  37.467   5.288
23045W        W84411   2.918  26.617   1.380
23046W        W84412  19.086  27.640  11.122
23047W        W84413  15.112  21.689   0.833
23048W        W84414   5.864  11.337  11.865
23049W        W84415  23.656  41.919  11.958
23050W        W84416  44.785  23.085   4.789
23051W        W84417  16.113  38.008  13.892
23052W        W84418  32.898   4.377  11.949
23053W        W84419   8.872  43.852  11.540
23054W        W84420   7.413  34.562   1.785
23055W        W84421  14.101  31.603  14.455
23056W        W84422  22.144  19.228   1.277
23057W        W84423  23.588   6.714  14.379
23058W        W84424  29.128  36.592   3.862
23059W        W84425  32.392  25.580   0.416
23060W        W84426  13.671  14.182   5.273
23061W        W84427  43.803   7.897   2.772
23062W        W84428  39.532   2.299  14.862
23063W        W84429  38.517   6.310  11.579
23064W        W84430   8.303   6.341   4.757
23065W        W84431  25.056  31.019  14.492
23066W        W84432   2.935  13.615   0.339
23067W        W84433  29.168  25.520   0.361
23068W        W84434   8.165  10.309  12.416
23069W        W84435  37.399  27.070   2.413
23070W        W84436  26.600  38.873  13.313
23071W        W84437   1.452  31.449   1.827
23072W        W84438  32.970  16.762  11.110
23073W        W84439  43.931  30.120  12.094
23074W        W84440  20.639   3.877  11.442
23075W        W84441   9.773  31.559   0.336
23076W        W84442   7.898   2.429   1.858
23077W        W84443  21.156  20.628  11.474
23078W        W84444  30.522  29.983   2.890
23079W        W84445  39.951  38.043  14.958
23080W        W84446  33.430  20.135   2.350
23081W        W84447  15.599  39.817  10.947
23082W        W84448  34.437   5.747   4.673
23083W        W84449  10.727  10.649   4.258
23084W        W84450  19.134  18.159  12.856
23085W        W84451   6.371  12.641   2.683
23086W        W84452   0.378  26.569  13.308
23087W        W84453  35.985  39.980   0.906
23088W        W84454  35.970  10.345   3.314
23089W        W84455  41.952  37.381  12.887
23090W        W84456  41.878   3.908   4.809
23091W        W84457  17.658  40.028  11.551
23092W        W84458  42.822  13.831  11.925
23093W        W84459  32.944  15.676   2.417
23094W        W84460   9.688  10.384   1.704
23095W        W84461   9.344  24.059   2.841
23096W        W84462   4.212  26.566   2.244
23097W        W84463  42.867  30.069  11.382
23098W        W84464  38.428  41.817   2.833
23099W        W84465  28.542  13.647  12.579
23100W        W84466  37.563  39.857   4.118
23101W        W84467  36.080  23.232  11.018
23102W        W84468  31.451  21.625   3.238
23103W        W84469  20.128  16.283   4.232
23104W        W84470   8.664   7.832   2.802
23105W        W84471  34.493  38.484  14.983
23106W        W84472  23.577  19.143  14.455
23107W        W84473   5.436  34.068  13.994
23108W        W84474  31.606  44.784   2.881
23109W        W84475  28.002  21.513  11.059
23110W        W84476  20.180  44.791   4.272
23111W        W84477  35.398  22.070   1.805
23112W        W84478  44.474  42.987  11.383
23113W        W84479  24.631  24.495  14.506
23114W        W84480  14.280  36.054  10.632
23115W        W84481  32.015  34.492  12.516
23116W        W84482  19.584  16.184   2.722
23117W        W84483  33.880  21.252   3.210
23118W        W84484   7.372  37.476  12.351
23119W        W84485  14.134  25.101   0.385
23120W        W84486  12.695   9.745   2.187
23121W        W84487  33.442  28.035   3.338
23122W        W84488   3.781   9.684  12.831
23123W        W84489  44.362   3.324  10.435
23124W        W84490  13.253  29.970  12.352
23125W        W84491   8.865   5.824   3.698
23126W        W84492  26.596  34.417   0.324
23127W        W84493  29.508   5.784  13.917
23128W        W84494  29.047   2.854  14.888
23129W        W84495  30.985   1.799  11.547
23130W        W84496  20.176  40.428   0.854
23131W        W84497  37.918  26.209  11.993
23132W        W84498  29.486  27.954   3.723
23133W        W84499  30.423  31.962   4.793
23134W        W84500  17.249   8.860  13.514
23135W        W84501   4.883  30.038  14.447
23136W        W84502  21.197  41.384   0.342
23137W        W84503  10.667  36.359  11.426
23138W        W84504  26.011  27.472  14.355
23139W        W84505  21.202   2.827   4.216
23140W        W84506  23.150  16.215  14.817
23141W        W84507  36.355  11.721  11.458
23142W        W84508  43.445  44.843  11.966
23143W        W84509  43.424   9.870  14.497
23144W        W84510  40.867  29.985  12.388
23145W        W84511  43.280  32.134   3.662
23146W        W84512  16.113  39.883   3.858
23147W        W84513  26.546  32.979  14.893
23148W        W84514  13.646  23.542  14.822
23149W        W84515  43.821  27.076   0.364
23150W        W84516  17.721  32.474  10.946
23151W        W84517  15.296  38.840  12.476
23152W        W84518   6.867  40.455  14.431
23153W        W84519  38.869  26.604   3.188
23154W        W84520  26.579   4.218  14.788
23155W        W84521  25.561  37.846  13.037
23156W        W84522  42.934  39.400   4.649
23157W        W84523  30.415   1.751   4.221
23158W        W84524   4.922  29.976  11.023
23159W        W84525   4.872  19.757   0.950
23160W        W84526  43.444   3.839  13.402
23161W        W84527  13.178  26.520   0.780
23162W        W84528  37.539  39.405  14.896
23163W        W84529  34.053  32.595   1.721
23164W        W84530  14.263  15.178   2.245
23165W        W84531  35.561  27.194   0.427
23166W        W84532   6.714  40.436  13.006
23167W        W84533  20.650   7.231   1.215
23168W        W84534  12.724   9.705  13.061
23169W        W84535  19.200  35.552   1.870
23170W        W84536  37.984  12.782  11.443
23171W        W84537  39.947  31.502  12.876
23172W        W84538   0.436  11.240  12.956
23173W        W84539   3.419  19.733  13.329
23174W        W84540   0.867  11.346   4.710
23175W        W84541  29.013   8.224   4.766
23176W        W84542  36.909  33.585  10.470
23177W        W84543  38.986   8.214  12.942
23178W        W84544   5.331  10.291   0.291
23179W        W84545  30.997  20.641   5.124
23180W        W84546  25.532  37.432   3.762
23181W        W84547  35.066  17.596  14.829
23182W        W84548  18.781  19.189   3.765
23183W        W84549  35.940  40.812  13.866
23184W        W84550  41.973  17.653  12.058
23185W        W84551  15.771  35.386  13.534
23186W        W84552  34.942  44.411  10.431
23187W        W84553  24.617  22.738  13.999
23188W        W84554  27.152  12.213   3.289
23189W        W84555  38.515  39.390  12.066
23190W        W84556   8.329  16.606  11.080
23191W        W84557  25.474  37.376   1.405
23192W        W84558  10.767  19.681  14.454
23193W        W84559  40.829  30.157   4.276
23194W        W84560   6.730  33.878  12.366
23195W        W84561   8.818  32.436   0.883
23196W        W84562  13.140   3.333  12.084
23197W        W84563  29.941  10.778   1.340
23198W        W84564  32.616   8.787  13.437
23199W        W84565  23.728  27.682  11.582
23200W        W84566   0.317  27.521  14.994
23201W        W84567  20.040  40.308  13.971
23202W        W84568  34.882  37.068  11.040
23203W        W84569  14.144   5.308  12.007
23204W        W84570  26.484  29.058  12.950
23205W        W84571  32.559  33.072  10.605
23206W        W84572  14.097  39.354  12.952
23207W        W84573  12.120  31.897  11.061
23208W        W84574   0.415  40.947  14.449
23209W        W84575  13.756  32.046   0.422
23210W        W84576  21.144  27.983  10.977
23211W        W84577  33.398  23.587  11.073
23212W        W84578  16.099  12.298  14.876
23213W        W84579  26.053  27.191  12.919
23214W        W84580  28.614   6.192  11.933
23215W        W84581  22.221  20.255  13.472
23216W        W84582  40.318  12.713   4.123
23217W        W84583  15.776  23.545  14.500
23218W        W84584  11.189  34.965   1.306
23219W        W84585   7.714  38.963   2.188
23220W        W84586  13.714   2.250   0.765
23221W        W84587  12.657   1.368   1.902
23222W        W84588   9.254  10.278  12.410
23223W        W84589   9.247  36.892   0.260
23224W        W84590  21.226  14.316   3.752
23225W        W84591   4.413  15.608   3.786
23226W        W84592  25.037   7.181   4.803
23227W        W84593  13.632   8.657  14.979
23228W        W84594   2.286  31.054  10.939
23229W        W84595   6.320  13.600  12.017
23230W        W84596   2.464   6.749   2.396
23231W        W84597  17.176  35.888  10.617
23232W        W84598  20.233  24.532   1.251
23233W        W84599  35.890  35.367   3.756
23234W        W84600  30.589  29.519   1.886
23235W        W84601  18.639  31.090   0.909
23236W        W84602  33.942  11.300  12.895
23237W        W84603  42.002  20.633   0.880
23238W        W84604  37.074  16.288  14.030
23239W        W84605  37.541  41.017  13.442
23240W        W84606  38.481  16.231  11.882
23241W        W84607  13.303   1.760  11.394
23242W        W84608  11.331  37.367   4.205
23243W        W84609  40.322   2.913  13.508
23244W        W84610  21.637  36.395   0.856
23245W        W84611   4.286  15.640  12.034
23246W        W84612  25.193  10.871  12.402
23247W        W84613  16.762   3.745  12.419
23248W        W84614  44.479  34.980  13.974
23249W        W84615  10.814  42.452  12.986
23250W        W84616  36.971   3.801   0.352
23251W        W84617  44.946   0.360   4.636
23252W        W84618  31.537  17.556  13.404
23253W        W84619  41.517  14.121   2.802
23254W        W84620  29.994  13.657  13.937
23255W        W84621  43.502  12.798  11.503
23256W        W84622  14.174  35.414   0.373
23257W        W84623  43.346  12.646  10.997
23258W        W84624  42.403  34.577   4.125
23259W        W84625   1.791  16.615   0.905
23260W        W84626  17.758  43.396  10.483
23261W        W84627  36.844  21.745   4.305
23262W        W84628  21.069  25.634   2.760
23263W        W84629  41.823  15.293  13.990
23264W        W84630  19.247  40.477  11.430
23265W        W84631  32.957  10.295   0.945
23266W        W84632  13.795  10.217   4.216
23267W        W84633  35.499  13.108   4.770
23268W        W84634  19.744  11.825   1.857
23269W        W84635   2.435  13.262  12.355
23270W        W84636  38.526  28.451   2.405
23271W        W84637   2.907   4.297   1.820
23272W        W84638  43.861  25.155   2.860
23273W        W84639  20.174  28.149   0.380
23274W        W84640   5.713  16.694   3.780
23275W        W84641   3.359  41.356  12.381
23276W        W84642  36.468  40.312   0.904
23277W        W84643  13.182  35.023  14.786
23278W        W84644  16.747  27.089  13.817
23279W        W84645  28.028  29.135   2.825
23280W        W84646  18.269  23.064   3.817
23281W        W84647   6.751  17.625  11.427
23282W        W84648  24.703  21.736  14.498
23283W        W84649   6.346   9.343  12.877
23284W        W84650  32.481  31.089  14.792
23285W        W84651  37.999  26.681   1.419
23286W        W84652   9.385  26.196  10.977
23287W        W84653  16.237  42.853  13.421
23288W        W84654  28.591  18.569  12.357
23289W        W84655  28.648  10.750  14.989
23290W        W84656   4.802   1.265  12.936
23291W        W84657   9.153   1.752   3.834
23292W        W84658  14.805  20.579  11.034
23293W        W84659  32.005  33.425   2.663
23294W        W84660  37.876   4.714  12.487
23295W        W84661  11.211  31.920   1.328
23296W        W84662  27.081  29.029  11.517
23297W        W84663  15.633  21.563   2.320
23298W        W84664  32.563  27.576  12.352
23299W        W84665  28.000  39.048   3.314
23300W        W84666  20.073  15.737   0.789
23301W        W84667  42.832   8.246   2.713
23302W        W84668  39.959  34.598  13.814
23303W        W84669  13.783  17.136  11.929
23304W        W84670  31.954  32.616  13.510
23305W        W84671   5.318  28.659  11.493
23306W        W84672  36.365  32.405  14.887
23307W        W84673   2.822  17.611   3.377
23308W        W84674  42.800   7.305  11.480
23309W        W84675  28.536  38.486   3.349
23310W        W84676  21.233  29.154   3.317
23311W        W84677  37.554  41.368  13.052
23312W        W84678   1.778  21.061  11.106
23313W        W84679   1.287  35.549  12.856
23314W        W84680  18.109  22.541   3.648
23315W        W84681  26.673  40.406  13.322
23316W        W84682  34.016  43.969   2.733
23317W        W84683   5.284  22.230   3.747
23318W        W84684  32.449   2.280   2.835
23319W        W84685  12.760   7.186  10.954
23320W        W84686   8.280  41.325  13.518
23321W        W84687  29.097  35.977   3.773
23322W        W84688  28.640  14.684  12.863
23323W        W84689  37.835  36.476   3.212
23324W        W84690  36.571  44.474  11.962
23325W        W84691  17.286  11.622   0.450
23326W        W84692   8.769  15.243   0.309
23327W        W84693  37.879  41.314   0.397
23328W        W84694  43.402  28.008   3.830
23329W        W84695  32.462  41.307  13.450
23330W        W84696   7.223   2.466  13.363
23331W        W84697  41.490  43.955   1.824
23332W        W84698  21.662  30.499  14.458
23333W        W84699  30.590  16.794   4.154
23334W        W84700  40.974  10.231   1.758
23335W        W84701  34.371  22.028   0.402
23336W        W84702  40.820   6.351  11.882
23337W        W84703  23.712  23.583  12.373
23338W        W84704  30.564  39.041  11.076
23339W        W84705   7.290  36.065  12.384
23340W        W84706  30.434   5.254  12.483
23341W        W84707  13.788  35.883  11.941
23342W        W84708   4.300  40.966   2.803
23343W        W84709   6.226   4.395   2.783
23344W        W84710  12.142  35.912  13.400
23345W        W84711   2.898  31.576  12.042
23346W        W84712  32.950  22.177  14.341
23347W        W84713  13.111  32.133   1.753
23348W        W84714  21.052  30.165   0.873
23349W        W84715  13.146  38.058  13.946
23350W        W84716   9.273   7.308   1.715
23351W        W84717  39.945  39.982  14.370
23352W        W84718  16.316  19.277   0.948
23353W        W84719   3.233  33.888  11.015
23354W        W84720  33.560  22.655  11.592
23355W        W84721  30.031  40.549  14.975
23356W        W84722   7.787  32.111  12.090
23357W        W84723  10.250  30.121   0.911
23358W        W84724  24.531   3.461   0.413
23359W        W84725  10.330  16.094  13.539
23360W        W84726   5.247  36.369   0.389
23361W        W84727  31.981   5.819   1.388
23362W        W84728  44.458  28.442   2.806
23363W        W84729  17.799  33.124   0.351
23364W        W84730  22.505   5.836  14.808
23365W        W84731   5.811  31.416  13.411
23366W        W84732  13.235  21.667  10.438
23367W        W84733   7.231  34.904   0.767
23368W        W84734  13.204  27.562  11.451
23369W        W84735   5.425   8.800   2.278
23370W        W84736  22.653  22.633  10.969
23371W        W84737  18.115  31.499  10.632
23372W        W84738  34.900  21.574   4.321
23373W        W84739  26.004  33.891   3.316
23374W        W84740  32.135   4.323  13.831
23375W        W84741   0.460  41.396   4.818
23376W        W84742  23.039   5.720   4.623
23377W        W84743  43.328  30.429  10.153
23378W        W84744  11.642  22.743  13.341
23379W        W84745  18.233  36.898   4.293
23380W        W84746  21.628   5.430  12.062
23381W        W84747  36.483   0.753  11.021
23382W        W84748  16.272  34.051  14.812
23383W        W84749  40.856  16.092  10.524
23384W        W84750  30.420  42.283   1.359
23385W        W84751  24.039  17.207   5.261
23386W        W84752  35.568   4.344   3.830
23387W        W84753  34.375  14.316  10.445
23388W        W84754  30.105  14.281   4.638
23389W        W84755  41.868  28.595   1.905
23390W        W84756  33.515   7.228  12.080
23391W        W84757   2.308   2.839   3.183
23392W        W84758   6.903  29.129  10.921
23393W        W84759  12.748  20.174  11.991
23394W        W84760  36.363   2.939  14.874
23395W        W84761   6.750  25.140  13.451
23396W        W84762   2.864  17.258  12.961
23397W        W84763  37.026  41.336   2.261
23398W        W84764   6.788  36.846  13.902
23399W        W84765   3.740   3.406   0.439
23400W        W84766  26.135  40.041   0.286
23401W        W84767   7.770  37.567   4.145
23402W        W84768  12.833   0.853   4.794
23403W        W84769   4.933  19.074  10.950
23404W        W84770   1.279  35.991  14.388
23405W        W84771  34.072  21.722   1.292
23406W        W84772   4.367  14.274  13.043
23407W        W84773  17.780   5.787   3.318
23408W        W84774  16.666   3.722   1.220
23409W        W84775  32.894  26.158   4.602
23410W        W84776   1.236   0.812   2.384
23411W        W84777  44.893   3.437   4.669
23412W        W84778   7.229  12.649   3.652
23413W        W84779   5.280  23.714  12.500
23414W        W84780  10.712  35.570  14.792
23415W        W84781   8.856  12.124   1.759
23416W        W84782  18.096   5.779   1.833
23417W        W84783   6.418   1.939   3.738
23418W        W84784  40.320   3.947  14.883
23419W        W84785   2.764  26.574  10.569
23420W        W84786  42.817  24.126   0.807
23421W        W84787  19.767  41.893  14.433
23422W        W84788  11.657  23.647  10.900
23423W        W84789  18.718  20.263   2.322
23424W        W84790  44.970  20.547  13.510
23425W        W84791  34.938  28.053   2.754
23426W        W84792  13.220  43.983  10.431
23427W        W84793  32.981   6.705   0.426
23428W        W84794  40.889  31.489   1.695
23429W        W84795  16.077  21.168   0.246
23430W        W84796  20.581  22.140   1.761
23431W        W84797  16.224   3.346  13.026
23432W        W84798  25.090  24.013  14.885
23433W        W84799  36.023   3.295   1.240
23434W        W84800  30.417  10.827  13.333
23435W        W84801  25.542  33.078   4.628
23436W        W84802  42.391   2.325  12.081
23437W        W84803  13.709  38.895   1.310
23438W        W84804  34.104  25.524   4.709
23439W        W84805   1.824   3.393   4.316
23440W        W84806  18.587  32.549  13.841
23441W        W84807  30.486  25.181  11.011
23442W        W84808  34.116  44.410   2.238
23443W        W84809  23.064  39.406  11.895
23444W        W84810  24.515  11.844  10.629
23445W        W84811   5.342  27.524   1.329
23446W        W84812  44.779  31.509   1.383
23447W        W84813  17.795  37.873  14.946
23448W        W84814  21.637   5.803  12.976
23449W        W84815   7.747  26.074  14.843
23450W        W84816  19.628  10.276   0.954
23451W        W84817  35.415  43.406  10.042
23452W        W84818  15.695   3.246  12.901
23453W        W84819  32.013  25.476   2.671
23454W        W84820   4.846  35.495   3.314
23455W        W84821  25.155  31.447   3.662
23456W        W84822  21.027  39.444   3.811
23457W        W84823  10.167   7.873   2.212
23458W        W84824  19.615  18.573  11.442
23459W        W84825  43.488  42.496   3.664
23460W        W84826  43.459  15.242  11.534
23461W        W84827  25.636  27.577  14.484
23462W        W84828   5.691  40.836  11.601
23463W        W84829   4.902   5.274   1.362
23464W        W84830  43.997  16.097  13.823
23465W        W84831  21.107  13.239  14.490
23466W        W84832   7.368  39.328   4.615
23467W        W84833  37.508   2.366  13.860
23468W        W84834  10.690  32.460  11.015
23469W        W84835  22.646  34.872   0.941
23470W        W84836   9.847  11.224  12.466
23471W        W84837  44.866  33.564  10.953
23472W        W84838  17.285  44.835  14.992
23473W        W84839   5.691   7.417  10.946
23474W        W84840   3.433  36.045   1.892
23475W        W84841  37.833   8.331   4.681
23476W        W84842  11.285   1.835  11.401
23477W        W84843  12.211   6.916  10.637
23478W        W84844  34.423  42.504   3.830
23479W        W84845  22.018   0.274   3.712
23480W        W84846   8.168  42.891   3.755
23481W        W84847  41.908  42.308   0.316
23482W        W84848  26.077  42.847  14.360
23483W        W84849  36.351  43.405   3.645
23484W        W84850  23.200  20.184   2.411
23485W        W84851  38.037  12.287  14.838
23486W        W84852  41.827  15.116   3.222
23487W        W84853   2.334   1.459  12.479
23488W        W84854   7.227   2.909  10.935
23489W        W84855  37.968  36.018   3.812
23490W        W84856  38.820  28.018  13.044
23491W        W84857  34.481  37.465  10.441
23492W        W84858   5.215  19.745   4.727
23493W        W84859  28.006  26.957  14.797
23494W        W84860  36.348  42.907   4.343
23495W        W84861  24.107  23.140   3.679
23496W        W84862  38.531  11.281  11.492
23497W        W84863  12.797  23.673   4.308
23498W        W84864  32.019   0.427   0.783
23499W        W84865  33.118  35.909   4.212
23500W        W84866   4.367   6.424   1.887
23501W        W84867  29.634  39.873  14.466
23502W        W84868   9.290  38.458  13.372
23503W        W84869  38.863   7.320  12.858
23504W        W84870  15.284   1.364   1.743
23505W        W84871   4.752  27.170   1.778
23506W        W84872  43.311  14.170   0.908
23507W        W84873   8.799   6.895   3.344
23508W        W84874  40.429  30.941   4.249
23509W        W84875   6.719  23.677   2.774
23510W        W84876  15.161  27.547   1.448
23511W        W84877   4.421   1.732  11.919
23512W        W84878  28.131  28.669   9.648
23513W        W84879  36.520  10.200   5.221
23514W        W84880  35.583   0.417  11.064
23515W        W84881  20.158  42.003   4.240
23516W        W84882  31.595   5.909  12.081
23517W        W84883  23.614  44.324  11.414
23518W        W84884  37.425  14.205   1.803
23519W        W84885   4.836  43.395   0.914
23520W        W84886  41.798   8.368  11.459
23521W        W84887  16.301  20.611   1.754
23522W        W84888  27.068  11.341  12.422
23523W        W84889  18.755  43.282  12.465
23524W        W84890   1.357  13.607  13.849
23525W        W84891  33.877  33.455  11.579
23526W        W84892  42.334  14.639   4.624
23527W        W84893  30.436   3.909   0.451
23528W        W84894  20.560  20.125  11.605
23529W        W84895  41.959   0.314   1.694
23530W        W84896  38.439  38.504  14.504
23531W        W84897  20.565  22.617  13.498
23532W        W84898  37.405   4.870   0.300
23533W        W84899  13.180   2.294  11.935
23534W        W84900  13.749   9.814  11.512
23535W        W84901  24.539  14.753   3.332
23536W        W84902   3.453  37.000   2.273
23537W        W84903  28.932  31.515  10.611
23538W        W84904  21.627  23.146   2.863
23539W        W84905  42.815  31.428  12.542
23540W        W84906  10.211  39.439  12.542
23541W        W84907  35.020  44.983  14.363
23542W        W84908  39.020  38.031   1.417
23543W        W84909   6.232   2.774   2.853
23544W        W84910  24.617  25.150   3.237
23545W        W84911  10.320  43.945  13.465
23546W        W84912  27.185  33.614   3.229
23547W        W84913  35.867   4.761  12.050
23548W        W84914  40.390  13.253   3.804
23549W        W84915  12.271  36.947  10.953
23550W        W84916  10.360  10.643   4.817
23551W        W84917  17.630  23.721   0.865
23552W        W84918  17.250  34.928   0.450
23553W        W84919  26.474  30.099   2.201
23554W        W84920  25.631  11.854  14.421
23555W        W84921  31.591  40.006   1.229
23556W        W84922  12.311  24.150  14.894
23557W        W84923   6.692  20.741  10.439
23558W        W84924  28.012  19.060  14.511
23559W        W84925  23.612  24.621  14.999
23560W        W84926  31.925  13.256  14.293
23561W        W84927  31.458  13.663   0.347
23562W        W84928  28.172  10.783  11.470
23563W        W84929  12.316  11.815  14.013
23564W        W84930  41.530   9.827  10.459
23565W        W84931  40.935  40.043  12.481
23566W        W84932  33.476  37.458   1.231
23567W        W84933  16.185  30.157   0.838
23568W        W84934   5.765  41.360  10.555
23569W        W84935   0.277   5.388   0.432
23570W        W84936  23.506  13.212   4.141
23571W        W84937   2.879  12.356  13.967
23572W        W84938  27.593   6.366  11.009
23573W        W84939  42.317   1.438   1.890
23574W        W84940  15.261  25.075  13.312
23575W        W84941   8.370  44.849   3.854
23576W        W84942  30.456   7.227  12.347
23577W        W84943  26.963  44.780   1.341
23578W        W84944  28.162  27.096  11.462
23579W        W84945  17.155   1.306  13.806
23580W        W84946  26.616  20.709  14.509
23581W        W84947  15.747  21.744   0.958
23582W        W84948  37.388   5.404   4.210
23583W        W84949  17.225   9.278  11.488
23584W        W84950   7.685  11.349  14.810
23585W        W84951  16.207  13.621   4.634
23586W        W84952  25.068   6.874  14.011
23587W        W84953  33.523  20.223  12.455
23588W        W84954  22.091   5.694  11.093
23589W        W84955  40.009  35.053  11.385
23590W        W84956  40.817  43.470   0.867
23591W        W84957  39.850  27.975   3.705
23592W        W84958  44.011   0.831  14.860
23593W        W84959   0.776   2.430   4.276
23594W        W84960  43.344  38.482  10.978
23595W        W84961   0.477  11.208   4.307
23596W        W84962  15.587  19.256  10.970
23597W        W84963  27.949  19.053   3.241
23598W        W84964  16.079  41.404  14.377
23599W        W84965  43.888  39.450  11.515
23600W        W84966  15.585  40.826   3.680
23601W        W84967  44.779  26.199   4.300
23602W        W84968  39.523   0.977  11.492
23603W        W84969  19.262  18.149  11.026
23604W        W84970   2.867  42.295   1.705
23605W        W84971  13.754   8.727   1.704
23606W        W84972  14.311  24.592   1.364
23607W        W84973  10.379  28.049   5.293
23608W        W84974  43.388  39.812  10.557
23609W        W84975  27.086   9.688  12.034
23610W        W84976  26.699   8.274   3.638
23611W        W84977  13.105  15.650  11.484
23612W        W84978  29.061  41.887  12.340
23613W        W84979  23.555  30.117   3.765
23614W        W84980  26.529  19.248  14.283
23615W        W84981  31.640  17.093  13.946
23616W        W84982  32.016  25.962   2.328
23617W        W84983   2.255  26.562   1.284
23618W        W84984  24.517   4.420   4.192
23619W        W84985   5.394  38.850  14.339
23620W        W84986  31.446  22.563   3.221
23621W        W84987   0.816  44.341  11.080
23622W        W84988  43.351  28.119   2.891
23623W        W84989  32.464  27.567   3.272
23624W        W84990  36.460  28.550  11.993
23625W        W84991  43.495  39.480   1.827
23626W        W84992  13.224  18.789  10.623
23627W        W84993  23.735  12.661   4.182
23628W        W84994  33.893  35.869   3.652
23629W        W84995   4.826   6.872   4.256
23630W        W84996   5.880  19.690   4.224
23631W        W84997  24.139  38.343  14.875
23632W        W84998  25.120  42.880   3.820
23633W        W84999  20.633  42.513   0.376
23634W        W85000  30.464  10.730   3.147
23635W        W85001  30.017   5.316  10.623
23636W        W85002  31.067  29.973  10.903
23637W        W85003  28.671   1.304  11.979
23638W        W85004  20.063  10.689  12.964
23639W        W85005  40.516  16.219  13.977
23640W        W85006  24.040  37.846  12.511
23641W        W85007  20.054  31.441   4.650
23642W        W85008   5.807   2.247   3.643
23643W        W85009  13.233  14.198  10.988
23644W        W85010  32.121   5.438  14.843
23645W        W85011  10.686  25.482   1.879
23646W        W85012  21.563  43.938   3.377
23647W        W85013  23.612  12.734  11.521
23648W        W85014   0.871  21.083   3.192
23649W        W85015  25.525  43.370  10.405
23650W        W85016  28.680  40.435  13.325
23651W        W85017  37.485  16.702   3.838
23652W        W85018  27.165   1.373  12.434
23653W        W85019  34.028  42.313   9.958
23654W        W85020  20.185  22.144   3.325
23655W        W85021  40.023  37.382  13.979
23656W        W85022   2.770   2.865   4.798
23657W        W85023   2.274  22.646  12.429
23658W        W85024  17.632  17.196  12.919
23659W        W85025   6.864   0.889  12.545
23660W        W85026  17.760  27.180  13.928
23661W        W85027  44.337   8.328   3.348
23662W        W85028   0.887  26.053   0.337
23663W        W85029  21.164  24.707   4.651
23664W        W85030  44.936  25.194  13.371
23665W        W85031  41.023  27.074  11.978
23666W        W85032  20.181  34.450  13.914
23667W        W85033  36.352  40.918  12.386
23668W        W85034  43.961   4.418  11.536
23669W        W85035  16.570  42.476  14.955
23670W        W85036  13.179  28.173   2.194
23671W        W85037  42.447   2.282  11.067
23672W        W85038  16.225  11.266  11.928
23673W        W85039   7.882  29.001  11.430
23674W        W85040  44.344  16.200   4.810
23675W        W85041  20.651   9.765  11.126
23676W        W85042  27.188  12.626  14.427
23677W        W85043   2.304   1.338   1.801
23678W        W85044  43.911  21.027  13.949
23679W        W85045  30.453  34.099  14.760
23680W        W85046  29.119   3.281   2.677
23681W        W85047   8.350   9.370  10.621
23682W        W85048  30.588  13.790   1.439
23683W        W85049  32.983  21.067   4.831
23684W        W85050  13.296   3.279   4.113
23685W        W85051  34.095   0.357   4.705
23686W        W85052  10.867  37.488   1.260
23687W        W85053  19.258  42.436  12.495
23688W        W85054  37.887  31.574  14.010
23689W        W85055   5.723  18.215  10.063
23690W        W85056  26.956  28.099   4.659
23691W        W85057  38.332  42.377   4.612
23692W        W85058  19.116  22.233   0.954
23693W        W85059   9.247  23.580   3.733
23694W        W85060  23.156  43.859  12.507
23695W        W85061  13.702  38.930  12.557
23696W        W85062   1.382  31.050  13.920
23697W        W85063   1.755  21.672   1.910
23698W        W85064   6.221  13.260  13.341
23699W        W85065   9.243  10.159   3.681
23700W        W85066   0.954  36.863  10.935
23701W        W85067   5.312  28.947   5.246
23702W        W85068   1.925  22.652  11.919
23703W        W85069  14.292   3.951   1.272
23704W        W85070  27.145   6.224   0.454
23705W        W85071  15.272  11.804  13.889
23706W        W85072   9.318  33.542  14.307
23707W        W85073  23.574  19.237  12.941
23708W        W85074  27.189   9.755   3.165
23709W        W85075  39.019  27.615   4.722
23710W        W85076  34.546  16.167   4.730
23711W        W85077   6.809  12.629  11.384
23712W        W85078  18.691  12.737  13.993
23713W        W85079  29.665  31.487  11.976
23714W        W85080  35.428   3.356  11.047
23715W        W85081  10.313  43.856  10.027
23716W        W85082   8.805   2.836   9.990
23717W        W85083  37.918  17.172  11.038
23718W        W85084   5.716  14.776   2.227
23719W        W85085  22.719  42.482  11.482
23720W        W85086  37.864  22.072  11.027
23721W        W85087  25.653  29.003  13.428
23722W        W85088   5.398  20.651   2.261
23723W        W85089  26.080  37.360  10.512
23724W        W85090  22.635   2.957   3.189
23725W        W85091  38.913   6.426  13.002
23726W        W85092  23.090  38.837   0.946
23727W        W85093   1.782  16.312  10.893
23728W        W85094   5.868   3.887  12.962
23729W        W85095  28.960   1.905  10.507
23730W        W85096  11.748  26.674   1.423
23731W        W85097  17.791   8.291   3.242
23732W        W85098  38.561  13.310  13.522
23733W        W85099  32.427  39.462   2.278
23734W        W85100  21.186  42.497  14.800
23735W        W85101  10.231  21.598  12.871
23736W        W85102  11.151  16.708   0.819
23737W        W85103  16.223  30.910  14.796
23738W        W85104  37.885  20.689   0.929
23739W        W85105  16.623  41.814   0.394
23740W        W85106   6.284   3.841   0.789
23741W        W85107   5.770   1.299   1.797
23742W        W85108  27.066  35.478   2.812
23743W        W85109  17.276  27.132   2.247
23744W        W85110  31.501   0.430  14.504
23745W        W85111  21.586  15.152  12.439
23746W        W85112  35.074  41.528  14.437
23747W        W85113   3.428  43.011  13.316
23748W        W85114  44.819   2.910  11.050
23749W        W85115   2.290   3.406  12.467
23750W        W85116  30.644  33.894   0.407
23751W        W85117  20.529  33.527  14.823
23752W        W85118   7.410   8.661  13.917
23753W        W85119  25.964  44.902   1.384
23754W        W85120  20.529   9.354  12.343
23755W        W85121  24.046  17.694   4.688
23756W        W85122  39.395  44.390   3.659
23757W        W85123  18.626  21.743  12.033
23758W        W85124  14.285  17.788  11.533
23759W        W85125  13.336  24.695  14.908
23760W        W85126   4.302  29.611   0.752
23761W        W85127  27.659  21.732  11.609
23762W        W85128   0.410   5.258   1.425
23763W        W85129   7.808   7.854  13.985
23764W        W85130  20.238   1.373  12.973
23765W        W85131  26.589   1.437   4.162
23766W        W85132  37.977  41.840   5.091
23767W        W85133  13.318  10.323  12.846
23768W        W85134   3.424  16.661   1.820
23769W        W85135  28.018  37.340   1.385
23770W        W85136  29.924  15.730  11.432
23771W        W85137  37.044  25.001   0.796
23772W        W85138  14.100   9.723   3.831
23773W        W85139  34.934  35.412  12.886
23774W        W85140   4.312   2.829  13.880
23775W        W85141  26.963  26.644   3.804
23776W        W85142  43.486  19.664  14.450
23777W        W85143   6.367   2.892  12.376
23778W        W85144  13.334  44.832  10.409
23779W        W85145  15.624  16.730  11.424
23780W        W85146  36.869   3.825  10.420
23781W        W85147  23.172  33.619   2.354
23782W        W85148   2.356  16.639  14.986
23783W        W85149  11.808   1.286  12.065
23784W        W85150  17.613  28.056  11.393
23785W        W85151   9.790  32.079  13.060
23786W        W85152   3.818  17.111   2.725
23787W        W85153   7.775  22.208  13.312
23788W        W85154  12.206   5.247  14.383
23789W        W85155  12.735  44.452  14.462
23790W        W85156  28.076  41.322   9.993
23791W        W85157  39.434  33.053  12.007
23792W        W85158  18.612  32.597  13.467
23793W        W85159  19.620  28.098   0.400
23794W        W85160  21.218  38.431  12.897
23795W        W85161  12.832  17.802   0.898
23796W        W85162  28.667  26.594  12.408
23797W        W85163  22.621  44.447   3.718
23798W        W85164   8.174  21.176   1.773
23799W        W85165   7.350  23.526   0.439
23800W        W85166   5.827  22.181  11.028
23801W        W85167  13.602  10.784   2.892
23802W        W85168  33.435  32.574  12.569
23803W        W85169  24.605   7.208  11.918
23804W        W85170  15.588  41.922  14.949
23805W        W85171  22.154  43.513  10.543
23806W        W85172  10.809  13.286   4.289
23807W        W85173  17.080  18.150  10.892
23808W        W85174  17.591   8.684  12.077
23809W        W85175  37.073  14.804   4.258
23810W        W85176  22.547  14.781  12.511
23811W        W85177  10.758  43.975   3.807
23812W        W85178  37.955  31.119  13.816
23813W        W85179  36.374  38.880   4.339
23814W        W85180  43.366   2.228   1.270
23815W        W85181   1.321  18.051   2.704
23816W        W85182  39.485  11.648   4.816
23817W        W85183   5.210  43.316  12.058
23818W        W85184  15.755  17.282  12.096
23819W        W85185  23.156  32.547  13.996
23820W        W85186  41.908  24.045   1.244
23821W        W85187   3.369   7.256  14.941
23822W        W85188  19.250  40.915  12.977
23823W        W85189  31.547  23.159  13.800
23824W        W85190   0.361  19.071   4.814
23825W        W85191  44.931   5.239  11.004
23826W        W85192  20.675  40.360  14.891
23827W        W85193   6.756  22.122  13.902
23828W        W85194  37.840  40.498  10.454
23829W        W85195   2.737   3.248   2.847
23830W        W85196  31.427  42.807  11.009
23831W        W85197  44.823  38.342  10.625
23832W        W85198  27.041   3.737   9.526
23833W        W85199  33.564   7.820  10.438
23834W        W85200   3.940  14.320   0.896
23835W        W85201   9.864   8.332   0.781
23836W        W85202  15.653   6.184   4.300
23837W        W85203  17.728  32.452   4.243
23838W        W85204  14.659   8.842   3.814
23839W        W85205  26.511   6.424   3.358
23840W        W85206  17.259  31.958   5.123
23841W        W85207   5.202  39.010  10.482
23842W        W85208  27.183  27.998   0.805
23843W        W85209  26.026   9.221   4.179
23844W        W85210  26.034  41.916   1.219
23845W        W85211  10.661  23.017   2.300
23846W        W85212   6.837  44.950  11.126
23847W        W85213  33.454  11.153   3.237
23848W        W85214  40.816  39.363   3.818
23849W        W85215   2.878  37.049  12.427
23850W        W85216  35.995  30.141  14.796
23851W        W85217   4.394  29.972   2.820
23852W        W85218   9.845  28.648  11.034
23853W        W85219   8.297   7.388  13.965
23854W        W85220  41.932  39.350   3.792
23855W        W85221   3.401  12.288   2.685
23856W        W85222   5.318  25.606   3.695
23857W        W85223  41.533  23.650   0.733
23858W        W85224  11.321  35.554   9.571
23859W        W85225  31.423  30.919  13.312
23860W        W85226  41.497  34.509   3.654
23861W        W85227  43.796  40.519   2.879
23862W        W85228  16.727  26.058   3.374
23863W        W85229  37.457  28.035   4.616
23864W        W85230  28.459  23.040   0.430
23865W        W85231  26.524  33.051  11.584
23866W        W85232  26.083  16.090   3.719
23867W        W85233  12.127  26.688   3.257
23868W        W85234   5.715  10.708  10.507
23869W        W85235  40.948  30.131   4.749
23870W        W85236  25.621   1.271   1.238
23871W        W85237  23.592  25.626  10.633
23872W        W85238   3.732  12.702   4.734
23873W        W85239   7.764   1.822  14.415
23874W        W85240  44.871  12.149  14.963
23875W        W85241  17.091  10.683   3.642
23876W        W85242  25.125   0.890  13.427
23877W        W85243  22.126  32.035  10.967
23878W        W85244  27.582  35.498  12.396
23879W        W85245  12.808  33.058   1.292
23880W        W85246  24.544   3.333  11.423
23881W        W85247  29.088   4.882  11.424
23882W        W85248  35.941  42.367   4.769
23883W        W85249  37.054  20.033   2.724
23884W        W85250  22.136  38.877  11.128
23885W        W85251  38.967  40.401   4.123
23886W        W85252   8.244  11.820  13.337
23887W        W85253  44.490  12.358   2.862
23888W        W85254  24.082  20.152   1.427
23889W        W85255   6.374  23.121  11.961
23890W        W85256   3.833   8.738  11.438
23891W        W85257  44.489  28.487  10.076
23892W        W85258  36.981  31.111   4.683
23893W        W85259  30.447  21.555  12.489
23894W        W85260  11.738  33.122   0.310
23895W        W85261  39.961  24.712   3.255
23896W        W85262   7.843  36.563  11.006
23897W        W85263  26.184  25.530   0.964
23898W        W85264  34.546  10.757  14.306
23899W        W85265  27.592  32.064  12.883
23900W        W85266   2.328  31.544  14.799
23901W        W85267  13.305  43.015   4.613
23902W        W85268  34.538  41.986   2.238
23903W        W85269  38.904  22.218  12.095
23904W        W85270  32.523  21.256   3.859
23905W        W85271  32.113  36.553  12.879
23906W        W85272   5.329  32.407   4.636
23907W        W85273  15.685  20.727   1.930
23908W        W85274  42.811  28.631  12.564
23909W        W85275   4.261  24.046   3.814
23910W        W85276   3.757   8.873  13.816
23911W        W85277  19.204  36.928  12.348
23912W        W85278  43.974  40.799  10.490
23913W        W85279  17.629   9.224  11.097
23914W        W85280  30.082   6.676   0.895
23915W        W85281  17.570   7.344  10.581
23916W        W85282  37.979  12.687  13.960
23917W        W85283  35.008   3.439   4.151
23918W        W85284   8.243  20.720  12.888
23919W        W85285  13.693  21.607   0.290
23920W        W85286  25.104  39.961   9.940
23921W        W85287  36.433  26.144   1.228
23922W        W85288  11.165  36.952   2.842
23923W        W85289  14.752  26.570   0.421
23924W        W85290  40.329  26.081   2.247
23925W        W85291   7.196  42.816   1.393
23926W        W85292  32.449  34.604  12.411
23927W        W85293  37.363  17.182   1.398
23928W        W85294  15.739   7.776   0.767
23929W        W85295  15.278  23.203   1.747
23930W        W85296   7.794  12.686   3.682
23931W        W85297  39.833  27.665   4.772
23932W        W85298  31.050  33.541   1.705
23933W        W85299  22.514  43.817   2.293
23934W        W85300   3.919  43.860  13.519
23935W        W85301  31.130  34.564   0.801
23936W        W85302  33.127   3.255  12.381
23937W        W85303  31.055  28.055  10.021
23938W        W85304  31.976  21.212   2.229
23939W        W85305   4.231  26.497  11.529
23940W        W85306  25.711  38.531  10.925
23941W        W85307   9.726  30.061  11.102
23942W        W85308  36.440  43.469   1.848
23943W        W85309  26.608  21.196  11.506
23944W        W85310   9.191  39.990  12.836
23945W        W85311   1.252  40.337  12.018
23946W        W85312  43.435  18.221   3.184
23947W        W85313  32.122  16.581  10.483
23948W        W85314   2.460  40.919   3.781
23949W        W85315  16.794  24.098  11.101
23950W        W85316  32.513   6.392   3.714
23951W        W85317  33.129  38.969  12.907
23952W        W85318  40.466   4.365   1.406
23953W        W85319  22.245  17.654   4.696
23954W        W85320  33.510  27.511   3.345
23955W        W85321  11.820  24.486  13.316
23956W        W85322   6.338  41.959   2.688
23957W        W85323  34.871  41.030  13.906
23958W        W85324  25.151  30.918   0.464
23959W        W85325  19.735   3.797   2.897
23960W        W85326  31.457   4.266   0.924
23961W        W85327  33.051  37.381   4.667
23962W        W85328  43.950   8.311  13.315
23963W        W85329  33.038  24.190  10.901
23964W        W85330   6.721  21.223   4.824
23965W        W85331  42.877  25.691   4.797
23966W        W85332  44.808  21.051  14.407
23967W        W85333   8.395  13.706  12.985
23968W        W85334  13.743  35.455   0.280
23969W        W85335   3.906  44.384   2.283
23970W        W85336  43.907  17.284   3.742
23971W        W85337  40.800  29.029   3.657
23972W        W85338  40.359  31.081   1.445
23973W        W85339  25.688   9.260  11.597
23974W        W85340  20.213  42.373   0.473
23975W        W85341  25.669   3.425   1.703
23976W        W85342   7.801  22.090  14.473
23977W        W85343  13.611  35.568   0.786
23978W        W85344  38.017  34.524  10.978
23979W        W85345  33.589   3.393   2.393
23980W        W85346  41.416  33.430  11.533
23981W        W85347  31.055  28.680   4.218
23982W        W85348  13.783  25.192   3.188
23983W        W85349  20.760  31.559  13.491
23984W        W85350  23.729  23.178  11.592
23985W        W85351  41.351  40.896  10.921
23986W        W85352  31.896  30.636   2.237
23987W        W85353  27.185   2.472   2.752
23988W        W85354   1.307  28.044  14.811
23989W        W85355  16.237  33.516   3.652
23990W        W85356   1.852  39.492   3.658
23991W        W85357  23.201  29.106  14.777
23992W        W85358  26.639  26.568   9.526
23993W        W85359  14.695  30.073   0.246
23994W        W85360  17.166  40.486   2.687
23995W        W85361  11.356  35.876   1.851
23996W        W85362  10.268  35.099   5.297
23997W        W85363  39.477  11.354   3.739
23998W        W85364  31.097   8.250  11.873
23999W        W85365  35.360  11.851   3.190
24000W        W85366  38.891  36.982   1.317
24001W        W85367  18.769  13.762  13.319
24002W        W85368  30.028   4.239  10.889
24003W        W85369  31.080  12.120   4.693
24004W        W85370   7.705  34.454  12.343
24005W        W85371  19.079  23.177   0.354
24006W        W85372  36.936   6.233   4.216
24007W        W85373  35.360  41.343   3.253
24008W        W85374  18.055  32.119  13.485
24009W        W85375  13.312  31.912   0.745
24010W        W85376  30.987  39.920   3.725
24011W        W85377  13.130  25.710   0.932
24012W        W85378  32.060  39.977  13.960
24013W        W85379  30.529   2.871  11.612
24014W        W85380  21.216   0.267   2.752
24015W        W85381  38.954  39.521   0.438
24016W        W85382   8.675  21.596  11.562
24017W        W85383  37.059  15.292   0.947
24018W        W85384  18.558  32.909  11.430
24019W        W85385  17.241  37.450   1.830
24020W        W85386  11.145  40.391  11.119
24021W        W85387   3.283   3.241   1.384
24022W        W85388  39.900  37.901   3.846
24023W        W85389  44.328  42.955   2.369
24024W        W85390  18.121   5.727  12.045
24025W        W85391  33.112   7.220   2.729
24026W        W85392  13.601  22.181  14.820
24027W        W85393  29.597   5.915   1.919
24028W        W85394  27.093  41.408   2.840
24029W        W85395  43.860  34.427   2.661
24030W        W85396  14.691  11.637  13.923
24031W        W85397  40.922  40.046  11.483
24032W        W85398   0.330  41.989   1.434
24033W        W85399  20.186  43.295   3.198
24034W        W85400  25.467  29.991   4.180
24035W        W85401  10.180   8.803  13.826
24036W        W85402  33.892  10.832   1.891
24037W        W85403  16.586  19.558   1.271
24038W        W85404  23.552  23.569   0.832
24039W        W85405  24.624   4.820   2.218
24040W        W85406  38.472  25.696   2.365
24041W        W85407  32.997   3.296   0.278
24042W        W85408  29.960   4.249  12.479
24043W        W85409  33.020  28.470  14.459
24044W        W85410  20.239  13.716   1.269
24045W        W85411  34.006  11.689  12.445
24046W        W85412  26.619  38.061  13.443
24047W        W85413   6.412   7.405   1.339
24048W        W85414  32.031  38.841  11.425
24049W        W85415   2.958   6.318  14.430
24050W        W85416   3.880  30.105  14.931
24051W        W85417  37.452  19.763   1.694
24052W        W85418  36.850   4.886  11.487
24053W        W85419  26.090   4.784   3.852
24054W        W85420   7.813  39.328  11.057
24055W        W85421   7.696  17.077   0.830
24056W        W85422  20.175  34.953  14.472
24057W        W85423  23.026  32.504   0.484
24058W        W85424  13.329  17.796   0.376
24059W        W85425  35.443  14.325   1.750
24060W        W85426   2.300  28.514  13.503
24061W        W85427   7.255  38.836  13.879
24062W        W85428   9.320  18.134   5.143
24063W        W85429  38.009  30.622  13.438
24064W        W85430  17.586   8.763   2.269
24065W        W85431  13.339   6.802  13.061
24066W        W85432  39.050  38.874  13.543
24067W        W85433   3.842   1.397  11.429
24068W        W85434   2.391   9.861   3.714
24069W        W85435  37.403   6.712  13.538
24070W        W85436   6.278  13.343  13.916
24071W        W85437   3.264  12.704  11.453
24072W        W85438  22.550  23.650  10.526
24073W        W85439  28.517  27.994  12.062
24074W        W85440  26.599  13.707   5.285
24075W        W85441  16.644   7.281  13.399
24076W        W85442   8.747  38.562  14.280
24077W        W85443  30.497  38.326   1.802
24078W        W85444  10.635  30.547  11.979
24079W        W85445  10.637   3.793   0.780
24080W        W85446  27.064  13.736  12.928
24081W        W85447  11.253  24.653  12.026
24082W        W85448  11.856   6.678   0.478
24083W        W85449  10.670  11.216  11.049
24084W        W85450   3.815  35.014  12.388
24085W        W85451  43.798  43.450   4.703
24086W        W85452   6.323  11.640   4.606
24087W        W85453   3.418   4.772   4.151
24088W        W85454  11.312  39.406   1.845
24089W        W85455  21.153   8.189   0.417
24090W        W85456   0.264  43.308   0.951
24091W        W85457  27.012   7.670   0.897
24092W        W85458  41.434  16.567  13.020
24093W        W85459  27.026  39.861   0.347
24094W        W85460  38.380  29.958  10.923
24095W        W85461  34.033  19.749  13.043
24096W        W85462  33.484   2.934  12.979
24097W        W85463  10.861  17.261   0.366
24098W        W85464  19.060  30.442   1.812
24099W        W85465   4.226  34.609   3.688
24100W        W85466   1.762  27.050   4.614
24101W        W85467  18.782  34.953  14.884
24102W        W85468  41.844  38.451  11.044
24103W        W85469  30.164  20.638  12.496
24104W        W85470   8.846  30.498   0.897
24105W        W85471  11.711  26.510  11.068
24106W        W85472  43.956  27.677  11.392
24107W        W85473   3.300  17.657   4.333
24108W        W85474  13.267   7.715   5.165
24109W        W85475  13.644  40.853  13.347
24110W        W85476  21.253   4.844  13.322
24111W        W85477  31.414  22.105  11.473
24112W        W85478   6.191  13.772  11.057
24113W        W85479   5.846  22.029  10.489
24114W        W85480  28.000  16.776  12.036
24115W        W85481  34.475  38.561  12.982
24116W        W85482  40.992  30.451   2.331
24117W        W85483  37.470  12.770  14.491
24118W        W85484  13.687  14.167  12.508
24119W        W85485  42.795   7.802   1.906
24120W        W85486  31.405  39.065  13.387
24121W        W85487   8.297   9.751   0.262
24122W        W85488  17.664  34.048   2.730
24123W        W85489   0.463  23.998   3.860
24124W        W85490  28.623  18.770   3.795
24125W        W85491  15.261  33.601  14.020
24126W        W85492   0.921  38.959   5.231
24127W        W85493  27.667  41.787   0.378
24128W        W85494  16.669  11.750  11.998
24129W        W85495  10.189  33.601   5.217
24130W        W85496   8.888  11.204   2.313
24131W        W85497  36.573   3.848   1.826
24132W        W85498  26.550  34.552  14.411
24133W        W85499  40.041  33.085  14.310
24134W        W85500  15.151   6.879  11.996
24135W        W85501  10.292  14.179  12.996
24136W        W85502   7.175  44.333   4.684
24137W        W85503  15.128  34.496   2.879
24138W        W85504  41.447   3.892   2.778
24139W        W85505  35.897  19.612  12.905
24140W        W85506  17.183   1.740  13.024
24141W        W85507  34.084   6.703   0.817
24142W        W85508   6.259  12.641   4.268
24143W        W85509  16.149  31.951  10.464
24144W        W85510  37.087  11.305  11.559
24145W        W85511  36.927   0.826  10.644
24146W        W85512   0.279  22.500  12.468
24147W        W85513  38.007   1.749  11.443
24148W        W85514  35.572  40.893  14.440
24149W        W85515  26.550  36.888   3.656
24150W        W85516   4.221   9.735  12.855
24151W        W85517  36.444  26.079  12.988
24152W        W85518  24.517  21.677   1.316
24153W        W85519  14.692  19.765   5.279
24154W        W85520  39.020   8.199  11.611
24155W        W85521  43.493  28.498  13.793
24156W        W85522   5.932  28.116   4.778
24157W        W85523  19.579  27.636   0.301
24158W        W85524  40.968   5.888  12.995
24159W        W85525  22.104  22.067   1.246
24160W        W85526  30.531  41.859  12.065
24161W        W85527  43.895  42.341   4.726
24162W        W85528  24.994   4.317  11.527
24163W        W85529   3.352  37.887   2.826
24164W        W85530  11.829  19.054   4.643
24165W        W85531  21.035   5.885   2.302
24166W        W85532  16.688  19.622   2.790
24167W        W85533   7.708  36.063   0.333
24168W        W85534  35.559  26.018   2.299
24169W        W85535  27.099  18.264  14.299
24170W        W85536   6.310  44.926  11.484
24171W        W85537  25.037   8.855   2.407
24172W        W85538  31.575  27.137   1.902
24173W        W85539  14.612  15.713   0.406
24174W        W85540  19.197  12.776  10.590
24175W        W85541   4.429   5.361  12.381
24176W        W85542  28.980  17.569  10.893
24177W        W85543  14.680  36.067  10.566
24178W        W85544  40.544  11.665  13.466
24179W        W85545  24.044  24.490   2.811
24180W        W85546  18.194   5.703  13.964
24181W        W85547  25.618  37.845  10.903
24182W        W85548  32.125  32.897   2.321
24183W        W85549  28.567  34.550   2.821
24184W        W85550   9.327  24.533  13.814
24185W        W85551  19.084  41.350  11.432
24186W        W85552  44.908  31.529  13.452
24187W        W85553  14.812  27.536  13.522
24188W        W85554  28.079  15.695  10.124
24189W        W85555  22.119  21.560  14.375
24190W        W85556  19.713  30.919  12.510
24191W        W85557   9.244  12.805   2.881
24192W        W85558  32.427  28.024  12.050
24193W        W85559  30.635  27.660   2.298
24194W        W85560  33.043   8.359  13.440
24195W        W85561  22.996  15.262  12.508
24196W        W85562  27.064  41.376   3.225
24197W        W85563  15.637  15.197   0.275
24198W        W85564  30.620  20.600  12.347
24199W        W85565   8.198  39.896  14.828
24200W        W85566  41.829   5.708  10.923
24201W        W85567  30.449  19.125  14.513
24202W        W85568  36.372  19.061   1.930
24203W        W85569   3.291  17.799  14.452
24204W        W85570  25.171  20.204   1.322
24205W        W85571  24.129   8.185   4.230
24206W        W85572  39.372  14.725  12.479
24207W        W85573  42.026   4.840   3.653
24208W        W85574  34.916  27.012  14.957
24209W        W85575  13.681   4.839  12.464
24210W        W85576   2.934  25.602   2.751
24211W        W85577  31.436   0.891   0.845
24212W        W85578  43.836  35.987   1.337
24213W        W85579   7.884  22.212  11.522
24214W        W85580  25.179  24.147  11.001
24215W        W85581  27.941   3.789   3.183
24216W        W85582  30.979  13.601  10.566
24217W        W85583  18.576  25.583   0.242
24218W        W85584  31.529  16.292  10.920
24219W        W85585   7.376  15.187   2.274
24220W        W85586   1.783  35.380  13.915
24221W        W85587   7.390  34.088  11.474
24222W        W85588  41.883  29.159   2.299
24223W        W85589  31.622  10.247  12.828
24224W        W85590  25.973  20.215  11.514
24225W        W85591  36.968  41.527   3.298
24226W        W85592  14.701  13.818   0.811
24227W        W85593  30.124  35.573  12.853
24228W        W85594  42.819  20.079  10.461
24229W        W85595  13.675  13.774   5.130
24230W        W85596  42.380  11.808   3.684
24231W        W85597  21.171   9.658   9.981
24232W        W85598  44.297   7.338   0.733
24233W        W85599  18.221  26.169  14.000
24234W        W85600  31.597  42.287  14.305
24235W        W85601  43.324  17.118   1.292
24236W        W85602   6.382  35.955   1.267
24237W        W85603   3.728  26.509   2.729
24238W        W85604  22.540   0.414  10.563
24239W        W85605  20.255  12.725  10.483
24240W        W85606   6.899  28.148  11.519
24241W        W85607  19.680   6.314  11.122
24242W        W85608  33.480  22.068  14.406
24243W        W85609  18.059   8.232   4.133
24244W        W85610  23.053  29.522  14.839
24245W        W85611  38.496   1.440   4.162
24246W        W85612  17.679  14.145   3.186
24247W        W85613  13.295  28.539  10.608
24248W        W85614  21.018  15.587  10.436
24249W        W85615  29.595  28.505  11.506
24250W        W85616  38.048  19.269   2.666
24251W        W85617  40.396  39.448  14.504
24252W        W85618  31.498  33.115   3.792
24253W        W85619  27.610  22.530  11.501
24254W        W85620  21.167  28.043   2.861
24255W        W85621   1.440  11.251  12.824
24256W        W85622  18.779   0.797  12.480
24257W        W85623   4.398  44.003   3.239
24258W        W85624  30.110   1.846   3.710
24259W        W85625  26.645  13.152   1.404
24260W        W85626   9.811  42.507  11.581
24261W        W85627  35.032   2.239  11.896
24262W        W85628   7.380  38.828   2.284
24263W        W85629   3.230  43.355   3.158
24264W        W85630  32.901  44.783  13.927
24265W        W85631  33.551  36.892   4.729
24266W        W85632  22.719  42.448  14.342
24267W        W85633   0.787   3.933  10.552
24268W        W85634  20.140   1.947  11.495
24269W        W85635   8.674   6.398  10.504
24270W        W85636  16.158  23.136  13.992
24271W        W85637  27.018  34.867   4.791
24272W        W85638  28.612  30.040  11.977
24273W        W85639  24.228   0.921   3.317
24274W        W85640   5.364  34.440   1.359
24275W        W85641  31.056   5.283   0.939
24276W        W85642  42.869   2.458   0.268
24277W        W85643  24.499  34.536   4.140
24278W        W85644  16.568   6.719   2.895
24279W        W85645   0.868  26.539   2.807
24280W        W85646   9.790  19.188   0.830
24281W        W85647  44.338   4.331   1.730
24282W        W85648  41.479  23.166  12.873
24283W        W85649  21.725  17.255   0.812
24284W        W85650  18.746  37.506  10.945
24285W        W85651   2.739  17.604   0.867
24286W        W85652  21.611   8.187  11.533
24287W        W85653  21.149  16.691   0.411
24288W        W85654  17.737  36.028   3.163
24289W        W85655  25.064   1.450   0.939
24290W        W85656  19.161  22.082  14.407
24291W        W85657  17.741  17.302  13.372
24292W        W85658  20.529   1.461   0.853
24293W        W85659   1.331  24.486   0.289
24294W        W85660  10.250  32.981   1.705
24295W        W85661   7.320   0.780   1.849
24296W        W85662  15.089  40.450  13.443
24297W        W85663  34.092  26.500  14.462
24298W        W85664  21.204  27.609   2.785
24299W        W85665  42.032  20.571  10.437
24300W        W85666  32.916  26.580   1.421
24301W        W85667  44.421  29.618  14.814
24302W        W85668  12.812  41.002   3.682
24303W        W85669  26.017   5.369  13.312
24304W        W85670  32.529  10.191   9.969
24305W        W85671  17.588   8.239   1.788
24306W        W85672  31.635  31.594  12.872
24307W        W85673  11.689  28.135  13.936
24308W        W85674  39.354  32.067   3.635
24309W        W85675  41.869  18.744  14.804
24310W        W85676  20.661  27.520   4.225
24311W        W85677   3.340  25.669  12.548
24312W        W85678  31.428  22.198  12.897
24313W        W85679  39.510  23.556  14.401
24314W        W85680  36.377   4.323   0.956
24315W        W85681  33.615  14.714   2.227
24316W        W85682  31.143  10.142   0.785
24317W        W85683   3.727   6.366   0.752
24318W        W85684  42.321  35.927  10.444
24319W        W85685  36.935  20.103  13.976
24320W        W85686  33.910  38.914   3.737
24321W        W85687  33.557  13.663  10.928
24322W        W85688  20.731  31.588   1.273
24323W        W85689  20.250  32.589   2.355
24324W        W85690  40.050   1.259  10.492
24325W        W85691  33.576  22.231  14.996
24326W        W85692  23.012  14.330  12.898
24327W        W85693  20.147  29.595  13.803
24328W        W85694  31.100   5.262  11.526
24329W        W85695  20.187  44.438   1.735
24330W        W85696  16.725  44.411   4.755
24331W        W85697  26.164  30.625  14.766
24332W        W85698  38.943  25.097   0.755
24333W        W85699  43.436  24.993   0.966
24334W        W85700  28.135  18.106  13.389
24335W        W85701  20.198  31.931   0.269
24336W        W85702   2.323   0.766   5.263
24337W        W85703   9.164   2.422   3.287
24338W        W85704  22.114  14.337   0.803
24339W        W85705  23.636   0.373  12.515
24340W        W85706   1.305  41.319  12.910
24341W        W85707   5.709  29.586   0.276
24342W        W85708  33.554  32.474   3.281
24343W        W85709  14.207  40.443  11.880
24344W        W85710  22.136   7.807   3.177
24345W        W85711  28.543  42.491  10.426
24346W        W85712  13.246  12.708  11.080
24347W        W85713  33.387  43.878  10.982
24348W        W85714   0.422   5.418   4.774
24349W        W85715  41.406   4.340  11.064
24350W        W85716  19.748  27.107   4.184
24351W        W85717  36.463  17.228   4.315
24352W        W85718   9.315  35.038  12.499
24353W        W85719  19.213  37.041  14.279
24354W        W85720  19.613  33.938  13.416
24355W        W85721  24.000  17.204  13.003
24356W        W85722  28.126  14.107  11.040
24357W        W85723  34.534  15.317  12.856
24358W        W85724   9.265  13.654   0.958
24359W        W85725   3.739  20.070   3.820
24360W        W85726  27.149  38.981   3.256
24361W        W85727   6.330  34.433  14.275
24362W        W85728  32.073  30.039   1.766
24363W        W85729  11.776  38.939   1.385
24364W        W85730   0.447  10.310  10.951
24365W        W85731  40.822  16.750  14.789
24366W        W85732   0.881  31.455   0.428
24367W        W85733   7.358  38.930  13.343
24368W        W85734   1.765  43.816   4.616
24369W        W85735   5.862   4.312   2.291
24370W        W85736  26.128  36.528   3.713
24371W        W85737   0.921  40.483  11.884
24372W        W85738  26.565  37.553   4.188
24373W        W85739   9.647  16.641  13.841
24374W        W85740  16.567  30.947  11.377
24375W        W85741  34.883  14.130   5.140
24376W        W85742   1.380  16.715  12.446
24377W        W85743  17.615   6.364   1.865
24378W        W85744   0.744   9.837   0.434
24379W        W85745  43.493  36.365  11.399
24380W        W85746  16.186  33.494   1.434
24381W        W85747  20.679  26.008  12.557
24382W        W85748  22.240  14.229   2.393
24383W        W85749  42.025   1.383  12.940
24384W        W85750  26.485  44.826  11.550
24385W        W85751  35.521  32.959   0.305
24386W        W85752  18.598  24.486  13.331
24387W        W85753  42.383  35.899  13.403
24388W        W85754  40.970  27.490  13.492
24389W        W85755  15.135  44.361  10.561
24390W        W85756  23.187  28.599  11.044
24391W        W85757  31.102  41.943   5.084
24392W        W85758   0.254  28.454   1.323
24393W        W85759  18.054  15.647   3.703
24394W        W85760  17.148  18.772   4.602
24395W        W85761  25.598   3.295  13.317
24396W        W85762   6.832  29.967  13.021
24397W        W85763  23.577  40.503   2.781
24398W        W85764  40.493   1.361   2.884
24399W        W85765  25.078   4.243   0.799
24400W        W85766  16.248  30.947   2.270
24401W        W85767   2.862  32.486  11.611
24402W        W85768  40.939  12.668   3.381
24403W        W85769  30.657  19.232   5.246
24404W        W85770   7.206   4.826  14.415
24405W        W85771  36.944  32.582   4.150
24406W        W85772  41.865  39.871  12.563
24407W        W85773  37.893  11.673  14.502
24408W        W85774  19.749  28.446   0.889
24409W        W85775  25.527   0.899  13.879
24410W        W85776  44.988  12.778   1.713
24411W        W85777   4.402  37.582   2.720
24412W        W85778  13.828  43.395   4.685
24413W        W85779   5.899   4.729  12.368
24414W        W85780  23.107  16.282   1.924
24415W        W85781  30.655   7.744   3.327
24416W        W85782  17.732  13.305  13.380
24417W        W85783  37.412  22.637   4.648
24418W        W85784  44.868  20.200   4.218
24419W        W85785  35.374  36.919  13.884
24420W        W85786   5.761  21.250  10.044
24421W        W85787   1.971  26.667   4.805
24422W        W85788  15.815  42.974   0.458
24423W        W85789  39.883  22.595  13.008
24424W        W85790  37.399  44.953  11.572
24425W        W85791   7.347  41.899  12.556
24426W        W85792  20.748  30.990   4.790
24427W        W85793  33.989  30.959   2.418
24428W        W85794  14.670  30.127   0.940
24429W        W85795  20.031  12.766  12.569
24430W        W85796   8.243  21.034  10.586
24431W        W85797  14.690   5.920  14.867
24432W        W85798  38.873   7.737   0.849
24433W        W85799  42.879   7.205   1.410
24434W        W85800   0.967  25.520  14.320
24435W        W85801  42.874   9.772   1.273
24436W        W85802  24.718   4.932   0.781
24437W        W85803   1.407  42.478   2.836
24438W        W85804  41.801  25.712  10.428
24439W        W85805  20.250  17.675   4.126
24440W        W85806  39.353  25.523   1.821
24441W        W85807  41.980   0.943  10.483
24442W        W85808  13.773  20.187   1.767
24443W        W85809  27.012  11.726   2.364
24444W        W85810  36.983  31.552  11.021
24445W        W85811   7.225  36.978  14.368
24446W        W85812  32.893  43.999  11.884
24447W        W85813  23.667  43.486  12.355
24448W        W85814  38.358  33.949  13.029
24449W        W85815   9.302  22.248  14.874
24450W        W85816  25.210  17.246   4.195
24451W        W85817  23.671   0.438   3.832
24452W        W85818  14.330  32.141   4.607
24453W        W85819  21.625  21.606  12.565
24454W        W85820   2.750   0.969  11.106
24455W        W85821  31.936   2.403   1.321
24456W        W85822  43.495  39.976  11.992
24457W        W85823   7.184  27.982   3.648
24458W        W85824  21.017  21.647   2.417
24459W        W85825  17.113  18.060   3.669
24460W        W85826  10.369   5.877   3.806
24461W        W85827  14.159  31.924  14.769
24462W        W85828   7.736  17.635  12.372
24463W        W85829  36.033  36.359   0.290
24464W        W85830   9.860  33.004   1.333
24465W        W85831  32.625   6.821   4.249
24466W        W85832  20.232  10.259  14.981
24467W        W85833   4.790  14.739  14.873
24468W        W85834  32.034  15.233   0.454
24469W        W85835  33.410  16.153   3.779
24470W        W85836  13.165  20.626  11.596
24471W        W85837  42.029   2.241  14.887
24472W        W85838  22.715  24.486   1.248
24473W        W85839  11.292  39.328   3.635
24474W        W85840  12.799  39.836  13.875
24475W        W85841  35.582  25.034  12.406
24476W        W85842  17.279  11.342  13.368
24477W        W85843  22.505  18.629   5.311
24478W        W85844  35.993   6.862   1.873
24479W        W85845  15.737  32.959  14.942
24480W        W85846  10.796   0.779  10.464
24481W        W85847   1.765  34.592   2.782
24482W        W85848   5.413  28.438   3.370
24483W        W85849  31.029  39.830  11.929
24484W        W85850  19.751  26.048   4.244
24485W        W85851  13.239  41.005  14.432
24486W        W85852  19.241   5.845  12.095
24487W        W85853  10.346  32.026   5.128
24488W        W85854  33.437  24.157   4.273
24489W        W85855  10.637  36.389   0.257
24490W        W85856  14.290   3.313  12.386
24491W        W85857  12.328  35.079   3.732
24492W        W85858   7.391  26.001   1.409
24493W        W85859  43.815  34.910  14.818
24494W        W85860  16.202  39.935  10.589
24495W        W85861  30.966   7.357   4.292
24496W        W85862  18.133   5.411  13.906
24497W        W85863   8.360  37.049   3.838
24498W        W85864  15.757  11.135   3.677
24499W        W85865   6.727  17.261  12.354
24500W        W85866   9.285  27.178  14.948
24501W        W85867  44.885  24.225  11.451
24502W        W85868  20.612  15.129   3.790
24503W        W85869  18.671  26.649  10.900
24504W        W85870  26.111  28.087  13.820
24505W        W85871  17.576   8.374  12.551
24506W        W85872  34.446  35.058   3.255
24507W        W85873  18.687  25.189  13.887
24508W        W85874   4.878  42.837   1.737
24509W        W85875  19.575  39.848  11.463
24510W        W85876   1.368  39.388   4.301
24511W        W85877  34.996   2.293  11.444
24512W        W85878  37.882  32.986  14.771
24513W        W85879  33.099  27.069   2.390
24514W        W85880   0.414  22.511  11.978
24515W        W85881  42.356  38.062  13.416
24516W        W85882   8.732   9.839  11.535
24517W        W85883  41.963  31.062   4.610
24518W        W85884  34.083  35.467   2.818
24519W        W85885  44.414  27.563  14.892
24520W        W85886  35.373   5.257  11.588
24521W        W85887  38.399   5.774   2.853
24522W        W85888  24.016   0.862   5.118
24523W        W85889   1.255  24.200  13.484
24524W        W85890   8.865  21.610   0.761
24525W        W85891  25.968   2.720  13.456
24526W        W85892  19.637  19.678  11.982
24527W        W85893  40.951  14.739   1.320
24528W        W85894  23.135  28.071   4.659
24529W        W85895  29.151  26.559  14.391
24530W        W85896  23.655  32.128  13.457
24531W        W85897  27.014  19.141   2.328
24532W        W85898  39.408  10.164   0.796
24533W        W85899  27.647  33.032   1.295
24534W        W85900  23.989  19.558   5.211
24535W        W85901  42.502  28.570  10.539
24536W        W85902  14.171  25.027  13.987
24537W        W85903  25.472   4.316   3.724
24538W        W85904   0.431  38.335  12.095
24539W        W85905  41.800  15.159   4.262
24540W        W85906  25.017   2.370  11.027
24541W        W85907  28.076  24.167   0.840
24542W        W85908  18.737  44.934  10.900
24543W        W85909  10.350  23.495   1.720
24544W        W85910  26.991  17.598   4.243
24545W        W85911  24.592  37.866   0.953
24546W        W85912  44.788  41.448   1.711
24547W        W85913  41.928  12.358  14.915
24548W        W85914  35.493  41.344   1.785
24549W        W85915  42.016   9.201  13.041
24550W        W85916  40.474  17.673   2.387
24551W        W85917  34.937  43.869  14.892
24552W        W85918   7.874  32.029   2.697
24553W        W85919   4.810  43.498  10.978
24554W        W85920  33.084  12.138  11.102
24555W        W85921  14.591  13.660  12.383
24556W        W85922  34.038  43.389  14.355
24557W        W85923  26.187  21.044  11.931
24558W        W85924  41.981   6.801   2.283
24559W        W85925  28.060   4.801  14.840
24560W        W85926  14.747  23.223  13.468
24561W        W85927  15.654  33.417  14.453
24562W        W85928  12.833  19.584  10.888
24563W        W85929   2.316  38.014   0.864
24564W        W85930  28.137  18.263   2.715
24565W        W85931  20.056   4.768  14.820
24566W        W85932   3.818   4.436   2.833
24567W        W85933  33.978   6.709   3.340
24568W        W85934  32.506  41.342   0.745
24569W        W85935  31.012   6.236   5.139
24570W        W85936  15.690  39.960   4.776
24571W        W85937  28.050  24.008   4.613
24572W        W85938   2.442  39.444   1.373
24573W        W85939  35.496  14.737  12.017
24574W        W85940  30.582  11.369  13.358
24575W        W85941   8.179  15.685  13.026
24576W        W85942  17.083   3.831   1.320
24577W        W85943  20.087  32.490  13.533
24578W        W85944  35.086  34.894  13.019
24579W        W85945  40.522  23.024   2.296
24580W        W85946   9.342   6.407  11.121
24581W        W85947  42.972  32.444   2.359
24582W        W85948  21.584   8.706  10.554
24583W        W85949  30.654   4.845  13.806
24584W        W85950  44.894  11.725   1.927
24585W        W85951   2.357   7.771  11.893
24586W        W85952  10.383   8.697  11.042
24587W        W85953  27.627  38.469   0.730
24588W        W85954   9.780  33.934  12.480
24589W        W85955  39.550  14.157   1.298
24590W        W85956  24.502  21.512  13.488
24591W        W85957   7.830  13.744  10.457
24592W        W85958  14.657  25.574  11.493
24593W        W85959  27.656  38.343  10.576
24594W        W85960  30.003  15.822   2.181
24595W        W85961  42.020  27.653   2.679
24596W        W85962   0.769  21.677  14.933
24597W        W85963  14.215  11.212  10.509
24598W        W85964  29.602  17.168  11.892
24599W        W85965  41.528  24.222   4.807
24600W        W85966  21.042  14.252  10.018
24601W        W85967  10.639  29.084   3.650
24602W        W85968  25.973  14.148   5.229
24603W        W85969  21.217  27.037  12.898
24604W        W85970  21.157   6.880   2.299
24605W        W85971   3.410  32.435  11.597
24606W        W85972  30.144  20.057  11.486
24607W        W85973   3.225  22.037   3.160
24608W        W85974   1.430  35.917  13.004
24609W        W85975   1.444  35.108   1.763
24610W        W85976  26.143   7.208   4.296
24611W        W85977  34.978  42.951  12.461
24612W        W85978  27.585   6.281  14.512
24613W        W85979  26.506  22.028  12.445
24614W        W85980  22.680  13.275   0.807
24615W        W85981  34.002  34.423  14.790
24616W        W85982  18.644  39.910   1.451
24617W        W85983  31.048  15.298   1.792
24618W        W85984  30.469   9.645  13.365
24619W        W85985  10.753   2.907   2.758
24620W        W85986  42.381  25.577  14.805
24621W        W85987  17.800  20.588   3.759
24622W        W85988  36.429   7.819  11.519
24623W        W85989  30.591  27.008  11.556
24624W        W85990  15.789  37.457  14.812
24625W        W85991   4.213  31.503  12.863
24626W        W85992  42.445  14.224   2.809
24627W        W85993  20.559  17.632  14.818
24628W        W85994  43.931   9.319   3.841
24629W        W85995  37.024   2.795  14.952
24630W        W85996  20.662  17.168  10.501
24631W        W85997  12.682  14.647   1.258
24632W        W85998  14.263  25.134  11.392
24633W        W85999  27.506   2.324  14.982
24634W        W86000  40.517   7.284  14.831
24635W        W86001  31.084  24.480   1.239
24636W        W86002  27.132  18.290   1.305
24637W        W86003  42.894  19.166  14.428
24638W        W86004  21.673  39.997   4.781
24639W        W86005  14.203  14.124   4.778
24640W        W86006  25.110   5.789   2.310
24641W        W86007  30.413  22.737   1.834
24642W        W86008  41.813  12.833   2.298
24643W        W86009  18.600  35.392  12.083
24644W        W86010  23.062  19.166   2.272
24645W        W86011  14.223  44.500  13.508
24646W        W86012  14.222  33.385  10.534
24647W        W86013  34.576  10.291  10.156
24648W        W86014   4.732   8.242  11.589
24649W        W86015  43.349  23.211   3.176
24650W        W86016   0.859  39.975   2.662
24651W        W86017  11.851  14.818  13.029
24652W        W86018  19.160   6.907   1.351
24653W        W86019  40.816  42.380  13.873
24654W        W86020   1.780  36.496   1.343
24655W        W86021  26.603  40.899   2.764
24656W        W86022  15.742  35.908   1.717
24657W        W86023  20.236   0.818   3.163
24658W        W86024   0.905  13.827   4.246
24659W        W86025  17.574  35.049   3.167
24660W        W86026  32.460  41.840   2.349
24661W        W86027   2.890  21.156   4.634
24662W        W86028  28.668  13.182   4.662
24663W        W86029  34.955  11.801  13.333
24664W        W86030  21.727  20.594  14.816
24665W        W86031  41.031  24.682   2.202
24666W        W86032  18.728  39.391  14.904
24667W        W86033  35.591  12.623  11.066
24668W        W86034  29.961  35.982  13.414
24669W        W86035  39.524  32.606   3.163
24670W        W86036  21.693  44.845  14.013
24671W        W86037  26.576   0.402   0.913
24672W        W86038  37.401  24.182  10.489
24673W        W86039  34.593  18.682   2.844
24674W        W86040  20.568  26.162   1.901
24675W        W86041  28.107  21.073  10.535
24676W        W86042  33.889   0.927  12.558
24677W        W86043  41.015  34.875   4.191
24678W        W86044   6.261  11.624   9.923
24679W        W86045   6.692  28.023   1.370
24680W        W86046  28.956   3.421  14.403
24681W        W86047  26.951  12.814  13.975
24682W        W86048  27.672  10.325  11.579
24683W        W86049  20.718  43.884  12.974
24684W        W86050  27.611  21.614   1.836
24685W        W86051  10.820  33.618   2.838
24686W        W86052  16.684  38.419  11.377
24687W        W86053  44.394  19.658  12.386
24688W        W86054   7.716  39.533   3.728
24689W        W86055   5.720  41.342  11.570
24690W        W86056  36.867  20.736  11.056
24691W        W86057  37.946  23.643  11.121
24692W        W86058   2.907  37.447   0.851
24693W        W86059  26.688  39.515   4.126
24694W        W86060  43.319  20.734   3.191
24695W        W86061  42.370  30.073   3.384
24696W        W86062  29.544  18.289  13.840
24697W        W86063   0.871   9.329   0.462
24698W        W86064  41.499  30.945  13.500
24699W        W86065  10.854  15.258   3.215
24700W        W86066  24.593  12.296   1.814
24701W        W86067  28.140  42.852  13.494
24702W        W86068   3.244  44.469  13.015
24703W        W86069  41.801  36.508   0.483
24704W        W86070  27.572  37.549   1.870
24705W        W86071  27.654   7.691  11.058
24706W        W86072  37.428  43.975   2.353
24707W        W86073  24.107  30.558   5.102
24708W        W86074  40.409  24.490  11.086
24709W        W86075   2.245  24.195  12.083
24710W        W86076  38.502  33.381   3.808
24711W        W86077  37.461  21.088  14.406
24712W        W86078   8.254  13.347  11.084
24713W        W86079  26.523  16.792  11.890
24714W        W86080  33.500   2.350   1.811
24715W        W86081  24.540  31.530  12.568
24716W        W86082  27.182  13.303   4.786
24717W        W86083  23.128  41.509   3.819
24718W        W86084  18.289  21.733   3.736
24719W        W86085  34.598   0.444  11.397
24720W        W86086  17.614  42.945  11.391
24721W        W86087  26.635  36.583   2.870
24722W        W86088  16.620  15.716  13.348
24723W        W86089  19.162  19.605   4.326
24724W        W86090  28.605  15.797   0.859
24725W        W86091   8.215  22.135  14.383
24726W        W86092  19.086  24.982   5.169
24727W        W86093  13.198  39.849   1.386
24728W        W86094  12.138  37.054   2.814
24729W        W86095  44.988  18.701  13.853
24730W        W86096  44.958   3.414  11.455
24731W        W86097  17.586  34.883   2.899
24732W        W86098  23.049  36.448  13.959
24733W        W86099  42.800   6.735  13.834
24734W        W86100   7.223   3.434  14.838
24735W        W86101  34.946  24.597  11.942
24736W        W86102  18.105   7.411   0.323
24737W        W86103  31.419  40.401   4.819
24738W        W86104  37.490  39.381   2.857
24739W        W86105  22.533  42.867   1.920
24740W        W86106  19.618  27.633   2.247
24741W        W86107   3.759  13.183   0.858
24742W        W86108  26.159  33.566  13.504
24743W        W86109   1.322   4.896  14.913
24744W        W86110  41.900  39.015   0.930
24745W        W86111  15.580  33.125   3.807
24746W        W86112  43.428  44.914  14.003
24747W        W86113  42.806  21.695  13.475
24748W        W86114   9.826  36.074  13.484
24749W        W86115  13.713  33.066  13.489
24750W        W86116  11.709  11.689   9.969
24751W        W86117  34.055  19.222   0.870
24752W        W86118  17.679  25.138  14.000
24753W        W86119  41.292   9.722   2.749
24754W        W86120  35.428  34.080  13.816
24755W        W86121   8.755  28.067   2.354
24756W        W86122  24.040  11.236  11.521
24757W        W86123   8.891  22.099  13.796
24758W        W86124  37.558  28.442   4.753
24759W        W86125   7.695  11.128  11.405
24760W        W86126   2.845  11.298  11.408
24761W        W86127   0.938  39.918  14.430
24762W        W86128   4.873  14.166   4.681
24763W        W86129  10.143   3.767  13.337
24764W        W86130  35.994  21.043  11.607
24765W        W86131  34.385  33.017   2.703
24766W        W86132  44.283  41.448   2.721
24767W        W86133  30.629   4.787   2.886
24768W        W86134  42.027  25.695  12.339
24769W        W86135  12.843  39.517   2.887
24770W        W86136   6.785  15.285  14.917
24771W        W86137  10.858  39.524  12.502
24772W        W86138  25.700  35.397   2.890
24773W        W86139   4.941  41.891   2.848
24774W        W86140   0.933   8.394  10.472
24775W        W86141  41.509  15.764   2.300
24776W        W86142  21.605  21.709  13.532
24777W        W86143  29.131  32.012   1.903
24778W        W86144   1.921  41.467   4.235
24779W        W86145  26.118  12.267   0.275
24780W        W86146  42.894  27.637   4.661
24781W        W86147   3.789  27.585  12.830
24782W        W86148   5.815   7.716  12.942
24783W        W86149  33.991  17.179  12.409
24784W        W86150  39.517  19.720  12.004
24785W        W86151  14.188  34.030  10.540
24786W        W86152  11.664  19.220   1.279
24787W        W86153  12.722  43.851   0.844
24788W        W86154  14.638   7.897   4.257
24789W        W86155  21.681   4.704   2.806
24790W        W86156  40.494  43.448  11.480
24791W        W86157  29.979  40.411  13.471
24792W        W86158  34.399   9.331  12.546
24793W        W86159  37.039  11.669   4.251
24794W        W86160  28.573  14.244   3.805
24795W        W86161   6.209  34.117  10.407
24796W        W86162  34.906  33.407  13.461
24797W        W86163  18.714  21.746  14.800
24798W        W86164   0.790  24.494   1.865
24799W        W86165  31.439  32.142   4.259
24800W        W86166   3.306  31.545  13.845
24801W        W86167  21.689  11.727   2.828
24802W        W86168  40.946  23.700  12.382
24803W        W86169  33.434  14.182  13.930
24804W        W86170  19.757  38.014  13.362
24805W        W86171  17.236  43.398  14.399
24806W        W86172  39.497  29.040  11.965
24807W        W86173  44.918  35.913   4.198
24808W        W86174   7.776  27.498  10.988
24809W        W86175   7.780  43.445  13.434
24810W        W86176  25.086  32.074   0.757
24811W        W86177  41.876   2.720  13.359
24812W        W86178  44.907   3.873  14.447
24813W        W86179  22.684  25.179  12.893
24814W        W86180  33.917  25.179   4.233
24815W        W86181   6.692  43.848  11.454
24816W        W86182  17.150  19.552  13.424
24817W        W86183  28.023   1.340  10.620
24818W        W86184  38.435  37.520  11.979
24819W        W86185  34.049  28.457  12.555
24820W        W86186  40.996  11.316   1.441
24821W        W86187  40.978   8.245  13.332
24822W        W86188  13.319  31.446  14.948
24823W        W86189  20.724  20.044  14.325
24824W        W86190  38.570   1.337  13.948
24825W        W86191  26.458  39.428   4.617
24826W        W86192  20.612  34.878   3.290
24827W        W86193  14.727  13.107  10.963
24828W        W86194  11.296   0.320  13.037
24829W        W86195  22.166   3.335   1.295
24830W        W86196  28.600  12.200   4.738
24831W        W86197  17.620   4.386   3.335
24832W        W86198  41.851  42.419  14.372
24833W        W86199   4.257   8.388  14.430
24834W        W86200  24.153   5.730   9.475
24835W        W86201   1.448  30.091  14.837
24836W        W86202  43.008  30.542   4.255
24837W        W86203   4.776  42.453  12.823
24838W        W86204   8.345  31.135   0.305
24839W        W86205  30.431  40.903  14.846
24840W        W86206  25.076  17.100   3.344
24841W        W86207  19.251  24.518  12.565
24842W        W86208  31.580  42.996   1.749
24843W        W86209  22.009  13.127   0.317
24844W        W86210  37.842   1.930  13.370
24845W        W86211  28.022   3.948  11.953
24846W        W86212  32.961   5.818  11.915
24847W        W86213  15.644   1.772   0.899
24848W        W86214  23.544   4.413   3.338
24849W        W86215  30.935   6.799   3.747
24850W        W86216  10.707  43.944   1.236
24851W        W86217   3.229  23.725  11.110
24852W        W86218  19.119   7.399   1.336
24853W        W86219  36.090  35.503  14.914
24854W        W86220  37.933  41.861   9.527
24855W        W86221   0.873  13.275   3.337
24856W        W86222  38.402  12.662  13.917
24857W        W86223  25.660  31.037  11.981
24858W        W86224  10.191  31.461  10.408
24859W        W86225   5.892  24.197  12.455
24860W        W86226   3.723  19.135   4.336
24861W        W86227   4.759   1.237  11.972
24862W        W86228  11.228  18.223  10.989
24863W        W86229  24.567   7.826  12.472
24864W        W86230   1.314   0.307   3.306
24865W        W86231  24.028  22.159   0.759
24866W        W86232  33.498  35.527  13.866
24867W        W86233  42.513   8.229   1.326
24868W        W86234   8.765  39.544   0.793
24869W        W86235   2.436  32.582   4.688
24870W        W86236   2.847  14.823  14.009
24871W        W86237  32.069  34.097  14.498
24872W        W86238   3.815  17.161  10.630
24873W        W86239  19.773  44.914  13.440
24874W        W86240   9.245  21.119   1.294
24875W        W86241  10.797  14.669   1.333
24876W        W86242  20.193  20.258   3.748
24877W        W86243  34.099  33.901   4.299
24878W        W86244  10.326   9.800   1.860
24879W        W86245  33.449  42.801  11.038
24880W        W86246  23.558  23.582   0.367
24881W        W86247  12.628  34.001  13.363
24882W        W86248  19.592  33.423  12.434
24883W        W86249  42.810  10.659  11.436
24884W        W86250  28.467  12.636   3.301
24885W        W86251  14.327  16.677  12.831
24886W        W86252  29.633   9.766   2.751
24887W        W86253  16.281  12.727   2.728
24888W        W86254   3.945  28.128  13.989
24889W        W86255   2.409  36.504  15.000
24890W        W86256  13.680  18.116  14.803
24891W        W86257   4.841  44.333   2.279
24892W        W86258  20.667  32.508  10.997
24893W        W86259  41.414  18.157  14.864
24894W        W86260  11.313  40.883   3.203
24895W        W86261   7.729  28.033   2.709
24896W        W86262  31.586  29.114   1.898
24897W        W86263  27.079  39.421   1.245
24898W        W86264  41.475  21.734   2.897
24899W        W86265   1.811  26.082   4.320
24900W        W86266   1.912  29.148  13.832
24901W        W86267  43.486   3.845  10.965
24902W        W86268  43.803  23.011   0.819
24903W        W86269   6.683  34.477  14.769
24904W        W86270   4.909  23.498  11.948
24905W        W86271  23.632  14.808  14.412
24906W        W86272  33.072  27.669   0.479
24907W        W86273  31.112  38.933   1.358
24908W        W86274  32.408   1.300   1.397
24909W        W86275  13.723  22.580   0.399
24910W        W86276  24.684  37.471   3.714
24911W        W86277  39.009   4.376  13.840
24912W        W86278   4.393  31.093   4.777
24913W        W86279  21.025  35.052  12.385
24914W        W86280  29.509   3.419   3.695
24915W        W86281  19.537  26.494   3.666
24916W        W86282  39.466  23.651  11.398
24917W        W86283   1.259  17.787  13.920
24918W        W86284   9.226  16.182  13.384
24919W        W86285  39.420  12.710  11.107
24920W        W86286  33.105  38.829   3.185
24921W        W86287  17.233   0.964   4.644
24922W        W86288   5.914   3.929  13.958
24923W        W86289  18.231  10.693   0.809
24924W        W86290  42.410  33.618   2.773
24925W        W86291  22.125  29.440  13.362
24926W        W86292  27.665  21.561   0.889
24927W        W86293   2.898  38.878   0.351
24928W        W86294  36.465  31.113   1.388
24929W        W86295   3.830  25.983  14.315
24930W        W86296  40.358   5.692  13.878
24931W        W86297  29.503  44.976  11.978
24932W        W86298  39.490  12.707   0.437
24933W        W86299  24.111  44.925  14.914
24934W        W86300  22.123  39.325  11.554
24935W        W86301  15.265   2.350   3.740
24936W        W86302  28.626   8.726   0.255
24937W        W86303   6.685  32.038  11.372
24938W        W86304  25.565  34.985   4.182
24939W        W86305  38.041  15.585   3.719
24940W        W86306   8.234  20.145  11.477
24941W        W86307  18.711  38.473   1.889
24942W        W86308  40.825  39.444   3.344
24943W        W86309  36.956  14.241  14.922
24944W        W86310  41.889  42.946   3.148
24945W        W86311  28.010  21.047  14.923
24946W        W86312  27.643   3.950   2.780
24947W        W86313   4.873  18.754  10.922
24948W        W86314   0.806   2.794  12.419
24949W        W86315  10.651   9.176   4.343
24950W        W86316  40.518   3.861  13.012
24951W        W86317  26.567   3.303  13.360
24952W        W86318  24.718  21.593   2.329
24953W        W86319   5.367  24.204  10.459
24954W        W86320  20.249  30.073   4.165
24955W        W86321  40.458   5.332  11.457
24956W        W86322  26.998  13.213   2.344
24957W        W86323  29.651  14.204   2.183
24958W        W86324  41.880  17.170  13.970
24959W        W86325  22.645   3.883  12.887
24960W        W86326   8.242  22.188  10.920
24961W        W86327  25.498  42.512  12.371
24962W        W86328  35.910  30.611   3.152
24963W        W86329  17.248  12.622  10.926
24964W        W86330  28.961  27.158   2.357
24965W        W86331  20.689  36.856   1.764
24966W        W86332  34.417   2.338   3.151
24967W        W86333   4.394  12.255   2.669
24968W        W86334  13.615  28.125  14.471
24969W        W86335   3.342  38.368  13.843
24970W        W86336  23.056   2.471  13.022
24971W        W86337  33.041   1.891  14.348
24972W        W86338  41.899   4.757   1.411
24973W        W86339  20.084  31.978   0.958
24974W        W86340   0.890  42.523   1.294
24975W        W86341  29.971   5.854   0.262
24976W        W86342  14.594  44.835   1.807
24977W        W86343  18.777  28.681   3.351
24978W        W86344  25.645   8.356   0.860
24979W        W86345   4.871  24.079   3.345
24980W        W86346  44.762  33.080  13.018
24981W        W86347  19.231  34.523   2.244
24982W        W86348  43.502  38.065   4.761
24983W        W86349  12.658  32.399   2.248
24984W        W86350  36.571  31.975  12.032
24985W        W86351  39.902  21.147   2.822
24986W        W86352  25.146  30.616  13.959
24987W        W86353  35.493  15.096   0.307
24988W        W86354   6.831   0.259   1.222
24989W        W86355  39.433  18.107   1.373
24990W        W86356  44.780  10.349   0.296
24991W        W86357  23.005   9.685  10.592
24992W        W86358   4.397  43.477   2.891
24993W        W86359  20.143   0.354  11.911
24994W        W86360  28.642   0.979  10.110
24995W        W86361  28.964  18.651  14.384
24996W        W86362  10.730  16.703  11.552
24997W        W86363  20.698  38.400  12.823
24998W        W86364  38.927  42.796  14.360
24999W        W86365  43.819  15.183  10.496
25000W        W86366  27.536   6.328   1.858
25001W        W86367  11.179  12.206  10.935
25002W        W86368   5.338  38.068   0.352
25003W        W86369   2.935  40.504   4.183
25004W        W86370  31.581   4.859  11.870
25005W        W86371  25.673  21.709   0.328
25006W        W86372  23.138  35.434   5.124
25007W        W86373   4.366  12.211  14.329
25008W        W86374  39.898  43.809   4.200
25009W        W86375   4.270  25.674  10.438
25010W        W86376  42.382  28.129  13.807
25011W        W86377  31.110   4.789  10.923
25012W        W86378  30.078  16.785  11.590
25013W        W86379   3.326  34.476   4.286
25014W        W86380  31.514  41.802  10.457
25015W        W86381  14.762   9.324  10.936
25016W        W86382  42.409  11.753  11.967
25017W        W86383   9.302  20.252   0.309
25018W        W86384  27.031  34.975   3.360
25019W        W86385  41.987  12.789   1.294
25020W        W86386  24.183  14.231   4.327
25021W        W86387  41.327  13.729  13.505
25022W        W86388   2.883   2.796  11.611
25023W        W86389  22.179  43.382  13.405
25024W        W86390  17.127  13.704   0.912
25025W        W86391  34.054  35.506  13.039
25026W        W86392  44.380  28.671  13.483
25027W        W86393  36.049  28.951  13.427
25028W        W86394  42.843  34.098  13.887
25029W        W86395   9.318  15.167   1.249
25030W        W86396  28.069   6.799  10.161
25031W        W86397  29.001   4.250   2.278
25032W        W86398  40.875   6.795   3.168
25033W        W86399  26.106  33.934  12.367
25034W        W86400  43.861  13.128  11.499
25035W        W86401  44.950   1.955  13.341
25036W        W86402   9.742  37.369   2.665
25037W        W86403   8.766   3.431   0.357
25038W        W86404  37.870  41.798  11.892
25039W        W86405  43.316  23.568   3.324
25040W        W86406   8.785  38.051   2.354
25041W        W86407  35.955  16.258  12.922
25042W        W86408  21.087  33.017  10.532
25043W        W86409  19.200   7.820  10.548
25044W        W86410   9.764  39.454  11.021
25045W        W86411  10.202  25.645  11.958
25046W        W86412  38.467  12.797  14.989
25047W        W86413  32.549   4.906  11.420
25048W        W86414  23.191  16.713   1.393
25049W        W86415  24.488  36.061  12.976
25050W        W86416  11.658  33.094   2.689
25051W        W86417  40.444   6.427   2.262
25052W        W86418   5.916  16.171  12.508
25053W        W86419  11.691  23.072  14.966
25054W        W86420  37.410  40.346  10.904
25055W        W86421  17.734  23.126  11.035
25056W        W86422   2.459   6.207   0.268
25057W        W86423  21.572  43.827  14.015
25058W        W86424  19.653  35.065   4.212
25059W        W86425  36.029   3.837  13.969
25060W        W86426   4.752  12.638  14.303
25061W        W86427  40.437  44.812  13.793
25062W        W86428  40.026  26.070  10.484
25063W        W86429  32.584  38.553   3.736
25064W        W86430  33.923  30.982  13.547
25065W        W86431  40.853   1.799   0.769
25066W        W86432  31.404  44.305   3.156
25067W        W86433  41.317  37.025  13.793
25068W        W86434  43.398   7.172  10.155
25069W        W86435   0.807  11.649   3.670
25070W        W86436  42.946  32.572  12.477
25071W        W86437  39.828  40.974   1.210
25072W        W86438  44.795   5.229   1.341
25073W        W86439   9.348  24.164  14.822
25074W        W86440   2.291  36.933   4.146
25075W        W86441  27.446  30.100  14.871
25076W        W86442  33.095  39.462   9.947
25077W        W86443  44.405  31.046   0.444
25078W        W86444  23.580   6.368   4.768
25079W        W86445  41.331  21.712  10.900
25080W        W86446  33.899  18.562  14.450
25081W        W86447  19.182  41.907   4.213
25082W        W86448  22.708  27.125  13.977
25083W        W86449   7.736  15.605   1.865
25084W        W86450  34.880  32.084   1.835
25085W        W86451   9.779   6.815  13.005
25086W        W86452  12.153  10.659   2.716
25087W        W86453   2.828  38.330   3.280
25088W        W86454  17.068   0.344  14.810
25089W        W86455  35.049  27.679  11.036
25090W        W86456  35.521  18.573  11.472
25091W        W86457  13.653  20.748  13.833
25092W        W86458   9.182  19.649   2.893
25093W        W86459  40.930  24.593   1.308
25094W        W86460  21.191   0.269  13.027
25095W        W86461   9.706  44.315   0.381
25096W        W86462  32.910  38.968  13.422
25097W        W86463   9.154   4.441   1.382
25098W        W86464  20.582   2.873   1.759
25099W        W86465   6.867  28.648  10.536
25100W        W86466   9.253  18.176  13.437
25101W        W86467  25.670  37.404   4.127
25102W        W86468   7.808  34.573   1.279
25103W        W86469   9.242   4.367  12.479
25104W        W86470  21.124  42.307   4.142
25105W        W86471   9.154  22.161   4.334
25106W        W86472  21.705   8.840  14.953
25107W        W86473  19.674  39.394   3.165
25108W        W86474  32.472  38.868   2.836
25109W        W86475   2.915  37.050  11.513
25110W        W86476  18.061  14.132   3.765
25111W        W86477  17.721  13.257  10.622
25112W        W86478   3.390  36.411  12.914
25113W        W86479   3.368   1.336   3.168
25114W        W86480  41.939   5.417  13.350
25115W        W86481  44.384  10.696  13.962
25116W        W86482  21.659   9.865   3.709
25117W        W86483  23.577   1.801  12.987
25118W        W86484  37.086   6.785  11.515
25119W        W86485  28.935  41.939  12.964
25120W        W86486  18.671  36.050   2.339
25121W        W86487  10.290  34.472  12.004
25122W        W86488  43.851  20.239  14.507
25123W        W86489  25.536  16.789  11.964
25124W        W86490  33.589  38.879   5.298
25125W        W86491   9.881  27.653   0.481
25126W        W86492  14.248  42.838  10.519
25127W        W86493  27.038  27.449   0.269
25128W        W86494   2.797  26.551  12.926
25129W        W86495  16.318  37.911  10.961
25130W        W86496  31.403   6.370  10.431
25131W        W86497  15.181  27.943   0.370
25132W        W86498  10.775  32.414   4.713
25133W        W86499  28.541  29.958   1.839
25134W        W86500  31.053   1.246  12.000
25135W        W86501  42.998  36.893  12.941
25136W        W86502  27.592  14.195   1.874
25137W        W86503  18.632  23.672  14.885
25138W        W86504  23.731  38.022   2.796
25139W        W86505  29.543  22.997  13.044
25140W        W86506   7.746  20.588   0.460
25141W        W86507  11.139  23.984   3.747
25142W        W86508   4.842  32.568   3.685
25143W        W86509  23.050  32.631   1.420
25144W        W86510   0.845   6.348   9.995
25145W        W86511  15.106   1.348  13.047
25146W        W86512   5.835  25.684  14.898
25147W        W86513   6.749  43.485  11.441
25148W        W86514  29.070  29.451  12.013
25149W        W86515   1.910   1.977   4.637
25150W        W86516  30.922  14.235  10.029
25151W        W86517  27.161  13.603   2.231
25152W        W86518   4.930  38.830   3.216
25153W        W86519  13.603  43.792   3.711
25154W        W86520  15.243  11.185  14.886
25155W        W86521   6.678  39.032  10.033
25156W        W86522  16.258  20.109  14.805
25157W        W86523  11.273  41.431  12.976
25158W        W86524  39.933  11.818   1.221
25159W        W86525  40.018  24.521  13.335
25160W        W86526  22.097  25.020   3.281
25161W        W86527  17.172  43.479   1.741
25162W        W86528  21.198   8.709   4.301
25163W        W86529   3.803  11.755   2.214
25164W        W86530  11.372  24.992  13.856
25165W        W86531  19.657  15.813   2.723
25166W        W86532  26.144   5.896   0.355
25167W        W86533  13.133   0.977   2.394
25168W        W86534  36.854  22.143  10.991
25169W        W86535  24.689   3.747  13.799
25170W        W86536  43.400  25.706  10.469
25171W        W86537  25.978  34.902   3.756
25172W        W86538  42.388  37.367  14.357
25173W        W86539  43.783   7.866  12.530
25174W        W86540  21.142  18.756  12.871
25175W        W86541  31.963  38.346   3.797
25176W        W86542  19.124   4.763   1.221
25177W        W86543  18.154  31.646  11.031
25178W        W86544  43.383   0.381  11.501
25179W        W86545  34.879  27.009  10.614
25180W        W86546   8.716   4.442  14.027
25181W        W86547  41.957  36.390  13.541
25182W        W86548  44.439   0.770  11.941
25183W        W86549  19.779  13.629   3.246
25184W        W86550  12.796  44.782   2.240
25185W        W86551  44.837   5.725   4.753
25186W        W86552  21.578  12.816   4.650
25187W        W86553  42.919   3.892   0.300
25188W        W86554  26.529   5.322  10.961
25189W        W86555  19.181  37.400  10.463
25190W        W86556  18.582  13.264  11.541
25191W        W86557   6.680   3.446   2.338
25192W        W86558  44.883  28.161   2.724
25193W        W86559  14.306  32.931  14.768
25194W        W86560  29.027  17.565   3.765
25195W        W86561  20.147   0.912  11.128
25196W        W86562   5.285  42.786   0.374
25197W        W86563   2.435  22.526   4.824
25198W        W86564  36.484   5.278   2.708
25199W        W86565  15.303  27.455  10.474
25200W        W86566  17.169  15.245   2.196
25201W        W86567   5.931  29.107  14.893
25202W        W86568  33.440  10.383  10.978
25203W        W86569  44.806  29.626   0.941
25204W        W86570  40.526  22.678  13.876
25205W        W86571  32.023  23.143   4.616
25206W        W86572  10.841   2.325  12.072
25207W        W86573  21.609  32.019  11.589
25208W        W86574  17.119   5.248  14.791
25209W        W86575  37.386  36.473   2.815
25210W        W86576   2.382  37.011  12.467
25211W        W86577  26.566  32.535   1.725
25212W        W86578  40.394  23.620   1.211
25213W        W86579   9.767  27.009  12.020
25214W        W86580  25.158   8.843   4.316
25215W        W86581  13.129  37.542  13.879
25216W        W86582  12.664  33.456  13.053
25217W        W86583  16.721  10.701  11.477
25218W        W86584  25.110  32.068   1.920
25219W        W86585  41.415  37.994   3.823
25220W        W86586   7.906  29.448   4.196
25221W        W86587  10.353  32.499   2.264
25222W        W86588  31.516  18.644   3.808
25223W        W86589  30.118   0.876   2.357
25224W        W86590  43.500  25.642  13.422
25225W        W86591  16.756  12.263   4.675
25226W        W86592   5.327  16.628   3.289
25227W        W86593  25.197  11.790   4.143
25228W        W86594  40.983  29.434  11.576
25229W        W86595   4.702  25.967  14.007
25230W        W86596  37.040   3.851   0.820
25231W        W86597  28.947  43.812  14.396
25232W        W86598  11.813  20.158   3.668
25233W        W86599  22.140  16.084   3.149
25234W        W86600  30.469   8.868  12.580
25235W        W86601  14.613  28.495  14.331
25236W        W86602  40.026  19.625   1.286
25237W        W86603  24.079  22.176   4.782
25238W        W86604  42.339   2.254   2.205
25239W        W86605  44.898  14.592   0.314
25240W        W86606  14.675  34.542   3.717
25241W        W86607  27.684  30.913  12.848
25242W        W86608  21.026  22.584  12.861
25243W        W86609  17.165   2.457  11.436
25244W        W86610  19.542  40.321   0.389
25245W        W86611   3.443  27.685  12.065
25246W        W86612  23.192  21.176   0.787
25247W        W86613  24.058  41.422  12.996
25248W        W86614   2.235   1.957   2.345
25249W        W86615  19.652  10.181   2.710
25250W        W86616  19.567  26.695   3.368
25251W        W86617  12.842  11.729  10.417
25252W        W86618  12.698  38.825  14.812
25253W        W86619   2.763  32.427   2.701
25254W        W86620  14.655  37.886  10.524
25255W        W86621  20.071   2.368   2.183
25256W        W86622   9.717  35.915   0.352
25257W        W86623   3.792   1.738   3.634
25258W        W86624   2.767  14.686  14.901
25259W        W86625   8.846  36.876   1.402
25260W        W86626  26.969  43.509   0.308
25261W        W86627  26.047  27.056   3.195
25262W        W86628  12.149  14.756  10.578
25263W        W86629  12.222  39.872  12.847
25264W        W86630   6.425   9.698  14.785
25265W        W86631   4.846  31.588  12.831
25266W        W86632  38.471   0.465   1.407
25267W        W86633  35.911  43.481   2.391
25268W        W86634   7.327  38.491  14.001
25269W        W86635  24.556  42.848  10.406
25270W        W86636  11.329   6.793  14.379
25271W        W86637  44.863  31.645  10.600
25272W        W86638  16.106  32.600   2.190
25273W        W86639  25.709  30.593   2.861
25274W        W86640   0.912  14.211  10.946
25275W        W86641   8.337  20.108  10.432
25276W        W86642  40.935  44.986  14.009
25277W        W86643  37.336  35.000  11.553
25278W        W86644   3.423  21.629  10.528
25279W        W86645  21.246  29.059  12.060
25280W        W86646  27.571  29.573   0.285
25281W        W86647  25.032  16.300   3.349
25282W        W86648  19.189  31.054   4.225
25283W        W86649  42.367  10.772   2.244
25284W        W86650  27.022   0.314   2.380
25285W        W86651  25.994  18.718   3.200
25286W        W86652   5.209   5.373   0.731
25287W        W86653  38.912  19.676   5.241
25288W        W86654  38.489  14.264   3.322
25289W        W86655  39.868  12.289  10.557
25290W        W86656  36.504  41.488   2.768
25291W        W86657  34.512  42.988   0.346
25292W        W86658  29.134  19.768   2.287
25293W        W86659   9.679   9.184  11.492
25294W        W86660  30.133  28.498  13.355
25295W        W86661  44.900  10.170   1.871
25296W        W86662  30.996   9.210   2.667
25297W        W86663  26.682  17.249  11.594
25298W        W86664  26.992  23.208  11.949
25299W        W86665   3.798  34.908   2.861
25300W        W86666  36.528   7.826   4.282
25301W        W86667  21.112  14.620   2.230
25302W        W86668  20.546  13.215  12.500
25303W        W86669  23.565   5.373  12.885
25304W        W86670  39.391   7.305   3.205
25305W        W86671  15.101  23.100   2.748
25306W        W86672  25.962  19.189  12.573
25307W        W86673  21.184   4.258  14.897
25308W        W86674  43.869  15.109   4.144
25309W        W86675   5.725  38.452   4.751
25310W        W86676  21.753  23.676   4.697
25311W        W86677   0.813   7.257  10.887
25312W        W86678  40.013  39.380   2.392
25313W        W86679  32.563   0.436   2.733
25314W        W86680  31.402  37.473   3.292
25315W        W86681  20.029   7.905  14.333
25316W        W86682  30.011  12.203   0.291
25317W        W86683  13.606  40.889   3.256
25318W        W86684  25.684  43.411  10.925
25319W        W86685  39.844   1.800   0.817
25320W        W86686  24.222  16.609  12.847
25321W        W86687   1.743  38.424   0.357
25322W        W86688  12.179   9.313  13.923
25323W        W86689  36.475  13.770  11.523
25324W        W86690  41.485   3.370   2.866
25325W        W86691   4.772  42.819  14.499
25326W        W86692   8.172   2.915   2.703
25327W        W86693  15.680   4.220  10.918
25328W        W86694  14.284  40.918   2.243
25329W        W86695   0.874  27.644   0.338
25330W        W86696   6.308   1.775  13.354
25331W        W86697  38.431  33.458   0.365
25332W        W86698  39.386  16.237   3.726
25333W        W86699  29.529  31.955   3.737
25334W        W86700  12.799  28.962  14.946
25335W        W86701  15.126  30.627   2.814
25336W        W86702  10.152   5.425  14.799
25337W        W86703  30.971  10.775  12.031
25338W        W86704  17.112  15.762   3.258
25339W        W86705  10.649  38.919   0.330
25340W        W86706  13.673  23.729  10.437
25341W        W86707  34.463   9.231   0.467
25342W        W86708   2.261  14.243  13.935
25343W        W86709   7.287  40.518   2.221
25344W        W86710  22.033  31.020  12.954
25345W        W86711  36.508  23.024  11.999
25346W        W86712  26.679  31.508  11.118
25347W        W86713  10.757  13.819   4.816
25348W        W86714   4.752  28.585   2.331
25349W        W86715   1.292  12.215  10.573
25350W        W86716   2.363  20.163   2.774
25351W        W86717   5.425   3.273  12.089
25352W        W86718  31.966   6.319   4.806
25353W        W86719  26.688  23.186  14.958
25354W        W86720   3.398  39.996  11.026
25355W        W86721   5.889  10.176  14.869
25356W        W86722  27.074  35.056  14.895
25357W        W86723   8.269  20.646   2.839
25358W        W86724  34.413  11.766  10.604
25359W        W86725   3.920  22.610  11.556
25360W        W86726  29.101  18.199   4.628
25361W        W86727  25.092  43.405   1.212
25362W        W86728   1.439  17.738  10.409
25363W        W86729  38.901   8.317   2.224
25364W        W86730   0.743  13.170   0.462
25365W        W86731  33.082   6.847   2.778
25366W        W86732  44.391  19.197   4.664
25367W        W86733  38.921  14.118   2.762
25368W        W86734  12.795  43.991   1.215
25369W        W86735  12.188  25.172  13.337
25370W        W86736  17.748   6.767  12.553
25371W        W86737  32.919  26.152  12.829
25372W        W86738  39.528  33.456  13.516
25373W        W86739  38.547  31.081  12.823
25374W        W86740  39.964  30.511   2.835
25375W        W86741  10.227  29.667   4.215
25376W        W86742  25.077   2.281  14.322
25377W        W86743  39.927  22.555  11.567
25378W        W86744  37.535  19.151  14.762
25379W        W86745  41.021  38.821   4.724
25380W        W86746  33.604   9.756   1.438
25381W        W86747  35.865  38.437  11.966
25382W        W86748   9.768   2.255  14.884
25383W        W86749  36.872  16.144  13.536
25384W        W86750  26.094   4.922   3.267
25385W        W86751  12.152  26.998   3.345
25386W        W86752   9.265  42.447   2.278
25387W        W86753  29.490  17.304  10.527
25388W        W86754  34.370  33.893   2.236
25389W        W86755  22.243  28.557  13.944
25390W        W86756  36.451  20.073   3.720
25391W        W86757  43.806  18.174   0.396
25392W        W86758   4.823  37.958  11.925
25393W        W86759  34.516  41.791  13.501
25394W        W86760  27.141  24.675   2.724
25395W        W86761  17.568   1.284   1.282
25396W        W86762  27.643  17.204   2.349
25397W        W86763  43.937  34.948   1.820
25398W        W86764  35.070  37.970   4.254
25399W        W86765  25.086   5.300  14.836
25400W        W86766  23.110   3.326  14.434
25401W        W86767  39.871   3.432  14.418
25402W        W86768  18.082   6.417   2.331
25403W        W86769   4.870   4.343   0.955
25404W        W86770  20.220  41.818   2.414
25405W        W86771  33.113  33.592  13.976
25406W        W86772  21.177  31.023   3.193
25407W        W86773  20.746  22.247  11.043
25408W        W86774   0.436  31.514  12.534
25409W        W86775   5.284  33.576  10.986
25410W        W86776   6.281  17.263   4.651
25411W        W86777  22.145   0.452  12.885
25412W        W86778  25.180  25.577   1.295
25413W        W86779  19.561  12.744  14.899
25414W        W86780  20.068  32.037  13.814
25415W        W86781  13.678   0.446   2.380
25416W        W86782  37.831  37.975  10.405
25417W        W86783  12.702  18.786  10.989
25418W        W86784  22.550  25.713   9.989
25419W        W86785   8.873  27.010   2.833
25420W        W86786   6.892  44.836   3.765
25421W        W86787   6.204  11.796  11.420
25422W        W86788  39.883  13.327  11.420
25423W        W86789   1.413  21.699   0.953
25424W        W86790   6.377  17.306  11.423
25425W        W86791  30.509  25.604   3.360
25426W        W86792  19.076   7.357  13.812
25427W        W86793  32.975  27.547  11.514
25428W        W86794  13.345  18.206  10.105
25429W        W86795   5.354  27.513   5.615
25430W        W86796  12.348  22.565  10.522
25431W        W86797  40.545  24.673   2.855
25432W        W86798   1.467   0.420  13.354
25433W        W86799   7.365   8.879  11.880
25434W        W86800  23.222   8.377   1.919
25435W        W86801  17.689   3.266   1.324
25436W        W86802  31.938  18.661  14.875
25437W        W86803  38.855  17.688   4.142
25438W        W86804  23.150  27.113  14.871
25439W        W86805  26.978  42.016  14.849
25440W        W86806  36.061   5.261   0.828
25441W        W86807   3.324  29.079   9.608
25442W        W86808   6.192  40.509  13.977
25443W        W86809  23.575   4.434  14.511
25444W        W86810  29.488  38.477  12.005
25445W        W86811  27.449  28.548  14.859
25446W        W86812  20.195  17.585   2.836
25447W        W86813  10.207  38.365   3.651
25448W        W86814  43.768  22.130  10.417
25449W        W86815  38.057  42.288  11.555
25450W        W86816  27.637  43.863  10.595
25451W        W86817  31.091   5.833   0.303
25452W        W86818  37.078  44.806  12.992
25453W        W86819  34.874  41.410   0.774
25454W        W86820   6.288  33.412  11.976
25455W        W86821  19.131   6.213  11.450
25456W        W86822  37.566  20.176  10.569
25457W        W86823  38.558  13.734   0.931
25458W        W86824  12.268  13.740   3.726
25459W        W86825  28.638  25.167  13.460
25460W        W86826  35.506   4.337  13.369
25461W        W86827  15.667   7.786   1.255
25462W        W86828  13.843  44.401  14.300
25463W        W86829   9.674   8.827   2.364
25464W        W86830   5.423  27.548   4.313
25465W        W86831   7.746  16.694   2.414
25466W        W86832  37.043  16.675  11.595
25467W        W86833  27.991  37.040   2.742
25468W        W86834   7.809   3.423   0.452
25469W        W86835  12.151  36.906   4.769
25470W        W86836  19.068  31.493  11.886
25471W        W86837  23.732  37.954   1.359
25472W        W86838  23.095  40.040  12.950
25473W        W86839  17.731  19.211  14.515
25474W        W86840  16.223  27.981  14.309
25475W        W86841  42.444  18.612  14.913
25476W        W86842  40.354  38.932   1.779
25477W        W86843  42.475  31.588  12.879
25478W        W86844  38.857  17.094   0.921
25479W        W86845  16.569  31.932  13.007
25480W        W86846   5.335  19.648  14.958
25481W        W86847   8.870  24.044  11.416
25482W        W86848  24.054  15.743  10.507
25483W        W86849   9.753  36.531  13.038
25484W        W86850  21.523  23.074  13.816
25485W        W86851   5.199  26.564   4.762
25486W        W86852  35.981   1.847  12.071
25487W        W86853  40.043  10.684  10.644
25488W        W86854  38.420   1.806  13.999
25489W        W86855  26.090   1.344  11.873
25490W        W86856  13.844  24.483  12.448
25491W        W86857  28.625   0.876   4.290
25492W        W86858  28.103   3.322  11.002
25493W        W86859  13.698  17.593   2.411
25494W        W86860  21.110  28.049  13.944
25495W        W86861  38.030   5.203  12.535
25496W        W86862  44.779  41.381   3.328
25497W        W86863   0.297   7.205  13.892
25498W        W86864  29.957  30.103   4.747
25499W        W86865  38.359  25.637  12.460
25500W        W86866  43.315  36.481   3.325
25501W        W86867  21.702  39.423   3.381
25502W        W86868  44.289  42.842  11.905
25503W        W86869   2.889  13.809  14.769
25504W        W86870  35.925  29.600   5.258
25505W        W86871  23.072  14.269  10.895
25506W        W86872   0.813  33.487   4.155
25507W        W86873   9.674  21.587  12.384
25508W        W86874  27.105  37.437  11.048
25509W        W86875  41.795  40.424  11.467
25510W        W86876  25.006  15.316   1.385
25511W        W86877  24.636  38.908  14.323
25512W        W86878  43.477  44.812   3.783
25513W        W86879  34.541  42.890  10.625
25514W        W86880  30.631  41.878  14.948
25515W        W86881  30.596   0.803   0.949
25516W        W86882  31.068  15.796  14.351
25517W        W86883   9.354   4.339   3.630
25518W        W86884  34.029  14.321   1.296
25519W        W86885   4.278  14.594  12.521
25520W        W86886   3.374  25.217   1.424
25521W        W86887  10.278   0.976  10.923
25522W        W86888  33.103   3.734  13.865
25523W        W86889  43.951  39.419   1.903
25524W        W86890   9.844  12.237  12.958
25525W        W86891   6.750  32.551   1.872
25526W        W86892   0.273  40.932   1.809
25527W        W86893   8.201   1.239  13.937
25528W        W86894  19.136  35.439  13.000
25529W        W86895  21.226  29.049  10.062
25530W        W86896  19.533   7.665   5.106
25531W        W86897  27.004  33.994  11.039
25532W        W86898  16.807   7.862  12.535
25533W        W86899  37.849  43.316   2.849
25534W        W86900  31.909  40.499  11.125
25535W        W86901   9.793  13.741  10.994
25536W        W86902  24.663  31.572   3.241
25537W        W86903   6.384  34.481   0.886
25538W        W86904  42.383   3.400  12.943
25539W        W86905  34.421  43.377  14.332
25540W        W86906  21.605  23.170  14.331
25541W        W86907  30.139   8.842  12.463
25542W        W86908   5.286  13.335   5.155
25543W        W86909  13.816  39.899  12.924
25544W        W86910  27.559  11.131  11.521
25545W        W86911  14.745  14.218   0.440
25546W        W86912  43.348  40.869   1.852
25547W        W86913  33.542  40.542   1.346
25548W        W86914  27.151  21.034   2.868
25549W        W86915  25.648  24.083   1.854
25550W        W86916  41.335  41.857   3.336
25551W        W86917  20.631   0.849   0.249
25552W        W86918  43.446   1.837   1.445
25553W        W86919  37.461  27.594  11.093
25554W        W86920   9.160  26.066   0.863
25555W        W86921  39.558  24.994   3.310
25556W        W86922  44.362  18.115  10.958
25557W        W86923  43.497  39.990   2.218
25558W        W86924  32.038  16.708   4.187
25559W        W86925  27.051   1.844   3.760
25560W        W86926  12.237  23.716  13.390
25561W        W86927  43.944  28.124   5.594
25562W        W86928  39.507  22.995  10.582
25563W        W86929  44.937  43.938   0.776
25564W        W86930  18.065  39.436  13.938
25565W        W86931  14.653   2.859   4.257
25566W        W86932  43.513  12.755   4.795
25567W        W86933  18.077  43.864  10.644
25568W        W86934  33.906  19.125   0.281
25569W        W86935  23.145  30.165  11.914
25570W        W86936  22.011  24.669  10.985
25571W        W86937  35.525   6.196  12.471
25572W        W86938  40.853  29.459   3.182
25573W        W86939  44.894  28.448   0.967
25574W        W86940  25.990  28.565  14.377
25575W        W86941  38.953  35.383   4.231
25576W        W86942  38.360  13.707  12.374
25577W        W86943   0.906  11.848   0.816
25578W        W86944   8.337  19.560  10.980
25579W        W86945  42.393   6.730   3.825
25580W        W86946   1.414  35.911   3.809
25581W        W86947   4.725  35.584  10.925
25582W        W86948  21.746  37.540  12.934
25583W        W86949   5.896  44.377   0.892
25584W        W86950  36.462  31.094  10.449
25585W        W86951  42.399  20.548  14.414
25586W        W86952  35.960   8.856   4.638
25587W        W86953  35.502  13.153   3.705
25588W        W86954  39.329  20.210   0.875
25589W        W86955  20.037  36.048  10.511
25590W        W86956  37.532  12.277  13.492
25591W        W86957  14.819   7.879   0.360
25592W        W86958  16.655  44.874  13.327
25593W        W86959   5.732   2.752  12.421
25594W        W86960  28.554  19.735   5.172
25595W        W86961   0.886   7.322   4.255
25596W        W86962   7.391  44.842  12.015
25597W        W86963   3.837  25.639   3.319
25598W        W86964  16.275  16.773   0.760
25599W        W86965   4.209  17.080   2.319
25600W        W86966   7.340  10.340   1.786
25601W        W86967  19.735  21.720   3.347
25602W        W86968  13.309   8.373   0.779
25603W        W86969   3.432  16.630  13.512
25604W        W86970  14.706   3.845   3.283
25605W        W86971  44.404  38.358  12.886
25606W        W86972  14.598  13.340  13.434
25607W        W86973  27.617  13.836   2.419
25608W        W86974   5.347  26.700  13.028
25609W        W86975  36.935  31.116  14.434
25610W        W86976  40.009  14.742  11.101
25611W        W86977  15.253  10.786   0.844
25612W        W86978   6.359  35.575   3.184
25613W        W86979  13.198  29.459   3.206
25614W        W86980  28.145  10.665  12.891
25615W        W86981  16.642  22.021  14.938
25616W        W86982  28.672  25.119   3.294
25617W        W86983  16.793  13.284   1.338
25618W        W86984  39.837  17.081  11.508
25619W        W86985  39.053  16.699  11.910
25620W        W86986  19.263  44.880  11.957
25621W        W86987  43.786  38.521  14.294
25622W        W86988  33.089   7.719  11.878
25623W        W86989  32.439  34.028   0.966
25624W        W86990  31.896  25.128  10.513
25625W        W86991  44.758  34.550  11.383
25626W        W86992  43.481  39.022   4.663
25627W        W86993  19.744  38.912  13.006
25628W        W86994  41.309  17.789  12.451
25629W        W86995  12.830  33.893   3.162
25630W        W86996  11.824   6.192  12.071
25631W        W86997   0.892  41.811  14.772
25632W        W86998  10.726  39.968   2.780
25633W        W86999   4.797   9.230   5.192
25634W        W87000  15.281  38.948  10.963
25635W        W87001  23.075   6.225   4.345
25636W        W87002  13.232   9.648   2.214
25637W        W87003   0.828   0.446   3.629
25638W        W87004  11.682  24.617  11.466
25639W        W87005  36.468   6.772   0.851
25640W        W87006  12.790   3.749   4.814
25641W        W87007   0.810  11.756   1.245
25642W        W87008  36.035  35.582   2.797
25643W        W87009   7.393  37.412  14.795
25644W        W87010   6.704  10.362  14.869
25645W        W87011  27.487  40.447   3.643
25646W        W87012  10.786  26.091   3.807
25647W        W87013  13.160   5.755   1.871
25648W        W87014  39.429  16.268  12.088
25649W        W87015  42.471  23.720   2.669
25650W        W87016   0.822  16.747  12.488
25651W        W87017  11.669  37.013   0.461
25652W        W87018  43.461  35.023  11.549
25653W        W87019  36.066  38.970   1.300
25654W        W87020   2.432   9.202   1.873
25655W        W87021  31.019   1.427   4.152
25656W        W87022  39.971  37.960  10.539
25657W        W87023  35.914  10.284   3.789
25658W        W87024   4.741   2.256  12.535
25659W        W87025  16.707   6.867   3.707
25660W        W87026  28.638   7.400  11.119
25661W        W87027  43.856  19.047  11.055
25662W        W87028  15.631  31.116   1.731
25663W        W87029  42.804  24.715   0.424
25664W        W87030   4.423  21.035  11.408
25665W        W87031  34.599  24.617  10.642
25666W        W87032  29.158   0.354  11.412
25667W        W87033  30.062   5.896  12.418
25668W        W87034   1.929  19.544   3.826
25669W        W87035  27.979  41.786  13.054
25670W        W87036  16.294  37.057  14.363
25671W        W87037  18.599   9.778  12.403
25672W        W87038   8.791  26.075   3.231
25673W        W87039  17.165  40.005   2.710
25674W        W87040  34.510   2.725  13.517
25675W        W87041  27.484  22.145  14.847
25676W        W87042   5.197  42.847  13.051
25677W        W87043  41.458  12.137   3.371
25678W        W87044  21.705  42.928  13.486
25679W        W87045  34.090  16.297  12.437
25680W        W87046  42.519  33.468  10.554
25681W        W87047  19.599   9.334  11.064
25682W        W87048  20.159  26.602   1.384
25683W        W87049  15.096  23.608   1.447
25684W        W87050  38.067  42.027  14.300
25685W        W87051  44.263  28.066  13.966
25686W        W87052  38.475  29.057   1.431
25687W        W87053  15.658  16.247   5.636
25688W        W87054  24.108  19.614   2.777
25689W        W87055  30.112  28.438  11.517
25690W        W87056  12.194  19.700   5.109
25691W        W87057  26.506  16.236   3.835
25692W        W87058  42.903  15.600  12.908
25693W        W87059  27.448   4.247  12.427
25694W        W87060  10.182  18.057  14.473
25695W        W87061  20.234   6.793   4.337
25696W        W87062  32.000  14.234   2.663
25697W        W87063  40.495   6.768   1.905
25698W        W87064  35.999  27.647   1.734
25699W        W87065  21.729  15.150   2.665
25700W        W87066  25.196  11.740   4.811
25701W        W87067  23.997  20.737  14.372
25702W        W87068  26.996   1.899  10.457
25703W        W87069   3.733  13.830  13.892
25704W        W87070  23.009  41.982  13.428
25705W        W87071  17.633   1.350  11.919
25706W        W87072  29.480  20.662   2.401
25707W        W87073  34.027   9.766  12.343
25708W        W87074  16.730  19.765  14.854
25709W        W87075  23.095   6.376   1.259
25710W        W87076   4.314  28.051  13.911
25711W        W87077  16.112  15.237   3.711
25712W        W87078  19.597  35.006   1.437
25713W        W87079  31.495   0.763   2.858
25714W        W87080  43.357  15.660   3.250
25715W        W87081  38.365  33.544  14.971
25716W        W87082  38.892   7.774   3.180
25717W        W87083  36.381  18.120   1.259
25718W        W87084   6.371  15.200  13.045
25719W        W87085  36.479  29.977  12.926
25720W        W87086  43.362  26.593  12.347
25721W        W87087  31.017  26.146  11.925
25722W        W87088  18.088  19.133   4.751
25723W        W87089  39.884  21.250   2.298
25724W        W87090  12.727  13.759  11.053
25725W        W87091  12.242  35.357  11.529
25726W        W87092   4.225   3.760  12.092
25727W        W87093  27.103  42.856   1.814
25728W        W87094  11.697  16.143  12.078
25729W        W87095  11.168  26.594   1.275
25730W        W87096  15.719  35.465   3.306
25731W        W87097  24.119  20.170   0.773
25732W        W87098  26.577  27.605  13.856
25733W        W87099  12.339  42.909  12.348
25734W        W87100  27.981  34.518   0.927
25735W        W87101  17.619  25.622  14.851
25736W        W87102  15.727  10.768   4.738
25737W        W87103  39.054   7.895  13.389
25738W        W87104   4.440  39.019  11.571
25739W        W87105  39.836  41.295   3.383
25740W        W87106  34.547  15.594   0.867
25741W        W87107   8.674  17.607  11.421
25742W        W87108   2.421   0.901   0.855
25743W        W87109  13.690  44.405  11.114
25744W        W87110  32.536  11.189   3.344
25745W        W87111  34.460  13.734   4.621
25746W        W87112   9.690   9.224   2.360
25747W        W87113   7.257  29.088  11.541
25748W        W87114  28.114   7.301   1.747
25749W        W87115   0.299  38.533   1.801
25750W        W87116  13.272  27.000  12.567
25751W        W87117   7.772   0.333  12.559
25752W        W87118  16.801  34.997  11.067
25753W        W87119  44.957  26.543  12.407
25754W        W87120  11.266  38.896   0.864
25755W        W87121  40.810  16.102   4.250
25756W        W87122  27.453  37.581  10.429
25757W        W87123  30.573   0.339  10.643
25758W        W87124   8.269  25.498   2.390
25759W        W87125  18.287  37.859   3.864
25760W        W87126   5.933   9.317   2.289
25761W        W87127   0.757  20.743   1.888
25762W        W87128   1.777  29.473  14.997
25763W        W87129  10.301   3.872  13.979
25764W        W87130  43.794  32.037  13.470
25765W        W87131   0.855  34.408  13.473
25766W        W87132  32.470  34.482   0.382
25767W        W87133  24.647  19.581   2.763
25768W        W87134  32.109   7.711   4.765
25769W        W87135  12.190  31.605  10.501
25770W        W87136  12.188  16.158  10.019
25771W        W87137  13.170  29.115  10.116
25772W        W87138  19.233  17.756   0.242
25773W        W87139  26.095  32.622  11.551
25774W        W87140   2.332   6.365  11.573
25775W        W87141  13.715  25.524  12.836
25776W        W87142  20.647  11.366  10.447
25777W        W87143  29.953  31.567   0.762
25778W        W87144  27.643  23.080  13.406
25779W        W87145   2.438   2.397   0.351
25780W        W87146  25.616  38.922  13.967
25781W        W87147  27.555  40.507  10.568
25782W        W87148  44.268  31.573   1.228
25783W        W87149  18.275  36.025  12.352
25784W        W87150  39.980   1.309  12.573
25785W        W87151  41.796  19.767   9.963
25786W        W87152  33.905   1.846   0.296
25787W        W87153   2.906  41.929   3.165
25788W        W87154   0.971  19.698   2.889
25789W        W87155  16.584  34.609  10.989
25790W        W87156  23.066   0.417  13.412
25791W        W87157   0.880   1.905   1.866
25792W        W87158  18.207  19.260  12.440
25793W        W87159  37.502  24.080   0.878
25794W        W87160  23.131  26.958  13.015
25795W        W87161  28.067  11.153  10.575
25796W        W87162   5.249  17.182  12.062
25797W        W87163  20.674  30.431   3.683
25798W        W87164  16.224  37.844  11.385
25799W        W87165  43.905  43.920  10.998
25800W        W87166  36.435  14.217  14.348
25801W        W87167  20.545  33.452  12.359
25802W        W87168   7.304  32.132   2.787
25803W        W87169  16.128   2.724   2.305
25804W        W87170  30.073  25.525  14.360
25805W        W87171   7.848  36.983  13.819
25806W        W87172  21.251  18.265   1.435
25807W        W87173  18.171  42.526  12.361
25808W        W87174  25.469  18.766  13.963
25809W        W87175   7.895  17.585  12.036
25810W        W87176  25.529  40.482   2.221
25811W        W87177  16.605  33.039   4.317
25812W        W87178  44.945  44.335  12.463
25813W        W87179  44.792  30.437   0.456
25814W        W87180   9.774   7.415   0.904
25815W        W87181   4.805  29.582   2.241
25816W        W87182  26.202  10.878  11.081
25817W        W87183   9.701   8.895  10.471
25818W        W87184   6.794   4.319  11.499
25819W        W87185  26.113   5.868   2.280
25820W        W87186  32.398  36.494  13.399
25821W        W87187   4.800  16.213   2.876
25822W        W87188  25.146   9.661  13.923
25823W        W87189   0.848   4.818   3.710
25824W        W87190  22.649  29.581  10.963
25825W        W87191  25.150   3.785  12.975
25826W        W87192  14.209  11.729   1.218
25827W        W87193  27.158   7.856  12.035
25828W        W87194   6.227  26.058  10.591
25829W        W87195  13.173  32.126   0.468
25830W        W87196  18.157  17.683  10.918
25831W        W87197  29.014  43.332  10.460
25832W        W87198  18.555  39.392   0.895
25833W        W87199  32.510  22.117   2.387
25834W        W87200   1.823  38.881   1.795
25835W        W87201  11.640  36.379  10.992
25836W        W87202  41.850  11.799   1.917
25837W        W87203  41.020  25.495  13.941
25838W        W87204  20.557  28.438   1.431
25839W        W87205   1.757   2.315  13.410
25840W        W87206   0.889  23.993  12.388
25841W        W87207  20.091  23.649  12.563
25842W        W87208   3.300  27.470  10.008
25843W        W87209   6.271  27.631   3.695
25844W        W87210  22.731  31.536  11.024
25845W        W87211  20.122  34.565   0.291
25846W        W87212  19.630  18.604  12.939
25847W        W87213  36.914   5.744   3.181
25848W        W87214  21.029  16.151   0.334
25849W        W87215   4.327   1.836   3.682
25850W        W87216  37.926   0.494   4.657
25851W        W87217  24.553  23.665  12.359
25852W        W87218   6.829   4.813  11.540
25853W        W87219  41.819  14.673  11.424
25854W        W87220  11.301  42.494   2.256
25855W        W87221   3.242  12.724   9.961
25856W        W87222  17.174  27.480  12.918
25857W        W87223  10.822   0.334  12.362
25858W        W87224  32.052  15.604  14.808
25859W        W87225  27.004  22.539   4.647
25860W        W87226  20.683  23.996   2.269
25861W        W87227  14.280   3.742  13.546
25862W        W87228  41.992  13.689   1.830
25863W        W87229  32.891   9.733  14.941
25864W        W87230   8.771  16.144   4.213
25865W        W87231   3.278  44.983   2.221
25866W        W87232   2.275   4.336   4.676
25867W        W87233  13.120  37.503  12.900
25868W        W87234   0.342  31.942   3.363
25869W        W87235   0.744  12.306   2.848
25870W        W87236  29.613  37.041  12.544
25871W        W87237  37.839   6.708  12.883
25872W        W87238   6.841  41.385   1.874
25873W        W87239   1.842  38.863   3.865
25874W        W87240  32.487   6.866  14.503
25875W        W87241  30.951  17.764  11.476
25876W        W87242  18.658   6.899  12.978
25877W        W87243  14.709  18.578  13.951
25878W        W87244  32.612  10.774   4.331
25879W        W87245  39.896  42.344   0.760
25880W        W87246  15.808   9.652  13.408
25881W        W87247  37.086   3.927   4.301
25882W        W87248  37.527   6.334   3.314
25883W        W87249  29.519  40.495  12.830
25884W        W87250  44.993  21.551  14.902
25885W        W87251  15.708  42.922   1.294
25886W        W87252  21.660   3.304  12.016
25887W        W87253   4.924   6.753  13.794
25888W        W87254  39.535   9.716   4.294
25889W        W87255  14.788  26.695  11.124
25890W        W87256   6.878  23.988  12.886
25891W        W87257   1.914  43.515   4.310
25892W        W87258   2.734   4.753  14.312
25893W        W87259   9.676  22.733  13.994
25894W        W87260   5.770  26.673  11.885
25895W        W87261  21.231   6.421  13.356
25896W        W87262  27.055  15.730  13.971
25897W        W87263  14.796  37.030   2.842
25898W        W87264  28.131  20.047   3.709
25899W        W87265  43.783  13.623  12.942
25900W        W87266   7.721  32.937   0.949
25901W        W87267   5.751  20.234   4.675
25902W        W87268  18.065   3.308  10.977
25903W        W87269  13.650  10.267   1.224
25904W        W87270  40.843   4.823  10.453
25905W        W87271  44.319  21.730  12.535
25906W        W87272  24.525   4.319   2.859
25907W        W87273  31.465  26.990   2.338
25908W        W87274  33.389   3.226   3.371
25909W        W87275  32.039  23.660  12.367
25910W        W87276   6.702  14.273   4.220
25911W        W87277  25.000  39.392   0.850
25912W        W87278  37.502  14.755  13.338
25913W        W87279  39.956  39.484   1.911
25914W        W87280  27.595  13.780   1.238
25915W        W87281  25.498   5.251   5.221
25916W        W87282  29.657  26.647  13.477
25917W        W87283  38.548  43.464   1.298
25918W        W87284  19.709  30.633   4.772
25919W        W87285  27.987  19.636   9.622
25920W        W87286  21.564  23.547  10.607
25921W        W87287  40.994  19.259  10.433
25922W        W87288   6.322  24.489  12.935
25923W        W87289  34.925  24.490   1.878
25924W        W87290   4.800  36.519   2.378
25925W        W87291   3.827  41.501   1.786
25926W        W87292  10.833   1.772  12.966
25927W        W87293  43.356  30.471   3.729
25928W        W87294  21.735  26.048  14.495
25929W        W87295  13.747  44.428  12.519
25930W        W87296  15.757   9.710   2.805
25931W        W87297  15.802  14.211  10.072
25932W        W87298  19.137  26.200   0.861
25933W        W87299   3.816   1.861   2.364
25934W        W87300  37.507  43.442   2.798
25935W        W87301  29.145  13.809   3.382
25936W        W87302  32.030  15.196  12.048
25937W        W87303  23.685   9.341   2.790
25938W        W87304  30.618  18.640   3.162
25939W        W87305  41.861  37.466   2.691
25940W        W87306   1.929  12.839   4.122
25941W        W87307  36.857  14.302   3.244
25942W        W87308  23.168   5.753   2.400
25943W        W87309   1.340  21.635   4.645
25944W        W87310  17.667  16.294   2.685
25945W        W87311  44.358   0.266   4.805
25946W        W87312  14.199  21.575  12.094
25947W        W87313   4.722   0.968  13.409
25948W        W87314  21.530  38.495   2.876
25949W        W87315  17.159  26.598  13.544
25950W        W87316  34.073  13.640  10.604
25951W        W87317  27.531  25.026  10.523
25952W        W87318  12.629  13.610  13.964
25953W        W87319  34.440  12.150   3.283
25954W        W87320  28.464  18.294   4.265
25955W        W87321  29.565  14.103   3.201
25956W        W87322  38.878  13.838  13.985
25957W        W87323   0.388  22.021   4.727
25958W        W87324  19.251  10.736  12.487
25959W        W87325   6.279  15.662   1.704
25960W        W87326  16.708  39.514   2.251
25961W        W87327  25.169  26.997   0.339
25962W        W87328   0.421  31.924   0.860
25963W        W87329  31.148  30.638   5.318
25964W        W87330  13.785  13.826  12.018
25965W        W87331  28.066  31.555  13.830
25966W        W87332  17.137  29.583   2.377
25967W        W87333  18.232  32.929  12.415
25968W        W87334  41.013  28.020  11.940
25969W        W87335  27.563  36.425  11.948
25970W        W87336  14.329  35.022   1.428
25971W        W87337  31.491  19.236   0.282
25972W        W87338  25.640   4.904  10.029
25973W        W87339   4.369  44.850   1.813
25974W        W87340  18.262  10.747  12.565
25975W        W87341   9.883  38.969   3.650
25976W        W87342  37.514  35.940   0.963
25977W        W87343  42.945  29.930  14.452
25978W        W87344   7.260  19.745  13.447
25979W        W87345   3.794   0.283   3.738
25980W        W87346  32.033  27.053   2.758
25981W        W87347   9.686   8.246  13.491
25982W        W87348  16.810   4.245   4.195
25983W        W87349  44.966   3.918  14.977
25984W        W87350  37.432  19.141   1.267
25985W        W87351  37.339  30.461   2.321
25986W        W87352   7.348  29.523   0.820
25987W        W87353  32.580   9.321  14.362
25988W        W87354  40.933  17.135  14.484
25989W        W87355  20.080  15.728  11.585
25990W        W87356   6.739  14.121  13.467
25991W        W87357  42.809  33.435   5.207
25992W        W87358  32.577  12.620   3.209
25993W        W87359   6.764  39.414   4.292
25994W        W87360  23.727  31.968  10.595
25995W        W87361  10.714  14.705   2.241
25996W        W87362  20.711  20.749  13.038
25997W        W87363  25.044  37.477  13.807
25998W        W87364  28.503  21.686   4.724
25999W        W87365  38.867  38.384   1.304
26000W        W87366  26.004  26.663   3.827
26001W        W87367  22.224  42.982   1.354
26002W        W87368   0.861  40.831   3.742
26003W        W87369  40.483  16.274   3.715
26004W        W87370  14.605   5.852  10.414
26005W        W87371   6.696  10.372  11.078
26006W        W87372  37.978  27.193   0.294
26007W        W87373  29.934  30.163   9.652
26008W        W87374  13.306  16.104   2.788
26009W        W87375  23.143  32.893  13.869
26010W        W87376   9.347  13.292  12.506
26011W        W87377  36.467  12.240   3.654
26012W        W87378   0.350   9.234  11.941
26013W        W87379   0.478  28.649  13.317
26014W        W87380  38.398  44.408   0.852
26015W        W87381  24.506  12.284   0.410
26016W        W87382   1.366  41.481   4.118
26017W        W87383  42.325  16.579  14.303
26018W        W87384  15.263  10.809   4.186
26019W        W87385  19.039  38.454  13.388
26020W        W87386  17.144  34.883   5.310
26021W        W87387  30.642  35.919  13.365
26022W        W87388  38.987  44.342  14.479
26023W        W87389   5.911  38.998  14.410
26024W        W87390   2.262  17.201   2.856
26025W        W87391  26.554  44.448  11.493
26026W        W87392  40.478  13.798   3.697
26027W        W87393  44.486  40.507   3.829
26028W        W87394  22.016  10.171   2.191
26029W        W87395   0.418  26.643   1.902
26030W        W87396  42.363   5.332  14.291
26031W        W87397  37.032  25.517   1.741
26032W        W87398  11.237  32.087  11.092
26033W        W87399  24.085  25.125  11.609
26034W        W87400  44.321  14.726   1.409
26035W        W87401   6.878   6.319   1.424
26036W        W87402  27.085   6.279  10.469
26037W        W87403  33.975   7.853  13.973
26038W        W87404  30.087  20.064   0.764
26039W        W87405  26.494  39.856  10.011
26040W        W87406  26.550  33.572   0.344
26041W        W87407  21.579  31.495   1.450
26042W        W87408  26.511   8.257   2.864
26043W        W87409  27.187  17.604   0.800
26044W        W87410  18.764  29.109   4.237
26045W        W87411  15.750  34.415  11.607
26046W        W87412  33.041  15.180  13.430
26047W        W87413  36.902   7.379   0.273
26048W        W87414   3.264  16.136   0.736
26049W        W87415  28.467   6.813   4.148
26050W        W87416  10.276  33.012  14.012
26051W        W87417  22.042  42.007  12.494
26052W        W87418  41.521  43.395  12.396
26053W        W87419  32.442  10.336  12.876
26054W        W87420  12.316  20.569  13.390
26055W        W87421  30.415  40.407  11.497
26056W        W87422  22.624  13.200  11.943
26057W        W87423  29.473  27.185  12.979
26058W        W87424  25.071  42.981   3.319
26059W        W87425  44.757  11.363   1.870
26060W        W87426  43.345  25.189  14.486
26061W        W87427  44.834  32.043  13.465
26062W        W87428   6.749  39.865   2.896
26063W        W87429  37.862  36.043   1.247
26064W        W87430   6.874  40.856  14.845
26065W        W87431   8.800  11.773   2.392
26066W        W87432  17.784  22.569  13.918
26067W        W87433  27.028  36.476  14.305
26068W        W87434   4.364  42.355  14.286
26069W        W87435  22.092   7.222  14.786
26070W        W87436  20.060  43.368  10.603
26071W        W87437  23.512  24.177  11.027
26072W        W87438  26.531  37.556  13.515
26073W        W87439  26.134  38.405   1.759
26074W        W87440  21.724  24.161   2.701
26075W        W87441  33.953   6.677  12.090
26076W        W87442  25.616  21.123  12.899
26077W        W87443  10.836  41.400  13.368
26078W        W87444  12.127  35.902   5.092
26079W        W87445  14.602  28.162  12.014
26080W        W87446   3.247  12.830  14.288
26081W        W87447   0.337  39.365  11.982
26082W        W87448  43.781   0.367  11.091
26083W        W87449  28.144  18.580   1.776
26084W        W87450  31.938  28.961   2.361
26085W        W87451  10.841  17.094  14.791
26086W        W87452  26.694  27.537  14.488
26087W        W87453   2.904   3.746  11.875
26088W        W87454  23.674  40.336  13.461
26089W        W87455  28.644   1.767   0.741
26090W        W87456  44.960  21.181  13.811
26091W        W87457   1.782   5.928   2.305
26092W        W87458  14.303  23.083   0.318
26093W        W87459   2.767  12.730  14.911
26094W        W87460   7.763  21.028   1.346
26095W        W87461  30.449   0.886  11.027
26096W        W87462  30.539  44.386   1.752
26097W        W87463  14.666   5.694   3.244
26098W        W87464  21.045  41.328  12.023
26099W        W87465   1.810  32.017  11.932
26100W        W87466  11.747   6.691   3.850
26101W        W87467  25.177  41.396   2.211
26102W        W87468  40.924  33.092  11.469
26103W        W87469  14.736  21.540  13.002
26104W        W87470  26.029   0.829   0.426
26105W        W87471  42.443  13.613   3.799
26106W        W87472  19.083  36.393  14.429
26107W        W87473  18.174   1.278  12.831
26108W        W87474  38.416  36.876   4.333
26109W        W87475  22.719  38.961  12.579
26110W        W87476   6.225   1.320   4.715
26111W        W87477   7.766  34.099  13.456
26112W        W87478  35.429  28.500   4.818
26113W        W87479  42.415   6.897  12.832
26114W        W87480   0.830  38.367   4.268
26115W        W87481  44.471   5.396  13.800
26116W        W87482  26.460  37.379  12.418
26117W        W87483  37.041  42.933   1.392
26118W        W87484  23.235  12.222   0.914
26119W        W87485  27.510  34.940   1.785
26120W        W87486  27.634   3.923   1.219
26121W        W87487  32.598   0.376   2.418
26122W        W87488  10.194  39.881  10.085
26123W        W87489  43.383  13.839  12.408
26124W        W87490  34.091  31.923  11.607
26125W        W87491  22.506  29.053  11.396
26126W        W87492  30.511  42.383   0.261
26127W        W87493  43.405  20.663   1.819
26128W        W87494  19.747  44.470  13.489
26129W        W87495   3.918  42.417  11.529
26130W        W87496  14.254  27.460   0.275
26131W        W87497  34.921  39.472   5.312
26132W        W87498  23.576   6.825   3.657
26133W        W87499  18.562  14.318  10.498
26134W        W87500  16.779  25.193  10.955
26135W        W87501  26.634  11.133  11.466
26136W        W87502  42.982  15.248  13.516
26137W        W87503  24.132  43.799  10.439
26138W        W87504  19.750   4.937   1.216
26139W        W87505  14.194  30.472   4.779
26140W        W87506  36.473  29.433  13.970
26141W        W87507   1.890  12.176   0.437
26142W        W87508  10.671  23.649  12.027
26143W        W87509  24.590  40.548  13.359
26144W        W87510  11.350  36.982   4.674
26145W        W87511  14.799  34.097  11.899
26146W        W87512  15.668  17.215  12.565
26147W        W87513  42.373  21.667  11.981
26148W        W87514  25.172   8.224   2.185
26149W        W87515   1.240  41.794  12.982
26150W        W87516  19.064  29.057  11.918
26151W        W87517  38.941  16.275   0.821
26152W        W87518   7.318  23.021   1.324
26153W        W87519  29.174  31.058   0.798
26154W        W87520  21.683  33.534   9.481
26155W        W87521  36.362  12.286  12.957
26156W        W87522  24.577   9.249  13.846
26157W        W87523  35.588  15.149  14.032
26158W        W87524  29.167  27.584   0.450
26159W        W87525  25.477  19.757  13.905
26160W        W87526   7.891  35.579  14.780
26161W        W87527  20.539  36.431   1.849
26162W        W87528  43.872  35.927  11.444
26163W        W87529  43.905   5.276   1.410
26164W        W87530  33.987   9.659   3.852
26165W        W87531  17.110   4.319   3.756
26166W        W87532  33.058  21.567   3.212
26167W        W87533  14.737  21.723  10.957
26168W        W87534  28.454  33.428  13.401
26169W        W87535  18.786  15.143   0.340
26170W        W87536  40.533  31.477   2.343
26171W        W87537  29.166  21.528   0.298
26172W        W87538  21.658  11.334  10.941
26173W        W87539  34.580  38.414   5.249
26174W        W87540  30.118  35.429   0.777
26175W        W87541  32.634   7.728  10.516
26176W        W87542  17.215  23.171   1.845
26177W        W87543  24.142  39.388  10.560
26178W        W87544  10.642   2.449   2.832
26179W        W87545  41.021  29.118  14.967
26180W        W87546  39.492  43.516  10.572
26181W        W87547   6.773  12.760   1.910
26182W        W87548  32.059  31.541   1.376
26183W        W87549  21.521  42.909  11.400
26184W        W87550  35.996   0.345   1.265
26185W        W87551   8.377  26.133   0.730
26186W        W87552   7.241   9.235  14.847
26187W        W87553  35.539  18.201  10.592
26188W        W87554  29.039  35.077  11.495
26189W        W87555  24.107  12.670   1.776
26190W        W87556  43.424  44.460   1.823
26191W        W87557  23.518  13.271   0.933
26192W        W87558  33.881   4.268  14.960
26193W        W87559  15.706  22.715  14.420
26194W        W87560  35.572  24.577   3.855
26195W        W87561   3.925  16.196   0.868
26196W        W87562  37.914  19.125   2.355
26197W        W87563  26.008  44.864   3.383
26198W        W87564  42.879  43.915  13.313
26199W        W87565  43.862   5.376   0.892
26200W        W87566   3.419   4.771   3.832
26201W        W87567  14.139  33.945  10.936
26202W        W87568  11.625  39.914  12.840
26203W        W87569  18.634   1.268  14.359
26204W        W87570  10.704  36.912  11.519
26205W        W87571  41.030  35.067   3.313
26206W        W87572  41.927   9.854  12.921
26207W        W87573  29.996  42.853   0.770
26208W        W87574   5.226  36.581   1.433
26209W        W87575   1.436   1.307   4.181
26210W        W87576  35.568  31.511  14.512
26211W        W87577  41.994  30.113  13.366
26212W        W87578   9.680   2.442   0.369
26213W        W87579  20.208   2.893  13.936
26214W        W87580   9.354  40.865   4.307
26215W        W87581   3.745  16.116   9.510
26216W        W87582  34.388  18.270   1.821
26217W        W87583   8.745  20.113   2.252
26218W        W87584   4.236  27.591   1.257
26219W        W87585  12.792  21.673   2.794
26220W        W87586  31.925  27.554   0.249
26221W        W87587  18.665  28.534   1.294
26222W        W87588  12.629   0.313   4.822
26223W        W87589  13.670   9.206   0.794
26224W        W87590   3.808  24.197   3.360
26225W        W87591  39.901  37.035   2.726
26226W        W87592  15.139  32.091  10.066
26227W        W87593  35.425  31.617  12.005
26228W        W87594  31.620  30.653   1.703
26229W        W87595  11.706  13.668  12.400
26230W        W87596  37.421   0.983  12.446
26231W        W87597  16.622  16.185   0.734
26232W        W87598  30.994   9.766   1.796
26233W        W87599  16.665  43.915  13.916
26234W        W87600  41.982  13.166  12.540
26235W        W87601  28.120  20.211  12.855
26236W        W87602  27.564   2.778   2.311
26237W        W87603  41.016   1.400  11.430
26238W        W87604  14.251  28.128   0.377
26239W        W87605  28.060  40.350  12.493
26240W        W87606  18.149  18.138   3.782
26241W        W87607  29.597  15.812  14.504
26242W        W87608   8.334  20.693   0.439
26243W        W87609   8.736   4.847  10.089
26244W        W87610  15.298  14.107  11.078
26245W        W87611   7.261  39.482  11.496
26246W        W87612   8.323  28.106   3.658
26247W        W87613  23.110   6.336  13.396
26248W        W87614  11.213   2.956   0.444
26249W        W87615   4.367  28.104  13.522
26250W        W87616  22.646  28.050   2.732
26251W        W87617  42.967  20.147  13.475
26252W        W87618  25.707  34.067   3.667
26253W        W87619  15.638  13.837  11.106
26254W        W87620  25.560  16.198  12.476
26255W        W87621  32.521  15.648  14.802
26256W        W87622  37.008   0.472   1.285
26257W        W87623  23.029  11.161  14.280
26258W        W87624  31.943  11.163  14.886
26259W        W87625   1.915  15.326  10.504
26260W        W87626  40.017  28.001   3.309
26261W        W87627  32.626  29.508   3.786
26262W        W87628  31.925  31.419  11.566
26263W        W87629  36.015   4.308  10.419
26264W        W87630  16.625  22.080   1.321
26265W        W87631  31.946  20.630  10.992
26266W        W87632  42.961  28.136  12.522
26267W        W87633  17.621   9.252  12.898
26268W        W87634   9.651   4.755  13.427
26269W        W87635  41.497  35.571   4.811
26270W        W87636   7.749  25.525   3.150
26271W        W87637   5.925  19.262   0.773
26272W        W87638  34.569  35.375   2.373
26273W        W87639  17.564   9.645  12.048
26274W        W87640  26.540   3.324   1.298
26275W        W87641  31.441  33.947  13.349
26276W        W87642  26.955  17.787  10.997
26277W        W87643  26.169  30.519  14.339
26278W        W87644   5.296   1.912   9.977
26279W        W87645  20.193  12.828  12.086
26280W        W87646  41.398  44.959   3.718
26281W        W87647  33.381  37.022  14.873
26282W        W87648  18.551  19.197  12.379
26283W        W87649  14.279   5.203  13.403
26284W        W87650  26.171  35.941   0.481
26285W        W87651  22.127  39.378  14.334
26286W        W87652  34.476   4.936  13.545
26287W        W87653  14.816  13.326   1.918
26288W        W87654  10.200  40.516  12.053
26289W        W87655  19.180  38.342   4.778
26290W        W87656   2.887  42.796   0.278
26291W        W87657  24.633  19.588   5.283
26292W        W87658  20.229  17.202  11.513
26293W        W87659  27.670  11.346  12.056
26294W        W87660  29.665  13.149   3.169
26295W        W87661  28.050  10.672  12.539
26296W        W87662  12.229   2.727  13.903
26297W        W87663  35.059   4.295   3.731
26298W        W87664  15.588  32.134  11.489
26299W        W87665  36.043  34.961  12.399
26300W        W87666  34.511  24.055  11.064
26301W        W87667  27.970  17.801   3.242
26302W        W87668  29.004   9.176  10.569
26303W        W87669   1.251  23.704  11.384
26304W        W87670   8.247   4.802   2.331
26305W        W87671  26.471   0.266  10.503
26306W        W87672  33.893  24.990  12.367
26307W        W87673   5.753   3.276   0.772
26308W        W87674  27.689  20.222   2.821
26309W        W87675  11.243  33.430  14.770
26310W        W87676  12.220  17.235   0.375
26311W        W87677  31.543  18.275   1.397
26312W        W87678  40.018  36.933  14.424
26313W        W87679  39.474  39.928   3.644
26314W        W87680  43.825   2.785  13.365
26315W        W87681  34.517  11.327  14.301
26316W        W87682   2.296  10.244  10.912
26317W        W87683  30.655  18.662   2.416
26318W        W87684  37.551  11.247  10.927
26319W        W87685   5.718  36.385  12.440
26320W        W87686  44.993  28.999  10.095
26321W        W87687  38.988  34.584  12.569
26322W        W87688   0.255  37.025   1.852
26323W        W87689  33.468  18.585  12.488
26324W        W87690   4.860  23.504   2.877
26325W        W87691  17.598  20.154  13.460
26326W        W87692  20.048  16.078   3.370
26327W        W87693  38.839  18.132   1.923
26328W        W87694  31.038  25.207  12.922
26329W        W87695  44.827  28.498   9.659
26330W        W87696  10.820  38.901  14.823
26331W        W87697  26.559  15.691   2.805
26332W        W87698   3.380  37.558   2.860
26333W        W87699  18.571  16.623  10.940
26334W        W87700  32.605  32.108  12.908
26335W        W87701   4.227  44.452   4.676
26336W        W87702  40.362  18.271   1.813
26337W        W87703  38.058   5.429   0.244
26338W        W87704  42.298   5.929  14.501
26339W        W87705  31.555  13.613  12.432
26340W        W87706  35.490  39.545  14.401
26341W        W87707  39.487   5.208   0.921
26342W        W87708  12.209  33.525  11.433
26343W        W87709  40.385  31.909   0.312
26344W        W87710  13.711  36.571   5.291
26345W        W87711  44.286  28.469  14.432
26346W        W87712  29.963   2.239   4.679
26347W        W87713  34.507  22.583  11.484
26348W        W87714  13.797   4.745  11.078
26349W        W87715  37.951  29.119   5.142
26350W        W87716  29.531  25.477   3.301
26351W        W87717  20.726  17.069   4.348
26352W        W87718  31.136  13.307   4.652
26353W        W87719  11.679   0.435   3.191
26354W        W87720  37.990  17.773   0.369
26355W        W87721  40.939  18.762  14.366
26356W        W87722  27.472  40.434  12.917
26357W        W87723  42.880  44.328   3.222
26358W        W87724  19.566  10.845   4.261
26359W        W87725  32.105  44.762   0.745
26360W        W87726  33.526  15.641  13.512
26361W        W87727  22.141  42.519   0.880
26362W        W87728  17.627  10.798  11.119
26363W        W87729  32.893  28.025  13.832
26364W        W87730  24.993   2.836  10.537
26365W        W87731   1.396  27.957   0.824
26366W        W87732  34.897  19.096   0.948
26367W        W87733  31.591  28.154   3.385
26368W        W87734   5.918  32.392   3.281
26369W        W87735  11.857  32.478   3.848
26370W        W87736  34.064  14.147   1.887
26371W        W87737  17.634  26.560  13.512
26372W        W87738  35.082  19.063  12.497
26373W        W87739  17.193  25.659   1.916
26374W        W87740  11.282  35.474  10.077
26375W        W87741  14.205  37.381  10.987
26376W        W87742  33.390   0.392   2.795
26377W        W87743  17.077   5.226   3.705
26378W        W87744  28.955  10.639  11.419
26379W        W87745   4.724  44.382   5.110
26380W        W87746  35.943  24.166  14.370
26381W        W87747  28.641  15.689   2.294
26382W        W87748  11.319  38.073  14.373
26383W        W87749  25.563   7.372   4.315
26384W        W87750  27.671  31.101   3.264
26385W        W87751  19.240  37.381  11.391
26386W        W87752  35.522  23.124   4.739
26387W        W87753  25.686  23.526  13.965
26388W        W87754  36.583  40.011  14.386
26389W        W87755  41.322  31.417   3.193
26390W        W87756   9.820  16.648  12.487
26391W        W87757  42.984   2.796  11.989
26392W        W87758  36.067  31.985   0.792
26393W        W87759   1.893  21.182  14.431
26394W        W87760  22.196   9.686   3.255
26395W        W87761  38.946  22.110   2.318
26396W        W87762  17.591  15.218   1.400
26397W        W87763  32.142   3.798  10.575
26398W        W87764  25.030  32.538  12.092
26399W        W87765  41.008   0.861  12.504
26400W        W87766  13.797   3.915   4.293
26401W        W87767  18.556  39.878  12.827
26402W        W87768  27.558  34.509   4.273
26403W        W87769   8.770  10.366  12.921
26404W        W87770   1.455  32.108   2.680
26405W        W87771  17.587   8.739   0.385
26406W        W87772   2.859  29.599  11.444
26407W        W87773  26.489  20.244   2.233
26408W        W87774  39.914   2.241   3.747
26409W        W87775  17.583   1.780  11.525
26410W        W87776  12.350  17.787  12.913
26411W        W87777   2.350  23.176  13.470
26412W        W87778  30.482  32.027  11.456
26413W        W87779   5.286  37.947   4.797
26414W        W87780  22.626   7.718   0.731
26415W        W87781  27.045  24.082  14.986
26416W        W87782  25.986  15.137  14.302
26417W        W87783  23.702  18.199   3.375
26418W        W87784  22.141   5.728   1.904
26419W        W87785  29.656  12.623   2.279
26420W        W87786  10.303  38.456   3.384
26421W        W87787  39.053  32.013   4.626
26422W        W87788  21.240  19.134  13.952
26423W        W87789   6.697  23.062  10.893
26424W        W87790   6.731  12.657  13.875
26425W        W87791   7.881   9.705   4.233
26426W        W87792  33.010  39.858  13.005
26427W        W87793  24.538  10.877   4.648
26428W        W87794   4.800  26.141   0.424
26429W        W87795  12.849  12.351  12.376
26430W        W87796  12.326  22.610   2.309
26431W        W87797  34.914  14.180   3.382
26432W        W87798  15.286  44.811  13.890
26433W        W87799  39.051  34.587   4.820
26434W        W87800  14.160  19.680  10.431
26435W        W87801  24.669  34.985  12.876
26436W        W87802  23.102  33.481   0.846
26437W        W87803  26.120  39.943   3.260
26438W        W87804  19.677  26.604  13.836
26439W        W87805  31.022  38.363   3.746
26440W        W87806  30.102  12.275   1.351
26441W        W87807   5.345  15.185   3.715
26442W        W87808  15.652  38.518   0.894
26443W        W87809  19.224  24.687  11.873
26444W        W87810   0.337  21.594   3.855
26445W        W87811  44.280   4.407   0.269
26446W        W87812  26.161   4.911  13.030
26447W        W87813  44.475  33.569   9.953
26448W        W87814  24.533  20.714   0.877
26449W        W87815   6.383  34.463  13.468
26450W        W87816   4.330  32.992   1.790
26451W        W87817  40.489  38.332  10.631
26452W        W87818  20.185  44.947  12.416
26453W        W87819  27.658   9.376  10.528
26454W        W87820  24.215  29.512  11.030
26455W        W87821  39.950  35.571  10.507
26456W        W87822   2.285  39.395  12.935
26457W        W87823  12.612  20.193   2.684
26458W        W87824   9.758  32.563  11.930
26459W        W87825  42.335  13.205   4.158
26460W        W87826  26.559  10.795   3.855
26461W        W87827   8.661  36.042  12.006
26462W        W87828   3.904  32.080   0.798
26463W        W87829  32.391  22.078  12.513
26464W        W87830   3.784  22.019   4.750
26465W        W87831  13.154   4.346   4.196
26466W        W87832  24.555  17.798   4.822
26467W        W87833  26.100   7.343   0.312
26468W        W87834  10.837  14.661   0.833
26469W        W87835  28.061  21.018   0.803
26470W        W87836  14.195  32.032   1.342
26471W        W87837  21.030   3.899  12.957
26472W        W87838  15.602  27.466  13.047
26473W        W87839  40.383  22.100   4.157
26474W        W87840  37.019  28.489  14.361
26475W        W87841  11.232  30.583  10.888
26476W        W87842   1.399  10.314  12.395
26477W        W87843  25.013  35.023   4.130
26478W        W87844  41.987  17.072   0.295
26479W        W87845   9.183  14.244  10.515
26480W        W87846  17.611  32.409   0.802
26481W        W87847  21.042  20.750  13.360
26482W        W87848  44.382  10.281  14.777
26483W        W87849  12.671  18.286   4.640
26484W        W87850  29.951  24.566  13.861
26485W        W87851  37.950   6.873  14.811
26486W        W87852   7.360  29.029   2.759
26487W        W87853  26.992  14.122  14.005
26488W        W87854  25.136  24.690  14.506
26489W        W87855  29.497   4.284   0.385
26490W        W87856   4.710  33.956  13.432
26491W        W87857  44.974  10.259  11.573
26492W        W87858  39.320  18.692   3.323
26493W        W87859  23.074  29.544   4.784
26494W        W87860  44.263   3.915  10.411
26495W        W87861  12.248   1.337   2.746
26496W        W87862  11.171  16.611   1.446
26497W        W87863  13.165  23.006   0.744
26498W        W87864  16.746   7.329  11.869
26499W        W87865   3.864  27.118  10.457
26500W        W87866   8.827   5.380   4.170
26501W        W87867  31.936   0.911  12.900
26502W        W87868  30.545  42.495  11.610
26503W        W87869  40.539   5.363   2.846
26504W        W87870   0.303   1.348  11.069
26505W        W87871  11.729  16.218  14.786
26506W        W87872  10.663  22.544  14.983
26507W        W87873   4.843  11.698  10.514
26508W        W87874  15.298  35.472  11.477
26509W        W87875  33.609  26.472   2.206
26510W        W87876  25.502  23.538   4.804
26511W        W87877  43.997  38.068   1.769
26512W        W87878  26.191  31.455   4.753
26513W        W87879  26.677  33.381  12.545
26514W        W87880  44.341  28.450   2.231
26515W        W87881  15.779   4.267  11.564
26516W        W87882  36.376   5.372   2.370
26517W        W87883  15.767  12.323  14.789
26518W        W87884  32.894  20.730   0.324
26519W        W87885   1.774  13.272  10.449
26520W        W87886  19.195  13.135  12.980
26521W        W87887  39.317  15.766   1.859
26522W        W87888   0.963  33.574  11.495
26523W        W87889  18.651  10.784  13.352
26524W        W87890  40.873  35.029  11.483
26525W        W87891  22.739  32.519   2.845
26526W        W87892  18.264  25.551   0.922
26527W        W87893  37.560  10.350   2.700
26528W        W87894  20.594  22.678  10.918
26529W        W87895   6.902   9.710   1.340
26530W        W87896  40.010  29.083  13.405
26531W        W87897  12.728  22.236  10.983
26532W        W87898  44.960  35.857  14.925
26533W        W87899   5.313  16.286  12.008
26534W        W87900  35.502  35.433   3.216
26535W        W87901   7.292  39.053   2.756
26536W        W87902  22.996  25.164  11.566
26537W        W87903  35.080  25.525   4.297
26538W        W87904   9.374  11.194  12.551
26539W        W87905  19.202   9.217  14.309
26540W        W87906  28.044  28.652  14.400
26541W        W87907  27.691  29.959   3.710
26542W        W87908   6.419  11.352   2.249
26543W        W87909  24.489  11.327   3.694
26544W        W87910  11.681  26.023  12.447
26545W        W87911   5.439   7.293  12.513
26546W        W87912  28.502   1.974   1.803
26547W        W87913  23.990   0.344  13.018
26548W        W87914   0.461  14.806  11.586
26549W        W87915   7.799   3.400   5.233
26550W        W87916  21.557  40.979  11.607
26551W        W87917  23.492  29.093  12.462
26552W        W87918  27.035  12.818  12.088
26553W        W87919  15.134  23.680  10.935
26554W        W87920  17.305   7.332   1.695
26555W        W87921  34.432  11.329  11.545
26556W        W87922  29.498   9.815   1.735
26557W        W87923  29.167   3.847   3.294
26558W        W87924  32.936  34.098   1.312
26559W        W87925  44.274   7.342   2.784
26560W        W87926  34.473   8.216   4.689
26561W        W87927  11.360  10.238   3.733
26562W        W87928   6.282  20.096  10.904
26563W        W87929  42.441   4.916   0.735
26564W        W87930  12.204  39.933   0.385
26565W        W87931  34.509  44.010  14.285
26566W        W87932   9.226  33.550   1.840
26567W        W87933  41.872   1.366  11.013
26568W        W87934  38.930  25.967   0.848
26569W        W87935  17.215  19.053   2.766
26570W        W87936   9.681  33.611  13.479
26571W        W87937  12.348   1.891  13.401
26572W        W87938  36.994  34.865   0.885
26573W        W87939   0.261  15.615  13.814
26574W        W87940   7.232   3.446  11.418
26575W        W87941  28.510  31.066   1.914
26576W        W87942  22.057  36.588   4.718
26577W        W87943  42.459  10.162  14.366
26578W        W87944  27.001  40.817   1.240
26579W        W87945  23.991  42.908  11.476
26580W        W87946  30.417  28.137   4.701
26581W        W87947  20.686  41.036  13.992
26582W        W87948  31.452  29.548   4.831
26583W        W87949  24.637  31.552  14.279
26584W        W87950  27.021  25.168  13.853
26585W        W87951  15.320  10.822   2.382
26586W        W87952  34.059   3.836  11.436
26587W        W87953  21.247   7.683   2.191
26588W        W87954  10.724  35.874   3.832
26589W        W87955  11.131   2.343  11.995
26590W        W87956  30.502  44.386  14.774
26591W        W87957  42.788  19.110  12.860
26592W        W87958  11.668  15.743   2.822
26593W        W87959  14.285   5.913   2.326
26594W        W87960  22.188  22.123   0.243
26595W        W87961  15.167   5.919  11.012
26596W        W87962   4.348  27.636   3.640
26597W        W87963  29.501  31.959  10.058
26598W        W87964  17.147  24.523  12.830
26599W        W87965   5.245  25.078   0.386
26600W        W87966  23.603   0.902   1.776
26601W        W87967  33.609  33.406  12.003
26602W        W87968   8.356  21.214  11.562
26603W        W87969   4.307  18.665  13.909
26604W        W87970  38.445  24.561   0.363
26605W        W87971   2.773  41.336   0.761
26606W        W87972  25.505  23.030   2.378
26607W        W87973  33.543   8.240   4.791
26608W        W87974  18.608  24.645   3.753
26609W        W87975  42.803  29.071   1.295
26610W        W87976  18.556  34.375   4.785
26611W        W87977  21.062  16.807   3.336
26612W        W87978  33.981  22.198   2.709
26613W        W87979  31.131  33.896   0.842
26614W        W87980  12.157  30.954  14.878
26615W        W87981  40.054  19.175   1.303
26616W        W87982  17.637  15.754  12.040
26617W        W87983   0.987  16.129   0.849
26618W        W87984  34.450  21.513   0.464
26619W        W87985  38.410  26.496  14.346
26620W        W87986  10.660  16.792   4.139
26621W        W87987  22.709  25.493   1.268
26622W        W87988  29.992   6.349   0.326
26623W        W87989  32.440  17.735  11.913
26624W        W87990  16.681  21.137   1.442
26625W        W87991   4.329  44.475  10.554
26626W        W87992   6.384  23.618   3.753
26627W        W87993   6.699   2.765   4.164
26628W        W87994  37.485  21.210  13.480
26629W        W87995  26.010  23.216   1.815
26630W        W87996   5.748  42.407  12.064
26631W        W87997   7.881  18.715   3.735
26632W        W87998   0.390  25.093   4.637
26633W        W87999  25.630  40.436  11.860
26634W        W88000  38.031  42.442  10.419
26635W        W88001  22.555  25.996   1.303
26636W        W88002  29.972  30.628  10.463
26637W        W88003  12.619  40.834   1.305
26638W        W88004   7.327   8.202   1.838
26639W        W88005  33.061  17.556  10.613
26640W        W88006  23.723  38.913   0.302
26641W        W88007  31.072   3.841  14.837
26642W        W88008  14.183  32.502  11.496
26643W        W88009   1.357  32.002  11.412
26644W        W88010  22.036  44.902   2.823
26645W        W88011   1.263  10.319   0.780
26646W        W88012  35.005   5.780  11.027
26647W        W88013  26.061  24.565  14.923
26648W        W88014  25.701  42.317  10.915
26649W        W88015  15.148  11.864  14.471
26650W        W88016  30.060  27.127  13.990
26651W        W88017  11.785   4.254   4.659
26652W        W88018  17.101  42.419  14.409
26653W        W88019  13.673  37.359  11.564
26654W        W88020  17.270  35.361   4.729
26655W        W88021   3.847   8.245   1.751
26656W        W88022   2.458  34.574  10.062
26657W        W88023  21.536  15.627  11.109
26658W        W88024  39.918  31.436  13.538
26659W        W88025  35.509  38.970   3.281
26660W        W88026  12.778  16.714   3.869
26661W        W88027   7.730  33.887  12.057
26662W        W88028  29.050   2.425   4.191
26663W        W88029  39.808   9.793   2.357
26664W        W88030  14.743   5.383  10.642
26665W        W88031   1.337  12.669  13.854
26666W        W88032  32.003  33.935  13.024
26667W        W88033  42.020  23.520  11.928
26668W        W88034   2.368  37.058   3.184
26669W        W88035  21.029  27.068  12.040
26670W        W88036   1.829  40.498   0.912
26671W        W88037  12.834  33.896  12.513
26672W        W88038  39.553  35.996  12.060
26673W        W88039   1.435  34.429  14.922
26674W        W88040   7.184  14.122   1.328
26675W        W88041  27.512  31.035   2.252
26676W        W88042  32.626  31.092  11.541
26677W        W88043  18.550   6.823   0.742
26678W        W88044  42.824  41.944  12.491
26679W        W88045   2.897   0.473  11.384
26680W        W88046  44.787  22.166  10.599
26681W        W88047  13.228  41.044  13.446
26682W        W88048  39.816  38.023   4.203
26683W        W88049  22.132  38.341  14.849
26684W        W88050  31.524  34.431   4.717
26685W        W88051  36.568  12.235  12.445
26686W        W88052   5.374  41.008  10.912
26687W        W88053  18.584  24.100  10.996
26688W        W88054  18.054  30.971   1.923
26689W        W88055  43.941  35.577  14.852
26690W        W88056  23.727  20.108   4.160
26691W        W88057  13.757  22.047   3.164
26692W        W88058  42.925  31.423  10.579
26693W        W88059   2.946  25.217  14.763
26694W        W88060   1.355  22.047  12.553
26695W        W88061  44.477   0.849   1.241
26696W        W88062  19.255  31.031   3.182
26697W        W88063   3.731  26.063   1.299
26698W        W88064  30.006  16.786   2.705
26699W        W88065  29.518  13.757   1.302
26700W        W88066  17.079  31.922  12.017
26701W        W88067  11.751  13.347   3.385
26702W        W88068  44.273  16.176   9.999
26703W        W88069  44.762   5.689   4.142
26704W        W88070  19.624  37.526  12.837
26705W        W88071  16.658   1.406   4.614
26706W        W88072  17.097   3.352  12.964
26707W        W88073  36.902  42.833  10.994
26708W        W88074  42.383  19.247   1.256
26709W        W88075  18.214  37.051   0.436
26710W        W88076  26.120  24.225   4.354
26711W        W88077  27.124  13.201  10.983
26712W        W88078  11.854   6.306   4.313
26713W        W88079  36.494  15.251   0.886
26714W        W88080   4.368  21.652  10.936
26715W        W88081  12.327  17.265  14.809
26716W        W88082  40.909  40.535  10.518
26717W        W88083  43.866  35.056   0.808
26718W        W88084  15.703  37.847   1.848
26719W        W88085  12.323   6.213   0.883
26720W        W88086  13.649  22.524   3.630
26721W        W88087  29.054  37.995   0.261
26722W        W88088  28.985  14.139   1.859
26723W        W88089  36.932  14.788   0.397
26724W        W88090   7.194  23.611  13.835
26725W        W88091   0.271  10.224  14.391
26726W        W88092  32.418  44.319  11.094
26727W        W88093  21.262  32.004   5.214
26728W        W88094  27.103  10.212  10.156
26729W        W88095  19.068  22.660   2.309
26730W        W88096  41.332  27.994  11.872
26731W        W88097  12.294  17.257  11.942
26732W        W88098  34.076   7.901  13.328
26733W        W88099   3.733  38.871  11.431
26734W        W88100  38.557   1.978   4.667
26735W        W88101  21.626   3.776  10.948
26736W        W88102  13.327  32.544  13.309
26737W        W88103  29.645  20.724   2.898
26738W        W88104  40.034  19.190   0.897
26739W        W88105  31.058  35.586   1.837
26740W        W88106  11.650   5.242   4.750
26741W        W88107  23.219  34.523  13.957
26742W        W88108   8.374  27.943   3.276
26743W        W88109  29.517  32.042   2.184
26744W        W88110  32.019  13.198  10.889
26745W        W88111  15.149   7.405  13.836
26746W        W88112   4.928  32.063   2.374
26747W        W88113  29.646  12.610   9.938
26748W        W88114   8.249  20.206   3.743
26749W        W88115   0.389  19.659  12.977
26750W        W88116  13.674   3.714  12.986
26751W        W88117  26.466  15.135   2.272
26752W        W88118  29.495  12.116  10.422
26753W        W88119  27.126  19.716  14.416
26754W        W88120  36.371  42.886  13.361
26755W        W88121  19.640  23.585   3.260
26756W        W88122  40.512  28.504   3.635
26757W        W88123  24.531  13.611  14.342
26758W        W88124  43.436   7.908   4.725
26759W        W88125  18.658  20.680  13.984
26760W        W88126  21.108  22.745  11.575
26761W        W88127   8.862   1.325  14.358
26762W        W88128  24.205  19.167   1.893
26763W        W88129   5.434  28.461  13.975
26764W        W88130  31.075  30.464   3.677
26765W        W88131  23.117  15.109  11.493
26766W        W88132  19.273  43.404  11.442
26767W        W88133  23.715  39.932   2.893
26768W        W88134  13.123   5.209  10.493
26769W        W88135  41.038   8.277   0.899
26770W        W88136  40.917   2.286  13.012
26771W        W88137  13.649  40.484  12.032
26772W        W88138  14.780  19.585   3.329
26773W        W88139  37.864   7.389   2.852
26774W        W88140   4.738  38.053  14.831
26775W        W88141  42.360  32.952   2.719
26776W        W88142   6.867  42.966   1.375
26777W        W88143   3.328  19.752  14.001
26778W        W88144  28.619  36.371   1.829
26779W        W88145  28.502  27.181   2.222
26780W        W88146  18.667   7.212   2.672
26781W        W88147  25.605  12.788   1.350
26782W        W88148   2.257  29.976  12.044
26783W        W88149  38.521  25.114   0.737
26784W        W88150  25.967  44.327  12.063
26785W        W88151  17.105   2.826   1.900
26786W        W88152   9.829  34.882   2.400
26787W        W88153  30.506  19.689  12.830
26788W        W88154   8.696  40.520   4.837
26789W        W88155   2.928  38.516  12.003
26790W        W88156  17.074  11.277  10.988
26791W        W88157  32.911   2.299   1.412
26792W        W88158   4.220  26.079   2.792
26793W        W88159  35.071   4.376  10.914
26794W        W88160  29.598  40.027   0.424
26795W        W88161   6.257  34.567   3.385
26796W        W88162  20.143  29.621   1.831
26797W        W88163   9.257  37.879  13.891
26798W        W88164   3.744  41.027  10.567
26799W        W88165  35.406  20.182  14.943
26800W        W88166  43.930  32.614  13.316
26801W        W88167  10.836  11.638  14.865
26802W        W88168  32.587  24.202   2.246
26803W        W88169   1.735  15.179   0.431
26804W        W88170  16.668   6.771  14.416
26805W        W88171  38.474  37.961  13.026
26806W        W88172  19.713   8.358  13.980
26807W        W88173   4.316  33.893  10.909
26808W        W88174  22.184   9.879  14.027
26809W        W88175  22.243  33.437  13.406
26810W        W88176  36.936  31.062  11.389
26811W        W88177  33.894  23.150  13.308
26812W        W88178  12.145   9.857   1.381
26813W        W88179   1.337  34.992   3.305
26814W        W88180  36.350  44.381   0.785
26815W        W88181   9.665  35.952   1.210
26816W        W88182   4.808   7.701  12.089
26817W        W88183  40.521   4.336  10.624
26818W        W88184  43.942  29.506   3.854
26819W        W88185  21.057  38.840   0.258
26820W        W88186   9.350  17.186  13.422
26821W        W88187  31.071  12.358  13.467
26822W        W88188  27.017  39.352   3.863
26823W        W88189  44.264  37.417  12.390
26824W        W88190  10.837   5.356  14.950
26825W        W88191  39.465   1.427   3.345
26826W        W88192   1.921  11.356   0.430
26827W        W88193  22.669  14.127  12.480
26828W        W88194  25.634  18.751   2.375
26829W        W88195  11.254  25.559  13.047
26830W        W88196   6.417  22.109   0.465
26831W        W88197   2.409   1.800   3.657
26832W        W88198  38.389  42.876   2.262
26833W        W88199  18.654  31.111  11.916
26834W        W88200  34.382  20.075   0.466
26835W        W88201  11.659  29.035   3.777
26836W        W88202  42.420  20.760  12.976
26837W        W88203   0.806  18.697   2.780
26838W        W88204  21.618  40.889   3.639
26839W        W88205  16.238  43.816  10.911
26840W        W88206  38.371   8.876  14.500
26841W        W88207  30.433  21.532   1.224
26842W        W88208  24.493  29.566   0.816
26843W        W88209  25.170  31.958   2.242
26844W        W88210  16.156  26.626  11.581
26845W        W88211  29.638  24.649  12.019
26846W        W88212  38.000   7.380  11.996
26847W        W88213  24.603  43.951   3.633
26848W        W88214  32.887  17.711  13.402
26849W        W88215  33.884  33.051   2.398
26850W        W88216  20.523  22.061   0.359
26851W        W88217  28.505  11.769  10.898
26852W        W88218  42.780  10.300  12.493
26853W        W88219  19.754  33.127  14.468
26854W        W88220   6.776   1.944  14.918
26855W        W88221   9.646  20.657  14.431
26856W        W88222   9.690  29.007  13.514
26857W        W88223  36.586  28.155  10.957
26858W        W88224   8.233  24.022   3.759
26859W        W88225  20.711   6.273   2.868
26860W        W88226  14.820  35.597   0.789
26861W        W88227  12.294  32.505   0.310
26862W        W88228  25.524  17.183  14.280
26863W        W88229  30.631  24.687  13.824
26864W        W88230  29.576  16.136   0.890
26865W        W88231   4.334   9.837   0.281
26866W        W88232  18.601  42.441  14.020
26867W        W88233  35.026  12.259   0.459
26868W        W88234   8.754  16.579  13.527
26869W        W88235   0.354  41.414   3.662
26870W        W88236  43.379  10.167   4.302
26871W        W88237  24.663  36.003  14.472
26872W        W88238  42.472  38.409  12.029
26873W        W88239   1.752  38.418  10.586
26874W        W88240  25.074  27.940  11.861
26875W        W88241   0.761  19.144  11.011
26876W        W88242  29.669  11.167  11.018
26877W        W88243  38.569  15.287   0.737
26878W        W88244  31.417  43.303   3.188
26879W        W88245  21.532  29.652  14.016
26880W        W88246  14.698  38.066  12.061
26881W        W88247  14.650  12.339   2.277
26882W        W88248   9.298  36.904   1.359
26883W        W88249  37.995  19.541   2.279
26884W        W88250   3.329   2.307   1.325
26885W        W88251  25.183  24.655   1.279
26886W        W88252  31.590  36.069   0.390
26887W        W88253   2.882  14.597   2.239
26888W        W88254  31.482  43.292   3.704
26889W        W88255   5.200  30.472   0.345
26890W        W88256  16.708   8.733   1.771
26891W        W88257  37.467  27.672  13.948
26892W        W88258  19.265   4.790  13.982
26893W        W88259  39.546  28.165  11.588
26894W        W88260  31.568   3.746  13.434
26895W        W88261  22.073  19.074   0.923
26896W        W88262  11.285   1.474   3.309
26897W        W88263  40.020   0.784  14.467
26898W        W88264  17.722  15.772  10.523
26899W        W88265  14.800  33.041   1.915
26900W        W88266  28.950  28.085   9.555
26901W        W88267  32.536  11.717   4.805
26902W        W88268  16.735   5.393   4.312
26903W        W88269  30.101  20.629  14.347
26904W        W88270  28.172   5.359   0.914
26905W        W88271  23.035   9.660   3.832
26906W        W88272  32.901   5.271  14.469
26907W        W88273  34.599  14.157   1.379
26908W        W88274  11.631  37.473   3.843
26909W        W88275  24.488  26.614  13.896
26910W        W88276  16.766  19.166  12.464
26911W        W88277  29.161  22.070   4.352
26912W        W88278  15.714  34.884   2.855
26913W        W88279   3.373  13.238   4.216
26914W        W88280  31.462  32.907   0.813
26915W        W88281  22.547  19.664   2.685
26916W        W88282   6.853   0.487  12.042
26917W        W88283  11.162   3.719   2.725
26918W        W88284  38.048   4.735   3.750
26919W        W88285  29.579   7.854   0.848
26920W        W88286  44.448  27.148   4.759
26921W        W88287  37.838  19.250  11.067
26922W        W88288  44.404  43.420   4.710
26923W        W88289   9.788  27.042  14.952
26924W        W88290  29.013   5.396   3.649
26925W        W88291  12.814  17.715   2.389
26926W        W88292  20.531  39.865  11.486
26927W        W88293   3.920  19.109   2.377
26928W        W88294  31.964  14.127  12.900
26929W        W88295  12.352  20.119   3.211
26930W        W88296  19.178  33.464  14.006
26931W        W88297  28.935  19.741   0.448
26932W        W88298   4.387  38.468   3.289
26933W        W88299  30.120  15.273  10.498
26934W        W88300  33.599  16.208  13.970
26935W        W88301   5.771  44.419  14.824
26936W        W88302  26.583  14.291  12.522
26937W        W88303  18.614  16.214   3.245
26938W        W88304   6.792  15.193  13.064
26939W        W88305  30.511  20.120  12.079
26940W        W88306  31.517  13.844  14.950
26941W        W88307  25.470  25.672  12.002
26942W        W88308  16.151  40.912  12.422
26943W        W88309  36.019  36.891  14.365
26944W        W88310  26.555  26.578   5.764
26945W        W88311  23.053  28.948   5.766
26946W        W88312  32.984  32.946   1.862
26947W        W88313  23.674  15.587  12.899
26948W        W88314   7.829  35.492   0.397
26949W        W88315  19.202  26.022   4.726
26950W        W88316  23.100  37.980   1.449
26951W        W88317   1.370  19.716  11.048
26952W        W88318  22.218  22.728  12.993
26953W        W88319  37.564  44.265   2.356
26954W        W88320  32.450  36.871   2.789
26955W        W88321  38.854   7.409   0.818
26956W        W88322  21.541  22.239   1.732
26957W        W88323  42.290  18.084   0.865
26958W        W88324  32.033  35.937   3.836
26959W        W88325  39.523  17.677   2.249
26960W        W88326  19.667   2.428   1.827
26961W        W88327  37.979   1.474   1.342
26962W        W88328  21.261  21.611  14.486
26963W        W88329  32.103  44.989   2.192
26964W        W88330  14.280   9.741  13.461
26965W        W88331  20.137  40.951   3.259
26966W        W88332  28.543  23.223   3.710
26967W        W88333  28.978  34.506  14.810
26968W        W88334  39.978  14.119  11.446
26969W        W88335  40.303   7.909  13.835
26970W        W88336  11.744   1.755  14.004
26971W        W88337  15.182  17.776   1.413
26972W        W88338   6.765   4.758  13.464
26973W        W88339  31.945  14.768  11.433
26974W        W88340  40.973  43.779   0.727
26975W        W88341  42.317   2.965   2.224
26976W        W88342  15.223  23.633   0.453
26977W        W88343   0.890  25.668  13.845
26978W        W88344   2.349  33.052  11.917
26979W        W88345  28.153  10.813   0.962
26980W        W88346  40.404  28.535   1.257
26981W        W88347  32.589  27.067  13.925
26982W        W88348  18.571  26.151  12.959
26983W        W88349   0.381  34.535  12.354
26984W        W88350   6.309   2.910  13.917
26985W        W88351  44.380  30.054  13.871
26986W        W88352  16.608  19.659  11.126
26987W        W88353   7.751  17.113  13.919
26988W        W88354  41.410  12.359  13.460
26989W        W88355   0.943  18.136   9.949
26990W        W88356  17.307  16.776  13.944
26991W        W88357  33.126  17.656   4.824
26992W        W88358  37.990  16.221   1.823
26993W        W88359  36.372   2.434  12.449
26994W        W88360  22.521   7.680   2.740
26995W        W88361  44.805  39.927   2.231
26996W        W88362  37.432  22.031  13.985
26997W        W88363  12.274  15.172   4.187
26998W        W88364  24.604  24.081   0.272
26999W        W88365  10.696  38.540   2.280
27000W        W88366  31.092   6.328   4.765
27001W        W88367   8.868   8.234  12.574
27002W        W88368  37.498  41.926  11.393
27003W        W88369   3.766  14.170   4.701
27004W        W88370  41.912  15.778  10.502
27005W        W88371   0.762  37.487  13.420
27006W        W88372  25.651  42.798  10.931
27007W        W88373  25.550   5.710   3.701
27008W        W88374  26.639  23.128  11.595
27009W        W88375  44.490  23.230   2.776
27010W        W88376  22.103  39.560  13.445
27011W        W88377  19.542   4.720   1.710
27012W        W88378  12.126  43.381   0.850
27013W        W88379   4.917  26.176  13.472
27014W        W88380   5.804  28.650   2.198
27015W        W88381  28.607  38.920  13.948
27016W        W88382  36.904  39.857   1.829
27017W        W88383   1.864  22.111   4.635
27018W        W88384  17.240  12.811   1.783
27019W        W88385  30.522  28.446  13.978
27020W        W88386  32.906  31.960   1.929
27021W        W88387  40.421   6.293   0.404
27022W        W88388  24.142  44.991   1.904
27023W        W88389  34.086  29.486   4.762
27024W        W88390  19.580  11.647  13.915
27025W        W88391  17.141  11.693   2.682
27026W        W88392  14.667  24.539   1.776
27027W        W88393  11.696   1.825  11.514
27028W        W88394  35.539  40.043   1.264
27029W        W88395   2.755  32.567  14.854
27030W        W88396   5.922   6.899  12.347
27031W        W88397   4.403   6.799   3.631
27032W        W88398  41.823  44.850  11.553
27033W        W88399  31.406  15.089  11.119
27034W        W88400  11.237  14.111  11.894
27035W        W88401   3.359  41.316   1.417
27036W        W88402  38.444  12.263  14.378
27037W        W88403  36.978  19.727   4.233
27038W        W88404  44.469  11.754  12.866
27039W        W88405  32.979  33.125  10.954
27040W        W88406  15.609  25.002   3.246
27041W        W88407  34.074  30.087  11.945
27042W        W88408   3.249  38.003  13.486
27043W        W88409   2.351  13.297   4.799
27044W        W88410  31.114  37.368   1.719
27045W        W88411  37.531  18.217  12.578
27046W        W88412  16.770  26.482  10.545
27047W        W88413  19.127  22.545  11.958
27048W        W88414  24.035  27.631   2.783
27049W        W88415  10.177  26.622   0.466
27050W        W88416  22.239  35.381  10.897
27051W        W88417  20.249  32.039  11.899
27052W        W88418   8.711  10.701   2.419
27053W        W88419  39.341  40.820  12.572
27054W        W88420   9.212  19.051   2.768
27055W        W88421  22.110   9.358  14.939
27056W        W88422  22.199  42.814   3.212
27057W        W88423  12.729  44.360  14.982
27058W        W88424  10.282   4.711  14.987
27059W        W88425   5.318  41.827   0.844
27060W        W88426   4.268  40.361   3.249
27061W        W88427  37.966  14.700  10.891
27062W        W88428  24.111  39.830  13.492
27063W        W88429  13.246  14.206  12.081
27064W        W88430  32.945  18.077  11.111
27065W        W88431  20.685  15.821   4.152
27066W        W88432  20.766   3.307  14.008
27067W        W88433   7.387  10.296   0.780
27068W        W88434  27.041  16.645   3.722
27069W        W88435  13.719   6.335   2.294
27070W        W88436   3.754  17.785   3.744
27071W        W88437  23.665  39.396   0.942
27072W        W88438  16.204  13.231  13.960
27073W        W88439  32.581  14.295   4.720
27074W        W88440  30.487  16.197  14.401
27075W        W88441  18.623   6.753   4.629
27076W        W88442  36.956  19.040  13.343
27077W        W88443  28.104   5.251  13.467
27078W        W88444  18.239  21.043  14.285
27079W        W88445  35.873  27.992  14.366
27080W        W88446  20.730   4.833  12.038
27081W        W88447  16.149  36.869   0.440
27082W        W88448  15.699  42.833   0.917
27083W        W88449  16.719  38.353  10.509
27084W        W88450   2.417   3.318   5.257
27085W        W88451  12.260  40.492  10.488
27086W        W88452   2.308  20.563   3.193
27087W        W88453  35.382   6.380   4.736
27088W        W88454  24.153  29.125  13.960
27089W        W88455  12.641  25.149  10.951
27090W        W88456  33.445  28.178   4.717
27091W        W88457  25.129  37.083   1.291
27092W        W88458  42.835   1.253   3.834
27093W        W88459  36.880  43.821   2.179
27094W        W88460   4.273  14.326   2.885
27095W        W88461   9.194  21.053  14.329
27096W        W88462  22.562  25.103   2.667
27097W        W88463  31.098  24.567   3.796
27098W        W88464  33.417  23.518  14.950
27099W        W88465   3.460  13.727  12.423
27100W        W88466  42.792   6.798   2.356
27101W        W88467  38.943  28.538   2.852
27102W        W88468  16.174  16.572   0.355
27103W        W88469  31.117  18.282  10.144
27104W        W88470  32.999   7.675   2.415
27105W        W88471  10.222   6.813   1.720
27106W        W88472  22.250  34.478  11.578
27107W        W88473   7.794  14.691  13.918
27108W        W88474  28.116  22.518   5.242
27109W        W88475  40.872  23.014  13.532
27110W        W88476  28.627  24.576  13.013
27111W        W88477   7.328  14.720   2.803
27112W        W88478   0.836  42.846   5.297
27113W        W88479  24.092  36.015   0.961
27114W        W88480  30.912  43.425   3.252
27115W        W88481  20.134  14.178  13.802
27116W        W88482   3.898  41.878  12.455
27117W        W88483   6.200  37.071   4.625
27118W        W88484  12.756  34.411  10.419
27119W        W88485  15.112   5.733   3.751
27120W        W88486   9.172  15.810  13.502
27121W        W88487   2.471   9.256  14.022
27122W        W88488  28.575  28.495  11.375
27123W        W88489  41.432  43.513  11.573
27124W        W88490  18.192   9.215  13.838
27125W        W88491  35.370  42.912   3.645
27126W        W88492   6.318   1.321  10.409
27127W        W88493  31.081  19.763   1.236
27128W        W88494   6.690  24.626  10.551
27129W        W88495  35.561   7.191   4.295
27130W        W88496  19.124  13.341  13.947
27131W        W88497  33.452  25.482   2.305
27132W        W88498   0.324  14.676   4.165
27133W        W88499  34.049  15.737  12.472
27134W        W88500  18.107  14.157  12.380
27135W        W88501   2.451  26.542  14.006
27136W        W88502  17.621  36.076  11.459
27137W        W88503  10.691  35.957  10.631
27138W        W88504   9.387  29.142  10.541
27139W        W88505  29.632  28.976  10.556
27140W        W88506  18.744  14.729   3.154
27141W        W88507   8.862  21.619   3.691
27142W        W88508  32.497   3.728   4.834
27143W        W88509  22.541  25.516   1.788
27144W        W88510   7.373  28.176   5.215
27145W        W88511   4.232  38.950  12.491
27146W        W88512  36.999  38.497  13.504
27147W        W88513  19.713  15.197  11.592
27148W        W88514   3.786  14.169  11.101
27149W        W88515  10.331  12.327   2.242
27150W        W88516  23.242   2.752   3.694
27151W        W88517  22.651   1.471   0.354
27152W        W88518  28.652  44.269   0.839
27153W        W88519  19.665  14.643   1.715
27154W        W88520  42.378  11.654  10.630
27155W        W88521  20.093  44.831   0.323
27156W        W88522  36.540  29.610   1.230
27157W        W88523  34.457  41.018   9.547
27158W        W88524  36.027   8.749  14.992
27159W        W88525  35.597  12.792  10.603
27160W        W88526  12.216  43.433  14.011
27161W        W88527  43.343   8.159  10.443
27162W        W88528  19.685  29.994   0.862
27163W        W88529   5.689  15.790  12.933
27164W        W88530   2.737  11.134  10.989
27165W        W88531   3.224  20.748  12.435
27166W        W88532  16.624  25.079   2.194
27167W        W88533  39.524  14.675   4.186
27168W        W88534   3.859  23.089  12.040
27169W        W88535  14.677  34.053   2.303
27170W        W88536   6.819  10.237  13.895
27171W        W88537  32.614   3.413   4.186
27172W        W88538   9.335  10.823   4.809
27173W        W88539  15.630  14.189  11.869
27174W        W88540  27.635  41.455   0.765
27175W        W88541   1.953  25.178   0.796
27176W        W88542   3.892   7.228   2.731
27177W        W88543  25.572  28.951  12.029
27178W        W88544  33.879  38.479  10.472
27179W        W88545  18.671  40.868   4.647
27180W        W88546   4.814  28.966  11.439
27181W        W88547  35.861   5.436  12.944
27182W        W88548  15.814  21.715   4.798
27183W        W88549   2.413  39.326  11.863
27184W        W88550  24.133  34.876  10.000
27185W        W88551  23.035   9.364   4.597
27186W        W88552   2.361   4.392   0.950
27187W        W88553  11.247  19.711   4.221
27188W        W88554   2.237  32.448   4.207
27189W        W88555  22.019  29.964  11.057
27190W        W88556  42.307  34.050  12.993
27191W        W88557  11.729   2.359  14.842
27192W        W88558   6.404  20.149  11.536
27193W        W88559  22.546  41.498   9.972
27194W        W88560  28.674  14.689  14.947
27195W        W88561  14.652  24.121  14.890
27196W        W88562  32.617  11.135   4.274
27197W        W88563  20.044  23.013   4.664
27198W        W88564  28.034  21.036   2.376
27199W        W88565  36.510   5.393   3.753
27200W        W88566   7.699  14.267  11.557
27201W        W88567  34.524  15.751   4.748
27202W        W88568  35.568  32.457  14.880
27203W        W88569  34.607  28.642  12.841
27204W        W88570  12.134  23.029  12.993
27205W        W88571  20.130  14.299  10.038
27206W        W88572  27.998   3.764  11.122
27207W        W88573  23.630  21.133   4.140
27208W        W88574  27.520  26.531  14.802
27209W        W88575  43.916  23.678   1.330
27210W        W88576   8.655  27.966   0.881
27211W        W88577  35.990  42.384  11.896
27212W        W88578   0.772   5.203   1.279
27213W        W88579   9.326  20.159  10.944
27214W        W88580   4.331  24.692   0.338
27215W        W88581  10.760   1.861   1.837
27216W        W88582  31.580  22.244  13.461
27217W        W88583  25.644  10.733  12.078
27218W        W88584  20.637  26.042   2.340
27219W        W88585   6.827  32.523   4.266
27220W        W88586  34.988  23.059   3.387
27221W        W88587  29.509  26.584   0.850
27222W        W88588  34.567  21.557   2.412
27223W        W88589   7.243  36.935  14.808
27224W        W88590  15.773  44.480   4.126
27225W        W88591  10.644  36.500  13.319
27226W        W88592  17.233  39.908  11.881
27227W        W88593  26.193  36.478   4.220
27228W        W88594   3.803   7.203  13.357
27229W        W88595  44.829  38.046  10.529
27230W        W88596  16.210  44.321  12.958
27231W        W88597   8.281   0.747   1.365
27232W        W88598  38.052   7.842  12.051
27233W        W88599   1.309  42.921   3.323
27234W        W88600  15.259  28.961   2.303
27235W        W88601  42.848  37.031  13.312
27236W        W88602  37.061  42.973  13.881
27237W        W88603  23.080   8.716  13.367
27238W        W88604  27.097  43.868  13.384
27239W        W88605   1.365  13.613   0.287
27240W        W88606  27.948  43.482   2.338
27241W        W88607   1.946  10.710   0.824
27242W        W88608  41.902   3.929  14.795
27243W        W88609  24.612  36.020  13.360
27244W        W88610  26.639   8.894   3.658
27245W        W88611  42.976  30.503   1.783
27246W        W88612  17.733  23.673   2.326
27247W        W88613   6.385  30.968   2.749
27248W        W88614  29.635   6.392   2.723
27249W        W88615   4.828  34.096   4.795
27250W        W88616  12.261  29.166   2.217
27251W        W88617   7.334  35.860   2.417
27252W        W88618  41.356  12.629   4.330
27253W        W88619  35.882   2.899  11.381
27254W        W88620  33.528  37.035  13.920
27255W        W88621  43.960  25.634  12.408
27256W        W88622  21.753  31.411  14.793
27257W        W88623  33.442  23.190   2.326
27258W        W88624  41.791   6.753  12.490
27259W        W88625  25.611  34.069   0.966
27260W        W88626  15.085  19.584  10.910
27261W        W88627  34.914  32.472  13.529
27262W        W88628  22.543  11.863  11.898
27263W        W88629   6.240   6.209   3.301
27264W        W88630   3.296  10.354  10.922
27265W        W88631  35.580  24.170   3.169
27266W        W88632  24.225   6.415   0.274
27267W        W88633  17.721  26.041   0.459
27268W        W88634  25.677  22.028   1.801
27269W        W88635  33.541  31.608  12.454
27270W        W88636  15.147   7.192   1.722
27271W        W88637   5.383   2.443   1.718
27272W        W88638  44.391  22.200  10.958
27273W        W88639   6.739  10.854   3.218
27274W        W88640  27.167  36.523   1.428
27275W        W88641  37.467  34.597   1.409
27276W        W88642  22.058  36.939  14.886
27277W        W88643  33.429  40.356   1.764
27278W        W88644  30.591   4.872   1.321
27279W        W88645  28.646   0.457   2.765
27280W        W88646  10.320   1.758  12.437
27281W        W88647  30.478  41.875  13.850
27282W        W88648  40.963  38.925  12.857
27283W        W88649  13.665  38.970  14.791
27284W        W88650  35.499  19.087   2.253
27285W        W88651  18.295   2.252   1.322
27286W        W88652  15.231  20.140  11.534
27287W        W88653  39.432  10.287  14.964
27288W        W88654   0.982  11.228  12.384
27289W        W88655  30.071   0.865  13.971
27290W        W88656  11.335  25.021  11.103
27291W        W88657  20.029   3.874  14.376
27292W        W88658   1.892  11.797  11.909
27293W        W88659   0.759   1.448   1.227
27294W        W88660  20.666   5.827  10.982
27295W        W88661   5.892  12.642  11.087
27296W        W88662  39.869  34.420  10.579
27297W        W88663  17.179  26.110  12.920
27298W        W88664  23.635  16.659  12.533
27299W        W88665  21.215  19.125   1.895
27300W        W88666  44.891  38.053  14.424
27301W        W88667  18.733   9.659   2.356
27302W        W88668  15.682  11.334   1.330
27303W        W88669  39.907  36.517  12.371
27304W        W88670  12.246  31.647  11.881
27305W        W88671  14.692  11.292   0.951
27306W        W88672  18.620  12.656  14.422
27307W        W88673  22.745  34.442   3.360
27308W        W88674  22.742  42.867  10.500
27309W        W88675  17.764  29.611  11.995
27310W        W88676   9.276  39.485  13.370
27311W        W88677  17.182  25.219  12.521
27312W        W88678  23.719  42.843  12.362
27313W        W88679   2.336  10.279  11.858
27314W        W88680  34.540  28.040   0.861
27315W        W88681  11.792  38.469  13.026
27316W        W88682   5.229  38.970   4.307
27317W        W88683  36.470   0.960  14.843
27318W        W88684   0.251  10.200   0.368
27319W        W88685  41.815  27.090  10.466
27320W        W88686  44.483   0.749  14.915
27321W        W88687   1.453   7.859  10.494
27322W        W88688  26.540  38.434  11.112
27323W        W88689  30.965  28.544   4.669
27324W        W88690   3.394  40.321   1.290
27325W        W88691  30.439  35.863  13.006
27326W        W88692   8.228   2.292  11.576
27327W        W88693   8.693  17.788   1.878
27328W        W88694   2.456  22.102   4.117
27329W        W88695  14.659  10.145   5.288
27330W        W88696  19.220   5.924   3.181
27331W        W88697  16.191  38.911  10.015
27332W        W88698  22.054   9.222  10.581
27333W        W88699   2.432  22.716   2.666
27334W        W88700  32.029  17.181   2.790
27335W        W88701  15.748   0.960  10.966
27336W        W88702  18.649  42.363  11.961
27337W        W88703  39.861  23.538  13.489
27338W        W88704  33.395  11.152   2.809
27339W        W88705   0.287  22.188   4.228
27340W        W88706  12.661   2.946   0.329
27341W        W88707   8.818  36.464  14.913
27342W        W88708   1.392   7.741   2.247
27343W        W88709  28.528  26.990  13.911
27344W        W88710  42.844  27.516   3.318
27345W        W88711  27.974  41.462  14.474
27346W        W88712   4.901  19.678   3.748
27347W        W88713  27.146  42.031   2.694
27348W        W88714  30.529  42.004   5.111
27349W        W88715  13.702   6.836   0.470
27350W        W88716   7.792  15.083  12.398
27351W        W88717  35.499  16.149   4.260
27352W        W88718  12.288  24.511  13.911
27353W        W88719  27.506  43.977  14.884
27354W        W88720   0.272  40.906  13.464
27355W        W88721  44.008  32.054  10.606
27356W        W88722  36.911  11.276  10.552
27357W        W88723  25.523   4.761   4.331
27358W        W88724  14.693  34.586  12.095
27359W        W88725  21.150  35.099  12.965
27360W        W88726  10.192  18.073  14.779
27361W        W88727   1.342   7.899   3.345
27362W        W88728  22.087  19.194  14.381
27363W        W88729  38.869  32.613   2.857
27364W        W88730   9.320  30.944  14.768
27365W        W88731  19.224  25.964  13.496
27366W        W88732  26.014   9.757   2.673
27367W        W88733  10.688  29.522  10.456
27368W        W88734  27.192   7.252   1.232
27369W        W88735  28.990   8.857   3.640
27370W        W88736  37.496  15.147   0.753
27371W        W88737  22.576   4.702  13.023
27372W        W88738  36.006  43.787   4.603
27373W        W88739  36.440  34.413   3.813
27374W        W88740  26.523  28.680   2.879
27375W        W88741  33.398  32.981   3.373
27376W        W88742  20.075   2.413  11.551
27377W        W88743   3.381  20.686   1.705
27378W        W88744   2.406   9.249   2.183
27379W        W88745  36.589   9.730   4.701
27380W        W88746  29.444  28.065  10.484
27381W        W88747  26.640   9.225   2.309
27382W        W88748   5.828  13.813  13.356
27383W        W88749  23.712  34.406   2.722
27384W        W88750  33.968   0.468   3.386
27385W        W88751   8.824  26.474   1.314
27386W        W88752   9.654  14.791  10.522
27387W        W88753   6.322  44.331  13.445
27388W        W88754  25.032   1.243   4.769
27389W        W88755  41.440   8.791   2.352
27390W        W88756  41.036  13.743   4.252
27391W        W88757  28.562  18.188  10.036
27392W        W88758  40.498   8.178  13.544
27393W        W88759  23.079   2.961  13.795
27394W        W88760  26.552  44.845   4.634
27395W        W88761  17.714  36.886  11.095
27396W        W88762  35.895  37.866   4.114
27397W        W88763  33.388  23.189  14.798
27398W        W88764  28.130   6.723  14.880
27399W        W88765  35.435   7.394  12.525
27400W        W88766  36.415  24.608   3.718
27401W        W88767   2.269   4.709   4.316
27402W        W88768  10.278  26.555  11.907
27403W        W88769  11.697   8.750   1.361
27404W        W88770   8.330  43.445  10.905
27405W        W88771   5.423  20.175  13.797
27406W        W88772   5.808   0.286   3.629
27407W        W88773  26.597   1.936  14.843
27408W        W88774  29.174  40.358   2.885
27409W        W88775  22.737  15.174   2.398
27410W        W88776  14.104  43.889   4.622
27411W        W88777  34.530  23.527  10.413
27412W        W88778  13.333  42.942   4.346
27413W        W88779  14.693  11.801  12.038
27414W        W88780   1.472  14.619  14.782
27415W        W88781  29.660  18.716   3.178
27416W        W88782   3.912  36.043  13.797
27417W        W88783   0.874   1.795   5.275
27418W        W88784  33.412  22.717  14.985
27419W        W88785  40.377  44.768   3.819
27420W        W88786  32.575  18.249  11.071
27421W        W88787  26.643  31.122  12.412
27422W        W88788  13.750  30.442  12.986
27423W        W88789   9.883  18.753   0.433
27424W        W88790  34.530  10.765   1.320
27425W        W88791  40.347  11.236  12.531
27426W        W88792  37.347  22.050  10.009
27427W        W88793  34.404  24.716   2.387
27428W        W88794  37.967  13.170  11.129
27429W        W88795  20.541   5.389   2.723
27430W        W88796  20.185  40.890   1.301
27431W        W88797  32.629   5.854   2.672
27432W        W88798  44.341  26.469   1.286
27433W        W88799  18.786   9.390   3.749
27434W        W88800  14.812  37.358   0.246
27435W        W88801  31.593  43.325  14.872
27436W        W88802  17.714  32.976   0.743
27437W        W88803  43.279  43.314  13.054
27438W        W88804   0.319  20.233   4.598
27439W        W88805  25.621   8.367  12.023
27440W        W88806   9.858   8.284   2.799
27441W        W88807  29.618  36.407   4.673
27442W        W88808   3.364  22.707   0.830
27443W        W88809  44.929  44.823  11.073
27444W        W88810  34.467  28.605  10.895
27445W        W88811  36.869  24.560  11.427
27446W        W88812  37.879  40.469   3.267
27447W        W88813  44.956  26.112  13.317
27448W        W88814   4.926  41.895  12.952
27449W        W88815  15.271   7.346  11.999
27450W        W88816  25.164  15.666  12.046
27451W        W88817  26.532  16.684   2.336
27452W        W88818  10.859  24.223  12.968
27453W        W88819  40.006  44.499   1.373
27454W        W88820  34.925  17.095  10.059
27455W        W88821   9.743  18.784   4.290
27456W        W88822  13.350   9.180  12.529
27457W        W88823  40.965  40.451   4.141
27458W        W88824  32.066  23.592   4.628
27459W        W88825  43.908  16.702  11.926
27460W        W88826   0.769  12.171  14.022
27461W        W88827  11.827  20.656  13.485
27462W        W88828  10.255  12.320   1.405
27463W        W88829  30.642  37.393   4.770
27464W        W88830  14.131  30.472   3.689
27465W        W88831  38.353  10.287  13.537
27466W        W88832  27.692   3.737  14.823
27467W        W88833   4.898  44.806  12.966
27468W        W88834  14.156  42.021  10.404
27469W        W88835  15.249   5.766  11.859
27470W        W88836  13.719   5.386   4.140
27471W        W88837  36.566  24.538   4.682
27472W        W88838  21.566  40.040  11.088
27473W        W88839   6.296  36.862   2.326
27474W        W88840  23.582   1.315   4.700
27475W        W88841   3.773   6.855   4.328
27476W        W88842   1.382  37.376  13.859
27477W        W88843  33.422   8.661  14.892
27478W        W88844  41.847   1.367   3.320
27479W        W88845  39.471  39.550  11.869
27480W        W88846  27.010   2.841  10.153
27481W        W88847  14.161  20.086  10.927
27482W        W88848  40.880  33.480   3.165
27483W        W88849  35.600  23.011  10.428
27484W        W88850  12.311  34.548  14.358
27485W        W88851  33.525  10.331  13.323
27486W        W88852   8.226   4.854   3.868
27487W        W88853  32.069  37.848   1.791
27488W        W88854   1.480  43.274  12.015
27489W        W88855  24.664   1.274   0.391
27490W        W88856  38.466  23.142  13.365
27491W        W88857  39.007  28.454  14.000
27492W        W88858  42.432  14.653  14.859
27493W        W88859  39.864  12.642   4.248
27494W        W88860  30.158  10.176  13.531
27495W        W88861   3.946  34.589  12.094
27496W        W88862   5.721  13.326   5.148
27497W        W88863  13.809  24.213   2.261
27498W        W88864   5.360  37.965   3.852
27499W        W88865  32.604   5.869  11.592
27500W        W88866  27.668  27.625   1.266
27501W        W88867  42.800  29.175  14.946
27502W        W88868  38.969   0.911   0.873
27503W        W88869  16.598  38.468  12.570
27504W        W88870  27.131  34.058   2.406
27505W        W88871  39.492   6.739  12.427
27506W        W88872  17.166  32.524   2.789
27507W        W88873  33.600  33.956  10.513
27508W        W88874  18.217  17.251  10.637
27509W        W88875  21.158  43.881   2.758
27510W        W88876  24.047   3.368   4.810
27511W        W88877  28.507   4.734  14.511
27512W        W88878   3.829  25.593   1.262
27513W        W88879  33.568  41.305  12.533
27514W        W88880  14.215  15.281  12.075
27515W        W88881  12.206  35.365   1.443
27516W        W88882  22.199   4.294   3.279
27517W        W88883  27.087  15.152   2.691
27518W        W88884  26.673   1.940  12.903
27519W        W88885   7.220  22.677  10.423
27520W        W88886  34.446  28.936  14.336
27521W        W88887   6.338   9.750   2.200
27522W        W88888  40.530  15.611   2.855
27523W        W88889   9.864  22.711   0.411
27524W        W88890   8.677  35.077  14.762
27525W        W88891   7.818  27.648   0.452
27526W        W88892  37.918  17.296   2.891
27527W        W88893  14.597  16.317  10.414
27528W        W88894   0.863  14.768   4.329
27529W        W88895   7.245  36.948  11.459
27530W        W88896  21.564  24.634  14.510
27531W        W88897  20.135  14.173   4.667
27532W        W88898  23.686  20.074   1.782
27533W        W88899   1.351  21.030   3.228
27534W        W88900  34.392  19.075   2.805
27535W        W88901  23.603  44.412   3.736
27536W        W88902  38.826  43.477   2.897
27537W        W88903  35.983  15.642   4.332
27538W        W88904  24.660  18.137  14.343
27539W        W88905  41.848   3.247   9.989
27540W        W88906  30.973  30.912  10.438
27541W        W88907   4.819  22.713  14.294
27542W        W88908  40.957  14.276  12.043
27543W        W88909  33.535  39.442  10.550
27544W        W88910  31.932  17.669  13.481
27545W        W88911  33.015  23.621   2.765
27546W        W88912  26.625  13.265   3.235
27547W        W88913  30.441  13.742   2.691
27548W        W88914  28.107  14.636   3.246
27549W        W88915  18.572   7.239  13.451
27550W        W88916  37.569   4.745   2.314
27551W        W88917  33.554   3.344  10.091
27552W        W88918  18.118   4.355   0.877
27553W        W88919   6.265  26.681  11.128
27554W        W88920  23.214  44.845  10.644
27555W        W88921  43.946   1.333  11.995
27556W        W88922  27.947  36.926   3.214
27557W        W88923  17.789  22.508  10.603
27558W        W88924  16.757  29.935  13.517
27559W        W88925   1.741  33.458   4.215
27560W        W88926  24.543  37.008  11.394
27561W        W88927  39.861  27.951  11.978
27562W        W88928   1.427   1.447  10.948
27563W        W88929  38.904  15.711  10.638
27564W        W88930   5.768  17.068  11.468
27565W        W88931   2.872  30.911   3.631
27566W        W88932  29.025  17.564  12.962
27567W        W88933   8.879  13.150   4.276
27568W        W88934  11.628  37.075  12.339
27569W        W88935   6.343  34.884   0.319
27570W        W88936  36.396   9.326   3.344
27571W        W88937  27.127  21.680   4.828
27572W        W88938  30.163  26.130   1.886
27573W        W88939  25.009  19.538   2.369
27574W        W88940  17.640  43.833  14.873
27575W        W88941  37.381  30.139  11.512
27576W        W88942  35.519  26.047  14.393
27577W        W88943  30.959  18.119   3.726
27578W        W88944  41.434  39.059   1.437
27579W        W88945   9.183  18.275   4.352
27580W        W88946   8.374  13.833  14.818
27581W        W88947  27.006  15.088   1.240
27582W        W88948  24.657  34.073   5.154
27583W        W88949   6.771  18.083  10.948
27584W        W88950  28.595   7.374   1.780
27585W        W88951  24.981  41.411  12.573
27586W        W88952  20.082   1.379  11.055
27587W        W88953  44.303  30.512  14.928
27588W        W88954  18.181   4.310   1.326
27589W        W88955   6.783   8.363   3.749
27590W        W88956  42.862  27.608  14.885
27591W        W88957  11.320  24.571   4.718
27592W        W88958   7.180  23.066   4.627
27593W        W88959   7.725  18.763  11.948
27594W        W88960  36.495  16.274   1.414
27595W        W88961  35.110  16.166  11.948
27596W        W88962  36.561   3.248   4.278
27597W        W88963  31.533   2.267   1.731
27598W        W88964  32.966  14.171  13.343
27599W        W88965  35.066   3.422   4.759
27600W        W88966   6.346  20.625  13.938
27601W        W88967  13.622   6.687  14.806
27602W        W88968  42.308  35.548  10.550
27603W        W88969  44.395  13.172   0.837
27604W        W88970  40.381  41.938   0.772
27605W        W88971   8.397  23.100   4.188
27606W        W88972  41.512  40.303   1.744
27607W        W88973  10.702  12.689  14.873
27608W        W88974  28.476  23.570  11.013
27609W        W88975  22.699  22.539   1.253
27610W        W88976  38.873  39.354  13.322
27611W        W88977  29.016  18.571   3.659
27612W        W88978  12.349  40.538   4.753
27613W        W88979   6.722   0.377   2.207
27614W        W88980   1.282  40.984  10.916
27615W        W88981  16.084  21.680   4.205
27616W        W88982  30.134  30.657  12.932
27617W        W88983  21.751  21.536   0.327
27618W        W88984   5.742  10.648  11.028
27619W        W88985  21.228  34.090   0.769
27620W        W88986   1.373   5.802   1.355
27621W        W88987  18.580  33.932   9.547
27622W        W88988  31.029   3.756  14.311
27623W        W88989  34.610   2.250   0.858
27624W        W88990  26.181  29.550  14.762
27625W        W88991   6.246  17.793   9.507
27626W        W88992  24.102  23.686   4.125
27627W        W88993  31.123  40.461   3.263
27628W        W88994  24.193  39.043  14.389
27629W        W88995  36.980  19.669  12.911
27630W        W88996   4.799  37.534   3.703
27631W        W88997   6.349  38.343  13.825
27632W        W88998   6.812   3.735  12.575
27633W        W88999  28.501  18.271   2.714
27634W        W89000  35.403  32.904  13.357
27635W        W89001  28.039  33.900  14.947
27636W        W89002  44.298  10.830   1.392
27637W        W89003  33.483  36.517   0.763
27638W        W89004  20.185  25.123   1.316
27639W        W89005  22.110   9.785   2.762
27640W        W89006  39.003  30.000  11.446
27641W        W89007  20.123  14.629   0.286
27642W        W89008  43.789  41.381  11.037
27643W        W89009   0.818  39.879   1.865
27644W        W89010  28.536  14.787  12.356
27645W        W89011  26.119   3.355  14.016
27646W        W89012  35.067  13.258   1.705
27647W        W89013  12.161  34.066  12.443
27648W        W89014  15.759  34.966   2.209
27649W        W89015  10.277  30.458   2.383
27650W        W89016  22.576  41.362   2.739
27651W        W89017   3.710  12.703  10.547
27652W        W89018  11.626  10.689  13.924
27653W        W89019  40.005  27.569   1.746
27654W        W89020  32.042  23.235   3.344
27655W        W89021   3.353  28.029  12.940
27656W        W89022  33.920  13.766  11.376
27657W        W89023  11.777  43.807  13.964
27658W        W89024   6.890  23.632   2.212
27659W        W89025  17.590  17.263  14.370
27660W        W89026  20.112  31.611   2.347
27661W        W89027  26.482   1.795   4.765
27662W        W89028   5.833  13.815   1.761
27663W        W89029  19.215  36.469   1.422
27664W        W89030  21.128  38.459   5.304
27665W        W89031  12.710  27.011  14.866
27666W        W89032  34.607  21.674   1.907
27667W        W89033  40.312  27.124   2.204
27668W        W89034  24.111  22.066   3.680
27669W        W89035  27.552  11.788   4.797
27670W        W89036  44.985  43.399  11.580
27671W        W89037   8.877  28.455  14.866
27672W        W89038  29.603  23.226  13.843
27673W        W89039  38.451  33.570   4.119
27674W        W89040  40.417   8.734   0.849
27675W        W89041  28.655  34.091   0.245
27676W        W89042   3.295   5.691  11.386
27677W        W89043   5.355  21.711   2.266
27678W        W89044  31.589  27.124  11.013
27679W        W89045   0.315  16.131   0.854
27680W        W89046  25.119   3.764  14.760
27681W        W89047  43.997  16.740  13.526
27682W        W89048  10.743   4.402   0.843
27683W        W89049  33.912  31.422   3.709
27684W        W89050  13.640  23.001  12.488
27685W        W89051  39.385   9.652  12.425
27686W        W89052  36.944  15.216   3.637
27687W        W89053  10.315   7.241   1.859
27688W        W89054  27.515  30.425   5.272
27689W        W89055  43.475  23.574  13.800
27690W        W89056  10.813   0.894   1.258
27691W        W89057  27.130   4.810  10.585
27692W        W89058  21.198  19.670   1.702
27693W        W89059   9.242   5.421   1.431
27694W        W89060  20.157  27.672  13.397
27695W        W89061  29.154  11.845   4.763
27696W        W89062   2.767  24.155   4.728
27697W        W89063   1.797  10.732  10.564
27698W        W89064  30.938  38.337   1.696
27699W        W89065  29.661   4.255  14.842
27700W        W89066  44.448  42.508   2.773
27701W        W89067   6.233  34.472  11.943
27702W        W89068  13.667   8.866   3.304
27703W        W89069  32.104  44.980   2.736
27704W        W89070  10.296  12.717  10.977
27705W        W89071  21.600   1.342  14.277
27706W        W89072  18.230   4.447  10.426
27707W        W89073  27.673  36.348   1.800
27708W        W89074  15.107  44.770  10.935
27709W        W89075  23.134  22.537  13.048
27710W        W89076  41.335  31.055  10.585
27711W        W89077  12.758  22.150  11.392
27712W        W89078   7.899  35.534   2.179
27713W        W89079  31.513  25.497  12.403
27714W        W89080   6.201  29.624  12.079
27715W        W89081   9.804  37.960   0.948
27716W        W89082  25.201  10.868   1.731
27717W        W89083  34.435  26.646  12.041
27718W        W89084  25.611  44.868   0.417
27719W        W89085  24.483   0.791   1.783
27720W        W89086   6.784  26.571  13.810
27721W        W89087  39.050   1.804  12.068
27722W        W89088  32.517  27.072   4.128
27723W        W89089  28.009  18.289   9.955
27724W        W89090  15.277  43.007   0.818
27725W        W89091   0.989  35.554  14.490
27726W        W89092  25.090   0.902  11.572
27727W        W89093  17.240  14.193   1.393
27728W        W89094   7.897  28.011   4.654
27729W        W89095  18.122  44.917   1.792
27730W        W89096  35.890  16.744  12.938
27731W        W89097  13.291  15.740  12.402
27732W        W89098  12.674   8.254   4.260
27733W        W89099  19.060  34.985   4.645
27734W        W89100  39.462   3.772  13.926
27735W        W89101   4.301  31.961  10.430
27736W        W89102  24.034  28.623   3.318
27737W        W89103   7.812  29.061   2.374
27738W        W89104  11.344   1.941  12.458
27739W        W89105   4.764  22.719   2.348
27740W        W89106  37.056  43.490   0.430
27741W        W89107  34.886  20.639  12.344
27742W        W89108  39.529  40.984   2.899
27743W        W89109  17.678  34.586   0.858
27744W        W89110  34.597  22.683  14.359
27745W        W89111  40.528  34.933  13.501
27746W        W89112  39.361  26.675   1.394
27747W        W89113  39.839  39.539  11.567
27748W        W89114   1.873   3.715  13.001
27749W        W89115   7.746  26.125  14.325
27750W        W89116  40.366  37.571   0.474
27751W        W89117  42.867  29.119  12.463
27752W        W89118  29.518   7.375   2.751
27753W        W89119  16.173  16.168   5.720
27754W        W89120  43.789   7.669   0.794
27755W        W89121  28.186  22.152   0.887
27756W        W89122  19.118  15.799  10.602
27757W        W89123  13.667  34.956  10.579
27758W        W89124  37.536   9.281   1.285
27759W        W89125  27.073  44.917   0.387
27760W        W89126  44.412  26.180   0.249
27761W        W89127  35.365   5.848  10.943
27762W        W89128  21.734  14.739   2.417
27763W        W89129  38.969   0.987  14.019
27764W        W89130  31.454  23.080   2.855
27765W        W89131  25.695   1.924  13.006
27766W        W89132  20.204  38.840  12.452
27767W        W89133  34.093   3.743   4.657
27768W        W89134  22.670  30.015   0.290
27769W        W89135  20.065  18.649  14.284
27770W        W89136  38.374  11.281   0.938
27771W        W89137  18.551   2.354  10.447
27772W        W89138   7.295  30.112   4.757
27773W        W89139  27.488  40.879   4.164
27774W        W89140  40.312  35.360  12.506
27775W        W89141   5.421  34.575  12.076
27776W        W89142   2.397  17.110  14.016
27777W        W89143  35.363  17.574  11.539
27778W        W89144   8.819  31.046   3.312
27779W        W89145  42.995   7.391   1.916
27780W        W89146   3.247  34.383  10.902
27781W        W89147   5.365  30.631  13.464
27782W        W89148  15.602   9.323  11.432
27783W        W89149   7.864   6.873  13.026
27784W        W89150  11.313  17.266  14.018
27785W        W89151  27.145  38.032   0.396
27786W        W89152  37.545   8.898   4.131
27787W        W89153  16.259  29.038   3.851
27788W        W89154  27.193  31.629   4.772
27789W        W89155  24.479  30.941  12.826
27790W        W89156  19.184  24.050   0.929
27791W        W89157   0.762  14.319   3.855
27792W        W89158   2.756   5.818  12.048
27793W        W89159  24.720  36.989  12.096
27794W        W89160  28.142  36.481  14.021
27795W        W89161   8.291  24.994  10.428
27796W        W89162  44.957   5.808   1.300
27797W        W89163   4.884  40.032  13.947
27798W        W89164  43.787  22.036  14.948
27799W        W89165   6.689  40.050  14.851
27800W        W89166   1.436  12.757  12.346
27801W        W89167  22.618  19.076   4.132
27802W        W89168  33.585  16.605  11.593
27803W        W89169   6.901  36.360  12.402
27804W        W89170  23.585  19.073  13.437
27805W        W89171  27.112  11.191   2.851
27806W        W89172  28.181   7.673  13.323
27807W        W89173  16.273  39.977  11.058
27808W        W89174   0.325  42.794  10.925
27809W        W89175   7.224  16.160  11.975
27810W        W89176  43.859  15.665  14.400
27811W        W89177  15.319  31.899  11.550
27812W        W89178  34.425  40.519  14.370
27813W        W89179   4.351  36.471   4.713
27814W        W89180   8.356   1.739   1.287
27815W        W89181  24.220  27.064  10.406
27816W        W89182  36.511   6.734   3.297
27817W        W89183  43.513   2.748   1.900
27818W        W89184  33.942  30.434  13.446
27819W        W89185   9.393  36.484   1.251
27820W        W89186  38.056  11.270  12.578
27821W        W89187  23.200  19.714  14.953
27822W        W89188  41.911  35.542   3.649
27823W        W89189  11.310   6.715   4.122
27824W        W89190  43.394  30.594  12.477
27825W        W89191   3.250  26.544   2.302
27826W        W89192  20.592   0.340   1.212
27827W        W89193   0.308   0.824   1.759
27828W        W89194   4.934  23.579  14.447
27829W        W89195  26.629  28.106   1.876
27830W        W89196  32.115  36.557  11.943
27831W        W89197  35.973  17.704   1.877
27832W        W89198   6.710  43.777   3.731
27833W        W89199  40.043  14.704   1.300
27834W        W89200  16.260  16.290   0.875
27835W        W89201  27.512  43.885   3.301
27836W        W89202  10.328  24.484   0.925
27837W        W89203  37.344   9.325  12.483
27838W        W89204  25.193  15.642  14.497
27839W        W89205   2.372  18.212  10.588
27840W        W89206  19.687  20.750   0.899
27841W        W89207  29.977  12.669   0.405
27842W        W89208  42.288  41.808   0.738
27843W        W89209  12.618  21.217  14.322
27844W        W89210   5.406  18.749   2.752
27845W        W89211  22.235  35.000   0.417
27846W        W89212  17.067  11.167   2.382
27847W        W89213  42.413  30.149   4.664
27848W        W89214   4.437  11.293   4.718
27849W        W89215  33.054  14.601  14.433
27850W        W89216   2.777  12.282  13.357
27851W        W89217  42.361  39.422  10.449
27852W        W89218   4.829   7.348   3.631
27853W        W89219  13.779  39.341   4.221
27854W        W89220  14.668   2.755  12.020
27855W        W89221  19.265   8.246   2.738
27856W        W89222   8.381   2.790   3.829
27857W        W89223   5.227  11.819   4.213
27858W        W89224  39.469   7.279  13.838
27859W        W89225  35.022  27.982   4.174
27860W        W89226  33.474  12.235  10.579
27861W        W89227  44.986  21.194  11.430
27862W        W89228  25.512  31.100   1.832
27863W        W89229   7.386   3.384   4.729
27864W        W89230  16.615  36.963   0.842
27865W        W89231  17.623  27.456  10.471
27866W        W89232  31.029  18.159   5.189
27867W        W89233  35.509  25.586   0.434
27868W        W89234  40.943  16.682   4.795
27869W        W89235  17.296  25.525   1.305
27870W        W89236  19.103  44.380  11.475
27871W        W89237  30.042   5.286  12.062
27872W        W89238   6.357  27.113  14.389
27873W        W89239  44.315  15.291   4.269
27874W        W89240  26.966  39.016  11.967
27875W        W89241   5.228  11.283   3.805
27876W        W89242  35.570  18.558   2.841
27877W        W89243  26.136  17.742  14.977
27878W        W89244  13.639  35.453   3.852
27879W        W89245  29.096  21.680   3.371
27880W        W89246   0.464  30.646  11.871
27881W        W89247   6.295  35.061  14.760
27882W        W89248  12.736  26.596  13.407
27883W        W89249  26.627  26.507   4.700
27884W        W89250   8.254  12.810   2.320
27885W        W89251   0.486   8.840  14.347
27886W        W89252  14.257   3.939   2.284
27887W        W89253  17.615  25.002  14.464
27888W        W89254   8.746  39.033   1.270
27889W        W89255   2.842  15.146   0.366
27890W        W89256   7.258  20.086  14.425
27891W        W89257  11.348  13.309   2.869
27892W        W89258  36.987  38.566  14.874
27893W        W89259   4.329  13.812  10.568
27894W        W89260  43.984  15.254   3.634
27895W        W89261  10.319   9.291   0.786
27896W        W89262  29.520  14.658   4.233
27897W        W89263   6.895  22.208   2.387
27898W        W89264  19.064  41.902  14.458
27899W        W89265  12.817  16.198  10.105
27900W        W89266  43.380  37.019   1.927
27901W        W89267  33.388  42.344   0.791
27902W        W89268  42.286  18.594   0.790
27903W        W89269   0.899  29.970  11.503
27904W        W89270  24.988  40.402   5.286
27905W        W89271   5.890  16.109   1.263
27906W        W89272  35.967  41.861  12.881
27907W        W89273  24.104   2.913  10.467
27908W        W89274  33.440   4.270  14.915
27909W        W89275  22.574   1.368  11.489
27910W        W89276   7.666  10.694   0.335
27911W        W89277  39.364  20.581   4.349
27912W        W89278  40.336  37.043  13.417
27913W        W89279  13.836  33.061   0.440
27914W        W89280  31.919  44.987  10.933
27915W        W89281  20.090   5.254  11.981
27916W        W89282  37.841  24.714   4.737
27917W        W89283   7.764  26.611  11.923
27918W        W89284  19.238  11.347   3.324
27919W        W89285   4.293  14.145   2.403
27920W        W89286  26.527   7.764  12.570
27921W        W89287  33.109  24.578   1.874
27922W        W89288  17.195  31.403   3.747
27923W        W89289  29.493   5.223  10.954
27924W        W89290  12.797  30.053   4.319
27925W        W89291  18.733   4.332   4.303
27926W        W89292  32.449  33.605  10.438
27927W        W89293   2.840  41.020  12.028
27928W        W89294   7.364   6.300   2.799
27929W        W89295  20.767  21.706  14.820
27930W        W89296  19.633  25.169   3.816
27931W        W89297  11.290  30.603  14.999
27932W        W89298  34.569   8.715   0.430
27933W        W89299  29.982  36.423  12.505
27934W        W89300  44.365  36.496  10.463
27935W        W89301  30.448   2.247   0.427
27936W        W89302  43.340   9.251  11.988
27937W        W89303  30.912   1.860  14.983
27938W        W89304  16.690  12.300  12.012
27939W        W89305  16.218  40.851  12.940
27940W        W89306  32.629   1.958   0.422
27941W        W89307  26.647  35.960   3.799
27942W        W89308  18.560  33.997   0.470
27943W        W89309  28.144  14.616   1.932
27944W        W89310  37.936  41.793  13.531
27945W        W89311   6.307   8.212  13.887
27946W        W89312  11.288   0.827  14.478
27947W        W89313  14.662  10.234   1.922
27948W        W89314   9.201   5.848   3.314
27949W        W89315  29.561  36.375   0.377
27950W        W89316  29.959  19.167   4.754
27951W        W89317  19.762  38.497  10.128
27952W        W89318  44.002  22.189   1.426
27953W        W89319   4.838  37.908  10.531
27954W        W89320  13.204  10.809  11.865
27955W        W89321   8.324   5.723   0.854
27956W        W89322  20.544  17.263  14.992
27957W        W89323   6.183  44.289  12.003
27958W        W89324  31.914  13.666  10.632
27959W        W89325  21.723  10.753  14.318
27960W        W89326   8.781  22.147   1.396
27961W        W89327  42.515  24.082  14.979
27962W        W89328  36.871   5.871  13.791
27963W        W89329  12.297  30.501  11.014
27964W        W89330  38.484  12.243   2.314
27965W        W89331   7.872  35.867   9.990
27966W        W89332  43.326  32.404   1.328
27967W        W89333  10.234   7.191   3.191
27968W        W89334  40.897  19.051   3.245
27969W        W89335  35.026   0.262   4.610
27970W        W89336  32.982  36.348   4.309
27971W        W89337   8.674   7.744  12.425
27972W        W89338  22.532  14.779   3.745
27973W        W89339  17.214  20.124   3.201
27974W        W89340  25.515  33.402   1.922
27975W        W89341  34.528  31.137   3.172
27976W        W89342  23.001  35.954   3.821
27977W        W89343  42.525  44.011   4.309
27978W        W89344  22.738  34.088   2.365
27979W        W89345  18.600   2.253   1.911
27980W        W89346  35.368   5.749   4.173
27981W        W89347  28.136  31.566  14.977
27982W        W89348  42.408   0.770   4.801
27983W        W89349   4.425  19.551  13.417
27984W        W89350  34.040  18.591  13.314
27985W        W89351  28.437  11.325   3.712
27986W        W89352  25.710  25.114  14.502
27987W        W89353   0.755   6.377  13.028
27988W        W89354   4.435  35.489   3.380
27989W        W89355  33.016  21.533   1.851
27990W        W89356  18.766  41.869  11.056
27991W        W89357   6.875   2.861   3.343
27992W        W89358   8.701   8.699  13.036
27993W        W89359  12.750  19.606  13.496
27994W        W89360  19.548   0.483   2.701
27995W        W89361  27.522  19.045  14.348
27996W        W89362   8.872  26.100   2.181
27997W        W89363  23.731   6.873   1.387
27998W        W89364  19.753  39.499   2.826
27999W        W89365  28.579  29.511   0.469
28000W        W89366   7.713   9.154  10.527
28001W        W89367  11.179  23.072  13.816
28002W        W89368  38.484   8.366   4.629
28003W        W89369  14.609  23.146  12.547
28004W        W89370  41.833  41.984  13.005
28005W        W89371  25.078  19.585  14.344
28006W        W89372  20.556  31.447  12.565
28007W        W89373  30.023  19.081   3.222
28008W        W89374  22.194  34.382  14.406
28009W        W89375  24.152  35.465   3.713
28010W        W89376  16.752   1.800   4.134
28011W        W89377  21.243  18.234  12.026
28012W        W89378  40.833  20.535   0.306
28013W        W89379  10.728   8.857  14.000
28014W        W89380  14.654  41.030   0.280
28015W        W89381  34.380  10.339  13.312
28016W        W89382  27.095  14.196  11.420
28017W        W89383   3.280  28.617  13.887
28018W        W89384   1.751  31.131   1.286
28019W        W89385  35.428  22.660   3.320
28020W        W89386  39.966   4.712   1.398
28021W        W89387  30.468   1.901   2.826
28022W        W89388  13.796  37.466   4.692
28023W        W89389   0.249   7.237  12.483
28024W        W89390  37.026  34.902   0.438
28025W        W89391  41.034  15.187  11.556
28026W        W89392  27.064  33.546   2.268
28027W        W89393  22.030  17.593   1.233
28028W        W89394   3.718  35.575  10.493
28029W        W89395   7.364  25.013  11.592
28030W        W89396  40.328  34.564  13.447
28031W        W89397   0.270  30.125   4.184
28032W        W89398  16.714  32.034  14.764
28033W        W89399  32.434  18.740   0.834
28034W        W89400  33.933  30.617   0.730
28035W        W89401   9.234  27.573   2.846
28036W        W89402   8.165   3.256   1.248
28037W        W89403  34.120  40.355  12.372
28038W        W89404   6.208  28.609   3.746
28039W        W89405   8.215  27.551  14.477
28040W        W89406  13.289  33.568   2.283
28041W        W89407  38.397   5.695   2.399
28042W        W89408  32.441  30.122  12.829
28043W        W89409   4.801  33.947  14.882
28044W        W89410  18.737  28.944  10.151
28045W        W89411  32.894  35.593   2.254
28046W        W89412  41.973   4.376  12.872
28047W        W89413  18.261  33.935   4.737
28048W        W89414  20.745  15.730  13.833
28049W        W89415  33.459  38.852  12.565
28050W        W89416   7.281  25.213  12.432
28051W        W89417  43.825  10.795  14.507
28052W        W89418   7.820  11.868  12.866
28053W        W89419  22.089  10.296   0.949
28054W        W89420  26.701  14.191  13.372
28055W        W89421  14.700  38.863   3.161
28056W        W89422  36.912  17.653   2.249
28057W        W89423  27.625   4.805  11.996
28058W        W89424  29.112  20.600   1.262
28059W        W89425  23.020  21.648  13.978
28060W        W89426  24.484  16.084  11.011
28061W        W89427  29.968   2.365   2.827
28062W        W89428  33.127  12.352   0.348
28063W        W89429  33.961   9.173  14.960
28064W        W89430  17.237  10.201   1.730
28065W        W89431  39.322  12.130   1.363
28066W        W89432  32.975  25.699   2.388
28067W        W89433  23.994   5.911   3.273
28068W        W89434   9.743  38.363   3.234
28069W        W89435   0.301  25.968  14.378
28070W        W89436  17.081  35.371   3.739
28071W        W89437   4.738  29.088   9.976
28072W        W89438  27.544  40.517   4.828
28073W        W89439  13.659   4.313   4.628
28074W        W89440   4.332  16.114   0.820
28075W        W89441  33.921   9.198  12.005
28076W        W89442  34.509  37.028  12.933
28077W        W89443  33.037  39.022   1.382
28078W        W89444   6.422  31.141   3.725
28079W        W89445  18.643  32.043   3.860
28080W        W89446  43.508   9.383   3.761
28081W        W89447  26.652  12.202   2.339
28082W        W89448   5.811  29.652  11.426
28083W        W89449  18.118  40.919   2.758
28084W        W89450  30.121  28.531   0.743
28085W        W89451  16.198   8.329   0.885
28086W        W89452  23.111   5.896   1.889
28087W        W89453  26.630   4.835  12.970
28088W        W89454  31.645   6.856   0.907
28089W        W89455  19.163   9.787  13.475
28090W        W89456  27.029  34.912  12.848
28091W        W89457  24.142   7.844   0.883
28092W        W89458  37.521   4.330   0.312
28093W        W89459  21.748  20.160  12.826
28094W        W89460  15.765  28.157   3.255
28095W        W89461  21.018  16.790  14.899
28096W        W89462  21.136   0.974   0.960
28097W        W89463  12.813   6.879  14.405
28098W        W89464  17.783  25.159   1.386
28099W        W89465  40.445  27.482  12.888
28100W        W89466  12.752   8.687   0.753
28101W        W89467  19.556  31.083   3.168
28102W        W89468  40.320   1.944  14.372
28103W        W89469  43.936  42.449  12.909
28104W        W89470  11.694  32.132   3.714
28105W        W89471  15.301  30.069  14.862
28106W        W89472   2.913   3.822  13.540
28107W        W89473  43.369  32.463   3.707
28108W        W89474  35.077   2.735  10.510
28109W        W89475  30.413   5.212  10.639
28110W        W89476   8.322  19.535  13.813
28111W        W89477  13.337  39.061   2.314
28112W        W89478  22.606   9.308   4.761
28113W        W89479  42.819  27.650  10.027
28114W        W89480  11.181  17.633   2.400
28115W        W89481  10.329  23.077  13.064
28116W        W89482   6.372  42.357  10.452
28117W        W89483  12.265  38.403   1.450
28118W        W89484  44.823  24.071  13.027
28119W        W89485   2.937  34.989  11.041
28120W        W89486  17.661  13.183  12.563
28121W        W89487  42.480  32.061   3.717
28122W        W89488  24.556   5.804  11.454
28123W        W89489  42.851   8.789   3.819
28124W        W89490  13.127  27.159  13.366
28125W        W89491  37.377  21.178   4.346
28126W        W89492  18.620  44.834  12.058
28127W        W89493   9.758  40.915   0.437
28128W        W89494  33.033  16.260  11.888
28129W        W89495  11.365  25.669  11.021
28130W        W89496  12.293  26.470  11.114
28131W        W89497  39.526  19.047   1.715
28132W        W89498   7.173  42.314   0.876
28133W        W89499  33.422  17.168   3.221
28134W        W89500  18.230   2.912  13.046
28135W        W89501   7.264   7.835  11.418
28136W        W89502  23.707  39.885   0.778
28137W        W89503  44.501  10.700  11.475
28138W        W89504   8.725  25.085   0.380
28139W        W89505  11.241   8.818   3.370
28140W        W89506  40.974  21.123   4.752
28141W        W89507  27.493  32.576  14.392
28142W        W89508  37.923  43.909  14.353
28143W        W89509  38.014  24.196  10.910
28144W        W89510  29.152  42.321   4.169
28145W        W89511  23.091  12.695  11.371
28146W        W89512  23.192  32.394  14.822
28147W        W89513   3.763   0.861   4.678
28148W        W89514  39.495  42.325   0.325
28149W        W89515  13.228   5.200  11.031
28150W        W89516  24.202  20.684  13.502
28151W        W89517  26.627  10.834   3.372
28152W        W89518  11.842  15.136   1.927
28153W        W89519  41.894  17.275  12.466
28154W        W89520  21.593   8.713   3.667
28155W        W89521   9.722  33.060  10.508
28156W        W89522  43.828  27.612   9.510
28157W        W89523  15.710  43.512  14.376
28158W        W89524  30.912  41.436   2.800
28159W        W89525  11.231  42.339   1.446
28160W        W89526  17.241  41.981  11.000
28161W        W89527  13.124  27.943   2.786
28162W        W89528  20.128  43.509  14.776
28163W        W89529  29.127  37.498   0.387
28164W        W89530  34.929  16.267   2.205
28165W        W89531  29.436  30.417  12.939
28166W        W89532  23.558  33.907  14.861
28167W        W89533  25.491  29.575  13.950
28168W        W89534   0.447   4.437   0.871
28169W        W89535  12.813  21.137   0.792
28170W        W89536  36.583  24.084  14.765
28171W        W89537   8.228  34.106  13.971
28172W        W89538   1.908   2.277   1.750
28173W        W89539  36.438  20.248   4.715
28174W        W89540  32.080  42.894   2.818
28175W        W89541  24.122  14.269   5.091
28176W        W89542  13.209   5.399   2.881
28177W        W89543  40.990  13.720  11.979
28178W        W89544  10.717   2.347  13.825
28179W        W89545  35.986  26.661  14.342
28180W        W89546  38.021  17.677  13.414
28181W        W89547  26.976   7.354  13.479
28182W        W89548  15.091  31.486  14.313
28183W        W89549  27.983  41.962   0.952
28184W        W89550  27.997  42.451   3.224
28185W        W89551  43.002  11.677  11.604
28186W        W89552  13.190  38.908   3.826
28187W        W89553  14.259  13.668   5.215
28188W        W89554   5.276  25.075  12.018
28189W        W89555  30.018  19.645   2.668
28190W        W89556  24.219  26.516  14.763
28191W        W89557  26.032  33.891   4.232
28192W        W89558  35.565  34.542   1.849
28193W        W89559  30.555  32.938  11.082
28194W        W89560  11.747  43.982  10.968
28195W        W89561   9.266   1.784  14.932
28196W        W89562  29.652  16.759   2.336
28197W        W89563   8.687  16.597   4.309
28198W        W89564  42.398  38.865  11.017
28199W        W89565  20.098  10.809  12.579
28200W        W89566  27.613   1.816  13.401
28201W        W89567   1.314  26.648   1.846
28202W        W89568  24.015  35.543   2.882
28203W        W89569  32.406  17.159  12.016
28204W        W89570  21.714   9.853  14.475
28205W        W89571  39.338  43.444   4.145
28206W        W89572   6.723  16.299  11.385
28207W        W89573  24.986  10.278  11.019
28208W        W89574  34.985  27.194  12.884
28209W        W89575   8.348  18.130   3.863
28210W        W89576   9.656  37.405  13.310
28211W        W89577  12.160  37.953   4.224
28212W        W89578   1.844   0.360  11.949
28213W        W89579  43.800   2.253  10.491
28214W        W89580  42.960  32.141   2.262
28215W        W89581  26.146  27.660   2.281
28216W        W89582  18.280  38.887   2.665
28217W        W89583  40.030  19.260   3.669
28218W        W89584   9.371  20.150   2.683
28219W        W89585  26.021   3.429   0.761
28220W        W89586  22.172   2.753  11.075
28221W        W89587  39.977  44.832   2.388
28222W        W89588  21.634  38.379   9.576
28223W        W89589   9.663  43.508   2.692
28224W        W89590  23.707  34.042  13.528
28225W        W89591  33.497  13.679   2.793
28226W        W89592  18.149  14.762  14.368
28227W        W89593  17.783  12.125  12.368
28228W        W89594   1.966  30.530  14.436
28229W        W89595  17.764   2.857  13.892
28230W        W89596  17.698   2.890  14.963
28231W        W89597  42.853  15.820   0.289
28232W        W89598  21.583   0.966  12.538
28233W        W89599   6.888  25.517  10.468
28234W        W89600  13.235  11.848   4.742
28235W        W89601  17.800  21.087   1.319
28236W        W89602  44.278  13.800   2.885
28237W        W89603   5.311  40.438   1.801
28238W        W89604  18.269  36.991   3.714
28239W        W89605  14.738  14.311  11.907
28240W        W89606  36.004  41.915  14.866
28241W        W89607  23.593  16.686   3.320
28242W        W89608  39.998   1.918   3.380
28243W        W89609  43.361  13.243  10.923
28244W        W89610  14.293   6.280   1.388
28245W        W89611  20.645  34.589  13.347
28246W        W89612  21.120  22.210   2.883
28247W        W89613  29.130  11.256  12.523
28248W        W89614  42.950  40.485  13.870
28249W        W89615   8.293  32.515  11.109
28250W        W89616  10.740  15.099   4.222
28251W        W89617   0.352  44.923  10.436
28252W        W89618  37.378  41.921  13.846
28253W        W89619  38.047  24.628   0.327
28254W        W89620  24.179  38.964  13.432
28255W        W89621   3.755  40.907   4.275
28256W        W89622  43.853  20.201   1.405
28257W        W89623  20.217  27.643   4.658
28258W        W89624  18.664  37.845   3.786
28259W        W89625  43.914   8.189  12.977
28260W        W89626  44.417  15.256  10.076
28261W        W89627  16.253  30.516   4.618
28262W        W89628  32.474  33.128   3.220
28263W        W89629  25.497  31.622  10.509
28264W        W89630   7.272  10.195   4.229
28265W        W89631   9.842   4.831   0.334
28266W        W89632   1.974   7.854  12.024
28267W        W89633   2.298  20.698   1.806
28268W        W89634  43.404   2.812  13.952
28269W        W89635  40.365   8.880   3.249
28270W        W89636  19.599  38.896  12.059
28271W        W89637  30.942   2.914   2.740
28272W        W89638  27.161  22.093   4.253
28273W        W89639  39.322   7.326   1.901
28274W        W89640  24.714   2.459  10.595
28275W        W89641  32.114   8.347  12.441
28276W        W89642   6.350  39.059   0.783
28277W        W89643  30.977  14.683   4.601
28278W        W89644  41.463   1.750   4.304
28279W        W89645   6.324  39.439  12.537
28280W        W89646   8.776  10.243   2.344
28281W        W89647  26.695  23.510  12.014
28282W        W89648  24.503  38.410   2.730
28283W        W89649   9.793  21.109  12.370
28284W        W89650  36.925  14.316   2.362
28285W        W89651  22.628   9.797  12.376
28286W        W89652  17.212  11.166   4.348
28287W        W89653  28.456  35.539  14.352
28288W        W89654  19.117  35.381  14.513
28289W        W89655  10.756  15.818  10.605
28290W        W89656  22.209  13.801  12.459
28291W        W89657  26.999  17.625  12.386
28292W        W89658   4.886   2.864   1.753
28293W        W89659  24.055   2.755   1.380
28294W        W89660  19.610  13.352  14.472
28295W        W89661  40.306  37.410  12.830
28296W        W89662  33.424  23.175   4.781
28297W        W89663   9.163   2.878   2.871
28298W        W89664   0.771  21.257   2.808
28299W        W89665  30.142  30.570   1.297
28300W        W89666  30.590  12.356  13.998
28301W        W89667  10.378  20.728   1.343
28302W        W89668  35.046  32.122  14.939
28303W        W89669  34.503  32.942  12.091
28304W        W89670  40.033  10.311  13.811
28305W        W89671   9.271  22.656   0.312
28306W        W89672  24.623  23.012  12.073
28307W        W89673  19.232  23.200  11.095
28308W        W89674  20.226  30.029  10.959
28309W        W89675  36.842  12.768  14.900
28310W        W89676  34.429   3.297   1.726
28311W        W89677   3.944  10.249   3.642
28312W        W89678  11.695  43.843  11.883
28313W        W89679  20.100  44.826  10.584
28314W        W89680  13.128   1.369   2.317
28315W        W89681   4.444   9.838  13.883
28316W        W89682  12.346  35.091   0.335
28317W        W89683   4.764  35.027  11.084
28318W        W89684  15.743  36.574   2.340
28319W        W89685   0.782  24.714  12.066
28320W        W89686  44.278  41.494   4.727
28321W        W89687   4.399  28.442   0.940
28322W        W89688  25.615  13.808   0.285
28323W        W89689  40.027   3.441   2.720
28324W        W89690  12.648  31.409   1.238
28325W        W89691   2.287  38.948  12.480
28326W        W89692  26.488  15.665   0.797
28327W        W89693  31.987  14.684   2.386
28328W        W89694  32.614  34.459   2.800
28329W        W89695  26.495  40.911  11.062
28330W        W89696   6.325  24.589  10.929
28331W        W89697  30.563  43.946  13.331
28332W        W89698  29.094  23.023  12.995
28333W        W89699  37.336  23.067  13.931
28334W        W89700  42.314   0.890  13.938
28335W        W89701  44.436   4.825  13.800
28336W        W89702  34.503  42.377  13.403
28337W        W89703  40.798  24.199   4.638
28338W        W89704   5.885  32.409  14.991
28339W        W89705  37.842  44.276   2.192
28340W        W89706  43.355  12.277   3.645
28341W        W89707   1.844  23.579  14.763
28342W        W89708  24.144  29.479   2.381
28343W        W89709  37.462  20.053  13.483
28344W        W89710  12.734   3.721  14.030
28345W        W89711  37.987  44.790   2.344
28346W        W89712  17.654  30.583  11.110
28347W        W89713  12.640   6.900   3.774
28348W        W89714  37.859  36.360  14.981
28349W        W89715   7.814   3.221   0.742
28350W        W89716  20.664   0.828   3.235
28351W        W89717  17.755   3.373  10.944
28352W        W89718  25.167  22.652  11.881
28353W        W89719  40.443  10.251  13.313
28354W        W89720  11.370  20.244  11.070
28355W        W89721  14.785   2.228   0.320
28356W        W89722  39.971  20.656  13.907
28357W        W89723  37.068   9.294  12.526
28358W        W89724  21.670   0.378  14.836
28359W        W89725   6.920   3.345  12.358
28360W        W89726  25.184  29.436  13.968
28361W        W89727  18.125  42.028   0.386
28362W        W89728  40.048  22.516   2.192
28363W        W89729  19.630   8.354   0.299
28364W        W89730  34.917  13.663  13.008
28365W        W89731  17.640  21.728   3.176
28366W        W89732  16.741  16.630  14.799
28367W        W89733  30.496  16.796  10.987
28368W        W89734  31.525  23.589   0.282
28369W        W89735   5.228  38.357   4.282
28370W        W89736  26.598  29.653   2.773
28371W        W89737  18.737  25.086  12.554
28372W        W89738  38.885  24.518   4.722
28373W        W89739  20.028  25.486  11.998
28374W        W89740  37.831  39.977   1.798
28375W        W89741  24.576  33.049  13.793
28376W        W89742   5.387  44.831   4.684
28377W        W89743   0.458  37.964  10.612
28378W        W89744   9.732  11.368   1.933
28379W        W89745  44.810   4.231   2.195
28380W        W89746  12.275  29.994  13.529
28381W        W89747  24.196  28.536  11.883
28382W        W89748   2.328  11.738  13.456
28383W        W89749   2.471  27.027  10.540
28384W        W89750   4.803  41.371   4.827
28385W        W89751  39.968   8.161   3.721
28386W        W89752  25.559  30.486  10.917
28387W        W89753  15.739  15.152  11.105
28388W        W89754  31.096  16.778  11.038
28389W        W89755  18.237  44.756   0.841
28390W        W89756  32.491  41.530   3.309
28391W        W89757  19.536  42.005  12.499
28392W        W89758  27.662   4.826  13.462
28393W        W89759  21.712  37.884  10.937
28394W        W89760  29.642  17.277   0.399
28395W        W89761  10.804  22.073   0.244
28396W        W89762  23.054  41.994   1.249
28397W        W89763  32.450   4.927  13.891
28398W        W89764  22.996  30.119   1.740
28399W        W89765  32.556  10.853   4.605
28400W        W89766   3.253  32.512  13.381
28401W        W89767  10.693  24.576   2.412
28402W        W89768  24.664  19.570  12.359
28403W        W89769  15.324  18.650   5.081
28404W        W89770   8.205  30.921  11.066
28405W        W89771  42.305  38.892  14.870
28406W        W89772  25.072  14.179   2.850
28407W        W89773  20.713  20.175   4.124
28408W        W89774  20.031  13.766  10.580
28409W        W89775  11.149  36.908   3.177
28410W        W89776  10.281  26.014   3.195
28411W        W89777  12.318   4.288   0.299
28412W        W89778  39.364   5.339   0.429
28413W        W89779  36.972  23.070  12.995
28414W        W89780   2.853  18.584   3.816
28415W        W89781   7.755  23.170   4.817
28416W        W89782  26.175  41.798   4.791
28417W        W89783   2.782   7.901  13.450
28418W        W89784  30.067   6.412  12.069
28419W        W89785   5.921   5.305   3.847
28420W        W89786  10.334  18.583   1.860
28421W        W89787  12.684  37.522  11.380
28422W        W89788   6.395  37.367   2.329
28423W        W89789  36.583   6.345  14.324
28424W        W89790  35.474  24.566   1.211
28425W        W89791  17.727  37.351   0.419
28426W        W89792   5.408   1.255  10.590
28427W        W89793  24.118  22.520  11.520
28428W        W89794   1.755  39.503   0.297
28429W        W89795  36.361  25.965  11.000
28430W        W89796  20.580  36.451  11.376
28431W        W89797  19.771  24.189  12.933
28432W        W89798   2.264  12.259   1.437
28433W        W89799  27.019  10.148   1.898
28434W        W89800  36.442   1.894   4.189
28435W        W89801  44.984  34.001   3.362
28436W        W89802  30.621  23.724   2.727
28437W        W89803  41.317  43.953  12.052
28438W        W89804   9.341  41.501  12.911
28439W        W89805  36.533  32.447   0.892
28440W        W89806  28.643  26.102  11.925
28441W        W89807  27.971  17.153  10.944
28442W        W89808  44.000  23.651   2.385
28443W        W89809   1.759  24.671   4.752
28444W        W89810   9.363  31.594  11.014
28445W        W89811  13.258  24.632  11.927
28446W        W89812  24.999   2.749  11.507
28447W        W89813   0.943  10.323   0.806
28448W        W89814   9.706  39.925  14.000
28449W        W89815  36.515  43.904   2.284
28450W        W89816   2.275  41.522  13.527
28451W        W89817   9.167   5.806   2.379
28452W        W89818  12.809  22.714   0.370
28453W        W89819  43.413  37.434   0.922
28454W        W89820  33.089  12.840  10.539
28455W        W89821  22.578   4.771   1.783
28456W        W89822   2.814  40.882  14.429
28457W        W89823   5.223  29.550   4.761
28458W        W89824   4.352   5.400  14.329
28459W        W89825  36.942  36.441   1.232
28460W        W89826  38.487  42.426   1.865
28461W        W89827  25.026  41.866   2.290
28462W        W89828  36.097  43.467  12.467
28463W        W89829  19.122  21.660   0.248
28464W        W89830  36.494  24.080  12.405
28465W        W89831  41.392  25.664   2.760
28466W        W89832  26.171   4.279  11.970
28467W        W89833  24.163  15.720  14.419
28468W        W89834   7.266  34.074   0.790
28469W        W89835   5.931  34.048  11.902
28470W        W89836   7.846  41.378  10.126
28471W        W89837  40.403   4.789   0.266
28472W        W89838  40.842  43.347  12.474
28473W        W89839  16.180  18.247   2.814
28474W        W89840  27.144  20.107  14.448
28475W        W89841  15.090  19.123  12.869
28476W        W89842  27.988  20.599   2.350
28477W        W89843  11.694  26.498   2.792
28478W        W89844  42.426  26.174   3.372
28479W        W89845  22.244   4.388  11.384
28480W        W89846   8.891   4.884  13.546
28481W        W89847  43.918  14.798   4.258
28482W        W89848  24.018  39.843  12.494
28483W        W89849   7.346  26.069   2.763
28484W        W89850  13.627   5.302  14.492
28485W        W89851   2.865  18.752  13.450
28486W        W89852  10.820  43.464   2.233
28487W        W89853  15.163   6.305  13.368
28488W        W89854  13.606   1.290   2.763
28489W        W89855   2.298  11.654  14.989
28490W        W89856  41.910  34.484   3.869
28491W        W89857  23.696  25.976  12.054
28492W        W89858  29.957  18.124   5.686
28493W        W89859  12.177  20.613  14.316
28494W        W89860  32.408  32.621   4.228
28495W        W89861  18.196   8.806   1.339
28496W        W89862   5.211  30.987  10.552
28497W        W89863   2.365  13.704   0.810
28498W        W89864  25.571  42.395   0.795
28499W        W89865  25.566  32.455   2.363
28500W        W89866   8.330  14.639   3.282
28501W        W89867  29.972   5.775  14.468
28502W        W89868  12.241  40.049   4.248
28503W        W89869  35.879  16.659  11.556
28504W        W89870  18.767   5.886  11.923
28505W        W89871  20.066   6.780   1.770
28506W        W89872  43.879  25.043  10.598
28507W        W89873  24.210   7.277  11.416
28508W        W89874  12.238  34.468  12.020
28509W        W89875  23.052  26.994  13.913
28510W        W89876  10.862  14.223  12.429
28511W        W89877   6.364  36.495  11.100
28512W        W89878  22.526  44.862  14.298
28513W        W89879  44.398  22.536   4.680
28514W        W89880  21.522  41.320  12.495
28515W        W89881   6.788  38.002  13.856
28516W        W89882  19.199   4.940  10.025
28517W        W89883  21.133  40.416  13.915
28518W        W89884   6.220  26.185  12.934
28519W        W89885  13.137  27.090   1.894
28520W        W89886  35.041  24.211  12.056
28521W        W89887  35.410  24.549  12.538
28522W        W89888  39.973  32.493  14.434
28523W        W89889  18.211  34.872   1.401
28524W        W89890  11.737  30.604  11.037
28525W        W89891   9.833  23.129  11.940
28526W        W89892  40.541  15.190  14.388
28527W        W89893   2.812   3.756   5.618
28528W        W89894  12.625  23.732  14.277
28529W        W89895  26.031  26.669  13.451
28530W        W89896  21.751  11.365   4.296
28531W        W89897  30.442  38.930  10.584
28532W        W89898   3.800  19.738  11.866
28533W        W89899   1.830  30.917   4.676
28534W        W89900  33.563  36.534  14.427
28535W        W89901  34.038  16.676   1.796
28536W        W89902  44.377  24.708   0.362
28537W        W89903  22.500   4.901   2.304
28538W        W89904  42.800   1.887  11.497
28539W        W89905  35.068  19.094  14.483
28540W        W89906   0.807  31.111   2.405
28541W        W89907  40.017  42.957  10.987
28542W        W89908  27.614  26.106   0.882
28543W        W89909  29.099  43.439   4.251
28544W        W89910  35.983  29.484   4.173
28545W        W89911   0.905  13.327  11.526
28546W        W89912  42.358  17.077   4.732
28547W        W89913   9.276   8.847   2.667
28548W        W89914   3.270  35.488   2.707
28549W        W89915  42.878  14.196   2.408
28550W        W89916  10.652   6.285   1.873
28551W        W89917  26.474  13.776  14.285
28552W        W89918  15.761  33.518  11.457
28553W        W89919  34.001   0.985  13.495
28554W        W89920  36.549  12.331   3.190
28555W        W89921  40.984   6.804   1.805
28556W        W89922   8.239   4.389   0.352
28557W        W89923   5.875  17.276   1.369
28558W        W89924  10.873   0.757   2.856
28559W        W89925  42.898  38.500   4.177
28560W        W89926  44.775  20.762   3.718
28561W        W89927  41.956   0.400   3.242
28562W        W89928  21.589  24.038   4.164
28563W        W89929   5.687  41.920  14.377
28564W        W89930  18.786  10.372   0.852
28565W        W89931  11.239  18.707  10.494
28566W        W89932  19.580  34.422   3.727
28567W        W89933  36.569  16.156  14.297
28568W        W89934  12.798  44.803  12.949
28569W        W89935   6.914  33.581   0.730
28570W        W89936  44.824  42.866   3.252
28571W        W89937  17.729   2.424   4.720
28572W        W89938  36.565  26.173   2.370
28573W        W89939  35.009  44.370  13.902
28574W        W89940  14.238  25.689   2.354
28575W        W89941  13.313  43.316   4.165
28576W        W89942   9.858  33.996  14.369
28577W        W89943   0.981  34.075  12.396
28578W        W89944   8.394   4.392  10.986
28579W        W89945  24.581  23.705   1.320
28580W        W89946  36.978  39.030   4.707
28581W        W89947  40.841   8.867   4.678
28582W        W89948  42.343  24.199   2.882
28583W        W89949  27.157  42.020   3.755
28584W        W89950  20.610  31.519  14.025
28585W        W89951  19.690  16.235   1.781
28586W        W89952  25.595  31.604   1.328
28587W        W89953  22.659  31.548  14.869
28588W        W89954   5.339  34.078  10.574
28589W        W89955  41.977  10.192  13.991
28590W        W89956   3.295  30.452   0.344
28591W        W89957  29.161  31.990   3.678
28592W        W89958  25.994  37.456   3.206
28593W        W89959  10.778  42.818  11.093
28594W        W89960  17.684  30.149  11.035
28595W        W89961  26.606  39.401  14.852
28596W        W89962  13.724  11.350   3.169
28597W        W89963  32.979   4.212  12.462
28598W        W89964   1.746   2.251   1.423
28599W        W89965   3.355   0.440   0.873
28600W        W89966  21.174  35.074   1.332
28601W        W89967   2.443  23.157  12.373
28602W        W89968  31.417  41.363  12.574
28603W        W89969  16.757  42.870  12.043
28604W        W89970   7.879   9.334   1.394
28605W        W89971  28.146  33.903   2.887
28606W        W89972  12.807  16.103   5.259
28607W        W89973  43.400  16.223  14.434
28608W        W89974  31.610  15.786  10.452
28609W        W89975   3.726   3.772   1.917
28610W        W89976  36.386  30.468  11.128
28611W        W89977  14.152  35.936   0.256
28612W        W89978  25.683   6.841   0.781
28613W        W89979  42.928  18.234  13.463
28614W        W89980  22.020  23.565   0.444
28615W        W89981  27.002   3.413  12.854
28616W        W89982   7.241  14.277   2.307
28617W        W89983  23.501   2.426   2.881
28618W        W89984   4.749  24.526   4.200
28619W        W89985  38.977  19.588  10.616
28620W        W89986  18.572  28.504  14.499
28621W        W89987  17.673  31.041  11.068
28622W        W89988   4.212  38.871   1.932
28623W        W89989  27.684  28.129  14.503
28624W        W89990  21.026  35.545  14.911
28625W        W89991  15.748   5.834  11.868
28626W        W89992   1.440  10.345  11.592
28627W        W89993   1.948   9.361   0.881
28628W        W89994  37.519  13.201  10.935
28629W        W89995  42.882  23.532   2.735
28630W        W89996  26.990  33.035  13.482
28631W        W89997  10.282   5.206   2.755
28632W        W89998  10.738  23.532   4.831
28633W        W89999  39.969   0.843  12.893
28634W        W90000  25.216  31.521   4.233
28635W        W90001  32.413  37.367   1.820
28636W        W90002   6.753   3.888   3.354
28637W        W90003   4.715  14.715  13.896
28638W        W90004  27.943  43.991   5.218
28639W        W90005   2.389  13.759  12.022
28640W        W90006  23.520  32.060   1.373
28641W        W90007  38.963  20.271  11.484
28642W        W90008  13.656  25.642  14.777
28643W        W90009  24.483  24.659   4.799
28644W        W90010  38.923  29.534  11.874
28645W        W90011   8.720  18.082   4.148
28646W        W90012  39.987  29.942   1.739
28647W        W90013   4.767   1.850  12.375
28648W        W90014   7.785   7.357  13.396
28649W        W90015   8.680   9.824  13.829
28650W        W90016   4.793   6.361  11.095
28651W        W90017  41.509  34.888   0.760
28652W        W90018  39.944  23.682   3.688
28653W        W90019  30.086   0.841   3.220
28654W        W90020  29.003  37.959   2.676
28655W        W90021   9.317  40.481  13.483
28656W        W90022  33.947  44.498   3.638
28657W        W90023  41.823  41.823   3.326
28658W        W90024  43.416  17.637   0.391
28659W        W90025   8.693  27.956  11.000
28660W        W90026  27.102  11.722  13.488
28661W        W90027  26.511  23.573  12.949
28662W        W90028  24.631  21.117   4.655
28663W        W90029  44.421  23.121   1.905
28664W        W90030  22.096  38.028  14.358
28665W        W90031  13.746  39.452   1.324
28666W        W90032  25.593  13.134  12.415
28667W        W90033   1.267  13.262  11.476
28668W        W90034   7.906  28.108  13.825
28669W        W90035  31.647  39.043  10.061
28670W        W90036  23.555  29.011  12.969
28671W        W90037  27.187  32.432   1.712
28672W        W90038  17.304  17.181   2.294
28673W        W90039  18.736  22.144  14.286
28674W        W90040   2.839  20.569   0.950
28675W        W90041  11.633  16.776  12.961
28676W        W90042   6.768  18.288  14.286
28677W        W90043  26.508   1.824  10.888
28678W        W90044  11.716   1.405   4.710
28679W        W90045  36.009  30.650   1.355
28680W        W90046  11.133  34.875  10.019
28681W        W90047  37.422  26.638  14.951
28682W        W90048  23.720  43.786   0.901
28683W        W90049  17.213  37.517  13.036
28684W        W90050  23.650  35.574  11.535
28685W        W90051  12.197  12.836   3.212
28686W        W90052  21.566   6.366  13.868
28687W        W90053  14.754   5.301   4.693
28688W        W90054  32.440  24.183  10.457
28689W        W90055   0.471  37.879  11.863
28690W        W90056  33.568  18.722   4.780
28691W        W90057  11.685  14.621  11.042
28692W        W90058  24.055  14.712  12.388
28693W        W90059  20.591  10.178   2.213
28694W        W90060  22.529  37.867   1.418
28695W        W90061  33.403  43.786   3.814
28696W        W90062  15.238   1.339   0.351
28697W        W90063  33.948  43.913  14.977
28698W        W90064  41.526  42.996  14.504
28699W        W90065  17.131  33.057  13.375
28700W        W90066  42.297   6.835  12.573
28701W        W90067  17.587  29.164   1.729
28702W        W90068  39.938  14.693  11.480
28703W        W90069  13.172  27.170  13.868
28704W        W90070  34.583  21.664   4.173
28705W        W90071  44.982  19.550   0.294
28706W        W90072  36.013  16.645   1.396
28707W        W90073  19.039   5.294  13.526
28708W        W90074  23.042  35.379   1.275
28709W        W90075  39.903   9.740   1.420
28710W        W90076  18.145  30.521  14.975
28711W        W90077  42.429  33.549  13.010
28712W        W90078   3.910   6.385   1.340
28713W        W90079  16.631  44.908   1.708
28714W        W90080  42.817  21.124  14.783
28715W        W90081  39.994  33.933  12.877
28716W        W90082  10.204  31.406   5.236
28717W        W90083  34.547  27.008   2.394
28718W        W90084  18.095  39.911   3.183
28719W        W90085   4.364  18.739  11.587
28720W        W90086  33.447  22.521   1.847
28721W        W90087  21.652   1.415   2.826
28722W        W90088  38.897  33.448   4.646
28723W        W90089  25.157  38.458  13.034
28724W        W90090  34.426  24.651   4.751
28725W        W90091  19.045  40.998  10.916
28726W        W90092  30.416  42.471   4.707
28727W        W90093  43.286   5.390   1.442
28728W        W90094  26.963  11.271   1.326
28729W        W90095  30.574  40.916  10.566
28730W        W90096  42.953  22.246  13.983
28731W        W90097  40.519   1.797  10.411
28732W        W90098  35.059  12.684  12.414
28733W        W90099  11.232   4.911   2.667
28734W        W90100  10.780  43.295  14.488
28735W        W90101  42.333  28.560  14.411
28736W        W90102  23.182  33.940   0.945
28737W        W90103  39.418   3.718  10.512
28738W        W90104  27.506  14.690  13.027
28739W        W90105   2.893  13.608   3.654
28740W        W90106  11.674  19.635  11.934
28741W        W90107  26.499  21.168   2.245
28742W        W90108   2.791  32.621   9.573
28743W        W90109  18.073  39.965   0.410
28744W        W90110  17.746   3.416  13.401
28745W        W90111  43.962  24.137   4.624
28746W        W90112  19.223  36.979   0.772
28747W        W90113  12.677  14.632  12.469
28748W        W90114  14.170  31.481  10.504
28749W        W90115  41.443   3.818  14.944
28750W        W90116  12.683  41.950   0.258
28751W        W90117  12.353  37.534   1.216
28752W        W90118  33.943   5.835   0.349
28753W        W90119  40.452  32.434   2.830
28754W        W90120  13.129   2.872   0.438
28755W        W90121  10.325   2.762   3.775
28756W        W90122  43.498  36.856   0.342
28757W        W90123   8.676  29.623   3.818
28758W        W90124  15.791  12.136   4.120
28759W        W90125  37.465  38.819   4.167
28760W        W90126   0.261  25.149  11.921
28761W        W90127  44.309  13.726  13.044
28762W        W90128  18.598  24.208  14.945
28763W        W90129  32.612   7.681  11.396
28764W        W90130   6.304  43.403  13.013
28765W        W90131  39.884  10.204   0.754
28766W        W90132  33.453  44.480   4.606
28767W        W90133  22.628  35.951   3.210
28768W        W90134  29.165  42.887   2.830
28769W        W90135   1.304  17.775   4.796
28770W        W90136  11.366  28.487  14.806
28771W        W90137  15.222  12.249  13.809
28772W        W90138  18.192  10.205  12.555
28773W        W90139  22.696  13.131   1.406
28774W        W90140  15.303  23.059  11.925
28775W        W90141  11.136   7.811  14.825
28776W        W90142   2.774   1.972   3.779
28777W        W90143  40.482  41.401   4.311
28778W        W90144  35.077  20.103   4.740
28779W        W90145  13.203   7.177   2.211
28780W        W90146  34.605   1.891  10.582
28781W        W90147  38.889  39.983   3.172
28782W        W90148  26.207  17.623  10.917
28783W        W90149  16.657  27.092   0.905
28784W        W90150  18.747  22.566  12.364
28785W        W90151  24.983  44.839  11.011
28786W        W90152  44.827  25.502  13.437
28787W        W90153  43.016   7.386  10.491
28788W        W90154  27.542  35.991  12.087
28789W        W90155  35.457  38.448   4.288
28790W        W90156  14.101  41.320  13.840
28791W        W90157  12.227   7.376  13.431
28792W        W90158  30.451   2.926   2.851
28793W        W90159  17.669  29.101  14.872
28794W        W90160  20.121  30.983   1.356
28795W        W90161  34.948  36.034   4.803
28796W        W90162   8.337  17.195  13.326
28797W        W90163  24.200  29.934  12.495
28798W        W90164  39.844  21.205   3.373
28799W        W90165  23.722  21.590  10.459
28800W        W90166  20.232  40.831  11.589
28801W        W90167  22.251  44.903  12.360
28802W        W90168   2.423  24.137   3.329
28803W        W90169  28.953   5.212   1.751
28804W        W90170  40.845  34.076  10.578
28805W        W90171  14.827  39.822   3.193
28806W        W90172  22.995  42.787  12.439
28807W        W90173  10.672  35.384   0.299
28808W        W90174  12.645   4.365  14.364
28809W        W90175  38.345  31.422  12.867
28810W        W90176  25.515  31.566   2.321
28811W        W90177  15.141  19.637  10.613
28812W        W90178  14.592  44.867  10.476
28813W        W90179  19.737  17.682   0.328
28814W        W90180   4.845  33.387   3.852
28815W        W90181  33.557  21.029  10.556
28816W        W90182  35.552  40.381   3.182
28817W        W90183  35.899   6.722  10.948
28818W        W90184  10.151  15.608   1.416
28819W        W90185  31.026  20.031  10.155
28820W        W90186   8.834   3.905  12.377
28821W        W90187  19.623   6.828  14.855
28822W        W90188  38.066  12.165   4.244
28823W        W90189  24.640  33.034  10.480
28824W        W90190  15.153   7.342  10.407
28825W        W90191  10.279   7.886  14.276
28826W        W90192  26.557  43.874   1.838
28827W        W90193  25.014  22.192   2.892
28828W        W90194  34.870  42.461  13.860
28829W        W90195  19.672  27.140   1.798
28830W        W90196   3.874  37.363   2.768
28831W        W90197  20.532  32.535  11.600
28832W        W90198  27.006   8.781   3.711
28833W        W90199   1.936  36.488  11.095
28834W        W90200   2.812  12.146  11.891
28835W        W90201  29.555   7.717  13.310
28836W        W90202  11.668  23.650  11.410
28837W        W90203  15.727   0.800   3.777
28838W        W90204  43.273  20.719   3.674
28839W        W90205  11.785  21.738   4.726
28840W        W90206   4.448  20.552   0.313
28841W        W90207  42.351   9.675  14.295
28842W        W90208  39.938   3.878  14.905
28843W        W90209   0.420  17.757   4.258
28844W        W90210  28.598  31.022  11.112
28845W        W90211  39.553   5.865  11.585
28846W        W90212  28.183  14.676   4.752
28847W        W90213  40.361   4.770  12.420
28848W        W90214  27.118  24.040  12.930
28849W        W90215  19.103  10.198  10.600
28850W        W90216  15.162  43.854   0.311
28851W        W90217  15.252  28.480   4.124
28852W        W90218  15.757  39.926   1.825
28853W        W90219  24.716  17.094   0.776
28854W        W90220   6.225  24.082   2.377
28855W        W90221  23.241  38.566  10.488
28856W        W90222  24.699  33.940  14.793
28857W        W90223  32.071  39.000  10.901
28858W        W90224  33.383  16.197  10.630
28859W        W90225   9.215  34.456   0.957
28860W        W90226  40.447  31.964  13.330
28861W        W90227  35.511  27.609  11.513
28862W        W90228  26.492  11.700   4.213
28863W        W90229  40.303   0.781   3.646
28864W        W90230  26.697  29.549  13.913
28865W        W90231  33.460  27.173   0.798
28866W        W90232  41.301  40.897  12.003
28867W        W90233  32.898   3.740   0.427
28868W        W90234  40.934  17.611   4.191
28869W        W90235  18.673  33.471   3.860
28870W        W90236   3.824  16.177   3.702
28871W        W90237   6.913   0.368   3.735
28872W        W90238  30.982  43.955  13.484
28873W        W90239   4.733  12.614   0.800
28874W        W90240  11.345  18.607   4.649
28875W        W90241  10.376   3.937   3.865
28876W        W90242  31.073  21.139   3.351
28877W        W90243  28.475  21.180  10.052
28878W        W90244  37.470  21.652  10.601
28879W        W90245   2.832  20.669   4.317
28880W        W90246  23.111  42.297   0.941
28881W        W90247  34.597  16.689   2.375
28882W        W90248  24.590  25.077  11.601
28883W        W90249  21.536   2.860   3.780
28884W        W90250  30.133  23.641   3.168
28885W        W90251   3.713  19.563   1.922
28886W        W90252   9.312  13.739  12.486
28887W        W90253   5.764   2.778   2.284
28888W        W90254  39.025  23.702   4.150
28889W        W90255  39.330  33.967  12.032
28890W        W90256  22.656   2.326   0.918
28891W        W90257  41.345   4.324   4.715
28892W        W90258   1.818  28.017  14.985
28893W        W90259  38.537   9.367   3.820
28894W        W90260  36.865  24.702   2.778
28895W        W90261  39.973  16.568  14.311
28896W        W90262  10.370  18.212   4.143
28897W        W90263  41.917   1.266   0.829
28898W        W90264  23.059   7.832   1.422
28899W        W90265  17.701  35.042  14.919
28900W        W90266  37.338  29.093   3.244
28901W        W90267   3.923  20.218  13.498
28902W        W90268  31.113  22.703   0.257
28903W        W90269  33.013  24.559  12.030
28904W        W90270  42.809  14.608  12.075
28905W        W90271  36.508  15.138  10.991
28906W        W90272  21.573  44.852  11.517
28907W        W90273  12.789  28.061  12.928
28908W        W90274  11.159   0.955  11.396
28909W        W90275   1.475  33.002  11.558
28910W        W90276  12.134  30.521   0.868
28911W        W90277  29.596  16.657   4.832
28912W        W90278   7.888  19.286  13.432
28913W        W90279  21.237  13.813   1.924
28914W        W90280  44.469   1.928  14.507
28915W        W90281  41.941  40.485   4.635
28916W        W90282  38.000   3.892   0.400
28917W        W90283   8.395  15.289   5.684
28918W        W90284  33.978  12.709  14.332
28919W        W90285  22.651   7.338  10.415
28920W        W90286  12.219  36.376   5.170
28921W        W90287  15.666  31.126  13.344
28922W        W90288  13.801  40.992   0.865
28923W        W90289  21.082  40.445   0.443
28924W        W90290  35.554   7.691   4.645
28925W        W90291  44.451  11.185   3.258
28926W        W90292  25.219   3.241  14.449
28927W        W90293  12.212  34.460  13.491
28928W        W90294  34.109  14.651  12.518
28929W        W90295  30.071   5.748   4.317
28930W        W90296  25.570  10.260   2.805
28931W        W90297  43.476  26.978   1.309
28932W        W90298  24.136  18.106  14.428
28933W        W90299   5.337   6.363   5.756
28934W        W90300  42.826  15.299   4.730
28935W        W90301  16.683  13.831  12.513
28936W        W90302  17.620  41.300  11.966
28937W        W90303   5.789  20.641   0.292
28938W        W90304  14.750  30.480   2.891
28939W        W90305  20.114   3.377  14.431
28940W        W90306  14.175  21.603  12.416
28941W        W90307  29.059  29.485   0.859
28942W        W90308  39.461   6.762   2.745
28943W        W90309  26.652  14.801   1.363
28944W        W90310  22.018  42.354   1.397
28945W        W90311  14.174  13.844  10.945
28946W        W90312  15.119   7.263   0.421
28947W        W90313   1.801  42.394  14.855
28948W        W90314   9.341  17.126   1.782
28949W        W90315  19.076  11.741  13.894
28950W        W90316  23.498  24.715   2.756
28951W        W90317  39.972  15.712  13.943
28952W        W90318  22.139   1.262  10.514
28953W        W90319   5.238   7.414  11.072
28954W        W90320   3.904  31.059   0.944
28955W        W90321   2.898  23.171   3.233
28956W        W90322  44.846  18.119   4.826
28957W        W90323  31.099  28.971   3.324
28958W        W90324  23.619  29.485   4.295
28959W        W90325  10.853  33.462   3.163
28960W        W90326  32.895  39.325   2.275
28961W        W90327  33.467  32.114  14.323
28962W        W90328   1.346   6.772  14.357
28963W        W90329  37.485  37.058  12.449
28964W        W90330  44.866  35.538   2.848
28965W        W90331   8.254  29.949   4.614
28966W        W90332  34.045  18.268  13.902
28967W        W90333  17.616  36.851  13.490
28968W        W90334  31.997  22.601   1.894
28969W        W90335  25.092  15.327  11.129
28970W        W90336   0.369  28.491  13.883
28971W        W90337   8.270  31.486  11.461
28972W        W90338   2.441  28.159   2.880
28973W        W90339   4.810  22.718  12.462
28974W        W90340   4.853   3.363   1.810
28975W        W90341  17.648   2.267   1.830
28976W        W90342  24.041  25.537   2.823
28977W        W90343   0.416  36.906  12.920
28978W        W90344  31.971  23.661   1.347
28979W        W90345   5.819  14.644   1.827
28980W        W90346  18.741  35.563   0.406
28981W        W90347  16.142  29.139   2.685
28982W        W90348  40.854  12.772   2.834
28983W        W90349  35.357  32.461  10.972
28984W        W90350  19.085  37.433  13.006
28985W        W90351  18.723  16.747   2.266
28986W        W90352   6.695  34.061  11.457
28987W        W90353   0.821   0.974  14.296
28988W        W90354  23.192  35.508  13.038
28989W        W90355  21.212  18.552   2.410
28990W        W90356  14.674  15.270   2.703
28991W        W90357  38.557  30.518   1.776
28992W        W90358  25.129  12.148  14.383
28993W        W90359  39.457  40.866  11.435
28994W        W90360  29.605  35.390   2.696
28995W        W90361  32.556  23.559   1.753
28996W        W90362  27.052  31.101   1.727
28997W        W90363   8.809  42.476   4.785
28998W        W90364  17.649  39.463   3.743
28999W        W90365   3.402   3.304   0.745
29000W        W90366  31.100   6.365  12.559
29001W        W90367  34.032   1.948  12.346
29002W        W90368  35.466  36.537  14.772
29003W        W90369  25.188  19.084   2.301
29004W        W90370   2.887  26.168   2.245
29005W        W90371  29.641  38.480   0.891
29006W        W90372  33.126  39.322  10.542
29007W        W90373  20.693  15.739   1.334
29008W        W90374   5.331  26.073  11.541
29009W        W90375  25.136   7.363  14.798
29010W        W90376  19.280  13.753  14.484
29011W        W90377  12.310  11.155   1.796
29012W        W90378  30.606  31.132   1.314
29013W        W90379  33.993  10.841  14.818
29014W        W90380  44.418   3.897  13.845
29015W        W90381  44.332  41.972  11.545
29016W        W90382  39.959  38.048  10.975
29017W        W90383  43.323  28.124  14.950
29018W        W90384   2.336   2.309  14.031
29019W        W90385  43.013   9.644   0.479
29020W        W90386  41.835  30.126  10.595
29021W        W90387  32.014  39.990  12.944
29022W        W90388  19.559  41.468  13.836
29023W        W90389  20.032  13.264   2.208
29024W        W90390  25.685  43.278  12.549
29025W        W90391  27.531  18.728  13.913
29026W        W90392   9.711  36.458   2.346
29027W        W90393  17.138   7.262   0.823
29028W        W90394  33.063  31.941   0.381
29029W        W90395  35.495  34.428  14.940
29030W        W90396   8.321   0.388   2.331
29031W        W90397   8.288   5.811   2.410
29032W        W90398   6.840   7.242   4.250
29033W        W90399  11.741   6.399   3.353
29034W        W90400  42.863   0.391  10.429
29035W        W90401  41.966  16.630  11.109
29036W        W90402  12.785  44.321   1.342
29037W        W90403  16.082   8.286   2.191
29038W        W90404  13.196  31.622  12.354
29039W        W90405  28.969   7.674   0.281
29040W        W90406  24.058  35.960   4.248
29041W        W90407   0.454  14.714  14.487
29042W        W90408  31.126   0.982   0.453
29043W        W90409  35.101  11.748   2.235
29044W        W90410  34.001  41.388   3.681
29045W        W90411  35.910  18.242  10.976
29046W        W90412   8.793   5.751  13.884
29047W        W90413  43.928   2.457  12.926
29048W        W90414  31.976  39.425  10.630
29049W        W90415  14.126   4.375   4.304
29050W        W90416  20.763  22.229  12.916
29051W        W90417  24.616  14.771  10.517
29052W        W90418  33.993  13.825  11.953
29053W        W90419  22.251  19.074  11.096
29054W        W90420  27.450   7.199  12.882
29055W        W90421  30.638  41.006   1.245
29056W        W90422  37.917  41.392   4.345
29057W        W90423  10.650  44.789   3.860
29058W        W90424  42.838  36.359   1.221
29059W        W90425  26.622  15.726   1.798
29060W        W90426  21.650   0.460   0.252
29061W        W90427  15.268   5.691  11.466
29062W        W90428  14.654   8.865  11.102
29063W        W90429  33.964   9.278  13.874
29064W        W90430   3.227   2.819  14.910
29065W        W90431  13.631  34.103  12.918
29066W        W90432   0.333  10.774  10.518
29067W        W90433   3.913  13.162  12.074
29068W        W90434  27.115   3.861   3.674
29069W        W90435  43.292   8.817  14.296
29070W        W90436  42.354  32.926   4.240
29071W        W90437  13.167  30.975  10.435
29072W        W90438  36.508  29.064   1.794
29073W        W90439  24.647  25.588   2.771
29074W        W90440  16.121  30.062   4.750
29075W        W90441  26.998  36.082  13.899
29076W        W90442  44.266  18.655   0.930
29077W        W90443   1.890  16.722   3.751
29078W        W90444  29.021  30.976  13.877
29079W        W90445  12.150  34.376   1.725
29080W        W90446  27.668  43.812   0.946
29081W        W90447  30.531  30.914   3.653
29082W        W90448  25.980   3.344   4.246
29083W        W90449  32.897  10.850   3.749
29084W        W90450   0.965   3.293  13.001
29085W        W90451  19.667   3.777  14.818
29086W        W90452  41.981  44.907   2.726
29087W        W90453  30.101   9.781   3.831
29088W        W90454   1.368  14.142  10.893
29089W        W90455   9.768  43.874  13.355
29090W        W90456  22.550  40.845   4.745
29091W        W90457  15.627  35.600   3.788
29092W        W90458   5.888  31.999   1.912
29093W        W90459  29.607  35.558  11.896
29094W        W90460  26.546  17.683   0.962
29095W        W90461  23.206   3.808  12.541
29096W        W90462  11.775  40.398  13.802
29097W        W90463  39.028  32.096  14.328
29098W        W90464   1.788  14.691   1.815
29099W        W90465  37.022  20.120  12.018
29100W        W90466  33.879  34.044  13.410
29101W        W90467  30.554  14.276   4.251
29102W        W90468  40.311  38.847  11.420
29103W        W90469  12.299   2.881   0.846
29104W        W90470  15.294  23.564  14.367
29105W        W90471   5.356  21.135  11.491
29106W        W90472  22.115  28.982  12.522
29107W        W90473   1.271  22.509   0.919
29108W        W90474  19.738  44.815   0.458
29109W        W90475  15.685  25.593   1.869
29110W        W90476  22.510   6.292  11.508
29111W        W90477  39.410  21.720   2.724
29112W        W90478  10.728  12.190  10.564
29113W        W90479  14.623   2.457  10.517
29114W        W90480  32.127  34.438  13.412
29115W        W90481  39.973  23.540  12.023
29116W        W90482  16.138   7.679  13.013
29117W        W90483  31.113  28.964  13.832
29118W        W90484  44.925  23.167   0.747
29119W        W90485  33.890  35.462   0.873
29120W        W90486   0.795   0.876  13.980
29121W        W90487  26.185  14.649  14.802
29122W        W90488  33.617  14.751  12.903
29123W        W90489  33.473  17.211   2.365
29124W        W90490  42.388  36.394  12.840
29125W        W90491  41.954   3.906  13.322
29126W        W90492  18.295  21.244   3.729
29127W        W90493  17.117  22.541   1.317
29128W        W90494  27.669  19.162   4.732
29129W        W90495  25.005  14.325  11.020
29130W        W90496   7.770  36.073  12.038
29131W        W90497  24.543  27.461   5.085
29132W        W90498   2.329  20.735  12.086
29133W        W90499  22.601  42.846   3.313
29134W        W90500  29.466  39.962   2.886
29135W        W90501  42.966   0.922   4.182
29136W        W90502   4.251   2.265   2.206
29137W        W90503   4.719   2.454  11.490
29138W        W90504   5.740  27.107   0.949
29139W        W90505  29.598  28.496   3.259
29140W        W90506  44.891  20.551   1.375
29141W        W90507   3.718  23.539  11.414
29142W        W90508  43.976  33.033   4.695
29143W        W90509  14.098  31.560   9.456
29144W        W90510  32.527  41.972   0.729
29145W        W90511   2.467  16.746  11.887
29146W        W90512  17.151  15.174  14.789
29147W        W90513   5.313  21.080  13.837
29148W        W90514  10.842  20.223   3.188
29149W        W90515  18.252   4.715  11.039
29150W        W90516  41.490  42.902  12.497
29151W        W90517   0.473   2.445   2.787
29152W        W90518  29.171   3.377  10.444
29153W        W90519   7.777  31.104  12.397
29154W        W90520  40.842   3.764  13.003
29155W        W90521  27.674  34.965   2.833
29156W        W90522  11.825  18.610  12.014
29157W        W90523  37.890  23.088   4.320
29158W        W90524  10.645  39.460   4.211
29159W        W90525  28.064  27.672   3.648
29160W        W90526   9.764  12.138  14.802
29161W        W90527  10.696  32.091   3.343
29162W        W90528   1.479  32.410   3.365
29163W        W90529  10.141  36.531   3.254
29164W        W90530   8.744  33.040   4.172
29165W        W90531  39.455   1.963   0.361
29166W        W90532  15.245  35.570   0.827
29167W        W90533  39.887  37.574   3.738
29168W        W90534   5.844   2.264  13.903
29169W        W90535   8.334  30.996  10.473
29170W        W90536  44.788  42.958   4.762
29171W        W90537  43.287  30.058   2.316
29172W        W90538  19.198  24.075  13.457
29173W        W90539  20.041   6.914   0.914
29174W        W90540  27.985  35.088  11.976
29175W        W90541   3.734  21.200   4.795
29176W        W90542   1.397  26.637  13.951
29177W        W90543   4.761  15.203   1.216
29178W        W90544   6.685  33.110  11.462
29179W        W90545  20.633  28.628   4.775
29180W        W90546  44.930  15.812   2.875
29181W        W90547  14.339  28.438   4.617
29182W        W90548  28.059  28.149  13.333
29183W        W90549  20.706  21.051   3.260
29184W        W90550  19.109  15.805   2.809
29185W        W90551  12.787   5.842  11.856
29186W        W90552   5.738   1.836  12.916
29187W        W90553  19.633  28.491   3.709
29188W        W90554  11.631  17.620  14.032
29189W        W90555  20.259  21.560  14.353
29190W        W90556  14.329   6.286   2.213
29191W        W90557  33.017  31.019  12.559
29192W        W90558  34.434  40.427  13.523
29193W        W90559  18.592   9.242   2.202
29194W        W90560  38.925   3.741  13.054
29195W        W90561  36.883  32.949   3.856
29196W        W90562   3.365   1.876  14.781
29197W        W90563   6.679  44.396   3.271
29198W        W90564  29.037  42.357  11.931
29199W        W90565  26.021  16.080  11.483
29200W        W90566  21.021   0.982  11.109
29201W        W90567   5.210  33.550  14.018
29202W        W90568  36.459  23.174   4.251
29203W        W90569   8.228  28.932  11.079
29204W        W90570  18.282   7.772   1.740
29205W        W90571  11.351  30.910   1.217
29206W        W90572  19.605  41.022   3.719
29207W        W90573   5.211  24.218  14.923
29208W        W90574  17.729  32.137  11.075
29209W        W90575  40.322  10.727   0.798
29210W        W90576  43.459  23.992   1.927
29211W        W90577  19.109  13.620  13.015
29212W        W90578  43.900  12.230  12.369
29213W        W90579   0.848  28.998  13.449
29214W        W90580   8.824  35.974  12.970
29215W        W90581  26.536   1.897   4.221
29216W        W90582  38.417  21.756   2.253
29217W        W90583  34.896  29.156  10.149
29218W        W90584   0.779  33.987   4.599
29219W        W90585  32.076  19.708   3.861
29220W        W90586  40.888  30.581  10.914
29221W        W90587  26.462  21.517   0.409
29222W        W90588  44.272  21.042  11.923
29223W        W90589  40.388  13.329  14.025
29224W        W90590  16.219  26.091  14.354
29225W        W90591  22.736  17.116   3.814
29226W        W90592  32.440  18.590  12.830
29227W        W90593  43.411  44.955   4.153
29228W        W90594   4.412  43.427  10.970
29229W        W90595  35.411   9.717  11.923
29230W        W90596  33.387  35.407  12.046
29231W        W90597   6.402  12.713  10.613
29232W        W90598  28.617  15.246  14.809
29233W        W90599   9.765  42.937   4.652
29234W        W90600  17.268  42.524   3.339
29235W        W90601  17.755  11.672   0.815
29236W        W90602  22.701  34.946  11.103
29237W        W90603  32.624  41.464  10.889
29238W        W90604  14.226  27.653  14.947
29239W        W90605   4.841  20.271   2.257
29240W        W90606  33.578  20.186   4.708
29241W        W90607  40.867  32.024  10.587
29242W        W90608  35.957  14.631  13.902
29243W        W90609  26.973  40.511   3.672
29244W        W90610  18.077  32.011   3.706
29245W        W90611  23.500  44.756   0.873
29246W        W90612  41.024  33.484  13.441
29247W        W90613  15.238  40.930   1.732
29248W        W90614   4.378   2.722   2.664
29249W        W90615  19.207  10.174  10.151
29250W        W90616   7.678  24.088   4.654
29251W        W90617  33.614  31.052  10.511
29252W        W90618  15.798  21.121   2.779
29253W        W90619  23.659  37.412  10.098
29254W        W90620  26.464  24.611   2.680
29255W        W90621  35.562  21.656   1.836
29256W        W90622  10.187  40.544  10.965
29257W        W90623  36.057   4.310  11.556
29258W        W90624  41.386   6.424   1.832
29259W        W90625  14.700  40.930  13.881
29260W        W90626  23.728  30.560  14.027
29261W        W90627  35.939  24.688   4.198
29262W        W90628   6.865  40.384  12.002
29263W        W90629  38.902  43.005  10.434
29264W        W90630  41.017  34.562  11.596
29265W        W90631   9.258   3.407  12.968
29266W        W90632   1.897  32.101  10.110
29267W        W90633  31.036  24.592  12.948
29268W        W90634  20.190  24.526  12.982
29269W        W90635  36.092  20.533  11.386
29270W        W90636  43.487  35.965  10.404
29271W        W90637  24.200  30.935  13.454
29272W        W90638  31.430   5.293   3.294
29273W        W90639  36.512  14.329  13.030
29274W        W90640   1.886  34.380   0.262
29275W        W90641  21.216  37.887  14.287
29276W        W90642  18.599  37.506   2.736
29277W        W90643   1.272  33.991  12.999
29278W        W90644  30.472   9.821  11.049
29279W        W90645  34.553  39.388   2.318
29280W        W90646  22.059  11.855   2.667
29281W        W90647  12.612   0.805   2.193
29282W        W90648   6.793  13.181  12.919
29283W        W90649  18.603  43.384   2.873
29284W        W90650  20.722  14.263  11.100
29285W        W90651  34.499  44.282   1.421
29286W        W90652  39.488  21.261  12.555
29287W        W90653  14.622   0.918  10.434
29288W        W90654  15.613  29.949  13.418
29289W        W90655  16.702  13.613   4.683
29290W        W90656   3.941  31.527  13.518
29291W        W90657  12.688  14.200   9.972
29292W        W90658   2.417  17.740   0.928
29293W        W90659  32.116  18.190   4.144
29294W        W90660  20.209   5.857  10.060
29295W        W90661   1.804   5.917  14.864
29296W        W90662  43.873  10.340  13.918
29297W        W90663  27.967   6.308   1.770
29298W        W90664   3.832   6.724  12.824
29299W        W90665  38.858  38.855   3.305
29300W        W90666  28.487   2.757  12.070
29301W        W90667  28.521  31.073   4.115
29302W        W90668  36.530   7.280   2.200
29303W        W90669  20.057  26.033   4.648
29304W        W90670  24.222  27.139   3.286
29305W        W90671  29.514  19.286   2.393
29306W        W90672  18.106  39.408  11.082
29307W        W90673   8.313  39.401  11.917
29308W        W90674  12.763  10.212   2.340
29309W        W90675  20.741   7.731   3.652
29310W        W90676  40.428  38.994  13.931
29311W        W90677  30.085  19.680  14.314
29312W        W90678   3.288   5.690   1.431
29313W        W90679   1.935   1.757  10.543
29314W        W90680  22.052  25.657  10.888
29315W        W90681  31.469  28.938   4.305
29316W        W90682  18.232  35.853  11.963
29317W        W90683  22.521  25.027   4.268
29318W        W90684  11.332  33.021   0.909
29319W        W90685   6.919  42.032   4.257
29320W        W90686  21.579   1.395   3.846
29321W        W90687  29.142  43.406   3.383
29322W        W90688  33.487  27.037   4.704
29323W        W90689  35.893  17.796  12.849
29324W        W90690  23.489  32.487   1.240
29325W        W90691  33.918  39.880   1.922
29326W        W90692  10.810  30.146  13.426
29327W        W90693  16.148  39.002  11.897
29328W        W90694  10.638  44.400  12.528
29329W        W90695  19.654  17.124  13.990
29330W        W90696  40.485   5.223   0.909
29331W        W90697  39.818  41.016  13.471
29332W        W90698  24.154  36.939   5.218
29333W        W90699  19.587  40.349  10.955
29334W        W90700  33.958  12.319  11.107
29335W        W90701  25.105  17.089  12.054
29336W        W90702  10.220  35.456   2.863
29337W        W90703  23.985  44.916  13.357
29338W        W90704  31.095  25.167  12.003
29339W        W90705  18.720  35.105   0.757
29340W        W90706  31.433  24.007   2.748
29341W        W90707   5.394  40.477   2.401
29342W        W90708  26.183  35.579  13.961
29343W        W90709   1.908  26.087   4.821
29344W        W90710  42.905  31.600   0.407
29345W        W90711  14.242  37.086  13.427
29346W        W90712  23.087  25.035  14.029
29347W        W90713  20.691  23.503  13.895
29348W        W90714   0.259  41.034  11.605
29349W        W90715  14.604  13.679  14.949
29350W        W90716  32.555  43.471  12.073
29351W        W90717  33.087  35.053  12.495
29352W        W90718  19.710  27.187  13.924
29353W        W90719  17.587  24.088  12.088
29354W        W90720  40.881  41.375  10.487
29355W        W90721  31.945   8.688   3.267
29356W        W90722  39.351  32.012  12.511
29357W        W90723  23.565  29.598   0.399
29358W        W90724   6.238  36.069  14.767
29359W        W90725  26.531  38.515  11.458
29360W        W90726  41.854  42.849   0.928
29361W        W90727   9.835   7.406  13.969
29362W        W90728  19.118  19.191  12.908
29363W        W90729  38.357  19.101  11.045
29364W        W90730  18.087   9.245  11.061
29365W        W90731  38.392   9.188  13.463
29366W        W90732  35.365  29.943   1.890
29367W        W90733  33.130   6.882  13.436
29368W        W90734   6.205  43.269  14.427
29369W        W90735  44.838  32.075   3.783
29370W        W90736  42.500  35.088   4.241
29371W        W90737  43.913  41.373   2.411
29372W        W90738   0.890  44.911   3.379
29373W        W90739  17.733   5.840  13.333
29374W        W90740  18.725  35.583  10.547
29375W        W90741   6.255  28.114   4.217
29376W        W90742  16.092  44.877   4.822
29377W        W90743  19.119  30.071  13.991
29378W        W90744   4.347   0.827  11.383
29379W        W90745  14.115  31.899  12.512
29380W        W90746  38.453  34.002   2.754
29381W        W90747  29.971  22.713   2.689
29382W        W90748  44.981  43.924   1.350
29383W        W90749   9.819  15.256   0.804
29384W        W90750  19.709   4.698  12.509
29385W        W90751  22.561  14.224  11.431
29386W        W90752   6.273  32.427   4.607
29387W        W90753  24.072  31.078   4.652
29388W        W90754  41.408  23.174   0.254
29389W        W90755  16.805  37.941  12.901
29390W        W90756   1.950   5.374   2.320
29391W        W90757   8.792  15.693  13.353
29392W        W90758  27.462  22.622   4.125
29393W        W90759  11.666   5.791   0.466
29394W        W90760  14.793  21.067   0.914
29395W        W90761  14.613  16.084   5.244
29396W        W90762  30.919  18.087   1.837
29397W        W90763  36.887   2.422   2.778
29398W        W90764   7.399  32.093  14.959
29399W        W90765  17.591  33.921   4.689
29400W        W90766  43.932   1.396  14.930
29401W        W90767   9.841  21.636   0.367
29402W        W90768  17.707  10.310  14.362
29403W        W90769   9.846  11.799   0.755
29404W        W90770   3.405  31.909   0.772
29405W        W90771  19.075  29.929   0.816
29406W        W90772   9.377  28.495  12.953
29407W        W90773   5.842  25.135  13.993
29408W        W90774  39.451   4.785   1.321
29409W        W90775   6.265  29.491  14.364
29410W        W90776  44.455  16.124   4.203
29411W        W90777  39.428  25.668   2.687
29412W        W90778   8.179   3.416  14.302
29413W        W90779  31.081   4.287  14.767
29414W        W90780  15.641   1.733  11.554
29415W        W90781  16.791   5.849   2.816
29416W        W90782  33.012  22.652   1.871
29417W        W90783   0.768  37.518  11.039
29418W        W90784  33.549  13.791   3.249
29419W        W90785  32.030  44.004   3.169
29420W        W90786  16.240   5.744  14.457
29421W        W90787   1.414  27.631   0.366
29422W        W90788   0.765   3.723   4.181
29423W        W90789  14.590   8.670  10.494
29424W        W90790  16.712  23.011  12.534
29425W        W90791  20.636   6.803  10.470
29426W        W90792  32.983  34.082  11.481
29427W        W90793  42.285  33.584   2.400
29428W        W90794  15.704  26.687  10.996
29429W        W90795  21.225  10.641  12.061
29430W        W90796  20.637  27.955  14.770
29431W        W90797  17.643  42.904  12.061
29432W        W90798  31.041  40.471  11.933
29433W        W90799  22.665  13.619   3.868
29434W        W90800  11.356  21.142  10.912
29435W        W90801  13.256  30.138  10.430
29436W        W90802  30.481  15.085   4.169
29437W        W90803   5.772  27.631   1.782
29438W        W90804  43.304  44.330   3.305
29439W        W90805  30.965  36.995  14.288
29440W        W90806  44.282  13.231  10.455
29441W        W90807  40.852  27.982  14.885
29442W        W90808   1.375   1.785   2.184
29443W        W90809   5.255   5.357  10.126
29444W        W90810  42.499  18.677  10.435
29445W        W90811  22.709  41.964  12.952
29446W        W90812  19.125  36.573  13.936
29447W        W90813  12.806  35.876  14.279
29448W        W90814  29.133  16.642   3.151
29449W        W90815  37.415  40.517   9.996
29450W        W90816  35.509  27.136   4.822
29451W        W90817  20.739  25.970   3.213
29452W        W90818  15.748  21.165   4.136
29453W        W90819  13.174   5.727   4.133
29454W        W90820  29.054  37.908   3.691
29455W        W90821  13.297   1.462  12.084
29456W        W90822  31.995   6.758   1.394
29457W        W90823  34.578  10.363  10.620
29458W        W90824  43.404  36.980   4.716
29459W        W90825   8.748  28.586  14.429
29460W        W90826  29.991  36.901  12.859
29461W        W90827  11.848  18.788  10.488
29462W        W90828  16.722  26.131   2.236
29463W        W90829   3.401  41.361  14.957
29464W        W90830  22.610   7.772   2.336
29465W        W90831  34.418  34.018  11.486
29466W        W90832  26.185  40.517  10.474
29467W        W90833  24.663  39.557   1.350
29468W        W90834  14.267   5.720  11.028
29469W        W90835  17.681  16.261   1.437
29470W        W90836  15.243   1.468  10.629
29471W        W90837  12.125  14.218  14.489
29472W        W90838  36.999  15.084  10.459
29473W        W90839  34.487  10.816   3.215
29474W        W90840  40.960  40.410   1.262
29475W        W90841   1.970  31.596   1.402
29476W        W90842  41.949   2.348   0.431
29477W        W90843  21.658   2.332  12.367
29478W        W90844  31.008  37.982  13.833
29479W        W90845  28.181  13.805   3.163
29480W        W90846  44.003  32.472  12.495
29481W        W90847  42.454  26.593  13.547
29482W        W90848  34.097  26.501   1.321
29483W        W90849  16.195   3.378  11.087
29484W        W90850  11.294  38.444   3.692
29485W        W90851   5.299  26.494  10.041
29486W        W90852  35.430  29.048  12.876
29487W        W90853   5.801  44.892   0.797
29488W        W90854  35.539  18.137   2.854
29489W        W90855  20.659   0.249   2.732
29490W        W90856  44.390  30.987  13.921
29491W        W90857  31.152   5.702  11.093
29492W        W90858  43.997  40.468   4.796
29493W        W90859   9.831  20.588   1.720
29494W        W90860  30.574  17.750  10.472
29495W        W90861  22.674  32.608  12.392
29496W        W90862  22.202  44.800   3.210
29497W        W90863   7.239  35.949   4.800
29498W        W90864  21.063   3.278   4.630
29499W        W90865  17.249  24.673  13.354
29500W        W90866  44.392  26.957   4.144
29501W        W90867  32.522   4.856   3.162
29502W        W90868   7.773   8.250   0.373
29503W        W90869  12.256   6.717   3.789
29504W        W90870  40.947   8.735   4.239
29505W        W90871  33.963  15.263   4.825
29506W        W90872  21.608  14.226  11.433
29507W        W90873   6.864  32.424  13.804
29508W        W90874  30.133  21.214   1.360
29509W        W90875  38.903  18.546  13.358
29510W        W90876  16.599   3.789  13.315
29511W        W90877   3.814  26.583   4.665
29512W        W90878  37.903  21.150   2.321
29513W        W90879  25.043   4.924   1.391
29514W        W90880   9.365  24.980   4.314
29515W        W90881  15.734   7.892   2.232
29516W        W90882  19.255  12.662  10.933
29517W        W90883  43.836  42.004  14.761
29518W        W90884   2.414  39.812   0.748
29519W        W90885  34.416  15.110   4.626
29520W        W90886  31.935  44.936   4.306
29521W        W90887  11.656  22.659  11.399
29522W        W90888  17.141  32.069   0.860
29523W        W90889  25.202  39.061   4.148
29524W        W90890   1.388   0.743   3.256
29525W        W90891   6.424  29.101   4.249
29526W        W90892  24.534  44.465   1.451
29527W        W90893   5.303   1.966  11.120
29528W        W90894  24.166  10.802   3.217
29529W        W90895  39.345  24.051  11.938
29530W        W90896   3.816  26.022   3.225
29531W        W90897  16.180  28.458   2.758
29532W        W90898  18.291  39.327   0.921
29533W        W90899   3.352  43.340   3.757
29534W        W90900  28.530  30.926   3.814
29535W        W90901  31.984  42.408  12.354
29536W        W90902  13.176  19.726   1.322
29537W        W90903  25.640   2.296   4.198
29538W        W90904  23.183  32.623   2.210
29539W        W90905   8.327  18.295   1.910
29540W        W90906  14.180  21.612   3.780
29541W        W90907  34.967  18.621   4.804
29542W        W90908   6.395  43.331   1.438
29543W        W90909  41.997   4.239  11.104
29544W        W90910  24.115  39.037   4.819
29545W        W90911  21.714  32.030  11.124
29546W        W90912  34.373  26.192   4.172
29547W        W90913  27.640  29.025   0.938
29548W        W90914  19.221  43.330  10.602
29549W        W90915  15.620  26.080   5.222
29550W        W90916  30.537  29.007  14.480
29551W        W90917  32.476  21.251   0.467
29552W        W90918  18.555  23.092   3.675
29553W        W90919  36.860   3.928  11.979
29554W        W90920  11.642  17.709   1.268
29555W        W90921  12.343  14.255  10.118
29556W        W90922  17.699  33.988   0.319
29557W        W90923   7.725  27.133  12.959
29558W        W90924  11.794  19.746  14.313
29559W        W90925  37.335  27.060  13.391
29560W        W90926  31.438   5.402  13.411
29561W        W90927  17.087  17.637  10.434
29562W        W90928  25.567   6.718  13.544
29563W        W90929  10.748  28.567   1.803
29564W        W90930  24.535  29.631   2.687
29565W        W90931  16.771  17.568  10.511
29566W        W90932  39.349  15.181  10.921
29567W        W90933  24.545  17.065   3.730
29568W        W90934   6.690  12.683  11.968
29569W        W90935  23.665   6.801  12.057
29570W        W90936  34.558  18.740   2.296
29571W        W90937  16.773  17.154   2.858
29572W        W90938  23.156  35.937  13.516
29573W        W90939   2.854  38.432   1.360
29574W        W90940  21.582  36.376   3.735
29575W        W90941  26.176  32.968   2.368
29576W        W90942  30.510  15.709   2.291
29577W        W90943  43.342  28.945  14.972
29578W        W90944  23.055  37.895   3.676
29579W        W90945  32.416  13.269  12.043
29580W        W90946  35.514   6.227  14.381
29581W        W90947  20.561  31.093  10.448
29582W        W90948  43.441  17.801  12.529
29583W        W90949   9.684  36.001  13.014
29584W        W90950  40.408  44.430  11.046
29585W        W90951   4.261  17.193  14.344
29586W        W90952  20.542  40.040   4.187
29587W        W90953  14.202  24.053  12.386
29588W        W90954   5.260  19.054  13.877
29589W        W90955  35.484  22.686  12.978
29590W        W90956   5.197  28.568  12.943
29591W        W90957  29.932  34.461  14.368
29592W        W90958  10.862  40.371   3.243
29593W        W90959   9.241  28.494   2.835
29594W        W90960  14.259  16.133  14.795
29595W        W90961  33.931  30.537  11.036
29596W        W90962  11.183   4.226  11.581
29597W        W90963  25.123  14.802   3.699
29598W        W90964  21.146  32.968   0.426
29599W        W90965   6.318  21.218  14.017
29600W        W90966  30.142   4.892   2.200
29601W        W90967   5.838  17.652  11.038
29602W        W90968  12.841  24.193  13.402
29603W        W90969  33.494  37.053   3.178
29604W        W90970  17.165  35.027  10.429
29605W        W90971  29.589   0.452  11.442
29606W        W90972  17.274   6.251   0.919
29607W        W90973   2.357  17.779  12.934
29608W        W90974  12.356  14.263   3.843
29609W        W90975  16.215   7.736  11.881
29610W        W90976  43.938  40.412   1.334
29611W        W90977  29.513  29.442  13.475
29612W        W90978  19.234  38.407  11.416
29613W        W90979  27.016   2.838  10.500
29614W        W90980  33.900  43.974   1.704
29615W        W90981  37.966  28.576   4.738
29616W        W90982  39.548  23.628  13.516
29617W        W90983  35.878   0.745   2.778
29618W        W90984   7.873  25.599   4.332
29619W        W90985  10.783  28.625   2.276
29620W        W90986  11.188   4.426  13.848
29621W        W90987   2.961   7.811   4.175
29622W        W90988  43.423  19.271   4.218
29623W        W90989  44.972  19.589   4.154
29624W        W90990  29.057   3.831  13.889
29625W        W90991  28.032  12.689   0.352
29626W        W90992   9.299   7.281   4.612
29627W        W90993  29.995  15.674  13.878
29628W        W90994   5.858  27.543   2.203
29629W        W90995  25.158  11.835  14.418
29630W        W90996  34.527  19.719   2.777
29631W        W90997  41.923  26.982  12.490
29632W        W90998   4.278   0.338   3.280
29633W        W90999  12.251  27.136  10.980
29634W        W91000  38.062  15.140   0.783
29635W        W91001  31.405  35.099  11.999
29636W        W91002   9.244  38.933  11.983
29637W        W91003  41.983  30.059  12.368
29638W        W91004  33.940  15.095   3.315
29639W        W91005  30.163  22.135  12.394
29640W        W91006  39.382  32.623  10.496
29641W        W91007  38.476  13.605  14.923
29642W        W91008  39.055  11.279   1.267
29643W        W91009  21.618  31.053   1.317
29644W        W91010  38.980   3.881  14.367
29645W        W91011  11.189  18.204   3.728
29646W        W91012  15.755  34.041  12.489
29647W        W91013  31.541  20.118  14.498
29648W        W91014  44.845  13.149   3.190
29649W        W91015  25.190  38.923   2.254
29650W        W91016  31.495  28.008  14.958
29651W        W91017   0.821  37.396   1.844
29652W        W91018  35.582   1.448  14.765
29653W        W91019  20.090  17.129  14.453
29654W        W91020   3.832   2.786   4.165
29655W        W91021  21.132  27.078   3.840
29656W        W91022   0.396  32.065   2.415
29657W        W91023  12.248  34.038  10.141
29658W        W91024  23.645  10.769  10.559
29659W        W91025  19.085  13.667   3.281
29660W        W91026  40.880  36.066  13.529
29661W        W91027  36.996  38.889  13.395
29662W        W91028  16.791   8.392  13.479
29663W        W91029   8.402  27.473   3.649
29664W        W91030  27.125  29.640   4.669
29665W        W91031  37.487  36.070  10.419
29666W        W91032  21.064   3.380  10.947
29667W        W91033   1.306  12.190   1.272
29668W        W91034  36.464  31.420   1.299
29669W        W91035  21.579  20.751   0.417
29670W        W91036  43.870  18.192  11.610
29671W        W91037  44.284   9.209  14.006
29672W        W91038  18.080   4.839   3.338
29673W        W91039  18.770  16.194   3.693
29674W        W91040   3.306   5.722  14.275
29675W        W91041  39.494  29.109   1.343
29676W        W91042  44.923  39.817   3.269
29677W        W91043  13.135  10.709  14.982
29678W        W91044  12.670  14.099   3.172
29679W        W91045  25.663  29.439  12.015
29680W        W91046  37.912   6.684   1.696
29681W        W91047   9.844  39.557   1.740
29682W        W91048  26.192   7.710   3.843
29683W        W91049  26.043  13.776   2.758
29684W        W91050  40.443  36.012   4.114
29685W        W91051  30.989   4.371  13.333
29686W        W91052   9.721  18.711   3.316
29687W        W91053   3.426  30.934  11.446
29688W        W91054   4.923  17.740  11.944
29689W        W91055  29.064  28.570   4.643
29690W        W91056  19.770  24.599  11.874
29691W        W91057  39.442   2.941   4.128
29692W        W91058   3.398   8.841  11.578
29693W        W91059  20.271  17.224  12.891
29694W        W91060  21.625  12.152   0.250
29695W        W91061  32.912  24.078   2.690
29696W        W91062   8.397   2.260  13.986
29697W        W91063  30.422  24.676  13.396
29698W        W91064  39.446   2.947   4.703
29699W        W91065  21.238  17.674   1.892
29700W        W91066  33.079  15.798  12.987
29701W        W91067  41.885  24.560   0.936
29702W        W91068  29.985  26.085   3.663
29703W        W91069  43.964   2.358   1.386
29704W        W91070   6.354  12.681   4.644
29705W        W91071  41.344  21.756   4.616
29706W        W91072  27.981  31.463  10.907
29707W        W91073  43.877   3.296  10.989
29708W        W91074  25.011   0.348  11.930
29709W        W91075  34.430  41.480  10.955
29710W        W91076  28.009  24.659  13.038
29711W        W91077  11.192  22.502   3.149
29712W        W91078  28.970   1.762   2.338
29713W        W91079   4.379  27.542   3.343
29714W        W91080   8.669  22.188   0.887
29715W        W91081  34.014   4.744   4.624
29716W        W91082   5.696  29.579   2.307
29717W        W91083  17.296  16.652   3.288
29718W        W91084  27.646  38.835  13.893
29719W        W91085   7.178  31.973   0.925
29720W        W91086  12.703  31.996  12.823
29721W        W91087   6.853  31.494  13.049
29722W        W91088  29.014  15.310   1.246
29723W        W91089  14.754  31.094   4.131
29724W        W91090  43.496   6.921  10.975
29725W        W91091  19.670  22.194   1.694
29726W        W91092  24.684  26.982   4.694
29727W        W91093   1.308  34.032   4.683
29728W        W91094  11.262  12.761  13.808
29729W        W91095  33.522  39.854  14.979
29730W        W91096  37.996  30.512   3.662
29731W        W91097  41.923  19.592  13.867
29732W        W91098  30.157  21.142   2.785
29733W        W91099  28.576   3.721  13.963
29734W        W91100   9.672  27.012   0.483
29735W        W91101  23.602  44.793  12.403
29736W        W91102  35.060  36.854   1.218
29737W        W91103  14.256  44.885   2.820
29738W        W91104   0.973  34.491   0.439
29739W        W91105  27.614  17.299   4.730
29740W        W91106  17.779   8.167   2.684
29741W        W91107  18.786   6.226  10.923
29742W        W91108  23.574  18.621   0.290
29743W        W91109   1.287  40.547   4.288
29744W        W91110  26.654  13.174  12.895
29745W        W91111  16.194  41.835  12.839
29746W        W91112  31.402  41.379   0.301
29747W        W91113  15.242  41.453  11.040
29748W        W91114  43.338  32.132   3.172
29749W        W91115  34.451  30.545   4.683
29750W        W91116  14.768  20.111   3.848
29751W        W91117  27.544  24.198  13.820
29752W        W91118   1.733  40.333   4.780
29753W        W91119  10.219  32.998  12.874
29754W        W91120  28.168  25.145  13.951
29755W        W91121  24.085  32.581  11.872
29756W        W91122  11.231  22.658  10.902
29757W        W91123  36.430  26.552  13.059
29758W        W91124  43.270   9.393   0.786
29759W        W91125  16.606  31.084   2.872
29760W        W91126  42.988  15.683  14.457
29761W        W91127  19.770   1.366  11.582
29762W        W91128  14.668  11.792   2.271
29763W        W91129  44.994  42.882  14.502
29764W        W91130   3.299  42.420   2.254
29765W        W91131  20.229  16.292   1.403
29766W        W91132  33.422  15.681   0.751
29767W        W91133  20.620   6.845  11.077
29768W        W91134  42.824  37.438   2.702
29769W        W91135  15.236   0.746  11.023
29770W        W91136  14.713  18.553   2.819
29771W        W91137  20.631  11.315  13.031
29772W        W91138  41.443   5.196  13.404
29773W        W91139  25.640  39.313  10.462
29774W        W91140  40.903  42.402   3.632
29775W        W91141  28.542  20.670  12.572
29776W        W91142  27.055  28.448   2.188
29777W        W91143   6.756  12.851   2.178
29778W        W91144  33.952  40.363   3.245
29779W        W91145  30.423   8.717   2.347
29780W        W91146  41.990   4.296   3.249
29781W        W91147  42.461   1.886  10.436
29782W        W91148  34.983  30.128  12.482
29783W        W91149  41.490  13.667   0.380
29784W        W91150  12.205   5.381   2.320
29785W        W91151  35.982  29.144   4.730
29786W        W91152  43.503  17.650   1.783
29787W        W91153  10.153  21.065   4.169
29788W        W91154   6.762   4.321  13.031
29789W        W91155   5.738  37.967  13.358
29790W        W91156  14.259  13.706   0.381
29791W        W91157   4.307  29.138   1.811
29792W        W91158  32.492  29.159   5.269
29793W        W91159  21.692   7.755  11.984
29794W        W91160   9.723   6.219  10.918
29795W        W91161  16.133   8.207  13.035
29796W        W91162   3.722  43.288   3.676
29797W        W91163  43.506  34.449   0.289
29798W        W91164  20.153   8.344  13.005
29799W        W91165  35.880  44.301  12.359
29800W        W91166  26.668   8.224  14.792
29801W        W91167   5.247  33.046   4.252
29802W        W91168  33.008  27.985  11.576
29803W        W91169  33.470   6.828  11.114
29804W        W91170   3.874  15.586   2.252
29805W        W91171  20.197  28.145   4.640
29806W        W91172  44.362  26.675   3.754
29807W        W91173   5.253  16.636  11.887
29808W        W91174  23.659  30.152  10.585
29809W        W91175  36.860  34.082  12.883
29810W        W91176  18.168  14.224  11.563
29811W        W91177  15.811  23.217  10.588
29812W        W91178  13.133  11.867  13.960
29813W        W91179  13.247   8.183  13.353
29814W        W91180   6.199  16.140   3.717
29815W        W91181  25.088  11.256   1.884
29816W        W91182  40.024  43.299  11.954
29817W        W91183  43.295  36.411   4.139
29818W        W91184  10.747  39.916  14.494
29819W        W91185  34.925  42.281  13.404
29820W        W91186   4.416  34.870  12.368
29821W        W91187  30.540   5.823   1.428
29822W        W91188  38.856  22.567  10.503
29823W        W91189  30.544  18.163   5.261
29824W        W91190  39.814  34.445   3.805
29825W        W91191  39.054   0.761   2.418
29826W        W91192  12.277  35.072  12.026
29827W        W91193  34.470  43.008  12.391
29828W        W91194  10.174   9.740   2.347
29829W        W91195  26.157  41.894   0.316
29830W        W91196  36.563  12.685  14.807
29831W        W91197  41.871  37.018  13.837
29832W        W91198  14.737  37.518  11.391
29833W        W91199  37.048  23.238   1.835
29834W        W91200  30.048  29.509  14.018
29835W        W91201  18.115   1.312   4.615
29836W        W91202  30.546  38.539  10.539
29837W        W91203  34.488  35.926   4.183
29838W        W91204  44.815  25.018   5.236
29839W        W91205  26.583   4.863   2.853
29840W        W91206   5.208  31.634   0.763
29841W        W91207   6.269  12.346  12.047
29842W        W91208  12.648   8.204   2.367
29843W        W91209   4.254  12.139  11.974
29844W        W91210  34.501  26.550  14.765
29845W        W91211  29.476   1.764   3.663
29846W        W91212  33.074  21.672  14.410
29847W        W91213  14.336   4.735   0.442
29848W        W91214  31.526  14.195  11.380
29849W        W91215  40.545  29.039  10.551
29850W        W91216  16.770  33.554  13.037
29851W        W91217  13.716  39.522  13.957
29852W        W91218  43.437  25.488  12.914
29853W        W91219  44.269  21.694  14.817
29854W        W91220  40.959   4.747   2.854
29855W        W91221  30.492   0.845   3.673
29856W        W91222   6.899  26.008  14.994
29857W        W91223  19.595  37.340   4.221
29858W        W91224  34.509  12.663   0.851
29859W        W91225  20.103  29.563  14.896
29860W        W91226  43.461  38.870   3.243
29861W        W91227  38.854  40.398   2.803
29862W        W91228  24.027   9.888  13.980
29863W        W91229  15.152   1.338  14.845
29864W        W91230  11.152   3.332  13.508
29865W        W91231  23.126   7.890   3.168
29866W        W91232  17.565  41.411  13.812
29867W        W91233   7.270   7.216   4.271
29868W        W91234   3.261  23.044   4.781
29869W        W91235  23.601  13.315   3.343
29870W        W91236  30.497  35.952  12.425
29871W        W91237   4.244   7.264   1.228
29872W        W91238  29.162   1.458   3.209
29873W        W91239  37.900  26.584  10.575
29874W        W91240  24.584   2.226   4.185
29875W        W91241   7.754  15.317   3.361
29876W        W91242  35.497  39.976   0.411
29877W        W91243   2.889  36.496   3.170
29878W        W91244   1.774  30.942   5.303
29879W        W91245  37.399   1.400  13.927
29880W        W91246  27.079  35.550   3.789
29881W        W91247   0.869  12.611   5.293
29882W        W91248  15.125  29.120  11.550
29883W        W91249  17.148  29.518  13.944
29884W        W91250  23.113   7.249  12.431
29885W        W91251  13.700  18.264  10.579
29886W        W91252   4.851  28.148  12.955
29887W        W91253   0.842  15.602  11.022
29888W        W91254   5.837   1.843   5.576
29889W        W91255  10.361  16.177   1.365
29890W        W91256  44.295  38.956   3.347
29891W        W91257  21.720  18.546  12.903
29892W        W91258  38.440  25.639  14.955
29893W        W91259   8.770  34.405  13.808
29894W        W91260   0.452  33.433   1.875
29895W        W91261  16.776  34.371  10.418
29896W        W91262  11.723  26.020  10.485
29897W        W91263  26.158  11.665   0.357
29898W        W91264  19.196  14.763   2.776
29899W        W91265  43.837   6.248   0.399
29900W        W91266   5.917  37.554   3.197
29901W        W91267  33.563   1.885   0.446
29902W        W91268  25.119   2.950   3.211
29903W        W91269  26.961  20.219   1.331
29904W        W91270   2.787  22.558   2.811
29905W        W91271  43.354  12.833   0.417
29906W        W91272  26.194   6.684  10.110
29907W        W91273   0.859   2.938   0.326
29908W        W91274  36.585  32.968  11.931
29909W        W91275  41.957  38.826  14.993
29910W        W91276  24.716  27.115   0.334
29911W        W91277  34.030  24.026   4.201
29912W        W91278  30.446  37.344   3.848
29913W        W91279  21.191  36.526  10.962
29914W        W91280  34.608  14.590   2.886
29915W        W91281  28.079  15.092  11.057
29916W        W91282   7.337  16.648   3.161
29917W        W91283  16.799  21.035  11.016
29918W        W91284  31.102   7.249   5.267
29919W        W91285   2.765  14.656   0.759
29920W        W91286  10.234  16.125  12.832
29921W        W91287  13.162   1.305  11.433
29922W        W91288  18.752  43.943  13.403
29923W        W91289  12.664   6.815  13.487
29924W        W91290   8.359  31.442  13.517
29925W        W91291  29.626  26.996   1.935
29926W        W91292   8.827  29.633   5.165
29927W        W91293  29.561  23.035   2.271
29928W        W91294  35.071  26.114  12.823
29929W        W91295  29.148  25.963  12.357
29930W        W91296  42.993   0.452   2.342
29931W        W91297  25.471  22.233  11.861
29932W        W91298  16.655  24.025  10.573
29933W        W91299  40.309  38.396  13.368
29934W        W91300  20.255   8.322  10.517
29935W        W91301  31.995  15.218   2.893
29936W        W91302  32.516  40.453  12.980
29937W        W91303  13.303   3.768  14.415
29938W        W91304  34.412  22.625   0.863
29939W        W91305  25.125  25.616  14.916
29940W        W91306  33.586  33.537  10.125
29941W        W91307  16.741   7.862   3.710
29942W        W91308   9.825  42.492   1.272
29943W        W91309   9.152  22.633   3.840
29944W        W91310  44.410  44.302  12.421
29945W        W91311  24.611  41.979  12.971
29946W        W91312  21.095  30.484   1.903
29947W        W91313  28.153  12.785  13.444
29948W        W91314  25.526   3.222   3.145
29949W        W91315   2.272  13.266   2.346
29950W        W91316  18.749   0.949   1.760
29951W        W91317  15.697  28.471   1.695
29952W        W91318   3.443  14.718  13.417
29953W        W91319  26.134  42.812   1.807
29954W        W91320  33.588  30.515  13.512
29955W        W91321   3.720  12.778  10.889
29956W        W91322  44.009  17.729  11.086
29957W        W91323  35.866  25.129  14.342
29958W        W91324  25.713  22.503  12.371
29959W        W91325  15.623   5.825   3.344
29960W        W91326  43.304  30.998  10.446
29961W        W91327  15.241  10.185   1.270
29962W        W91328  12.188   0.268  10.921
29963W        W91329  17.065  17.115   0.740
29964W        W91330  18.060   6.738  13.311
29965W        W91331  35.510  18.073   3.862
29966W        W91332  16.785   0.336   3.652
29967W        W91333   8.713  12.272   2.250
29968W        W91334  29.923  11.202  11.492
29969W        W91335  14.203  23.110  13.420
29970W        W91336  22.653   6.899   2.665
29971W        W91337  31.004  43.289  14.976
29972W        W91338  43.973   2.739   3.871
29973W        W91339  39.419  21.610  10.955
29974W        W91340  33.586  44.386   3.340
29975W        W91341   3.905   9.728  13.430
29976W        W91342   5.303   7.788  11.987
29977W        W91343   9.299  23.530   1.416
29978W        W91344  25.115  29.064   2.688
29979W        W91345  12.284  29.543  11.996
29980W        W91346  18.680  38.382  14.399
29981W        W91347  26.662  25.667  14.817
29982W        W91348  23.044  28.112  11.551
29983W        W91349  24.130  10.199  10.160
29984W        W91350  24.493   1.356   2.212
29985W        W91351   7.314   6.778   3.182
29986W        W91352   8.339  12.354  14.406
29987W        W91353  28.435  35.883   3.816
29988W        W91354   0.939   8.277   1.410
29989W        W91355   0.309  32.513   3.828
29990W        W91356  29.601  41.952   2.402
29991W        W91357   8.734  23.090   3.730
29992W        W91358  16.253  41.040   2.404
29993W        W91359  31.639  18.692   3.260
29994W        W91360  24.554  35.108  12.473
29995W        W91361   4.374  31.416   3.841
29996W        W91362  10.197  35.603  10.488
29997W        W91363  33.064  24.495   2.848
29998W        W91364  41.514   8.294  14.299
29999W        W91365  34.077   7.699  12.381
30000W        W91366  24.681   0.877  11.880
30001W        W91367  38.045  36.016  14.306
30002W        W91368   1.797  37.017  11.018
30003W        W91369  26.170  27.040  12.011
30004W        W91370   5.266  35.465   3.703
30005W        W91371  33.560  38.951   0.866
30006W        W91372  39.943  26.500   4.249
30007W        W91373  13.307  27.069   0.381
30008W        W91374  32.138  17.228   0.893
30009W        W91375   0.455  25.963   3.330
30010W        W91376  25.536  17.615   2.851
30011W        W91377  37.015  17.270  13.548
30012W        W91378  34.488  16.205  13.791
30013W        W91379  38.338  21.631   1.275
30014W        W91380  11.310  43.365  14.963
30015W        W91381  22.720   5.319   0.322
30016W        W91382  21.070   8.856  12.364
30017W        W91383  18.118  11.651   3.785
30018W        W91384  39.341  17.794   3.768
30019W        W91385  21.167  20.069  14.311
30020W        W91386   8.203  42.349  11.563
30021W        W91387  44.267  40.837   1.351
30022W        W91388  29.571  41.422  10.618
30023W        W91389   3.886  26.600  14.026
30024W        W91390   3.311  26.493  11.942
30025W        W91391  11.240  17.221  10.938
30026W        W91392  41.477   9.794   3.803
30027W        W91393  32.987  34.603  11.384
30028W        W91394  22.567  43.799   3.366
30029W        W91395  31.535   1.259   2.681
30030W        W91396  26.496  44.930  13.331
30031W        W91397  34.449  42.462   0.739
30032W        W91398  38.829  17.214   1.719
30033W        W91399  22.595   5.802   2.317
30034W        W91400   6.235  38.515   2.201
30035W        W91401  43.498  24.147   4.233
30036W        W91402  33.103  19.063   5.312
30037W        W91403  16.082  36.565   2.191
30038W        W91404  18.546  28.553   0.427
30039W        W91405  18.646   2.415   3.651
30040W        W91406  43.379  21.682  13.968
30041W        W91407  10.779   2.397  14.843
30042W        W91408  21.528  12.266  13.523
30043W        W91409  15.088  31.435   1.395
30044W        W91410  28.989   6.287  10.981
30045W        W91411  37.407  19.647  10.455
30046W        W91412  31.094  22.585  14.847
30047W        W91413  31.441  37.848  12.049
30048W        W91414  40.454  26.516  11.555
30049W        W91415   2.778  39.820  11.401
30050W        W91416  14.797  20.093  10.537
30051W        W91417  16.287   5.763   2.276
30052W        W91418  38.985   9.765  11.025
30053W        W91419  23.030  31.915  12.022
30054W        W91420   7.309  29.586  14.919
30055W        W91421  16.573  17.744   5.683
30056W        W91422  20.601  35.503  14.440
30057W        W91423  35.036  15.165  11.031
30058W        W91424  14.322  30.084   3.239
30059W        W91425  10.820  44.292  13.797
30060W        W91426  28.964  34.464   2.311
30061W        W91427  41.853  26.501  11.088
30062W        W91428  24.134  41.011   1.923
30063W        W91429  30.488  33.433  14.413
30064W        W91430  30.625  39.515  12.092
30065W        W91431  21.634   2.743   1.741
30066W        W91432  35.074  18.758  10.413
30067W        W91433  25.211  11.206   0.436
30068W        W91434  20.034  42.386   4.709
30069W        W91435  37.405  44.807   4.295
30070W        W91436  31.048  37.444   4.273
30071W        W91437   1.804  30.943   4.128
30072W        W91438  35.534  16.170   2.245
30073W        W91439   5.224  13.181   1.914
30074W        W91440  43.021   7.297  10.909
30075W        W91441  32.530   0.360  14.771
30076W        W91442  10.343  22.121   2.663
30077W        W91443  22.113  23.074   1.410
30078W        W91444  14.234  19.574   0.820
30079W        W91445  10.296  31.984  13.043
30080W        W91446  37.383  34.027   3.668
30081W        W91447  37.573  11.748  13.354
30082W        W91448  17.603  10.805   1.828
30083W        W91449  12.788   9.293   3.309
30084W        W91450  33.073  29.508  11.962
30085W        W91451  27.007  12.137   0.446
30086W        W91452  12.613  19.114  12.887
30087W        W91453  29.536  21.719   4.724
30088W        W91454  38.373  20.088  10.934
30089W        W91455  15.191  29.040  10.945
30090W        W91456  36.971   7.801   3.288
30091W        W91457  25.105  14.652  14.867
30092W        W91458  29.144   1.895   4.135
30093W        W91459  16.308  44.966   3.337
30094W        W91460  39.034  39.026   1.773
30095W        W91461  12.772  35.569  14.824
30096W        W91462   9.727  41.797   1.387
30097W        W91463  20.252  37.447   1.817
30098W        W91464   7.184  10.245   1.246
30099W        W91465  39.989  27.003   1.796
30100W        W91466  30.114  37.856   3.826
30101W        W91467  31.933  38.517   3.280
30102W        W91468  42.498  43.314  12.989
30103W        W91469  28.452  40.519  11.513
30104W        W91470  28.163   2.467   4.304
30105W        W91471  16.685   0.889   1.720
30106W        W91472  35.416  28.094   2.192
30107W        W91473  19.694  43.306   2.670
30108W        W91474  39.921  22.647  14.445
30109W        W91475   0.416  40.827  10.410
30110W        W91476   3.820  13.270  12.361
30111W        W91477  39.852   3.799  13.004
30112W        W91478  20.644  12.344  14.011
30113W        W91479  38.547  28.514  13.043
30114W        W91480  17.210  33.409  14.878
30115W        W91481  37.488  28.049  13.488
30116W        W91482   9.838   1.350   4.617
30117W        W91483  29.474  35.943  10.003
30118W        W91484  34.509  40.969  13.001
30119W        W91485  21.225   6.767  14.019
30120W        W91486  25.614  32.447   3.170
30121W        W91487  14.165  18.634   0.329
30122W        W91488  11.161  18.289  14.816
30123W        W91489  39.045  13.657   3.284
30124W        W91490  38.973  44.281   0.801
30125W        W91491  17.292  44.290  12.367
30126W        W91492  23.722  44.409   2.827
30127W        W91493   8.705  41.329  10.896
30128W        W91494  40.901   9.811  14.299
30129W        W91495  30.477  20.267   3.151
30130W        W91496  40.442  23.514   4.807
30131W        W91497  35.945  26.967  14.992
30132W        W91498  44.902  11.774  10.509
30133W        W91499   4.931  25.174  12.995
30134W        W91500  16.277  23.542   0.958
30135W        W91501  32.943  17.107  12.548
30136W        W91502  10.773  20.692   3.780
30137W        W91503   3.861  12.331  14.852
30138W        W91504  22.741  38.043  14.965
30139W        W91505  27.099  43.373  14.910
30140W        W91506   3.354   1.467  14.970
30141W        W91507   0.455  41.798   0.418
30142W        W91508  40.973  41.988  10.999
30143W        W91509   5.195  12.710  11.089
30144W        W91510  38.026  19.077   3.684
30145W        W91511  40.991  18.256  11.590
30146W        W91512  41.921  33.107   3.822
30147W        W91513   0.875  15.740   1.777
30148W        W91514  42.879  23.670  13.339
30149W        W91515  11.345  31.447   0.411
30150W        W91516  12.197   9.378   3.301
30151W        W91517  15.642  16.660   9.544
30152W        W91518  15.794   5.203  13.532
30153W        W91519  15.137  42.334   1.730
30154W        W91520   4.912  25.653  13.025
30155W        W91521  17.758  39.554   4.313
30156W        W91522   7.373   2.949   0.424
30157W        W91523  37.890  35.002   2.366
30158W        W91524   5.819  42.822   3.223
30159W        W91525  21.563  35.435   9.933
30160W        W91526   3.753   2.462  13.453
30161W        W91527   7.337   3.288   0.941
30162W        W91528  36.028  23.583  10.453
30163W        W91529  36.907  32.530  11.986
30164W        W91530   0.825   9.763  11.560
30165W        W91531  28.434  38.550   0.249
30166W        W91532  40.516  22.573  12.422
30167W        W91533  37.476   8.248  14.761
30168W        W91534   7.309   3.272  12.381
30169W        W91535  40.961  19.163   4.826
30170W        W91536  15.246  38.504   1.879
30171W        W91537  24.533  35.011   2.246
30172W        W91538  17.133   1.271   1.248
30173W        W91539  37.530  12.225  14.030
30174W        W91540   7.313  41.455   0.307
30175W        W91541  37.412  29.945   1.321
30176W        W91542  41.335  33.539   0.771
30177W        W91543  39.496  26.972   1.794
30178W        W91544  30.132  33.976  14.320
30179W        W91545   5.194  32.902  14.333
30180W        W91546  17.617  29.611  14.324
30181W        W91547  37.419  42.901  11.097
30182W        W91548   4.367  10.363  11.480
30183W        W91549  40.999  39.934   0.313
30184W        W91550  22.504   0.776   1.374
30185W        W91551  13.215  30.156   2.183
30186W        W91552  12.201  16.573  10.922
30187W        W91553  41.988   6.312  11.529
30188W        W91554  12.846   6.880   0.353
30189W        W91555  12.695  43.427   4.183
30190W        W91556  35.535  11.312   4.746
30191W        W91557  15.107  27.572   2.691
30192W        W91558  24.611  40.511  13.856
30193W        W91559   4.323  41.969  11.985
30194W        W91560  18.246   5.201   2.733
30195W        W91561  21.570  23.212  11.036
30196W        W91562  34.939  18.203  13.479
30197W        W91563  38.456  22.545   0.476
30198W        W91564   4.796  17.117   4.188
30199W        W91565  22.604  42.842   5.267
30200W        W91566   5.257  26.088  13.942
30201W        W91567   0.403  36.022   3.780
30202W        W91568  20.580  12.147  14.343
30203W        W91569  18.783  33.081  12.032
30204W        W91570  27.508  44.389  11.976
30205W        W91571  29.011  34.867  12.925
30206W        W91572  36.851   9.822   4.670
30207W        W91573  37.937   1.341   2.235
30208W        W91574  18.657  32.075  11.591
30209W        W91575  28.962  39.480   0.359
30210W        W91576  18.763   9.195   0.299
30211W        W91577  39.844  20.238  11.933
30212W        W91578   2.247  20.076   0.479
30213W        W91579  15.629  16.171  12.056
30214W        W91580  24.182  36.455   2.308
30215W        W91581  22.664  20.106   3.313
30216W        W91582   7.342  26.562  13.912
30217W        W91583   1.381  43.489  13.416
30218W        W91584  14.121  13.171   2.384
30219W        W91585  33.557  25.673   4.758
30220W        W91586  15.150  11.667  14.992
30221W        W91587  16.598  33.958   0.798
30222W        W91588   9.714  13.319   0.825
30223W        W91589   4.247  11.291  14.457
30224W        W91590  33.963   5.933  11.067
30225W        W91591  14.784  22.026  11.979
30226W        W91592  39.482   5.309   4.206
30227W        W91593   6.743   4.391   2.377
30228W        W91594   3.276  20.628   3.817
30229W        W91595  13.339  27.494   1.364
30230W        W91596  38.930  43.936   2.807
30231W        W91597   4.449  16.124  11.925
30232W        W91598  13.279  14.754  10.954
30233W        W91599  23.088  25.146   2.255
30234W        W91600  21.598  40.353  13.916
30235W        W91601  30.552  10.274  12.446
30236W        W91602  32.568   2.848  11.039
30237W        W91603  13.712  32.065   4.283
30238W        W91604  14.831  15.705  13.858
30239W        W91605  35.098  39.841  13.406
30240W        W91606  26.503  25.212   3.831
30241W        W91607   3.425  24.979  10.963
30242W        W91608  18.740   2.297  14.829
30243W        W91609  37.830  15.273   3.696
30244W        W91610  13.306  24.203   9.995
30245W        W91611  29.479  27.552  11.571
30246W        W91612  10.255  41.438   0.367
30247W        W91613   8.802  44.316  11.453
30248W        W91614  28.534   1.800  14.421
30249W        W91615  42.297   3.242   0.817
30250W        W91616  26.082  13.608   1.232
30251W        W91617   8.777  44.345   1.274
30252W        W91618  15.603  11.362  11.064
30253W        W91619  10.171  25.044  14.292
30254W        W91620  43.011  24.186  11.536
30255W        W91621  27.018  33.474   3.696
30256W        W91622   8.813  19.146  11.872
30257W        W91623  21.018   4.872   9.945
30258W        W91624  17.124  12.790  12.421
30259W        W91625  38.071  11.819   3.362
30260W        W91626  26.647  25.681   0.401
30261W        W91627  10.255  36.876   2.842
30262W        W91628  30.613  19.596   0.345
30263W        W91629  18.707  35.039   0.314
30264W        W91630  30.162   9.371  11.406
30265W        W91631  40.025  29.441  14.371
30266W        W91632   2.286  29.055  11.892
30267W        W91633  15.249  40.942   2.770
30268W        W91634  14.600  32.960   1.298
30269W        W91635  41.941  32.571   2.359
30270W        W91636  35.390   8.811  12.857
30271W        W91637   5.864  44.990   2.276
30272W        W91638  43.461  25.988  13.839
30273W        W91639  42.975  14.633  12.423
30274W        W91640  28.487   8.339   2.702
30275W        W91641  11.220   2.332   2.851
30276W        W91642  23.669   8.734   3.358
30277W        W91643  43.004  43.289   4.680
30278W        W91644  41.986  34.023   0.448
30279W        W91645   5.306  10.825   3.757
30280W        W91646   3.950  30.948  10.413
30281W        W91647  27.558  41.797   1.846
30282W        W91648  43.434  31.551   2.292
30283W        W91649  22.604  36.428   4.830
30284W        W91650  30.527  38.369   4.649
30285W        W91651  14.216  23.506   4.306
30286W        W91652   2.779  19.749   1.794
30287W        W91653  34.538  14.283  14.831
30288W        W91654   9.344  35.931   3.183
30289W        W91655  17.264  25.595   4.738
30290W        W91656   7.911  23.095  10.896
30291W        W91657   9.207  15.152   3.698
30292W        W91658  41.381  18.174   3.288
30293W        W91659  20.225  36.400  12.827
30294W        W91660   9.341  35.600   2.794
30295W        W91661  25.623   5.894   1.915
30296W        W91662  17.256  40.929   4.233
30297W        W91663  41.387   5.771   3.802
30298W        W91664  37.360  43.407  10.572
30299W        W91665  19.263   8.675   0.790
30300W        W91666   1.344  41.449  13.900
30301W        W91667  42.479  43.357   2.382
30302W        W91668  30.616   5.338   2.770
30303W        W91669  11.296   7.873   3.677
30304W        W91670  12.722   5.848   3.751
30305W        W91671  30.924  12.185  10.611
30306W        W91672  36.579  44.458  13.343
30307W        W91673  25.057   3.433   0.738
30308W        W91674  13.709  29.124  10.430
30309W        W91675  30.451  40.346  14.996
30310W        W91676  39.001  39.386  12.361
30311W        W91677  25.100  29.101  13.411
30312W        W91678  40.390  39.893  14.293
30313W        W91679  39.850  17.189  13.483
30314W        W91680  27.150   6.827  13.454
30315W        W91681  11.822  23.202  11.556
30316W        W91682   3.825  34.481   4.172
30317W        W91683   6.211  36.038  13.053
30318W        W91684  38.519   8.704   3.825
30319W        W91685  13.799  43.494   2.282
30320W        W91686  28.054  13.666   1.859
30321W        W91687   9.801  18.218  12.372
30322W        W91688  38.386  28.591  14.315
30323W        W91689  17.160   7.321  12.429
30324W        W91690   6.824  28.597  13.419
30325W        W91691  25.643  15.190  10.456
30326W        W91692  24.214  42.447  10.942
30327W        W91693  32.889  31.914  11.905
30328W        W91694  26.996   9.865  14.841
30329W        W91695  36.070  38.020   4.709
30330W        W91696   2.773  31.134  13.058
30331W        W91697  21.045  36.495   1.365
30332W        W91698  24.022  29.105   4.163
30333W        W91699   0.403   9.710   0.424
30334W        W91700   7.411   8.707  10.895
30335W        W91701  40.406  14.291   5.215
30336W        W91702   5.371  24.023   0.822
30337W        W91703  10.381   8.883   4.819
30338W        W91704  36.064  26.590  14.905
30339W        W91705   6.366  36.396   2.292
30340W        W91706  25.686  13.175   2.250
30341W        W91707  16.086   0.850   0.475
30342W        W91708  10.867  35.506   1.736
30343W        W91709  32.410  14.728   3.354
30344W        W91710  14.111   7.729  14.919
30345W        W91711  19.702  41.980   3.307
30346W        W91712  37.944   3.344   1.439
30347W        W91713  33.059  14.158   2.237
30348W        W91714   1.795  42.455  11.078
30349W        W91715  44.884  43.011  10.989
30350W        W91716  24.034   4.790  11.980
30351W        W91717  38.419  10.850   2.364
30352W        W91718  20.082  36.543  13.518
30353W        W91719  39.492  32.995   1.311
30354W        W91720  26.570   5.249  12.083
30355W        W91721  32.897   9.711  11.071
30356W        W91722  20.745  12.200  11.070
30357W        W91723  23.564  38.881   3.760
30358W        W91724   1.377  20.095   0.779
30359W        W91725  29.565  40.847   4.321
30360W        W91726  16.667  22.020   0.261
30361W        W91727  21.246  18.770  11.032
30362W        W91728  42.823  15.300   2.413
30363W        W91729  19.727   9.857  13.434
30364W        W91730  14.715  37.576   4.172
30365W        W91731  18.176  43.460  13.374
30366W        W91732  27.992   0.407  14.314
30367W        W91733  33.515  34.984   2.900
30368W        W91734  23.084  44.925   1.763
30369W        W91735  37.895  22.601  10.109
30370W        W91736  37.001   6.782   3.209
30371W        W91737  43.378   4.214   4.229
30372W        W91738   5.324   0.272  12.391
30373W        W91739  13.619  14.308  10.891
30374W        W91740  27.975  20.708  14.319
30375W        W91741  10.741   1.340   0.897
30376W        W91742  14.701   9.149  12.429
30377W        W91743  21.511  39.536  11.533
30378W        W91744  16.771   4.319   1.771
30379W        W91745  22.087  35.430   4.751
30380W        W91746  36.015  11.776   0.857
30381W        W91747   2.383  38.343   0.468
30382W        W91748  31.024  20.613  12.872
30383W        W91749  24.198   1.924   0.924
30384W        W91750  27.971  32.118   0.304
30385W        W91751  15.800  22.241  11.548
30386W        W91752  32.108  22.629  13.931
30387W        W91753  27.034  43.440  13.531
30388W        W91754  15.729  42.427   2.795
30389W        W91755  44.869   1.759   2.881
30390W        W91756  35.895   0.396  14.909
30391W        W91757  30.572  22.219  10.903
30392W        W91758   7.722  22.215  14.000
30393W        W91759  10.338  19.602   5.090
30394W        W91760  29.621   4.771  11.881
30395W        W91761  31.905   9.240   4.222
30396W        W91762  43.385   7.880   1.784
30397W        W91763  18.724  44.971  13.003
30398W        W91764  20.673   6.822  11.942
30399W        W91765  20.180  43.769   0.354
30400W        W91766  37.398  21.692  11.957
30401W        W91767  29.114  23.531  12.067
30402W        W91768   9.311  21.528  10.602
30403W        W91769   8.874   3.936   0.813
30404W        W91770   1.732  32.031   3.342
30405W        W91771  31.461  36.409   0.851
30406W        W91772  36.862  14.612   1.406
30407W        W91773  30.583  44.305   3.690
30408W        W91774  21.702  16.579  12.961
30409W        W91775  22.740   8.770   4.720
30410W        W91776   8.686   1.386  12.839
30411W        W91777  17.801  34.381   1.809
30412W        W91778   4.757   7.907   9.972
30413W        W91779  34.043  31.601  11.984
30414W        W91780  19.257   6.273  13.466
30415W        W91781  29.925  11.682   3.354
30416W        W91782  23.612  42.806   2.822
30417W        W91783  35.423  41.951   4.605
30418W        W91784  10.733  27.527  10.541
30419W        W91785  22.646  25.644  10.523
30420W        W91786   1.460  15.126  13.968
30421W        W91787  28.665   3.359   3.282
30422W        W91788  24.113  21.116   3.232
30423W        W91789  28.530  36.459   0.403
30424W        W91790  33.122  25.669  11.950
30425W        W91791  15.109   5.214  12.044
30426W        W91792  36.567  37.886  11.126
30427W        W91793  17.255  37.010   4.134
30428W        W91794  22.059  38.542  13.015
30429W        W91795  34.978   0.978   0.752
30430W        W91796  37.015  36.510  11.506
30431W        W91797  35.927  44.358  12.923
30432W        W91798  29.542  11.163   4.217
30433W        W91799  29.467  24.479   4.124
30434W        W91800   0.946  28.163   3.355
30435W        W91801  23.046  23.087   1.808
30436W        W91802  39.539   4.389   4.320
30437W        W91803   6.756  40.305  10.920
30438W        W91804  37.553  18.134   2.333
30439W        W91805  15.819  25.189   4.229
30440W        W91806  41.486  29.575  10.447
30441W        W91807  24.691   0.921   0.441
30442W        W91808  13.289  11.756   5.165
30443W        W91809  11.344  37.575   0.897
30444W        W91810  20.742  19.270   3.317
30445W        W91811  36.538  28.945   2.705
30446W        W91812  28.530  12.283  12.967
30447W        W91813  33.038  33.602  14.413
30448W        W91814  32.589  43.472   4.720
30449W        W91815  39.017  29.000  14.913
30450W        W91816  18.069  25.673   2.694
30451W        W91817   7.818   3.451   5.692
30452W        W91818  26.652  44.438  14.448
30453W        W91819  28.574  41.440   2.320
30454W        W91820  20.724  36.892   0.738
30455W        W91821  30.434  38.497   2.288
30456W        W91822  31.648   3.262  13.960
30457W        W91823  23.693  21.595  13.839
30458W        W91824  37.542  29.439   3.670
30459W        W91825  44.805  25.549  11.998
30460W        W91826  27.150   5.370   5.753
30461W        W91827  27.656  42.012  11.062
30462W        W91828  44.388  39.968   2.833
30463W        W91829  13.807  34.521   2.848
30464W        W91830  41.339   0.354   3.191
30465W        W91831   8.667   5.355  14.888
30466W        W91832  17.625  17.220   3.336
30467W        W91833  30.047  10.150   4.173
30468W        W91834   3.868  28.640   1.739
30469W        W91835  35.569  21.141  11.407
30470W        W91836  16.770   0.335   1.934
30471W        W91837  44.386  33.028  14.836
30472W        W91838  32.545   7.835   3.840
30473W        W91839   2.331  44.988  11.860
30474W        W91840   1.805  22.136   2.684
30475W        W91841  41.441  33.524   3.387
30476W        W91842  35.035   3.844   4.794
30477W        W91843  42.357  37.452  12.538
30478W        W91844  39.348  20.088   1.743
30479W        W91845  43.896  23.150  11.955
30480W        W91846  14.152   2.292  14.868
30481W        W91847  14.741  34.889   1.408
30482W        W91848  37.361  36.563  12.347
30483W        W91849  38.486   4.765   2.760
30484W        W91850  34.072  39.366   0.279
30485W        W91851  26.960   8.327  12.532
30486W        W91852  17.692  14.608  12.883
30487W        W91853   1.925  31.146   0.867
30488W        W91854  27.671  11.663  13.419
30489W        W91855   6.894   9.251   3.637
30490W        W91856   1.976  20.154   0.261
30491W        W91857   1.894  19.544  11.021
30492W        W91858  25.642  40.993  14.943
30493W        W91859  17.710  22.541  12.417
30494W        W91860  23.674   2.735  13.478
30495W        W91861  32.097  42.997   2.342
30496W        W91862   5.208  20.125   4.655
30497W        W91863  26.008  17.263   4.774
30498W        W91864  13.795  42.310  13.354
30499W        W91865  17.233  31.020  13.904
30500W        W91866  39.012  40.964  14.283
30501W        W91867  18.551   3.805  14.337
30502W        W91868  31.955  10.140   2.791
30503W        W91869  28.136  41.044   2.219
30504W        W91870  32.449   4.850   4.290
30505W        W91871  30.909  11.163  11.593
30506W        W91872  27.542  42.334  11.981
30507W        W91873  17.673  11.341  13.967
30508W        W91874  32.618  30.453  13.535
30509W        W91875   4.767   8.692  13.860
30510W        W91876  29.942  24.194   1.708
30511W        W91877  37.889  11.791  13.883
30512W        W91878  23.580  40.943  14.794
30513W        W91879  22.547   6.185   3.317
30514W        W91880  25.468   0.300  10.620
30515W        W91881   6.419  23.084   1.215
30516W        W91882   1.472  12.350  12.060
30517W        W91883  40.465   5.362  10.446
30518W        W91884  10.829  11.773  13.397
30519W        W91885  43.860  10.289   0.404
30520W        W91886  13.108  11.718   0.920
30521W        W91887  29.463  19.552   3.247
30522W        W91888   0.866  26.075   1.880
30523W        W91889  39.497  44.414  14.329
30524W        W91890  13.259  18.273  12.851
30525W        W91891  13.780   9.267  14.383
30526W        W91892  14.593  40.387  10.604
30527W        W91893  34.582  26.701   0.784
30528W        W91894   7.335  38.478   3.742
30529W        W91895  31.469  39.012  12.028
30530W        W91896   9.328   5.332   4.145
30531W        W91897  24.510   9.717   0.951
30532W        W91898   8.729  28.053   3.224
30533W        W91899   1.835  29.936  12.913
30534W        W91900  11.303  15.313  11.955
30535W        W91901  42.808  37.529   3.653
30536W        W91902  27.078  13.332   3.295
30537W        W91903   0.869  22.715  13.945
30538W        W91904  15.273   6.347  11.869
30539W        W91905  33.551  18.066   5.231
30540W        W91906   4.228  32.537  14.477
30541W        W91907   6.200  25.482  12.383
30542W        W91908  36.924  29.645   2.298
30543W        W91909  37.863  32.435   0.922
30544W        W91910  44.985  25.067   3.718
30545W        W91911  19.254   5.821  10.974
30546W        W91912  17.104  40.413  10.626
30547W        W91913  37.511  12.746   2.417
30548W        W91914   2.871   0.289   0.304
30549W        W91915  14.594  22.142   3.639
30550W        W91916  39.032   2.878  13.507
30551W        W91917  25.636  19.615   4.597
30552W        W91918  14.775  32.419   1.356
30553W        W91919  29.055   9.786   2.386
30554W        W91920  43.422  27.096   2.876
30555W        W91921  10.794  33.009  14.919
30556W        W91922  36.442  29.428   0.380
30557W        W91923   6.805  18.555  14.391
30558W        W91924  29.131   6.209  11.895
30559W        W91925  35.532  38.016  13.984
30560W        W91926  25.583   3.251  10.467
30561W        W91927  30.044  30.558  14.937
30562W        W91928   5.244  11.729   3.369
30563W        W91929  38.958  20.148   0.837
30564W        W91930  17.618  14.170  12.849
30565W        W91931  20.099  23.017   4.134
30566W        W91932   3.355  39.322   4.169
30567W        W91933  16.299  25.042  12.343
30568W        W91934  27.016  28.547  14.788
30569W        W91935   8.288  17.078  10.429
30570W        W91936  20.627  20.722   4.270
30571W        W91937   8.174  28.440   2.888
30572W        W91938  16.289  22.173  12.516
30573W        W91939  24.553   0.301   2.182
30574W        W91940   5.907  39.417  10.632
30575W        W91941  22.114  33.610   3.166
30576W        W91942  37.901  42.500  13.871
30577W        W91943  11.343   3.743  13.857
30578W        W91944  21.529  38.820   0.412
30579W        W91945  29.114  33.465   4.752
30580W        W91946  10.635  12.638   2.876
30581W        W91947  37.572  23.613  12.491
30582W        W91948  21.515  26.964  13.883
30583W        W91949  28.486  17.592   1.215
30584W        W91950  23.547  30.084  12.391
30585W        W91951   3.889  21.534   0.936
30586W        W91952  37.833  43.956   0.789
30587W        W91953  22.552   5.230  10.404
30588W        W91954  24.113  31.047   4.128
30589W        W91955  38.971  15.755   1.831
30590W        W91956  22.722  40.864  11.482
30591W        W91957  35.504  16.634   2.361
30592W        W91958  42.830  20.548   0.365
30593W        W91959   0.756  39.002   2.391
30594W        W91960  39.848  39.326   2.903
30595W        W91961   5.708  19.591  13.893
30596W        W91962  32.465  43.303   0.893
30597W        W91963  23.640  14.289  13.385
30598W        W91964   9.848  44.466  12.867
30599W        W91965  26.481  10.308   1.825
30600W        W91966   7.736  10.298  11.859
30601W        W91967  11.851  40.903  13.347
30602W        W91968  24.543  16.736  11.448
30603W        W91969  23.238  38.994   1.748
30604W        W91970  23.692  18.733  14.281
30605W        W91971   4.920  34.555   1.366
30606W        W91972   6.364  34.488  12.491
30607W        W91973  41.317  32.083  12.420
30608W        W91974  16.226  18.190  11.913
30609W        W91975  33.907  19.723  12.403
30610W        W91976  25.682  13.296  14.921
30611W        W91977   0.484   5.737   4.832
30612W        W91978  36.889  15.581   2.368
30613W        W91979  34.026  19.740  12.009
30614W        W91980  24.126  35.366   0.828
30615W        W91981  17.102  11.715   4.279
30616W        W91982  31.990  39.513   4.679
30617W        W91983  29.472  19.198   2.757
30618W        W91984  14.659  21.603  11.505
30619W        W91985  15.151  27.995   4.813
30620W        W91986   0.485  43.373  14.365
30621W        W91987   0.829  42.383  11.568
30622W        W91988  20.075   7.172   3.235
30623W        W91989  14.601  44.322  12.913
30624W        W91990  11.662  11.154  13.317
30625W        W91991  17.650  29.008  11.895
30626W        W91992  24.174  27.505   0.296
30627W        W91993   6.238  33.494  10.027
30628W        W91994  22.648  27.946   1.345
30629W        W91995   3.380  22.739  11.512
30630W        W91996  31.589  16.236   1.705
30631W        W91997  11.716  15.706  14.474
30632W        W91998  22.741   3.853  14.302
30633W        W91999  33.620  20.255   3.373
30634W        W92000  39.443   9.763   2.372
30635W        W92001   2.295  13.106  10.580
30636W        W92002   6.301  19.747  11.441
30637W        W92003   9.334  17.113   1.309
30638W        W92004  43.776  27.477  12.934
30639W        W92005  36.011  20.653  12.940
30640W        W92006  37.015   4.423  10.492
30641W        W92007  23.163   1.810  10.578
30642W        W92008  22.216  12.196  13.527
30643W        W92009  25.124  43.014  10.585
30644W        W92010  41.035  18.082  14.800
30645W        W92011  39.347  37.388  13.346
30646W        W92012   9.219   3.937  10.562
30647W        W92013   7.313   0.765   2.353
30648W        W92014  21.671  18.159  10.502
30649W        W92015   1.256  22.516  13.323
30650W        W92016   9.219  44.773  10.442
30651W        W92017  29.937   4.205   1.851
30652W        W92018  17.091  42.930   2.879
30653W        W92019  44.454  11.781  14.029
30654W        W92020  26.617  35.960   0.311
30655W        W92021  41.955  38.928   2.845
30656W        W92022  24.219  26.542  12.025
30657W        W92023  14.109  27.625  12.872
30658W        W92024  33.601  34.580   3.696
30659W        W92025  40.810  33.970  13.813
30660W        W92026   1.319  44.868   3.700
30661W        W92027  24.063  43.488   1.908
30662W        W92028   8.725  40.002  12.444
30663W        W92029   4.895  12.761  14.995
30664W        W92030  36.096   5.217  13.988
30665W        W92031  33.445  44.003   0.253
30666W        W92032   7.406  37.426   3.862
30667W        W92033  44.372  11.720   1.344
30668W        W92034   8.214  12.276  11.465
30669W        W92035   7.405   2.228   4.803
30670W        W92036  35.588  14.799  11.440
30671W        W92037  12.191   1.743   4.323
30672W        W92038  34.453   1.898   0.284
30673W        W92039  12.766  19.151  10.543
30674W        W92040  33.011   2.930  11.465
30675W        W92041  10.190  36.094   4.640
30676W        W92042   3.449  41.901  11.993
30677W        W92043  39.466  37.529   4.752
30678W        W92044   1.326  42.330   3.249
30679W        W92045  14.772   7.829   3.699
30680W        W92046  27.629  37.972  10.583
30681W        W92047  28.123  22.246   2.302
30682W        W92048  26.460   0.454   1.859
30683W        W92049  10.776   2.898   4.715
30684W        W92050  31.593   8.179   3.663
30685W        W92051  23.190  10.363  14.391
30686W        W92052  16.174  16.591   4.644
30687W        W92053   1.320  17.190  14.313
30688W        W92054  28.178  33.037  13.321
30689W        W92055  11.290  12.187   1.743
30690W        W92056  44.260  11.293  14.774
30691W        W92057   2.812  25.073   2.271
30692W        W92058  21.208   3.794  13.992
30693W        W92059  23.019  31.917  13.979
30694W        W92060  44.409  15.740   3.782
30695W        W92061  35.460  16.179  12.511
30696W        W92062  41.506   9.216   4.642
30697W        W92063  27.038  35.888   1.828
30698W        W92064   6.292  34.482   1.837
30699W        W92065  37.518  19.745  13.518
30700W        W92066   8.743  18.215   1.240
30701W        W92067  30.052  18.661  13.441
30702W        W92068  16.585  25.000  14.989
30703W        W92069  40.833  39.533  13.953
30704W        W92070  20.144  43.279  12.917
30705W        W92071  10.813  29.006  13.323
30706W        W92072  15.583   1.275   3.312
30707W        W92073  25.621   0.428   4.140
30708W        W92074  38.480   4.910  13.335
30709W        W92075  13.792  10.238   0.915
30710W        W92076   6.253  39.011  13.830
30711W        W92077   0.849  16.592   4.341
30712W        W92078  11.841  16.301   4.667
30713W        W92079   5.912   0.760   1.851
30714W        W92080  41.886  30.103   2.251
30715W        W92081  10.309   9.315  12.981
30716W        W92082   7.207  28.042  14.353
30717W        W92083  36.575   0.793   3.373
30718W        W92084  27.993  29.637   4.700
30719W        W92085  44.450  34.085   4.611
30720W        W92086  41.520  31.988   4.169
30721W        W92087   1.251  23.511   2.402
30722W        W92088  29.925  30.631  13.407
30723W        W92089  22.604  38.938  11.443
30724W        W92090  19.628  38.330  10.532
30725W        W92091  16.128   7.417   4.128
30726W        W92092  25.524  34.086   1.267
30727W        W92093  27.545   3.371  14.956
30728W        W92094  43.985   3.942   3.633
30729W        W92095  35.428   8.311   4.287
30730W        W92096  33.956  23.730  12.837
30731W        W92097  34.867  25.041   0.248
30732W        W92098  15.208  29.965  11.446
30733W        W92099  23.514  29.926  12.988
30734W        W92100  38.837  14.707   2.760
30735W        W92101   5.904  26.531  12.904
30736W        W92102   6.754  11.202  13.465
30737W        W92103  44.999  23.733   2.223
30738W        W92104  39.975  36.463  14.769
30739W        W92105  26.103   3.297  14.974
30740W        W92106  10.347  17.758   0.745
30741W        W92107  12.287  35.507  12.015
30742W        W92108  14.213   0.388  11.493
30743W        W92109  22.704  28.467   4.316
30744W        W92110   8.876  27.567  13.056
30745W        W92111  33.446  35.996  12.416
30746W        W92112   7.400  36.380  13.844
30747W        W92113  10.285  22.703  11.057
30748W        W92114  10.780  24.019  14.310
30749W        W92115  38.010   0.409  11.056
30750W        W92116   5.917  13.151  13.516
30751W        W92117  16.778  32.017   2.414
30752W        W92118   4.354  12.231   4.297
30753W        W92119  43.278  25.021   3.699
30754W        W92120  36.063  38.489   2.759
30755W        W92121  33.951   6.280   0.783
30756W        W92122  13.638  44.794  14.958
30757W        W92123   1.743   1.834  12.842
30758W        W92124  16.659  18.697  11.550
30759W        W92125  35.068  38.501   2.702
30760W        W92126   1.894   3.394   2.214
30761W        W92127  15.204  36.413  14.459
30762W        W92128  44.403   5.219   2.748
30763W        W92129  10.338  24.031  14.395
30764W        W92130  41.437  28.526  11.995
30765W        W92131  15.126  36.389   1.784
30766W        W92132  15.270  27.161   1.346
30767W        W92133  20.215   4.406   3.372
30768W        W92134  30.638  16.725  14.282
30769W        W92135  29.061  37.582   4.747
30770W        W92136  13.151  18.240  10.604
30771W        W92137  32.897   0.400   1.805
30772W        W92138  41.004  11.751   3.838
30773W        W92139  41.934  13.172  14.922
30774W        W92140  38.472   7.240  13.024
30775W        W92141   2.309   0.282   1.235
30776W        W92142  19.230  44.315  14.981
30777W        W92143  41.952  13.603  11.439
30778W        W92144  14.123  42.480  13.363
30779W        W92145  31.984   3.432   0.905
30780W        W92146  12.217  36.051  12.061
30781W        W92147  30.040   0.918  11.031
30782W        W92148  27.603  36.442   0.940
30783W        W92149  41.980   7.372  13.416
30784W        W92150  39.502  15.805   2.819
30785W        W92151  14.648   9.689  12.868
30786W        W92152  21.663   1.763   4.136
30787W        W92153   2.800  25.669  12.026
30788W        W92154  15.214   6.755   2.780
30789W        W92155  34.474  29.647   1.384
30790W        W92156  39.420  26.202  13.064
30791W        W92157   0.431  13.346   1.857
30792W        W92158  22.586  27.981   0.392
30793W        W92159   2.468  25.153  13.051
30794W        W92160   8.839  33.611  12.574
30795W        W92161  11.317  19.766  13.403
30796W        W92162  34.549  19.112  10.920
30797W        W92163  29.599   6.819  11.053
30798W        W92164  35.931   8.901  12.573
30799W        W92165  26.987  43.377  13.975
30800W        W92166  15.315   9.795   2.296
30801W        W92167  42.015   7.791   4.335
30802W        W92168  34.917  39.533   0.263
30803W        W92169  14.226   0.447  10.943
30804W        W92170   7.310  22.066  14.291
30805W        W92171  44.808  25.173  12.567
30806W        W92172  17.591  36.387   2.893
30807W        W92173  39.050  13.125   2.263
30808W        W92174  27.638   2.732   1.872
30809W        W92175  44.414  25.658   2.875
30810W        W92176   1.923  38.003  10.609
30811W        W92177   2.272  31.007   2.885
30812W        W92178  38.381  23.203   0.881
30813W        W92179   0.418  39.916  12.880
30814W        W92180  11.282  31.551  13.546
30815W        W92181  18.609  40.328   1.256
30816W        W92182  14.220  25.652  13.357
30817W        W92183  38.895  33.430   2.208
30818W        W92184   7.818   1.958   4.741
30819W        W92185  43.896   1.374   2.385
30820W        W92186  16.572  39.340  13.862
30821W        W92187  16.112  16.119  13.950
30822W        W92188   1.434  40.531  14.002
30823W        W92189  21.557   7.718   2.847
30824W        W92190  31.427  38.346  11.855
30825W        W92191  42.423  14.704  13.465
30826W        W92192  19.057   6.900   0.470
30827W        W92193  15.702  26.474   3.268
30828W        W92194   1.785  33.095   1.214
30829W        W92195  33.954  19.246  12.071
30830W        W92196  20.111  40.338  14.939
30831W        W92197  33.031  15.208  14.785
30832W        W92198   7.352  39.854   0.871
30833W        W92199  12.632   1.338  10.497
30834W        W92200  18.076  40.450  14.872
30835W        W92201  30.120  37.032   2.310
30836W        W92202  44.863  20.710   0.381
30837W        W92203   2.943  14.770  12.342
30838W        W92204  12.265  25.050  10.623
30839W        W92205  24.589   5.728   0.369
30840W        W92206  43.270  20.551  10.461
30841W        W92207  14.307  38.017  11.982
30842W        W92208  23.716   7.844   4.603
30843W        W92209   8.890  39.347   4.691
30844W        W92210  15.142  23.507  12.860
30845W        W92211  37.384  29.165   1.264
30846W        W92212   9.290   6.316  13.824
30847W        W92213   1.873  30.973  11.058
30848W        W92214   9.831  32.480   3.714
30849W        W92215  16.682  41.429   4.655
30850W        W92216  39.837  19.719  11.938
30851W        W92217  15.664  38.502  14.838
30852W        W92218  40.930  26.153  12.982
30853W        W92219  44.408  43.365  11.470
30854W        W92220   6.422  20.707  14.324
30855W        W92221  24.160  23.204  11.029
30856W        W92222   9.831   6.784   3.766
30857W        W92223  10.853  40.829  14.797
30858W        W92224  42.352   6.775   0.278
30859W        W92225  39.015  25.071  10.548
30860W        W92226  44.758   9.377  12.379
30861W        W92227  27.667  41.805  10.541
30862W        W92228  16.788  37.886   0.873
30863W        W92229  10.678  11.290  14.388
30864W        W92230  40.837   0.252   2.328
30865W        W92231  36.489  27.987   3.209
30866W        W92232  18.558  17.695   0.350
30867W        W92233  34.915  44.308   2.365
30868W        W92234  11.334  34.500  13.881
30869W        W92235  36.449  11.845   2.899
30870W        W92236  20.047  31.047   3.289
30871W        W92237   0.757  27.124   3.694
30872W        W92238  31.436  37.555   2.194
30873W        W92239  31.408  23.505  14.780
30874W        W92240  30.590  38.496   4.134
30875W        W92241   7.383   2.879  14.390
30876W        W92242  43.961   9.885  14.474
30877W        W92243  30.053  40.404   0.793
30878W        W92244   6.387  36.923  10.472
30879W        W92245  26.070  41.422  14.978
30880W        W92246  19.565  20.616   9.974
30881W        W92247  12.683  42.980   0.395
30882W        W92248  41.987  44.263  10.039
30883W        W92249  31.018   2.343  10.898
30884W        W92250   0.270  39.867  14.945
30885W        W92251  23.220  18.179   0.745
30886W        W92252  37.913  44.982  14.026
30887W        W92253  43.993  39.013   4.267
30888W        W92254   3.287  36.064  11.971
30889W        W92255  40.856  28.172  13.888
30890W        W92256  35.546  36.351  14.465
30891W        W92257   0.983  22.145   1.212
30892W        W92258   2.818  33.881   0.449
30893W        W92259  19.134  39.433  13.848
30894W        W92260  11.786  38.011  12.356
30895W        W92261  41.303  18.587  14.312
30896W        W92262  43.989  20.561   3.689
30897W        W92263  24.108  33.910  13.540
30898W        W92264  31.429  14.717  14.808
30899W        W92265  38.985   2.386   0.956
30900W        W92266  39.436   5.730  10.405
30901W        W92267  42.342  22.233  14.440
30902W        W92268  38.030  41.328  13.465
30903W        W92269  17.109  21.058   0.956
30904W        W92270  39.378  18.282   4.793
30905W        W92271   0.392  13.227   0.353
30906W        W92272  19.186  30.919   2.785
30907W        W92273   1.401   3.349   3.344
30908W        W92274  10.796  21.652  13.959
30909W        W92275  31.546  43.789  13.384
30910W        W92276  36.379  12.219  10.996
30911W        W92277  22.593   1.811   1.377
30912W        W92278  40.938  42.527   4.200
30913W        W92279   9.363  10.672   3.834
30914W        W92280   9.394  20.229   1.358
30915W        W92281  20.250  26.674  14.457
30916W        W92282  33.398   4.888   1.392
30917W        W92283   6.791  30.443  12.061
30918W        W92284  33.497   3.407  13.491
30919W        W92285  14.178  24.146  10.921
30920W        W92286   4.405  11.775   1.422
30921W        W92287  44.422   8.701   4.339
30922W        W92288  42.323   8.310  13.019
30923W        W92289  24.622  43.002  11.961
30924W        W92290  43.338   9.865   0.440
30925W        W92291  40.344  38.524  11.876
30926W        W92292  28.461  12.136   2.227
30927W        W92293   7.702  25.640   3.843
30928W        W92294   8.845  36.876  12.050
30929W        W92295   9.313  26.646  11.408
30930W        W92296  13.224  42.282   0.383
30931W        W92297  15.239  33.452  11.100
30932W        W92298  35.406  36.461  11.871
30933W        W92299  17.061   3.945   2.791
30934W        W92300  19.212   8.191  11.984
30935W        W92301   7.345  31.087  12.393
30936W        W92302  36.397   4.743   4.258
30937W        W92303  25.514   5.257  11.999
30938W        W92304   5.769  35.600  13.341
30939W        W92305   9.828  35.908   1.824
30940W        W92306   9.868  36.851  13.865
30941W        W92307   2.881  20.663  14.481
30942W        W92308  39.432  19.557  10.970
30943W        W92309   1.272  22.215   0.842
30944W        W92310   4.802  41.022  13.520
30945W        W92311  39.946   1.794   1.900
30946W        W92312   0.760  14.641   4.705
30947W        W92313  19.157  27.096   0.285
30948W        W92314  24.096  19.131  14.814
30949W        W92315   1.259  28.617   0.784
30950W        W92316   6.698  13.692  13.028
30951W        W92317  32.899  31.952  14.344
30952W        W92318  15.110  19.091   4.796
30953W        W92319  15.644  20.676   2.337
30954W        W92320  24.620  21.628   1.746
30955W        W92321  15.293  22.502   4.152
30956W        W92322  11.809   8.707   4.213
30957W        W92323  44.788  20.242   1.742
30958W        W92324  19.096  24.490   2.688
30959W        W92325  37.352   3.431   0.253
30960W        W92326   7.260  42.970  10.146
30961W        W92327  26.019  31.580  14.993
30962W        W92328  15.186  35.880  12.849
30963W        W92329  22.636  25.470   2.690
30964W        W92330  44.471  15.130   3.778
30965W        W92331  42.498  30.424  13.329
30966W        W92332  31.025  15.807   1.300
30967W        W92333   7.183  11.170   0.271
30968W        W92334   3.376  31.122   2.803
30969W        W92335   0.813  16.683  13.033
30970W        W92336  36.513   5.257   4.774
30971W        W92337  25.698  23.644  13.007
30972W        W92338  43.783  19.044   3.680
30973W        W92339  20.547  29.924  14.301
30974W        W92340   3.725  22.570   4.155
30975W        W92341   0.965   0.896  11.436
30976W        W92342  31.582   3.347  11.099
30977W        W92343  13.702  28.027  13.503
30978W        W92344   3.769   7.866  10.586
30979W        W92345   7.783  32.538  14.465
30980W        W92346  11.328  14.627   4.630
30981W        W92347   2.419  29.547  14.335
30982W        W92348  21.629  24.192  11.950
30983W        W92349   5.718  28.992  11.079
30984W        W92350  27.637  31.414   2.321
30985W        W92351  23.699  37.045   3.146
30986W        W92352   4.773  43.422   0.407
30987W        W92353  44.843   2.457   2.890
30988W        W92354  12.229  37.936   2.662
30989W        W92355   9.830  10.755   2.754
30990W        W92356  44.772  25.515  12.521
30991W        W92357  11.783  34.434   3.372
30992W        W92358   6.228  41.314   1.862
30993W        W92359  22.619  11.856   3.650
30994W        W92360  21.093  19.126   3.840
30995W        W92361  33.530  21.232  12.827
30996W        W92362  17.708  28.140   4.319
30997W        W92363  12.256  37.566  14.389
30998W        W92364  42.308  32.455   2.821
30999W        W92365  22.742  31.111   3.865
31000W        W92366  36.577   8.305   0.734
31001W        W92367  41.338  35.894  14.491
31002W        W92368  22.022   7.233  10.979
31003W        W92369   9.311  18.696   3.345
31004W        W92370  14.169  31.151  11.534
31005W        W92371   6.352  39.501  11.936
31006W        W92372  18.050   3.727  14.338
31007W        W92373  15.209  37.838   4.736
31008W        W92374   4.447   2.396   2.893
31009W        W92375  38.361  42.308   1.386
31010W        W92376   6.357   2.400   2.831
31011W        W92377  33.508  43.460   2.330
31012W        W92378   8.205  40.860   2.822
31013W        W92379  27.945   5.237  11.875
31014W        W92380  10.297  36.047  12.891
31015W        W92381   3.374   9.322  14.012
31016W        W92382  26.566  38.821  10.892
31017W        W92383  13.185   3.244  10.499
31018W        W92384  39.533  18.136   3.253
31019W        W92385  43.501   0.772   3.307
31020W        W92386  14.804  33.051   0.271
31021W        W92387   3.751  44.906  13.003
31022W        W92388  44.943   7.381  10.606
31023W        W92389  14.160  39.969  13.523
31024W        W92390  44.895  21.050   3.224
31025W        W92391  16.701  21.192   4.678
31026W        W92392   0.312  23.059  13.937
31027W        W92393   8.282   0.447   3.360
31028W        W92394  40.951  11.850  14.358
31029W        W92395  33.880  35.873  13.313
31030W        W92396  30.960  24.635  11.001
31031W        W92397  23.010  34.105  12.062
31032W        W92398  31.039   3.391  13.344
31033W        W92399  14.185   6.293   3.819
31034W        W92400  40.467  30.040  12.490
31035W        W92401  16.193   6.303  14.326
31036W        W92402  36.960   8.375  14.407
31037W        W92403  27.685  17.199  13.797
31038W        W92404  31.924  40.993  14.475
31039W        W92405   4.902  31.950  14.989
31040W        W92406  25.206  15.223   0.772
31041W        W92407   4.722   6.267   2.795
31042W        W92408  39.345  37.080   3.673
31043W        W92409   5.392   4.350  13.925
31044W        W92410  23.242  23.109  14.349
31045W        W92411  34.409  44.374   3.233
31046W        W92412  16.311  14.703  12.442
31047W        W92413  11.318  37.450  11.458
31048W        W92414  44.407  23.099  14.279
31049W        W92415  12.776  16.246  11.542
31050W        W92416   9.659  42.814   3.765
31051W        W92417  24.224  27.671   1.890
31052W        W92418   5.874   8.886  14.281
31053W        W92419   5.842  39.410  12.831
31054W        W92420  36.378   1.938   4.687
31055W        W92421   6.717  10.274   2.698
31056W        W92422  28.094  20.757  13.009
31057W        W92423  31.126  33.111   0.794
31058W        W92424  39.548  11.196   0.254
31059W        W92425  22.089  19.543  11.939
31060W        W92426  28.470  40.875   4.324
31061W        W92427  20.657  16.096   0.774
31062W        W92428  38.408  36.534  11.595
31063W        W92429  13.249   3.357  14.359
31064W        W92430  38.858  10.689   2.687
31065W        W92431  38.842  28.017   1.808
31066W        W92432   5.406   0.877  14.418
31067W        W92433  25.585  22.167   2.301
31068W        W92434  31.471   2.900  10.507
31069W        W92435  12.730   4.725   4.328
31070W        W92436   4.881  34.979  13.370
31071W        W92437  15.151   0.315  13.980
31072W        W92438   6.903  26.972  11.934
31073W        W92439  14.804  17.176   2.242
31074W        W92440  14.190   3.268   3.318
31075W        W92441  33.874   3.839  10.889
31076W        W92442  18.194  19.623  12.520
31077W        W92443  32.457  28.516  12.495
31078W        W92444  14.310  41.914   4.751
31079W        W92445  32.507   5.395   0.780
31080W        W92446  15.621   9.772   0.933
31081W        W92447  32.103  15.609   4.703
31082W        W92448  23.109   8.305  14.870
31083W        W92449  23.218   7.691  10.964
31084W        W92450  12.227  38.963   3.255
31085W        W92451  23.162  33.501   2.728
31086W        W92452  37.913  20.682   4.654
31087W        W92453  19.220  11.290   4.129
31088W        W92454   6.278  34.972   2.855
31089W        W92455   2.794  19.041   3.730
31090W        W92456  22.076  13.753  13.015
31091W        W92457  31.101  18.245  13.015
31092W        W92458   9.662  16.209  11.485
31093W        W92459  11.656  32.015   4.819
31094W        W92460  37.856   5.322  14.798
31095W        W92461  32.399  44.881   2.903
31096W        W92462  29.641  44.931   1.903
31097W        W92463  18.645   8.217  14.296
31098W        W92464  31.520  35.009  11.555
31099W        W92465  40.015   9.364  13.505
31100W        W92466   0.915  23.156  12.575
31101W        W92467   3.341  41.341   4.245
31102W        W92468  40.943  20.189  13.992
31103W        W92469   2.882  40.424  13.929
31104W        W92470   6.865  36.523   2.701
31105W        W92471   0.812  11.845   1.914
31106W        W92472  28.518  43.867  11.967
31107W        W92473  14.818  38.357   1.845
31108W        W92474  17.078  25.031   1.805
31109W        W92475  10.766   5.239   4.732
31110W        W92476  34.029   2.383   3.833
31111W        W92477  24.100  20.674   3.320
31112W        W92478   6.315  41.989   0.314
31113W        W92479  32.010  21.234  14.320
31114W        W92480  13.601  35.043   4.634
31115W        W92481  35.912  10.645  13.538
31116W        W92482  44.370   4.861   3.705
31117W        W92483  13.120  44.260   4.627
31118W        W92484  31.518  18.053  10.897
31119W        W92485  35.398  25.700  13.006
31120W        W92486  10.226  26.056  14.302
31121W        W92487  32.054  23.552   0.445
31122W        W92488   8.748  35.502  13.046
31123W        W92489   2.322  35.891   4.293
31124W        W92490  29.485  20.054   0.774
31125W        W92491  11.189  20.104  12.075
31126W        W92492   1.956   3.245  10.450
31127W        W92493   2.727  19.629  14.506
31128W        W92494  37.832  15.657  11.930
31129W        W92495  33.625  27.039   2.274
31130W        W92496  39.453  23.598   2.371
31131W        W92497  11.246   8.215  14.789
31132W        W92498  44.385  14.284  14.833
31133W        W92499  34.088  12.117   2.203
31134W        W92500   1.735  44.413   2.400
31135W        W92501  27.035  41.961  11.433
31136W        W92502   2.829  16.617   1.796
31137W        W92503  26.023  44.893  10.550
31138W        W92504   3.278  10.367   4.780
31139W        W92505  11.678  12.247   0.843
31140W        W92506  23.501  32.447   1.736
31141W        W92507  23.669  25.110   3.837
31142W        W92508  35.374   6.751   1.309
31143W        W92509  16.238  10.286  11.924
31144W        W92510  37.887  28.139  11.055
31145W        W92511  11.180  22.522  11.391
31146W        W92512   2.952   3.847   0.423
31147W        W92513  40.828  40.483  12.879
31148W        W92514  17.581  17.161   1.244
31149W        W92515   1.735  42.292   0.880
31150W        W92516  20.107   6.243  11.437
31151W        W92517  25.545  35.475   0.941
31152W        W92518  36.976  42.922  11.421
31153W        W92519  30.530  27.150   1.321
31154W        W92520  31.482   1.241   1.395
31155W        W92521  24.975  29.513  11.494
31156W        W92522  34.442  11.735  13.412
31157W        W92523  41.537  14.152   0.892
31158W        W92524  18.275  14.746   9.931
31159W        W92525  34.469  40.815  12.479
31160W        W92526  30.415   1.294  10.472
31161W        W92527  25.608  32.407  12.074
31162W        W92528  20.600  33.082   4.349
31163W        W92529   3.330  34.601  13.994
31164W        W92530   6.710  17.622  12.069
31165W        W92531   0.791  30.604   1.450
31166W        W92532  33.991  25.616  10.968
31167W        W92533  34.594  33.900  13.429
31168W        W92534  21.185  39.450  14.476
31169W        W92535  33.449   9.153   0.414
31170W        W92536  25.708   0.758   2.390
31171W        W92537  28.019   4.845  12.352
31172W        W92538  43.287  20.606  14.302
31173W        W92539  12.285   5.194   1.803
31174W        W92540  32.501  42.365  11.599
31175W        W92541   4.889  30.420   0.905
31176W        W92542  12.856   7.878   4.672
31177W        W92543  28.576  22.006   2.248
31178W        W92544  14.136  12.770   0.787
31179W        W92545  44.373   1.915   3.856
31180W        W92546   7.292  12.193  12.472
31181W        W92547  24.652  21.210  14.968
31182W        W92548  40.013   8.713   4.653
31183W        W92549  20.246   6.851  12.966
31184W        W92550  36.426  20.652   2.702
31185W        W92551  33.131   2.272  12.080
31186W        W92552  10.778  43.506   0.913
31187W        W92553   3.307  32.111  12.505
31188W        W92554  26.075  36.509   2.865
31189W        W92555  12.360  19.661   1.305
31190W        W92556  21.245  42.432   0.903
31191W        W92557  28.934   6.238   4.119
31192W        W92558  43.511  18.202  10.479
31193W        W92559   3.374   3.305  13.899
31194W        W92560  15.615   5.394   3.804
31195W        W92561  24.120  43.514  12.994
31196W        W92562  41.010  29.624   1.316
31197W        W92563  17.078  28.969  11.540
31198W        W92564  39.973  42.447  14.807
31199W        W92565  29.621   6.853   2.757
31200W        W92566   6.306  30.163   0.797
31201W        W92567  14.306   2.724   3.830
31202W        W92568   6.293  32.437   3.689
31203W        W92569   6.921   4.811  13.900
31204W        W92570  16.694  12.267   3.308
31205W        W92571   2.339  23.995   1.358
31206W        W92572   8.185   5.420   0.836
31207W        W92573  10.155  34.478  10.001
31208W        W92574  26.963  30.038  13.312
31209W        W92575  22.116  24.025  11.518
31210W        W92576   8.202  40.455   1.763
31211W        W92577  28.620   6.380   2.286
31212W        W92578   6.902   4.701  11.899
31213W        W92579  19.547  30.135  14.004
31214W        W92580  13.152  29.050  11.963
31215W        W92581  27.646  26.595  12.428
31216W        W92582  21.603  36.037   4.119
31217W        W92583   6.740  23.507   3.203
31218W        W92584   6.337  19.133  12.367
31219W        W92585  42.352  39.911  14.440
31220W        W92586  36.356  20.058   1.401
31221W        W92587  14.683  30.059   2.694
31222W        W92588  13.325  29.554  11.017
31223W        W92589  29.563   1.451  14.334
31224W        W92590   2.458  32.940   0.950
31225W        W92591   9.340  24.992   3.362
31226W        W92592   3.432  13.249   5.159
31227W        W92593  36.348  15.631   2.239
31228W        W92594  12.292  36.548  11.938
31229W        W92595  37.004  15.089   2.698
31230W        W92596   8.819  26.159  11.022
31231W        W92597  44.784  23.700   4.790
31232W        W92598  30.983  41.886  12.050
31233W        W92599  23.169  16.732  12.939
31234W        W92600   4.740  32.432   3.370
31235W        W92601  18.062  39.957  12.427
31236W        W92602   6.818   1.761  12.874
31237W        W92603   4.387  40.977   3.259
31238W        W92604  34.884  20.535  13.470
31239W        W92605  34.882   8.308  14.831
31240W        W92606  42.987  43.839   3.662
31241W        W92607  23.180  42.350  14.285
31242W        W92608   7.368  36.052   1.335
31243W        W92609  12.778   4.246  14.903
31244W        W92610  34.989  35.943  13.046
31245W        W92611   4.416  20.601  12.361
31246W        W92612  30.920  12.646   1.273
31247W        W92613   7.848  15.678  13.796
31248W        W92614   5.911  12.827   2.225
31249W        W92615  12.345   4.833  13.965
31250W        W92616   0.914  10.376  14.798
31251W        W92617  30.565   4.438  12.440
31252W        W92618  33.007  21.077   0.336
31253W        W92619   3.720  17.799   0.437
31254W        W92620  13.222  41.355  12.462
31255W        W92621  25.679  34.518  10.948
31256W        W92622  23.728  17.074  13.904
31257W        W92623  23.002  30.097  14.288
31258W        W92624  38.462  40.396   3.642
31259W        W92625   8.344  11.318  13.339
31260W        W92626  28.469  24.099  10.984
31261W        W92627  31.136  38.564   0.421
31262W        W92628  38.958  40.994  10.449
31263W        W92629  38.354  21.129  13.443
31264W        W92630  28.975  23.132  11.870
31265W        W92631   0.754  23.673   4.766
31266W        W92632  13.132  43.938   4.290
31267W        W92633  22.514  19.152   4.633
31268W        W92634   3.250  24.046  13.392
31269W        W92635  15.197  10.703  11.020
31270W        W92636   1.820  20.621   3.213
31271W        W92637  34.094  37.872  14.866
31272W        W92638   9.859  11.222   4.187
31273W        W92639  42.832  43.392   0.347
31274W        W92640   2.229  35.389  13.457
31275W        W92641  43.823  18.273  11.111
31276W        W92642  19.576  29.668   5.233
31277W        W92643  10.275  19.153  12.407
31278W        W92644   5.778   5.734   5.782
31279W        W92645  11.750  11.168  14.009
31280W        W92646  40.958  14.123   1.708
31281W        W92647   4.429  26.559  13.437
31282W        W92648  28.003   7.338   0.274
31283W        W92649  12.781   0.961   4.181
31284W        W92650  44.798   4.939  11.605
31285W        W92651  33.967  29.034   3.842
31286W        W92652  39.039   3.927  12.413
31287W        W92653   6.785   7.830  14.869
31288W        W92654  22.573  40.427  14.513
31289W        W92655  10.683   2.747  10.555
31290W        W92656  38.843   4.305   4.834
31291W        W92657  44.388  26.060   1.767
31292W        W92658  35.897  43.482   0.907
31293W        W92659   1.345  20.260  10.973
31294W        W92660  32.485   3.747   4.195
31295W        W92661   8.401   1.439   4.801
31296W        W92662  41.315  14.798   3.305
31297W        W92663  14.721  38.525  12.012
31298W        W92664  12.795  28.455  12.525
31299W        W92665   5.300  27.621   3.217
31300W        W92666  36.036  11.842   1.287
31301W        W92667  28.680  27.657   0.890
31302W        W92668  33.438  35.963  10.498
31303W        W92669   0.265  23.523  10.900
31304W        W92670  22.207  30.443   0.291
31305W        W92671  19.043  25.040  13.408
31306W        W92672   4.415  31.530   3.336
31307W        W92673  17.065  40.483   3.767
31308W        W92674  19.673  19.771   4.207
31309W        W92675  34.385  39.945   4.660
31310W        W92676  10.159  29.047   1.782
31311W        W92677  29.663  21.611   2.409
31312W        W92678  36.441  34.930  10.133
31313W        W92679  39.820   2.443  12.366
31314W        W92680   9.185  39.552   0.440
31315W        W92681  11.849  25.988   1.305
31316W        W92682  15.709  13.661   4.682
31317W        W92683   8.221  34.531  12.574
31318W        W92684  30.053  18.099  14.349
31319W        W92685   3.847  31.918  13.473
31320W        W92686  16.683  36.460  12.487
31321W        W92687  17.234  24.199   2.719
31322W        W92688  17.798  43.330   4.785
31323W        W92689  42.793  37.402  14.418
31324W        W92690   1.780   8.232  12.889
31325W        W92691  35.386  33.549   4.640
31326W        W92692  31.510  29.423  13.004
31327W        W92693  34.403  32.541  12.373
31328W        W92694  38.384  37.834  12.569
31329W        W92695  37.888   4.763   1.294
31330W        W92696  40.945  12.759   0.376
31331W        W92697  32.992  22.016  10.494
31332W        W92698   0.905   7.267  13.355
31333W        W92699  29.665  39.885   4.222
31334W        W92700   5.203  19.156   5.102
31335W        W92701  27.084  16.576   1.368
31336W        W92702  33.388   2.884  10.624
31337W        W92703  31.623  29.470   2.357
31338W        W92704  17.179  15.623   9.986
31339W        W92705   6.415  10.849  11.405
31340W        W92706  43.429  36.982  12.401
31341W        W92707   2.307  26.628  12.094
31342W        W92708  22.506  31.114   3.304
31343W        W92709  28.610  32.954  13.468
31344W        W92710   0.754  39.341  13.506
31345W        W92711  32.538   8.305  13.463
31346W        W92712  35.051  31.898  10.019
31347W        W92713  25.177  35.977   0.781
31348W        W92714  12.631  13.157   0.247
31349W        W92715   0.361  19.075   1.308
31350W        W92716  21.208  16.616   2.723
31351W        W92717  17.678   0.471  10.522
31352W        W92718  31.069  42.517  14.812
31353W        W92719  27.968  32.404   2.217
31354W        W92720  44.957   4.699  12.093
31355W        W92721  27.971  32.478   1.777
31356W        W92722  29.481   9.802   3.656
31357W        W92723  28.496  26.594   4.299
31358W        W92724  25.216   2.857  14.823
31359W        W92725  44.490  34.998   4.177
31360W        W92726  31.537  21.029   0.460
31361W        W92727   0.462  20.228  10.468
31362W        W92728  21.662   0.393   3.709
31363W        W92729  26.603  32.980   2.216
31364W        W92730   4.215  12.788  13.533
31365W        W92731  16.266  33.110  11.982
31366W        W92732  35.433  32.931  11.374
31367W        W92733  36.491  21.614   0.924
31368W        W92734   2.327  38.863  12.018
31369W        W92735  40.312  30.022   3.800
31370W        W92736   5.276  25.691  12.540
31371W        W92737  20.754  15.257  13.925
31372W        W92738   8.882  22.082  12.427
31373W        W92739  44.383   2.934  10.543
31374W        W92740  11.783   2.363   5.091
31375W        W92741  13.692   6.809   2.753
31376W        W92742   0.917  20.104   0.838
31377W        W92743   0.862  35.436   1.392
31378W        W92744  15.090  42.953  13.472
31379W        W92745  44.332  36.513   3.244
31380W        W92746  29.655  15.098   2.335
31381W        W92747  36.058  16.643   3.770
31382W        W92748  40.001  43.806  12.081
31383W        W92749   8.219  38.053   2.336
31384W        W92750  40.415  12.266   2.412
31385W        W92751  22.091  33.572  11.091
31386W        W92752  41.866  31.506   0.377
31387W        W92753  16.648  24.126   1.364
31388W        W92754  43.956   8.737  11.493
31389W        W92755  15.173  27.668  14.883
31390W        W92756   5.359   0.285   2.727
31391W        W92757  38.994  16.683   2.354
31392W        W92758  18.646  24.029  11.458
31393W        W92759  16.605   8.213   0.276
31394W        W92760  22.541   8.852  12.888
31395W        W92761  12.771  38.376   3.152
31396W        W92762  31.605   5.810  14.767
31397W        W92763  44.921  38.948   2.736
31398W        W92764  11.644  20.725  13.006
31399W        W92765   2.939  23.017  10.510
31400W        W92766  35.561  43.938  14.811
31401W        W92767  17.114  39.880   0.960
31402W        W92768  44.835  27.602  12.367
31403W        W92769  10.773  33.883  12.517
31404W        W92770  16.132   0.311   2.849
31405W        W92771   2.899  17.658   2.859
31406W        W92772  15.671  24.031   1.277
31407W        W92773  28.173  40.519   2.354
31408W        W92774  21.736  14.099   1.730
31409W        W92775  25.150  38.974   2.894
31410W        W92776  27.087  14.667   3.740
31411W        W92777  44.870  16.706  12.513
31412W        W92778  18.757  17.702   2.398
31413W        W92779   7.786  11.715   4.295
31414W        W92780  13.286   4.786  12.086
31415W        W92781  25.514   5.307   4.205
31416W        W92782  42.322  33.969   0.248
31417W        W92783  19.122  44.954  10.990
31418W        W92784  32.995  31.920  11.551
31419W        W92785  35.869   9.877   1.298
31420W        W92786  31.506   9.773  14.792
31421W        W92787  39.992   8.368  10.491
31422W        W92788  34.433  17.605   0.940
31423W        W92789  40.405  41.829  10.410
31424W        W92790   0.328  32.947   0.337
31425W        W92791   4.206   7.858   3.761
31426W        W92792  18.088  41.038  10.450
31427W        W92793  29.155  40.836  12.093
31428W        W92794   8.344  40.892   1.697
31429W        W92795  35.004  21.191  14.990
31430W        W92796  20.735  12.755  10.973
31431W        W92797  31.064   9.157  12.442
31432W        W92798  24.639  14.832   1.389
31433W        W92799  15.145  34.497  14.843
31434W        W92800   5.827  38.469   2.285
31435W        W92801  13.624  13.723   2.883
31436W        W92802   2.309  42.006   3.823
31437W        W92803  40.868  10.213  14.009
31438W        W92804  15.149  27.177  12.954
31439W        W92805  32.911   4.888  13.453
31440W        W92806  43.788  41.461   3.201
31441W        W92807  14.623  26.958  12.394
31442W        W92808   3.873  12.261   2.359
31443W        W92809  27.183   2.862   4.734
31444W        W92810  38.528  10.708   3.168
31445W        W92811  41.374  23.609  13.053
31446W        W92812  32.081  24.058   5.188
31447W        W92813   0.394  39.483  14.979
31448W        W92814   4.378  31.997   3.703
31449W        W92815  33.565  41.337  12.084
31450W        W92816  43.020  14.723   4.634
31451W        W92817  44.005  14.770  11.427
31452W        W92818   9.832  37.936   4.350
31453W        W92819  14.170  25.029   4.245
31454W        W92820  26.116  21.574   3.747
31455W        W92821   9.367  24.723   2.710
31456W        W92822   1.452   2.316  12.064
31457W        W92823  44.966  32.965   1.260
31458W        W92824  43.360   8.245  14.371
31459W        W92825  40.023  44.883  10.475
31460W        W92826  20.644  26.117   1.406
31461W        W92827  43.869  10.210  12.836
31462W        W92828  36.982  15.805  14.292
31463W        W92829  13.270   5.731  10.971
31464W        W92830  31.453   4.763   3.718
31465W        W92831  34.003  25.067  12.942
31466W        W92832  37.962  28.159   2.255
31467W        W92833  13.155  40.481   2.684
31468W        W92834   8.315  37.525   4.639
31469W        W92835   2.424  41.421   3.852
31470W        W92836  19.045  39.955   0.733
31471W        W92837  18.215  37.391   4.221
31472W        W92838  12.136  28.478  13.483
31473W        W92839   1.853  35.975  11.599
31474W        W92840  26.201   7.355  11.413
31475W        W92841  38.466  28.157  10.417
31476W        W92842  25.987  14.778   4.180
31477W        W92843   3.421  42.456  12.057
31478W        W92844  35.466  16.785   2.727
31479W        W92845   1.795  44.776   0.744
31480W        W92846  26.010  42.866  11.949
31481W        W92847   3.426  34.590  12.948
31482W        W92848  24.551  26.498  11.957
31483W        W92849   0.908   5.920   4.286
31484W        W92850  24.525  24.978   3.869
31485W        W92851  44.850  13.175   1.225
31486W        W92852  27.065   6.843   2.274
31487W        W92853  27.123  31.975  14.434
31488W        W92854  29.161  30.052  12.859
31489W        W92855  31.136   8.811  14.796
31490W        W92856  41.430  43.998  14.010
31491W        W92857  24.122  18.791  12.403
31492W        W92858  24.611  18.096   4.767
31493W        W92859  35.394   2.350  12.469
31494W        W92860   6.372   2.323  12.474
31495W        W92861  25.148  32.573  13.353
31496W        W92862  43.488  38.892  13.860
31497W        W92863   7.257  29.116   0.336
31498W        W92864  19.606   2.966  14.000
31499W        W92865  18.176  35.862   4.679
31500W        W92866  39.369  30.972  13.351
31501W        W92867   9.155   5.891  12.041
31502W        W92868  22.223  41.537  13.877
31503W        W92869   6.739  15.104  13.965
31504W        W92870  21.523  42.895  10.637
31505W        W92871  20.580  21.741  13.870
31506W        W92872   5.739  15.823   5.209
31507W        W92873  15.634  21.693  13.878
31508W        W92874   6.386  41.400   1.343
31509W        W92875  21.754  41.019  13.313
31510W        W92876  24.062  19.221   2.191
31511W        W92877  17.629  11.698   4.323
31512W        W92878  17.083  42.458  11.444
31513W        W92879  19.211  39.454   4.798
31514W        W92880  22.658  42.904   0.855
31515W        W92881  17.692  23.730   1.383
31516W        W92882  28.984  39.862  14.393
31517W        W92883   2.340  36.381  12.997
31518W        W92884  29.014  35.430   2.194
31519W        W92885  30.496  44.303   0.877
31520W        W92886  43.823   3.407  12.416
31521W        W92887  29.645  42.284  11.868
31522W        W92888  22.230  10.313   3.155
31523W        W92889  24.145  16.240   3.833
31524W        W92890  32.521  39.330   4.302
31525W        W92891  29.427  26.046  11.882
31526W        W92892  39.844  44.855   0.783
31527W        W92893  16.245   4.888  12.396
31528W        W92894  38.858  26.001   1.740
31529W        W92895  19.191   4.847  12.004
31530W        W92896  24.665  41.345  12.049
31531W        W92897  12.338  29.952  13.058
31532W        W92898  24.597  11.196   1.808
31533W        W92899  11.157   3.407   4.349
31534W        W92900  14.799  39.059   0.405
31535W        W92901  22.597  18.177  11.961
31536W        W92902  26.680  12.766  13.793
31537W        W92903  43.511   2.378   0.258
31538W        W92904  29.064   7.288   2.314
31539W        W92905  30.955  26.975   2.808
31540W        W92906  15.723  12.759  12.983
31541W        W92907  19.090  27.149  13.487
31542W        W92908  10.380  42.999   3.243
31543W        W92909  36.456   3.747   3.335
31544W        W92910  32.039   0.903   0.246
31545W        W92911  43.389  13.654  13.994
31546W        W92912  18.768  35.439   3.326
31547W        W92913   0.801  26.130   2.667
31548W        W92914  23.241  25.194  13.388
31549W        W92915  28.950   1.741  14.761
31550W        W92916   9.149  24.561   4.155
31551W        W92917  41.927   9.765  14.876
31552W        W92918  28.134  39.921   5.092
31553W        W92919  28.463  18.757   1.433
31554W        W92920  34.034  43.981   2.258
31555W        W92921  42.432  13.834  12.477
31556W        W92922  29.047  43.807  12.066
31557W        W92923  23.635  29.963  14.365
31558W        W92924  36.875  23.585  10.560
31559W        W92925   2.444  17.689  13.512
31560W        W92926   4.745  39.837   1.897
31561W        W92927   5.836  11.156  14.762
31562W        W92928  37.940  22.098   4.227
31563W        W92929  29.639  15.600   0.766
31564W        W92930  41.317  19.743   0.439
31565W        W92931   8.717  14.693  11.895
31566W        W92932   5.831  43.292  10.897
31567W        W92933  32.511  10.736  12.973
31568W        W92934  26.639  33.479  11.973
31569W        W92935  19.601  30.649   2.360
31570W        W92936  10.159  40.028  12.069
31571W        W92937   9.268  22.176  12.041
31572W        W92938  20.162  21.240   2.224
31573W        W92939  38.382  30.107   3.850
31574W        W92940  22.248  43.407   4.802
31575W        W92941  27.465   5.926   1.781
31576W        W92942  21.592   8.863  12.463
31577W        W92943  27.121  23.625   3.665
31578W        W92944  13.149  42.971  11.950
31579W        W92945  35.597  25.203  11.994
31580W        W92946  22.521  14.733   1.881
31581W        W92947  36.536  30.594  12.980
31582W        W92948  25.014  34.885  13.348
31583W        W92949  19.166  24.616   0.887
31584W        W92950   7.299  22.512  14.446
31585W        W92951  41.425   9.202  12.534
31586W        W92952  38.902   5.210  10.016
31587W        W92953  37.510  33.101   4.145
31588W        W92954  23.701  13.344  14.405
31589W        W92955  21.672  41.446  11.955
31590W        W92956  14.820  19.187   3.825
31591W        W92957  31.551  36.534  13.015
31592W        W92958   3.417   8.200   4.146
31593W        W92959  40.880  26.045   2.335
31594W        W92960  24.573  38.054  13.849
31595W        W92961  40.842  29.962   0.317
31596W        W92962  39.358  12.191   4.149
31597W        W92963  34.565  19.567  14.429
31598W        W92964  40.330  36.895   4.654
31599W        W92965  20.563  28.483  12.841
31600W        W92966  28.032  29.030  12.929
31601W        W92967  35.469   6.300   2.276
31602W        W92968  15.677  43.766  13.985
31603W        W92969  12.657   6.701  12.010
31604W        W92970   1.245   3.448  14.004
31605W        W92971   3.791  19.168   0.355
31606W        W92972  32.889  41.839   1.816
31607W        W92973  37.398   1.966  11.515
31608W        W92974  18.649  11.131  11.578
31609W        W92975   3.417  17.078  12.073
31610W        W92976  10.242  38.921   1.859
31611W        W92977   4.798   9.764  13.849
31612W        W92978  43.423   7.806   3.677
31613W        W92979  42.296   2.728  12.907
31614W        W92980  17.579  42.507   4.239
31615W        W92981  34.064  28.165   0.448
31616W        W92982  17.096  14.708  13.020
31617W        W92983  30.496  22.165   5.307
31618W        W92984   2.292  36.099  12.527
31619W        W92985  31.144  41.869  14.489
31620W        W92986  22.731   6.753  11.533
31621W        W92987   5.823  40.947  14.806
31622W        W92988  22.667  22.251   0.394
31623W        W92989   5.844  26.678   3.163
31624W        W92990   5.811   9.883   0.343
31625W        W92991   4.719   6.890   5.579
31626W        W92992  31.907  21.116  14.023
31627W        W92993  20.603  21.696   2.380
31628W        W92994  26.474  35.588  11.921
31629W        W92995  25.674   7.803  12.934
31630W        W92996  13.345  36.847  14.429
31631W        W92997  28.664  35.859   2.232
31632W        W92998  26.971  13.623  14.295
31633W        W92999  22.745   2.961  12.971
31634W        W93000   2.778  11.142   3.812
31635W        W93001  36.869  34.080   0.451
31636W        W93002  22.718   2.941  14.911
31637W        W93003  33.463   3.916  10.914
31638W        W93004   9.768   0.833  11.949
31639W        W93005   5.319  17.568   3.333
31640W        W93006  31.513  43.479   4.805
31641W        W93007  25.006  33.936  11.126
31642W        W93008   6.874  22.140  14.482
31643W        W93009  13.114   8.874  11.923
31644W        W93010  37.067  39.888   3.823
31645W        W93011  34.994   7.244   4.338
31646W        W93012  41.339   9.293   1.712
31647W        W93013   3.823  37.526   0.392
31648W        W93014  21.643  16.174  14.979
31649W        W93015   6.201   9.202  10.450
31650W        W93016  23.984  34.388  12.367
31651W        W93017  28.544  40.951  13.012
31652W        W93018  37.356  32.619  10.601
31653W        W93019   1.263  13.711  14.993
31654W        W93020  33.981  15.715   2.714
31655W        W93021   5.314  26.659  11.476
31656W        W93022  15.195  30.984  11.527
31657W        W93023  14.135   0.424   0.316
31658W        W93024   7.367  13.139  12.466
31659W        W93025  39.062   4.918   0.309
31660W        W93026  19.678   7.286   3.147
31661W        W93027  18.791  25.209   0.748
31662W        W93028  13.170  20.178   2.234
31663W        W93029  12.633   0.978   1.784
31664W        W93030  37.510  42.386  10.152
31665W        W93031   1.366  29.493  14.006
31666W        W93032  33.919  29.445  12.390
31667W        W93033   7.389  17.557  12.833
31668W        W93034  41.857   1.860  10.564
31669W        W93035   9.300  42.030  12.378
31670W        W93036  10.198   5.713   4.726
31671W        W93037  43.344  11.310   0.853
31672W        W93038   5.251   6.889  12.938
31673W        W93039  34.966  18.688   3.310
31674W        W93040  41.984  14.593   2.719
31675W        W93041  19.257  19.138  14.287
31676W        W93042  13.732   2.813   1.216
31677W        W93043   4.439   5.721   2.761
31678W        W93044   5.932  28.149  11.552
31679W        W93045   6.407  15.177   1.245
31680W        W93046   1.317  19.546   3.724
31681W        W93047  30.480  10.249   4.279
31682W        W93048   0.910   5.319  13.058
31683W        W93049   6.874   7.818   5.122
31684W        W93050  17.605  36.523  10.938
31685W        W93051   1.837  32.980   4.145
31686W        W93052   1.779  33.379   0.853
31687W        W93053  34.523  15.813   2.750
31688W        W93054  38.075  21.070  14.998
31689W        W93055  18.572  13.624  10.131
31690W        W93056  30.991  40.307   5.283
31691W        W93057  20.261  30.541   0.852
31692W        W93058  17.289  25.669   4.297
31693W        W93059  40.843  26.678   0.804
31694W        W93060  22.544  29.026  14.973
31695W        W93061  10.192  11.252  14.767
31696W        W93062   6.725  23.217   4.704
31697W        W93063   8.219  43.779  13.507
31698W        W93064  36.441  18.270  14.776
31699W        W93065   3.260  43.902  14.013
31700W        W93066  13.663   1.835  14.437
31701W        W93067   8.834   6.268  13.533
31702W        W93068  26.528  14.589   3.351
31703W        W93069  43.367   0.394  14.336
31704W        W93070  11.301  43.402   1.898
31705W        W93071  36.357   0.393  14.853
31706W        W93072  12.821  30.643  10.997
31707W        W93073  28.538  41.811  14.456
31708W        W93074  24.661  33.886  10.070
31709W        W93075  43.288  31.639   3.676
31710W        W93076  43.893  14.271  12.900
31711W        W93077   5.217  22.199   0.806
31712W        W93078  40.867  37.398  13.512
31713W        W93079  34.068   3.358  12.514
31714W        W93080  31.986  44.368   4.333
31715W        W93081   9.250   4.238   1.782
31716W        W93082  36.843   2.775  11.095
31717W        W93083  23.601   2.418   4.354
31718W        W93084  12.703  28.041   3.817
31719W        W93085   4.384  24.583  14.366
31720W        W93086  20.033   8.773   1.747
31721W        W93087   9.164  14.098   3.355
31722W        W93088  35.584  23.019  13.850
31723W        W93089  21.597  25.487  11.555
31724W        W93090  17.260  24.162  14.765
31725W        W93091  31.436   6.199  13.444
31726W        W93092   4.707  20.174   4.763
31727W        W93093  10.831  43.926  12.058
31728W        W93094  36.025  35.013   0.293
31729W        W93095  33.470  39.923  12.011
31730W        W93096  44.429   5.261  14.913
31731W        W93097  27.507  30.999  11.524
31732W        W93098  20.039  33.944  13.331
31733W        W93099  37.892  11.298   4.662
31734W        W93100  33.897  38.028   2.254
31735W        W93101   5.741   3.454  13.393
31736W        W93102  32.462   1.917   5.106
31737W        W93103  40.868  26.637  11.459
31738W        W93104  28.678  33.923   4.197
31739W        W93105  17.788   2.294   0.316
31740W        W93106   8.838  20.125  13.852
31741W        W93107  37.960   0.312  11.466
31742W        W93108  17.661  41.912  11.406
31743W        W93109   2.271  28.655   3.172
31744W        W93110  13.768  32.576  12.904
31745W        W93111  27.147   9.861   2.666
31746W        W93112  44.899  32.978   4.763
31747W        W93113  20.705  32.477   3.165
31748W        W93114  25.135  26.960   3.199
31749W        W93115  12.219  19.125  13.402
31750W        W93116  18.172  21.686  12.374
31751W        W93117   4.820  34.001  11.010
31752W        W93118   6.731  13.814   3.854
31753W        W93119  22.180   4.876  14.922
31754W        W93120   5.699  13.182   1.839
31755W        W93121  43.319  37.023  14.300
31756W        W93122  15.780  22.217  13.360
31757W        W93123  13.106  40.489  11.386
31758W        W93124  27.477  11.723   1.377
31759W        W93125  41.403   1.735  12.913
31760W        W93126  23.543  29.074   1.417
31761W        W93127   7.883  11.828   3.743
31762W        W93128  26.204  31.920   4.228
31763W        W93129  17.146   6.698  13.864
31764W        W93130  37.920  13.293  14.424
31765W        W93131  41.015  34.390   1.291
31766W        W93132  35.972   2.759   1.827
31767W        W93133  31.599  11.309   1.833
31768W        W93134  41.352  17.136   0.280
31769W        W93135  20.734  14.096  12.520
31770W        W93136  35.389  26.131  11.457
31771W        W93137  44.937   8.213  13.529
31772W        W93138   5.863  34.950   2.249
31773W        W93139  23.189   6.758   2.749
31774W        W93140  29.531  42.314  11.564
31775W        W93141  18.088   7.407   3.782
31776W        W93142   8.377   7.896   0.830
31777W        W93143   3.294  35.906   4.280
31778W        W93144  28.055  42.417  10.908
31779W        W93145  16.591  35.460   1.783
31780W        W93146   5.410  14.109   3.355
31781W        W93147  26.512  42.859   1.361
31782W        W93148  23.633  20.253  10.596
31783W        W93149  23.172   1.765   5.299
31784W        W93150   8.889  24.104   5.234
31785W        W93151  22.716  40.304   1.935
31786W        W93152  28.470   0.362   1.302
31787W        W93153   8.162  13.730   1.719
31788W        W93154  33.432  32.032  11.459
31789W        W93155  25.568  33.390   4.194
31790W        W93156  10.311  37.453   0.943
31791W        W93157  35.906  43.491  11.994
31792W        W93158  27.562  15.299   4.707
31793W        W93159   7.244  33.951   3.159
31794W        W93160  12.355  34.882  13.342
31795W        W93161   6.335  14.642   5.090
31796W        W93162  43.826  13.124   1.839
31797W        W93163  21.576  25.506  13.339
31798W        W93164  14.788   8.214  11.410
31799W        W93165  37.444  21.099  11.118
31800W        W93166  40.315  22.069  12.488
31801W        W93167  24.718  30.043  12.020
31802W        W93168   4.297  40.387  12.551
31803W        W93169  34.447  19.592   0.860
31804W        W93170   8.229  16.800  14.769
31805W        W93171  26.162  33.541   3.181
31806W        W93172   1.917  14.331  13.413
31807W        W93173  18.112   5.424  11.550
31808W        W93174   9.167  31.063  13.971
31809W        W93175  25.207   1.801   1.293
31810W        W93176  29.642  14.679   3.158
31811W        W93177  11.650  31.526  11.468
31812W        W93178  36.855  34.423  11.921
31813W        W93179  12.658  19.096   1.418
31814W        W93180  36.564  14.178  11.098
31815W        W93181  43.310   8.812  10.121
31816W        W93182   2.821  24.181   3.205
31817W        W93183  34.391  31.992   0.815
31818W        W93184   4.448   1.297  10.467
31819W        W93185  35.497  38.950  12.553
31820W        W93186  43.401  10.786  13.914
31821W        W93187   0.952  16.290  11.111
31822W        W93188   7.705  29.052  10.887
31823W        W93189   7.403  39.888  14.300
31824W        W93190  36.941  24.058  12.044
31825W        W93191  32.981  20.070   0.245
31826W        W93192   8.196  34.887  12.375
31827W        W93193  39.811  20.210  14.420
31828W        W93194  30.644  25.210   2.317
31829W        W93195  42.808  22.151   4.619
31830W        W93196  26.656  18.224   3.359
31831W        W93197  28.642  27.109   3.664
31832W        W93198  38.928  20.272  11.970
31833W        W93199  36.384  32.097   3.844
31834W        W93200  34.543  39.392   0.842
31835W        W93201  38.422  35.081  14.026
31836W        W93202  38.842  42.015  14.448
31837W        W93203   2.740  19.252  12.367
31838W        W93204   6.414  19.719   1.844
31839W        W93205  31.991  26.044  13.320
31840W        W93206  44.977   9.269   3.733
31841W        W93207  23.049  26.522  13.498
31842W        W93208   7.330  24.217   1.863
31843W        W93209  43.904   3.325  14.950
31844W        W93210  24.653  19.101   0.408
31845W        W93211  23.619  22.232   3.788
31846W        W93212  17.739  38.527   3.797
31847W        W93213  11.813  13.287  10.107
31848W        W93214  29.427   2.331  13.511
31849W        W93215   0.331  40.341  13.963
31850W        W93216  22.128  21.201  12.374
31851W        W93217  11.303  40.393  10.496
31852W        W93218   9.685  38.509  10.409
31853W        W93219  21.660  35.588  10.426
31854W        W93220  26.578  24.480  14.404
31855W        W93221   0.393  27.085   4.765
31856W        W93222  18.661  20.614  11.515
31857W        W93223   2.309   5.900   1.317
31858W        W93224   9.369   3.308  11.009
31859W        W93225  20.648  29.107  11.455
31860W        W93226  19.627  24.206   5.134
31861W        W93227  29.983   0.274  13.381
31862W        W93228  20.086  35.548   2.859
31863W        W93229   5.717  33.120   2.283
31864W        W93230  13.611  41.816   4.227
31865W        W93231  26.639  18.104   1.855
31866W        W93232  27.034  11.760  11.516
31867W        W93233   2.861  13.697   2.777
31868W        W93234  17.744  13.662  12.462
31869W        W93235  33.406  30.965   4.720
31870W        W93236  20.153  16.167   4.811
31871W        W93237  29.571   8.203   0.778
31872W        W93238  37.952  26.129  12.941
31873W        W93239   0.449  38.875   3.203
31874W        W93240  13.111   1.245  14.977
31875W        W93241   1.734  28.612   0.789
31876W        W93242   9.732  26.607  12.484
31877W        W93243   3.416  22.605   1.339
31878W        W93244   7.904  27.065   2.286
31879W        W93245   8.343  40.857   4.799
31880W        W93246   2.301  40.450   5.280
31881W        W93247  15.797  19.659  14.441
31882W        W93248  37.387  19.244  11.060
31883W        W93249   9.294  18.170   1.313
31884W        W93250  43.290   1.746   4.769
31885W        W93251  37.073  32.525  10.480
31886W        W93252   1.940  44.465  11.383
31887W        W93253  30.120  12.672  13.008
31888W        W93254  41.449  16.186   4.175
31889W        W93255  22.581  29.444   0.729
31890W        W93256   4.726   5.766  11.611
31891W        W93257   6.350  16.140  11.513
31892W        W93258  19.150  33.131   1.415
31893W        W93259   1.864  40.407  11.475
31894W        W93260  11.281  14.238  14.360
31895W        W93261   2.923  32.482   0.255
31896W        W93262   6.842  25.108   4.153
31897W        W93263   6.384  39.488   3.833
31898W        W93264  13.244  43.351   3.172
31899W        W93265  37.368  41.367   2.242
31900W        W93266  30.120  40.935  12.997
31901W        W93267  20.621  14.596   2.271
31902W        W93268   0.424  40.906   0.952
31903W        W93269  21.212  33.547  11.598
31904W        W93270   2.824  14.234   2.346
31905W        W93271   2.878  33.002  13.850
31906W        W93272  12.814  35.984  13.421
31907W        W93273  10.768  42.448   1.910
31908W        W93274  40.380  22.186  11.951
31909W        W93275   4.750  24.575  14.415
31910W        W93276  18.684  13.164  10.969
31911W        W93277  14.717  30.085  14.465
31912W        W93278  19.096  37.468  10.916
31913W        W93279   4.902  39.837   0.781
31914W        W93280  32.390  10.142  13.843
31915W        W93281   5.928  14.215  14.857
31916W        W93282  17.558  11.719   0.377
31917W        W93283  24.036  30.995  14.341
31918W        W93284  40.526   8.342  12.933
31919W        W93285  35.582  39.361  10.028
31920W        W93286  21.629  13.121   0.472
31921W        W93287   4.294  15.276  14.816
31922W        W93288  36.472  39.558   1.227
31923W        W93289  36.593  16.220  12.431
31924W        W93290   8.769  21.523  11.966
31925W        W93291  29.926  41.439  10.606
31926W        W93292  38.469  43.460   3.322
31927W        W93293  27.581  25.516  11.386
31928W        W93294   5.324   1.870  13.963
31929W        W93295  10.734  38.999  13.922
31930W        W93296  28.488  42.944  12.075
31931W        W93297  18.239  39.882   4.715
31932W        W93298   3.777  22.537   1.813
31933W        W93299  38.416   3.857  11.015
31934W        W93300   4.271  19.664   0.260
31935W        W93301  15.323  24.720  11.007
31936W        W93302  11.361   4.790  14.322
31937W        W93303  16.219  40.422  14.910
31938W        W93304  41.334  16.747   1.385
31939W        W93305  13.671  16.188  13.828
31940W        W93306  38.445  28.100   0.439
31941W        W93307   7.789   9.689   4.707
31942W        W93308  29.938  33.417  13.389
31943W        W93309  27.120  42.942   3.672
31944W        W93310  15.244  22.552   3.281
31945W        W93311  29.620  42.337   1.444
31946W        W93312   5.756  26.988  12.365
31947W        W93313  14.609  43.793  14.828
31948W        W93314   1.747  16.784   2.336
31949W        W93315  42.030   1.818  12.353
31950W        W93316  36.554  39.560   4.268
31951W        W93317  17.127   6.356   0.265
31952W        W93318  36.041   3.379   3.278
31953W        W93319  36.503  15.633   0.762
31954W        W93320  11.148  31.602   1.216
31955W        W93321  30.461  13.247  10.905
31956W        W93322  20.700   0.959  14.408
31957W        W93323  17.731  33.969  14.279
31958W        W93324   6.414  17.753  13.422
31959W        W93325  17.669   0.866   2.792
31960W        W93326   6.753  34.990   3.733
31961W        W93327  12.805  43.983  10.959
31962W        W93328  44.309  25.501   2.370
31963W        W93329  44.405  24.973   0.333
31964W        W93330  16.676  17.582   5.206
31965W        W93331   1.868  17.756  14.329
31966W        W93332  10.297  30.552  10.018
31967W        W93333  16.270   1.925  12.008
31968W        W93334  38.820   6.751   3.820
31969W        W93335  19.209   3.297  10.643
31970W        W93336  34.512  34.901  13.031
31971W        W93337  23.609   9.844  10.454
31972W        W93338  38.439  16.194   3.743
31973W        W93339  20.101  11.155   0.757
31974W        W93340  11.812  29.667  11.565
31975W        W93341  19.163   0.882  12.566
31976W        W93342  43.358   5.394  12.024
31977W        W93343  30.024  13.601   3.739
31978W        W93344  28.179   9.150   0.341
31979W        W93345   6.250  42.972   4.282
31980W        W93346   8.848  36.389   4.612
31981W        W93347   0.329  44.440   2.269
31982W        W93348  20.532  35.972   1.300
31983W        W93349  30.932  21.535  14.960
31984W        W93350  31.088  25.184   2.276
31985W        W93351  40.947  16.223   1.404
31986W        W93352  18.056  20.601  12.372
31987W        W93353   4.315  29.036  14.847
31988W        W93354  29.534  36.076   1.379
31989W        W93355  32.969  22.100  12.507
31990W        W93356  43.338  11.738   0.905
31991W        W93357  30.148  21.621   2.243
31992W        W93358   2.281   2.470   1.794
31993W        W93359  19.647  44.307   5.154
31994W        W93360   6.862  34.464   1.768
31995W        W93361  41.922  44.384  10.442
31996W        W93362  44.838  33.924  12.483
31997W        W93363   8.694   2.379  14.025
31998W        W93364  30.085  41.295  11.106
31999W        W93365   5.755  19.654   2.798
32000W        W93366   9.761   5.330  12.059
32001W        W93367  36.501  14.148   1.330
32002W        W93368   0.877  27.996  13.438
32003W        W93369  13.623  13.225  14.516
32004W        W93370  27.167  31.959   4.745
32005W        W93371   9.704  10.384   1.246
32006W        W93372  42.021   7.368  14.000
32007W        W93373  35.479  41.384  12.413
32008W        W93374  44.905  43.311   4.715
32009W        W93375  41.029  26.474   1.798
32010W        W93376  15.308  21.198  11.477
32011W        W93377  29.954   6.773   2.203
32012W        W93378  38.342  15.588  10.996
32013W        W93379  12.850  43.941  11.589
32014W        W93380  27.533  40.310  14.902
32015W        W93381  26.056  24.685   1.393
32016W        W93382  44.494   3.418   3.156
32017W        W93383  29.532  18.648   1.216
32018W        W93384   0.809   5.364  11.021
32019W        W93385  31.485   8.188  14.821
32020W        W93386  40.964   0.266  13.434
32021W        W93387  35.094  14.677  11.592
32022W        W93388  31.476  10.795  14.770
32023W        W93389   2.724  31.121  11.371
32024W        W93390  30.936  40.797  14.483
32025W        W93391  19.652  43.975   3.160
32026W        W93392  39.879   5.766   3.155
32027W        W93393  20.170  12.166  14.025
32028W        W93394  17.579  18.196  10.970
32029W        W93395  36.086  16.193   0.759
32030W        W93396  28.056  40.915   1.290
32031W        W93397  33.888   5.704   3.798
32032W        W93398  15.811  32.585   4.278
32033W        W93399   5.269  29.517  12.897
32034W        W93400  26.483  28.964   0.296
32035W        W93401  21.153  23.086  11.377
32036W        W93402  14.295  41.839  14.968
32037W        W93403  36.930  19.610   2.183
32038W        W93404   6.828  36.001   4.704
32039W        W93405  24.152  23.524  13.922
32040W        W93406  13.751  15.125   3.170
32041W        W93407  15.821  14.132  13.855
32042W        W93408  27.097  36.866   0.331
32043W        W93409  44.453  17.795  12.451
32044W        W93410  41.812   5.427  13.969
32045W        W93411  22.248  35.473  13.920
32046W        W93412  16.266   5.882   0.343
32047W        W93413  43.397  30.006  10.525
32048W        W93414  13.705   3.231   3.249
32049W        W93415  22.692  28.651  10.894
32050W        W93416  16.776   8.243  12.386
32051W        W93417  33.017   9.785   0.359
32052W        W93418  20.625  18.210  14.917
32053W        W93419  29.991   1.397   4.200
32054W        W93420  42.871  10.758   2.268
32055W        W93421  37.858  41.371  12.502
32056W        W93422  11.788  26.107   2.360
32057W        W93423  24.601  13.167   3.314
32058W        W93424  26.095  35.463  11.591
32059W        W93425  38.879   1.932   4.775
32060W        W93426  33.486  33.531  10.490
32061W        W93427  36.558  13.324   1.317
32062W        W93428  15.292   2.843  12.858
32063W        W93429  42.451  16.792  11.386
32064W        W93430  32.623  17.664   0.901
32065W        W93431  22.166   4.764   5.152
32066W        W93432  38.949  20.635  13.407
32067W        W93433   9.332  37.463   0.383
32068W        W93434  18.743  33.949   2.900
32069W        W93435  35.966   3.908   4.699
32070W        W93436  33.040   9.236  12.944
32071W        W93437   5.934  30.550  11.585
32072W        W93438   8.329  40.053  13.424
32073W        W93439   7.734  40.399  14.490
32074W        W93440  28.007  41.926  12.365
32075W        W93441  33.437  23.557  14.482
32076W        W93442  15.158  31.066   2.262
32077W        W93443   1.292  10.767   3.742
32078W        W93444  20.253  40.816  13.032
32079W        W93445  29.167  40.494   2.328
32080W        W93446  25.177   6.860  11.029
32081W        W93447  25.555  37.924   0.467
32082W        W93448   9.254  40.470   1.357
32083W        W93449  43.882  14.653   0.856
32084W        W93450  13.191  38.361   0.319
32085W        W93451   9.831  33.977  10.517
32086W        W93452  26.621  13.686  11.462
32087W        W93453  12.786  19.703  10.575
32088W        W93454  32.476  26.645  13.983
32089W        W93455  26.164  15.665  11.461
32090W        W93456   8.177  22.523   3.286
32091W        W93457   7.716   3.331  12.407
32092W        W93458  34.376   0.336   3.630
32093W        W93459  40.968  14.786   1.933
32094W        W93460  32.512  40.965   1.261
32095W        W93461   6.386  15.729  13.850
32096W        W93462  34.506  37.375  11.436
32097W        W93463  38.052  16.729  11.494
32098W        W93464  42.289  27.125   3.735
32099W        W93465  18.786  29.099  14.912
32100W        W93466  15.138  24.637   4.790
32101W        W93467  21.553  18.624  14.984
32102W        W93468  27.052  32.614  12.517
32103W        W93469   2.760  24.693   1.271
32104W        W93470   3.824  12.118  12.059
32105W        W93471  14.157  36.404   0.250
32106W        W93472  39.948  43.948  14.808
32107W        W93473  10.346  22.171   4.699
32108W        W93474  13.289  15.765   2.760
32109W        W93475   8.687  12.723  13.468
32110W        W93476  29.454  14.290   5.171
32111W        W93477  14.256  34.115  10.150
32112W        W93478  19.684  26.680   1.291
32113W        W93479  32.101  18.148   3.375
32114W        W93480  43.004   5.237  14.012
32115W        W93481  22.539  15.819   1.438
32116W        W93482   3.386  37.412  11.474
32117W        W93483  18.640  31.503  11.399
32118W        W93484  37.467  17.750  14.944
32119W        W93485   2.426  34.402  14.975
32120W        W93486  38.937  18.161  10.952
32121W        W93487  15.203   8.287   0.739
32122W        W93488   5.319  30.601   4.283
32123W        W93489  38.508  24.184  12.945
32124W        W93490   8.335  36.008   1.257
32125W        W93491  39.817  44.889  14.501
32126W        W93492  11.681  41.319  10.905
32127W        W93493  13.201  14.149  13.494
32128W        W93494  25.548  16.262   3.722
32129W        W93495  34.424  22.607  11.996
32130W        W93496  42.320  33.498  11.488
32131W        W93497  43.931  17.605   3.281
32132W        W93498  44.372  22.207   4.260
32133W        W93499  34.472  42.959   1.420
32134W        W93500  43.827  34.392   3.275
32135W        W93501  17.270   0.400   2.384
32136W        W93502   5.193  37.068   2.347
32137W        W93503  44.866  19.770  11.523
32138W        W93504  38.824  33.979  12.092
32139W        W93505  18.739  17.295   1.805
32140W        W93506  10.816  34.506  12.998
32141W        W93507  17.289  43.932  11.428
32142W        W93508  19.750  26.697   4.115
32143W        W93509  14.798  19.208  14.443
32144W        W93510   2.322  11.319  14.505
32145W        W93511  44.961  10.144  10.023
32146W        W93512  15.100  12.154   2.382
32147W        W93513  34.410  29.139  14.996
32148W        W93514  29.622  21.115  12.452
32149W        W93515  30.011  14.706   4.149
32150W        W93516  38.932  36.972   3.253
32151W        W93517  18.644   9.680  14.428
32152W        W93518  43.832   2.733   0.727
32153W        W93519  33.040  30.553  14.850
32154W        W93520  33.394  27.648   2.787
32155W        W93521   7.181   4.298   2.419
32156W        W93522  28.529  30.584  12.430
32157W        W93523   8.701  31.507  12.506
32158W        W93524   8.358   0.460   2.706
32159W        W93525  26.679  33.552  13.495
32160W        W93526  30.958  15.133  13.935
32161W        W93527  32.961  15.164  10.555
32162W        W93528   2.409   3.876  14.290
32163W        W93529  16.717   8.234  14.823
32164W        W93530   5.851  42.821   3.768
32165W        W93531  31.069  38.827  11.111
32166W        W93532  19.561  21.255   2.826
32167W        W93533  32.554  20.717   2.695
32168W        W93534  19.123  16.203  11.428
32169W        W93535   3.735   1.374   1.849
32170W        W93536  19.757  17.726  11.610
32171W        W93537  18.166  33.436   1.886
32172W        W93538  27.029  17.254   9.964
32173W        W93539  37.008  30.584  14.459
32174W        W93540   1.266  12.662   1.242
32175W        W93541  18.093  32.970   1.896
32176W        W93542  12.788  11.851   0.331
32177W        W93543  27.662   9.761   0.784
32178W        W93544  22.136  19.260  13.347
32179W        W93545  31.132  17.660   3.669
32180W        W93546  36.517   7.665  14.793
32181W        W93547   2.806  14.149   3.712
32182W        W93548  22.229   1.330  12.825
32183W        W93549  13.653  20.717  10.974
32184W        W93550  18.548   6.692   2.395
32185W        W93551   8.880   5.765   0.784
32186W        W93552  25.645  26.096   4.779
32187W        W93553  24.137  16.294   4.745
32188W        W93554  20.655  19.760   2.312
32189W        W93555  26.654   2.783  11.522
32190W        W93556   8.798  22.728   1.791
32191W        W93557  16.804  28.548  11.581
32192W        W93558  40.931  20.217   2.823
32193W        W93559  29.517  24.599  14.987
32194W        W93560  26.617  22.662   4.738
32195W        W93561   5.803  20.735  10.589
32196W        W93562  22.044  41.414  11.919
32197W        W93563  37.026   3.410  11.392
32198W        W93564  38.387  17.792  13.034
32199W        W93565  36.950  40.360  14.340
32200W        W93566   2.782  19.679   3.674
32201W        W93567  35.514   0.831   1.819
32202W        W93568  20.527   7.215   2.775
32203W        W93569   5.857  33.885   4.149
32204W        W93570  26.605  20.189   5.168
32205W        W93571  30.116  23.178  14.831
32206W        W93572  21.243  39.877  14.391
32207W        W93573  21.203  20.118  12.962
32208W        W93574  18.614  13.730   1.785
32209W        W93575  11.339   8.333   4.681
32210W        W93576  14.293  38.875  14.414
32211W        W93577  44.833  20.039   4.685
32212W        W93578  10.138  18.598   0.829
32213W        W93579   5.324   7.415   4.215
32214W        W93580  27.170  36.447   3.150
32215W        W93581   7.357  19.622  13.914
32216W        W93582  14.718   0.252   2.189
32217W        W93583  16.676  22.554   4.255
32218W        W93584  31.050  38.035  13.417
32219W        W93585   7.879  15.593   1.372
32220W        W93586  13.805  44.362   3.679
32221W        W93587  28.047   4.829  13.941
32222W        W93588   3.217  39.030  11.412
32223W        W93589  15.579  29.639  11.553
32224W        W93590  26.560  19.046   0.387
32225W        W93591  38.546  18.157   3.193
32226W        W93592  22.147  38.942   2.315
32227W        W93593  13.649   4.900  14.936
32228W        W93594  15.615   2.354  12.363
32229W        W93595   2.456  12.217   0.481
32230W        W93596  17.587  43.352   4.301
32231W        W93597  43.905  23.577  13.412
32232W        W93598  38.073   0.831   3.779
32233W        W93599  19.604  20.174  11.068
32234W        W93600   7.409  39.370  14.498
32235W        W93601  41.788  43.793   0.769
32236W        W93602   4.747  28.594  11.429
32237W        W93603   7.299  16.807   1.867
32238W        W93604  13.613   7.196   3.739
32239W        W93605  10.367  32.042  12.522
32240W        W93606  16.626  34.575  12.878
32241W        W93607  44.458  35.383   1.400
32242W        W93608  19.632  32.951   3.235
32243W        W93609  26.099   1.376  14.847
32244W        W93610  14.099  13.796   2.894
32245W        W93611  41.368   8.293  13.045
32246W        W93612  23.667  19.110  11.058
32247W        W93613  36.436  24.721   3.202
32248W        W93614  33.474  44.001   0.850
32249W        W93615  33.586   0.788  13.337
32250W        W93616  10.172   6.737   4.155
32251W        W93617  40.336   2.381  13.970
32252W        W93618  36.532  36.416  12.966
32253W        W93619  21.081   9.362   4.649
32254W        W93620  29.160  12.124   4.221
32255W        W93621  44.416   1.388   1.696
32256W        W93622   1.825  24.688  12.542
32257W        W93623  39.544  25.975   0.465
32258W        W93624   9.752   2.377   4.171
32259W        W93625  37.856  42.821  11.036
32260W        W93626  10.732  24.153   3.631
32261W        W93627  31.558  21.052  14.883
32262W        W93628  16.672  43.836   1.450
32263W        W93629  35.398  27.158   1.765
32264W        W93630  29.636   5.208   3.162
32265W        W93631  39.966  43.812   0.350
32266W        W93632  22.241  14.647  14.016
32267W        W93633  21.668  12.216  13.930
32268W        W93634   1.329  37.933  14.000
32269W        W93635  40.930   0.290   1.848
32270W        W93636  16.669  34.578  13.866
32271W        W93637  38.995  22.238  13.486
32272W        W93638  32.047  12.224  11.015
32273W        W93639  40.470  30.546  11.451
32274W        W93640  25.631  43.840   2.810
32275W        W93641  38.507  16.776   2.287
32276W        W93642  35.405   5.725   1.425
32277W        W93643  25.159  32.436   4.740
32278W        W93644  38.434  25.558  11.875
32279W        W93645  34.033  10.323   3.857
32280W        W93646  27.556   0.408  10.526
32281W        W93647  34.457  37.050  13.360
32282W        W93648  17.259  42.466   2.311
32283W        W93649   5.929  29.967   2.343
32284W        W93650  14.216  42.487   0.303
32285W        W93651  19.262  32.434   1.388
32286W        W93652  35.481   1.331   2.756
32287W        W93653   0.318  18.783  13.522
32288W        W93654  44.963  33.130   0.261
32289W        W93655  44.479  44.460  13.816
32290W        W93656  42.505   4.744  11.984
32291W        W93657  19.751   6.772   0.727
32292W        W93658  19.105  32.519  12.467
32293W        W93659  12.341  34.915   4.151
32294W        W93660  16.259  25.659  11.128
32295W        W93661  17.089  27.460   0.843
32296W        W93662  12.625  31.122  10.511
32297W        W93663  28.040  43.853  10.014
32298W        W93664  13.682  32.029   2.329
32299W        W93665  18.175  11.628   1.385
32300W        W93666  40.959   7.325  13.482
32301W        W93667  31.110  15.738   2.314
32302W        W93668   3.846  14.625  14.032
32303W        W93669  40.044  12.645   2.884
32304W        W93670  34.615  31.045   3.677
32305W        W93671  34.941  20.090  13.463
32306W        W93672  30.925  24.679   4.120
32307W        W93673  16.143   5.772   4.652
32308W        W93674   0.909  38.568   3.180
32309W        W93675   3.244  21.698  14.025
32310W        W93676  25.158  13.691  12.871
32311W        W93677   3.744  11.641   2.689
32312W        W93678   1.950   2.925   3.811
32313W        W93679  18.057  23.038   4.823
32314W        W93680   3.832  31.125  13.810
32315W        W93681   7.859  12.614  13.886
32316W        W93682  35.074  25.133  13.884
32317W        W93683   7.724  21.018   5.082
32318W        W93684  31.560  24.499   2.690
32319W        W93685   9.218   2.913   5.688
32320W        W93686  33.540  26.993  13.805
32321W        W93687   7.692  41.380   4.178
32322W        W93688   6.195  26.673   5.114
32323W        W93689  25.982  12.187  10.458
32324W        W93690   2.259  19.741  12.530
32325W        W93691  12.692  41.823   4.633
32326W        W93692   0.424  14.144   1.328
32327W        W93693  44.891   5.329  14.409
32328W        W93694  35.593  27.599  10.513
32329W        W93695  22.211  11.272  11.044
32330W        W93696  35.085   7.714  14.424
32331W        W93697  15.193  18.140  14.798
32332W        W93698  20.108  32.610  12.008
32333W        W93699   8.791  21.069   5.164
32334W        W93700  28.565  22.682  11.882
32335W        W93701  34.486  10.843  14.830
32336W        W93702   1.326  16.190  13.013
32337W        W93703   6.824  34.380  13.907
32338W        W93704  26.205  22.082  12.045
32339W        W93705  11.153   9.245  12.064
32340W        W93706  29.972  17.287  13.951
32341W        W93707  43.377  19.700  11.501
32342W        W93708  11.293  20.525   2.228
32343W        W93709   7.710  40.373  10.407
32344W        W93710  13.797  42.421   0.866
32345W        W93711  19.721  37.401   0.899
32346W        W93712   5.322  39.957  10.419
32347W        W93713   2.957  26.514   3.302
32348W        W93714  32.479  10.184  10.950
32349W        W93715   8.705  35.013   4.789
32350W        W93716  22.179  18.275  13.863
32351W        W93717  30.146   6.309  14.808
32352W        W93718  34.496  26.622  12.419
32353W        W93719   9.831  20.104   2.889
32354W        W93720  19.546  12.267  13.437
32355W        W93721   6.727  33.914  12.004
32356W        W93722  19.125  16.316   3.799
32357W        W93723   5.831  10.267  11.075
32358W        W93724  44.857  31.906   4.135
32359W        W93725   6.844  14.150  10.490
32360W        W93726  12.855  30.114   1.229
32361W        W93727  29.466  28.547   4.155
32362W        W93728  26.972  19.199  12.555
32363W        W93729   6.867   4.428   3.270
32364W        W93730  33.064  18.077  10.445
32365W        W93731  39.983  23.177  13.042
32366W        W93732  28.054  26.125  12.068
32367W        W93733  41.808   1.382  13.897
32368W        W93734   4.335  39.464   2.737
32369W        W93735  10.721  23.207   3.772
32370W        W93736  22.241   5.242  10.918
32371W        W93737  34.989  33.984  14.960
32372W        W93738  42.817  22.718   5.157
32373W        W93739  23.212  26.133   1.273
32374W        W93740  44.869   1.483  11.532
32375W        W93741  17.224  23.188  13.417
32376W        W93742  42.850  19.071   2.390
32377W        W93743  11.759  43.016  12.986
32378W        W93744  28.942  36.593   0.756
32379W        W93745  20.242  44.267  14.985
32380W        W93746  23.037  11.775   2.797
32381W        W93747  34.585  27.490   4.785
32382W        W93748  30.116  37.514  14.028
32383W        W93749  16.571  29.134   1.812
32384W        W93750  31.456  43.911  14.985
32385W        W93751  34.906   7.895   1.232
32386W        W93752  29.172  10.249  12.414
32387W        W93753  22.620  38.949   0.384
32388W        W93754   1.427  25.037  12.408
32389W        W93755  40.998  25.974  14.432
32390W        W93756  41.535   1.265  13.905
32391W        W93757  25.983  31.621   9.974
32392W        W93758  40.934  35.434  14.010
32393W        W93759  27.108  44.271  14.441
32394W        W93760   9.873  33.065  13.851
32395W        W93761  29.119  24.646   4.720
32396W        W93762   0.743  10.262  10.920
32397W        W93763  36.077  28.127   2.892
32398W        W93764   4.389  41.801   0.793
32399W        W93765  33.513  28.444   3.821
32400W        W93766  19.194   3.723   1.321
32401W        W93767  40.472   6.831   3.868
32402W        W93768  29.929  39.899   1.405
32403W        W93769   9.286  20.623   4.253
32404W        W93770  37.873  27.982  14.790
32405W        W93771  20.560   2.949  12.861
32406W        W93772  41.291  37.037   2.784
32407W        W93773  37.849  44.405  10.018
32408W        W93774  10.848   8.660   3.642
32409W        W93775   3.288  40.797   0.752
32410W        W93776   1.375   8.178   1.735
32411W        W93777  38.432   4.730   4.789
32412W        W93778   7.748  35.910  10.564
32413W        W93779   0.269   8.256   2.350
32414W        W93780  28.531   8.886  12.413
32415W        W93781  11.260  16.764   0.261
32416W        W93782  28.613   2.251   1.830
32417W        W93783   1.830  38.991   1.442
32418W        W93784  37.555   2.868  11.926
32419W        W93785  39.369  28.529  10.576
32420W        W93786   9.813  23.124  13.016
32421W        W93787  22.049  44.269   4.167
32422W        W93788   9.313   4.295   2.417
32423W        W93789  39.930  34.960   1.696
32424W        W93790  18.102   0.860   4.672
32425W        W93791  33.076  33.018   3.146
32426W        W93792  13.133  44.860   0.945
32427W        W93793  13.217   0.758  12.019
32428W        W93794  19.650  40.344  14.281
32429W        W93795  31.606  33.448  13.496
32430W        W93796   5.736   1.317   0.845
32431W        W93797   8.179  17.753   3.723
32432W        W93798   1.275  34.523  10.934
32433W        W93799  23.556  19.197  11.548
32434W        W93800   6.801  30.941  13.032
32435W        W93801   0.423  44.831   4.307
32436W        W93802  37.481   5.835   2.280
32437W        W93803  38.846  43.269  10.080
32438W        W93804  41.467  27.040  12.565
32439W        W93805  38.516  35.597   0.359
32440W        W93806  24.990  39.364   3.763
32441W        W93807   5.226  40.539  14.760
32442W        W93808  14.154   6.397  11.476
32443W        W93809   8.663  26.055   1.743
32444W        W93810   0.349  12.257  14.442
32445W        W93811   5.866  29.443   3.385
32446W        W93812  36.963  17.766  11.919
32447W        W93813  19.635  43.879  11.985
32448W        W93814  21.221  18.242  14.781
32449W        W93815   3.421  12.773  10.473
32450W        W93816  40.383  18.547  13.439
32451W        W93817  29.017  23.586   4.799
32452W        W93818  38.060  44.815   0.787
32453W        W93819   7.899  40.427  11.006
32454W        W93820   5.820  16.285   3.722
32455W        W93821   1.921  37.492  13.912
32456W        W93822  26.507  44.754  14.426
32457W        W93823  16.290  12.285  10.488
32458W        W93824  12.345   0.276  11.878
32459W        W93825   9.811  43.821   2.739
32460W        W93826   7.325  28.186  12.535
32461W        W93827  24.511   7.751   4.132
32462W        W93828  24.571  13.845   2.414
32463W        W93829  28.580   0.445   4.797
32464W        W93830  43.009  27.055  10.956
32465W        W93831  28.442  20.622  11.030
32466W        W93832  42.526  31.624   4.199
32467W        W93833   5.759  36.846  13.874
32468W        W93834  14.309  40.034  14.821
32469W        W93835  16.310  44.872   4.313
32470W        W93836  39.910  16.769   1.742
32471W        W93837  24.585  32.614  13.426
32472W        W93838  20.155   1.941   1.789
32473W        W93839   0.476   5.359   2.893
32474W        W93840  37.991  34.448   0.852
32475W        W93841  43.962  36.370  12.925
32476W        W93842   0.863  18.760  14.513
32477W        W93843  43.834  10.209   0.926
32478W        W93844  17.245  19.674   5.313
32479W        W93845   0.845  41.852   3.188
32480W        W93846  19.639  11.676   4.198
32481W        W93847  24.024  36.908   3.183
32482W        W93848  17.086  31.935   0.406
32483W        W93849  22.140  42.870  11.006
32484W        W93850  34.415  33.877  12.919
32485W        W93851  28.119  15.665   5.164
32486W        W93852  23.124  21.201   1.256
32487W        W93853  34.491  18.156  10.417
32488W        W93854  18.607   3.409   0.396
32489W        W93855  41.987   8.783  13.829
32490W        W93856   5.206  30.640   1.274
32491W        W93857  23.154  40.334   4.645
32492W        W93858   7.724  17.166   9.944
32493W        W93859  28.047   7.386  12.427
32494W        W93860  34.591  37.066   1.841
32495W        W93861  24.621   8.688   0.439
32496W        W93862  13.106  34.423  13.020
32497W        W93863  27.003  37.087  11.385
32498W        W93864   2.313  15.268  12.394
32499W        W93865   0.486  30.982  11.431
32500W        W93866  19.262  27.539  13.987
32501W        W93867  15.184   5.739   1.296
32502W        W93868  28.073   6.777   4.775
32503W        W93869  20.745  14.310   3.715
32504W        W93870  26.691  12.781  13.446
32505W        W93871   4.814   0.803  10.911
32506W        W93872  41.871  12.757   0.286
32507W        W93873  44.765  20.751   2.395
32508W        W93874  16.729  21.259  10.417
32509W        W93875   7.189  24.065   1.365
32510W        W93876  27.063  30.088  11.434
32511W        W93877   7.274  42.808  14.301
32512W        W93878  34.523  20.528  13.468
32513W        W93879  24.535   5.780   5.219
32514W        W93880  42.527  33.070   0.777
32515W        W93881  30.568  10.664   2.391
32516W        W93882  28.008   8.268  10.410
32517W        W93883  44.306  33.043  12.065
32518W        W93884   3.312  31.600  13.337
32519W        W93885  13.324  25.697   4.205
32520W        W93886  16.252  38.400   2.872
32521W        W93887  20.245  30.502  14.471
32522W        W93888  31.087  31.129   0.867
32523W        W93889   4.716   0.418  13.532
32524W        W93890   9.853  38.496   1.325
32525W        W93891  12.739  17.711  13.012
32526W        W93892  27.963  42.937  10.920
32527W        W93893  37.911   1.364  11.541
32528W        W93894  31.487  27.535   0.921
32529W        W93895  33.972  25.054   3.866
32530W        W93896  11.371   3.374   2.716
32531W        W93897   2.775   9.161   1.372
32532W        W93898   5.280  27.511   5.230
32533W        W93899   6.877  30.609  14.976
32534W        W93900  33.989  32.100   0.425
32535W        W93901  37.493  15.782   0.297
32536W        W93902  29.615  12.713   1.228
32537W        W93903  43.832   3.390   4.762
32538W        W93904   1.899  12.691   0.292
32539W        W93905   5.895  30.554  11.950
32540W        W93906  12.343  30.146   1.842
32541W        W93907  27.950  23.595   3.651
32542W        W93908  34.456  24.521   3.282
32543W        W93909  29.141  10.813  11.953
32544W        W93910  17.139   7.176  13.419
32545W        W93911  30.074  31.937  14.982
32546W        W93912   1.294  15.795   1.722
32547W        W93913  29.478  34.409   0.805
32548W        W93914  25.594  25.213  11.605
32549W        W93915  11.752  23.126   4.292
32550W        W93916  31.151  43.922  13.025
32551W        W93917  42.821  38.956  10.541
32552W        W93918  34.409  17.652  10.455
32553W        W93919   7.857  38.505  12.842
32554W        W93920  30.025  11.704  14.006
32555W        W93921  12.332  38.912   0.771
32556W        W93922   0.333  25.021  12.444
32557W        W93923  42.444  22.513  11.041
32558W        W93924  38.896   3.920   4.741
32559W        W93925  32.981  26.179  11.871
32560W        W93926  23.714  16.265   4.717
32561W        W93927  35.940  28.134   1.296
32562W        W93928  16.711  19.252  11.436
32563W        W93929  16.140  43.874  12.074
32564W        W93930   8.199  29.946  10.935
32565W        W93931  16.758   9.213   0.765
32566W        W93932  43.485  32.130   1.737
32567W        W93933  33.942  39.992   3.689
32568W        W93934  16.705  18.283  14.304
32569W        W93935   4.398   9.876  12.439
32570W        W93936  20.618  41.481  10.636
32571W        W93937   5.751  17.108   1.866
32572W        W93938   5.768  30.521   0.872
32573W        W93939  42.024  33.971   1.436
32574W        W93940  27.996   3.360   4.806
32575W        W93941   0.956   7.259  13.914
32576W        W93942  10.741  44.419   2.368
32577W        W93943  24.176  39.815   2.185
32578W        W93944  32.628   7.776  13.030
32579W        W93945   4.363  31.027   4.296
32580W        W93946  30.015  22.037  13.514
32581W        W93947  15.607  31.028  10.445
32582W        W93948  36.507   4.772   1.448
32583W        W93949  34.372  14.761  13.405
32584W        W93950  43.766  38.517  11.402
32585W        W93951  26.054  27.596   0.464
32586W        W93952   6.812  20.243  10.898
32587W        W93953   9.762   9.173   4.341
32588W        W93954   7.260  34.083   4.182
32589W        W93955  44.434  43.853  10.917
32590W        W93956  35.988   3.819  12.945
32591W        W93957   9.323   2.761  10.497
32592W        W93958  43.277  29.016   0.471
32593W        W93959  29.578  36.870  13.891
32594W        W93960  24.653  26.957   1.783
32595W        W93961   7.734   8.219  12.088
32596W        W93962  17.095   2.374  13.363
32597W        W93963  30.998  28.072   3.776
32598W        W93964  32.603  44.905   3.348
32599W        W93965  30.110  22.535  10.420
32600W        W93966  30.036  18.053   4.310
32601W        W93967  26.188  38.959   4.690
32602W        W93968  17.747  19.602   1.718
32603W        W93969  15.275  21.522  12.997
32604W        W93970   0.286   4.816  10.641
32605W        W93971   4.448  39.338  11.096
32606W        W93972  41.979  18.570   2.237
32607W        W93973   3.269  24.625  14.377
32608W        W93974   1.462  22.685   4.117
32609W        W93975   6.320  36.996  11.066
32610W        W93976   3.793  30.624  14.883
32611W        W93977  26.107  38.040  14.841
32612W        W93978  17.173  22.735   2.673
32613W        W93979  21.063  30.626   0.419
32614W        W93980  31.046  24.095  12.437
32615W        W93981   2.234  40.845   4.727
32616W        W93982  43.323   3.720   1.808
32617W        W93983  36.365  14.139   3.673
32618W        W93984   2.399  11.649   4.677
32619W        W93985  39.842  10.270  14.827
32620W        W93986  32.395  12.135   1.254
32621W        W93987  32.461  27.125  10.608
32622W        W93988  30.067  10.817  12.422
32623W        W93989  27.596  30.097  13.503
32624W        W93990  42.939  16.255   3.284
32625W        W93991  19.726  12.256   1.929
32626W        W93992  30.525  27.175   0.305
32627W        W93993  11.835   3.943   2.899
32628W        W93994  43.849   6.806   1.874
32629W        W93995  33.986  10.349  13.840
32630W        W93996  12.178   2.792  11.601
32631W        W93997  29.652  29.074  13.867
32632W        W93998  20.250  41.819   1.352
32633W        W93999   9.331  21.559   0.426
32634W        W94000  14.270  30.052  14.011
32635W        W94001  18.572  24.005  10.432
32636W        W94002  23.723   4.245  12.827
32637W        W94003  37.000  33.984  10.496
32638W        W94004  38.956  20.673   3.867
32639W        W94005  42.898  35.029   4.687
32640W        W94006  31.444   8.234   4.662
32641W        W94007  36.468  40.386  11.969
32642W        W94008  14.731  26.621  14.381
32643W        W94009  34.614  33.059  14.921
32644W        W94010  26.029  17.161   1.716
32645W        W94011  28.561  17.604   3.733
32646W        W94012  25.969   1.970   5.124
32647W        W94013  15.279  15.237   0.756
32648W        W94014  11.330  44.813   4.807
32649W        W94015   5.934  41.014  14.483
32650W        W94016  18.059  27.968  10.928
32651W        W94017  14.119  33.076  11.484
32652W        W94018  18.691  21.529  10.635
32653W        W94019  38.459  39.986   1.764
32654W        W94020  20.702  43.392   0.727
32655W        W94021  23.700  44.444   4.242
32656W        W94022  12.322  40.371  14.809
32657W        W94023   0.475  24.657  13.457
32658W        W94024  22.244   3.923   3.632
32659W        W94025   1.415  39.524   1.338
32660W        W94026  26.505  18.056   4.252
32661W        W94027  30.021  21.053  12.993
32662W        W94028  15.655  39.945   2.309
32663W        W94029  11.836  36.919   2.346
32664W        W94030  19.682   8.880   1.737
32665W        W94031  31.008  38.825   1.842
32666W        W94032  10.671  33.895   0.858
32667W        W94033   1.794   3.929  10.938
32668W        W94034  29.510  24.057   2.842
32669W        W94035  34.872  24.198   0.461
32670W        W94036  24.491  20.252  12.834
32671W        W94037   5.373   9.360   4.135
32672W        W94038  13.756   9.801   1.731
32673W        W94039  44.801   0.456   3.231
32674W        W94040  36.938  39.342   3.245
32675W        W94041   4.345  36.476   0.248
32676W        W94042  15.590  37.888   0.778
32677W        W94043  28.147   1.911  10.111
32678W        W94044  37.386  17.687   3.827
32679W        W94045  26.479  19.191   1.297
32680W        W94046  21.546  27.469   4.795
32681W        W94047  29.578  19.192  11.032
32682W        W94048  24.192  32.100  13.443
32683W        W94049  18.294  20.130   4.160
32684W        W94050  16.744  23.192   4.775
32685W        W94051  29.172  39.333  12.033
32686W        W94052  36.371   8.779  11.528
32687W        W94053  21.253   5.347  13.529
32688W        W94054  35.097  24.025   1.431
32689W        W94055  34.884  23.526  12.889
32690W        W94056  30.633  12.731   3.799
32691W        W94057  22.533  32.117   9.938
32692W        W94058  18.711  26.609  14.773
32693W        W94059   8.221  19.765   1.414
32694W        W94060   4.337  42.965   1.769
32695W        W94061  38.876  15.632  14.797
32696W        W94062  22.150  21.053  13.507
32697W        W94063  26.973   9.178   4.618
32698W        W94064  39.338  22.550  10.606
32699W        W94065  11.826  38.988  13.858
32700W        W94066  26.185  12.282   4.248
32701W        W94067  10.161  33.445   1.277
32702W        W94068  29.995  39.932   4.831
32703W        W94069  22.219  20.676  10.966
32704W        W94070  28.570  14.299   5.147
32705W        W94071  35.438  15.144   2.784
32706W        W94072  30.417  40.834   2.275
32707W        W94073  30.448  41.861   1.267
32708W        W94074  41.886  18.642  10.974
32709W        W94075  37.387  21.618  13.059
32710W        W94076  22.625  21.676  11.493
32711W        W94077  26.020  37.353   0.242
32712W        W94078  43.366  31.902  14.990
32713W        W94079   6.853  30.578   3.855
32714W        W94080  21.717   3.933   0.322
32715W        W94081  31.440  42.021  14.943
32716W        W94082  25.638  26.005   3.829
32717W        W94083  28.474  27.652  14.277
32718W        W94084  39.911   9.202   3.175
32719W        W94085  33.939  29.065   4.739
32720W        W94086  13.264  25.604  12.891
32721W        W94087  11.270  22.164   0.352
32722W        W94088   1.852  17.571   2.328
32723W        W94089  23.595  15.296  12.495
32724W        W94090  39.471  12.311  14.932
32725W        W94091  19.073  40.377  13.048
32726W        W94092   8.329  29.434  14.974
32727W        W94093  13.253  18.732  13.379
32728W        W94094   1.843  24.227  14.318
32729W        W94095  36.444  28.638   2.779
32730W        W94096  24.484  14.331   3.337
32731W        W94097   2.877   5.766   0.375
32732W        W94098  32.123  22.525   3.257
32733W        W94099   4.702  37.517   0.319
32734W        W94100  35.995  43.914  14.465
32735W        W94101  44.434  28.075   2.208
32736W        W94102  23.168  36.038  12.550
32737W        W94103  43.925  28.442  14.311
32738W        W94104   6.347   8.673   2.890
32739W        W94105  17.802  17.206  11.033
32740W        W94106  14.737  10.826   1.423
32741W        W94107  43.391  43.852   2.772
32742W        W94108  26.204  39.026  10.599
32743W        W94109  23.558  34.584   1.853
32744W        W94110  40.375   5.431   4.279
32745W        W94111  29.510   0.408  10.979
32746W        W94112   3.754   6.717  13.548
32747W        W94113  24.540   9.355  14.904
32748W        W94114  35.945   0.387   4.160
32749W        W94115  22.732  30.528  13.415
32750W        W94116  42.988  15.326   2.695
32751W        W94117  20.681  32.528  13.441
32752W        W94118  16.287  25.075   3.349
32753W        W94119  28.460  42.342  14.871
32754W        W94120  19.203   0.753   1.786
32755W        W94121  19.234  17.565   3.150
32756W        W94122  27.547   3.453   2.716
32757W        W94123  18.072  41.960  14.926
32758W        W94124  44.881  32.932  12.436
32759W        W94125   1.255  12.667   3.202
32760W        W94126  23.596   8.160   4.795
32761W        W94127  38.013   6.388   1.450
32762W        W94128  29.106  29.124   0.844
32763W        W94129  38.025  22.121   4.648
32764W        W94130  16.185   8.712  12.913
32765W        W94131   0.403  27.669   1.719
32766W        W94132  12.673  31.647   3.362
32767W        W94133  41.939  29.114   3.741
32768W        W94134  15.748  26.647   4.343
32769W        W94135   1.962   8.281  12.534
32770W        W94136   5.832  11.698  14.770
32771W        W94137   2.305  14.621   4.689
32772W        W94138   9.297  11.745  11.879
32773W        W94139  20.713   9.306  14.354
32774W        W94140  24.528  19.203   4.738
32775W        W94141  18.561   3.221  11.487
32776W        W94142  41.335   1.464  10.919
32777W        W94143  28.092  20.587   3.731
32778W        W94144   9.294  15.320  14.810
32779W        W94145  41.523  37.848  12.452
32780W        W94146  11.831  27.155   4.272
32781W        W94147  16.086  33.582  13.826
32782W        W94148  15.718   1.297   1.352
32783W        W94149  17.240   6.696   4.657
32784W        W94150   0.784  23.585   2.331
32785W        W94151  34.531  27.675  10.572
32786W        W94152  17.743  36.973   2.361
32787W        W94153  19.177  17.216   4.657
32788W        W94154  35.567   5.391   2.793
32789W        W94155  21.757  40.421  14.812
32790W        W94156  17.714  41.886   3.690
32791W        W94157  11.756  24.119  12.073
32792W        W94158  24.626  35.955  10.482
32793W        W94159  42.865   3.886   3.316
32794W        W94160  10.718  18.158   1.725
32795W        W94161   2.337  36.863  13.508
32796W        W94162  26.491  31.498  12.898
32797W        W94163  11.727  37.348   3.239
32798W        W94164  39.953   7.233  14.842
32799W        W94165  37.968  23.547   4.816
32800W        W94166  18.678  36.037   1.331
32801W        W94167  41.924   5.256   2.852
32802W        W94168  25.492   7.873   0.923
32803W        W94169  26.001  21.575  14.475
32804W        W94170  41.967  20.047  10.486
32805W        W94171  31.918  36.080  11.071
32806W        W94172  25.129  22.057  14.951
32807W        W94173  16.237  43.827  13.846
32808W        W94174  21.647  39.483   4.160
32809W        W94175  40.885  17.633   3.652
32810W        W94176  27.020  12.693   5.155
32811W        W94177  39.983  13.253   2.355
32812W        W94178  11.369  11.854   0.251
32813W        W94179  22.038   8.308  13.805
32814W        W94180   7.398   4.791   4.168
32815W        W94181  21.527  26.479  11.431
32816W        W94182  25.584  44.441  11.533
32817W        W94183  30.015  32.030   2.251
32818W        W94184  44.769  29.574  13.931
32819W        W94185  38.493   7.692   0.445
32820W        W94186  28.532  44.806   0.244
32821W        W94187  38.442  32.606  14.799
32822W        W94188   9.838  39.899   1.375
32823W        W94189  22.603   5.427  12.013
32824W        W94190  25.696  10.678  13.452
32825W        W94191  12.838  29.524   4.155
32826W        W94192  10.281   7.685   4.803
32827W        W94193  35.893  39.528   0.375
32828W        W94194  16.769  28.561  11.879
32829W        W94195  29.000  21.719  13.461
32830W        W94196   2.958  21.673   4.180
32831W        W94197  40.832  30.141  13.005
32832W        W94198  32.436   2.349   1.251
32833W        W94199   7.254  32.052   3.814
32834W        W94200  22.528  37.009  12.051
32835W        W94201  28.029  25.526  13.007
32836W        W94202  42.954   8.169  14.413
32837W        W94203  31.563  41.850  11.512
32838W        W94204  34.927  38.519   3.664
32839W        W94205  10.760  22.739  10.127
32840W        W94206  37.549  43.940  10.480
32841W        W94207   9.312   6.244  12.960
32842W        W94208  12.362  15.287   4.705
32843W        W94209  30.144  37.866   4.610
32844W        W94210  33.036  31.420   3.204
32845W        W94211   7.884  39.022  11.110
32846W        W94212  31.031  42.984  12.042
32847W        W94213   3.721  26.953  14.878
32848W        W94214  11.243  10.292  10.918
32849W        W94215  10.695  12.624   1.353
32850W        W94216  35.082   5.236   3.146
32851W        W94217  42.790  25.538   3.669
32852W        W94218  17.268   8.338  12.958
32853W        W94219   4.214   9.151   2.378
32854W        W94220  21.023   2.387  14.812
32855W        W94221  39.552  10.290  10.495
32856W        W94222  13.115  26.622   3.792
32857W        W94223  20.663   3.453   4.700
32858W        W94224  37.395  15.794  13.810
32859W        W94225  38.494  36.012  14.339
32860W        W94226   6.912  10.187  14.444
32861W        W94227  34.503   7.888  12.413
32862W        W94228  34.610   9.803   0.271
32863W        W94229   4.366   8.163  12.031
32864W        W94230  26.501  34.983   2.285
32865W        W94231   4.863  10.748  14.417
32866W        W94232  34.379  43.405   4.651
32867W        W94233   7.240  36.533   1.417
32868W        W94234  36.904  20.153  12.877
32869W        W94235  20.586  42.354   1.313
32870W        W94236  32.519  32.503  10.615
32871W        W94237  14.591  11.357   1.349
32872W        W94238  38.471  29.134  13.039
32873W        W94239   3.460  26.082   3.269
32874W        W94240   7.266   8.189   0.918
32875W        W94241   7.401   4.764  11.858
32876W        W94242  21.201  34.370  13.385
32877W        W94243  25.528   9.759  13.840
32878W        W94244  28.143  42.409  11.430
32879W        W94245   8.344  27.117   0.407
32880W        W94246  36.989  37.485  14.465
32881W        W94247  37.376   4.262   1.917
32882W        W94248  10.637  10.243   2.357
32883W        W94249  40.965  37.889   1.435
32884W        W94250  16.281   7.770   0.884
32885W        W94251  38.012  30.991   2.282
32886W        W94252  41.324  39.043  13.503
32887W        W94253  21.719  40.006   2.695
32888W        W94254  13.788  15.635  11.916
32889W        W94255  30.102  13.605   4.609
32890W        W94256   3.445   4.853   0.886
32891W        W94257   4.928  13.606   4.722
32892W        W94258  19.579  40.339   2.288
32893W        W94259   3.817   5.826  14.461
32894W        W94260   6.699  29.162   3.737
32895W        W94261  39.818   6.895   2.370
32896W        W94262  35.870  43.348  14.284
32897W        W94263  24.686  42.418   3.312
32898W        W94264  20.659  16.616   2.851
32899W        W94265   5.294  14.298   3.849
32900W        W94266  22.556  11.157  12.439
32901W        W94267   4.370  42.864  12.536
32902W        W94268  36.943   8.719  13.892
32903W        W94269  35.435   7.674  13.322
32904W        W94270  27.501  31.068   9.445
32905W        W94271  19.187  32.556  11.037
32906W        W94272  13.757  41.353  14.504
32907W        W94273  33.045  25.178   1.831
32908W        W94274  36.849  17.119   3.797
32909W        W94275  15.795  14.179  13.525
32910W        W94276  15.606  10.252  14.795
32911W        W94277   7.313   6.697   2.408
32912W        W94278   2.862  35.536   0.772
32913W        W94279  26.532  24.678   2.272
32914W        W94280  15.679   4.752   1.431
32915W        W94281  43.464  39.855  11.066
32916W        W94282   7.197  11.644   1.889
32917W        W94283  26.017  21.544   0.856
32918W        W94284  42.430  32.543  12.469
32919W        W94285  35.923  17.800   1.243
32920W        W94286  22.716  43.373  10.506
32921W        W94287  10.857  11.237  11.422
32922W        W94288  24.714  42.333   0.333
32923W        W94289  40.879  14.230  13.362
32924W        W94290  39.327  36.424  14.949
32925W        W94291  13.763  17.185  10.928
32926W        W94292  16.609   1.929  10.493
32927W        W94293  27.633  20.528  12.089
32928W        W94294   4.745   5.194  12.554
32929W        W94295  20.084  12.360  10.939
32930W        W94296  20.620  21.019  14.288
32931W        W94297  32.944  31.971  10.977
32932W        W94298  31.581  32.391  14.481
32933W        W94299  25.189   5.342   3.785
32934W        W94300   2.398  13.170  12.875
32935W        W94301  23.115  19.139   0.828
32936W        W94302  21.561  35.038   0.480
32937W        W94303  41.329  28.584   2.682
32938W        W94304  41.462  30.017  11.855
32939W        W94305  40.455  20.766   4.681
32940W        W94306  18.272  24.484   2.720
32941W        W94307  37.504  44.430   0.942
32942W        W94308   8.284   2.949   1.734
32943W        W94309  30.488  28.456  10.562
32944W        W94310  38.463  42.779  13.492
32945W        W94311  40.383  18.121   1.312
32946W        W94312  18.277   5.908   4.331
32947W        W94313  31.577   1.264  14.361
32948W        W94314  38.326  18.209  10.463
32949W        W94315   8.300  21.698   4.264
32950W        W94316  44.492  42.836   0.331
32951W        W94317  19.552  13.825  14.389
32952W        W94318   0.369   1.745  12.023
32953W        W94319  42.949  25.993  13.907
32954W        W94320  37.482  43.901  13.915
32955W        W94321  24.084   4.398  10.612
32956W        W94322   4.926   2.408   2.371
32957W        W94323  38.517  39.389   0.838
32958W        W94324  19.280  23.992  13.872
32959W        W94325  22.666   4.717  13.537
32960W        W94326   9.202   1.813  11.125
32961W        W94327   5.790  12.823  14.989
32962W        W94328  17.724   9.796  12.933
32963W        W94329  42.463  44.293  12.086
32964W        W94330  26.022  18.724  12.034
32965W        W94331  19.753   6.853   2.318
32966W        W94332  39.045   2.899  12.371
32967W        W94333  35.434  40.893  11.876
32968W        W94334  32.951  12.841   2.757
32969W        W94335   4.429  32.052  11.951
32970W        W94336  44.262  14.733   1.897
32971W        W94337  37.950  27.662   4.779
32972W        W94338  35.076  28.095  11.468
32973W        W94339   9.220   2.445  11.939
32974W        W94340   2.802  37.845   1.376
32975W        W94341  20.203  25.695   0.466
32976W        W94342   2.316  23.641   3.748
32977W        W94343  37.066   7.306  12.491
32978W        W94344  10.830   8.257  10.887
32979W        W94345  12.296  12.198   4.152
32980W        W94346   1.859   0.344   4.748
32981W        W94347  42.519  20.171   0.862
32982W        W94348   7.390  21.153  11.868
32983W        W94349  18.681  16.810  12.978
32984W        W94350  21.590  32.141   0.878
32985W        W94351  15.665  35.030  10.541
32986W        W94352   6.221  33.080   2.291
32987W        W94353  39.962  10.202  11.878
32988W        W94354   7.248  14.644   1.250
32989W        W94355  35.370  36.511  11.549
32990W        W94356   4.351  17.745   0.274
32991W        W94357  25.556  43.417  12.844
32992W        W94358   8.723  41.965  12.339
32993W        W94359  30.152   2.317  11.045
32994W        W94360   4.746  27.559   4.308
32995W        W94361   3.811  19.669   3.683
32996W        W94362  42.874  31.061  10.987
32997W        W94363  38.369   0.454   1.895
32998W        W94364  11.152  24.693   0.294
32999W        W94365  44.861  36.387  14.505
33000W        W94366  21.571  20.665  12.463
33001W        W94367  31.480   3.219   2.889
33002W        W94368  11.622   2.739   4.606
33003W        W94369  32.955  41.527  10.555
33004W        W94370  12.709  17.098   2.343
33005W        W94371  11.691  37.083  13.482
33006W        W94372  12.127  31.013  13.861
33007W        W94373  29.134   5.402   3.275
33008W        W94374  20.186  27.998   3.805
33009W        W94375  23.984  30.137  14.357
33010W        W94376  39.498   0.852  11.105
33011W        W94377  17.098  36.051   1.219
33012W        W94378  35.427  31.516  13.887
33013W        W94379   5.347   5.311   4.625
33014W        W94380  24.582   6.718   4.198
33015W        W94381  18.293  12.772  13.539
33016W        W94382  30.646  23.500   3.762
33017W        W94383   4.848   9.707   1.316
33018W        W94384  17.244  43.893  13.546
33019W        W94385  25.011  13.758   0.727
33020W        W94386  43.458  41.421  12.367
33021W        W94387  20.556   0.322  10.914
33022W        W94388  14.821  36.561  12.568
33023W        W94389  13.224  39.454  11.862
33024W        W94390  10.313  16.622   3.317
33025W        W94391  34.487  43.914   0.282
33026W        W94392  38.827  41.026   0.257
33027W        W94393  37.866  10.251  13.982
33028W        W94394  14.823  11.762   1.851
33029W        W94395  38.910   9.698   1.314
33030W        W94396   5.880  19.139  13.838
33031W        W94397   5.418  23.734   4.614
33032W        W94398  23.186  18.768  11.406
33033W        W94399  13.311  41.961   3.200
33034W        W94400  20.563  12.640   0.424
33035W        W94401  28.598   9.816   3.643
33036W        W94402   3.833   8.403  10.936
33037W        W94403   4.794  13.781   2.844
33038W        W94404   5.398  30.075  10.995
33039W        W94405  19.771  39.354   3.847
33040W        W94406  37.880  19.581   2.775
33041W        W94407  41.349  17.652   4.155
33042W        W94408  31.931  37.992   0.308
33043W        W94409   2.384   2.399   2.833
33044W        W94410  15.153  36.428   9.468
33045W        W94411  19.552  12.245   3.690
33046W        W94412  12.843  15.619   4.272
33047W        W94413   7.858  12.751   4.209
33048W        W94414  20.580  11.834   1.875
33049W        W94415  19.568  34.055  11.886
33050W        W94416   6.811  13.668  14.927
33051W        W94417   0.968   7.698   1.796
33052W        W94418  22.183  43.995  11.543
33053W        W94419  44.408  43.782  13.967
33054W        W94420   1.965   1.865   2.309
33055W        W94421  15.253  16.191   2.320
33056W        W94422  17.102  39.397   0.801
33057W        W94423  33.943  44.377   2.742
33058W        W94424   9.208  38.433  12.519
33059W        W94425   3.385  16.678   5.655
33060W        W94426   4.924  17.752  11.059
33061W        W94427  26.182  27.016  12.425
33062W        W94428  26.558   8.751   4.257
33063W        W94429  34.394  23.219   2.668
33064W        W94430  24.219  32.945   4.171
33065W        W94431  21.212   5.751   4.271
33066W        W94432  21.596  38.033   1.350
33067W        W94433  29.159  44.324  14.354
33068W        W94434  26.196  28.017   3.701
33069W        W94435  26.189   5.928   4.692
33070W        W94436  14.296  14.273   2.765
33071W        W94437  41.919  16.647  10.522
33072W        W94438   3.804  35.392  14.468
33073W        W94439   4.382  26.181  12.902
33074W        W94440  10.719  44.936   0.810
33075W        W94441   3.939  27.035   1.853
33076W        W94442  34.579  11.371  10.448
33077W        W94443  40.540  18.145   0.464
33078W        W94444   8.307  32.613   4.618
33079W        W94445  27.950  37.408  14.463
33080W        W94446   3.812   4.708   4.837
33081W        W94447  33.425  43.434  10.910
33082W        W94448   2.857   1.949   0.909
33083W        W94449  30.087   4.228   2.276
33084W        W94450  14.680  13.797   2.257
33085W        W94451  40.347  11.625   4.624
33086W        W94452  22.718  10.340   0.414
33087W        W94453  31.437  38.400   3.231
33088W        W94454  13.719  25.695   3.728
33089W        W94455   6.421  14.241  13.031
33090W        W94456  28.605   0.821   3.722
33091W        W94457  19.255  43.979   3.171
33092W        W94458  38.981  33.580   3.770
33093W        W94459   6.347  37.026   1.887
33094W        W94460  34.437  15.821   2.322
33095W        W94461  35.926  29.457  11.121
33096W        W94462  26.209  36.081   4.174
33097W        W94463  19.583  17.567  11.058
33098W        W94464  10.842  43.506  13.361
33099W        W94465  25.611  23.181   3.219
33100W        W94466  17.212   9.250   1.802
33101W        W94467  16.085   0.892  13.316
33102W        W94468   4.855  30.083  12.917
33103W        W94469  25.695  21.582  13.409
33104W        W94470  38.000  20.087  11.889
33105W        W94471  27.526  43.819   2.829
33106W        W94472  31.076   8.841  12.519
33107W        W94473  44.299   4.396   2.704
33108W        W94474  41.336   1.244   0.784
33109W        W94475  25.057  41.858  12.076
33110W        W94476  18.709  21.180   1.394
33111W        W94477  26.084  42.783   3.216
33112W        W94478   9.314  41.519  13.546
33113W        W94479   3.762  35.367   2.899
33114W        W94480  23.196   8.697   0.900
33115W        W94481   6.900   3.247  12.991
33116W        W94482  14.330  27.127   4.608
33117W        W94483  15.299  35.540   1.335
33118W        W94484   3.221  40.377   4.296
33119W        W94485  21.750   7.761  12.956
33120W        W94486  42.964  34.066   2.682
33121W        W94487  30.498   9.832   3.147
33122W        W94488  24.114  29.496  12.437
33123W        W94489  41.815   2.900   3.822
33124W        W94490  20.139  11.315  11.592
33125W        W94491  23.662  35.570   5.192
33126W        W94492  30.148   1.778  11.109
33127W        W94493  44.957  30.138  11.888
33128W        W94494  33.094  38.945  12.499
33129W        W94495  15.782  19.218   1.834
33130W        W94496  33.456  20.066  12.934
33131W        W94497   6.710  10.203  13.512
33132W        W94498   4.391   3.797   3.186
33133W        W94499  41.328  43.846  13.326
33134W        W94500  32.012  26.573   1.888
33135W        W94501  16.293  44.352  12.565
33136W        W94502  24.158  23.687   0.771
33137W        W94503   1.278  25.649   1.226
33138W        W94504  12.300  35.552  13.852
33139W        W94505  25.999  34.906   3.203
33140W        W94506   6.839   8.253  14.309
33141W        W94507  33.000  43.797   4.253
33142W        W94508   6.790  31.407   0.433
33143W        W94509  12.356  40.965  12.430
33144W        W94510  38.032  30.946  12.085
33145W        W94511  17.647  14.195   3.837
33146W        W94512  38.451  40.407  12.526
33147W        W94513  32.549  33.035  13.927
33148W        W94514  31.068   9.681   0.798
33149W        W94515  34.477  30.515   2.184
33150W        W94516  12.283  17.242  10.535
33151W        W94517  34.064  39.931  12.833
33152W        W94518  29.668   1.475   1.212
33153W        W94519  33.016  27.160   1.334
33154W        W94520  33.106  23.090  10.069
33155W        W94521  33.923   1.361  14.869
33156W        W94522  27.497  19.677   2.678
33157W        W94523  36.474  11.866  14.877
33158W        W94524   3.347  29.074  10.943
33159W        W94525   9.277   9.740   2.234
33160W        W94526  12.817   8.286  11.983
33161W        W94527  35.042  12.288   1.269
33162W        W94528  11.699  40.424  10.136
33163W        W94529   1.451  20.169   4.798
33164W        W94530  11.297  23.708  11.479
33165W        W94531  41.507   6.822  10.929
33166W        W94532   4.703   2.810  14.862
33167W        W94533  32.604  35.079  13.419
33168W        W94534  26.683  37.927  13.882
33169W        W94535   4.232   3.215   2.406
33170W        W94536  24.132  29.495  11.918
33171W        W94537  35.436  20.599  11.982
33172W        W94538   2.434  25.628   4.801
33173W        W94539   5.789  23.729   4.178
33174W        W94540  26.512   5.930   1.238
33175W        W94541  18.273  43.897   0.838
33176W        W94542   7.239  15.711  11.591
33177W        W94543  22.072   0.393  13.483
33178W        W94544  12.219   4.433  12.064
33179W        W94545  40.841  21.126  14.845
33180W        W94546  42.922  25.114  12.458
33181W        W94547  31.965   6.799   2.898
33182W        W94548  20.256  14.758   4.285
33183W        W94549  25.078  31.015  13.930
33184W        W94550   9.827   7.316  11.508
33185W        W94551   5.857  24.589   2.795
33186W        W94552  40.364   2.832  13.945
33187W        W94553  42.817   8.757  10.914
33188W        W94554  22.244  30.095  11.564
33189W        W94555   2.453  37.035   1.922
33190W        W94556  43.872   3.713  12.894
33191W        W94557  18.246  23.193   2.725
33192W        W94558  19.083  33.965   3.295
33193W        W94559  24.082  20.728   4.352
33194W        W94560  29.139  20.202  14.814
33195W        W94561  33.040  19.592   0.377
33196W        W94562  34.576  43.323  10.152
33197W        W94563  20.120  21.578   1.699
33198W        W94564  36.448  35.917  14.298
33199W        W94565   7.683  35.373  11.982
33200W        W94566  31.951  13.308  11.591
33201W        W94567  29.017  14.232   0.880
33202W        W94568   6.840  41.018  14.494
33203W        W94569  36.852  31.506   4.690
33204W        W94570  21.642  19.277   2.709
33205W        W94571  44.826  20.238   0.385
33206W        W94572  14.246   8.729  11.500
33207W        W94573  26.058  16.106   1.321
33208W        W94574  30.958  24.141   5.238
33209W        W94575  24.092  12.318   2.377
33210W        W94576   6.772   2.855   3.789
33211W        W94577  26.107  37.008   1.780
33212W        W94578  27.509  30.526   4.772
33213W        W94579   5.220  29.974  11.494
33214W        W94580   9.391  11.664  12.523
33215W        W94581  28.648  37.578  12.448
33216W        W94582  40.546  12.307  13.403
33217W        W94583  21.557   3.311   3.228
33218W        W94584   9.769   4.292   3.326
33219W        W94585  23.098  11.339   2.785
33220W        W94586  25.514   0.257  13.414
33221W        W94587  25.044  20.252  13.379
33222W        W94588  33.545   7.276   0.378
33223W        W94589  39.973  16.756  13.465
33224W        W94590  17.640   5.693   0.853
33225W        W94591  27.945  31.402   3.168
33226W        W94592  37.494   5.363  11.098
33227W        W94593  41.838  20.260   1.712
33228W        W94594  14.679  23.582   0.919
33229W        W94595   5.719  28.103   3.650
33230W        W94596  34.457  33.553   1.883
33231W        W94597   6.897   3.252  11.899
33232W        W94598  32.557  25.646  10.604
33233W        W94599  43.783   2.380   0.374
33234W        W94600   2.305   8.800  11.047
33235W        W94601  25.001  41.947  13.921
33236W        W94602  18.685   2.373   1.416
33237W        W94603  31.007   8.799  13.486
33238W        W94604  31.144  27.054   4.233
33239W        W94605  31.141  26.194  11.423
33240W        W94606  44.849   4.266   3.822
33241W        W94607  31.974  39.027  14.499
33242W        W94608  10.654  21.576   2.411
33243W        W94609   7.797  26.102   0.953
33244W        W94610  36.580  37.422   5.084
33245W        W94611  27.613  33.925  14.856
33246W        W94612   3.361  41.316  10.492
33247W        W94613   9.383  14.139   2.713
33248W        W94614  11.797  33.560  10.501
33249W        W94615  14.693  39.983  14.890
33250W        W94616  20.756  32.563   4.825
33251W        W94617  30.654  19.703   1.328
33252W        W94618   3.744   4.409   1.869
33253W        W94619  10.848  14.828  13.446
33254W        W94620  17.560  27.187  11.973
33255W        W94621  27.590  36.353   2.326
33256W        W94622  19.760  27.483  14.972
33257W        W94623   9.291  18.222  12.078
33258W        W94624  33.406  41.838  10.598
33259W        W94625  15.265  14.764   1.839
33260W        W94626  44.277  10.853  15.000
33261W        W94627  38.418   2.890   0.903
33262W        W94628  37.401   7.202   0.780
33263W        W94629  40.998  30.143  11.989
33264W        W94630  18.709  20.234   3.829
33265W        W94631  23.702  42.382   1.215
33266W        W94632  30.931  34.896  12.488
33267W        W94633   0.481  31.554  13.012
33268W        W94634  26.660  25.201  14.463
33269W        W94635   6.747  38.393  12.859
33270W        W94636  20.090   4.303  11.880
33271W        W94637  18.676  37.467  11.495
33272W        W94638  28.455   5.830  14.400
33273W        W94639  40.546   6.707  14.279
33274W        W94640  23.624  19.745  14.287
33275W        W94641   1.478  42.971  14.859
33276W        W94642  38.831  44.919  13.865
33277W        W94643   4.700  24.505  14.954
33278W        W94644  30.935  24.016   0.451
33279W        W94645  22.501   1.836  13.978
33280W        W94646  20.613   0.458  11.603
33281W        W94647  43.326  10.153  10.645
33282W        W94648   7.754   3.897  12.420
33283W        W94649  17.081  34.024   2.314
33284W        W94650  31.135  31.904  13.836
33285W        W94651  35.429  26.538   2.768
33286W        W94652  22.573  19.594  14.901
33287W        W94653   3.842   4.915   3.332
33288W        W94654  14.167  28.064  12.378
33289W        W94655  35.552  36.852   0.274
33290W        W94656  32.392  12.213   3.820
33291W        W94657  22.094   5.336  13.049
33292W        W94658  26.506  36.049  13.415
33293W        W94659   5.296  31.091  12.972
33294W        W94660  12.677  16.089   2.862
33295W        W94661  38.914  28.469   2.398
33296W        W94662  23.069  15.100  14.395
33297W        W94663  24.977  36.453   2.295
33298W        W94664  25.633  30.000   0.340
33299W        W94665  16.807   6.884   1.889
33300W        W94666  37.848  11.302  13.515
33301W        W94667  24.664  23.681  14.402
33302W        W94668  16.146  29.945   2.294
33303W        W94669   3.935   1.309  14.473
33304W        W94670  36.932  43.275   4.344
33305W        W94671  27.079  18.056  10.515
33306W        W94672  36.865  20.114  14.798
33307W        W94673  36.998   4.818  13.941
33308W        W94674   8.840  23.591  14.394
33309W        W94675  10.667  27.995  14.997
33310W        W94676   5.257  13.246  10.425
33311W        W94677  43.859   6.919  10.540
33312W        W94678  32.937  22.631   4.225
33313W        W94679   5.836   7.204   0.242
33314W        W94680  19.240  37.571   1.730
33315W        W94681  37.481  29.942  12.908
33316W        W94682  22.073   8.712  12.873
33317W        W94683  13.661  26.685   4.341
33318W        W94684  36.958  15.737  11.896
33319W        W94685  16.234  39.537   3.698
33320W        W94686  39.950  14.801   3.285
33321W        W94687   3.459  15.711   1.731
33322W        W94688   1.784  41.383   2.316
33323W        W94689  33.044   4.348  13.328
33324W        W94690  23.198  25.555  14.347
33325W        W94691  40.390  15.761  14.316
33326W        W94692  34.104  33.561   2.412
33327W        W94693   7.341   8.321  10.441
33328W        W94694   8.721   5.808  13.340
33329W        W94695  12.226  33.031   2.318
33330W        W94696  35.520  14.237  11.056
33331W        W94697  14.114  20.103  10.594
33332W        W94698  21.080  37.047  12.983
33333W        W94699  23.647   1.300   1.314
33334W        W94700  28.646  14.622   0.772
33335W        W94701  36.979  25.996   4.777
33336W        W94702  30.499  10.227   3.769
33337W        W94703  41.994   5.358  12.391
33338W        W94704  31.406  11.243  13.852
33339W        W94705  28.465   6.192   3.368
33340W        W94706   3.239  36.991  12.526
33341W        W94707  24.578  15.155  13.441
33342W        W94708  34.092   1.937  10.452
33343W        W94709  35.082   9.680  12.027
33344W        W94710  34.950  25.575   0.818
33345W        W94711  31.474  28.611  12.966
33346W        W94712  20.073  31.492  12.943
33347W        W94713  16.619  14.759   2.315
33348W        W94714  28.576  38.373  13.376
33349W        W94715  29.033  27.973   2.321
33350W        W94716  31.504  14.186   0.265
33351W        W94717  19.108  24.627  10.486
33352W        W94718  44.505  15.605   5.123
33353W        W94719   2.461  23.726  13.465
33354W        W94720  13.767  13.762   2.344
33355W        W94721  29.455  26.611   5.104
33356W        W94722  13.798  35.865  12.565
33357W        W94723   6.838  38.571  11.999
33358W        W94724  29.533   0.783   2.183
33359W        W94725  15.135   5.732  10.444
33360W        W94726  28.551   6.402  12.900
33361W        W94727   4.385  37.082  11.088
33362W        W94728  38.387  31.970   3.150
33363W        W94729  29.161  28.038  12.936
33364W        W94730  38.061  42.945  12.514
33365W        W94731  11.141  24.556   2.758
33366W        W94732  26.459  31.006  10.635
33367W        W94733  12.353   5.219  12.053
33368W        W94734  40.480  18.783   0.443
33369W        W94735  27.613  15.815  10.431
33370W        W94736  36.056  27.940   0.306
33371W        W94737  33.967  30.479   1.841
33372W        W94738   4.748  43.920   1.865
33373W        W94739   9.360  18.090  11.471
33374W        W94740  43.470  35.006  14.822
33375W        W94741  13.296  21.532   0.921
33376W        W94742  33.388  27.022   3.680
33377W        W94743   7.171   5.905   3.173
33378W        W94744  33.501  11.162  14.297
33379W        W94745  30.060  29.153   3.209
33380W        W94746  29.466  28.575   2.901
33381W        W94747  23.536   8.828  10.967
33382W        W94748  34.865  36.972   3.316
33383W        W94749  33.924  22.088  10.424
33384W        W94750  39.435  28.016  13.445
33385W        W94751   2.885  37.012   3.710
33386W        W94752  37.977   6.285   4.253
33387W        W94753  13.619  44.268   1.895
33388W        W94754  10.823  41.034   0.336
33389W        W94755  42.789  14.286   4.642
33390W        W94756  27.176  32.891  11.512
33391W        W94757  43.919  43.435  14.460
33392W        W94758  42.324  34.959  10.532
33393W        W94759  32.595  25.213  12.557
33394W        W94760  38.043  25.192   0.834
33395W        W94761  23.500  35.404   3.819
33396W        W94762  36.501  34.499   0.270
33397W        W94763  32.067  18.709   4.204
33398W        W94764  27.674   2.379  10.944
33399W        W94765  20.556  39.911   2.222
33400W        W94766  30.506  33.423  12.430
33401W        W94767   7.824   6.894   4.792
33402W        W94768  13.761  10.879  14.415
33403W        W94769  38.406   4.340  12.551
33404W        W94770  34.459  17.085   1.797
33405W        W94771  32.116  33.452  11.562
33406W        W94772  27.125  12.308   1.909
33407W        W94773  16.589  28.958  13.308
33408W        W94774  40.038  28.607   0.307
33409W        W94775  27.654  39.396   1.422
33410W        W94776  26.688  16.641  10.409
33411W        W94777  30.537  23.575   4.643
33412W        W94778  42.923  17.302  11.860
33413W        W94779  39.433  11.284   0.956
33414W        W94780   1.895   3.326   5.228
33415W        W94781  32.503  14.116  13.475
33416W        W94782  12.617  33.930  13.036
33417W        W94783  39.480  20.658   1.430
33418W        W94784  18.261  10.828  11.958
33419W        W94785  17.198   9.203   4.273
33420W        W94786  32.442   0.767   0.813
33421W        W94787  28.504  32.889   1.239
33422W        W94788  41.313  16.570   4.772
33423W        W94789  23.546   1.357  10.558
33424W        W94790  14.123  42.331  14.359
33425W        W94791  33.393   2.238   2.876
33426W        W94792  37.851  37.945  13.019
33427W        W94793  38.869  37.855  11.096
33428W        W94794  19.681  30.488  11.961
33429W        W94795  40.998  16.780   1.436
33430W        W94796  38.912  38.955   5.168
33431W        W94797  11.231  24.100   4.705
33432W        W94798  37.865  28.595  14.382
33433W        W94799  43.287  12.221   2.859
33434W        W94800   5.437  40.844  14.274
33435W        W94801  17.788  43.428  11.518
33436W        W94802  33.488  27.685  13.993
33437W        W94803  14.740  40.402   3.167
33438W        W94804  24.116  34.024  14.975
33439W        W94805  38.911  41.517  10.012
33440W        W94806  30.941  40.362  13.318
33441W        W94807  34.941   6.312  13.476
33442W        W94808  40.495  19.744  10.984
33443W        W94809  32.500  25.175   0.362
33444W        W94810  42.484  43.971   2.694
33445W        W94811  17.244  30.020  12.454
33446W        W94812  43.953  42.920   3.691
33447W        W94813   3.349  14.629  11.494
33448W        W94814  37.488   5.350  12.925
33449W        W94815   4.218  31.405   0.888
33450W        W94816   0.861   2.361  11.033
33451W        W94817   3.457  27.141   2.237
33452W        W94818   8.324  11.274   2.218
33453W        W94819  35.051   1.343  14.941
33454W        W94820  33.023   7.347  11.598
33455W        W94821  26.006  27.608  14.822
33456W        W94822   4.359  15.272   5.789
33457W        W94823  28.941  15.686  12.484
33458W        W94824   2.759  22.075   1.925
33459W        W94825  39.989  15.134  11.118
33460W        W94826   3.329  14.278  14.360
33461W        W94827   2.456  24.613   3.296
33462W        W94828  38.050  19.700  10.935
33463W        W94829  25.989  41.440   4.661
33464W        W94830  19.619  20.755  12.057
33465W        W94831  29.564   1.439  13.519
33466W        W94832  27.474  42.385  10.974
33467W        W94833  13.131  13.252  10.520
33468W        W94834  42.846  39.355  13.016
33469W        W94835  42.908   9.738   4.150
33470W        W94836  32.432  34.558   3.855
33471W        W94837  33.426   1.419  12.068
33472W        W94838  31.416  38.833   4.635
33473W        W94839   3.347  23.141   0.243
33474W        W94840  25.493  22.535   1.254
33475W        W94841  16.230  14.149   3.364
33476W        W94842   8.829   5.336   4.830
33477W        W94843  19.094  16.109   4.144
33478W        W94844  40.334   5.336  12.459
33479W        W94845  28.651  13.840   0.293
33480W        W94846  37.340   0.337  13.440
33481W        W94847  26.063   2.898  14.978
33482W        W94848  26.972  43.462  11.006
33483W        W94849  41.969  31.131   1.447
33484W        W94850  43.005  23.040   0.804
33485W        W94851  15.275  36.431   2.346
33486W        W94852  44.869  19.116   3.197
33487W        W94853  31.411  16.243  11.493
33488W        W94854  44.950  37.513   1.862
33489W        W94855   9.282  42.352   1.380
33490W        W94856  35.397  33.065   1.829
33491W        W94857   5.205   6.838   0.929
33492W        W94858  38.876  34.922   3.732
33493W        W94859  23.658  36.557   1.269
33494W        W94860   9.279  14.764   4.263
33495W        W94861  37.502  14.818   2.886
33496W        W94862  37.001   4.368  13.961
33497W        W94863  30.132  31.469   2.388
33498W        W94864  30.016  25.107  14.382
33499W        W94865   7.391  12.222  10.516
33500W        W94866  12.309   8.788   1.764
33501W        W94867  22.600   2.378  11.457
33502W        W94868  34.505  19.726  13.848
33503W        W94869  28.530  37.379   0.448
33504W        W94870   9.763  35.432  12.836
33505W        W94871  43.342  21.704  13.408
33506W        W94872   2.925  27.515  13.309
33507W        W94873   6.857  30.609  13.523
33508W        W94874  27.644  11.747   4.160
33509W        W94875  20.765  30.656   4.806
33510W        W94876  43.996   2.396  12.507
33511W        W94877  28.574  37.899   3.708
33512W        W94878  22.127  24.482   3.805
33513W        W94879  41.329  20.274   2.178
33514W        W94880  28.183   7.303  13.543
33515W        W94881   5.372  13.698  10.009
33516W        W94882   5.383   0.390  12.883
33517W        W94883  23.654   3.457   2.765
33518W        W94884  23.026  10.176  11.981
33519W        W94885   3.794  19.223   3.645
33520W        W94886   4.349  26.002  14.361
33521W        W94887  14.316  34.448   2.821
33522W        W94888   4.823  13.300  13.983
33523W        W94889  13.205  43.455  10.990
33524W        W94890  38.069   4.768  10.482
33525W        W94891  27.128  34.549   1.730
33526W        W94892  13.799  14.255   4.174
33527W        W94893  15.312  11.750   0.836
33528W        W94894  12.727  36.956   1.780
33529W        W94895  26.059  35.441  11.965
33530W        W94896  39.503   7.775  12.567
33531W        W94897  22.524   6.386  13.902
33532W        W94898  37.374  28.160   1.842
33533W        W94899   3.720   8.716   1.280
33534W        W94900  39.038  28.018  13.909
33535W        W94901  32.391  24.067  13.366
33536W        W94902  44.332  27.000   2.844
33537W        W94903  38.570  16.270   1.354
33538W        W94904  36.867  25.618  11.069
33539W        W94905  14.747  33.993  13.545
33540W        W94906   4.908  18.716  12.568
33541W        W94907  35.041   3.353  11.976
33542W        W94908  15.101  42.960   4.179
33543W        W94909  31.569  32.906  13.407
33544W        W94910  18.150  39.906   2.338
33545W        W94911   4.343  31.922  14.997
33546W        W94912  16.178  20.763   3.192
33547W        W94913   2.815   1.751  10.568
33548W        W94914  41.363   8.178  12.063
33549W        W94915   3.222   2.435  10.951
33550W        W94916   7.348  33.491  12.577
33551W        W94917  40.900  29.645  12.500
33552W        W94918  39.027  16.763  12.845
33553W        W94919  38.049  35.572  14.943
33554W        W94920  24.021  13.660  14.484
33555W        W94921   5.697  40.996   4.640
33556W        W94922  16.654  29.526  11.521
33557W        W94923  42.024   5.773   2.770
33558W        W94924  34.032  12.722   4.230
33559W        W94925   1.971   5.359   3.736
33560W        W94926  10.808  35.507  14.382
33561W        W94927  23.660  40.305  12.339
33562W        W94928   3.820   2.255  12.453
33563W        W94929  14.310   5.822  10.636
33564W        W94930  21.203  18.765  11.430
33565W        W94931  38.833  23.207   3.661
33566W        W94932  38.932  41.469  13.874
33567W        W94933  11.185  31.447  14.767
33568W        W94934  27.481  43.338  11.014
33569W        W94935  32.959  24.489   4.620
33570W        W94936  43.802  42.990   4.230
33571W        W94937  34.094  36.868  11.532
33572W        W94938  14.178  28.638   0.787
33573W        W94939  36.885  16.214   1.696
33574W        W94940  22.726  20.172   3.802
33575W        W94941  16.290  31.548   1.442
33576W        W94942  30.488  42.903  11.540
33577W        W94943  33.878  41.930   2.378
33578W        W94944  30.926  23.038  13.816
33579W        W94945  11.668  31.647   0.756
33580W        W94946   8.683   0.852   3.831
33581W        W94947   5.727  37.525   1.234
33582W        W94948  42.874  38.930   2.682
33583W        W94949  16.166  28.625   3.194
33584W        W94950  40.830  31.911  11.383
33585W        W94951   3.320  25.101   2.310
33586W        W94952   0.339   4.236   3.689
33587W        W94953   0.399  21.134  11.929
33588W        W94954   7.327  11.762  12.363
33589W        W94955  40.999  44.933   2.248
33590W        W94956  30.990  32.895   3.853
33591W        W94957  42.806  17.771   3.825
33592W        W94958  42.941  16.162   4.814
33593W        W94959  30.526  37.029  11.991
33594W        W94960  43.451  15.780   3.668
33595W        W94961  37.903  11.321   1.859
33596W        W94962   4.353  15.785   0.783
33597W        W94963  23.062   9.383   2.746
33598W        W94964  25.542  21.260   1.722
33599W        W94965  19.713  19.593  13.824
33600W        W94966   6.202  31.980  10.096
33601W        W94967  12.803   3.724  11.944
33602W        W94968  42.908  40.373  14.869
33603W        W94969  25.712  37.052   4.739
33604W        W94970  19.054  41.965  11.435
33605W        W94971  23.550  29.064  13.851
33606W        W94972  30.531  43.271  14.390
33607W        W94973  31.931  33.007   4.752
33608W        W94974  20.180  21.733  10.557
33609W        W94975  26.598   9.829  13.823
33610W        W94976  42.023   8.344   3.161
33611W        W94977   6.364  40.890  13.010
33612W        W94978  19.155  36.860   1.252
33613W        W94979  39.999  11.782   3.787
33614W        W94980   0.975  19.703  10.504
33615W        W94981   7.295  24.182  14.460
33616W        W94982  18.698  14.338   4.688
33617W        W94983  14.687  13.669  13.021
33618W        W94984  18.062  11.196   4.266
33619W        W94985  15.806  37.495  13.308
33620W        W94986  40.014  12.643  13.420
33621W        W94987  13.195  41.947  10.982
33622W        W94988  18.280   9.708  11.467
33623W        W94989  34.438   2.936  11.001
33624W        W94990  11.645   0.945  11.008
33625W        W94991  31.144  20.689  14.842
33626W        W94992  22.180  31.008   3.638
33627W        W94993  32.921  10.156  12.858
33628W        W94994  20.628  22.153   4.728
33629W        W94995  37.442  14.706   0.249
33630W        W94996   8.823  25.499   3.261
33631W        W94997  17.117   5.874   4.712
33632W        W94998  18.286  10.178  14.349
33633W        W94999  41.947  37.965   1.720
33634W        W95000  36.916  42.316  13.968
33635W        W95001   0.434  31.092   3.258
33636W        W95002   5.439  24.126   3.146
33637W        W95003   7.329  18.767   3.721
33638W        W95004  11.650   5.857  12.834
33639W        W95005  40.375  23.588  14.337
33640W        W95006  27.669  25.655  13.832
33641W        W95007  30.566   9.362  10.570
33642W        W95008  17.133   6.249   2.373
33643W        W95009   2.827  32.518  12.823
33644W        W95010  34.894  30.499  13.031
33645W        W95011  41.361  27.637  14.976
33646W        W95012  13.311  44.341  11.047
33647W        W95013   9.719  18.158  14.367
33648W        W95014  11.634  36.953   3.255
33649W        W95015  39.513  21.557  10.449
33650W        W95016  32.512  23.715  11.477
33651W        W95017  15.154   0.355   3.365
33652W        W95018  30.501  40.541   5.250
33653W        W95019  40.429  32.555   0.750
33654W        W95020   9.725  38.929   1.422
33655W        W95021   2.762  15.128   1.267
33656W        W95022  19.216  31.565  13.799
33657W        W95023  43.327  21.037  14.762
33658W        W95024   2.928  21.636   1.411
33659W        W95025   1.776  35.397  10.968
33660W        W95026  35.586  34.060  11.865
33661W        W95027  36.439  22.553  10.060
33662W        W95028  36.985  18.076  11.026
33663W        W95029  24.479  37.961   3.694
33664W        W95030  37.480  36.861   2.361
33665W        W95031  36.001  43.998  12.828
33666W        W95032  21.724   6.721   3.737
33667W        W95033  31.991  30.156  12.035
33668W        W95034  43.279  42.011   4.271
33669W        W95035  21.118  18.767  14.923
33670W        W95036  17.735  41.044  10.469
33671W        W95037  27.002   7.891   2.803
33672W        W95038   0.981  17.261   1.727
33673W        W95039  23.114   2.454   9.567
33674W        W95040  19.733   7.414   1.328
33675W        W95041  43.411  38.404   1.448
33676W        W95042  24.109  22.529  10.619
33677W        W95043  34.457   6.923  12.833
33678W        W95044   0.977  11.224   4.129
33679W        W95045   0.821  42.022   1.757
33680W        W95046  25.089  42.417  10.569
33681W        W95047  38.996  41.480  12.573
33682W        W95048  30.422   7.757   1.712
33683W        W95049  43.906   5.897  14.363
33684W        W95050  13.134  36.424   4.133
33685W        W95051  20.527  36.372  13.938
33686W        W95052  17.621  44.381  13.991
33687W        W95053  28.957   1.423  14.777
33688W        W95054   9.171  30.591   4.327
33689W        W95055  15.812  36.430  13.059
33690W        W95056  26.544  20.536  12.396
33691W        W95057  28.109  35.513  10.600
33692W        W95058  27.990  44.891  13.057
33693W        W95059  33.618  23.058   0.384
33694W        W95060  23.632   7.264   4.665
33695W        W95061  27.588  42.828   4.804
33696W        W95062  43.858  33.033  12.825
33697W        W95063  13.816  35.482  10.956
33698W        W95064  17.695  31.431  12.943
33699W        W95065  23.735  34.429   3.228
33700W        W95066   5.837  41.519  13.445
33701W        W95067   3.933  39.046  11.084
33702W        W95068  12.660  38.043   0.394
33703W        W95069  19.283  23.179   2.845
33704W        W95070  43.775   5.738  13.982
33705W        W95071  29.951  29.132  12.089
33706W        W95072  19.207  22.645   0.755
33707W        W95073   7.251  20.752   4.353
33708W        W95074  23.240  10.353   0.824
33709W        W95075  42.519   6.915   0.754
33710W        W95076  16.786  20.578  10.433
33711W        W95077   5.788  11.250  12.406
33712W        W95078  37.087   5.897  10.608
33713W        W95079  36.521  31.531   1.868
33714W        W95080   6.705  29.992  11.905
33715W        W95081  35.524  16.743   3.218
33716W        W95082  33.012  29.109  14.426
33717W        W95083   2.844  38.825  13.318
33718W        W95084  30.629   3.239   0.272
33719W        W95085  22.098  43.417  13.938
33720W        W95086  10.293  37.050   0.790
33721W        W95087   5.853  40.862   1.934
33722W        W95088   4.432  42.946  14.984
33723W        W95089   0.476  22.735  10.993
33724W        W95090  44.449  24.139  13.008
33725W        W95091  13.165  39.863  11.870
33726W        W95092  38.027   0.370   1.371
33727W        W95093  43.406  27.045  12.053
33728W        W95094   6.279  38.961  13.454
33729W        W95095  44.887  35.372  11.921
33730W        W95096  44.914   7.789   0.415
33731W        W95097   2.834  41.325   3.195
33732W        W95098   1.414  14.318  14.504
33733W        W95099  43.365  13.740   1.446
33734W        W95100   8.175  23.197  13.464
33735W        W95101  20.200  33.078   2.263
33736W        W95102   7.403  28.041   4.834
33737W        W95103  25.671  12.760   0.367
33738W        W95104  25.014  29.570  11.877
33739W        W95105  16.746   4.775  11.927
33740W        W95106  31.414  21.111  12.426
33741W        W95107   4.413   3.873   0.936
33742W        W95108  21.143  19.061   2.233
33743W        W95109  42.333  21.246  13.830
33744W        W95110  36.579  42.868   2.869
33745W        W95111  30.076  20.117   1.829
33746W        W95112   9.312  41.910   1.852
33747W        W95113   8.330  36.890   3.368
33748W        W95114  16.656  11.694   4.347
33749W        W95115   4.404  42.423  14.916
33750W        W95116  43.505  35.909  14.010
33751W        W95117  26.681  28.631  13.939
33752W        W95118  12.730  39.959   4.649
33753W        W95119   5.797  14.196   2.262
33754W        W95120   3.746  27.054  12.903
33755W        W95121   7.274  24.087  13.320
33756W        W95122  44.987  36.369   1.750
33757W        W95123  28.040  39.878  14.316
33758W        W95124  43.502  34.426   1.833
33759W        W95125  17.177  21.157  13.832
33760W        W95126  11.371  21.084   2.219
33761W        W95127  21.080  18.733   1.848
33762W        W95128  20.530  27.469  11.531
33763W        W95129  12.287  23.553   4.235
33764W        W95130  40.866  25.645  14.456
33765W        W95131  22.159  26.077  13.338
33766W        W95132  14.827  44.973  14.925
33767W        W95133  39.969   9.702   4.785
33768W        W95134  24.090  20.184   1.798
33769W        W95135  23.230  28.654   4.690
33770W        W95136  36.544  17.557   0.951
33771W        W95137  27.146   1.744   0.253
33772W        W95138  42.918  36.415   0.830
33773W        W95139  10.366  19.256   2.736
33774W        W95140  29.536  29.068  11.552
33775W        W95141   6.855   1.349  13.329
33776W        W95142   0.930   6.372   3.312
33777W        W95143  20.063  44.840   3.843
33778W        W95144  34.014   1.308   1.886
33779W        W95145  26.988  36.909   3.766
33780W        W95146  16.776  35.464  11.966
33781W        W95147   1.363   0.419  12.392
33782W        W95148  15.688  30.472   4.320
33783W        W95149  27.949  30.920   5.740
33784W        W95150  35.025  11.272   3.809
33785W        W95151  11.841   1.351   4.210
33786W        W95152  34.885  39.486  13.363
33787W        W95153  17.722   5.747   1.390
33788W        W95154  11.226  22.590  10.539
33789W        W95155  24.085   9.272  11.906
33790W        W95156  29.540  41.305   4.776
33791W        W95157  44.828  37.011  12.381
33792W        W95158  30.464  35.928  14.963
33793W        W95159  33.430  17.297  14.293
33794W        W95160  31.153   0.326   1.726
33795W        W95161  25.212   3.773   0.834
33796W        W95162  44.380  29.958   4.173
33797W        W95163  23.591  33.043   3.852
33798W        W95164   5.228  10.160  13.880
33799W        W95165   3.738   5.900  13.046
33800W        W95166  44.266   3.388  11.409
33801W        W95167   0.849  29.638   1.740
33802W        W95168  31.623   4.322  14.331
33803W        W95169  33.962   3.379  13.022
33804W        W95170  13.713  21.151   2.348
33805W        W95171   9.741  14.781   2.881
33806W        W95172  38.537  44.298  14.759
33807W        W95173  39.503  21.053   1.852
33808W        W95174  40.838  25.507  13.474
33809W        W95175   8.721  29.129   4.233
33810W        W95176  40.377  32.410  13.508
33811W        W95177  35.361  29.081   3.642
33812W        W95178  42.313  12.632   3.760
33813W        W95179   5.309  42.482  12.046
33814W        W95180  25.497  21.262   2.229
33815W        W95181  14.319  40.547  11.091
33816W        W95182  44.932   2.387   3.820
33817W        W95183   5.806  16.307  11.095
33818W        W95184  40.479  39.503   0.388
33819W        W95185  25.057  24.114   2.718
33820W        W95186  10.178   2.948   2.307
33821W        W95187  37.434   2.845  12.419
33822W        W95188  37.409   0.859  10.626
33823W        W95189   3.870  22.706  12.872
33824W        W95190  41.990  15.219   2.750
33825W        W95191  11.826  24.641  11.889
33826W        W95192  38.010  19.204  14.356
33827W        W95193   0.488  41.956  13.997
33828W        W95194  38.366  28.095  10.932
33829W        W95195  37.505   1.465   0.851
33830W        W95196  36.567   0.796  12.386
33831W        W95197   2.721  14.743   1.842
33832W        W95198  30.014  13.843   0.278
33833W        W95199  40.826  28.468   1.353
33834W        W95200  12.264  19.100  11.120
33835W        W95201   2.752  31.981   2.816
33836W        W95202  18.065   5.699  10.889
33837W        W95203  42.837  30.943   0.366
33838W        W95204  37.899  18.690  13.495
33839W        W95205  30.655  43.974  12.454
33840W        W95206  21.733  12.735   0.827
33841W        W95207  44.283  24.097   3.824
33842W        W95208  36.962  24.109  14.455
33843W        W95209  23.682   7.336   3.727
33844W        W95210  34.015  40.364  13.974
33845W        W95211  17.192  44.307  12.095
33846W        W95212  35.447  42.422  10.970
33847W        W95213  31.058  26.497   4.126
33848W        W95214  10.812  36.437   4.700
33849W        W95215  23.014   3.803  11.461
33850W        W95216  26.962   0.881   0.799
33851W        W95217   5.217  27.650   0.898
33852W        W95218   4.800   4.701   1.893
33853W        W95219  22.534  41.340   0.386
33854W        W95220  10.662   6.315   3.718
33855W        W95221  16.741  18.289  11.996
33856W        W95222  25.566  15.322   1.749
33857W        W95223  17.621   8.830   4.303
33858W        W95224  32.895  42.399  14.412
33859W        W95225  15.191  34.085   2.884
33860W        W95226  11.272  26.576  11.608
33861W        W95227  24.568   3.922   2.663
33862W        W95228  15.727  31.644   0.726
33863W        W95229   1.289   7.392   4.756
33864W        W95230  41.433   5.695   1.278
33865W        W95231   4.850   3.727   3.769
33866W        W95232  16.755  17.258  12.382
33867W        W95233   1.787   3.310  12.025
33868W        W95234  31.632  18.702   1.704
33869W        W95235   8.348  32.056   3.313
33870W        W95236  13.191  30.928   0.746
33871W        W95237  18.602  14.225   3.766
33872W        W95238  43.326  21.637  12.356
33873W        W95239   3.909  33.389   9.980
33874W        W95240  15.721  31.988   3.366
33875W        W95241  22.662  37.957  11.485
33876W        W95242  36.898  18.604  12.526
33877W        W95243   9.802  38.351  11.504
33878W        W95244   2.460  12.766  11.076
33879W        W95245  36.352  11.728  12.934
33880W        W95246   3.424  18.251   2.219
33881W        W95247   7.761  34.397  11.859
33882W        W95248  37.000  18.575  11.949
33883W        W95249  25.468  18.791  13.378
33884W        W95250  11.318  22.054   1.392
33885W        W95251  44.360  19.052  14.899
33886W        W95252   6.386  24.085  12.399
33887W        W95253  43.281  42.868  12.949
33888W        W95254   0.798   8.351  12.547
33889W        W95255   2.789  30.540   1.360
33890W        W95256  42.905   0.981   1.741
33891W        W95257  20.068   6.419  11.980
33892W        W95258   0.309   3.285   1.910
33893W        W95259  16.159  21.109  14.880
33894W        W95260   1.460   1.846   4.191
33895W        W95261   9.724  38.897  12.958
33896W        W95262   4.219  33.606  12.919
33897W        W95263   8.663   7.351  14.404
33898W        W95264   8.812  21.543   0.266
33899W        W95265   6.693  29.593   0.861
33900W        W95266   5.317  13.693  10.567
33901W        W95267  13.304  40.494   3.169
33902W        W95268  24.076  43.857   4.153
33903W        W95269   9.691  40.953  11.046
33904W        W95270  15.639  26.991   2.690
33905W        W95271  43.993  32.982   4.171
33906W        W95272  17.216  28.076  14.357
33907W        W95273   5.795  33.066  11.984
33908W        W95274   0.917  16.683  10.622
33909W        W95275  17.617  18.052   1.353
33910W        W95276  42.784  27.525   0.413
33911W        W95277  33.968  24.073   1.411
33912W        W95278   5.304  29.661  12.497
33913W        W95279  24.137  36.989   2.419
33914W        W95280  11.725  13.307   2.762
33915W        W95281  28.476  25.506  14.476
33916W        W95282   7.747  40.879  13.327
33917W        W95283   8.892  40.991   2.786
33918W        W95284  13.244  16.137   1.243
33919W        W95285  22.232  29.492   0.244
33920W        W95286   2.909  17.139  10.622
33921W        W95287  11.857  33.976   3.796
33922W        W95288  35.875   0.450   3.694
33923W        W95289  41.436  18.655   4.768
33924W        W95290  19.575  12.223  14.434
33925W        W95291   1.481   3.861  13.799
33926W        W95292   7.799   9.217   3.819
33927W        W95293  25.128   2.278   4.288
33928W        W95294  33.448  37.424  10.066
33929W        W95295   5.811  17.288   0.378
33930W        W95296  10.240   7.882  14.911
33931W        W95297  26.553  40.520  10.555
33932W        W95298  19.632  20.197  10.560
33933W        W95299   5.927  27.627   4.135
33934W        W95300  32.074   1.842   4.727
33935W        W95301  36.403  29.979  14.776
33936W        W95302  42.790  13.687   4.640
33937W        W95303  29.078  42.861  14.002
33938W        W95304   4.800  15.259   0.747
33939W        W95305  35.394   3.857  12.868
33940W        W95306  29.049   1.461  13.416
33941W        W95307  27.452   9.771   1.708
33942W        W95308  37.918  38.968   4.183
33943W        W95309  32.555  34.920   1.310
33944W        W95310   9.856  26.516   0.949
33945W        W95311  18.181  29.082   3.813
33946W        W95312  22.234  14.305  14.910
33947W        W95313   2.966  44.924   2.265
33948W        W95314  30.164  24.544   4.116
33949W        W95315   8.234  25.568   0.252
33950W        W95316   4.816  17.071  12.558
33951W        W95317  31.079  20.713   4.313
33952W        W95318  26.483  39.326   1.268
33953W        W95319  33.947  43.415   0.369
33954W        W95320  39.317   6.218  11.534
33955W        W95321  14.278  14.220  12.495
33956W        W95322  29.427  10.866   0.882
33957W        W95323   9.207  40.355   3.817
33958W        W95324  22.652  30.528  12.458
33959W        W95325  19.106  30.116  14.364
33960W        W95326   0.438  17.284   2.789
33961W        W95327  13.224   9.322   0.270
33962W        W95328   6.838  22.710  13.992
33963W        W95329  32.552  30.994  10.590
33964W        W95330  12.787  14.170   4.695
33965W        W95331   9.819   5.342  10.625
33966W        W95332  32.949   7.871   0.956
33967W        W95333  40.881   6.344   1.432
33968W        W95334  37.577   8.285   2.392
33969W        W95335   0.804  38.841   4.264
33970W        W95336   0.943   2.888  14.844
33971W        W95337   0.933  33.539  14.354
33972W        W95338   9.356   6.726  13.335
33973W        W95339  40.325  23.110   0.850
33974W        W95340  10.363  11.214  14.441
33975W        W95341   6.207  30.089   1.776
33976W        W95342   5.305   3.418  11.499
33977W        W95343  29.565  41.479  12.950
33978W        W95344  27.557   5.209  10.139
33979W        W95345   2.824  43.435  11.378
33980W        W95346  14.700  30.928  12.862
33981W        W95347  15.153   9.852   1.814
33982W        W95348  11.209  37.976   0.839
33983W        W95349   5.710   2.339   3.188
33984W        W95350  44.854  37.473   5.216
33985W        W95351  14.282  17.108  14.449
33986W        W95352  11.268  10.290   4.682
33987W        W95353  34.942  36.904  11.612
33988W        W95354  18.203  18.163  12.464
33989W        W95355  37.988  36.576  12.989
33990W        W95356  26.477  34.487   2.770
33991W        W95357   3.245  19.679   4.620
33992W        W95358  40.953  27.984   4.659
33993W        W95359   8.835   5.233   0.459
33994W        W95360  14.833  36.436   0.876
33995W        W95361  33.114   5.898   2.795
33996W        W95362  29.482  31.472  14.469
33997W        W95363  11.778  10.644  13.434
33998W        W95364  16.598  21.574  11.947
33999W        W95365  36.549  44.308   4.634
34000W        W95366  20.193  28.009  11.970
34001W        W95367  15.311   0.261   3.652
34002W        W95368  40.501  25.586  11.978
34003W        W95369  25.058  41.026   4.782
34004W        W95370  26.521  21.236  14.413
34005W        W95371  33.982  42.984  11.029
34006W        W95372  30.929  21.075   0.914
34007W        W95373   8.698  20.069   2.678
34008W        W95374  16.221  38.489  10.956
34009W        W95375  39.489  11.833  13.526
34010W        W95376  28.504  43.286  12.498
34011W        W95377  11.804  31.086  14.351
34012W        W95378  15.151  22.738   0.267
34013W        W95379   1.746  10.236  11.046
34014W        W95380  16.153  42.520  13.855
34015W        W95381  24.983  34.533   4.218
34016W        W95382  36.984   6.787  12.004
34017W        W95383  26.170  26.091   5.572
34018W        W95384  29.079  15.236  14.381
34019W        W95385  19.058   1.378  12.020
34020W        W95386  21.186  18.742  10.428
34021W        W95387  44.424  15.602  13.388
34022W        W95388  30.953  41.908  13.040
34023W        W95389  20.590   4.836   3.738
34024W        W95390  10.701  44.976  12.861
34025W        W95391  23.024  41.441   4.251
34026W        W95392   0.366  43.869   2.741
34027W        W95393  25.569  31.931   2.240
34028W        W95394  42.940  21.063   4.811
34029W        W95395  22.532  17.586  14.508
34030W        W95396  42.882   8.871  11.421
34031W        W95397  43.351  25.202   0.363
34032W        W95398  39.330  20.162   0.416
34033W        W95399  41.489  15.161   1.248
34034W        W95400  15.693  33.932   9.478
34035W        W95401   9.762  19.277  14.280
34036W        W95402  31.976   2.453   0.296
34037W        W95403  26.049  24.170   3.261
34038W        W95404  24.496  43.448  12.064
34039W        W95405  36.553  17.696  10.564
34040W        W95406   3.770  43.461  13.898
34041W        W95407  32.890  37.542  12.980
34042W        W95408  43.990  25.107   2.188
34043W        W95409  13.162   6.356  12.866
34044W        W95410  27.677  20.086  14.470
34045W        W95411  25.989  28.177   1.850
34046W        W95412   6.847   2.327  14.516
34047W        W95413   1.856  38.854  10.159
34048W        W95414   1.844  18.574   4.169
34049W        W95415  31.012  19.769   0.949
34050W        W95416   5.799  15.776   1.303
34051W        W95417   8.253   8.811  13.003
34052W        W95418  23.652   3.356   4.332
34053W        W95419  13.800  33.005   1.343
34054W        W95420  42.383  25.586   3.217
34055W        W95421  14.200  34.503  10.904
34056W        W95422  16.172  13.151  11.939
34057W        W95423  20.615   5.747   3.189
34058W        W95424  42.485  27.028  11.970
34059W        W95425  37.482  41.980   3.177
34060W        W95426  10.227  33.003  14.891
34061W        W95427  40.528   8.863  14.293
34062W        W95428  11.698  29.566   5.230
34063W        W95429  34.030  11.343  10.905
34064W        W95430  18.668  24.640   1.270
34065W        W95431  38.494  35.869   3.315
34066W        W95432  29.138  29.076  14.856
34067W        W95433  35.529  35.411  14.502
34068W        W95434  20.271  36.451  12.426
34069W        W95435  21.705  15.148   4.286
34070W        W95436  42.863  20.269   1.829
34071W        W95437  10.748  39.366   1.934
34072W        W95438  28.116  10.643  10.994
34073W        W95439  32.981  30.144  12.029
34074W        W95440  27.656  42.421  13.920
34075W        W95441  33.969   8.270  13.456
34076W        W95442  15.631  23.079  13.923
34077W        W95443   5.253  27.001   9.448
34078W        W95444  27.597  20.679  12.556
34079W        W95445  33.447  34.962   4.313
34080W        W95446  31.609  29.029  14.794
34081W        W95447  14.690  17.199   0.746
34082W        W95448  33.494  28.152  10.939
34083W        W95449  38.947   1.289  12.397
34084W        W95450  13.623  11.841  10.932
34085W        W95451  17.652  27.981   4.693
34086W        W95452  40.419  30.074  13.794
34087W        W95453  33.971   3.295   4.147
34088W        W95454   8.232   0.403   4.203
34089W        W95455  32.113  10.308   4.160
34090W        W95456  32.391  39.540  10.126
34091W        W95457  29.061  23.674   2.858
34092W        W95458  39.964  39.544  12.910
34093W        W95459   4.233  14.328   1.385
34094W        W95460  39.999  17.288   1.217
34095W        W95461  12.145  16.255   0.888
34096W        W95462  32.414  26.519  14.312
34097W        W95463   3.856  24.001   2.395
34098W        W95464  41.533  10.299   1.731
34099W        W95465  41.394   4.894   2.207
34100W        W95466  11.638  41.905  11.861
34101W        W95467  18.105  40.508   0.847
34102W        W95468  36.371  26.166  11.979
34103W        W95469   2.258  12.739  14.475
34104W        W95470  36.412  10.289   4.179
34105W        W95471  17.289   2.938   4.317
34106W        W95472   6.728  34.539   1.365
34107W        W95473  22.131  43.356  10.916
34108W        W95474   8.709  19.589   4.273
34109W        W95475  42.370  18.059   3.279
34110W        W95476   9.759  32.390  13.792
34111W        W95477  43.019  40.911  14.344
34112W        W95478   1.258  21.621   4.174
34113W        W95479  24.057  31.045   3.218
34114W        W95480   6.211  21.637   4.604
34115W        W95481  12.748  25.984  14.309
34116W        W95482  37.566  37.430  12.860
34117W        W95483  39.526  25.978   4.198
34118W        W95484  36.860   3.219   1.797
34119W        W95485  24.599  34.117   3.254
34120W        W95486  24.148   1.896   2.326
34121W        W95487  29.468  31.928   0.852
34122W        W95488   7.359  41.330  10.915
34123W        W95489   0.833  35.862  11.920
34124W        W95490  10.846   5.843   1.437
34125W        W95491  20.634   6.873  13.981
34126W        W95492  30.463  42.910  13.453
34127W        W95493  39.455  42.304   4.665
34128W        W95494  13.643  40.312   1.925
34129W        W95495  14.301   6.893  11.005
34130W        W95496  17.273  42.996   4.616
34131W        W95497  43.937  25.203   3.182
34132W        W95498   2.946  27.127  10.945
34133W        W95499   0.281  40.399   4.635
34134W        W95500  26.662  19.257   4.719
34135W        W95501   8.237  22.149  11.927
34136W        W95502  14.763  19.695  13.825
34137W        W95503  20.209   9.873   4.145
34138W        W95504  44.882   8.684   0.763
34139W        W95505  11.166  16.779  14.914
34140W        W95506  42.925  13.348   0.790
34141W        W95507  19.144  30.063   4.756
34142W        W95508  32.430  31.150  13.798
34143W        W95509  40.020  40.341   3.655
34144W        W95510  28.515  38.482  12.902
34145W        W95511  23.127   6.293   0.850
34146W        W95512  25.055   0.472   2.220
34147W        W95513   4.919  31.134  10.564
34148W        W95514  16.281  24.555   2.221
34149W        W95515  14.709  19.726   2.201
34150W        W95516  25.026  18.243  11.499
34151W        W95517  25.706  43.920  11.987
34152W        W95518  11.211   8.796  13.922
34153W        W95519  32.636  28.495   2.192
34154W        W95520  34.371   9.189   4.673
34155W        W95521   2.302  42.927  10.936
34156W        W95522  34.515   7.715  12.883
34157W        W95523  39.966   3.274  13.962
34158W        W95524  11.768   0.811  14.981
34159W        W95525  30.566  34.002  11.375
34160W        W95526  35.083  40.834   1.795
34161W        W95527   7.405  13.809   2.694
34162W        W95528  43.410  34.400  11.960
34163W        W95529  37.834   4.269  11.941
34164W        W95530  30.149  33.874  11.027
34165W        W95531   9.306  15.114   5.573
34166W        W95532  36.569  26.994   0.449
34167W        W95533  39.042  13.105  13.004
34168W        W95534  40.975  20.561   1.758
34169W        W95535  27.620  26.512   0.869
34170W        W95536  33.056  21.689   4.125
34171W        W95537  15.584  10.856  13.861
34172W        W95538   0.789  22.695   2.294
34173W        W95539   0.943   2.817   3.849
34174W        W95540  28.570  31.460   0.439
34175W        W95541  43.280  19.580  11.098
34176W        W95542  13.712  28.008   3.155
34177W        W95543  42.362  40.329  13.331
34178W        W95544  39.323  18.788  10.433
34179W        W95545  22.018  22.157  11.606
34180W        W95546  26.591  16.630   3.784
34181W        W95547  38.335  43.841   2.278
34182W        W95548  35.905  39.372   1.300
34183W        W95549  35.558  21.149  12.514
34184W        W95550   9.346  10.791  10.959
34185W        W95551  28.173  24.663  11.951
34186W        W95552   8.774   8.837   5.159
34187W        W95553  29.452  40.963  10.523
34188W        W95554   2.442   9.688  12.561
34189W        W95555   8.388   6.319   1.846
34190W        W95556  12.326   1.401  14.509
34191W        W95557   0.328   3.266  10.486
34192W        W95558  37.394  32.553  10.956
34193W        W95559  27.007  19.076  11.993
34194W        W95560  14.763  16.084   0.335
34195W        W95561  16.269  31.519  12.892
34196W        W95562  36.586  15.232  12.580
34197W        W95563  16.246   9.845   4.240
34198W        W95564  34.958   6.273  11.908
34199W        W95565  13.736  19.666  14.946
34200W        W95566  16.599  28.567   2.802
34201W        W95567  39.014  43.363   1.735
34202W        W95568   4.255  33.943  11.857
34203W        W95569  16.732  10.151  10.468
34204W        W95570  43.324  13.299   0.388
34205W        W95571  38.941  19.160   4.318
34206W        W95572   3.775  41.464  10.553
34207W        W95573   5.851  23.697   2.372
34208W        W95574  41.927  27.675   3.239
34209W        W95575  11.290  17.713  13.943
34210W        W95576  29.519   6.355   1.442
34211W        W95577  21.137   3.932  12.538
34212W        W95578  29.164  41.446  11.498
34213W        W95579  36.552  16.309  13.339
34214W        W95580  38.075  38.364   4.759
34215W        W95581   2.260  12.765   1.426
34216W        W95582  10.201  21.545   0.278
34217W        W95583  24.141   1.943  11.550
34218W        W95584   1.464  30.046   1.362
34219W        W95585  43.807  39.956   3.277
34220W        W95586  43.892  14.653  14.326
34221W        W95587  33.399   7.301   0.916
34222W        W95588   0.827  11.158  13.049
34223W        W95589  26.116  14.635   1.896
34224W        W95590  21.678  36.952   0.252
34225W        W95591  25.133   8.299  10.926
34226W        W95592  11.627  23.559   0.852
34227W        W95593  31.496  12.614  14.341
34228W        W95594  27.027   8.732  13.408
34229W        W95595  16.284  22.153   1.254
34230W        W95596   3.367  11.836   1.713
34231W        W95597  26.027  27.474  11.906
34232W        W95598  38.335  44.850  14.489
34233W        W95599  39.511  32.457   1.432
34234W        W95600  34.473  14.703   4.811
34235W        W95601  16.649  37.547  14.861
34236W        W95602  43.356   9.382  13.466
34237W        W95603  25.509  23.560  13.446
34238W        W95604   0.323  18.091   3.259
34239W        W95605  25.679  19.780   0.959
34240W        W95606  30.627  43.354   3.368
34241W        W95607  19.558  17.090  10.907
34242W        W95608  26.191   9.287  11.012
34243W        W95609   8.827  36.973  10.503
34244W        W95610  35.405   4.754  12.824
34245W        W95611   2.437  35.526  12.902
34246W        W95612  12.618  20.068  14.969
34247W        W95613  37.421  12.662   3.320
34248W        W95614  43.504  41.373   1.402
34249W        W95615  42.312  28.587  13.937
34250W        W95616  21.591   4.805   5.583
34251W        W95617  17.296  36.974  13.938
34252W        W95618  31.586  13.670  10.481
34253W        W95619  25.519  24.512  11.586
34254W        W95620  20.536  32.471  12.049
34255W        W95621  40.488  13.791  13.325
34256W        W95622   9.158  17.226  10.065
34257W        W95623  27.984  32.032  10.551
34258W        W95624  25.992  36.568  14.818
34259W        W95625   6.194  22.506   5.248
34260W        W95626  22.523   9.778  13.937
34261W        W95627  12.343  15.103   1.853
34262W        W95628  11.203  44.984   0.274
34263W        W95629  25.714   6.870  14.293
34264W        W95630  43.795  40.358   0.880
34265W        W95631   0.279  33.912  14.979
34266W        W95632  16.185   3.407  12.372
34267W        W95633  29.007  19.113  14.287
34268W        W95634  35.478  26.581  13.461
34269W        W95635   9.191  24.143  12.926
34270W        W95636  18.650   1.373   2.274
34271W        W95637  22.675  11.276  12.934
34272W        W95638   1.304  25.496  12.461
34273W        W95639   2.888  16.075   3.378
34274W        W95640  23.733  29.471   5.569
34275W        W95641  33.597   8.688  10.017
34276W        W95642  22.543  16.744  14.395
34277W        W95643  11.827  28.001   4.837
34278W        W95644  39.351  28.585   4.756
34279W        W95645  27.099  27.975   1.248
34280W        W95646  36.942  42.834  14.888
34281W        W95647  21.149  37.398  11.963
34282W        W95648  38.525  38.068  11.912
34283W        W95649  11.748  22.712   1.749
34284W        W95650  24.665   6.355   1.216
34285W        W95651  35.411  34.043   3.231
34286W        W95652  15.212  21.556   4.152
34287W        W95653  34.563  40.028  12.422
34288W        W95654  27.951  11.130  11.113
34289W        W95655  42.889  17.243  11.422
34290W        W95656  10.220   4.300  11.377
34291W        W95657  39.017  42.984  12.896
34292W        W95658   6.359  31.407   4.300
34293W        W95659   9.191  42.007   0.421
34294W        W95660  12.190  15.248  14.933
34295W        W95661  19.250  43.897  10.888
34296W        W95662   4.259   1.910   2.290
34297W        W95663   5.874   7.414  13.406
34298W        W95664   0.811  42.859   4.632
34299W        W95665  32.427  33.066   0.300
34300W        W95666  39.819   7.812   2.236
34301W        W95667  39.408  18.284   3.766
34302W        W95668  15.763  42.895  11.565
34303W        W95669  18.270   3.834   0.764
34304W        W95670  25.172   5.424  14.478
34305W        W95671  39.997  27.671   0.887
34306W        W95672  41.893  17.567   0.452
34307W        W95673  43.979  38.348   1.914
34308W        W95674  23.192  32.095  11.008
34309W        W95675  12.843  16.240   0.451
34310W        W95676  29.125   6.746   3.156
34311W        W95677  21.261  31.577  10.496
34312W        W95678  41.979  28.670   0.243
34313W        W95679  13.809  13.252  10.450
34314W        W95680  13.297  18.090   3.173
34315W        W95681   1.301  23.648  13.352
34316W        W95682   3.452   0.891  11.072
34317W        W95683  41.862   8.819  12.915
34318W        W95684  35.432   7.749  10.979
34319W        W95685  31.153  17.785   1.783
34320W        W95686  27.104  26.643   1.407
34321W        W95687  21.711  28.087   4.177
34322W        W95688  34.865  17.215   3.632
34323W        W95689  35.571  39.351  13.447
34324W        W95690  23.023  44.796  13.986
34325W        W95691  41.504  18.733  13.337
34326W        W95692   3.337  18.628   3.859
34327W        W95693  23.135   3.261   3.320
34328W        W95694  33.549  29.157   3.829
34329W        W95695  33.919  27.042  13.851
34330W        W95696  24.634   7.275  12.472
34331W        W95697  35.386  43.353   4.305
34332W        W95698  35.425   5.344  14.990
34333W        W95699   2.923  27.110   3.719
34334W        W95700   4.437  13.128  14.823
34335W        W95701  19.679   1.835   3.284
34336W        W95702  24.596  24.702  12.522
34337W        W95703   1.772  44.431  10.579
34338W        W95704  30.422  35.979   2.279
34339W        W95705   3.362  20.697  13.451
34340W        W95706  35.918  43.306  10.002
34341W        W95707  27.192   1.773   3.264
34342W        W95708   3.751  39.883  11.394
34343W        W95709  31.143  43.005  11.116
34344W        W95710  42.019   9.322  12.356
34345W        W95711   3.906  31.597   1.358
34346W        W95712  16.743   0.370  12.510
34347W        W95713   5.254   2.320   2.295
34348W        W95714   3.241   1.287  12.474
34349W        W95715  12.687  14.334  11.034
34350W        W95716  17.181  30.521  14.284
34351W        W95717   4.855   6.739   0.357
34352W        W95718   6.188  37.966   4.144
34353W        W95719   8.762  31.979  14.511
34354W        W95720  11.662   5.721  13.972
34355W        W95721  23.116  37.415   2.820
34356W        W95722  26.021  25.216  13.938
34357W        W95723  11.312  18.192   0.306
34358W        W95724  37.050  28.463   0.289
34359W        W95725  14.603  41.538   3.730
34360W        W95726  33.405  35.870  13.485
34361W        W95727  19.558  32.127  10.991
34362W        W95728  42.312  39.400   1.343
34363W        W95729   6.839  31.538  13.876
34364W        W95730  23.529  18.291   0.967
34365W        W95731  26.054   0.845   1.435
34366W        W95732  16.589  43.968   2.250
34367W        W95733  43.387  20.685   4.130
34368W        W95734  19.073  15.324   0.314
34369W        W95735  13.134  26.028  13.041
34370W        W95736  19.735  24.548   3.709
34371W        W95737  29.543  17.210   3.723
34372W        W95738  25.123  40.394  11.528
34373W        W95739  43.487  36.350  12.559
34374W        W95740  44.813  18.143  13.361
34375W        W95741  12.274   3.308  11.613
34376W        W95742  35.443  27.662   4.328
34377W        W95743   3.414  38.382  13.460
34378W        W95744  21.691  11.749   4.290
34379W        W95745  14.238  27.491   2.668
34380W        W95746   3.730   6.851  10.142
34381W        W95747  24.222  25.711   3.739
34382W        W95748   9.203  38.380  14.497
34383W        W95749  26.676  15.685  14.449
34384W        W95750  31.412  37.411  12.936
34385W        W95751  22.069  34.520  12.499
34386W        W95752   2.877  14.786  12.092
34387W        W95753  41.987  44.273   0.468
34388W        W95754  43.362   5.321   3.802
34389W        W95755  12.792  43.272   3.241
34390W        W95756  10.756  37.503  11.461
34391W        W95757  34.083  35.030   3.306
34392W        W95758   3.343  27.653   2.692
34393W        W95759  22.057  40.872   0.918
34394W        W95760   6.420  31.616   4.817
34395W        W95761  37.875   7.189  10.508
34396W        W95762   1.335  14.589  11.445
34397W        W95763  21.643   8.319  13.384
34398W        W95764  31.629  39.032   4.123
34399W        W95765   6.746   5.331   2.419
34400W        W95766  29.473   7.786  11.965
34401W        W95767  32.009  36.915   0.441
34402W        W95768  24.717  34.487  12.082
34403W        W95769  13.331   1.255  12.462
34404W        W95770   8.221   8.877  12.516
34405W        W95771   9.831   5.811  11.559
34406W        W95772  23.075  41.891  12.464
34407W        W95773  36.588  25.699   4.276
34408W        W95774  19.204  25.186  13.799
34409W        W95775   7.709  19.780   4.678
34410W        W95776   4.821   9.218   3.167
34411W        W95777  42.011  39.463  12.041
34412W        W95778  14.698  11.347  11.512
34413W        W95779  24.175  25.154   2.822
34414W        W95780  10.691  13.611   3.234
34415W        W95781  15.622  41.900   1.354
34416W        W95782   2.835  14.283  10.146
34417W        W95783  16.597   1.339   1.316
34418W        W95784  43.388  19.170  14.276
34419W        W95785   2.846  13.161   3.245
34420W        W95786  44.978  17.655   0.912
34421W        W95787   0.970  42.434   0.825
34422W        W95788  26.190  24.672   3.689
34423W        W95789  27.989  20.201   5.194
34424W        W95790   3.756   8.194  12.425
34425W        W95791  12.193  35.477  14.785
34426W        W95792  23.147  38.481   0.873
34427W        W95793  10.848  29.443   3.662
34428W        W95794  14.760   1.367  13.886
34429W        W95795  34.409   7.703   0.726
34430W        W95796  34.415   0.345  10.929
34431W        W95797  20.671   8.362   0.458
34432W        W95798  30.926  39.376  11.099
34433W        W95799  28.987  21.637  14.462
34434W        W95800  31.490  28.542   3.729
34435W        W95801  13.199  13.217   4.243
34436W        W95802  39.947   9.253   4.632
34437W        W95803  43.809  16.301  12.474
34438W        W95804  10.326  38.983   4.268
34439W        W95805  29.175  26.651  12.048
34440W        W95806  27.582  18.283  10.503
34441W        W95807  33.069   6.807  12.910
34442W        W95808  13.765  42.477   1.394
34443W        W95809  26.480  36.921  10.906
34444W        W95810   4.308  26.662  14.341
34445W        W95811  33.991   3.730  14.828
34446W        W95812  11.744  28.483   4.262
34447W        W95813   9.801  23.548   2.319
34448W        W95814  14.150  44.275   4.742
34449W        W95815  15.822   1.818   1.303
34450W        W95816  25.969  24.494   0.832
34451W        W95817  11.329  27.031  12.036
34452W        W95818   8.703   4.932   3.675
34453W        W95819   4.428  13.155   4.245
34454W        W95820  36.540  21.216   1.825
34455W        W95821  24.522  19.545   1.236
34456W        W95822  24.222   3.409  11.109
34457W        W95823  20.623   0.794  11.491
34458W        W95824  23.219  23.537  12.533
34459W        W95825  10.360  12.117  14.779
34460W        W95826  16.570  29.928  12.832
34461W        W95827  17.252  36.844   3.846
34462W        W95828  29.425   4.745  14.441
34463W        W95829  34.050   0.392  13.489
34464W        W95830  22.089  11.806  13.832
34465W        W95831   4.828  11.776   0.823
34466W        W95832   4.420  19.183   3.870
34467W        W95833  30.010   5.323   0.384
34468W        W95834  36.923   4.418  14.910
34469W        W95835  11.777  32.495  14.276
34470W        W95836  29.562  43.847   4.165
34471W        W95837  24.176   3.712   2.749
34472W        W95838  17.179  37.999  13.055
34473W        W95839  34.414  35.468   4.829
34474W        W95840  44.808  41.921  12.994
34475W        W95841   3.939  40.494  10.618
34476W        W95842  28.516  36.573   3.316
34477W        W95843  38.004  28.955  10.914
34478W        W95844   3.317  10.842  14.975
34479W        W95845  25.163  31.902  14.998
34480W        W95846  19.677  32.058  10.150
34481W        W95847   8.215  29.633   0.379
34482W        W95848   9.230   1.360  10.914
34483W        W95849  23.100  44.410  13.334
34484W        W95850  37.877  36.496  12.546
34485W        W95851  41.948  30.643   3.707
34486W        W95852   2.844  21.633  12.545
34487W        W95853  24.037  25.676   4.617
34488W        W95854   1.969  36.514  14.492
34489W        W95855  37.577  14.674  10.558
34490W        W95856   3.325  26.197  10.568
34491W        W95857   4.251  10.873  14.955
34492W        W95858   1.347   3.792  14.944
34493W        W95859  24.045  36.847   2.754
34494W        W95860  28.468  13.228  11.013
34495W        W95861  28.157  20.144  13.815
34496W        W95862  15.819   6.293  11.075
34497W        W95863  41.376  21.692   0.469
34498W        W95864  34.484  43.281   2.276
34499W        W95865  26.129  28.460   1.372
34500W        W95866  44.362   2.334   2.266
34501W        W95867  33.900  22.132  13.505
34502W        W95868  30.473   5.817  12.925
34503W        W95869  16.317  18.201  11.403
34504W        W95870  12.317  44.821   0.430
34505W        W95871  39.852  11.342   3.222
34506W        W95872  13.111  18.195  12.484
34507W        W95873  25.115  16.596   2.191
34508W        W95874  28.642  13.253  14.981
34509W        W95875  32.986  32.437  10.405
34510W        W95876   3.334   8.183  10.929
34511W        W95877  15.802  29.175  14.514
34512W        W95878  16.249   9.726  11.542
34513W        W95879   5.717  20.753   2.415
34514W        W95880  13.325  36.473  10.952
34515W        W95881  14.107  21.638   2.838
34516W        W95882   0.429  13.821  11.504
34517W        W95883  11.643  31.613  13.436
34518W        W95884  40.427  25.218   0.388
34519W        W95885   7.808  40.876   0.929
34520W        W95886  22.632  39.810   3.770
34521W        W95887  28.962  27.634  11.493
34522W        W95888   9.339   3.777   1.352
34523W        W95889  37.477   8.755   4.735
34524W        W95890  12.329  39.330  13.458
34525W        W95891  20.036   0.952  12.554
34526W        W95892  21.077  33.114  10.134
34527W        W95893  16.612  37.352  10.969
34528W        W95894  42.918  19.773  10.627
34529W        W95895  38.832  34.097   1.411
34530W        W95896  18.292  38.509  12.023
34531W        W95897  16.646   7.202   0.937
34532W        W95898  10.220  43.418   1.793
34533W        W95899  10.235  11.184   0.270
34534W        W95900  39.916   7.352   0.916
34535W        W95901  33.066   3.321  10.953
34536W        W95902  42.386  35.906  11.121
34537W        W95903  14.799   0.935   1.385
34538W        W95904  28.006   9.862   4.669
34539W        W95905  27.447  27.646  11.436
34540W        W95906  34.582  19.093   3.859
34541W        W95907  27.626   4.865  14.965
34542W        W95908  27.676  25.061   3.716
34543W        W95909   1.865  14.292  11.487
34544W        W95910  37.943  33.487  13.399
34545W        W95911  32.912  16.627  11.953
34546W        W95912   4.209  10.644  11.090
34547W        W95913  27.181  36.580   2.358
34548W        W95914  32.622  30.552  13.798
34549W        W95915  32.935   6.304  12.937
34550W        W95916  12.732   4.391   4.289
34551W        W95917   7.904   2.768  11.573
34552W        W95918  43.423  41.407  11.611
34553W        W95919  30.528  28.546   1.916
34554W        W95920  14.703  25.684  13.380
34555W        W95921  39.009  37.464   5.297
34556W        W95922  25.496   6.210   1.894
34557W        W95923  38.921   9.866  14.801
34558W        W95924   6.346  20.586   3.850
34559W        W95925   9.771   5.785  12.407
34560W        W95926  25.035   6.207  10.512
34561W        W95927  20.260  34.029  12.953
34562W        W95928  27.197  17.158  12.397
34563W        W95929  30.603  43.958   2.808
34564W        W95930  15.242  29.609   3.336
34565W        W95931  32.115   7.792   1.750
34566W        W95932   4.292  11.275  14.935
34567W        W95933  21.712  27.681  13.038
34568W        W95934  42.024   2.941   1.249
34569W        W95935  35.488  25.050  12.855
34570W        W95936  36.043  30.994   3.827
34571W        W95937   4.345  14.787   4.778
34572W        W95938   3.718  11.305   3.235
34573W        W95939  38.508  20.194  13.804
34574W        W95940   3.791  40.380  13.036
34575W        W95941  44.882  30.512  11.549
34576W        W95942  10.797  29.543  10.959
34577W        W95943  38.551  37.909   1.216
34578W        W95944  10.715  25.469  13.903
34579W        W95945  30.145  29.084  10.521
34580W        W95946  37.445   1.279  12.842
34581W        W95947  22.148  17.725   1.836
34582W        W95948  25.702   7.753   3.850
34583W        W95949  38.038  18.148   4.144
34584W        W95950  31.456   6.233   0.876
34585W        W95951  30.629  22.234   3.289
34586W        W95952   7.296  35.967   1.824
34587W        W95953   1.809  27.567  14.350
34588W        W95954  38.047  14.208  13.510
34589W        W95955  25.580   2.909   0.837
34590W        W95956  24.681  20.240  11.373
34591W        W95957  36.033  28.550   3.689
34592W        W95958  26.045  40.986   2.333
34593W        W95959  26.077  32.996  13.852
34594W        W95960  20.594  41.841  10.563
34595W        W95961  25.617  41.793   2.802
34596W        W95962  10.773  24.032   2.720
34597W        W95963  26.661   9.250   0.312
34598W        W95964  41.018  27.139  13.926
34599W        W95965  31.087  31.559  12.832
34600W        W95966  44.809  33.424   2.344
34601W        W95967   7.240  40.389  11.938
34602W        W95968  17.191   0.435   1.431
34603W        W95969   4.241  23.532   4.742
34604W        W95970  14.772   7.177  14.938
34605W        W95971   5.412   7.314   4.753
34606W        W95972  10.792  30.080   0.313
34607W        W95973   9.784  14.784  12.868
34608W        W95974  28.089  37.513   4.268
34609W        W95975  41.480  22.042  14.322
34610W        W95976  17.246  29.611  11.934
34611W        W95977  26.009  31.488   9.576
34612W        W95978  14.197  36.856   2.231
34613W        W95979   0.267  20.540  13.425
34614W        W95980  44.486   4.228   3.686
34615W        W95981  43.283   0.410  11.867
34616W        W95982  16.227  37.436   0.385
34617W        W95983   8.206   4.232   4.627
34618W        W95984  14.703  35.030  12.090
34619W        W95985  13.307  21.592   2.688
34620W        W95986  21.226   1.751   2.192
34621W        W95987  30.546  16.704  12.428
34622W        W95988  35.903  18.054   0.259
34623W        W95989  33.491  41.955   0.461
34624W        W95990  21.591  42.863   4.645
34625W        W95991   8.860  28.579   3.197
34626W        W95992  28.969   9.182  14.397
34627W        W95993  37.991  14.171   5.150
34628W        W95994   0.747   6.332   0.410
34629W        W95995  24.589  20.594   3.851
34630W        W95996  23.586   5.223  11.863
34631W        W95997  21.512  41.432  14.845
34632W        W95998  35.908  35.454  12.971
34633W        W95999  27.121   2.768   4.199
34634W        W96000  24.555  20.632   1.789
34635W        W96001   1.352  10.328  14.974
34636W        W96002   7.395  22.082   0.734
34637W        W96003  14.623   6.252  12.869
34638W        W96004   0.389  13.345  12.556
34639W        W96005  26.603  35.930   4.723
34640W        W96006  22.588   0.928  13.001
34641W        W96007  29.050  18.736   2.708
34642W        W96008  29.156  25.638  11.090
34643W        W96009  24.622  44.008   0.926
34644W        W96010  16.767  14.320  11.587
34645W        W96011  41.002  12.181  13.899
34646W        W96012  38.333  42.890   1.851
34647W        W96013  24.142   9.766   2.372
34648W        W96014  11.152  34.603  10.609
34649W        W96015  42.024  32.889   0.796
34650W        W96016  16.692   7.746   1.745
34651W        W96017   6.219  23.206  11.072
34652W        W96018  14.686  41.383   1.799
34653W        W96019   8.660  10.301  12.550
34654W        W96020  34.607   3.276   1.311
34655W        W96021  44.955   3.413  11.094
34656W        W96022  27.531  25.530   3.168
34657W        W96023  33.580   4.416   4.808
34658W        W96024  44.316  42.474  12.508
34659W        W96025  22.093  18.195  14.777
34660W        W96026  22.740  43.832  11.055
34661W        W96027  36.002  17.074   2.893
34662W        W96028  25.157  22.158   0.322
34663W        W96029  24.539  30.623  13.405
34664W        W96030  40.368  38.842  12.442
34665W        W96031  34.477  22.083  13.024
34666W        W96032  36.429  14.601  14.293
34667W        W96033  27.004  21.536   2.385
34668W        W96034  26.148  26.077  14.785
34669W        W96035  10.832  40.820  10.584
34670W        W96036  23.210   4.439  12.416
34671W        W96037  27.943  42.475  13.472
34672W        W96038  29.022   9.873  11.428
34673W        W96039   6.289  20.672   0.852
34674W        W96040  11.636  40.850  10.414
34675W        W96041   9.223   8.200  14.805
34676W        W96042  31.053   3.797   0.804
34677W        W96043   1.339  25.148  13.372
34678W        W96044  38.431   4.418  10.519
34679W        W96045  44.489   5.332   1.889
34680W        W96046  34.380  14.732   3.162
34681W        W96047   8.395   7.731   2.770
34682W        W96048  35.359  37.029   0.885
34683W        W96049  22.623   6.749  11.123
34684W        W96050   2.254  39.481  10.636
34685W        W96051  21.678  23.686   2.827
34686W        W96052  18.653  12.237  13.402
34687W        W96053  24.709  19.146   3.745
34688W        W96054  14.295  44.914   4.786
34689W        W96055  22.552  15.699  12.934
34690W        W96056  12.699  14.725   3.791
34691W        W96057   3.749  10.340  10.945
34692W        W96058  20.039  34.031   9.448
34693W        W96059  13.703   2.733  13.406
34694W        W96060  24.614  33.420   3.823
34695W        W96061  24.675   5.269  13.053
34696W        W96062  13.694  16.117   2.341
34697W        W96063  17.736  41.315  10.416
34698W        W96064  25.565   7.687   3.237
34699W        W96065   1.465  42.429  10.513
34700W        W96066  30.058  17.775   1.294
34701W        W96067  23.538   1.408  12.911
34702W        W96068  28.660  32.021  14.822
34703W        W96069  14.726  26.466   4.718
34704W        W96070  17.063  37.017   1.364
34705W        W96071  25.694  26.601   0.260
34706W        W96072  40.493  42.784  14.790
34707W        W96073  35.080  32.566   4.231
34708W        W96074   7.836  33.082  12.503
34709W        W96075  21.630  24.982  14.901
34710W        W96076  22.034  35.024  10.581
34711W        W96077  32.056  38.929   3.787
34712W        W96078   7.882   9.782   3.740
34713W        W96079  38.510  22.570  11.441
34714W        W96080  29.137  43.364   1.720
34715W        W96081   7.738  44.789  11.011
34716W        W96082  38.437   1.346   2.818
34717W        W96083  23.089  11.292  11.926
34718W        W96084  17.665  34.071  10.559
34719W        W96085   8.809   2.789   9.555
34720W        W96086  12.189   7.362   2.411
34721W        W96087  27.167  10.734  11.570
34722W        W96088  12.615  19.247   2.725
34723W        W96089  25.204  34.943  11.585
34724W        W96090  33.899  38.983   1.760
34725W        W96091  13.794   3.941   3.265
34726W        W96092  19.685  25.043   3.235
34727W        W96093   5.348  38.827  14.774
34728W        W96094  28.532   1.469  12.460
34729W        W96095   8.284  19.626  11.480
34730W        W96096  33.922   0.777  13.857
34731W        W96097   3.270   6.762   3.770
34732W        W96098  30.082  17.754  11.048
34733W        W96099  44.446  13.772   3.855
34734W        W96100  37.497  38.855  11.019
34735W        W96101   5.919  12.330  13.416
34736W        W96102   8.730   8.364   0.396
34737W        W96103  29.543  34.869  12.405
34738W        W96104   9.282  15.671   1.390
34739W        W96105  22.158  39.480  10.468
34740W        W96106  40.408   3.929  10.925
34741W        W96107  10.864  26.986   1.438
34742W        W96108  33.488  32.480   1.813
34743W        W96109  41.405  22.148   3.746
34744W        W96110   7.708   1.418   2.332
34745W        W96111  42.965  20.134  14.946
34746W        W96112  17.150  14.252  12.878
34747W        W96113  41.422   9.183   4.138
34748W        W96114  26.968  22.114  11.092
34749W        W96115  29.565  41.447  11.607
34750W        W96116  25.975  16.644   4.314
34751W        W96117  21.741  11.308   3.736
34752W        W96118  32.402  35.868   2.310
34753W        W96119  38.379  42.349   2.733
34754W        W96120  28.611  41.873  13.045
34755W        W96121  34.539  39.974  14.952
34756W        W96122  41.411  37.420   5.315
34757W        W96123  38.357   5.239   1.309
34758W        W96124  34.926  43.315   0.422
34759W        W96125   0.380  23.583  10.494
34760W        W96126  39.954   0.320   3.249
34761W        W96127  27.580  15.293   4.254
34762W        W96128   1.351  15.594   0.788
34763W        W96129  10.763  44.478  12.952
34764W        W96130  12.260  10.816   3.747
34765W        W96131  30.156  35.923  14.806
34766W        W96132  44.452  23.662   0.920
34767W        W96133   9.198  19.629   1.850
34768W        W96134   5.728  31.014   2.211
34769W        W96135  21.709   8.689  11.386
34770W        W96136   6.834  23.220  12.887
34771W        W96137  12.802  22.620  11.371
34772W        W96138   3.380  41.001  10.936
34773W        W96139  16.776  40.329   0.366
34774W        W96140   4.316  10.662   4.306
34775W        W96141   2.943   3.246  14.828
34776W        W96142  34.369  31.582   4.663
34777W        W96143   0.804  12.254   3.170
34778W        W96144  15.165  16.210  12.948
34779W        W96145  18.573   4.793  14.364
34780W        W96146  41.489  13.315  13.538
34781W        W96147   7.798  43.475   4.199
34782W        W96148   0.277   1.376   2.793
34783W        W96149  19.131  28.036   0.462
34784W        W96150   4.254  41.507   1.856
34785W        W96151  37.497  23.186  11.860
34786W        W96152  31.547  32.513  13.856
34787W        W96153   4.861   9.754  13.435
34788W        W96154   8.775  31.548  14.390
34789W        W96155  38.858  39.864  13.826
34790W        W96156  38.431   4.872  11.569
34791W        W96157   3.907  35.441   0.313
34792W        W96158  10.666  12.754   3.302
34793W        W96159  40.322   5.292   3.249
34794W        W96160  20.109  21.018  12.028
34795W        W96161   6.367  27.014  13.973
34796W        W96162  33.071  42.977   2.800
34797W        W96163  12.778  44.341  11.579
34798W        W96164  19.582  17.084  13.041
34799W        W96165  30.114   2.431   0.729
34800W        W96166  27.568  15.620  13.516
34801W        W96167  14.780  37.345   3.691
34802W        W96168  39.509   2.375   1.774
34803W        W96169   2.815  17.128   0.324
34804W        W96170  39.461   2.746  13.836
34805W        W96171   1.457  37.357  12.070
34806W        W96172  34.980  44.915  13.469
34807W        W96173  27.177  40.981  10.622
34808W        W96174  33.126  21.030   3.814
34809W        W96175  10.664   9.886  10.917
34810W        W96176   9.713  30.606  12.015
34811W        W96177  14.308  37.895  11.454
34812W        W96178  32.577  40.522  11.543
34813W        W96179   4.942  44.797  12.010
34814W        W96180   7.307   9.306   1.928
34815W        W96181  13.176  44.919   1.725
34816W        W96182  10.188   0.306   4.663
34817W        W96183   9.802   7.313   3.156
34818W        W96184  43.377  19.546   0.768
34819W        W96185  13.212  27.667   1.808
34820W        W96186  25.987  33.594   1.315
34821W        W96187  21.609  30.418  13.519
34822W        W96188  15.242  37.860   3.799
34823W        W96189   9.710  28.058  10.567
34824W        W96190  40.843  36.016  10.551
34825W        W96191  12.213  33.568   3.797
34826W        W96192  42.319  39.528   1.852
34827W        W96193   1.772   4.777  13.890
34828W        W96194  21.091  14.305   2.374
34829W        W96195   8.862  23.672  13.490
34830W        W96196  29.944  24.530   4.768
34831W        W96197  24.717  33.460   1.435
34832W        W96198  41.862  28.678   4.190
34833W        W96199   8.272  14.675  12.081
34834W        W96200  21.531   3.709   2.767
34835W        W96201   2.238  17.291   4.348
34836W        W96202  34.088  19.704  11.490
34837W        W96203   3.944   2.246  10.423
34838W        W96204  22.224  41.492   3.825
34839W        W96205  44.295  24.689   4.696
34840W        W96206  42.783  26.684   2.319
34841W        W96207  33.924  30.047   2.811
34842W        W96208  35.405  34.106  14.967
34843W        W96209   7.686   2.814   1.877
34844W        W96210  39.984  17.148   3.342
34845W        W96211  16.763  39.995  12.353
34846W        W96212  44.822  29.120   5.656
34847W        W96213  34.488   4.788   4.138
34848W        W96214  28.676  43.891  10.448
34849W        W96215  23.577  10.340  10.136
34850W        W96216   8.744  19.536   3.377
34851W        W96217  39.917  30.520  10.562
34852W        W96218  28.109   9.656   2.361
34853W        W96219  23.644  38.469  11.949
34854W        W96220  35.924  22.662   1.295
34855W        W96221  43.859  10.365   2.763
34856W        W96222  26.164  34.060   2.706
34857W        W96223  33.953   8.265  12.030
34858W        W96224   5.744  43.295  14.866
34859W        W96225  16.607  31.991   0.453
34860W        W96226   7.332  27.551   3.707
34861W        W96227  11.724  35.399  13.803
34862W        W96228  38.439  24.607  11.057
34863W        W96229  17.099  29.572  14.992
34864W        W96230   2.731  29.524   0.858
34865W        W96231  11.827   4.375  12.409
34866W        W96232  14.151  23.197   3.239
34867W        W96233  20.045  17.271   0.889
34868W        W96234  19.199  10.767  13.805
34869W        W96235   7.885  31.142  11.921
34870W        W96236  37.018  26.528   1.856
34871W        W96237  37.442  36.530   4.803
34872W        W96238  11.215  27.172  14.332
34873W        W96239  24.592  26.048   3.702
34874W        W96240   1.851  40.809  11.064
34875W        W96241  38.431   3.268   3.771
34876W        W96242   1.831  25.028  13.313
34877W        W96243  32.424   5.803  12.879
34878W        W96244   4.257  12.296   4.789
34879W        W96245  27.064  25.497   2.742
34880W        W96246  44.287  42.936   1.914
34881W        W96247  42.308   7.188   0.367
34882W        W96248   8.707  26.682  10.571
34883W        W96249  34.992  34.562   0.285
34884W        W96250   9.341  17.684   0.858
34885W        W96251  39.861  31.616   4.635
34886W        W96252   0.432  21.145  13.395
34887W        W96253   3.861  24.226   4.751
34888W        W96254  21.083  17.779  12.463
34889W        W96255  10.319  14.769   0.903
34890W        W96256   7.890   8.833  13.518
34891W        W96257  37.414  26.545  12.380
34892W        W96258   0.859  36.496   1.882
34893W        W96259  40.350  26.086   0.418
34894W        W96260  39.001   7.825  13.891
34895W        W96261   5.403  32.085   2.347
34896W        W96262   1.767  10.811  12.522
34897W        W96263  36.857   4.847   1.255
34898W        W96264   7.390   0.431   0.416
34899W        W96265  34.578  10.749   2.835
34900W        W96266  29.135  20.200   1.725
34901W        W96267  28.501  37.415  13.861
34902W        W96268  33.422  34.031   2.403
34903W        W96269   2.910   3.263   4.185
34904W        W96270  21.146  15.099  10.460
34905W        W96271  10.873   9.385  14.365
34906W        W96272  43.414  29.487  13.060
34907W        W96273  18.546   1.259  14.783
34908W        W96274   7.255  17.123   2.735
34909W        W96275   0.775  29.530   2.732
34910W        W96276  12.696  44.960  11.113
34911W        W96277  41.522   0.929   3.845
34912W        W96278  10.648   4.379  14.463
34913W        W96279   6.857  18.124   0.410
34914W        W96280  28.156   9.663   4.308
34915W        W96281  26.962   9.207   1.761
34916W        W96282  31.441  23.180   4.129
34917W        W96283  37.446  23.059   4.808
34918W        W96284  43.365  23.076  13.349
34919W        W96285   5.796  35.948   4.262
34920W        W96286  27.588  33.595  11.123
34921W        W96287   9.650  29.992   4.777
34922W        W96288  18.569  36.895   1.759
34923W        W96289  39.004  36.096  12.571
34924W        W96290  38.031  39.456   2.362
34925W        W96291  25.072  11.285  12.034
34926W        W96292   2.894  23.028   1.349
34927W        W96293   5.928  33.076   3.378
34928W        W96294  36.884  41.398   0.277
34929W        W96295  17.757  21.703   4.142
34930W        W96296  30.038  29.002   4.731
34931W        W96297  43.017  38.074   1.773
34932W        W96298  41.862  12.164  13.530
34933W        W96299  42.477  36.511   3.151
34934W        W96300  22.508  17.588   3.771
34935W        W96301  13.201  16.642   2.762
34936W        W96302  19.134  21.733   2.787
34937W        W96303  41.939   9.369  10.642
34938W        W96304  26.466  27.645   2.247
34939W        W96305  28.626  19.111   1.836
34940W        W96306  40.371  41.017   1.927
34941W        W96307   6.764   1.318  12.992
34942W        W96308  40.377  18.650  13.867
34943W        W96309  34.008  42.825  14.293
34944W        W96310  39.558   9.883  11.039
34945W        W96311  43.271  14.656   2.364
34946W        W96312  10.650   7.821   1.278
34947W        W96313  26.693  18.778  10.984
34948W        W96314   9.679  24.707   0.259
34949W        W96315   2.913  18.709  11.050
34950W        W96316   9.292  31.644   0.747
34951W        W96317  19.615  36.031  11.017
34952W        W96318  34.530  10.867   4.145
34953W        W96319  33.946  16.255   0.245
34954W        W96320  14.748  12.840  13.867
34955W        W96321   4.440  34.883   0.325
34956W        W96322  38.453   8.709   4.632
34957W        W96323  26.648   8.388  13.980
34958W        W96324  31.518   7.413  10.528
34959W        W96325  20.682  21.152  12.939
34960W        W96326  19.639  44.968   4.270
34961W        W96327  22.052   5.690  12.071
34962W        W96328  10.246   5.419  11.006
34963W        W96329  42.026  26.181   2.321
34964W        W96330  28.481  19.601  14.486
34965W        W96331  37.441  18.240  13.805
34966W        W96332  42.991  23.688   4.188
34967W        W96333  31.108  26.106  11.012
34968W        W96334  32.517  16.284   2.722
34969W        W96335  32.481  14.159   2.674
34970W        W96336  41.923  28.464  13.431
34971W        W96337   9.775  31.089  14.346
34972W        W96338  30.060  12.358   4.727
34973W        W96339   4.349  28.575  12.909
34974W        W96340  37.344  25.478   1.353
34975W        W96341  24.135  19.134  13.918
34976W        W96342   5.885   7.284   4.182
34977W        W96343  10.859  39.053  11.401
34978W        W96344  15.801   8.314  11.884
34979W        W96345  16.164  19.076  10.633
34980W        W96346  41.432  15.788   3.206
34981W        W96347  20.547  43.799  13.396
34982W        W96348  32.058  39.018   5.314
34983W        W96349  43.290   4.396   2.796
34984W        W96350  42.894  27.162   3.734
34985W        W96351   1.906  36.065  10.988
34986W        W96352  22.201  25.541   2.721
34987W        W96353  14.167  17.300   2.679
34988W        W96354  21.199  44.446   5.194
34989W        W96355  18.704  14.336   9.448
34990W        W96356  31.568  42.432   2.293
34991W        W96357   7.191  12.617   1.367
34992W        W96358  23.575  16.729  13.883
34993W        W96359  13.778   0.875   1.245
34994W        W96360   3.404  44.994  14.328
34995W        W96361  25.085   1.797   4.248
34996W        W96362  24.183  19.733  11.025
34997W        W96363  39.862   2.822  10.896
34998W        W96364  36.487  41.809  12.409
34999W        W96365  37.920   2.920   2.682
35000W        W96366   0.982  11.242   0.292
35001W        W96367  41.908  38.073   4.306
35002W        W96368  22.198   9.691   4.137
35003W        W96369  41.929  37.858   1.354
35004W        W96370  39.869  20.099   1.416
35005W        W96371  44.781  40.943  13.340
35006W        W96372  28.654  23.539  13.469
35007W        W96373  24.484  29.969   2.228
35008W        W96374  25.634  21.102   0.398
35009W        W96375  16.571   6.286   1.318
35010W        W96376  28.591  17.099   3.288
35011W        W96377  23.229  35.031  14.779
35012W        W96378  39.920  19.756   0.317
35013W        W96379   9.167  23.127  13.348
35014W        W96380  22.507   3.832   0.379
35015W        W96381  16.613  31.555   1.319
35016W        W96382  20.592  39.417  13.430
35017W        W96383  42.975  26.146  11.378
35018W        W96384   7.176   3.811  13.421
35019W        W96385  41.841  26.097   2.734
35020W        W96386  16.730  17.719  13.983
35021W        W96387  28.619  15.709   2.770
35022W        W96388  16.809  27.075   1.846
35023W        W96389   2.410   4.343  11.523
35024W        W96390  23.639  41.893   4.697
35025W        W96391   6.766  36.579  13.907
35026W        W96392  24.685  17.568  13.450
35027W        W96393  12.811  42.027  12.441
35028W        W96394  44.383   7.333   4.338
35029W        W96395  36.522  39.464   0.733
35030W        W96396  27.460  35.047  14.376
35031W        W96397   6.268   8.699  10.050
35032W        W96398  34.968  20.636   0.967
35033W        W96399  33.876  22.563  10.474
35034W        W96400  26.621  16.677   3.357
35035W        W96401   9.872   3.395   3.224
35036W        W96402   0.249  38.538  11.048
35037W        W96403  18.237  37.492  12.879
35038W        W96404  25.535  40.333  13.029
35039W        W96405  10.282   4.403  10.925
35040W        W96406  15.094  14.810   3.196
35041W        W96407   4.218  38.508  14.472
35042W        W96408  35.035   4.334  11.570
35043W        W96409  25.581  35.564  10.111
35044W        W96410  24.078  41.309   4.622
35045W        W96411  32.466  25.566   1.413
35046W        W96412  30.561  18.789  12.870
35047W        W96413  30.473  18.712  14.992
35048W        W96414  14.663  40.941   1.877
35049W        W96415  18.250  20.769  11.469
35050W        W96416  27.986   3.747   5.094
35051W        W96417  25.178  31.949   1.303
35052W        W96418  22.190   0.771   1.265
35053W        W96419  28.651  24.564  13.944
35054W        W96420   4.273  43.351   1.856
35055W        W96421  14.685   2.412   2.822
35056W        W96422  19.748  13.344  11.441
35057W        W96423  37.339  16.650  14.825
35058W        W96424  36.995  14.309   0.963
35059W        W96425  39.532  20.757  12.571
35060W        W96426  30.508  42.919  14.912
35061W        W96427  29.624  32.129   3.191
35062W        W96428   1.369  43.890   4.353
35063W        W96429  15.146  10.786  11.496
35064W        W96430  41.030   6.837  13.503
35065W        W96431  22.563  18.084  11.460
35066W        W96432  30.942  21.082   0.459
35067W        W96433  38.357  23.653  14.303
35068W        W96434  32.425  26.163   0.272
35069W        W96435  34.429  30.426   4.319
35070W        W96436   6.371  37.570  10.425
35071W        W96437  38.990   9.356   3.670
35072W        W96438  33.509   2.750   4.121
35073W        W96439  33.454  32.438   0.738
35074W        W96440  39.540   0.274   4.832
35075W        W96441   5.239  24.144   1.361
35076W        W96442  32.897  27.645  13.491
35077W        W96443   2.791  28.081   2.212
35078W        W96444  42.292  21.581   1.291
35079W        W96445   1.880  22.713   1.363
35080W        W96446  30.540   2.376  10.544
35081W        W96447  44.962   2.809  14.451
35082W        W96448  38.408  38.367   0.924
35083W        W96449  26.042   1.743  12.540
35084W        W96450   1.377  19.610   3.199
35085W        W96451  11.679  12.648  14.767
35086W        W96452  24.521  30.543  14.952
35087W        W96453  38.342  26.080   3.345
35088W        W96454  32.616  21.556   0.390
35089W        W96455  38.328   8.824   3.306
35090W        W96456  38.921   8.816  14.963
35091W        W96457  13.759  11.698  14.308
35092W        W96458  28.146  31.031  10.132
35093W        W96459   5.394  22.505   1.298
35094W        W96460   6.325  17.718  10.567
35095W        W96461  33.468  30.083   1.451
35096W        W96462  22.053  39.365  11.066
35097W        W96463  41.035   1.420  11.935
35098W        W96464  23.076   7.865  10.432
35099W        W96465  39.044  28.044   0.335
35100W        W96466  27.041  18.252  14.004
35101W        W96467   4.262   0.349  13.932
35102W        W96468   7.758  32.937   4.343
35103W        W96469  34.446   5.256  10.926
35104W        W96470  27.603   3.385  11.061
35105W        W96471   3.761   7.343  10.143
35106W        W96472  30.078  11.294  13.925
35107W        W96473  35.867   0.838   1.927
35108W        W96474   7.368  10.258  14.434
35109W        W96475  42.460   0.342   4.646
35110W        W96476  11.260  39.440  13.907
35111W        W96477  19.751  18.737   1.805
35112W        W96478  42.905  12.680   3.810
35113W        W96479  24.104  17.730   0.390
35114W        W96480  17.095  29.497  14.348
35115W        W96481  35.416  36.079  11.559
35116W        W96482  13.800  31.516   3.239
35117W        W96483  22.217   1.421  12.062
35118W        W96484  30.995  31.620  14.329
35119W        W96485  24.580  20.608   2.355
35120W        W96486  34.529  33.407  12.841
35121W        W96487   3.716  11.151   2.709
35122W        W96488  38.384  20.526   3.866
35123W        W96489   8.177  25.023   1.322
35124W        W96490  42.848  22.143  10.591
35125W        W96491  36.009  41.401   1.393
35126W        W96492  42.361  26.954  12.545
35127W        W96493  12.622  38.483   0.819
35128W        W96494  43.460  17.237  11.507
35129W        W96495  24.201   9.288   2.197
35130W        W96496   6.737  31.575   2.886
35131W        W96497   7.859  28.574   0.300
35132W        W96498   1.409  12.755  14.981
35133W        W96499  29.591  26.510   3.369
35134W        W96500   2.745   3.822  13.004
35135W        W96501   9.689   8.714   0.259
35136W        W96502  35.923  25.019   2.674
35137W        W96503  37.043   3.363  10.950
35138W        W96504  35.926  44.784  12.022
35139W        W96505  17.588  30.518  14.384
35140W        W96506  28.580  30.494  10.585
35141W        W96507  20.198  23.080  12.547
35142W        W96508  14.817   2.760   0.334
35143W        W96509  22.171  23.072  14.894
35144W        W96510  27.659  33.529  13.381
35145W        W96511  44.409   7.808   1.442
35146W        W96512   9.167  28.617  14.880
35147W        W96513   4.875  14.303  13.401
35148W        W96514   5.880  27.967  14.470
35149W        W96515  37.421   3.948   2.714
35150W        W96516  29.642   3.446   9.943
35151W        W96517  41.978  11.134   0.329
35152W        W96518   8.329  33.957   1.849
35153W        W96519  40.407  24.046   1.736
35154W        W96520  26.127   4.427   3.283
35155W        W96521  39.549  44.342   4.661
35156W        W96522  34.522  10.180  11.939
35157W        W96523  20.666  34.548   3.753
35158W        W96524  17.627  25.696  13.912
35159W        W96525  10.262  41.798  10.579
35160W        W96526  32.994   4.225   1.354
35161W        W96527   4.266  13.753  10.986
35162W        W96528  12.276   7.842   2.735
35163W        W96529  29.567   2.837   2.716
35164W        W96530  14.275   6.921   2.779
35165W        W96531  22.202  35.989   1.439
35166W        W96532   8.759  41.333   2.233
35167W        W96533   1.355   9.853  13.020
35168W        W96534  36.541   8.376  13.063
35169W        W96535   0.483  29.047   1.238
35170W        W96536  10.802  28.447  11.442
35171W        W96537   5.861  40.457   3.763
35172W        W96538  33.604  23.626   1.794
35173W        W96539  42.887   1.824   3.647
35174W        W96540  28.037  38.015   4.303
35175W        W96541  16.760  27.461   3.382
35176W        W96542  31.065  26.654  14.358
35177W        W96543  42.474  13.280  10.549
35178W        W96544   5.886   0.438  10.993
35179W        W96545  26.504  11.766   1.294
35180W        W96546  11.688  36.373   1.797
35181W        W96547  12.725  41.926   2.337
35182W        W96548  39.933  18.141   3.687
35183W        W96549   0.485  44.917   3.364
35184W        W96550  23.651  20.580   4.131
35185W        W96551  24.717   6.419   3.820
35186W        W96552   3.895  25.623  13.493
35187W        W96553  12.758  20.057   1.397
35188W        W96554  40.906   9.820  13.481
35189W        W96555  12.293  28.035   4.232
35190W        W96556  43.317  38.041  12.429
35191W        W96557  32.021  35.505   1.333
35192W        W96558  39.442  15.813  13.456
35193W        W96559   9.728  23.545   1.413
35194W        W96560  11.244  43.508   1.213
35195W        W96561  40.024  34.603   0.844
35196W        W96562  15.626   1.415  14.345
35197W        W96563  36.472  10.375  11.861
35198W        W96564  36.484  13.166  10.428
35199W        W96565   9.207   9.646   3.172
35200W        W96566  32.481  34.028   2.848
35201W        W96567  44.985  37.360  12.374
35202W        W96568   8.762   6.197   1.838
35203W        W96569  31.916  18.669  11.121
35204W        W96570  32.962   7.835   2.832
35205W        W96571   8.312   0.762   0.805
35206W        W96572  31.600  22.571  11.990
35207W        W96573  15.796  33.403   1.368
35208W        W96574  14.687   0.491  10.605
35209W        W96575  33.518  13.116  11.461
35210W        W96576  19.257  14.729  12.834
35211W        W96577  23.573  31.510   4.127
35212W        W96578  26.467   7.334  12.826
35213W        W96579  27.075  10.162  14.842
35214W        W96580  21.561   3.343  13.541
35215W        W96581   0.344  17.589   1.258
35216W        W96582   8.337  13.669  13.918
35217W        W96583  33.937  37.077   1.412
35218W        W96584  41.901  32.461   0.334
35219W        W96585  29.132  13.176  14.959
35220W        W96586  28.010  37.883  13.504
35221W        W96587  17.184  21.723   1.792
35222W        W96588  18.168  36.060  13.442
35223W        W96589   3.374  36.425  11.574
35224W        W96590  35.572   8.657  10.062
35225W        W96591   9.362   7.301  12.502
35226W        W96592  27.192   8.784   0.874
35227W        W96593  25.141   7.802   0.756
35228W        W96594  38.338  31.145  13.439
35229W        W96595  24.511  37.362  12.031
35230W        W96596  33.431  27.559   2.261
35231W        W96597   1.846   5.246  14.438
35232W        W96598  37.350  27.615  10.521
35233W        W96599  22.557  17.669   4.728
35234W        W96600  35.888  24.222  11.856
35235W        W96601  20.599  10.283  10.595
35236W        W96602   9.162  29.157  11.600
35237W        W96603  22.015  24.619   1.383
35238W        W96604  43.948   6.774   3.663
35239W        W96605   4.716  41.331  13.031
35240W        W96606  20.073  43.935  10.937
35241W        W96607  15.821  20.142  14.404
35242W        W96608  22.653  10.154  10.530
35243W        W96609  14.621  33.448  10.467
35244W        W96610  34.097  20.617  14.359
35245W        W96611  24.977  35.389   0.942
35246W        W96612  24.975  18.207   2.833
35247W        W96613   7.821  18.737  13.935
35248W        W96614  39.485  20.632  13.545
35249W        W96615  36.868  28.679   4.230
35250W        W96616   9.713  21.622  13.498
35251W        W96617  30.420  44.477  10.488
35252W        W96618  32.462  35.893   4.643
35253W        W96619  29.640  19.712  13.016
35254W        W96620   0.326  30.998  13.532
35255W        W96621  22.606  29.547   3.291
35256W        W96622  11.856  18.287   1.258
35257W        W96623  44.941   1.342  13.057
35258W        W96624  42.410  23.550  12.574
35259W        W96625  18.678  19.667  14.760
35260W        W96626  23.986  21.643  11.960
35261W        W96627  36.990  39.551   0.922
35262W        W96628  22.672  25.115  11.115
35263W        W96629   8.689  33.383  14.862
35264W        W96630  40.313  35.971   2.890
35265W        W96631  35.423  33.400  11.562
35266W        W96632  44.368  30.990   3.724
35267W        W96633  37.915  44.945   4.222
35268W        W96634   6.308  21.682   2.224
35269W        W96635  25.013   4.350   0.350
35270W        W96636  36.003  16.679  13.371
35271W        W96637  29.493   5.701   0.242
35272W        W96638   3.879  39.037   2.748
35273W        W96639  28.186  23.634  14.301
35274W        W96640  14.188  30.007   3.647
35275W        W96641  28.019  19.203  10.944
35276W        W96642   9.676   6.708  13.536
35277W        W96643  24.624  12.147  14.887
35278W        W96644   8.884  13.284   1.800
35279W        W96645   4.323  41.817  12.408
35280W        W96646  33.476   4.317   3.788
35281W        W96647   5.206  42.282  12.579
35282W        W96648   6.726  25.110  10.406
35283W        W96649  40.308  22.577  11.607
35284W        W96650  18.172  15.130   4.353
35285W        W96651  25.056  21.139   2.279
35286W        W96652  18.593   6.311  14.985
35287W        W96653  13.277  12.188   1.321
35288W        W96654  42.927  42.457  12.458
35289W        W96655   1.332  40.972   0.477
35290W        W96656  27.597  44.332  10.454
35291W        W96657  26.468  39.319   1.709
35292W        W96658  23.997  30.474  13.436
35293W        W96659  14.796   8.277  10.933
35294W        W96660  38.875   7.871   9.980
35295W        W96661  44.784  32.086   4.630
35296W        W96662  13.252  40.333  13.493
35297W        W96663   2.928  15.697   1.237
35298W        W96664  22.242   9.722  14.487
35299W        W96665   1.427  39.552  12.355
35300W        W96666  25.978  38.899   3.166
35301W        W96667  28.973  11.354  13.866
35302W        W96668   0.482  43.365  10.990
35303W        W96669  18.081  34.464   0.786
35304W        W96670  15.326  19.772  12.992
35305W        W96671  32.394   5.385  12.560
35306W        W96672  14.226  40.370   1.772
35307W        W96673  38.426  39.900   1.414
35308W        W96674  39.032  36.570  11.020
35309W        W96675  35.365  30.535   1.759
35310W        W96676   5.364  35.375  13.379
35311W        W96677  26.678  11.327   3.718
35312W        W96678  34.399  16.797  13.864
35313W        W96679   0.332  24.133  14.869
35314W        W96680  28.557  24.198  13.838
35315W        W96681  33.881  28.150  14.971
35316W        W96682  30.551   7.339   1.815
35317W        W96683  22.153  33.437   5.692
35318W        W96684  15.729  12.193  10.500
35319W        W96685  20.738   8.724   0.937
35320W        W96686   2.840  14.263   3.363
35321W        W96687  35.595  19.176   4.142
35322W        W96688  44.809  24.656   1.265
35323W        W96689  34.521  24.507  14.782
35324W        W96690  34.981  32.403  12.433
35325W        W96691  15.729  34.480   3.696
35326W        W96692  16.764  26.507  14.764
35327W        W96693  21.566  26.508   3.183
35328W        W96694  34.065  39.064   2.314
35329W        W96695  43.388  13.213  11.869
35330W        W96696  43.498  16.615  10.904
35331W        W96697  33.970  21.746   3.254
35332W        W96698  39.011  35.585   1.423
35333W        W96699  44.966   5.841  11.448
35334W        W96700   0.912  12.124   2.267
35335W        W96701  30.152  28.665   4.678
35336W        W96702  40.853  36.427  13.412
35337W        W96703  13.682  17.691   5.174
35338W        W96704  34.078  40.817   3.640
35339W        W96705  15.623  30.506  10.973
35340W        W96706  42.310  39.047  12.871
35341W        W96707  33.391   7.863  13.365
35342W        W96708   6.866  36.071   0.954
35343W        W96709  21.642  25.187   3.374
35344W        W96710  31.477  22.608  10.148
35345W        W96711  29.576   6.282   1.805
35346W        W96712  39.957   7.410  13.435
35347W        W96713  33.011  40.982   3.383
35348W        W96714  39.007  14.301  14.362
35349W        W96715  36.508  14.134   9.939
35350W        W96716  38.482  28.970   2.232
35351W        W96717  41.935   4.290   0.846
35352W        W96718   4.243  22.714   1.340
35353W        W96719   8.244   4.223   0.809
35354W        W96720  36.883   0.286   4.253
35355W        W96721  14.093  32.562   1.749
35356W        W96722  26.121  39.483   1.733
35357W        W96723   6.389  30.974   4.192
35358W        W96724   7.897  23.633  11.078
35359W        W96725   4.785  25.978   0.842
35360W        W96726  27.957  39.919   1.217
35361W        W96727   6.289  43.864   2.252
35362W        W96728   3.336  36.498   2.797
35363W        W96729  11.305  34.042   3.637
35364W        W96730  43.896  27.668   3.344
35365W        W96731  39.965  43.941   4.620
35366W        W96732  26.127  41.509   1.723
35367W        W96733  34.108   2.299   0.882
35368W        W96734   8.830  10.295   0.336
35369W        W96735  10.297  12.614   4.123
35370W        W96736  10.224  25.558  15.000
35371W        W96737  39.466  31.537   0.477
35372W        W96738  18.262  34.074  10.071
35373W        W96739  18.069  25.102   4.772
35374W        W96740  40.431   8.802  13.050
35375W        W96741  23.643  12.686   2.729
35376W        W96742  44.307  30.049   3.266
35377W        W96743   2.297  38.525   3.216
35378W        W96744  35.914  37.862  13.050
35379W        W96745  22.160  43.836  13.848
35380W        W96746  32.574  25.095   1.711
35381W        W96747  26.572   8.738   3.191
35382W        W96748  38.938  18.575   0.329
35383W        W96749  19.742  25.598   4.219
35384W        W96750  25.140  25.474  10.612
35385W        W96751  29.951  34.536   2.759
35386W        W96752  36.584  32.018   9.951
35387W        W96753  11.677  36.881  14.979
35388W        W96754  36.040   6.728   4.684
35389W        W96755   2.840  29.925   2.248
35390W        W96756  19.586   3.457  12.468
35391W        W96757   0.378  12.268  10.476
35392W        W96758  33.419  41.456  14.764
35393W        W96759   5.925  18.682   4.343
35394W        W96760   3.298   8.270  10.427
35395W        W96761  11.359   7.789   1.830
35396W        W96762  23.579  37.382  13.823
35397W        W96763  42.374   5.691   0.479
35398W        W96764  36.085  11.232  11.902
35399W        W96765  15.711  20.712   2.687
35400W        W96766  39.883   2.876  14.849
35401W        W96767  20.228  34.588   1.424
35402W        W96768   0.968   6.365  14.384
35403W        W96769  31.008   5.368  12.391
35404W        W96770  31.530  38.501   2.279
35405W        W96771  11.862  27.476   1.837
35406W        W96772  41.497  29.532   1.386
35407W        W96773  18.583  33.461   2.863
35408W        W96774   6.754  13.107  13.317
35409W        W96775  36.877  21.062   2.900
35410W        W96776  36.541  33.967  13.447
35411W        W96777  14.603  41.530  11.381
35412W        W96778  21.097  29.526   1.227
35413W        W96779   6.270   1.892  10.114
35414W        W96780  42.471  24.202   1.754
35415W        W96781  10.332  19.269   2.180
35416W        W96782  33.128  26.109   2.289
35417W        W96783  29.499   4.770  13.874
35418W        W96784  21.050  41.324  13.496
35419W        W96785  43.511  30.546   0.749
35420W        W96786   5.433   8.260   3.761
35421W        W96787  40.838  25.183  14.380
35422W        W96788  29.610  22.590   4.244
35423W        W96789  14.287  18.243   1.887
35424W        W96790   1.883  42.776   2.811
35425W        W96791   1.379  28.975   2.390
35426W        W96792  31.444  27.193   1.317
35427W        W96793   5.715  33.921  14.841
35428W        W96794  11.747  14.199   3.681
35429W        W96795   3.910  26.153   0.365
35430W        W96796  29.963  31.130   3.231
35431W        W96797  20.248  15.146  11.968
35432W        W96798  24.017  33.972  10.564
35433W        W96799  25.541  21.105  14.811
35434W        W96800  22.120  42.334  13.530
35435W        W96801  21.191  30.494   2.381
35436W        W96802   0.860  15.115   0.321
35437W        W96803  36.991  28.467  11.018
35438W        W96804   0.449  39.906  14.505
35439W        W96805  11.827   3.442  12.401
35440W        W96806  14.141  31.420   3.319
35441W        W96807  36.526  28.452   4.789
35442W        W96808  27.595  27.640   2.827
35443W        W96809   0.906  43.468  12.468
35444W        W96810   9.284   3.377  14.002
35445W        W96811  25.637  41.322  12.486
35446W        W96812  22.609  44.947  11.608
35447W        W96813   6.341  14.212   3.203
35448W        W96814  17.066  37.910  10.498
35449W        W96815  39.406   6.349  10.460
35450W        W96816  10.792   3.393  10.516
35451W        W96817   9.758   1.252   2.382
35452W        W96818  44.326  13.311  14.822
35453W        W96819  34.088   2.370   2.700
35454W        W96820   3.340   6.903  14.340
35455W        W96821  34.954  35.424  10.948
35456W        W96822  42.882  34.563   2.368
35457W        W96823  25.714  31.088   5.709
35458W        W96824  10.149   6.209   0.372
35459W        W96825  10.815  24.701   4.784
35460W        W96826  11.319   5.896   2.316
35461W        W96827  40.825  40.369  13.492
35462W        W96828  42.514  35.864   2.750
35463W        W96829   5.361  30.619   2.675
35464W        W96830  32.070   6.210   2.320
35465W        W96831  10.854  43.394   1.212
35466W        W96832  42.522  15.107   4.314
35467W        W96833  11.681  34.583   0.337
35468W        W96834  44.936  43.323   0.348
35469W        W96835  43.508  21.197  12.864
35470W        W96836  43.412  28.500   3.716
35471W        W96837  35.358  10.814  12.849
35472W        W96838  34.061  14.186  12.572
35473W        W96839   9.769  14.186   3.733
35474W        W96840  20.249  10.779   3.334
35475W        W96841  21.678  10.343  10.456
35476W        W96842  30.081  14.639  10.446
35477W        W96843  24.689   6.188   4.316
35478W        W96844  23.010  41.992  11.540
35479W        W96845  12.779  26.492   0.823
35480W        W96846  28.057   0.408   3.804
35481W        W96847  33.920  30.537   4.694
35482W        W96848  28.947  22.233  13.919
35483W        W96849   5.687  32.978  14.911
35484W        W96850   0.806  44.422   2.301
35485W        W96851   2.470  28.038  13.353
35486W        W96852   3.409  19.076  11.911
35487W        W96853  10.745  23.026   1.293
35488W        W96854  25.993  33.044  10.644
35489W        W96855  27.975  24.614  13.962
35490W        W96856  18.674  40.001  13.456
35491W        W96857  32.060  41.481   3.702
35492W        W96858  14.164  35.939  13.368
35493W        W96859   6.782  14.744  14.771
35494W        W96860  23.676  32.079  12.576
35495W        W96861  17.608  40.889  11.522
35496W        W96862  21.558  15.262   1.313
35497W        W96863   2.380   1.293   3.819
35498W        W96864  28.163  36.431  12.447
35499W        W96865   8.281  26.574  10.894
35500W        W96866   5.809   0.873  11.381
35501W        W96867  14.122  32.972  12.994
35502W        W96868  28.547   8.385   3.674
35503W        W96869  38.937   8.731   9.963
35504W        W96870   0.838  22.053  14.930
35505W        W96871   4.285   7.706  10.493
35506W        W96872   6.350  40.535  10.614
35507W        W96873  13.180  11.207  13.825
35508W        W96874   3.925  22.507   0.319
35509W        W96875  14.598   3.290  12.443
35510W        W96876  38.529   3.955  10.515
35511W        W96877  18.263  39.854   1.336
35512W        W96878  39.448   1.389  13.895
35513W        W96879   3.319  25.005   3.645
35514W        W96880  19.611  43.297  10.568
35515W        W96881   2.462   0.282  11.458
35516W        W96882  36.460  29.451   4.197
35517W        W96883   0.939  24.593   4.749
35518W        W96884  20.688   3.732   5.170
35519W        W96885   1.738  18.695   1.366
35520W        W96886  19.240  41.316  14.031
35521W        W96887  10.285  11.177  10.136
35522W        W96888  32.559  28.961  13.547
35523W        W96889  19.575  18.614   3.216
35524W        W96890  26.562   8.869  13.956
35525W        W96891   7.402  25.106  14.450
35526W        W96892  23.225  30.648  11.433
35527W        W96893  35.888  23.700  14.407
35528W        W96894  10.210  28.446  12.408
35529W        W96895  33.934  25.966   3.664
35530W        W96896  34.473  24.545   1.404
35531W        W96897  30.500  33.929  11.102
35532W        W96898  40.457  18.588   3.223
35533W        W96899  29.925  42.525  12.009
35534W        W96900  11.714  41.499   1.891
35535W        W96901  33.497  21.618   3.251
35536W        W96902   5.305  38.391   0.462
35537W        W96903   5.387  12.663  10.566
35538W        W96904  32.084  42.855  11.446
35539W        W96905  25.176  29.506  10.501
35540W        W96906   5.818   9.215  10.973
35541W        W96907  44.919  26.199   2.888
35542W        W96908  43.325  25.087  10.019
35543W        W96909   6.269  14.290   0.426
35544W        W96910  27.020  26.117   0.787
35545W        W96911   2.743  24.026  11.056
35546W        W96912  41.856  37.484  11.089
35547W        W96913  32.005  33.016  13.839
35548W        W96914   7.888   0.406   3.747
35549W        W96915   7.350  37.506  12.045
35550W        W96916   7.236  19.123   2.677
35551W        W96917  26.512  36.992  13.475
35552W        W96918  18.774  11.158  12.475
35553W        W96919  22.573  27.090   0.254
35554W        W96920  10.829  22.744  13.474
35555W        W96921  29.920   6.755   1.735
35556W        W96922  37.387   4.815   4.272
35557W        W96923  17.604   1.331   0.842
35558W        W96924  12.724   2.888   4.795
35559W        W96925   6.365  44.435  10.126
35560W        W96926  19.251   7.357   2.713
35561W        W96927  14.336  36.850  14.767
35562W        W96928  11.363  28.482   1.290
35563W        W96929   4.229   3.376  11.574
35564W        W96930  35.854  13.727  14.812
35565W        W96931  17.087  38.820   4.352
35566W        W96932  10.640   6.223   0.818
35567W        W96933  32.618  35.483   3.834
35568W        W96934  35.381  19.733   0.462
35569W        W96935   3.926   4.441  12.871
35570W        W96936  23.713   7.358  10.113
35571W        W96937  40.404  21.158   1.793
35572W        W96938  11.756  31.493   4.301
35573W        W96939  22.099  44.806   0.784
35574W        W96940  18.061  32.572  13.930
35575W        W96941  11.329  34.987  12.923
35576W        W96942  32.397   6.731   3.172
35577W        W96943   5.724  44.793   2.726
35578W        W96944  43.824  27.036  12.431
35579W        W96945  28.667  40.820  11.981
35580W        W96946  35.986  13.821  11.999
35581W        W96947   2.333  15.204  14.291
35582W        W96948  25.638  42.933   2.673
35583W        W96949  12.734  26.607   1.788
35584W        W96950  25.127  39.396   1.882
35585W        W96951   5.729  12.274   0.329
35586W        W96952  21.604  27.946  12.961
35587W        W96953   1.312   0.292   1.822
35588W        W96954  13.609  20.066   0.306
35589W        W96955  21.680  22.105   0.266
35590W        W96956  30.965  44.307   5.109
35591W        W96957  15.086  18.062  14.404
35592W        W96958  43.282  24.008  12.558
35593W        W96959  40.994  39.034  11.938
35594W        W96960  21.607  39.972  12.889
35595W        W96961  34.873  31.491   3.738
35596W        W96962  14.720  26.200   1.367
35597W        W96963   7.771  10.169   0.287
35598W        W96964   7.843  37.362  10.028
35599W        W96965  25.622  11.329   2.785
35600W        W96966  29.135  18.581  10.478
35601W        W96967  37.437   7.403   4.343
35602W        W96968  40.904   1.776  11.491
35603W        W96969  20.267   4.380  12.369
35604W        W96970  30.623  41.903   2.823
35605W        W96971  15.760  35.594  10.928
35606W        W96972   2.368  24.612  11.550
35607W        W96973  14.656  23.077  14.898
35608W        W96974  31.429  12.241  11.039
35609W        W96975   2.853  42.446  13.401
35610W        W96976  20.078  12.694   0.898
35611W        W96977  22.038  37.075  11.977
35612W        W96978   6.192  21.749  11.428
35613W        W96979  19.777  42.862  12.964
35614W        W96980  14.178   8.790   2.716
35615W        W96981  36.506  43.371   3.336
35616W        W96982   0.272  19.241   1.779
35617W        W96983  10.294   0.451  14.996
35618W        W96984   0.462   7.213  10.563
35619W        W96985   9.386  12.144   2.194
35620W        W96986   6.425   0.748  11.079
35621W        W96987  39.906   2.811   2.663
35622W        W96988  41.364  36.378   1.824
35623W        W96989  36.422  35.898   4.202
35624W        W96990  13.642  27.047  10.540
35625W        W96991  39.403  25.976   1.240
35626W        W96992  23.017  30.987   1.785
35627W        W96993  32.913   4.752  12.936
35628W        W96994  12.736   6.362  10.532
35629W        W96995  16.105  16.145  12.034
35630W        W96996  34.429  22.633   4.136
35631W        W96997   2.906  21.525  10.422
35632W        W96998  37.970  40.008   3.737
35633W        W96999   0.400  26.584  12.035
35634W        W97000  40.432  16.577   1.759
35635W        W97001  29.021  20.609  13.833
35636W        W97002  34.010  15.676  13.370
35637W        W97003  41.943   9.743  13.545
35638W        W97004  16.640  33.888  11.560
35639W        W97005  44.353  24.001   4.743
35640W        W97006  23.183  17.714  12.844
35641W        W97007   3.458   5.811   4.683
35642W        W97008  43.449   1.350  13.515
35643W        W97009  39.559  25.197   1.245
35644W        W97010  44.342  10.746  10.533
35645W        W97011  24.615  31.555   1.858
35646W        W97012  40.403   9.254   1.790
35647W        W97013  13.786  30.912  12.344
35648W        W97014  28.648  16.314  13.823
35649W        W97015  38.458  35.373   3.210
35650W        W97016  11.654   6.750  10.501
35651W        W97017  15.666   1.955   3.753
35652W        W97018  37.379  12.131   4.738
35653W        W97019  29.425  41.012  12.861
35654W        W97020  37.346   9.767   0.953
35655W        W97021   6.843   4.822  14.978
35656W        W97022  31.574  35.491  10.978
35657W        W97023  22.093   1.789  12.553
35658W        W97024  28.636  15.659   0.255
35659W        W97025   9.658   3.889  14.776
35660W        W97026  19.144  11.168   2.320
35661W        W97027  33.401  32.993   1.410
35662W        W97028  39.406  40.965  13.822
35663W        W97029  12.838  41.478   4.318
35664W        W97030  34.985  12.267   3.641
35665W        W97031   0.798  21.092   2.209
35666W        W97032  36.946  23.096   2.783
35667W        W97033   3.833  27.986  13.485
35668W        W97034  28.084  41.520  11.541
35669W        W97035   9.738  10.308  12.985
35670W        W97036  22.522  11.143   3.219
35671W        W97037   4.279   3.370   3.695
35672W        W97038  11.794  25.534  12.450
35673W        W97039  34.053  32.980  12.938
35674W        W97040   3.376  32.484   4.183
35675W        W97041  34.908   2.722   2.851
35676W        W97042   0.343  41.322   2.809
35677W        W97043  11.717  41.876  13.510
35678W        W97044   3.908  37.962   4.622
35679W        W97045  40.921  21.131  13.976
35680W        W97046  21.183  29.078  10.485
35681W        W97047   6.898   0.925   1.845
35682W        W97048  23.160  13.752   0.480
35683W        W97049  41.916  17.082   2.362
35684W        W97050  44.450   9.691  11.431
35685W        W97051  29.954   9.329  12.968
35686W        W97052  35.373  44.973  14.333
35687W        W97053  10.708   7.359   0.401
35688W        W97054  38.482  19.625  13.961
35689W        W97055  22.602  14.182   2.193
35690W        W97056  39.043  33.426   3.235
35691W        W97057  39.350  22.653  13.911
35692W        W97058  35.461  34.438  13.398
35693W        W97059  26.620  39.970  13.485
35694W        W97060  39.509  39.398  13.538
35695W        W97061  41.342  34.565   0.912
35696W        W97062   7.215  23.993   4.328
35697W        W97063  34.589  27.159   3.771
35698W        W97064  21.187  41.365   2.824
35699W        W97065  18.228  41.308  11.081
35700W        W97066  43.446  17.266   0.857
35701W        W97067   6.192   8.689  13.442
35702W        W97068   5.291   0.327  13.436
35703W        W97069   2.748  40.463   2.783
35704W        W97070  27.480   5.203   4.697
35705W        W97071  26.458  22.172   2.379
35706W        W97072  33.891  29.149   2.691
35707W        W97073  17.206   0.398   4.729
35708W        W97074  41.971  42.998   4.132
35709W        W97075  30.551  35.922   3.719
35710W        W97076  27.158  23.540   4.637
35711W        W97077  11.804  23.235  12.913
35712W        W97078  12.252  10.269   9.925
35713W        W97079  43.997   8.871   0.336
35714W        W97080  27.691  35.073  13.382
35715W        W97081  32.408  28.040  14.951
35716W        W97082  40.343  26.622  12.562
35717W        W97083  24.591  23.605  11.989
35718W        W97084  14.654  38.055   1.808
35719W        W97085  33.598  38.542   0.943
35720W        W97086  31.937   6.816   1.799
35721W        W97087  39.998  32.474  14.895
35722W        W97088  12.350   5.395  11.123
35723W        W97089  20.715  17.711   4.684
35724W        W97090  21.230  12.251   3.195
35725W        W97091  38.536  41.920  13.862
35726W        W97092  10.657  28.651   4.768
35727W        W97093  37.528  32.926   2.862
35728W        W97094   0.971  24.116   2.805
35729W        W97095  41.037   2.310  14.768
35730W        W97096  18.191  37.357   3.806
35731W        W97097  31.084  42.290   3.363
35732W        W97098  38.462   7.755  11.049
35733W        W97099   2.431  21.599  14.322
35734W        W97100  20.631  14.727  12.510
35735W        W97101  18.547  32.027  12.524
35736W        W97102  33.041  39.997  13.792
35737W        W97103  19.699   5.432  14.341
35738W        W97104   3.241  39.976   1.770
35739W        W97105   2.775   1.451  14.380
35740W        W97106  34.018  26.604  12.928
35741W        W97107  28.183  16.081  14.868
35742W        W97108  23.651   3.276  10.944
35743W        W97109  23.565  39.064   2.881
35744W        W97110  11.132  13.167   0.452
35745W        W97111  10.682  12.248   0.876
35746W        W97112  35.985  23.092  11.451
35747W        W97113  33.577   4.437  13.882
35748W        W97114  40.456  31.113  11.507
35749W        W97115   8.829  19.553   2.727
35750W        W97116  21.124  42.920   0.413
35751W        W97117  12.677  24.693   0.467
35752W        W97118  29.606  19.765  10.491
35753W        W97119  42.931  43.792  11.918
35754W        W97120   9.224  43.989   1.924
35755W        W97121  24.001  11.249   1.794
35756W        W97122  41.977  21.642  11.920
35757W        W97123   4.236  20.234   1.833
35758W        W97124  23.040   9.762  12.001
35759W        W97125  32.604  11.804   1.698
35760W        W97126  15.134  10.322  13.835
35761W        W97127  34.021   8.849   4.792
35762W        W97128  42.493  39.948   1.802
35763W        W97129  16.668  42.426  11.415
35764W        W97130   2.452  29.646   2.886
35765W        W97131  36.043  20.171  11.456
35766W        W97132  22.741  38.350  13.986
35767W        W97133   5.746  18.181   2.334
35768W        W97134  43.294   3.395  13.455
35769W        W97135  39.830  25.003   1.263
35770W        W97136   6.782  40.495   1.876
35771W        W97137  22.723  40.484  12.845
35772W        W97138  13.197  38.454  11.523
35773W        W97139  13.240  21.697   1.755
35774W        W97140  22.028  14.817   3.226
35775W        W97141   0.890  25.114   3.254
35776W        W97142   5.393  41.330  13.995
35777W        W97143  36.429  11.739  14.387
35778W        W97144   0.869   3.279  11.875
35779W        W97145  16.074  29.003  14.464
35780W        W97146  32.399  15.104  14.906
35781W        W97147  21.565  30.907   4.245
35782W        W97148  20.621  44.500   4.355
35783W        W97149  29.045  12.283  11.586
35784W        W97150  15.582  39.966   4.336
35785W        W97151   7.860   4.848   0.438
35786W        W97152  10.295  18.159   1.288
35787W        W97153  16.646  26.201  10.459
35788W        W97154  34.486   9.768   2.321
35789W        W97155  17.739  38.562   2.247
35790W        W97156  35.910   8.361   4.221
35791W        W97157  29.610  41.364   3.718
35792W        W97158  37.031  43.405   4.737
35793W        W97159  41.482  31.126  14.917
35794W        W97160  29.528  15.095  14.505
35795W        W97161   1.744  12.247   1.342
35796W        W97162   4.297  11.818   3.652
35797W        W97163  23.581   7.730   0.355
35798W        W97164  36.983  40.874   0.771
35799W        W97165  27.612   8.345  10.424
35800W        W97166  34.521  12.794  12.545
35801W        W97167  16.268  41.319   3.244
35802W        W97168  18.161   6.346  10.608
35803W        W97169  38.437  39.929   3.644
35804W        W97170  16.261  32.433  14.826
35805W        W97171  43.429  32.913  14.762
35806W        W97172  37.493  18.179  14.909
35807W        W97173   3.758  14.221   1.748
35808W        W97174  22.706  15.727  14.334
35809W        W97175  44.328  20.211  11.893
35810W        W97176   9.698   7.233   1.278
35811W        W97177  10.144  21.207  11.862
35812W        W97178  24.185   8.241   2.832
35813W        W97179   1.933  23.640   0.899
35814W        W97180   2.335  30.932   3.852
35815W        W97181  22.607  15.323   3.727
35816W        W97182   8.236  33.467   2.236
35817W        W97183  26.120  27.591  12.845
35818W        W97184  33.409   4.309  10.412
35819W        W97185  19.601  13.155   3.772
35820W        W97186  37.078  16.694   3.289
35821W        W97187  39.506   9.711   4.626
35822W        W97188  27.043   4.212   4.706
35823W        W97189  31.549  33.456  12.500
35824W        W97190  15.739  39.006   1.222
35825W        W97191  23.112  39.892   0.814
35826W        W97192  16.109  30.492  12.506
35827W        W97193  29.098  36.059   2.761
35828W        W97194  30.973  29.579   3.267
35829W        W97195   1.758  33.395  14.507
35830W        W97196  36.897  36.043   3.833
35831W        W97197  27.547   2.756  12.928
35832W        W97198  24.639   8.834  10.945
35833W        W97199  34.507  35.420   3.196
35834W        W97200  36.545  11.761   1.268
35835W        W97201   6.232  13.763  12.342
35836W        W97202  22.217  34.377   2.241
35837W        W97203  36.959  18.646   4.303
35838W        W97204   6.375  38.506   1.924
35839W        W97205  41.522  23.544   3.851
35840W        W97206   0.744  27.196   4.744
35841W        W97207  13.757  15.714  12.956
35842W        W97208  15.651  21.525   0.270
35843W        W97209  42.488  26.168  12.347
35844W        W97210  17.751  22.247  12.498
35845W        W97211  30.522  29.554   3.323
35846W        W97212  42.917  24.708   1.808
35847W        W97213  31.089  44.910  11.997
35848W        W97214   7.333  40.517   2.712
35849W        W97215   7.905  33.989   3.826
35850W        W97216  37.048   2.342  11.043
35851W        W97217   9.204  30.102  11.937
35852W        W97218   5.897  18.666  13.044
35853W        W97219  10.143   7.351   5.212
35854W        W97220   6.739  33.468  14.419
35855W        W97221  24.069  34.480  13.943
35856W        W97222  21.142  36.847  14.378
35857W        W97223  20.217  29.449   0.398
35858W        W97224   9.390   4.882   2.416
35859W        W97225  37.900  20.235  14.949
35860W        W97226  39.408  10.160   5.294
35861W        W97227  25.010   9.666  13.416
35862W        W97228  21.698  32.551   2.318
35863W        W97229  12.775  16.179  10.513
35864W        W97230  13.244   0.307   4.287
35865W        W97231  38.934  22.142  12.577
35866W        W97232   5.764   9.237  10.483
35867W        W97233  25.629  13.707   2.373
35868W        W97234  28.599  15.743  12.447
35869W        W97235   7.681  35.516  11.588
35870W        W97236  42.864  10.185  14.464
35871W        W97237  26.600  10.729   2.252
35872W        W97238  30.653  10.180  11.550
35873W        W97239  13.140  42.462   0.829
35874W        W97240   4.248  29.489  14.917
35875W        W97241  30.623  37.486   0.747
35876W        W97242  13.283  19.259   4.241
35877W        W97243  15.730  28.457  10.950
35878W        W97244   2.792   4.756   2.791
35879W        W97245  43.300  15.731  11.940
35880W        W97246  16.655   5.235  12.014
35881W        W97247  19.094  35.432  14.983
35882W        W97248  17.192   4.296  11.537
35883W        W97249  33.946   0.841   2.843
35884W        W97250  18.072   9.392  14.460
35885W        W97251  27.587  26.051  14.374
35886W        W97252  14.711  33.510   3.234
35887W        W97253  36.958  33.882  11.058
35888W        W97254   7.251  41.527  11.598
35889W        W97255  14.745  13.742   3.265
35890W        W97256   7.322  27.150   1.831
35891W        W97257  31.480   3.782  10.944
35892W        W97258  10.169  41.339  13.464
35893W        W97259  18.679   5.419  10.519
35894W        W97260  10.862  11.792   4.774
35895W        W97261  20.550  38.035  12.579
35896W        W97262  37.511  41.005  10.961
35897W        W97263  33.556  39.538   3.164
35898W        W97264  33.978  41.021  14.357
35899W        W97265  32.528  26.968   2.779
35900W        W97266  12.690  30.065   2.371
35901W        W97267  34.080  34.865  14.893
35902W        W97268  40.469  25.489  13.032
35903W        W97269  12.221   7.667  12.528
35904W        W97270  20.090  15.293  11.566
35905W        W97271   2.822  29.122  14.891
35906W        W97272  21.530  21.548   3.288
35907W        W97273  12.724   6.813   3.207
35908W        W97274  38.501  27.043   0.766
35909W        W97275  26.652  29.058  10.436
35910W        W97276  18.767   6.801  11.900
35911W        W97277   2.963  44.953   1.829
35912W        W97278   0.273  27.015  11.455
35913W        W97279  29.487  18.659  11.499
35914W        W97280   1.364  13.283  10.935
35915W        W97281  12.287  41.537   3.294
35916W        W97282  33.510  26.694   1.265
35917W        W97283   7.829  21.749  13.018
35918W        W97284  35.947   4.262  14.864
35919W        W97285  42.792  15.237   3.635
35920W        W97286   0.308  10.837   4.673
35921W        W97287  35.865  24.554   0.350
35922W        W97288   9.708  10.284   0.310
35923W        W97289   5.238  41.789  12.558
35924W        W97290   7.335  44.848   4.331
35925W        W97291   8.302  34.487   0.357
35926W        W97292   2.876  35.932   0.864
35927W        W97293  26.979  23.053  10.986
35928W        W97294  12.242  13.282   1.920
35929W        W97295  34.373   1.952  12.961
35930W        W97296  28.010  25.562   4.121
35931W        W97297  34.485   8.822   1.902
35932W        W97298  34.572  33.624  11.500
35933W        W97299  10.179  24.008  10.940
35934W        W97300  34.428  41.337   5.796
35935W        W97301  35.365   2.952   3.723
35936W        W97302  35.534  21.035  14.817
35937W        W97303  28.939   4.426  12.451
35938W        W97304  38.898  10.365  11.417
35939W        W97305  30.955  35.000   1.238
35940W        W97306   3.848  42.428  13.801
35941W        W97307   8.382   9.166   0.865
35942W        W97308  17.610   1.260   2.361
35943W        W97309  20.766  33.117   3.207
35944W        W97310  20.175  36.945   2.350
35945W        W97311  40.369   2.744   1.354
35946W        W97312  17.291  42.512  13.843
35947W        W97313   0.897  34.423   2.188
35948W        W97314  24.189  12.308   1.764
35949W        W97315  33.886  37.453   2.227
35950W        W97316  41.357  20.528  11.117
35951W        W97317  25.534  43.985   2.397
35952W        W97318  42.877  19.768   1.828
35953W        W97319   9.794  35.500   1.886
35954W        W97320  15.309   6.804  12.474
35955W        W97321   2.392  10.674  14.463
35956W        W97322  34.602  19.697   4.233
35957W        W97323  27.946  13.269   3.387
35958W        W97324  35.527  27.655   3.829
35959W        W97325  32.453  26.544  12.940
35960W        W97326  17.252   6.741  12.394
35961W        W97327  30.973  38.498  11.089
35962W        W97328  43.335  32.520   2.668
35963W        W97329  37.834  38.933  11.375
35964W        W97330   3.428  42.868   0.263
35965W        W97331  19.735  19.231   0.323
35966W        W97332   8.701  34.973   1.349
35967W        W97333  17.063   1.469   3.638
35968W        W97334  17.278   9.388  11.964
35969W        W97335   9.758  36.032  10.897
35970W        W97336  33.018   5.279  14.767
35971W        W97337  33.976  29.498  14.334
35972W        W97338  13.842  27.658  11.875
35973W        W97339   5.312  26.523   0.442
35974W        W97340   1.309  38.916  11.081
35975W        W97341  36.444  26.089   1.825
35976W        W97342  15.745  18.612   3.375
35977W        W97343  31.504  23.137  12.940
35978W        W97344   2.917  13.223  13.475
35979W        W97345  38.365  18.157  14.977
35980W        W97346  22.695  44.919   3.687
35981W        W97347  34.553  39.464  13.313
35982W        W97348  30.947  26.530   3.776
35983W        W97349  33.552  23.567   3.828
35984W        W97350   3.414  16.152  12.458
35985W        W97351  26.522  21.611  14.312
35986W        W97352  37.566  29.101   4.295
35987W        W97353  22.154  21.605  13.950
35988W        W97354  21.754  14.689   1.794
35989W        W97355   9.856  20.740  13.310
35990W        W97356  15.280   4.729   0.281
35991W        W97357  30.630  15.156   1.792
35992W        W97358  25.475   7.814   1.877
35993W        W97359   3.826  42.443  12.548
35994W        W97360  11.316  39.880  11.969
35995W        W97361  11.236   9.369   3.245
35996W        W97362  24.226   7.192  12.895
35997W        W97363  25.151  44.376  14.904
35998W        W97364  33.440  34.009  11.910
35999W        W97365  15.784  36.422   3.717
36000W        W97366   3.384  37.405   3.789
36001W        W97367   7.210  38.922  10.068
36002W        W97368  24.097  14.208  14.345
36003W        W97369  21.224  23.231   4.638
36004W        W97370   7.299  37.481   4.178
36005W        W97371  27.057  22.205   2.355
36006W        W97372  31.017   1.750   0.765
36007W        W97373   6.237  14.638   9.486
36008W        W97374  37.443  16.147  13.996
36009W        W97375  41.962  20.094  12.879
36010W        W97376  16.146  41.010  14.834
36011W        W97377  34.917  22.719  12.356
36012W        W97378  44.352  42.422  12.912
36013W        W97379  20.593  27.040   2.853
36014W        W97380   0.819   1.839   0.309
36015W        W97381  38.545  26.502   3.754
36016W        W97382  28.980   0.255   1.929
36017W        W97383  36.362  31.942   1.907
36018W        W97384  43.019  20.248   2.185
36019W        W97385   0.822  26.665   4.604
36020W        W97386  34.954  33.451  14.302
36021W        W97387  37.391  32.917  12.433
36022W        W97388  15.160  10.634   0.389
36023W        W97389  15.655   1.885   2.179
36024W        W97390  39.324   9.183   4.299
36025W        W97391  20.566  37.888   2.210
36026W        W97392  36.422  28.169  13.447
36027W        W97393  33.017  35.068  10.510
36028W        W97394  38.437  24.973  12.394
36029W        W97395  22.041   2.333  12.024
36030W        W97396  40.451  26.967  13.424
36031W        W97397  14.308  36.987   4.185
36032W        W97398  29.602  23.556  13.336
36033W        W97399  11.222  37.912   2.774
36034W        W97400  13.842  26.623  13.898
36035W        W97401   8.787  19.770  14.339
36036W        W97402   4.774  23.056   4.131
36037W        W97403  35.911  15.205  13.954
36038W        W97404  42.983  14.325   3.348
36039W        W97405   0.832   1.424   1.858
36040W        W97406  16.096  17.651  13.453
36041W        W97407  43.295  39.899  14.938
36042W        W97408  24.494  19.607  13.985
36043W        W97409  15.699  44.493  12.970
36044W        W97410  31.557  16.118   2.186
36045W        W97411  30.457  20.550   2.324
36046W        W97412  41.846  12.613  10.544
36047W        W97413  21.024   2.319   1.915
36048W        W97414  23.985   1.296   0.908
36049W        W97415  43.279  16.701  11.883
36050W        W97416  31.130  43.796   0.255
36051W        W97417  16.228  32.961   0.853
36052W        W97418  28.943  44.495   0.425
36053W        W97419   3.764  29.919  13.403
36054W        W97420   3.284  24.216   2.210
36055W        W97421   7.769  11.771   5.171
36056W        W97422  33.043  43.276   1.771
36057W        W97423  28.086  19.256  12.377
36058W        W97424  41.925  17.568  12.839
36059W        W97425   9.774   3.765   3.855
36060W        W97426   1.401  40.379  11.114
36061W        W97427  26.475  19.727   3.223
36062W        W97428  20.175   2.868  14.427
36063W        W97429  30.460  13.699   4.349
36064W        W97430  24.071  14.617  14.765
36065W        W97431  33.456   7.244  10.406
36066W        W97432   4.438  10.277  10.974
36067W        W97433  15.302  39.458   0.742
36068W        W97434  20.084  10.742  11.423
36069W        W97435  34.440  38.836   3.192
36070W        W97436  15.272  17.160  11.976
36071W        W97437   3.926  26.989   0.424
36072W        W97438   9.161  22.572   4.748
36073W        W97439  34.910  11.754   3.208
36074W        W97440  15.219  11.197  12.002
36075W        W97441   4.714  32.455  14.963
36076W        W97442  16.766  34.527   3.746
36077W        W97443   3.331  10.864  10.489
36078W        W97444  32.028   0.984   2.306
36079W        W97445  44.762  21.210  12.447
36080W        W97446  14.723   7.252  14.359
36081W        W97447  18.643  41.364  14.787
36082W        W97448   6.219   6.323   1.883
36083W        W97449  38.382   1.845   3.375
36084W        W97450   1.290  29.990  10.891
36085W        W97451  27.541  23.569   2.808
36086W        W97452  25.027  21.592  13.382
36087W        W97453  12.690   4.251   0.394
36088W        W97454  21.211   5.325  14.385
36089W        W97455  25.220  30.127  11.380
36090W        W97456  38.911  17.725  13.320
36091W        W97457   3.380   5.735  11.030
36092W        W97458   7.312  16.228   1.861
36093W        W97459  24.995  10.362  14.509
36094W        W97460  25.090  10.703  14.011
36095W        W97461  33.387   4.940   3.684
36096W        W97462   1.790   8.349  14.811
36097W        W97463  36.540  16.253   0.285
36098W        W97464  23.126  30.960  10.531
36099W        W97465  35.557  21.246  12.874
36100W        W97466   2.308  15.660  13.355
36101W        W97467  27.647  18.061   0.840
36102W        W97468   5.412  28.055   9.939
36103W        W97469  41.511  19.042   1.766
36104W        W97470  36.492   1.429   3.381
36105W        W97471  36.484  14.619   3.187
36106W        W97472  41.866  13.832  13.441
36107W        W97473   0.314  40.304   4.245
36108W        W97474  43.418  30.506  10.601
36109W        W97475  44.771  11.354  12.569
36110W        W97476  35.370  21.073   4.745
36111W        W97477  37.953  38.960  14.791
36112W        W97478  41.434  18.189  11.519
36113W        W97479  39.498   1.344  14.354
36114W        W97480  33.592  22.687   2.853
36115W        W97481  33.983  22.533   1.307
36116W        W97482  36.035  28.645  14.319
36117W        W97483  11.646  24.533   4.797
36118W        W97484  32.973   2.379  13.528
36119W        W97485  23.045  12.632   0.882
36120W        W97486  12.737  31.140   0.831
36121W        W97487  16.637  42.455   4.322
36122W        W97488   1.251  28.514   3.677
36123W        W97489  14.134  14.766   2.793
36124W        W97490  26.604   2.295   1.864
36125W        W97491   1.458  29.509   0.247
36126W        W97492  36.445  39.873  13.363
36127W        W97493  27.114  36.395   1.803
36128W        W97494  33.000  30.484  12.440
36129W        W97495  15.698  25.195  11.955
36130W        W97496  34.442   4.776  10.408
36131W        W97497  44.949  19.592  11.970
36132W        W97498  22.725  11.801   0.803
36133W        W97499  17.253  18.563   3.714
36134W        W97500   3.403   7.251   2.273
36135W        W97501  38.527  39.886  14.941
36136W        W97502  12.175   0.744  14.951
36137W        W97503   5.814  25.504   4.210
36138W        W97504  17.306  22.728  11.571
36139W        W97505  26.041   0.866   3.237
36140W        W97506  31.939  39.505   3.690
36141W        W97507  29.656  30.621   2.223
36142W        W97508  11.237   8.309   0.918
36143W        W97509   0.891  22.661  10.104
36144W        W97510  39.402  11.651  14.433
36145W        W97511  34.399  40.934   1.710
36146W        W97512  12.677  11.365  13.795
36147W        W97513  12.701   1.967  13.942
36148W        W97514  31.100  11.810   3.359
36149W        W97515  37.038   2.271   0.918
36150W        W97516   0.846   3.761   3.674
36151W        W97517  36.531  13.687   2.895
36152W        W97518  27.557  42.415  11.431
36153W        W97519  22.165  27.593   0.855
36154W        W97520  21.587   0.848   2.699
36155W        W97521  21.219  20.538  14.514
36156W        W97522   6.322   0.794  13.491
36157W        W97523  31.626  20.600   1.355
36158W        W97524  37.850  32.564  12.513
36159W        W97525   1.806   7.343   1.399
36160W        W97526  16.753  21.700  12.492
36161W        W97527  23.506  28.107   3.781
36162W        W97528  25.031  32.426   2.700
36163W        W97529  24.510  15.686   1.886
36164W        W97530  25.696  34.964  13.904
36165W        W97531  23.529  13.807  14.362
36166W        W97532  20.600  13.337   0.437
36167W        W97533  19.219  36.850   2.354
36168W        W97534  19.635   3.779   4.343
36169W        W97535   7.755  26.141  12.379
36170W        W97536  36.034  41.996   1.721
36171W        W97537  16.647   0.776   1.267
36172W        W97538   9.864   7.754   4.232
36173W        W97539  40.380  15.206  14.002
36174W        W97540  16.269  24.131   3.809
36175W        W97541  33.423  21.627  14.835
36176W        W97542   7.216  28.951  14.441
36177W        W97543  34.960  38.978   3.275
36178W        W97544  25.217   6.238   0.822
36179W        W97545   4.385  15.749   2.804
36180W        W97546  16.090  22.663   4.824
36181W        W97547   3.333  20.130  11.392
36182W        W97548  19.718  38.397   4.327
36183W        W97549   8.332  32.966  11.986
36184W        W97550  26.672   1.973   2.684
36185W        W97551   6.290  20.125   3.251
36186W        W97552  41.864   5.438  10.551
36187W        W97553   1.791  25.054  10.156
36188W        W97554   0.857  27.605   2.344
36189W        W97555  18.646  29.142  12.905
36190W        W97556  16.703  19.741  10.414
36191W        W97557  18.254   7.814  10.443
36192W        W97558  40.019  10.636   1.302
36193W        W97559  38.034  18.185   2.271
36194W        W97560  12.796  15.291   0.797
36195W        W97561  13.638   4.373  10.901
36196W        W97562   7.180  10.363   2.251
36197W        W97563  24.065  42.779  13.441
36198W        W97564  25.567  42.434   3.351
36199W        W97565  44.819  31.603  14.417
36200W        W97566  18.642  37.513  14.770
36201W        W97567  27.586  18.177  11.114
36202W        W97568  24.671  25.122   1.359
36203W        W97569  28.627   2.740  12.487
36204W        W97570  16.100  21.081  11.372
36205W        W97571  42.964  37.503   2.347
36206W        W97572  16.651  34.488   1.724
36207W        W97573  12.319  41.958  11.961
36208W        W97574  44.275  25.026   2.211
36209W        W97575  22.652   3.922  11.421
36210W        W97576  31.907  17.157  12.876
36211W        W97577  44.779  22.733  11.606
36212W        W97578  44.787  28.053   5.762
36213W        W97579  36.987  19.592   1.344
36214W        W97580   4.331  14.151   4.350
36215W        W97581  18.747  15.240  11.421
36216W        W97582   2.743   9.314  11.109
36217W        W97583  23.214   0.852  14.288
36218W        W97584  15.686  17.224   0.316
36219W        W97585  31.136  21.664  13.363
36220W        W97586  21.537   4.792   9.523
36221W        W97587  43.380  23.577  10.517
36222W        W97588   5.297  29.143  13.846
36223W        W97589   0.485  15.137   0.937
36224W        W97590  18.573  32.599   0.478
36225W        W97591  19.663  10.308  13.872
36226W        W97592   0.322  32.466  14.446
36227W        W97593   7.360  40.348   0.792
36228W        W97594  32.514  29.496  10.625
36229W        W97595  24.589  26.152   2.390
36230W        W97596  32.526  28.634  13.465
36231W        W97597   9.726  19.590   2.825
36232W        W97598  21.635  36.018   2.377
36233W        W97599  37.441  16.668  12.570
36234W        W97600  17.797  20.088  14.971
36235W        W97601   0.491  18.581   2.368
36236W        W97602  22.136  12.264  13.970
36237W        W97603  39.884  29.079  10.415
36238W        W97604   3.904   2.456   0.766
36239W        W97605  17.164   1.334  12.548
36240W        W97606  41.857  42.885  14.951
36241W        W97607  28.658  18.550   1.835
36242W        W97608  22.631  11.186   4.214
36243W        W97609  17.684   2.343   1.263
36244W        W97610   4.293  40.856   1.234
36245W        W97611  39.364  23.162  10.930
36246W        W97612  18.120  30.580   1.315
36247W        W97613  31.023  28.588   0.876
36248W        W97614  16.247  30.474  12.979
36249W        W97615  39.977  16.116   0.790
36250W        W97616  29.133  12.115  10.927
36251W        W97617  13.257  12.238  10.608
36252W        W97618  19.180  11.763   4.227
36253W        W97619   6.248  17.236  14.327
36254W        W97620  40.942  31.439   2.799
36255W        W97621  12.222  30.029  13.890
36256W        W97622  38.503   3.315   2.763
36257W        W97623  37.884  40.803   2.902
36258W        W97624  11.636  12.293  10.913
36259W        W97625  31.136   6.693  12.556
36260W        W97626   5.863  23.733   1.914
36261W        W97627   1.303  43.316  10.530
36262W        W97628  10.748  17.668   4.113
36263W        W97629  26.138  25.582   2.765
36264W        W97630  40.970  36.506   3.285
36265W        W97631   4.225  19.756   1.232
36266W        W97632  35.904  15.641  14.949
36267W        W97633  36.988  37.997  10.458
36268W        W97634  31.977  25.525  11.906
36269W        W97635  33.436  36.903  12.418
36270W        W97636  39.881  39.906   3.864
36271W        W97637  36.538   5.327  14.883
36272W        W97638   2.815   0.383   0.772
36273W        W97639  29.121  39.510  10.550
36274W        W97640  37.475  11.312   3.168
36275W        W97641  30.498  35.997  14.400
36276W        W97642  34.407  20.753   4.682
36277W        W97643   8.749  40.822   2.411
36278W        W97644  28.505  14.329  10.608
36279W        W97645  15.807   1.454  12.024
36280W        W97646  16.318  32.922   3.814
36281W        W97647  36.866  38.983   4.241
36282W        W97648  42.375  41.892  14.919
36283W        W97649   3.758  35.058  10.926
36284W        W97650  43.020  42.019   1.888
36285W        W97651  18.195   8.805   3.302
36286W        W97652  17.694   2.864  12.562
36287W        W97653  37.381  22.699   3.659
36288W        W97654  41.510  10.648  13.868
36289W        W97655   7.796  33.877  10.540
36290W        W97656  20.733  17.687   1.337
36291W        W97657  11.849  15.169  14.368
36292W        W97658  33.567  20.123   1.408
36293W        W97659  30.028  35.396   4.177
36294W        W97660  30.002  33.099   1.229
36295W        W97661  35.888  17.653   3.870
36296W        W97662   3.326  43.936  10.565
36297W        W97663  11.818   1.812   3.148
36298W        W97664  38.901   5.774  14.009
36299W        W97665  32.618  27.647  11.488
36300W        W97666  29.089   4.741  10.131
36301W        W97667   1.482  35.420  13.836
36302W        W97668  28.961  34.114   3.789
36303W        W97669   1.266  18.174   4.743
36304W        W97670  14.097  29.115  11.896
36305W        W97671  26.693  11.785   2.267
36306W        W97672  25.983   5.300  12.053
36307W        W97673   9.698  18.091   0.959
36308W        W97674  12.809  12.162  14.023
36309W        W97675  18.137  42.472   4.824
36310W        W97676  13.706   9.186  12.023
36311W        W97677  30.483  34.445  12.899
36312W        W97678  25.566  14.706   1.830
36313W        W97679  36.527  40.518  13.315
36314W        W97680  25.627   5.392   2.220
36315W        W97681  36.039  41.961   4.682
36316W        W97682  25.163  32.059  14.022
36317W        W97683  10.668  32.940  10.573
36318W        W97684  39.855  32.902  10.960
36319W        W97685  41.374  12.273   2.838
36320W        W97686  23.701  11.861  12.040
36321W        W97687  10.285  23.616  10.517
36322W        W97688  38.917  34.431  13.308
36323W        W97689  11.724  44.310   3.801
36324W        W97690  23.727  37.414  14.358
36325W        W97691  34.104  10.669  12.547
36326W        W97692   3.860  44.260   2.748
36327W        W97693   1.941  15.754   3.757
36328W        W97694  33.107  14.721   4.712
36329W        W97695  34.476  32.010  14.922
36330W        W97696  22.091   3.900   0.469
36331W        W97697  10.722  32.595   2.317
36332W        W97698  34.963   9.360   0.349
36333W        W97699   6.186  23.079   2.721
36334W        W97700  24.656  42.342  14.775
36335W        W97701  26.111  27.977   3.177
36336W        W97702  27.548  31.904  14.471
36337W        W97703  25.569  12.184   3.813
36338W        W97704  27.960  20.155   5.601
36339W        W97705  33.391  23.670   3.335
36340W        W97706  25.613  43.830  14.376
36341W        W97707  19.752  30.024  13.525
36342W        W97708  44.790  43.358  12.971
36343W        W97709  39.423  10.747   3.228
36344W        W97710   2.874  19.284  14.829
36345W        W97711  31.994   1.823   0.242
36346W        W97712   2.733  29.096  12.878
36347W        W97713  17.081  22.146   3.635
36348W        W97714  38.553   0.424   3.696
36349W        W97715  24.700   1.426   3.147
36350W        W97716   2.405  43.809  12.536
36351W        W97717  24.225   0.489  14.777
36352W        W97718  17.299  29.061   3.379
36353W        W97719  40.314  38.389   0.484
36354W        W97720  40.001  10.352   1.352
36355W        W97721  36.409  39.331   4.786
36356W        W97722  13.187  33.421   3.166
36357W        W97723  43.795   5.276  11.038
36358W        W97724  17.747  14.724  14.438
36359W        W97725  42.838  43.356  12.891
36360W        W97726  20.539  34.487   2.767
36361W        W97727  34.591  31.137  11.434
36362W        W97728   6.321  42.473   3.211
36363W        W97729   5.273  35.876   1.695
36364W        W97730   3.321  34.382   3.814
36365W        W97731  10.184  14.623  11.510
36366W        W97732  29.143  30.541  13.927
36367W        W97733  38.942  24.068   3.750
36368W        W97734   1.317   8.753  10.626
36369W        W97735  31.030  19.546  13.927
36370W        W97736  42.443  39.958   3.747
36371W        W97737  37.999  31.508  10.621
36372W        W97738  34.021  25.516  12.352
36373W        W97739  18.136  39.440  12.550
36374W        W97740  18.243  42.490   1.757
36375W        W97741   1.378  40.307   0.299
36376W        W97742  32.107  33.602  10.981
36377W        W97743   6.387  35.045  12.391
36378W        W97744  20.057  28.963   0.846
36379W        W97745   1.296  30.010   4.197
36380W        W97746  30.644  32.000  10.610
36381W        W97747  28.042  15.238   2.355
36382W        W97748   3.724  13.172  11.431
36383W        W97749  18.289   6.700   1.758
36384W        W97750   2.809   0.956   2.811
36385W        W97751  18.729   3.740   0.804
36386W        W97752  39.523  30.425  13.345
36387W        W97753   7.381   1.793   1.795
36388W        W97754  31.990   0.332   4.640
36389W        W97755  24.219  41.013   4.301
36390W        W97756  20.142   0.267   4.265
36391W        W97757  15.232  22.628   4.764
36392W        W97758  37.005   0.869   2.264
36393W        W97759   7.417  30.645   0.301
36394W        W97760   9.658  18.697   2.839
36395W        W97761  19.779  18.687   2.747
36396W        W97762  38.034   3.766  10.972
36397W        W97763  17.236  34.075   1.881
36398W        W97764   7.351  38.021   1.358
36399W        W97765   9.734  40.474  14.004
36400W        W97766  33.435   9.741  12.554
36401W        W97767   1.454  41.014   4.332
36402W        W97768   7.335  19.250   3.343
36403W        W97769  15.772  27.986  14.301
36404W        W97770   0.353  22.019   2.417
36405W        W97771  33.574  12.192   3.164
36406W        W97772  15.704   5.925  14.761
36407W        W97773  25.122  35.516  11.608
36408W        W97774  29.996  26.466  10.614
36409W        W97775  18.645  12.206   2.707
36410W        W97776  10.264  20.033  12.020
36411W        W97777  21.047  24.041   3.345
36412W        W97778  36.396  23.644   1.922
36413W        W97779   3.357  29.091   1.294
36414W        W97780   0.264  20.255  13.884
36415W        W97781  28.540  34.951   0.950
36416W        W97782   2.237   8.161   4.277
36417W        W97783  29.468  43.493   4.633
36418W        W97784  21.230   4.882   0.926
36419W        W97785  33.125   9.700   2.776
36420W        W97786  32.541  15.155  10.569
36421W        W97787  38.826  33.036   2.240
36422W        W97788   9.149  42.378   4.791
36423W        W97789  10.326  26.522   0.788
36424W        W97790   0.988  41.935  12.490
36425W        W97791   0.447  29.478  12.486
36426W        W97792   0.840  35.431  12.362
36427W        W97793   8.307  41.472  14.837
36428W        W97794   0.968  33.412  12.373
36429W        W97795  13.674   0.368   3.780
36430W        W97796  32.921  16.201   2.797
36431W        W97797  14.806  32.424  13.505
36432W        W97798  25.553  33.556  14.977
36433W        W97799  26.124  36.003  10.483
36434W        W97800   1.353   9.173   4.185
36435W        W97801   9.843   4.350   1.427
36436W        W97802  22.060  43.962   1.354
36437W        W97803  18.207   3.771   3.836
36438W        W97804  17.131  12.140  12.892
36439W        W97805  18.552  31.417   0.364
36440W        W97806  29.015   4.821   0.366
36441W        W97807  10.877  35.979   2.765
36442W        W97808  16.157  17.155  14.026
36443W        W97809  42.822  27.993  13.038
36444W        W97810   8.209  34.920   2.240
36445W        W97811  18.123  44.860   2.741
36446W        W97812  28.566   3.329  12.937
36447W        W97813  16.760  35.567   1.442
36448W        W97814  16.571  17.591   4.697
36449W        W97815  21.682  22.559  14.907
36450W        W97816  44.810  27.098  14.974
36451W        W97817  23.210  10.184  12.452
36452W        W97818  44.779  30.962  11.068
36453W        W97819  20.066   7.711  13.990
36454W        W97820  36.989  15.599   4.212
36455W        W97821  25.513  21.647   2.418
36456W        W97822  15.599  28.145   0.281
36457W        W97823  39.058  41.015   2.208
36458W        W97824  28.072   6.368   1.374
36459W        W97825   8.321   7.860   1.225
36460W        W97826  40.050  27.093  10.416
36461W        W97827  40.412  28.153   0.294
36462W        W97828  36.356   7.904   2.742
36463W        W97829  21.729  29.948   1.333
36464W        W97830   6.767  44.837  13.439
36465W        W97831  38.996  10.636  12.955
36466W        W97832   6.382   5.322  12.091
36467W        W97833  30.083  41.887  14.799
36468W        W97834   3.751  23.193   3.866
36469W        W97835   3.347  34.983  14.873
36470W        W97836  13.202  13.343   2.387
36471W        W97837  19.120  22.112  10.628
36472W        W97838  23.652  42.872   1.406
36473W        W97839  18.776  13.160   0.457
36474W        W97840   1.899  33.926  12.410
36475W        W97841  19.618  36.975   0.423
36476W        W97842  33.910  16.625  10.526
36477W        W97843  15.674  25.623   1.414
36478W        W97844  24.221   0.823  11.912
36479W        W97845  33.466   2.345   1.382
36480W        W97846  37.511  14.105   1.355
36481W        W97847  43.479  13.690   2.363
36482W        W97848  37.873  25.134  11.996
36483W        W97849  22.609  13.780   1.344
36484W        W97850  19.130   1.811   2.887
36485W        W97851  23.633  32.105   1.881
36486W        W97852  22.244  23.695   1.424
36487W        W97853  44.370  20.120  13.520
36488W        W97854  42.845  43.858   3.223
36489W        W97855   0.837  13.610  13.951
36490W        W97856  31.402  18.699   2.314
36491W        W97857   4.411  32.942   0.817
36492W        W97858   5.823  12.690  14.014
36493W        W97859  42.469   4.715   1.855
36494W        W97860  20.672  18.291   3.669
36495W        W97861  18.099   0.380   1.768
36496W        W97862   7.288  18.578   4.730
36497W        W97863  35.572   2.444   4.651
36498W        W97864  23.078  42.946  13.010
36499W        W97865   2.315  21.224   2.240
36500W        W97866  40.921  27.992  10.913
36501W        W97867  17.717   3.453  11.386
36502W        W97868  13.785  11.715   0.334
36503W        W97869  44.918   4.209   0.964
36504W        W97870  31.523   6.848  10.526
36505W        W97871  24.206   5.299   2.227
36506W        W97872  41.915  19.153  12.532
36507W        W97873   8.393   2.468   2.284
36508W        W97874  24.020  10.260  11.889
36509W        W97875  30.436  22.705  11.430
36510W        W97876  24.600  13.152  11.994
36511W        W97877  11.743  16.298  13.475
36512W        W97878   3.409  18.127   1.326
36513W        W97879  25.698  40.307  12.456
36514W        W97880  14.195  44.346  14.377
36515W        W97881  41.294  16.593  13.844
36516W        W97882  36.437  17.622   3.180
36517W        W97883  13.803  38.334  12.358
36518W        W97884  12.129  42.350  11.529
36519W        W97885  42.854  29.625   3.147
36520W        W97886  33.097  33.406  10.921
36521W        W97887  39.948  23.135  10.537
36522W        W97888  25.646  26.672   2.882
36523W        W97889   2.746  38.494  12.960
36524W        W97890  27.943  20.055  10.535
36525W        W97891  43.998  10.689  10.604
36526W        W97892   6.363  12.156   4.211
36527W        W97893  15.748  11.720  12.414
36528W        W97894   9.184  40.040  12.010
36529W        W97895  43.015  28.480  11.978
36530W        W97896   8.769  33.936   2.226
36531W        W97897  39.939  34.484   2.236
36532W        W97898  37.492   2.800   2.722
36533W        W97899   8.391  11.238  11.926
36534W        W97900  31.943   3.227  14.911
36535W        W97901  30.146  44.790   2.251
36536W        W97902  22.251  11.275  12.558
36537W        W97903   8.284  34.000  10.470
36538W        W97904  15.706  26.694  13.890
36539W        W97905  39.388   1.908   2.689
36540W        W97906   8.274  15.823  14.378
36541W        W97907  30.002  44.381  12.874
36542W        W97908  33.874  35.913  14.328
36543W        W97909  20.689  26.166   0.731
36544W        W97910  18.203  36.484  14.305
36545W        W97911  33.120  27.976  12.391
36546W        W97912  13.341   1.852  12.399
36547W        W97913  41.390   0.970  10.622
36548W        W97914  15.085  22.036   1.266
36549W        W97915  15.209  30.036  13.797
36550W        W97916  35.363  37.857  11.576
36551W        W97917  38.995  23.564   0.447
36552W        W97918   3.869  26.028  14.903
36553W        W97919  38.508  39.845   4.210
36554W        W97920  12.750  44.395  12.065
36555W        W97921  12.731  23.704   0.288
36556W        W97922  16.573  28.082  11.895
36557W        W97923   1.947   6.320   3.714
36558W        W97924  20.143  14.257   0.355
36559W        W97925  25.150   3.306   2.408
36560W        W97926   0.259   6.794  10.958
36561W        W97927  33.555   2.318  11.913
36562W        W97928  33.101   9.380  10.458
36563W        W97929  17.286  13.612  14.374
36564W        W97930  28.515  27.147  14.357
36565W        W97931  29.649  25.010   0.364
36566W        W97932  29.536  43.415  12.073
36567W        W97933  34.987   5.900  14.773
36568W        W97934   4.418  22.140  12.085
36569W        W97935  10.173  35.580   3.700
36570W        W97936   4.865   1.905   2.699
36571W        W97937  38.982  24.081  12.484
36572W        W97938  24.554   1.786  11.469
36573W        W97939  43.005  38.015   2.868
36574W        W97940  36.890  42.803  13.349
36575W        W97941  38.830  31.151   1.893
36576W        W97942  33.579  11.841   5.318
36577W        W97943  37.400  28.542  10.436
36578W        W97944   4.765  16.807  10.155
36579W        W97945  31.058  25.111   9.936
36580W        W97946  26.958   0.337   2.712
36581W        W97947  26.012   9.827  11.960
36582W        W97948  12.294  10.178   0.746
36583W        W97949   7.227   0.823  11.430
36584W        W97950  36.525  31.456   0.745
36585W        W97951  26.666  26.188   5.134
36586W        W97952   6.300  27.481   0.834
36587W        W97953  15.821  43.337  14.787
36588W        W97954  27.645  22.513   0.810
36589W        W97955   8.828  44.315   4.305
36590W        W97956  33.976   4.227  12.018
36591W        W97957  44.763  30.116  14.439
36592W        W97958  16.189  21.073   0.950
36593W        W97959  17.645   8.817   3.334
36594W        W97960  13.261  14.228  14.765
36595W        W97961  35.910  26.666   4.212
36596W        W97962   4.773  31.620   1.416
36597W        W97963  38.894  24.547  12.532
36598W        W97964   1.269  40.800   1.385
36599W        W97965  17.128  15.306   2.698
36600W        W97966  13.725  20.683  14.951
36601W        W97967  36.403  18.759   0.757
36602W        W97968  26.036  26.178   9.450
36603W        W97969  41.970   9.837  12.575
36604W        W97970  40.819  32.141  13.945
36605W        W97971  10.783  24.718   4.158
36606W        W97972   4.436   1.348   2.305
36607W        W97973  10.313  42.789  14.367
36608W        W97974  35.954  27.983  11.477
36609W        W97975  37.932  30.472  12.998
36610W        W97976  32.393   1.257   2.266
36611W        W97977  37.467  16.136   0.340
36612W        W97978  14.201   6.714  14.422
36613W        W97979  13.192  35.391   0.941
36614W        W97980  31.083  14.227  12.384
36615W        W97981  34.432  35.109   2.412
36616W        W97982   8.264  30.567  12.964
36617W        W97983  26.186  13.760  11.900
36618W        W97984  36.094  22.521  13.447
36619W        W97985  32.081  22.123  14.760
36620W        W97986  31.485  33.543   3.363
36621W        W97987   2.407  14.209   4.731
36622W        W97988   6.921   7.269   1.772
36623W        W97989  18.553  25.633  12.092
36624W        W97990  20.264  30.490  13.814
36625W        W97991  28.471  31.958   3.311
36626W        W97992  24.535   6.277   0.860
36627W        W97993  18.701  19.102  13.522
36628W        W97994  44.313   1.336  12.832
36629W        W97995  23.638  22.223  12.915
36630W        W97996  28.971  35.962   0.748
36631W        W97997  32.565  11.206  12.461
36632W        W97998   8.193  41.431   3.774
36633W        W97999  34.444   6.195   3.765
36634W        W98000  16.728  13.105   4.208
36635W        W98001  32.983   8.791  11.095
36636W        W98002  24.120  41.984  13.488
36637W        W98003  19.780   2.811   2.687
36638W        W98004  27.510   6.753  14.997
36639W        W98005  18.552  41.462   3.792
36640W        W98006  34.504  35.852  14.878
36641W        W98007  38.539  30.591  11.878
36642W        W98008  11.807  31.565  12.505
36643W        W98009  23.713  11.126   4.298
36644W        W98010  36.845  42.786   0.308
36645W        W98011  10.368  28.612  12.036
36646W        W98012  24.569  42.987  13.827
36647W        W98013   7.736  18.624   4.660
36648W        W98014  29.504  14.629  13.852
36649W        W98015  33.096  23.212   2.759
36650W        W98016  23.567  22.570   0.751
36651W        W98017  19.567  42.881   2.357
36652W        W98018  31.899  41.324  10.118
36653W        W98019  23.578  36.966   3.731
36654W        W98020  34.037  14.783  12.846
36655W        W98021  43.789  33.406   4.744
36656W        W98022  30.040   0.814  14.949
36657W        W98023  14.744  15.232  11.399
36658W        W98024  38.920  30.658  10.995
36659W        W98025  32.009   4.700   1.225
36660W        W98026   1.358  38.568  11.593
36661W        W98027  32.547  20.747   2.232
36662W        W98028   5.777  26.495  14.838
36663W        W98029   2.743  44.384   0.890
36664W        W98030   1.975  22.648   4.223
36665W        W98031  14.301   1.972   2.374
36666W        W98032  39.389  40.941   1.403
36667W        W98033  20.630  24.561  14.779
36668W        W98034  14.710  40.312   4.686
36669W        W98035  34.437  18.091  13.861
36670W        W98036  20.210  26.586   4.753
36671W        W98037  44.268   3.372   4.825
36672W        W98038   7.333  33.915   4.836
36673W        W98039  35.028  29.127   4.776
36674W        W98040  12.237  21.730  12.010
36675W        W98041  12.722   4.932  14.469
36676W        W98042  34.456  42.801   2.286
36677W        W98043  16.785   0.791  12.047
36678W        W98044  43.018  33.066  14.464
36679W        W98045  36.371  43.310   1.340
36680W        W98046  21.229  32.440   2.190
36681W        W98047   5.838  15.119   3.197
36682W        W98048  20.081  37.994   2.385
36683W        W98049  33.395  42.799   2.717
36684W        W98050  27.175  18.245   1.798
36685W        W98051  16.097  21.215  14.293
36686W        W98052  40.345  44.860   4.727
36687W        W98053   1.940  18.181   0.758
36688W        W98054   7.686  11.194   0.300
36689W        W98055  33.508   4.233  11.373
36690W        W98056  25.690  26.481   1.353
36691W        W98057   7.226  32.919  13.049
36692W        W98058   7.779  35.908   1.725
36693W        W98059  23.500  36.878  11.982
36694W        W98060  24.553   1.312   3.749
36695W        W98061  28.147  21.156  13.917
36696W        W98062  16.263  32.549  14.420
36697W        W98063  39.425  27.651  11.604
36698W        W98064  29.172  27.561  10.636
36699W        W98065  10.831  40.913  13.448
36700W        W98066  27.627  34.927   2.198
36701W        W98067   3.412  13.691  14.943
36702W        W98068   1.917  26.102  10.507
36703W        W98069  44.934   1.807   5.108
36704W        W98070  14.738  34.872  11.499
36705W        W98071   9.384  35.581   1.341
36706W        W98072  32.077  41.803  14.933
36707W        W98073  18.050   3.322   0.245
36708W        W98074   9.659  24.655  14.844
36709W        W98075  30.451  44.392  12.439
36710W        W98076   5.217   5.281  10.501
36711W        W98077   5.770  31.465   1.880
36712W        W98078  39.508  13.343   2.837
36713W        W98079  24.685  20.579  11.075
36714W        W98080  30.971  38.850   2.853
36715W        W98081  31.082  43.013  13.874
36716W        W98082   8.853   0.388  14.922
36717W        W98083  18.588  41.966  11.452
36718W        W98084  29.470  32.633  11.566
36719W        W98085  24.705  17.124   0.323
36720W        W98086  28.044  31.144   3.172
36721W        W98087   9.844  41.299   0.340
36722W        W98088  39.895   0.377  13.320
36723W        W98089  31.096  16.573  13.482
36724W        W98090  16.771  17.725  10.984
36725W        W98091  40.456  34.070  13.864
36726W        W98092  26.561   6.244  11.420
36727W        W98093  33.454   8.172  12.978
36728W        W98094  12.153   6.723   2.221
36729W        W98095  16.577  36.535   0.764
36730W        W98096  12.678  22.171   4.269
36731W        W98097   3.352  41.011  11.887
36732W        W98098  35.423  19.269   1.267
36733W        W98099  41.972  39.929  10.056
36734W        W98100  17.271  37.451   3.263
36735W        W98101   0.835  20.155  11.860
36736W        W98102  40.411  32.927   3.641
36737W        W98103   2.381  13.139   0.729
36738W        W98104  21.672   8.854  12.013
36739W        W98105  16.085  29.645  14.797
36740W        W98106  44.495   6.214   4.289
36741W        W98107  34.911  12.168   2.671
36742W        W98108   6.413   2.254  14.993
36743W        W98109  34.031  26.092  13.062
36744W        W98110  12.284  41.998  10.622
36745W        W98111   6.874  41.527  11.592
36746W        W98112   0.842  27.543  14.009
36747W        W98113  16.596   6.786  11.105
36748W        W98114  37.358  27.165  11.411
36749W        W98115  30.413  34.989  13.821
36750W        W98116  36.008  34.602  11.568
36751W        W98117  15.141   1.858   0.875
36752W        W98118  37.407  41.459  10.098
36753W        W98119  20.054   1.336  10.441
36754W        W98120  39.345   8.715   1.375
36755W        W98121   8.815  29.542  12.896
36756W        W98122  27.021  33.392   2.810
36757W        W98123  38.406  42.972  11.111
36758W        W98124  23.997  35.360  10.463
36759W        W98125  15.304  10.850  12.937
36760W        W98126  23.057  28.167   2.183
36761W        W98127  13.171  24.007  12.050
36762W        W98128  28.999  36.526   4.759
36763W        W98129  33.437  35.004   3.783
36764W        W98130  33.907  38.012  10.482
36765W        W98131  43.368  32.113  11.477
36766W        W98132  17.577  34.990  13.949
36767W        W98133  31.541   9.199   3.672
36768W        W98134  44.299   2.775  14.293
36769W        W98135  42.814  31.522  12.005
36770W        W98136  36.077  42.947  12.005
36771W        W98137  20.766  24.975  10.617
36772W        W98138  18.790   9.189  14.502
36773W        W98139  21.226  27.631   1.393
36774W        W98140  25.108  28.488  13.319
36775W        W98141   5.900  27.997  13.951
36776W        W98142  33.102  12.220  14.824
36777W        W98143  42.499  27.549  14.416
36778W        W98144  24.562  25.491   1.870
36779W        W98145  44.823   3.732  12.016
36780W        W98146  34.076  34.071  13.826
36781W        W98147  18.221  11.144  11.482
36782W        W98148  17.629  17.227  11.971
36783W        W98149  20.732  31.456   0.385
36784W        W98150  10.360  12.338   0.824
36785W        W98151  40.916  33.618   2.283
36786W        W98152  11.258   4.834   1.705
36787W        W98153  36.934  44.467   2.682
36788W        W98154   0.805  44.424   1.725
36789W        W98155  35.860   4.369  12.370
36790W        W98156   5.876  39.825   4.772
36791W        W98157   6.382  16.593   0.754
36792W        W98158  17.133  31.086   4.650
36793W        W98159  33.973   7.350  10.519
36794W        W98160   5.294  28.497  12.473
36795W        W98161   6.758  13.121   1.378
36796W        W98162   4.784  41.898  10.958
36797W        W98163  38.822  33.111   3.656
36798W        W98164   2.905   5.762  13.379
36799W        W98165  34.457  17.277   0.831
36800W        W98166  11.677  21.234   4.825
36801W        W98167  14.112  30.139  12.052
36802W        W98168   0.981  11.843  11.887
36803W        W98169  12.346   0.425   4.788
36804W        W98170  11.341   9.851   4.172
36805W        W98171  22.643  32.416   4.631
36806W        W98172   0.766  37.069   3.334
36807W        W98173  40.868  28.587  12.042
36808W        W98174  28.974   4.204  13.853
36809W        W98175  22.101  32.130   4.623
36810W        W98176  30.119  44.919  10.616
36811W        W98177  37.858   4.307  10.893
36812W        W98178  25.006  40.391   1.825
36813W        W98179  43.299  24.138   0.844
36814W        W98180   4.758  20.082   0.869
36815W        W98181   6.818  40.383   2.304
36816W        W98182  24.513  17.277   1.744
36817W        W98183  15.649  37.977  10.935
36818W        W98184   1.942  40.521   2.294
36819W        W98185  41.434  23.199   3.660
36820W        W98186   1.953  28.136   1.935
36821W        W98187  32.979  30.926   2.808
36822W        W98188  31.956   9.376  13.023
36823W        W98189  39.326  27.182   1.271
36824W        W98190  10.198  18.725  12.957
36825W        W98191  43.839  37.512   3.301
36826W        W98192   1.290   9.855   4.681
36827W        W98193  22.104  22.067  14.788
36828W        W98194   3.814   7.373   3.843
36829W        W98195  32.029  39.336   4.194
36830W        W98196  17.299   4.740  12.826
36831W        W98197  23.207  15.642  11.426
36832W        W98198  30.118  44.364  14.005
36833W        W98199  42.435  23.987  12.563
36834W        W98200  37.561  22.619   4.254
36835W        W98201  18.586   0.321   0.468
36836W        W98202  40.014  18.696   2.760
36837W        W98203  43.344   9.799  11.950
36838W        W98204   6.862  34.102  12.882
36839W        W98205  34.910  29.436  10.934
36840W        W98206  31.427  17.211   4.219
36841W        W98207  41.324  26.682   0.373
36842W        W98208  36.593  24.606  13.412
36843W        W98209  26.165  10.876  14.974
36844W        W98210  19.125  24.567  11.461
36845W        W98211  35.963  17.706  14.877
36846W        W98212  10.695  24.223  10.549
36847W        W98213  23.512  24.150   1.312
36848W        W98214   6.895   0.966  10.404
36849W        W98215  34.505  25.967   2.396
36850W        W98216   9.320  32.517  12.828
36851W        W98217  10.367  34.556  10.977
36852W        W98218   0.301  34.014  14.297
36853W        W98219  15.706  15.655   4.789
36854W        W98220   3.241  19.575   1.897
36855W        W98221   8.383  14.693   4.783
36856W        W98222  33.602   3.770  11.466
36857W        W98223  22.510  35.395  14.938
36858W        W98224  34.518  36.511   3.847
36859W        W98225   4.228  20.125   0.423
36860W        W98226   6.224   8.315   2.316
36861W        W98227  38.820   4.932   4.316
36862W        W98228  41.914  12.181   2.238
36863W        W98229  30.500   4.891  10.623
36864W        W98230  34.516  25.197  11.940
36865W        W98231   3.921  10.718  13.319
36866W        W98232   5.758  44.832  14.915
36867W        W98233  38.494  31.004   3.286
36868W        W98234  28.462  31.540   1.715
36869W        W98235  40.851  16.143  12.933
36870W        W98236  43.788  31.515  11.493
36871W        W98237  26.149  14.332   0.281
36872W        W98238  24.230  13.251  12.519
36873W        W98239  32.524   3.806  12.957
36874W        W98240   9.356  37.472   3.163
36875W        W98241  38.422  29.121  12.077
36876W        W98242  37.339  33.081  13.384
36877W        W98243  29.110  12.264  10.625
36878W        W98244  36.860  42.435   4.648
36879W        W98245  28.000  34.011   2.293
36880W        W98246  28.558  17.094  11.967
36881W        W98247  18.278  27.585   3.237
36882W        W98248  40.924  34.531   4.341
36883W        W98249   0.286  22.202  11.481
36884W        W98250  25.053  43.011   2.340
36885W        W98251  38.462  29.551   2.715
36886W        W98252  19.247  41.804  10.579
36887W        W98253  18.632  41.318  11.571
36888W        W98254  37.408  36.477   0.916
36889W        W98255  37.416  41.896   1.320
36890W        W98256  17.218   6.761  11.858
36891W        W98257  25.993  41.858  11.519
36892W        W98258  10.802  23.164   4.798
36893W        W98259   4.378   4.272  13.889
36894W        W98260  17.662  21.714  14.877
36895W        W98261  33.001   2.953  14.891
36896W        W98262   4.335  44.332  12.932
36897W        W98263  31.511  20.674  12.986
36898W        W98264   2.934  24.500  14.481
36899W        W98265  25.641  11.786   3.711
36900W        W98266  38.467   9.238   2.332
36901W        W98267  41.791  21.557   4.804
36902W        W98268  39.412  28.148   3.341
36903W        W98269   3.277  29.086  10.047
36904W        W98270  44.933  21.155   1.250
36905W        W98271  40.886  21.225   0.288
36906W        W98272  27.947   6.336  10.634
36907W        W98273  17.191  11.833  11.496
36908W        W98274  41.827  15.667  11.504
36909W        W98275  43.846  28.983  13.044
36910W        W98276  23.047  12.152  12.452
36911W        W98277  15.283   9.252  13.371
36912W        W98278  20.611   0.266   0.818
36913W        W98279   0.327  27.983   2.322
36914W        W98280   4.709  35.530   1.825
36915W        W98281   5.753  39.413  14.943
36916W        W98282  31.033  11.140   2.224
36917W        W98283   8.243  22.066   2.806
36918W        W98284   4.874   6.251  12.410
36919W        W98285  25.645  37.565   0.285
36920W        W98286  14.647  33.979   2.700
36921W        W98287  26.199  26.693   5.618
36922W        W98288   7.724  36.397   0.815
36923W        W98289  12.759  22.610   2.312
36924W        W98290  10.861   6.678  12.977
36925W        W98291  37.933  11.844  11.445
36926W        W98292   2.298   6.777   4.129
36927W        W98293  11.240  24.076   0.326
36928W        W98294  26.084   9.759   0.897
36929W        W98295  10.320  24.230  14.947
36930W        W98296  44.952  34.057   2.803
36931W        W98297   0.805  43.272  13.907
36932W        W98298   9.833  39.385  14.457
36933W        W98299  44.431  12.666   4.158
36934W        W98300  43.810  37.069  12.550
36935W        W98301  21.114  36.410  10.434
36936W        W98302  34.931   0.799   0.420
36937W        W98303  24.076   5.798   2.843
36938W        W98304   6.341  32.934  10.999
36939W        W98305  29.523  20.036   3.727
36940W        W98306   8.330  32.091   1.799
36941W        W98307  27.453  30.617  11.858
36942W        W98308  40.482  25.704  10.547
36943W        W98309  26.510  25.530   9.957
36944W        W98310  40.468   9.733  10.563
36945W        W98311  33.542  26.959  12.079
36946W        W98312  19.533  16.607  11.553
36947W        W98313   4.835  44.366  12.506
36948W        W98314  41.871  19.581   5.095
36949W        W98315   3.312  38.329  10.130
36950W        W98316   1.907   8.660  14.445
36951W        W98317  34.485  43.873  10.581
36952W        W98318  23.614  12.281  13.889
36953W        W98319  28.035  43.426  12.035
36954W        W98320  27.177  27.627  13.518
36955W        W98321  33.916  22.607  13.309
36956W        W98322   9.194   8.729  10.511
36957W        W98323  30.537  40.011  12.934
36958W        W98324  37.008  15.263  11.460
36959W        W98325  28.445  32.567  14.467
36960W        W98326   5.390  25.632   1.383
36961W        W98327   7.699   6.229  11.934
36962W        W98328  23.094  27.631   5.260
36963W        W98329  21.755  25.685   1.701
36964W        W98330  37.906  17.254  13.979
36965W        W98331  42.790  36.959   3.750
36966W        W98332  16.296  42.817   1.300
36967W        W98333   5.822  22.678   1.293
36968W        W98334  21.238   6.835   2.664
36969W        W98335  14.672  23.070  14.277
36970W        W98336  11.295  27.470  12.845
36971W        W98337  42.334  22.080  12.004
36972W        W98338  17.296  29.122   4.609
36973W        W98339   2.933  38.520   1.862
36974W        W98340   1.425   0.478  11.898
36975W        W98341  38.385  38.443   3.665
36976W        W98342  34.092  16.632   0.480
36977W        W98343  17.121   1.934   2.721
36978W        W98344  42.383  31.583  13.913
36979W        W98345  28.516  23.984   2.874
36980W        W98346   4.921  31.113  12.456
36981W        W98347  42.789  10.647   2.866
36982W        W98348   5.434  17.661   1.319
36983W        W98349  42.879   3.292   4.618
36984W        W98350  14.248  21.569   2.263
36985W        W98351  17.152  14.723  11.431
36986W        W98352  15.163  21.158   4.619
36987W        W98353  34.429  38.502   3.632
36988W        W98354  18.602  14.795   2.401
36989W        W98355  29.132  35.568  10.404
36990W        W98356   4.762  15.159   0.266
36991W        W98357  24.099  12.787   2.882
36992W        W98358  34.073  35.092   1.768
36993W        W98359  32.074  15.262  10.564
36994W        W98360   6.221  34.949   4.255
36995W        W98361   5.702  29.979  10.518
36996W        W98362  41.907  32.458  13.041
36997W        W98363  14.199  20.221  14.410
36998W        W98364  20.684  38.950   0.258
36999W        W98365  14.126  30.627   4.171
37000W        W98366  24.135  37.929   1.423
37001W        W98367  39.880   2.812  12.905
37002W        W98368  10.347  18.582   2.262
37003W        W98369  23.118   0.856  10.433
37004W        W98370   7.257   2.341  12.445
37005W        W98371  36.491  20.037  13.361
37006W        W98372  39.959   6.193   3.774
37007W        W98373  41.932  10.223   0.886
37008W        W98374  20.101  13.735   0.905
37009W        W98375  14.174   1.359  11.885
37010W        W98376  34.472  44.877   0.333
37011W        W98377  21.703   4.312   5.731
37012W        W98378  32.996  30.481  11.884
37013W        W98379  33.093  27.477  11.913
37014W        W98380  23.139  18.775   3.230
37015W        W98381  25.120   1.811  13.477
37016W        W98382  29.667  28.441   5.222
37017W        W98383  13.747  29.580  13.365
37018W        W98384  33.883  12.822   2.757
37019W        W98385  18.169  20.723   3.293
37020W        W98386  23.564  10.856  13.540
37021W        W98387   7.911   4.218  10.143
37022W        W98388  12.208  36.981   2.216
37023W        W98389  25.571  17.198  11.054
37024W        W98390  27.195  34.588  11.001
37025W        W98391  14.722   6.383   1.429
37026W        W98392  39.052   6.803  11.124
37027W        W98393  41.811  17.698   2.887
37028W        W98394  28.056  42.957  10.421
37029W        W98395  12.140  38.995   1.926
37030W        W98396  22.562  10.829   4.677
37031W        W98397  18.639   8.843  10.550
37032W        W98398  39.355  17.279  12.483
37033W        W98399  23.060  12.818  10.953
37034W        W98400   6.880   0.333  14.344
37035W        W98401  12.831  21.530  12.348
37036W        W98402  10.844  27.597  12.353
37037W        W98403  23.564  20.125  14.374
37038W        W98404   1.453  44.505   3.244
37039W        W98405   1.755   2.330  13.860
37040W        W98406  28.478  26.701  13.873
37041W        W98407  34.915  33.503   5.181
37042W        W98408  40.461   6.680   4.281
37043W        W98409   1.438  10.723  10.888
37044W        W98410  42.805  37.580  10.005
37045W        W98411  35.401   5.806  11.375
37046W        W98412  28.156  22.204  12.555
37047W        W98413  23.003  29.510  11.437
37048W        W98414  14.124   1.286   2.227
37049W        W98415   5.411  40.539   1.237
37050W        W98416  25.661  27.519  14.894
37051W        W98417  18.652  44.795  14.347
37052W        W98418  13.137  10.195  10.155
37053W        W98419  34.892  38.976   0.780
37054W        W98420  24.639  17.063  14.981
37055W        W98421   8.298  44.886  12.497
37056W        W98422  30.997  10.333   1.766
37057W        W98423  23.061  42.400   3.286
37058W        W98424  37.475  38.071   0.405
37059W        W98425  32.526  33.920  10.606
37060W        W98426   0.920  34.431  10.451
37061W        W98427  12.187   5.358  13.036
37062W        W98428  40.517  21.612   4.603
37063W        W98429  29.620  13.337  14.828
37064W        W98430  10.309   4.895   1.766
37065W        W98431  28.956  38.487   2.400
37066W        W98432  40.533  42.928   0.312
37067W        W98433  23.640  40.842   1.388
37068W        W98434  11.763  35.991  13.520
37069W        W98435  20.585   1.732  11.922
37070W        W98436  31.479  11.220  11.441
37071W        W98437  10.745   1.957   2.744
37072W        W98438   0.456   2.730   1.329
37073W        W98439  37.998  15.642   0.285
37074W        W98440  38.536  11.813   0.873
37075W        W98441  43.408  10.669   1.389
37076W        W98442  42.291  12.154  11.484
37077W        W98443  11.676  29.940   1.839
37078W        W98444  19.208   6.827  11.495
37079W        W98445   4.845  13.674  14.462
37080W        W98446  31.062  40.859  10.889
37081W        W98447  16.190  17.783  12.378
37082W        W98448  27.954  32.985  11.515
37083W        W98449  16.220  14.677  13.796
37084W        W98450  41.812  14.604   4.712
37085W        W98451   3.411  36.429  13.493
37086W        W98452  17.611  39.416  11.388
37087W        W98453   6.421  27.090   4.339
37088W        W98454  37.502   1.316  12.086
37089W        W98455   9.701  43.786  14.771
37090W        W98456  41.981  28.053  11.009
37091W        W98457   8.774  36.894  14.018
37092W        W98458  28.631  10.717  13.413
37093W        W98459  22.105  43.446  14.363
37094W        W98460  16.126   3.736   4.804
37095W        W98461   9.289  27.688  11.452
37096W        W98462  20.261  12.265  10.439
37097W        W98463   3.851  26.605   0.800
37098W        W98464  36.367  38.527   2.365
37099W        W98465  20.076  25.056   1.837
37100W        W98466  33.101  12.705   3.215
37101W        W98467  38.554  40.474   2.807
37102W        W98468   1.479  28.553   4.266
37103W        W98469  26.122   5.332   3.742
37104W        W98470  28.620  30.422  12.884
37105W        W98471   4.942  13.836   0.902
37106W        W98472  18.176  28.006  12.468
37107W        W98473  26.112  10.178   2.825
37108W        W98474  31.540   3.299   3.174
37109W        W98475  38.545  11.745   4.124
37110W        W98476  43.390  27.127   4.821
37111W        W98477  34.448  25.162   0.326
37112W        W98478  37.539  26.960   2.693
37113W        W98479  26.676  34.931  10.465
37114W        W98480  17.192   6.792   1.815
37115W        W98481  20.681  36.349   0.469
37116W        W98482   4.430  18.651   2.223
37117W        W98483  35.013  12.841  13.495
37118W        W98484  32.437   5.397  14.766
37119W        W98485  44.469  28.962   5.318
37120W        W98486  13.614  20.207  11.096
37121W        W98487  40.373  24.553  14.503
37122W        W98488  10.787   5.891  11.119
37123W        W98489  36.047  11.635  14.986
37124W        W98490  11.854  11.155   4.677
37125W        W98491  28.440  38.471  14.447
37126W        W98492  17.760   7.756   0.847
37127W        W98493  38.017  39.835   2.270
37128W        W98494  37.962  13.607   3.259
37129W        W98495  18.724  27.194   1.307
37130W        W98496  17.173  40.948  13.956
37131W        W98497  19.240  29.456   4.336
37132W        W98498  42.973  18.722   3.690
37133W        W98499  10.772  42.467  14.498
37134W        W98500   2.312  25.569  11.058
37135W        W98501  10.854  42.337  11.399
37136W        W98502  39.336  43.375   1.738
37137W        W98503  34.549   0.896   0.783
37138W        W98504  16.722  38.916  10.606
37139W        W98505   5.777  39.448  13.840
37140W        W98506  10.149  22.039  13.981
37141W        W98507  10.677  20.109  12.936
37142W        W98508  36.877  36.955   2.198
37143W        W98509  36.017   3.291   9.978
37144W        W98510  27.654   7.897  14.817
37145W        W98511   5.821  28.952   4.315
37146W        W98512   9.749  29.945   2.401
37147W        W98513  27.453  17.286   3.256
37148W        W98514  10.306  23.093   3.172
37149W        W98515  19.169   6.764  12.999
37150W        W98516  12.116  36.564   3.180
37151W        W98517  10.859  40.995   3.381
37152W        W98518   1.306  31.044  10.548
37153W        W98519  21.136   2.757  12.997
37154W        W98520  44.879  13.318  11.928
37155W        W98521  24.081  18.630   4.604
37156W        W98522  16.768  13.746   4.266
37157W        W98523  27.585  23.118   2.732
37158W        W98524   6.764   8.190   3.304
37159W        W98525  29.520   7.284   0.272
37160W        W98526  15.700   8.377   3.809
37161W        W98527  23.690  17.096  14.397
37162W        W98528  22.118  32.139   1.409
37163W        W98529  19.201  23.671  11.470
37164W        W98530  30.579  19.736  14.932
37165W        W98531   8.386   1.269   1.722
37166W        W98532  22.697  28.063  12.385
37167W        W98533  24.117   6.847   0.891
37168W        W98534   4.261  23.141   2.892
37169W        W98535  16.693  31.112  13.969
37170W        W98536  33.461  43.956   4.321
37171W        W98537  28.466  36.373  10.548
37172W        W98538  34.946  12.326  12.050
37173W        W98539   2.916  25.714   1.874
37174W        W98540  41.920  15.801   2.411
37175W        W98541  23.638  27.570   0.389
37176W        W98542  11.304  10.754   2.206
37177W        W98543  44.837  39.874   4.729
37178W        W98544  22.532  26.009  10.552
37179W        W98545  37.546  35.958   1.370
37180W        W98546  39.971  24.978   2.384
37181W        W98547  27.476  32.618   4.345
37182W        W98548   5.386  38.548   3.259
37183W        W98549  33.439  16.296  14.919
37184W        W98550  18.267  20.626  13.052
37185W        W98551   2.952   5.845  10.513
37186W        W98552  39.817  34.939  12.577
37187W        W98553  22.641  25.706  13.925
37188W        W98554  19.556  12.204  13.850
37189W        W98555  40.927  43.013  10.987
37190W        W98556  30.139  26.701   3.155
37191W        W98557  32.580  29.984  11.542
37192W        W98558  34.034   5.787   1.232
37193W        W98559  29.496   2.418   1.308
37194W        W98560  21.616  44.985   3.698
37195W        W98561   5.837  36.409  11.404
37196W        W98562  18.141   7.753  14.942
37197W        W98563   9.688  10.148   3.254
37198W        W98564  24.585  41.846   3.817
37199W        W98565  44.785  12.359  11.554
37200W        W98566  23.715  29.521   0.928
37201W        W98567  17.685  33.051   4.336
37202W        W98568  32.081  11.246  12.930
37203W        W98569  31.456   2.737  13.797
37204W        W98570  15.649  37.061  13.535
37205W        W98571  32.997   9.729   4.767
37206W        W98572   9.189  27.469   4.810
37207W        W98573  14.780   6.388   0.314
37208W        W98574   2.333   8.170   2.405
37209W        W98575  27.453  44.861   0.268
37210W        W98576  24.482  33.942   0.310
37211W        W98577  37.348  14.254   4.597
37212W        W98578  43.436   4.710   0.358
37213W        W98579  39.030  28.946  10.106
37214W        W98580   4.938  42.943  11.581
37215W        W98581   2.810  17.655  13.867
37216W        W98582   7.904  41.011   2.813
37217W        W98583  30.442  39.393   0.483
37218W        W98584  11.251  22.249  13.462
37219W        W98585  36.091  15.622   3.805
37220W        W98586  41.800  24.206   4.614
37221W        W98587  25.989  13.189   1.725
37222W        W98588  40.994  42.927   4.623
37223W        W98589  30.527   8.351  11.913
37224W        W98590  23.700  36.079  14.349
37225W        W98591  13.200  31.072  12.836
37226W        W98592  21.626  34.447  11.559
37227W        W98593   2.951   7.903   1.716
37228W        W98594   6.332  20.253   4.285
37229W        W98595  42.480  12.654  14.426
37230W        W98596  32.426  31.569  13.063
37231W        W98597   4.344  12.742   2.290
37232W        W98598  25.064  34.408  12.359
37233W        W98599  29.087  13.136  10.936
37234W        W98600  30.098  37.465  11.938
37235W        W98601  30.554  13.141   2.809
37236W        W98602  37.367  23.543   0.381
37237W        W98603  22.629  16.668   1.433
37238W        W98604  15.249  13.676   0.814
37239W        W98605  37.981  25.101   4.125
37240W        W98606  33.110  34.467   3.824
37241W        W98607  25.549  43.840   4.598
37242W        W98608  20.038  22.714  13.863
37243W        W98609  36.861   5.897  11.395
37244W        W98610   4.783  34.435  14.911
37245W        W98611  20.224  15.328  10.431
37246W        W98612  41.874  27.529  10.534
37247W        W98613  27.654  26.697  10.915
37248W        W98614  34.421  39.323   5.300
37249W        W98615  40.838   6.415   0.347
37250W        W98616  27.549  33.431   1.774
37251W        W98617  23.511  10.648  12.893
37252W        W98618  23.558  40.976   2.856
37253W        W98619  20.113   7.297  11.375
37254W        W98620  34.392  43.780  11.519
37255W        W98621  25.637   7.791  11.426
37256W        W98622  44.407  42.463  14.491
37257W        W98623   5.211   7.775  11.116
37258W        W98624  13.686   6.355   4.313
37259W        W98625  17.164  34.512   2.385
37260W        W98626  38.990  31.629  14.993
37261W        W98627  38.953  23.174   4.329
37262W        W98628  31.019  23.550   2.666
37263W        W98629   3.288  11.687  10.995
37264W        W98630  36.556  10.207   4.788
37265W        W98631   8.790   3.821  13.484
37266W        W98632  31.424   0.265  13.425
37267W        W98633  19.635  19.250  13.050
37268W        W98634  29.599  16.306  14.975
37269W        W98635  34.002   9.747  13.846
37270W        W98636  29.555  26.648   2.809
37271W        W98637  22.556   6.376   0.958
37272W        W98638   6.815   7.842   3.701
37273W        W98639  36.394   4.234   2.754
37274W        W98640  42.496  38.920  11.502
37275W        W98641  28.094  36.493  14.497
37276W        W98642  10.854  42.014  11.967
37277W        W98643  15.710  26.011   0.318
37278W        W98644   9.661  21.232  10.919
37279W        W98645   7.302  26.631   5.172
37280W        W98646  37.087  10.831  13.957
37281W        W98647   1.306  23.180  12.391
37282W        W98648  18.774   8.738  14.317
37283W        W98649  37.008  11.791  14.449
37284W        W98650  37.973  18.602   4.342
37285W        W98651   3.804  22.098   2.725
37286W        W98652  28.638   2.230  14.288
37287W        W98653  29.604  44.470  10.132
37288W        W98654  40.016  33.411  13.870
37289W        W98655  19.647  23.586   3.809
37290W        W98656  10.751  36.557  11.988
37291W        W98657  36.934  38.472   1.855
37292W        W98658  36.423  10.153  13.481
37293W        W98659  32.047  35.096   4.764
37294W        W98660  10.148  19.575   3.761
37295W        W98661  22.671  40.540  11.585
37296W        W98662  35.886  22.218   1.216
37297W        W98663   9.655   0.248  10.983
37298W        W98664  19.250   8.843  11.562
37299W        W98665  29.060  38.508  14.796
37300W        W98666  14.206  19.536   2.700
37301W        W98667   7.228  20.569  11.440
37302W        W98668  19.691  38.539  14.393
37303W        W98669  29.527   5.782  13.537
37304W        W98670  20.530   6.888  12.352
37305W        W98671  26.992  15.129  11.886
37306W        W98672  26.587   6.831   3.303
37307W        W98673  21.625   3.441  14.832
37308W        W98674  32.953  21.049   1.896
37309W        W98675  40.396   5.729  10.513
37310W        W98676  40.367  29.481   1.408
37311W        W98677  28.068  25.209  10.072
37312W        W98678  29.432  21.138   5.176
37313W        W98679   2.766  11.822   2.771
37314W        W98680  30.617  39.856   5.124
37315W        W98681  26.156  32.636   1.871
37316W        W98682  33.991  29.112  11.539
37317W        W98683  27.607   4.758   1.266
37318W        W98684   3.726   9.873  11.002
37319W        W98685   8.655  11.746   4.174
37320W        W98686   5.315  20.743   3.849
37321W        W98687   8.390   5.824   2.751
37322W        W98688  17.800   9.675   3.787
37323W        W98689  24.042   2.839  13.529
37324W        W98690  44.923  23.561   3.661
37325W        W98691  43.490   8.800   4.157
37326W        W98692  20.664  42.946   2.814
37327W        W98693  21.617  31.904  14.341
37328W        W98694   6.812   4.240  11.984
37329W        W98695  20.142  24.502  13.390
37330W        W98696   0.257   4.942  11.478
37331W        W98697  25.491  10.718  12.867
37332W        W98698   6.236  29.097   4.713
37333W        W98699  35.496   0.949  13.453
37334W        W98700  26.644  41.847   1.748
37335W        W98701  19.071   2.272   0.392
37336W        W98702  12.838  33.939   5.211
37337W        W98703   0.280  21.180   1.834
37338W        W98704  20.590  42.891   0.386
37339W        W98705  39.865   8.322  13.375
37340W        W98706   5.709  27.589   2.814
37341W        W98707  11.623  31.997  14.348
37342W        W98708  42.377  18.221  14.474
37343W        W98709   1.434  31.012  12.905
37344W        W98710  33.920  12.248  14.507
37345W        W98711  33.904   0.897   0.835
37346W        W98712  18.077   0.939   3.164
37347W        W98713  31.424  44.000  11.377
37348W        W98714  36.911  17.090  13.033
37349W        W98715  10.256  27.093   2.706
37350W        W98716   6.333  38.366  13.453
37351W        W98717  38.467   1.900   0.293
37352W        W98718  38.340  20.689  11.072
37353W        W98719  10.221  19.577  12.034
37354W        W98720  30.934  26.177   2.723
37355W        W98721  30.148  33.092  10.943
37356W        W98722  41.902  33.901  14.496
37357W        W98723  31.582  44.878   1.346
37358W        W98724  32.973   8.880  13.827
37359W        W98725   7.358   4.789  10.601
37360W        W98726  10.257  35.960   0.465
37361W        W98727  38.343  12.790   3.180
37362W        W98728  10.263  29.518   0.958
37363W        W98729  23.585   4.808   0.965
37364W        W98730   6.221  22.707   4.675
37365W        W98731  24.151  43.322  14.789
37366W        W98732  25.026  39.057  14.768
37367W        W98733   6.730  22.531   4.202
37368W        W98734  37.018  31.082   1.897
37369W        W98735  43.278  20.546  12.890
37370W        W98736  38.050   1.915  14.448
37371W        W98737   8.376   5.380  13.387
37372W        W98738  40.462   2.827   0.900
37373W        W98739  37.420   4.813  11.572
37374W        W98740  43.907  33.382  11.125
37375W        W98741  31.048  15.589   0.926
37376W        W98742  24.487  12.765   4.222
37377W        W98743  39.035  42.834  13.469
37378W        W98744  10.635   7.857   1.840
37379W        W98745  17.636   0.332   4.142
37380W        W98746   4.936  33.052   4.317
37381W        W98747  14.722  31.133   0.917
37382W        W98748  31.644  16.230  14.286
37383W        W98749  36.087  31.088  14.961
37384W        W98750  16.098   6.863   4.614
37385W        W98751  14.317  28.121  14.287
37386W        W98752  43.931  33.131  10.955
37387W        W98753  39.898  36.845   4.323
37388W        W98754  38.384   7.398  13.468
37389W        W98755  35.374  39.494   1.815
37390W        W98756   7.753  39.025  11.404
37391W        W98757   0.398  11.282   1.237
37392W        W98758  22.091  17.663   2.181
37393W        W98759  11.692   8.324   2.364
37394W        W98760  33.535  32.965  11.489
37395W        W98761   8.172  28.439   3.309
37396W        W98762  38.965  37.472  13.010
37397W        W98763   4.421  19.151   0.964
37398W        W98764  41.359  36.874   3.190
37399W        W98765  28.950  14.726  14.315
37400W        W98766  18.102  26.007   4.203
37401W        W98767  22.604   4.911  11.987
37402W        W98768  23.205  37.464  14.873
37403W        W98769  28.076  19.118  12.084
37404W        W98770  39.417   2.843   2.807
37405W        W98771  29.023  42.476  12.405
37406W        W98772  26.046  10.867  11.600
37407W        W98773   0.971  29.970   3.314
37408W        W98774  41.317  36.049   4.141
37409W        W98775  30.496  33.436   4.268
37410W        W98776  33.085  11.759  13.995
37411W        W98777  33.103  41.512  13.476
37412W        W98778  38.480   7.898   4.664
37413W        W98779  15.086  26.063  13.522
37414W        W98780  28.079   0.814  13.039
37415W        W98781  42.802  10.847   0.276
37416W        W98782   0.417  37.839  13.468
37417W        W98783  24.646   5.416   4.663
37418W        W98784   7.361  26.119   3.279
37419W        W98785  30.490  17.700  13.851
37420W        W98786  19.546  21.095  13.841
37421W        W98787  19.777  35.483  13.048
37422W        W98788  24.119   6.782   1.450
37423W        W98789  16.293  28.679   4.654
37424W        W98790  29.152  16.213   4.775
37425W        W98791  25.529  42.372  14.441
37426W        W98792  35.505  28.461  10.937
37427W        W98793  25.636  26.962   3.162
37428W        W98794   0.445  19.166   0.880
37429W        W98795   3.229  13.224  11.443
37430W        W98796  27.673  22.515   1.919
37431W        W98797   5.284  40.386  12.367
37432W        W98798  18.141   8.397   2.413
37433W        W98799  27.171  17.109  14.804
37434W        W98800  15.706  23.645   2.840
37435W        W98801   4.367  22.229  12.386
37436W        W98802   5.213  44.475   0.342
37437W        W98803  42.884  17.089  13.992
37438W        W98804  26.501   8.285  11.017
37439W        W98805  38.993  33.079   4.617
37440W        W98806  39.491  41.786  10.575
37441W        W98807  22.043  24.977  10.439
37442W        W98808  41.040  17.692  11.599
37443W        W98809  14.732  37.979   2.864
37444W        W98810  27.104  37.851  13.960
37445W        W98811  12.749  12.633  11.973
37446W        W98812  16.718  24.696  12.872
37447W        W98813   2.737  24.521   2.389
37448W        W98814   6.420  33.129   3.630
37449W        W98815   2.399   6.823  11.864
37450W        W98816  34.501  30.590   1.743
37451W        W98817  11.830  16.229  12.486
37452W        W98818  18.065  34.073   0.465
37453W        W98819  40.361  35.857  12.961
37454W        W98820  34.027  19.045   5.082
37455W        W98821  29.447  39.951   5.313
37456W        W98822  27.946   3.923   2.300
37457W        W98823  35.053  12.745   2.311
37458W        W98824  28.627  40.500   3.328
37459W        W98825  13.310   3.939   4.759
37460W        W98826   4.375  35.945  12.849
37461W        W98827  30.518  15.161  12.405
37462W        W98828  44.300  27.072   2.387
37463W        W98829  26.121  41.887   4.320
37464W        W98830  15.730   7.192   0.939
37465W        W98831  39.316  29.650   4.792
37466W        W98832  33.063  24.155   3.754
37467W        W98833  26.119  35.420   2.887
37468W        W98834  13.716  18.640   0.379
37469W        W98835   0.350  16.264  11.442
37470W        W98836  39.975  14.650   4.115
37471W        W98837  20.624  13.607   1.859
37472W        W98838  40.313  36.436   1.838
37473W        W98839  29.445  12.259  13.931
37474W        W98840  42.377  23.720   1.214
37475W        W98841  18.744  10.691   4.753
37476W        W98842  27.522  33.486  12.878
37477W        W98843  29.534  42.335  12.927
37478W        W98844   8.801  42.472  13.033
37479W        W98845   0.295  10.263  14.900
37480W        W98846  19.285  34.047   1.283
37481W        W98847   8.278  16.089   0.454
37482W        W98848  25.155  29.090   4.760
37483W        W98849  41.349  25.560   0.849
37484W        W98850   0.938  32.471  10.620
37485W        W98851  22.533  22.636  13.366
37486W        W98852  10.720   8.165   4.674
37487W        W98853  44.857   0.771   2.239
37488W        W98854  10.341  39.549   2.384
37489W        W98855  15.639  13.197  11.126
37490W        W98856   0.969  18.621   1.447
37491W        W98857   2.450  19.188   2.261
37492W        W98858  19.768   6.426   3.826
37493W        W98859  28.986   5.371  14.926
37494W        W98860   7.293  17.636  13.923
37495W        W98861  18.278  32.943  11.084
37496W        W98862  29.508  34.375  10.913
37497W        W98863   8.301  43.773   1.925
37498W        W98864   8.301  10.798  12.022
37499W        W98865  25.618  37.376  12.993
37500W        W98866  39.345  27.516   0.873
37501W        W98867   8.891   2.467   4.753
37502W        W98868   1.361  33.601   3.846
37503W        W98869  19.670  26.526  10.504
37504W        W98870  37.989  33.625   0.812
37505W        W98871   2.326  44.438   3.360
37506W        W98872  21.613  14.820   0.299
37507W        W98873   7.416  32.975  11.110
37508W        W98874  12.730  32.407   0.463
37509W        W98875  23.056  15.595  14.412
37510W        W98876   7.272  30.648  14.458
37511W        W98877   3.715   9.278  14.451
37512W        W98878  18.232  13.175  14.793
37513W        W98879  25.137  18.677  13.927
37514W        W98880  13.125  32.528   3.180
37515W        W98881  38.933  34.467  13.991
37516W        W98882  20.623  40.836   2.354
37517W        W98883  13.721  14.232  10.419
37518W        W98884  19.053  34.545   5.251
37519W        W98885  20.107   7.176   3.768
37520W        W98886   1.788   9.648   0.474
37521W        W98887   4.271  27.032  13.509
37522W        W98888  25.705   6.298   3.328
37523W        W98889   1.443  44.374  14.897
37524W        W98890  35.890  25.637   1.794
37525W        W98891  42.504   8.749   3.866
37526W        W98892  24.595  18.175  10.467
37527W        W98893  42.337  29.141   1.920
37528W        W98894  41.297  26.522  14.365
37529W        W98895  43.928  25.219  12.095
37530W        W98896  38.518  32.118   2.746
37531W        W98897  20.218  40.528  10.976
37532W        W98898  23.566  33.048  11.547
37533W        W98899  43.010  15.087   0.426
37534W        W98900  42.867   2.373  11.986
37535W        W98901  38.864  13.642  14.286
37536W        W98902  44.940  27.971   9.554
37537W        W98903  13.610  28.448   1.816
37538W        W98904  30.967   2.341   4.791
37539W        W98905  38.395   5.211   0.375
37540W        W98906  31.471  28.942   1.210
37541W        W98907   8.214   4.938  10.889
37542W        W98908  16.082  31.004   0.769
37543W        W98909   1.434  32.555  11.584
37544W        W98910  27.514  40.910  12.393
37545W        W98911  20.233  44.991  13.962
37546W        W98912  30.472   9.331  11.522
37547W        W98913  24.498  27.114   4.167
37548W        W98914  28.598  37.431  14.867
37549W        W98915  12.231  14.326  13.472
37550W        W98916  42.861  26.617  14.839
37551W        W98917   4.843   8.751   2.823
37552W        W98918  11.310  14.666  14.823
37553W        W98919   0.361  20.273  11.013
37554W        W98920  27.574  31.480  10.442
37555W        W98921  23.056  30.954  12.443
37556W        W98922  15.110  25.622  10.455
37557W        W98923   9.710  10.782  13.482
37558W        W98924   6.695   8.344  14.834
37559W        W98925  32.610  42.907  14.004
37560W        W98926  23.090  14.165   3.220
37561W        W98927  10.735  33.522  11.413
37562W        W98928  13.107  26.090   2.856
37563W        W98929  38.922  32.102  10.944
37564W        W98930   1.820  42.942  10.989
37565W        W98931   3.725  29.150  14.856
37566W        W98932  24.011  32.134  11.037
37567W        W98933   2.939  42.946   0.800
37568W        W98934  44.423  25.512  13.048
37569W        W98935  24.642  25.644  13.484
37570W        W98936  19.710  15.303   0.892
37571W        W98937   7.867  42.780   3.818
37572W        W98938  15.783  23.671  10.491
37573W        W98939  21.132  16.133   2.813
37574W        W98940  38.537  37.893  14.808
37575W        W98941  34.050  39.330  10.514
37576W        W98942  15.208   9.798  13.352
37577W        W98943  28.572  31.937   2.418
37578W        W98944  36.556  36.900  14.415
37579W        W98945  34.474  10.163   4.124
37580W        W98946  34.069  22.006  12.465
37581W        W98947  39.533   2.766  12.531
37582W        W98948   8.839  16.651   2.414
37583W        W98949  13.197  34.941   4.694
37584W        W98950  40.958  41.816  12.490
37585W        W98951   7.269  38.944  12.834
37586W        W98952   1.375   1.359   3.318
37587W        W98953  41.453   9.762   1.350
37588W        W98954  32.422  21.597  13.334
37589W        W98955  28.616  17.136  14.872
37590W        W98956  20.136   2.780   0.756
37591W        W98957  41.982  26.141  11.945
37592W        W98958  16.587  32.533   1.353
37593W        W98959   5.289  34.898  13.807
37594W        W98960  27.537  15.753   4.600
37595W        W98961  12.351  22.614   1.259
37596W        W98962   9.353  29.102  14.513
37597W        W98963  11.640  25.006  11.441
37598W        W98964  24.666  13.313   1.921
37599W        W98965  41.441   1.742   2.884
37600W        W98966  10.748  39.483  12.060
37601W        W98967  28.014  19.153  13.317
37602W        W98968  33.611  38.411   4.624
37603W        W98969  36.471  32.516   2.670
37604W        W98970  44.450  26.139   4.315
37605W        W98971   6.862  16.635   2.745
37606W        W98972  41.467  29.542  13.798
37607W        W98973  17.117  22.167  12.367
37608W        W98974  19.692  17.654   3.663
37609W        W98975   9.196  20.601  14.806
37610W        W98976  40.879   4.292  11.585
37611W        W98977  37.993  32.545  12.953
37612W        W98978  41.984  33.472   0.794
37613W        W98979  22.175  29.452  11.380
37614W        W98980  23.147  28.941  12.568
37615W        W98981  29.550  44.406  10.896
37616W        W98982   8.724  39.333   1.912
37617W        W98983  23.985  22.163  12.847
37618W        W98984  38.034  33.114   2.731
37619W        W98985   7.733  26.997  13.464
37620W        W98986  28.090  36.023  14.013
37621W        W98987  15.226   4.916   3.213
37622W        W98988  30.539  11.196  11.029
37623W        W98989  36.020  37.356   4.351
37624W        W98990   7.786  33.564   1.848
37625W        W98991  18.690  41.535  11.096
37626W        W98992  29.629  15.638   1.419
37627W        W98993  40.519  25.708   1.724
37628W        W98994   0.402  27.178   4.343
37629W        W98995  11.734  29.979  13.901
37630W        W98996  24.536   1.420  12.922
37631W        W98997  12.168  37.349   2.839
37632W        W98998  35.106  30.656   3.364
37633W        W98999   2.894  35.086   3.859
37634W        W99000  42.880   7.835  14.461
37635W        W99001  36.531  32.018   4.274
37636W        W99002  15.229  28.527   4.752
37637W        W99003  32.443  19.128  11.110
37638W        W99004  24.620  23.197  12.991
37639W        W99005   9.154  26.198   2.285
37640W        W99006   6.800   2.419  13.880
37641W        W99007  15.152  24.635  12.062
37642W        W99008  15.173  31.480  10.966
37643W        W99009  16.665  30.546  13.400
37644W        W99010  14.332  36.373   2.269
37645W        W99011   2.739  14.336  10.454
37646W        W99012  25.499  41.935  10.918
37647W        W99013  14.339   2.416   3.867
37648W        W99014  35.553  27.176   2.232
37649W        W99015  37.388  24.670  13.309
37650W        W99016  17.608   8.696  12.491
37651W        W99017  11.664  37.534  12.975
37652W        W99018   5.847  11.781  10.417
37653W        W99019  19.560  12.831  12.942
37654W        W99020  18.778  29.498  10.986
37655W        W99021  39.837  38.413  10.549
37656W        W99022   9.291  34.414   3.369
37657W        W99023  38.072  24.528  14.999
37658W        W99024   7.397  18.767  14.505
37659W        W99025  26.174   6.704  14.475
37660W        W99026  22.675  13.838  14.911
37661W        W99027  33.977  31.961   0.807
37662W        W99028  39.833  30.468   2.195
37663W        W99029  36.409  36.438  11.008
37664W        W99030  43.000  22.101   3.719
37665W        W99031  37.362  14.262  14.511
37666W        W99032  15.823   5.430  11.600
37667W        W99033  23.500   0.926  10.955
37668W        W99034  25.660  29.498  13.438
37669W        W99035  17.209  34.423  14.447
37670W        W99036  26.468  22.709  10.918
37671W        W99037  41.429  17.678  14.892
37672W        W99038  39.487  16.170  13.525
37673W        W99039  42.797  18.683   1.244
37674W        W99040  15.652  44.844  11.557
37675W        W99041   2.795  10.283   2.367
37676W        W99042  41.043  27.461   4.649
37677W        W99043  11.751  19.152   2.344
37678W        W99044  33.899  36.483   2.883
37679W        W99045  30.611  29.429   4.772
37680W        W99046  10.334  44.962   4.135
37681W        W99047  13.704  39.416   0.749
37682W        W99048  37.536  23.229   2.262
37683W        W99049  35.450  35.568   1.883
37684W        W99050  18.109   6.844  13.819
37685W        W99051  34.894  18.145  13.055
37686W        W99052  19.545  23.603  11.002
37687W        W99053  40.914  23.615  11.549
37688W        W99054  42.852  14.295  12.444
37689W        W99055  29.615   5.348   2.675
37690W        W99056  12.741  12.287  10.563
37691W        W99057  36.418   8.346  10.490
37692W        W99058  28.149  19.604  10.956
37693W        W99059  18.659  30.628  13.424
37694W        W99060  28.606  27.495  11.022
37695W        W99061  27.054  42.983   2.830
37696W        W99062  29.000   1.450   0.462
37697W        W99063  16.152  36.393   0.935
37698W        W99064  16.713  12.181   2.725
37699W        W99065  43.475  16.665  12.961
37700W        W99066  34.076   6.253   4.823
37701W        W99067  33.038  35.357  14.353
37702W        W99068  43.807  36.881   0.800
37703W        W99069  38.354  43.346  13.454
37704W        W99070  43.467   7.248   1.390
37705W        W99071   8.706   3.721   3.737
37706W        W99072  33.474  27.154   0.342
37707W        W99073   0.878   1.795   3.682
37708W        W99074   4.911  39.528   2.244
37709W        W99075   3.365  11.357   3.854
37710W        W99076  29.954  26.682  12.465
37711W        W99077   4.318  22.044  10.457
37712W        W99078  12.776  31.106   4.177
37713W        W99079  23.205  18.753  14.849
37714W        W99080   4.832   2.434   9.439
37715W        W99081   2.785  43.288  10.413
37716W        W99082  23.045  24.000  13.953
37717W        W99083   8.810   9.250  14.833
37718W        W99084  34.413  36.910   3.281
37719W        W99085  24.717  10.644  10.484
37720W        W99086  27.548   3.276  12.993
37721W        W99087  28.080  32.056  12.908
37722W        W99088  21.088  28.166   4.717
37723W        W99089  20.173  24.644  11.443
37724W        W99090  26.545  34.893   0.445
37725W        W99091  12.189  37.466  13.862
37726W        W99092  43.371  36.077   5.278
37727W        W99093   4.232  22.218   2.257
37728W        W99094   9.374  27.500  12.523
37729W        W99095   8.820  16.726   4.752
37730W        W99096  42.958  35.378   3.213
37731W        W99097  25.049  26.115   0.296
37732W        W99098  44.930  22.548  13.792
37733W        W99099  10.789  40.394   3.868
37734W        W99100  34.374  18.668   1.290
37735W        W99101   1.389  42.297  11.060
37736W        W99102  18.789  18.127  12.392
37737W        W99103  41.000  38.048   4.619
37738W        W99104  19.089  30.510   3.167
37739W        W99105  31.020  29.604  11.499
37740W        W99106  30.001  38.844   2.319
37741W        W99107   0.260  35.581  14.000
37742W        W99108  35.464  15.274  12.487
37743W        W99109   6.373  20.231   3.829
37744W        W99110  16.585  28.014   4.134
37745W        W99111  40.329   6.876   0.303
37746W        W99112   3.866   9.246   2.878
37747W        W99113  39.324   0.302   1.435
37748W        W99114  38.368  24.216  14.456
37749W        W99115  42.521  36.091  11.483
37750W        W99116   8.661  25.469   0.860
37751W        W99117  32.908  15.150   4.755
37752W        W99118  27.130  26.502   4.297
37753W        W99119  26.127  42.871  11.530
37754W        W99120   4.773   1.261  10.088
37755W        W99121  11.665  35.976  14.822
37756W        W99122  30.022  38.483  13.525
37757W        W99123   6.228  44.329   4.292
37758W        W99124   8.719  17.252   0.736
37759W        W99125   0.745   0.310  10.631
37760W        W99126   8.312   8.252  11.603
37761W        W99127  39.999  41.881   2.769
37762W        W99128  28.441  13.244   2.868
37763W        W99129  33.540   8.715   1.307
37764W        W99130   8.167   6.766  11.989
37765W        W99131  17.271  13.201  11.530
37766W        W99132  21.713   7.225  13.492
37767W        W99133  27.113  20.532   0.319
37768W        W99134  14.699  13.229   2.798
37769W        W99135  35.558  44.372  13.919
37770W        W99136  36.912  35.885   4.124
37771W        W99137  43.502  41.972   1.866
37772W        W99138  23.989   8.359   0.435
37773W        W99139   1.418  33.077   0.738
37774W        W99140  17.639  12.807  14.509
37775W        W99141  16.733   7.320   4.151
37776W        W99142  39.870  13.770   3.184
37777W        W99143  43.985  31.967  12.469
37778W        W99144  14.688  16.640  11.956
37779W        W99145  37.425  32.432  13.820
37780W        W99146  40.474   6.344   2.791
37781W        W99147   4.725  35.925   1.910
37782W        W99148  23.995   2.800   9.478
37783W        W99149  29.070  39.820  12.402
37784W        W99150  42.384  18.626   2.284
37785W        W99151  33.447  24.644   1.312
37786W        W99152  43.909  32.540  10.510
37787W        W99153  12.187  35.921  14.460
37788W        W99154   9.775  24.998   3.366
37789W        W99155  40.859  43.336   3.296
37790W        W99156  36.854  35.947  11.578
37791W        W99157  31.626  32.566   4.804
37792W        W99158  19.180  32.902   3.798
37793W        W99159  37.866  12.630  13.476
37794W        W99160  29.435  23.563   1.288
37795W        W99161  37.846   3.841   2.830
37796W        W99162  18.205  13.240   0.836
37797W        W99163   9.366  44.839   2.223
37798W        W99164  27.989  29.486   3.774
37799W        W99165   9.683  22.247  11.030
37800W        W99166  44.890  18.726  11.097
37801W        W99167   8.700  27.027  11.875
37802W        W99168   1.767  23.987   2.789
37803W        W99169   7.254  27.478  10.988
37804W        W99170  12.828  32.403   3.741
37805W        W99171  18.552  40.530   3.370
37806W        W99172  22.068  26.690  11.500
37807W        W99173  11.626   9.656  14.848
37808W        W99174   6.884  23.571  12.351
37809W        W99175  30.558  16.290   0.826
37810W        W99176  17.563  15.733  13.013
37811W        W99177  10.702  25.991  12.005
37812W        W99178  11.666  42.816  14.821
37813W        W99179  12.698  42.991   2.685
37814W        W99180  26.613  37.020   0.772
37815W        W99181  44.947  27.964   0.897
37816W        W99182  36.591  29.125  13.057
37817W        W99183  42.372  16.791  12.076
37818W        W99184  29.475   4.344  11.437
37819W        W99185  37.536  42.836  12.843
37820W        W99186   0.879  18.769  13.454
37821W        W99187  18.185  39.467   3.708
37822W        W99188  29.146  30.102  11.559
37823W        W99189  27.009  31.041  13.534
37824W        W99190  13.350  15.180  11.059
37825W        W99191  17.279   9.690  11.385
37826W        W99192  28.489  20.197   4.837
37827W        W99193   4.319  23.547  13.385
37828W        W99194  26.956   0.853  13.507
37829W        W99195  20.695  23.009   3.365
37830W        W99196  29.641   7.224   1.771
37831W        W99197  24.215  42.911  13.884
37832W        W99198  44.467   0.474   1.238
37833W        W99199  22.523  13.263  10.573
37834W        W99200  23.118  12.642  12.444
37835W        W99201  30.971  42.844   2.683
37836W        W99202  22.167  33.400   5.306
37837W        W99203  30.566  38.015   3.184
37838W        W99204  20.093   2.300  12.023
37839W        W99205  36.386  12.188   4.240
37840W        W99206  13.600  23.119  14.470
37841W        W99207   4.281  31.513   2.364
37842W        W99208  31.107  33.030   4.166
37843W        W99209  44.462  32.096   4.682
37844W        W99210  25.598  24.644   4.123
37845W        W99211  23.094  30.087  14.881
37846W        W99212  20.070  39.913  11.858
37847W        W99213  14.198  43.311   3.290
37848W        W99214  44.348   8.895  10.642
37849W        W99215  40.533  20.597  14.985
37850W        W99216  21.679  24.651   1.786
37851W        W99217  12.663   4.268   4.658
37852W        W99218  18.726  35.507   4.175
37853W        W99219  35.442  11.729  11.022
37854W        W99220  26.032   5.265  11.057
37855W        W99221  12.149  28.438   2.739
37856W        W99222  20.260  28.135   0.933
37857W        W99223  11.335  24.664   0.871
37858W        W99224   6.757   1.973   0.372
37859W        W99225  33.518  29.444  12.835
37860W        W99226  24.216  24.480   0.859
37861W        W99227  29.430  43.803  14.764
37862W        W99228   0.289  40.939   0.480
37863W        W99229  24.054  13.608   1.440
37864W        W99230  14.307  38.867   2.892
37865W        W99231   0.480  40.506  13.335
37866W        W99232  42.377   6.291   2.296
37867W        W99233  32.594   7.249   1.267
37868W        W99234  30.647  17.171   2.735
37869W        W99235   8.783  20.677  14.383
37870W        W99236  27.082  10.851   0.281
37871W        W99237   8.656  11.213   1.339
37872W        W99238  21.093   4.800  13.860
37873W        W99239  17.268  25.994  11.895
37874W        W99240  20.633  15.213  11.921
37875W        W99241  40.518   7.857  13.446
37876W        W99242  21.228  34.426  12.534
37877W        W99243  27.121  27.032   3.180
37878W        W99244  44.386  19.615   4.180
37879W        W99245   0.395   5.815  12.430
37880W        W99246   9.351   1.957   3.222
37881W        W99247   5.835   9.856   2.768
37882W        W99248  18.050  17.234  11.879
37883W        W99249  21.199   9.319   1.358
37884W        W99250  37.484  35.523   1.420
37885W        W99251   5.424  37.934   2.287
37886W        W99252  35.364  22.617  12.571
37887W        W99253  11.147  27.974   0.964
37888W        W99254  43.325  38.859   4.343
37889W        W99255   7.710   7.250   3.646
37890W        W99256  14.644  13.243   1.306
37891W        W99257  23.496  28.967  11.598
37892W        W99258  11.246  28.580  10.458
37893W        W99259  26.102  16.676  12.987
37894W        W99260   5.916   9.717   4.614
37895W        W99261   6.771  34.583  12.868
37896W        W99262  34.516  22.134   2.717
37897W        W99263  35.075  22.231  12.096
37898W        W99264  10.745  28.142  10.634
37899W        W99265   2.258  25.547  12.977
37900W        W99266  30.528  27.521   0.893
37901W        W99267  22.041  24.176   1.715
37902W        W99268  34.551  12.307   3.661
37903W        W99269  38.037  15.756   1.872
37904W        W99270  26.702  28.450   4.293
37905W        W99271  42.791  33.901  12.957
37906W        W99272  22.544   4.765  14.462
37907W        W99273  14.632  31.598  10.455
37908W        W99274  38.399  32.975  12.476
37909W        W99275  31.405  11.854   0.855
37910W        W99276  31.137  41.354  13.381
37911W        W99277   7.802   8.360  14.484
37912W        W99278  18.162  35.050   0.289
37913W        W99279   8.863  22.737  13.003
37914W        W99280  29.650  39.884  12.396
37915W        W99281  17.099  23.595   3.262
37916W        W99282  29.100  10.163   2.347
37917W        W99283  38.859  16.726   4.154
37918W        W99284   6.705  35.971   2.419
37919W        W99285  28.659  21.103  11.008
37920W        W99286  38.347  10.819  11.412
37921W        W99287  15.250  14.250  11.587
37922W        W99288  34.062  16.228   0.906
37923W        W99289  11.751  11.833  11.951
37924W        W99290  19.172  26.178   2.350
37925W        W99291  13.658   9.344  13.418
37926W        W99292  43.908  16.171  14.877
37927W        W99293   8.379  29.070  10.470
37928W        W99294  26.502  26.518   1.828
37929W        W99295  31.410   6.738  14.494
37930W        W99296  40.435  16.583  11.976
37931W        W99297  22.629  34.502  12.053
37932W        W99298  42.428  23.644  12.861
37933W        W99299  44.406  37.838   1.778
37934W        W99300  24.200  43.293  14.347
37935W        W99301   6.415  29.454   1.696
37936W        W99302  30.625  25.156  12.929
37937W        W99303  25.635  21.131  14.406
37938W        W99304  16.662  37.446   3.854
37939W        W99305  33.918   3.883   3.262
37940W        W99306  24.973  43.961   4.824
37941W        W99307  38.895   4.900  12.880
37942W        W99308  42.007  17.100  14.781
37943W        W99309  30.596  12.277   3.147
37944W        W99310  24.604  21.713   4.240
37945W        W99311  24.519   4.825   3.211
37946W        W99312  42.281  10.274   2.684
37947W        W99313  35.437  26.172   3.345
37948W        W99314  30.492  21.677  11.009
37949W        W99315  11.691  22.704   3.154
37950W        W99316  41.365  36.424  11.115
37951W        W99317  21.133  35.449   9.973
37952W        W99318  25.609  36.049   4.814
37953W        W99319  32.914  30.614  13.374
37954W        W99320  36.577  44.857   4.311
37955W        W99321   3.856  14.599   1.382
37956W        W99322  26.549  44.893   3.200
37957W        W99323  40.421  35.915  14.353
37958W        W99324  37.518  11.131   2.783
37959W        W99325  38.890   4.892   2.377
37960W        W99326  19.143   1.940  12.553
37961W        W99327   4.313  44.759  14.837
37962W        W99328  29.585   4.334  13.548
37963W        W99329  28.472  30.569   3.345
37964W        W99330  36.436  15.617   1.381
37965W        W99331  35.369  39.471   0.429
37966W        W99332  25.573  21.253   4.769
37967W        W99333  23.659  37.886  11.951
37968W        W99334   9.328   4.423   0.940
37969W        W99335  35.528  21.615  12.489
37970W        W99336  13.625  21.540  13.889
37971W        W99337  21.649  22.219   4.680
37972W        W99338  42.293  43.790  13.988
37973W        W99339  20.043  40.887  14.797
37974W        W99340  13.665  40.849   4.307
37975W        W99341   9.265  14.771   2.253
37976W        W99342  28.179  11.363  13.370
37977W        W99343  32.042  24.196  12.443
37978W        W99344   9.223  28.524  12.017
37979W        W99345  13.820  24.992  11.383
37980W        W99346   2.434  10.328  14.360
37981W        W99347   1.326  31.543   2.200
37982W        W99348  33.553  32.528  14.423
37983W        W99349   3.284  32.476  13.017
37984W        W99350   8.747  12.348  12.010
37985W        W99351  23.568   0.921  12.005
37986W        W99352   8.855  29.165   1.884
37987W        W99353   3.423  33.898  14.920
37988W        W99354  25.632   1.381  11.523
37989W        W99355  40.322   8.750  10.031
37990W        W99356  29.620  38.015  14.417
37991W        W99357  30.034  41.993   2.399
37992W        W99358  28.532  35.469  12.864
37993W        W99359  10.788  12.768   3.740
37994W        W99360   2.792  18.268  14.315
37995W        W99361  22.670   1.828  10.596
37996W        W99362  41.830  21.731   0.727
37997W        W99363  29.470  31.962   2.740
37998W        W99364  17.760   7.220   0.255
37999W        W99365  37.020  19.734   2.772
38000W        W99366  41.803  24.528  11.371
38001W        W99367  32.412  12.193   4.292
38002W        W99368  17.711  36.370   1.354
38003W        W99369   0.969   3.351   4.649
38004W        W99370  38.399   3.756   1.378
38005W        W99371  23.149  22.630  12.543
38006W        W99372  28.439  39.394   3.191
38007W        W99373  39.915  44.424  14.777
38008W        W99374  23.999  25.144  13.327
38009W        W99375  35.529  27.979   1.733
38010W        W99376   3.386  25.677   1.321
38011W        W99377  17.272  29.574  10.631
38012W        W99378   0.835  26.207   3.758
38013W        W99379  17.670  28.518   2.237
38014W        W99380  12.299  13.682  13.519
38015W        W99381   8.883   7.848  11.001
38016W        W99382  36.864   7.887  11.576
38017W        W99383  17.297  35.490  10.935
38018W        W99384  32.452  42.911   1.275
38019W        W99385  29.620  25.696  13.016
38020W        W99386  28.443   3.258   0.366
38021W        W99387  23.015  12.363   3.299
38022W        W99388  18.132  40.330   4.130
38023W        W99389  18.576   4.738  10.991
38024W        W99390  13.309  40.858   2.781
38025W        W99391  42.004  15.700  12.877
38026W        W99392   6.697   2.777   1.365
38027W        W99393  15.742  42.281   0.784
38028W        W99394  21.247   3.216  11.544
38029W        W99395   5.439  38.356  12.461
38030W        W99396   0.869  10.697   4.609
38031W        W99397   5.725  21.138   4.630
38032W        W99398  20.255  20.648  13.797
38033W        W99399  20.675  29.655   1.228
38034W        W99400  29.004   9.190  12.517
38035W        W99401   5.723  26.988   1.249
38036W        W99402  33.011   2.411   0.435
38037W        W99403  34.081  32.972  14.454
38038W        W99404  33.039   6.779  14.915
38039W        W99405  39.371  22.663  14.996
38040W        W99406  43.325  11.752  13.971
38041W        W99407  21.074  11.214  14.782
38042W        W99408  15.715   1.774  14.414
38043W        W99409  24.162   6.344  11.890
38044W        W99410  37.531  17.119   5.113
38045W        W99411   6.235  20.127   1.431
38046W        W99412  11.700  14.210  12.486
38047W        W99413  39.874  35.532  12.046
38048W        W99414   9.222  38.518   4.646
38049W        W99415   2.228  27.493   1.915
38050W        W99416  26.079  11.143   2.746
38051W        W99417   1.432   6.317  14.407
38052W        W99418  23.726  27.568   0.836
38053W        W99419  42.903   9.322  13.818
38054W        W99420  33.481  44.277   9.993
38055W        W99421   5.221  27.163  11.923
38056W        W99422  34.961  30.481   1.844
38057W        W99423  15.167   7.895   3.331
38058W        W99424  18.096   4.357  11.883
38059W        W99425  30.977  11.753  14.771
38060W        W99426  25.498  10.846  13.854
38061W        W99427   5.743   2.267   5.318
38062W        W99428   8.889  33.077   2.876
38063W        W99429  27.036  28.559  11.023
38064W        W99430  16.230  34.569  10.061
38065W        W99431  44.952  13.839   0.361
38066W        W99432  25.539  16.723  10.946
38067W        W99433   8.303  43.316   4.349
38068W        W99434  10.352  19.168  13.522
38069W        W99435  27.146   3.455   0.250
38070W        W99436   2.802  12.691  11.017
38071W        W99437  22.689   8.838   1.450
38072W        W99438   7.723  27.485   2.721
38073W        W99439  43.411   0.894  14.391
38074W        W99440  37.451  18.172  11.970
38075W        W99441  35.528  10.809  11.962
38076W        W99442   9.709  16.288  14.855
38077W        W99443  21.127  11.203  11.919
38078W        W99444   1.957  40.894  10.495
38079W        W99445  15.272  26.585   3.709
38080W        W99446  27.624   3.895  11.590
38081W        W99447  16.173  13.782  12.926
38082W        W99448  32.027  32.016   3.160
38083W        W99449   4.709  23.094   0.856
38084W        W99450  22.077   3.819   0.963
38085W        W99451  36.511   8.389  12.372
38086W        W99452  35.394  18.098   4.196
38087W        W99453  24.097  21.120   2.789
38088W        W99454  41.381  18.093  12.891
38089W        W99455  23.198   3.344  11.483
38090W        W99456  28.085  43.806  14.790
38091W        W99457  13.771  28.645  14.882
38092W        W99458  16.124  43.830   4.616
38093W        W99459   1.947  15.329  14.031
38094W        W99460  15.799  42.402  13.935
38095W        W99461  24.696  21.565  12.980
38096W        W99462  25.035  37.500  12.391
38097W        W99463   4.429  12.231  11.593
38098W        W99464   9.833  24.998   0.433
38099W        W99465  41.364  39.027  11.032
38100W        W99466  39.000  40.384  14.880
38101W        W99467  24.712  14.283   1.737
38102W        W99468  34.523   6.865   0.736
38103W        W99469  20.105  44.435   1.321
38104W        W99470  42.914  42.398  12.853
38105W        W99471  14.753  30.950   3.676
38106W        W99472  33.904  37.533   3.834
38107W        W99473  38.903  39.945  13.352
38108W        W99474  13.834   8.681   0.739
38109W        W99475  19.737  25.500   5.305
38110W        W99476   2.285  31.117  11.483
38111W        W99477  17.256  15.601   0.406
38112W        W99478  33.880  24.582  12.896
38113W        W99479   0.748  43.000  11.012
38114W        W99480  17.673  20.155   2.878
38115W        W99481  41.950  27.990   2.820
38116W        W99482  19.122  41.963   0.383
38117W        W99483  27.544   5.832   2.736
38118W        W99484  27.069  19.177  11.390
38119W        W99485   2.314  11.698   5.195
38120W        W99486  18.565   0.276   3.853
38121W        W99487   3.438  33.467  11.925
38122W        W99488   1.836  12.632  13.396
38123W        W99489  11.806  38.449   4.633
38124W        W99490  21.035  32.497  13.921
38125W        W99491  29.465  17.789   0.384
38126W        W99492  25.474  37.582  10.000
38127W        W99493  38.941  11.206   0.346
38128W        W99494  34.556  38.036   1.346
38129W        W99495   6.408  27.093  10.898
38130W        W99496  30.564   0.851   5.117
38131W        W99497  25.587  32.590   4.142
38132W        W99498  26.481  25.472  10.912
38133W        W99499  28.985  13.785   1.733
38134W        W99500   0.742  28.640  14.958
38135W        W99501  24.672   8.361   2.758
38136W        W99502  43.459  39.053  14.478
38137W        W99503   5.202  13.711   4.686
38138W        W99504   9.886  34.413   0.933
38139W        W99505  17.085   1.739   0.280
38140W        W99506  13.224   3.828  11.556
38141W        W99507  15.169  39.062   2.751
38142W        W99508  13.639   1.384  14.886
38143W        W99509   4.834  28.549  11.006
38144W        W99510  39.024  33.381  11.126
38145W        W99511  28.956  30.424   1.311
38146W        W99512  41.913  23.735  11.559
38147W        W99513  35.400   1.384  12.462
38148W        W99514   2.398  13.805   3.366
38149W        W99515   0.758  35.029  11.987
38150W        W99516   2.833  33.576  12.825
38151W        W99517  28.501  43.940   0.906
38152W        W99518  36.089  22.701   0.762
38153W        W99519  12.660   3.304  10.633
38154W        W99520  11.160  28.056  13.539
38155W        W99521  43.939  19.151   4.136
38156W        W99522   9.242  21.656   3.814
38157W        W99523   9.211   4.799   4.117
38158W        W99524   4.779  21.736  14.346
38159W        W99525  15.083  11.368  11.588
38160W        W99526  25.131  33.413   2.394
38161W        W99527  21.610   6.377  14.501
38162W        W99528  30.650  26.964   0.942
38163W        W99529  33.976   1.938  14.279
38164W        W99530  31.593   6.208   1.800
38165W        W99531  31.055   3.346  11.899
38166W        W99532  28.657  12.717  11.862
38167W        W99533  26.544  26.652   2.377
38168W        W99534  17.255  27.492  11.390
38169W        W99535  23.563  32.125   0.270
38170W        W99536  43.926  24.976   4.325
38171W        W99537  42.486  34.489  14.488
38172W        W99538   5.915  17.690   4.307
38173W        W99539  41.476  24.481   1.316
38174W        W99540  17.115   6.201   3.732
38175W        W99541  19.250   4.745   1.729
38176W        W99542  20.610   0.805   1.886
38177W        W99543  28.518  37.489   4.200
38178W        W99544  37.435  29.045  14.416
38179W        W99545  31.000  24.547  10.482
38180W        W99546  41.849  28.165   4.696
38181W        W99547  28.077   1.446   2.685
38182W        W99548  27.066   7.191   4.326
38183W        W99549  11.134  18.741  13.409
38184W        W99550   1.907  27.175  10.058
38185W        W99551  36.484  38.838   3.752
38186W        W99552  17.286  40.969   4.624
38187W        W99553  28.019  10.868  13.920
38188W        W99554   8.332   2.842   4.224
38189W        W99555   9.304  33.577  13.854
38190W        W99556  22.200   4.264  14.883
38191W        W99557  17.087  41.319  11.591
38192W        W99558  22.185  23.542  14.852
38193W        W99559  26.470  18.165   0.422
38194W        W99560   6.206  36.415   4.289
38195W        W99561  42.896   6.234   0.423
38196W        W99562  26.670  11.199  14.762
38197W        W99563   7.772  34.009   0.936
38198W        W99564  41.844   9.733  11.012
38199W        W99565  12.684  43.951   2.879
38200W        W99566  34.512  31.411   3.312
38201W        W99567  17.220  16.102   0.366
38202W        W99568  33.026  39.411   0.733
38203W        W99569  31.064  32.135   0.316
38204W        W99570   9.335  27.578  12.893
38205W        W99571  10.241  25.137  10.996
38206W        W99572  27.025  29.921   0.742
38207W        W99573  41.855  18.150  12.015
38208W        W99574  37.376  20.190   4.777
38209W        W99575  33.601   5.815  10.941
38210W        W99576   5.754  35.581   2.320
38211W        W99577  13.308   2.228   3.343
38212W        W99578  15.739  31.429   2.225
38213W        W99579   4.217  38.410   0.933
38214W        W99580  41.012  26.992  10.431
38215W        W99581  29.649  20.254   2.335
38216W        W99582  19.075   5.747   2.878
38217W        W99583   8.311  12.293  11.062
38218W        W99584  38.832  39.936   3.768
38219W        W99585  23.506  12.699  13.315
38220W        W99586  31.950   4.249   0.363
38221W        W99587  25.468   4.734   0.738
38222W        W99588  35.080  17.063  14.338
38223W        W99589  28.965  34.447  10.967
38224W        W99590  33.497  26.123   2.198
38225W        W99591  23.174  10.325   2.272
38226W        W99592  20.736  26.608  12.574
38227W        W99593  31.567  24.611  14.410
38228W        W99594  14.307  22.026  11.430
38229W        W99595  12.797  41.462   2.208
38230W        W99596  25.979  29.952   1.259
38231W        W99597  41.008  17.561   2.717
38232W        W99598  39.816   5.223   0.311
38233W        W99599  14.662  43.430  14.780
38234W        W99600   2.368  15.715  12.096
38235W        W99601  32.013  26.606   1.234
38236W        W99602  14.233   9.287  10.997
38237W        W99603  24.649   2.813  12.380
38238W        W99604  41.531  33.406  10.406
38239W        W99605   5.859  18.569   0.810
38240W        W99606  24.662  25.697   4.173
38241W        W99607  10.363  38.530  12.500
38242W        W99608  12.271  16.102   0.354
38243W        W99609   6.700  11.787   1.881
38244W        W99610  15.307  27.635  11.946
38245W        W99611   5.237   0.345   3.189
38246W        W99612  32.601   2.826   3.289
38247W        W99613  34.441  41.457   2.875
38248W        W99614  11.698  36.031  12.449
38249W        W99615   2.841  30.490   0.339
38250W        W99616  39.925  32.059   1.384
38251W        W99617  44.292  14.673   4.194
38252W        W99618  14.259   8.344  10.635
38253W        W99619   4.722  37.554  13.882
38254W        W99620  18.633  17.694   3.223
38255W        W99621  13.837  19.272   0.756
38256W        W99622  39.970  26.194   2.865
38257W        W99623   3.720  11.725   3.327
38258W        W99624  27.571  22.102   1.754
38259W        W99625  29.967  10.799  11.124
38260W        W99626  17.684  21.112   2.179
38261W        W99627  18.552   6.230   0.332
38262W        W99628  40.809  11.283  14.776
38263W        W99629  40.919  28.073  14.490
38264W        W99630  22.995  25.100  11.968
38265W        W99631   3.355   3.304   5.276
38266W        W99632  22.614  24.662   4.273
38267W        W99633   5.316  38.933   4.674
38268W        W99634  27.165   9.739   4.114
38269W        W99635   0.395  39.484  10.516
38270W        W99636  31.117  19.253  13.523
38271W        W99637  21.034  22.230   1.302
38272W        W99638   7.827  14.305  14.318
38273W        W99639   7.673  33.552   4.273
38274W        W99640   0.920  25.035  12.824
38275W        W99641  38.440  43.362   2.417
38276W        W99642  21.141  38.948   1.383
38277W        W99643  17.215  32.993   3.859
38278W        W99644  15.682  24.600   0.260
38279W        W99645   3.924  44.923   2.254
38280W        W99646  28.529   1.295  12.884
38281W        W99647  27.140  25.003   4.155
38282W        W99648   7.293  21.700   2.366
38283W        W99649  14.670  16.798  11.445
38284W        W99650  23.536   5.928   2.668
38285W        W99651  44.946  29.983  11.471
38286W        W99652  27.606  12.240   4.804
38287W        W99653  15.783   1.860  10.084
38288W        W99654  22.169  41.452  11.439
38289W        W99655  41.300   4.725  14.383
38290W        W99656   0.883   7.227  11.527
38291W        W99657  30.645  19.041  13.913
38292W        W99658  25.219  20.678   0.287
38293W        W99659  14.707  12.644   4.754
38294W        W99660  37.450   4.793   1.924
38295W        W99661  16.727  28.445   3.675
38296W        W99662  18.757  44.283   3.353
38297W        W99663  28.005   9.853  12.565
38298W        W99664  32.032  41.808  12.954
38299W        W99665  22.105  30.631  12.873
38300W        W99666   5.270   1.257   3.630
38301W        W99667  22.016  23.086   0.335
38302W        W99668  44.920  38.325   0.416
38303W        W99669  27.007  38.897   0.287
38304W        W99670  28.527  36.036   4.258
38305W        W99671  25.211  12.820   4.672
38306W        W99672   2.418  11.219   1.706
38307W        W99673  40.928  33.127   2.894
38308W        W99674  41.936  23.212  10.445
38309W        W99675  29.664  35.102   0.434
38310W        W99676   7.360  35.978   0.380
38311W        W99677  14.722  35.010   3.386
38312W        W99678  27.016  15.715  12.039
38313W        W99679  36.962   8.822  12.865
38314W        W99680   2.933  29.992   1.809
38315W        W99681  15.796  15.182   0.858
38316W        W99682  22.578  22.019  13.998
38317W        W99683  42.935  19.214   0.457
38318W        W99684   4.447   9.730  13.440
38319W        W99685  37.454   5.193   3.369
38320W        W99686  24.028  11.736   4.277
38321W        W99687  34.516  30.626  13.521
38322W        W99688  15.580  27.043  14.925
38323W        W99689  38.859  11.334   0.843
38324W        W99690  44.782   1.948  14.823
38325W        W99691  22.178   2.325   2.847
38326W        W99692  21.577  40.387   3.256
38327W        W99693  44.315  24.991  14.907
38328W        W99694  10.673  44.903   4.296
38329W        W99695  30.523  24.112   2.238
38330W        W99696   5.411  18.731  14.802
38331W        W99697  42.830   3.445   2.713
38332W        W99698  10.254  13.285  14.353
38333W        W99699  18.146  34.406   4.720
38334W        W99700   1.833   4.372  14.983
38335W        W99701   1.375  24.031   0.929
38336W        W99702  12.643   6.210   3.807
38337W        W99703  38.471  34.444  12.844
38338W        W99704   1.475   2.467  11.520
38339W        W99705  19.164  19.264  10.425
38340W        W99706   6.425  22.699  14.809
38341W        W99707  12.735   4.863  13.358
38342W        W99708  36.459  20.203  10.601
38343W        W99709  16.201  25.668   0.362
38344W        W99710  29.048   6.229   1.847
38345W        W99711  37.580  22.732   1.286
38346W        W99712   7.408   3.764   2.710
38347W        W99713  32.995  32.055   3.300
38348W        W99714  25.038  14.651  12.016
38349W        W99715  33.404   1.934   0.901
38350W        W99716  41.456  37.898  13.888
38351W        W99717  29.508  31.055   1.292
38352W        W99718   2.470  43.493  14.931
38353W        W99719  44.774  29.954   3.209
38354W        W99720  38.382  34.467  13.813
38355W        W99721   1.820  18.669  14.812
38356W        W99722  38.437   3.877   3.684
38357W        W99723  21.206  39.818  10.937
38358W        W99724   0.349   8.747   4.214
38359W        W99725  14.143  23.094   4.239
38360W        W99726   3.845  28.153   4.213
38361W        W99727  17.695  27.026   3.820
38362W        W99728  21.662  44.835  13.350
38363W        W99729  19.666  30.017  10.931
38364W        W99730   4.901  11.340  13.439
38365W        W99731  23.135  24.227   3.865
38366W        W99732  29.008   4.218  10.589
38367W        W99733   6.779   7.323  12.548
38368W        W99734  10.161  15.270  12.866
38369W        W99735   4.236  11.323  11.047
38370W        W99736  42.900  31.964   3.842
38371W        W99737  15.318  29.942  11.072
38372W        W99738   4.862  18.688  12.926
38373W        W99739  31.436  22.508  10.486
38374W        W99740  10.784  14.250   4.225
38375W        W99741  10.317  38.952   5.294
38376W        W99742  13.309  15.674  13.857
38377W        W99743  27.183  15.677  10.577
38378W        W99744  35.060  10.783   0.825
38379W        W99745  14.101   0.279  13.326
38380W        W99746   5.881   7.328   2.287
38381W        W99747  21.184   3.887   3.183
38382W        W99748  12.819  14.650  14.885
38383W        W99749   1.287  39.421  10.623
38384W        W99750  33.915   0.975   4.652
38385W        W99751  44.954  12.268  13.806
38386W        W99752  32.503  31.985  12.062
38387W        W99753  38.540  38.373  14.795
38388W        W99754   4.356  12.169   3.237
38389W        W99755  32.044  39.427  14.413
38390W        W99756   5.883  40.879   2.335
38391W        W99757   9.285  30.547  13.031
38392W        W99758  20.575  29.656   4.789
38393W        W99759  29.455   1.898  14.895
38394W        W99760  27.193   2.371  11.026
38395W        W99761  33.441  43.490   3.715
38396W        W99762  42.870  18.094   0.942
38397W        W99763  34.584  19.618  11.874
38398W        W99764  40.439   1.737   3.329
38399W        W99765  12.119  41.355  12.949
38400W        W99766  29.051   1.451   1.826
38401W        W99767  18.227  17.085  10.957
38402W        W99768  25.976  30.596  12.918
38403W        W99769  12.613  29.013   1.439
38404W        W99770  39.995  29.575   2.698
38405W        W99771  19.724  22.036  14.468
38406W        W99772  35.563  23.694  12.869
38407W        W99773  14.713  33.467  11.975
38408W        W99774   9.282  32.086   2.678
38409W        W99775  44.888  20.585   3.213
38410W        W99776  36.526   6.379  10.920
38411W        W99777   2.749  37.929  10.484
38412W        W99778   2.382  25.625  12.088
38413W        W99779  21.680  26.620   0.337
38414W        W99780  24.715  15.664  10.636
38415W        W99781  33.982  44.284  12.561
38416W        W99782   1.461  31.422   3.693
38417W        W99783  29.596  33.072  11.952
38418W        W99784  26.104   8.725   0.404
38419W        W99785   9.790  13.209   4.744
38420W        W99786  23.578  11.654  10.414
38421W        W99787  28.661  25.687  11.536
38422W        W99788   9.674  22.569   2.687
38423W        W99789  18.062  44.503   3.854
38424W        W99790  23.622  16.159   3.729
38425W        W99791  23.190   0.769   4.695
38426W        W99792  32.018  33.535   1.893
38427W        W99793   9.209   6.879  13.041
38428W        W99794  41.355  34.983  13.905
38429W        W99795   2.927  15.717   3.846
38430W        W99796   4.446  43.446   3.264
38431W        W99797  21.673  11.762  11.594
38432W        W99798  25.490  29.632   0.276
38433W        W99799  24.169  41.317  11.409
38434W        W99800   0.425  24.690  12.343
38435W        W99801  12.338   1.450   4.708
38436W        W99802  22.237   5.367   1.329
38437W        W99803  30.494  32.004  13.023
38438W        W99804   7.302  38.528  14.996
38439W        W99805  44.446  41.023  14.884
38440W        W99806   0.342  39.481   3.228
38441W        W99807  27.539  20.569   4.181
38442W        W99808   0.268  10.702  12.375
38443W        W99809  10.728  43.965   2.355
38444W        W99810  29.118   0.384   4.781
38445W        W99811  25.067   1.268   3.281
38446W        W99812  33.877   6.911   1.431
38447W        W99813   9.733  15.766  11.537
38448W        W99814  31.079  28.142  10.426
38449W        W99815  12.197  26.477   2.351
38450W        W99816  25.191  26.176  12.090
38451W        W99817  28.593  40.016  13.546
38452W        W99818  18.673  30.949  11.402
38453W        W99819  32.535   1.874  10.423
38454W        W99820  12.730  13.267  11.523
38455W        W99821  21.596  31.051   0.764
38456W        W99822  26.616  31.538  13.822
38457W        W99823  28.497   4.431  10.996
38458W        W99824  22.660  35.498  13.349
38459W        W99825  26.507  20.038  12.507
38460W        W99826  15.264  43.913  11.385
38461W        W99827  38.979  34.482  11.491
38462W        W99828  43.810   8.161  11.579
38463W        W99829  24.603  19.083   1.699
38464W        W99830  18.558   2.765   0.782
38465W        W99831  28.036   6.918   1.425
38466W        W99832   8.891   2.428   1.272
38467W        W99833  35.360  43.818   0.350
38468W        W99834  34.422  36.093   4.747
38469W        W99835  18.607  41.427   4.787
38470W        W99836  35.518   2.723  14.324
38471W        W99837   6.296  38.878  11.578
38472W        W99838   5.329  43.394  14.445
38473W        W99839  12.294  34.000   0.894
38474W        W99840  31.039   8.382   1.853
38475W        W99841  11.779   0.952   0.730
38476W        W99842  24.980  12.767   3.285
38477W        W99843  21.683  12.754  10.975
38478W        W99844  41.437  33.605   1.323
38479W        W99845   0.748  23.597  14.431
38480W        W99846  29.643  37.842   2.296
38481W        W99847  38.395  23.044   1.893
38482W        W99848  36.581  30.479  11.505
38483W        W99849  12.679  28.082   1.212
38484W        W99850  26.647  16.099   4.659
38485W        W99851   5.343  41.969  14.863
38486W        W99852   0.767  33.469  10.934
38487W        W99853  38.937   0.898  14.794
38488W        W99854  35.529  10.216  13.863
38489W        W99855  32.923  43.296  12.977
38490W        W99856   3.327  15.219   9.956
38491W        W99857   8.214  29.933   0.260
38492W        W99858  43.320  43.448   4.250
38493W        W99859  38.886  35.894  11.023
38494W        W99860   6.778   5.737  13.339
38495W        W99861   9.255  12.289   1.212
38496W        W99862  41.449  27.090  14.970
38497W        W99863  30.129   9.772   0.390
38498W        W99864  13.639  36.065  10.030
38499W        W99865   6.732  26.190   0.771
38500W        W99866  33.443   0.483   4.203
38501W        W99867  18.278  35.569   2.193
38502W        W99868   7.822  38.870   4.700
38503W        W99869  13.219  28.620  11.982
38504W        W99870  29.659  15.711   3.375
38505W        W99871  33.562  19.119  14.384
38506W        W99872   0.385  16.741  14.767
38507W        W99873  16.108   8.185  14.495
38508W        W99874  33.578  18.137   4.802
38509W        W99875  39.904  14.278   0.408
38510W        W99876  30.491  38.993   1.353
38511W        W99877  12.626   4.296  13.414
38512W        W99878  27.184  39.342  11.109
38513W        W99879   9.257  42.820   4.720
38514W        W99880  17.213  26.956   1.312
38515W        W99881  10.836  17.181   1.853
38516W        W99882  28.134  15.598  11.982
38517W        W99883  37.528  24.543   1.754
38518W        W99884  40.412  15.286   0.442
38519W        W99885  39.388  38.057   4.727
38520W        W99886  15.802  43.413   1.757
38521W        W99887   8.872  17.583   3.250
38522W        W99888  32.626  10.300   2.321
38523W        W99889  12.182  16.205  11.891
38524W        W99890   6.920  12.216  13.995
38525W        W99891  39.432  23.632   3.368
38526W        W99892  31.072  35.984   1.800
38527W        W99893  44.969  24.040   1.814
38528W        W99894  38.055  29.926  12.501
38529W        W99895   1.412  42.984   3.781
38530W        W99896  21.226  22.237   0.779
38531W        W99897  18.148  24.664  13.449
38532W        W99898  38.441  42.005  12.571
38533W        W99899   9.851  20.723   0.751
38534W        W99900  19.623  29.503  14.513
38535W        W99901   5.759  38.874   0.921
38536W        W99902   2.339  42.419  13.815
38537W        W99903  12.157  42.470  10.606
38538W        W99904  21.241  32.067  13.416
38539W        W99905  20.257  17.631  14.762
38540W        W99906   2.391  22.179  11.579
38541W        W99907  25.547  42.856  13.055
38542W        W99908  37.448   1.802   1.309
38543W        W99909  44.833  21.680  13.845
38544W        W99910  22.677  26.676  13.038
38545W        W99911   7.381   0.482   3.735
38546W        W99912  28.483  41.444   0.736
38547W        W99913   2.273  19.648  11.452
38548W        W99914  16.192  44.423   1.917
38549W        W99915  34.929  25.977   4.796
38550W        W99916  16.084  12.280  11.084
38551W        W99917   8.245  13.753  13.433
38552W        W99918  29.651   8.318   4.184
38553W        W99919   8.736  24.701  11.029
38554W        W99920  34.939   7.863  11.389
38555W        W99921  41.372  40.365  13.018
38556W        W99922   8.691  35.539   2.829
38557W        W99923   3.220   9.230  14.768
38558W        W99924   8.392  20.204  12.002
38559W        W99925  38.533  34.485   1.312
38560W        W99926  20.033   8.213  13.325
38561W        W99927  17.264  21.031   2.739
38562W        W99928  41.535   7.319  13.930
38563W        W99929   3.421  16.637   1.285
38564W        W99930   6.413   9.382   4.618
38565W        W99931  23.638  14.244   2.804
38566W        W99932  15.085  37.004  14.489
38567W        W99933  13.231  44.771  11.066
38568W        W99934  44.398   3.865   3.155
38569W        W99935  27.674   6.399  13.999
38570W        W99936  38.363  15.709   2.366
38571W        W99937  42.813  43.967  11.421
38572W        W99938   1.804  14.215  11.948
38573W        W99939  21.109   7.701  10.625
38574W        W99940  29.946  35.550   2.336
38575W        W99941  17.128  34.396   4.280
38576W        W99942  40.354  17.566   2.695
38577W        W99943  16.714  18.124   0.793
38578W        W99944  28.108  32.562   4.341
38579W        W99945  34.461   8.860  14.948
38580W        W99946  40.450  22.182   0.254
38581W        W99947  21.062  26.569   4.806
38582W        W99948  40.393  41.440  10.451
38583W        W99949  11.255  13.730  10.963
38584W        W99950   1.438  39.485   2.724
38585W        W99951  33.490  10.254  10.115
38586W        W99952  34.985  32.637   2.203
38587W        W99953  20.087  11.861  14.324
38588W        W99954   1.268  26.000   1.280
38589W        W99955  42.891  44.427   3.785
38590W        W99956  22.181  26.521   1.822
38591W        W99957  42.287  38.452  12.555
38592W        W99958  27.164  15.088   4.618
38593W        W99959  20.644   3.404  13.410
38594W        W99960  19.201   5.874  11.498
38595W        W99961  26.521  42.962  13.821
38596W        W99962  32.408   1.330  13.950
38597W        W99963   0.835  42.510  12.877
38598W        W99964   6.840  33.386   2.190
38599W        W99965  13.841   2.752   4.329
38600W        W99966  18.083  21.516   2.847
38601W        W99967  38.970  32.085  12.421
38602W        W99968  32.127  35.369   0.456
38603W        W99969   3.839  26.994   3.303
38604W        W99970  20.202  34.370   0.796
38605W        W99971  31.015  36.470  12.365
38606W        W99972  14.206   0.907   4.157
38607W        W99973  17.148  10.298   0.451
38608W        W99974   6.893  10.751  12.003
38609W        W99975  40.438   7.717   4.729
38610W        W99976  20.078   3.346  13.308
38611W        W99977  15.601  10.724   3.796
38612W        W99978  33.022  20.122   0.754
38613W        W99979  19.165  19.042   2.367
38614W        W99980  37.836  20.686  13.520
38615W        W99981  43.855  23.152  14.909
38616W        W99982  12.627  13.119   0.728
38617W        W99983   3.955  20.723  10.526
38618W        W99984   5.864   9.252   3.826
38619W        W99985  13.182  16.746  11.596
38620W        W99986   7.725   3.398   1.265
38621W        W99987  31.007  35.086   2.408
38622W        W99988   5.811  12.762   1.931
38623W        W99989  26.512   3.332   9.976
38624W        W99990  26.018  11.312   1.806
38625W        W99991  38.832  23.022   0.358
38626W        W99992  29.546  37.835   1.444
38627W        W99993  30.074  14.597  13.993
38628W        W99994  37.074  31.588   3.373
38629W        W99995  30.527   6.761   4.635
38630W        W99996  11.260  33.604   1.766
38631W        W99997  28.984  10.739   1.893
38632W        W99998  34.079  42.389  11.954
38633W        W99999  13.602   2.344  12.853
38634W        W    0  31.947  15.201   4.687
38635W        W    1  36.419   2.929   1.417
38636W        W    2  36.037  40.336  12.461
38637W        W    3  40.980  21.210  12.903
38638W        W    4  43.410  25.011   3.317
38639W        W    5  21.207  38.965  12.411
38640W        W    6  29.982   1.463  14.310
38641W        W    7  15.118   0.397  10.924
38642W        W    8  25.677  36.906   3.349
38643W        W    9   2.436  29.437   0.428
38644W        W   10  21.669  15.141  13.343
38645W        W   11  33.100   7.675   1.907
38646W        W   12  15.199  13.789  12.898
38647W        W   13  20.230  39.429   3.795
38648W        W   14  20.050  33.889   3.318
38649W        W   15  31.899  44.484   1.912
38650W        W   16  44.010   0.966  12.530
38651W        W   17   6.338  31.418   0.357
38652W        W   18  36.401   4.318  13.811
38653W        W   19  30.151  44.895  14.905
38654W        W   20  13.692  33.543   3.229
38655W        W   21  27.658   9.343   2.336
38656W        W   22  20.122  40.391  12.480
38657W        W   23  19.696  22.128   3.815
38658W        W   24  37.894  43.984  12.572
38659W        W   25   5.245  27.614   2.822
38660W        W   26  31.137  11.156   1.302
38661W        W   27  28.641  23.151   4.263
38662W        W   28  42.396   4.319   4.186
38663W        W   29  11.629  15.769  10.117
38664W        W   30  14.094  35.376   1.913
38665W        W   31  14.820  12.224   0.317
38666W        W   32  32.622  23.630   0.864
38667W        W   33  22.118  17.760   2.742
38668W        W   34  25.092  28.934  14.789
38669W        W   35  38.437   6.904  10.498
38670W        W   36  11.275  40.468   2.358
38671W        W   37  26.118  41.440  12.924
38672W        W   38   6.211  21.565  12.426
38673W        W   39  33.965  44.349  14.789
38674W        W   40  11.154   8.719   4.262
38675W        W   41   5.199  20.658   4.625
38676W        W   42  31.948   9.323   1.296
38677W        W   43  12.708  22.707   2.727
38678W        W   44  35.977  40.540   0.892
38679W        W   45  22.068  25.130   4.345
38680W        W   46  32.483   0.428  13.339
38681W        W   47   5.298   7.675   3.268
38682W        W   48  34.890  43.296   5.109
38683W        W   49  40.458  31.567  12.435
38684W        W   50  32.628  28.613  10.484
38685W        W   51  29.936  23.653  10.964
38686W        W   52  23.081  36.958   0.871
38687W        W   53  13.793  10.239   4.663
38688W        W   54  32.108  16.621   2.821
38689W        W   55  13.613  27.086  12.361
38690W        W   56  19.697  39.420  14.348
38691W        W   57  38.335   6.390   1.760
38692W        W   58  36.517  39.410   2.831
38693W        W   59   3.227   8.845   0.380
38694W        W   60  12.283  44.345   3.803
38695W        W   61  17.709   3.310  12.025
38696W        W   62   7.370  32.500   0.903
38697W        W   63  24.545   8.360  14.484
38698W        W   64  40.461   8.379   0.787
38699W        W   65  23.736  42.978  13.063
38700W        W   66  13.346  25.186   2.295
38701W        W   67  35.997  21.703  14.840
38702W        W   68  10.161   3.444   3.706
38703W        W   69  13.131  30.483   4.814
38704W        W   70  17.061  21.753  10.910
38705W        W   71  11.228  43.886   4.275
38706W        W   72  29.519  32.632   0.745
38707W        W   73  11.361  20.615  11.434
38708W        W   74  32.532  28.176  10.916
38709W        W   75  27.010  42.305  14.346
38710W        W   76  43.461   4.878  13.838
38711W        W   77  37.839  30.127  14.771
38712W        W   78   8.810   2.415   2.892
38713W        W   79  17.138  33.457  11.120
38714W        W   80  11.219  24.976  10.405
38715W        W   81  10.762   2.736  11.010
38716W        W   82  42.501   0.277  11.060
38717W        W   83  29.573  38.334   2.307
38718W        W   84   9.238   8.869   3.353
38719W        W   85  12.826  31.566   2.715
38720W        W   86   8.182  21.635  13.415
38721W        W   87  36.357  25.555  14.879
38722W        W   88  44.319  14.148  12.389
38723W        W   89  16.625  13.322  12.526
38724W        W   90  18.703  30.122   0.962
38725W        W   91  44.404   2.736   3.308
38726W        W   92  22.668  20.222  13.972
38727W        W   93  15.299  39.498  14.370
38728W        W   94  11.794  11.670   1.822
38729W        W   95  31.487  37.386   4.348
38730W        W   96  10.870   8.900   0.953
38731W        W   97   6.247  30.443  10.041
38732W        W   98  32.478  42.785   0.474
38733W        W   99  23.526   4.241   2.198
38734W        W  100  20.602   6.400  12.060
38735W        W  101  23.553   4.279  13.793
38736W        W  102  36.882  37.495  12.083
38737W        W  103   9.712  36.372  10.460
38738W        W  104  22.573  21.598  10.009
38739W        W  105   0.773  35.087   2.899
38740W        W  106  18.612  32.467  11.480
38741W        W  107   8.160  28.937   2.373
38742W        W  108   6.411  15.715  13.322
38743W        W  109   2.910   1.907  11.097
38744W        W  110   4.773  29.468  14.769
38745W        W  111  32.901  42.360   1.265
38746W        W  112   0.944  41.330  13.415
38747W        W  113  30.563  40.416   2.692
38748W        W  114  16.141  23.188   2.295
38749W        W  115   8.385  17.214   1.794
38750W        W  116  26.643  35.422  14.475
38751W        W  117  39.821  35.462   1.286
38752W        W  118  38.896   2.357   4.173
38753W        W  119   2.906  42.008   0.311
38754W        W  120  40.518  41.478  13.798
38755W        W  121   4.356  29.112   1.306
38756W        W  122  39.897  12.251   0.829
38757W        W  123  39.980  33.436   1.717
38758W        W  124   7.286  43.842   0.757
38759W        W  125  18.245  26.084  10.909
38760W        W  126  17.733   6.758  14.923
38761W        W  127  41.863   4.285   1.354
38762W        W  128  44.880  39.392  13.060
38763W        W  129  37.928  11.191   0.755
38764W        W  130  32.620  43.375  13.019
38765W        W  131  15.629  32.889   2.390
38766W        W  132   5.235  30.047   1.436
38767W        W  133   9.264   3.227  14.885
38768W        W  134  28.536   8.217   0.250
38769W        W  135   3.949  22.232  10.917
38770W        W  136  17.295  24.498  12.475
38771W        W  137  19.101   0.433   3.272
38772W        W  138   8.764  29.444  14.866
38773W        W  139  43.996  27.154   4.739
38774W        W  140  32.073  15.089  14.957
38775W        W  141  35.881  42.426  12.471
38776W        W  142   3.909  15.612  11.975
38777W        W  143   1.782  16.242  10.422
38778W        W  144  15.683  22.656   5.179
38779W        W  145   8.217  35.893  13.031
38780W        W  146  32.004  12.127  12.900
38781W        W  147  42.010  37.965   3.808
38782W        W  148  22.681  28.532  10.015
38783W        W  149  23.505  42.789   4.192
38784W        W  150  13.255  43.897  14.489
38785W        W  151  19.257  17.118  11.611
38786W        W  152  16.090  44.279   4.250
38787W        W  153  19.566  12.239  11.941
38788W        W  154  40.405  34.908  11.954
38789W        W  155  12.619  29.525  13.950
38790W        W  156  22.500  40.453  11.128
38791W        W  157  27.482  27.956  14.946
38792W        W  158  21.650   7.216   4.692
38793W        W  159  14.826  19.541   3.859
38794W        W  160  34.543  38.874  12.968
38795W        W  161   5.270  40.000  14.827
38796W        W  162   1.778   6.290   2.729
38797W        W  163  31.588  10.749  14.397
38798W        W  164  18.671   9.669   4.326
38799W        W  165  14.803  10.377   2.773
38800W        W  166  22.107  27.500  14.332
38801W        W  167  10.277  42.829  12.091
38802W        W  168  44.808  38.544   0.835
38803W        W  169  40.040   8.264  13.039
38804W        W  170  21.750  33.531   1.235
38805W        W  171  43.426   9.149   1.883
38806W        W  172  22.691  19.779   1.816
38807W        W  173  26.022  11.695  13.936
38808W        W  174   1.463  32.545   5.750
38809W        W  175  26.604  30.116  12.499
38810W        W  176  37.868  19.061  12.055
38811W        W  177   0.428  12.117  13.922
38812W        W  178  43.481  38.452   4.302
38813W        W  179  25.210   6.715   2.349
38814W        W  180   2.779  44.337  12.538
38815W        W  181  13.161  36.557  14.457
38816W        W  182  38.992   5.912   1.778
38817W        W  183   0.905  36.870  14.016
38818W        W  184  21.223   1.466   4.790
38819W        W  185   7.323  20.193   3.725
38820W        W  186  37.521  38.367  12.946
38821W        W  187  30.058  15.208   2.812
38822W        W  188  34.471  20.591  14.981
38823W        W  189   8.857  33.609  11.054
38824W        W  190   4.888  13.731   2.203
38825W        W  191   3.326  44.776   2.791
38826W        W  192   2.959  37.452   1.405
38827W        W  193  22.126  37.923   0.474
38828W        W  194   0.846   6.895   3.735
38829W        W  195   4.855  24.610  11.575
38830W        W  196  18.163   3.886  13.014
38831W        W  197  24.601  19.076  12.404
38832W        W  198  33.121  32.556  12.002
38833W        W  199  44.776   3.256   1.799
38834W        W  200   7.356  36.041  14.960
38835W        W  201   8.327  11.333  14.322
38836W        W  202   1.297  42.821   0.787
38837W        W  203  40.346  17.633  11.880
38838W        W  204   1.742  37.968   3.224
38839W        W  205  27.069  10.383  14.410
38840W        W  206   0.388  12.674  14.847
38841W        W  207  15.174  16.622   2.234
38842W        W  208   2.943  23.715   0.741
38843W        W  209  15.578   8.233   1.712
38844W        W  210  30.939  15.245   2.218
38845W        W  211  30.601  41.306  12.429
38846W        W  212   1.888  13.827   2.836
38847W        W  213  41.387  40.804  14.433
38848W        W  214  31.482  17.217   3.170
38849W        W  215   1.779  28.566  11.959
38850W        W  216  37.359   1.282  12.405
38851W        W  217  21.615  16.293   3.815
38852W        W  218  31.104  36.438  12.057
38853W        W  219  37.022  27.625  14.454
38854W        W  220   7.710   4.786   2.335
38855W        W  221  43.998  40.889  14.443
38856W        W  222  40.412  21.708  14.434
38857W        W  223  11.702  27.581   3.856
38858W        W  224  24.686  34.944  13.832
38859W        W  225  33.125  44.307   3.818
38860W        W  226  26.692  36.854  12.340
38861W        W  227  41.514  43.514   3.755
38862W        W  228   8.811  23.520  13.880
38863W        W  229  20.631  23.998   3.664
38864W        W  230  23.609   2.818   2.706
38865W        W  231  29.448  25.193   5.199
38866W        W  232  36.951   6.377  11.050
38867W        W  233  35.550  44.980  12.344
38868W        W  234  10.660  31.123   2.320
38869W        W  235  32.519  29.658   0.298
38870W        W  236  28.971   3.850   1.708
38871W        W  237  29.522   5.422   3.781
38872W        W  238   6.236  16.234  11.112
38873W        W  239  21.640  43.957  11.405
38874W        W  240  32.619  37.838  14.275
38875W        W  241   2.333  25.083  12.014
38876W        W  242  15.241  43.320   1.829
38877W        W  243  12.241  11.850  11.029
38878W        W  244  14.130  40.943  12.400
38879W        W  245  38.515  35.083   0.942
38880W        W  246   7.838  39.543  13.860
38881W        W  247  36.976  42.861  12.052
38882W        W  248  19.254  20.718  11.092
38883W        W  249  29.994  15.585  11.116
38884W        W  250   0.425  12.745   1.225
38885W        W  251  14.778   6.727   4.282
38886W        W  252  16.218  10.338  10.915
38887W        W  253  10.179   3.393   3.221
38888W        W  254  14.789  17.795   0.772
38889W        W  255  30.928   1.767  13.060
38890W        W  256  15.765  29.497  14.029
38891W        W  257   9.283   5.338  13.835
38892W        W  258   8.672  14.141   4.308
38893W        W  259  34.481  38.004  13.055
38894W        W  260   8.325  20.191   4.826
38895W        W  261  36.572   7.347  10.084
38896W        W  262  11.760  28.934   0.750
38897W        W  263  44.447  24.616  12.378
38898W        W  264  31.401  18.722  14.342
38899W        W  265  31.606   3.415  11.958
38900W        W  266   4.308  27.677  12.896
38901W        W  267  35.032  12.663   3.381
38902W        W  268  44.842  16.130   4.659
38903W        W  269   1.238  31.505   1.314
38904W        W  270  28.539  43.802  14.306
38905W        W  271   9.238  33.998  12.479
38906W        W  272  23.540  23.537   3.308
38907W        W  273  14.159   5.860   1.372
38908W        W  274  19.107   5.747  13.060
38909W        W  275  22.737  41.335  13.318
38910W        W  276   4.425  13.766   4.256
38911W        W  277  27.590  33.625  14.386
38912W        W  278  28.646  43.840  10.968
38913W        W  279  23.141   7.417   0.305
38914W        W  280  12.729   5.354  14.334
38915W        W  281  43.948  35.390   4.276
38916W        W  282  19.227  20.597   1.694
38917W        W  283   7.823  18.115   0.395
38918W        W  284  31.103   8.180   1.285
38919W        W  285  26.063   5.730  14.010
38920W        W  286  16.636  18.114  10.984
38921W        W  287   7.361  27.627   4.250
38922W        W  288  43.011  33.078   1.214
38923W        W  289  44.856  31.967   0.742
38924W        W  290  12.669  37.575  10.082
38925W        W  291  16.085  34.523  13.816
38926W        W  292   5.224  14.802   4.716
38927W        W  293  38.883  27.470  12.499
38928W        W  294  25.587   8.895  13.856
38929W        W  295  11.218  44.881  10.912
38930W        W  296  41.884  20.695  14.315
38931W        W  297  25.673  12.855   2.247
38932W        W  298  20.665  11.737  10.914
38933W        W  299  44.984  44.804   3.864
38934W        W  300  44.349  44.798   3.740
38935W        W  301  26.056  23.125  11.534
38936W        W  302  13.117  34.415  11.423
38937W        W  303  42.977  37.396   3.370
38938W        W  304  34.874   9.276   4.280
38939W        W  305  25.480  26.094   5.082
38940W        W  306   0.397  33.525  13.324
38941W        W  307  31.968  33.441  13.904
38942W        W  308   8.888  24.175  12.012
38943W        W  309  32.056  37.024   0.932
38944W        W  310  37.855  20.557  12.026
38945W        W  311   9.830   9.678  13.381
38946W        W  312   0.951  32.900   1.223
38947W        W  313   8.212   2.227  12.070
38948W        W  314  30.133  11.868   4.822
38949W        W  315  31.576   3.769  14.433
38950W        W  316  23.025   3.356  13.009
38951W        W  317  32.570  14.756   1.371
38952W        W  318   5.805  17.240  14.817
38953W        W  319  43.992  11.866   3.751
38954W        W  320  30.656  32.076   4.325
38955W        W  321  22.204  28.580   3.787
38956W        W  322  17.281   6.736  13.482
38957W        W  323  20.248  32.923  13.435
38958W        W  324  18.176  26.193   1.372
38959W        W  325  43.775  13.175  11.921
38960W        W  326  20.538  21.241  10.518
38961W        W  327   7.743  10.211   0.846
38962W        W  328  23.081   1.412  14.370
38963W        W  329   8.234   6.793   2.753
38964W        W  330  24.551   1.347   0.938
38965W        W  331  23.241  43.456  14.814
38966W        W  332   1.311  14.298  13.415
38967W        W  333  32.892  36.534   2.756
38968W        W  334  28.980  29.113  10.411
38969W        W  335  32.588  38.970   3.644
38970W        W  336   6.208   6.374   1.217
38971W        W  337  24.151  39.378  14.491
38972W        W  338  33.029  34.019   2.309
38973W        W  339  19.733  26.200  13.867
38974W        W  340  27.174  31.453  11.065
38975W        W  341  35.874  13.191   3.745
38976W        W  342  25.041  27.645  11.926
38977W        W  343   3.367  37.051  11.924
38978W        W  344  28.468  15.671  10.638
38979W        W  345   1.860   3.299  14.801
38980W        W  346   1.418  30.546   1.930
38981W        W  347  27.183   8.713   3.368
38982W        W  348  17.720  17.643  12.908
38983W        W  349  43.319  21.096  12.091
38984W        W  350  38.918   0.278  11.436
38985W        W  351  27.552  23.184  13.875
38986W        W  352  19.259  39.909   1.342
38987W        W  353  18.638  26.993   2.181
38988W        W  354  16.748  26.593   4.287
38989W        W  355  17.669  32.499  13.452
38990W        W  356   7.310  21.050  10.914
38991W        W  357  32.040  25.711  12.951
38992W        W  358  19.238  35.079  10.450
38993W        W  359  37.498   6.844  14.351
38994W        W  360  29.056  44.961   4.226
38995W        W  361  20.059   7.295   9.936
38996W        W  362  42.834  25.484   3.295
38997W        W  363  15.157  33.621  14.890
38998W        W  364   8.342  15.657   0.762
38999W        W  365  13.345  22.635  10.996
39000W        W  366  25.212  42.327  11.959
39001W        W  367  25.551  29.572   2.697
39002W        W  368  11.339  32.463  11.603
39003W        W  369  10.861  16.230  10.956
39004W        W  370  34.959   7.273  11.502
39005W        W  371  42.347  34.989   2.877
39006W        W  372  40.487   6.308  13.369
39007W        W  373  26.070   0.945   3.746
39008W        W  374   1.243  43.317   4.678
39009W        W  375  13.237   9.381  14.351
39010W        W  376  41.351   2.471   3.822
39011W        W  377  40.975   4.742   0.270
39012W        W  378  40.019  31.925   1.806
39013W        W  379  41.337  11.350   0.791
39014W        W  380  37.533  44.483   1.873
39015W        W  381   4.746  29.505   5.610
39016W        W  382  38.836   1.733  12.360
39017W        W  383  12.850  21.213   3.297
39018W        W  384  22.149  41.404   2.859
39019W        W  385  14.194  35.929  12.424
39020W        W  386  33.091  28.517   4.607
39021W        W  387  33.458  12.705   1.740
39022W        W  388  28.623  33.526  11.983
39023W        W  389   3.339  19.147   4.183
39024W        W  390   5.854   8.349   2.812
39025W        W  391  30.122   4.905  14.359
39026W        W  392   2.761  44.473   4.772
39027W        W  393   7.699  25.064  12.963
39028W        W  394  38.432  11.753  13.424
39029W        W  395  30.155  15.144  11.110
39030W        W  396   0.887  34.457   1.290
39031W        W  397  11.629   3.885   3.284
39032W        W  398   0.414  42.011  14.871
39033W        W  399  38.860  42.329  10.625
39034W        W  400  36.001   3.433   0.824
39035W        W  401  29.165  44.273   2.263
39036W        W  402  16.218  17.789  11.024
39037W        W  403  13.281   1.925  14.940
39038W        W  404  34.598  41.789   5.245
39039W        W  405  22.215   3.375   1.761
39040W        W  406  43.987   4.785   4.168
39041W        W  407  42.454  29.595  11.865
39042W        W  408   9.200  24.104  10.474
39043W        W  409   6.240  17.790   0.874
39044W        W  410   1.387  14.624   4.162
39045W        W  411   2.735  19.152  13.008
39046W        W  412  17.078  27.948   1.809
39047W        W  413  32.032  38.906  12.087
39048W        W  414   4.424  43.460   2.360
39049W        W  415  27.516  41.427   0.307
39050W        W  416  15.657   8.705   3.723
39051W        W  417  41.454   6.374   2.801
39052W        W  418  16.236  35.550  10.581
39053W        W  419  13.205   4.789  10.411
39054W        W  420  43.451  18.222   2.743
39055W        W  421  23.021  12.255   2.835
39056W        W  422  41.419  22.540  10.466
39057W        W  423  24.588  33.424  14.981
39058W        W  424  40.433   7.350   0.305
39059W        W  425  22.699  24.993  12.405
39060W        W  426  33.981  20.233   2.211
39061W        W  427   2.881  27.115   1.245
39062W        W  428   3.375  20.747   0.389
39063W        W  429  15.632   5.291   1.290
39064W        W  430  13.277   6.920  14.455
39065W        W  431  41.428  19.730  14.857
39066W        W  432  38.341  21.665   4.281
39067W        W  433  42.787  31.508   2.324
39068W        W  434  17.258   8.725   2.379
39069W        W  435   0.300  31.951  12.570
39070W        W  436  12.688  44.984   3.808
39071W        W  437  39.414  37.547   1.337
39072W        W  438   0.826  40.341   4.653
39073W        W  439  16.649  41.943   2.385
39074W        W  440  41.470  11.662   2.807
39075W        W  441  21.683  39.877   0.311
39076W        W  442  11.649  33.000   4.218
39077W        W  443  26.157  38.893  13.009
39078W        W  444   5.732  27.963  12.427
39079W        W  445   4.316  26.664   1.302
39080W        W  446  39.954   2.418   0.251
39081W        W  447  42.997  18.222   3.211
39082W        W  448  24.628  21.229  14.024
39083W        W  449   2.729  44.878  14.350
39084W        W  450  23.652  20.175   4.599
39085W        W  451  31.035  14.208  10.528
39086W        W  452  40.304   7.908   0.254
39087W        W  453  38.972  30.917   4.348
39088W        W  454  22.564  34.598   0.471
39089W        W  455  39.841   4.350   4.811
39090W        W  456   5.333  23.638  12.062
39091W        W  457  14.127  29.140  14.465
39092W        W  458  21.039  23.231   3.696
39093W        W  459  29.614  40.360  14.849
39094W        W  460   7.334  35.491  12.887
39095W        W  461  26.514  41.477   1.740
39096W        W  462  31.607  40.476   2.369
39097W        W  463  39.992  32.622  13.495
39098W        W  464  35.491  29.455  13.927
39099W        W  465   6.711  28.968  12.913
39100W        W  466  13.769  16.726  10.927
39101W        W  467  27.649  12.828   1.401
39102W        W  468  44.498  21.594   0.412
39103W        W  469  41.937  14.254   3.161
39104W        W  470  20.751  24.999  14.814
39105W        W  471  26.638   4.799  14.488
39106W        W  472  25.142  10.706  11.978
39107W        W  473  18.152  31.018   0.270
39108W        W  474  31.418  41.301   1.228
39109W        W  475  33.547  11.172   2.268
39110W        W  476  42.457  37.876   4.756
39111W        W  477  28.997  25.604   4.836
39112W        W  478  15.795   6.231   1.842
39113W        W  479  17.745  31.453  10.529
39114W        W  480  41.534   6.288  13.333
39115W        W  481   4.937   4.368  12.554
39116W        W  482  27.477   5.423   1.409
39117W        W  483  42.918  26.513  11.928
39118W        W  484  18.644   3.813   0.378
39119W        W  485  11.675  22.707   2.855
39120W        W  486  32.045  24.057   4.776
39121W        W  487  28.645  22.596  13.538
39122W        W  488  35.067  18.240  14.498
39123W        W  489   8.898  42.007  14.026
39124W        W  490  40.309  10.870   4.663
39125W        W  491  28.668  25.002  13.035
39126W        W  492  38.914  31.406   1.429
39127W        W  493   2.304  15.295  10.895
39128W        W  494  32.430  25.471   3.739
39129W        W  495  42.332  26.632  10.988
39130W        W  496  31.504  12.822  11.954
39131W        W  497  27.077  20.742   3.702
39132W        W  498  18.203  38.342   0.738
39133W        W  499   4.292   8.253  12.849
39134W        W  500  25.593  26.166  13.448
39135W        W  501  15.109  14.246  13.988
39136W        W  502  19.261  10.705  14.788
39137W        W  503   8.762  10.811   1.342
39138W        W  504  15.256  29.994  14.479
39139W        W  505  27.969  15.095  14.007
39140W        W  506  10.772  17.082   0.799
39141W        W  507   3.731  44.308  12.914
39142W        W  508  15.700  26.032   1.266
39143W        W  509  33.602  19.652   2.854
39144W        W  510  41.461  28.080  10.492
39145W        W  511   2.382   5.391   0.958
39146W        W  512  30.132  39.929   2.401
39147W        W  513  27.966  44.368  10.025
39148W        W  514  43.935  28.064   1.262
39149W        W  515  31.030   6.293   1.423
39150W        W  516  10.807  17.679  14.478
39151W        W  517  11.848  20.633  14.353
39152W        W  518  14.751  11.367   4.320
39153W        W  519  28.980   4.274   0.922
39154W        W  520  28.932  18.110  13.896
39155W        W  521  10.831  13.826  12.033
39156W        W  522  14.266  32.025   0.469
39157W        W  523  43.433  12.277   4.282
39158W        W  524  29.594  44.392  11.521
39159W        W  525  24.073  29.944   4.349
39160W        W  526   3.890  34.115  11.983
39161W        W  527  20.618   0.949  13.368
39162W        W  528   6.412  40.311  14.515
39163W        W  529  40.510  32.028   1.270
39164W        W  530  22.653   7.308   1.245
39165W        W  531  21.100   7.726  12.538
39166W        W  532   7.385  18.667   4.271
39167W        W  533  17.600  38.348  11.021
39168W        W  534  11.756  28.116   1.360
39169W        W  535  19.657  20.619   1.881
39170W        W  536  15.592  15.667  11.461
39171W        W  537  28.537  35.056  12.391
39172W        W  538  21.099  43.442   3.176
39173W        W  539  28.982  42.990   3.709
39174W        W  540  31.915  37.926   2.363
39175W        W  541  21.076  25.129   1.370
39176W        W  542  10.319   1.472   2.334
39177W        W  543  34.607  13.643   0.455
39178W        W  544  33.552  42.369   3.823
39179W        W  545  15.671  38.454   2.852
39180W        W  546  39.994  44.480   4.153
39181W        W  547  42.863  21.198  13.871
39182W        W  548   6.420  37.857   2.272
39183W        W  549  36.358   8.771  10.469
39184W        W  550   7.726  39.825  11.486
39185W        W  551  17.124  24.594  11.961
39186W        W  552  12.334  36.023   2.192
39187W        W  553  14.320  10.637   1.334
39188W        W  554  40.022   4.780   1.763
39189W        W  555  34.443   1.403   3.709
39190W        W  556  35.413  30.637   3.792
39191W        W  557  22.520  14.686   0.471
39192W        W  558   2.942   1.291   3.353
39193W        W  559  39.996  19.153  14.835
39194W        W  560  23.194  27.486   9.987
39195W        W  561  35.447  38.836   4.729
39196W        W  562  38.476  29.443   0.395
39197W        W  563   3.348  11.633  12.447
39198W        W  564  14.731  41.360   3.290
39199W        W  565  19.046  22.071  13.049
39200W        W  566   1.940   9.750   4.611
39201W        W  567  43.847  11.827  14.288
39202W        W  568  11.770  13.796  10.455
39203W        W  569   0.471  37.927  12.977
39204W        W  570  25.692  38.357  13.533
39205W        W  571  12.751  16.716  14.021
39206W        W  572  18.555  26.955  11.403
39207W        W  573  26.021  37.000  14.879
39208W        W  574  27.942  12.356   1.933
39209W        W  575  19.176  38.396   0.258
39210W        W  576   4.786  44.318   0.772
39211W        W  577   3.753  11.315  11.894
39212W        W  578  40.802  37.925   3.646
39213W        W  579  37.988   3.775  13.826
39214W        W  580  30.580  12.634   2.816
39215W        W  581  22.030  31.116   0.314
39216W        W  582  44.804  19.632  12.512
39217W        W  583  10.170  39.523  10.925
39218W        W  584  16.638  37.544  12.969
39219W        W  585  36.505   0.359   4.604
39220W        W  586  27.158  13.702   4.812
39221W        W  587  33.577  38.927  14.467
39222W        W  588  16.719  13.806   0.775
39223W        W  589  33.432   6.783   0.276
39224W        W  590  11.350  28.028   1.739
39225W        W  591  18.677   8.398   4.637
39226W        W  592  21.536  14.743   4.662
39227W        W  593  41.926  35.535  12.443
39228W        W  594  41.924  19.707  13.467
39229W        W  595  22.703  27.612  13.899
39230W        W  596  42.917   2.928  13.036
39231W        W  597  13.617  29.937  13.464
39232W        W  598  14.807  32.040   1.915
39233W        W  599  38.957  12.686  10.146
39234W        W  600  44.489  39.435   3.205
39235W        W  601  11.222  41.334   4.671
39236W        W  602   6.319  41.811  12.091
39237W        W  603  12.284  44.373  10.097
39238W        W  604  31.896  16.150  12.956
39239W        W  605  29.935   7.208   2.350
39240W        W  606  31.623  13.296  11.127
39241W        W  607  30.519  26.159  14.399
39242W        W  608  34.385  18.550  11.873
39243W        W  609   2.359  20.103  13.852
39244W        W  610  13.752  38.384  14.906
39245W        W  611  36.476  27.087  12.527
39246W        W  612  31.640  12.736  14.949
39247W        W  613  16.267  40.402   2.252
39248W        W  614   6.784  24.712   3.346
39249W        W  615   0.400   3.285  12.494
39250W        W  616  18.549  41.917  14.835
39251W        W  617  40.375  17.135   0.756
39252W        W  618  39.999  24.710  12.391
39253W        W  619   7.325  43.778  12.420
39254W        W  620  40.845  27.123  12.412
39255W        W  621  29.660  29.013  10.141
39256W        W  622  27.645  37.408  11.951
39257W        W  623  19.124   8.872   2.865
39258W        W  624  24.530  15.613   2.727
39259W        W  625  10.251  11.319  11.081
39260W        W  626  12.144   4.309  14.910
39261W        W  627  30.943  19.111  12.439
39262W        W  628  43.990  44.913  12.444
39263W        W  629  26.054  34.917  11.438
39264W        W  630  28.515  22.171   0.953
39265W        W  631  23.583  24.126  13.488
39266W        W  632  27.661  43.452   3.367
39267W        W  633  16.077  10.643  12.486
39268W        W  634   1.765   2.756  13.038
39269W        W  635  40.462   7.717   1.719
39270W        W  636   0.274  20.684   0.845
39271W        W  637  26.203  32.629  12.064
39272W        W  638  17.129  33.445   5.131
39273W        W  639  32.903  36.566  10.611
39274W        W  640  10.725  25.534   1.291
39275W        W  641  20.129  31.942  12.364
39276W        W  642   7.907  14.243   0.850
39277W        W  643   7.822  10.366  10.465
39278W        W  644  21.590  41.941   2.219
39279W        W  645  40.543  19.585   5.214
39280W        W  646  18.170  30.084   0.758
39281W        W  647  21.068  11.361   3.383
39282W        W  648  37.070  13.105   3.361
39283W        W  649  40.955  30.448   0.732
39284W        W  650  44.458  14.218  11.884
39285W        W  651   2.403  14.650   1.698
39286W        W  652  14.752  28.959  12.345
39287W        W  653  36.562  36.996   4.210
39288W        W  654  26.044  25.970  12.424
39289W        W  655  44.963  34.966  12.429
39290W        W  656   3.246  44.957   0.310
39291W        W  657  22.233  18.244  11.881
39292W        W  658  39.513  26.151  13.355
39293W        W  659  38.555  43.850  14.277
39294W        W  660  14.329  38.390  11.445
39295W        W  661  17.762  12.841  13.843
39296W        W  662  41.442  15.145   4.769
39297W        W  663  37.022   0.780  11.922
39298W        W  664  21.565  29.443   0.313
39299W        W  665  14.295  34.372   0.406
39300W        W  666  38.325  43.404  12.929
39301W        W  667  28.156  16.631   1.348
39302W        W  668  25.470   1.863   4.166
39303W        W  669  16.218  19.749  12.024
39304W        W  670  42.883   8.713   2.818
39305W        W  671   0.351  38.002  14.337
39306W        W  672  22.225  39.001   3.746
39307W        W  673  39.540  27.946  14.868
39308W        W  674  16.118  39.344  14.322
39309W        W  675  18.630  14.663   2.696
39310W        W  676  44.402  40.024  13.021
39311W        W  677  44.274  42.793   3.667
39312W        W  678  28.471  13.787   4.216
39313W        W  679  11.328  28.099  13.029
39314W        W  680   4.896  27.599   0.837
39315W        W  681  16.082  24.043   4.242
39316W        W  682  15.784  27.037  11.037
39317W        W  683  13.767  43.414   1.724
39318W        W  684  18.054  10.360   0.301
39319W        W  685  10.748  32.508  13.800
39320W        W  686  26.670  33.969   0.359
39321W        W  687  31.953  36.024  10.084
39322W        W  688  40.439  21.112  11.918
39323W        W  689  18.623   6.373   1.831
39324W        W  690   4.346  37.065  13.792
39325W        W  691  38.386   1.926  11.997
39326W        W  692   0.926   2.434   2.375
39327W        W  693  43.467  26.573  10.889
39328W        W  694   2.860   7.761  14.505
39329W        W  695   8.656  23.586   0.730
39330W        W  696  16.596  15.307   1.714
39331W        W  697  33.898   4.277  11.591
39332W        W  698  26.586   7.318  12.022
39333W        W  699  38.520   9.195   3.249
39334W        W  700  40.053  34.377   1.352
39335W        W  701   4.890  26.055   4.669
39336W        W  702  44.861   8.673  10.530
39337W        W  703  31.532  29.959   4.194
39338W        W  704  26.549  19.691  13.056
39339W        W  705  44.960  24.213  13.434
39340W        W  706  25.118  19.574   1.317
39341W        W  707  19.766   9.152   3.845
39342W        W  708   0.850  29.572  14.337
39343W        W  709  34.959  30.039   1.401
39344W        W  710  19.726  12.337  12.935
39345W        W  711  12.782   5.693   0.454
39346W        W  712  29.524  43.970   1.423
39347W        W  713  43.840  36.349  14.950
39348W        W  714  28.489  23.620  12.480
39349W        W  715  33.058  30.062   4.165
39350W        W  716  43.768  19.675   4.650
39351W        W  717   2.780   1.447  13.351
39352W        W  718   5.365   6.350  14.932
39353W        W  719  36.576  25.086   4.605
39354W        W  720  41.975   3.410  13.902
39355W        W  721   1.451  10.806   4.299
39356W        W  722   1.820   7.739  13.993
39357W        W  723  10.242  33.076   3.379
39358W        W  724  36.985  37.855   4.131
39359W        W  725  43.991  42.805   2.767
39360W        W  726  15.728  40.508  11.100
39361W        W  727  13.752  21.143  11.040
39362W        W  728  16.765   2.312  12.023
39363W        W  729  44.851  34.468   0.956
39364W        W  730  32.971  13.287   4.229
39365W        W  731  22.130  32.501  14.991
39366W        W  732  41.028  27.467  11.388
39367W        W  733  37.497   8.804  10.575
39368W        W  734   6.839  36.862  13.309
39369W        W  735  12.119  22.613   0.312
39370W        W  736  16.797  22.698  13.012
39371W        W  737   3.955   2.904  12.360
39372W        W  738  33.086  16.768  14.758
39373W        W  739  42.505  42.853  11.419
39374W        W  740  44.880  22.246  10.978
39375W        W  741  32.085  13.158   0.953
39376W        W  742  42.477   7.799  11.121
39377W        W  743  34.110  27.466   2.397
39378W        W  744  18.699  44.414   5.244
39379W        W  745  26.472  21.519   1.406
39380W        W  746  27.100  36.550   3.829
39381W        W  747  23.554  14.299  12.024
39382W        W  748   7.183  42.474   2.855
39383W        W  749  17.799  13.709   0.246
39384W        W  750  44.388  12.684   1.301
39385W        W  751  33.939   4.322  10.516
39386W        W  752  11.144  35.091  10.919
39387W        W  753   3.834  42.979  13.054
39388W        W  754   8.240   5.237  11.099
39389W        W  755  26.981   5.855  11.003
39390W        W  756  39.318   1.282  14.907
39391W        W  757  17.158  35.541   1.898
39392W        W  758  41.035  29.168  10.640
39393W        W  759  19.153   3.932   3.643
39394W        W  760  10.866   6.218  11.081
39395W        W  761  37.843  36.526   4.734
39396W        W  762  16.686  27.126  12.842
39397W        W  763   0.344  19.063   2.666
39398W        W  764  44.943  25.534   3.253
39399W        W  765   4.879  25.970   4.284
39400W        W  766  35.072  13.844  13.370
39401W        W  767  32.991  41.890  10.628
39402W        W  768  26.953   5.926  14.376
39403W        W  769  15.753   9.355  10.574
39404W        W  770  35.003   8.372  11.079
39405W        W  771  35.867  33.511   4.641
39406W        W  772   0.981  31.035  11.865
39407W        W  773  17.731  31.583  13.922
39408W        W  774  38.019  42.514   1.415
39409W        W  775   5.760  21.161  13.061
39410W        W  776  20.214  13.129   3.845
39411W        W  777  23.016  36.498  14.956
39412W        W  778   1.885  29.128   2.289
39413W        W  779  35.477  16.722  14.990
39414W        W  780  41.796  20.695   0.351
39415W        W  781   4.400  25.012   3.651
39416W        W  782  40.538   0.779  11.596
39417W        W  783  12.680  32.576  13.038
39418W        W  784  26.691   2.903  11.924
39419W        W  785  31.488  18.228   0.830
39420W        W  786   2.370  17.642   3.777
39421W        W  787  36.584  16.119  10.445
39422W        W  788  28.458  35.082   4.253
39423W        W  789  20.716  43.323   3.320
39424W        W  790   6.768  44.976  13.966
39425W        W  791   3.359   4.350  11.508
39426W        W  792  40.511   2.965   2.207
39427W        W  793  15.777  14.289   3.151
39428W        W  794  44.477  24.503   2.729
39429W        W  795   1.779  30.146   4.348
39430W        W  796   4.938  24.120  12.097
39431W        W  797  33.455  32.460  10.635
39432W        W  798   7.296  39.957  11.970
39433W        W  799  38.428  30.128   4.118
39434W        W  800  25.100   5.801  12.996
39435W        W  801   4.437  43.418  13.922
39436W        W  802  26.676  10.278  14.769
39437W        W  803   7.332  35.925  11.121
39438W        W  804  15.592  19.244   1.300
39439W        W  805  30.601  31.594   2.846
39440W        W  806   5.217   6.418  10.572
39441W        W  807   8.889  14.824  14.977
39442W        W  808  23.543   5.925   0.852
39443W        W  809   3.296  23.060   0.836
39444W        W  810  18.230  42.857  13.543
39445W        W  811   8.693  28.028   3.645
39446W        W  812  32.425  23.014   2.771
39447W        W  813  17.262   6.321   4.622
39448W        W  814  18.562  31.525   2.351
39449W        W  815   7.196  13.671   1.716
39450W        W  816  38.900   1.431  14.899
39451W        W  817   6.343  21.592   3.171
39452W        W  818  38.989  21.649   4.232
39453W        W  819  25.636  12.125   0.910
39454W        W  820  28.175  24.643  14.387
39455W        W  821  20.230   0.947  13.503
39456W        W  822   8.711  41.356   3.253
39457W        W  823  21.577  28.547  10.477
39458W        W  824  17.749  34.984  11.376
39459W        W  825  22.613   6.771   2.329
39460W        W  826   1.933   0.459   3.153
39461W        W  827  14.302   3.873   1.887
39462W        W  828  27.193  12.254  13.912
39463W        W  829  27.051  11.129   3.309
39464W        W  830  38.950  32.435  12.394
39465W        W  831  28.021  15.086  11.961
39466W        W  832  20.741  13.749  12.872
39467W        W  833  41.352  28.653   1.251
39468W        W  834  24.988  16.290  12.920
39469W        W  835  34.407  39.021   5.303
39470W        W  836  40.432  30.561   5.093
39471W        W  837  14.653   0.298   4.663
39472W        W  838  25.656  39.353  14.295
39473W        W  839  21.261  27.625   0.398
39474W        W  840   6.824  32.573  14.929
39475W        W  841  38.827  32.628   2.178
39476W        W  842  44.963  27.116  11.420
39477W        W  843  14.208  41.458   3.263
39478W        W  844  22.140  31.507  11.580
39479W        W  845   2.951   9.703   4.724
39480W        W  846   6.871  42.522   2.322
39481W        W  847   5.394  22.678  13.882
39482W        W  848  28.488  19.769  11.003
39483W        W  849  14.320  29.031   1.448
39484W        W  850  32.047   2.818   0.958
39485W        W  851  35.567  36.882  11.393
39486W        W  852  43.392   3.365   2.358
39487W        W  853  39.981  13.320   0.933
39488W        W  854   6.729  14.226  10.928
39489W        W  855  35.015  12.630  14.329
39490W        W  856  10.657  10.808   0.763
39491W        W  857  31.053  16.615  11.599
39492W        W  858  42.299  16.281   0.442
39493W        W  859  35.532  26.037  14.984
39494W        W  860   2.397  34.939  11.944
39495W        W  861   9.308  23.528   1.818
39496W        W  862  24.093  19.109   3.255
39497W        W  863  24.212  32.939   1.265
39498W        W  864   2.298  38.983   3.148
39499W        W  865  22.243  37.487  12.040
39500W        W  866  36.592   6.275   0.381
39501W        W  867  30.133  20.085  14.980
39502W        W  868   2.803   0.866   3.710
39503W        W  869  22.042  15.747  13.037
39504W        W  870  27.186   8.283   1.793
39505W        W  871  25.489  12.821  12.365
39506W        W  872  39.541  21.246   1.219
39507W        W  873  42.911   9.888   2.763
39508W        W  874   3.362  39.013  14.448
39509W        W  875   3.772  14.692   3.659
39510W        W  876  35.577  13.263   0.949
39511W        W  877  16.727  42.333  14.489
39512W        W  878  31.514  22.500  11.562
39513W        W  879  40.014  15.311   0.434
39514W        W  880   9.717  39.331   1.279
39515W        W  881  38.476   4.430  13.359
39516W        W  882  32.399  31.598   2.779
39517W        W  883  37.447  26.527  12.903
39518W        W  884  37.560  38.034   3.258
39519W        W  885  36.889  32.986   3.246
39520W        W  886  15.217  18.716  12.872
39521W        W  887  14.835  33.487   1.410
39522W        W  888   0.249  15.186  10.893
39523W        W  889  24.564  14.165  14.343
39524W        W  890  35.477   8.161   4.742
39525W        W  891  36.563  28.447   3.200
39526W        W  892  21.233  38.568   0.802
39527W        W  893   7.310   5.374  12.556
39528W        W  894  24.052   7.260  10.902
39529W        W  895  41.535  18.668   1.245
39530W        W  896  25.053  24.076  12.928
39531W        W  897  22.673  38.425  14.834
39532W        W  898  27.685   7.682   1.246
39533W        W  899  27.972  29.101  10.548
39534W        W  900  25.687   3.884  11.921
39535W        W  901  28.101  12.288  10.578
39536W        W  902  33.014  11.867   1.908
39537W        W  903  28.175  17.109  13.815
39538W        W  904  26.467  23.529   2.784
39539W        W  905  37.894  37.480   0.853
39540W        W  906  24.543  38.042   3.267
39541W        W  907  27.029  22.054  10.547
39542W        W  908  42.833  34.035   4.162
39543W        W  909   8.192   7.276   3.293
39544W        W  910  40.034  21.631  11.522
39545W        W  911  31.501   5.306  11.518
39546W        W  912  34.112  38.061   3.672
39547W        W  913  44.794  35.892   3.347
39548W        W  914  37.561  44.262  12.973
39549W        W  915  41.835  22.599   3.185
39550W        W  916  35.976  16.305  13.546
39551W        W  917   7.406  20.096   2.680
39552W        W  918  27.527  34.980  12.885
39553W        W  919   2.312  35.582  11.456
39554W        W  920  21.624   5.399   3.761
39555W        W  921   7.341  37.922  12.368
39556W        W  922   4.716  12.341   4.738
39557W        W  923  29.521  10.262   2.721
39558W        W  924  35.084  24.150  12.950
39559W        W  925  29.936   5.820   3.839
39560W        W  926  26.164  32.053  11.953
39561W        W  927  27.600  13.641  10.920
39562W        W  928  16.812  18.138  14.782
39563W        W  929  30.542  16.596  13.444
39564W        W  930  28.497  37.049  12.024
39565W        W  931  35.453  32.961  13.029
39566W        W  932   6.279  28.959  12.083
39567W        W  933  21.562  40.525  13.377
39568W        W  934  17.120  15.669  14.380
39569W        W  935  39.967  12.819  10.543
39570W        W  936  39.053  18.565   3.741
39571W        W  937  32.026  18.673  13.354
39572W        W  938  28.120   1.761  10.430
39573W        W  939   6.251  24.513   3.192
39574W        W  940   4.449  24.154  13.936
39575W        W  941   1.449  29.497  10.632
39576W        W  942  27.983  38.894   4.318
39577W        W  943   2.872   3.920  13.815
39578W        W  944   1.390  28.119  13.417
39579W        W  945  41.833  29.491   0.788
39580W        W  946  26.035  32.391   3.202
39581W        W  947  31.537  42.841  12.368
39582W        W  948  23.120  27.592   9.592
39583W        W  949  42.920  13.253  11.064
39584W        W  950  10.264  34.014  14.866
39585W        W  951  14.264   9.848   1.772
39586W        W  952  26.553  32.616  11.468
39587W        W  953  35.929   3.245  12.919
39588W        W  954  36.380  18.571   1.721
39589W        W  955   8.892  25.600  10.438
39590W        W  956  43.886  26.161  11.858
39591W        W  957  26.042   1.394  13.343
39592W        W  958  32.417  29.922   1.770
39593W        W  959  34.881  40.029   0.381
39594W        W  960  23.997   3.356   1.735
39595W        W  961   8.887  19.675   5.305
39596W        W  962   7.774  25.979  11.901
39597W        W  963  44.487  41.856   3.162
39598W        W  964  36.010  26.954   4.198
39599W        W  965  12.117  31.422  14.981
39600W        W  966   0.467  21.035  12.525
39601W        W  967  13.243  34.120  12.459
39602W        W  968  19.183  25.536  14.941
39603W        W  969   7.209   8.718   3.855
39604W        W  970  27.493   1.761   2.238
39605W        W  971  16.165  27.505   1.412
39606W        W  972  26.044  10.861  12.476
39607W        W  973  39.967  37.542   4.352
39608W        W  974  20.664  38.539  11.883
39609W        W  975  39.470   0.294   2.234
39610W        W  976   2.926  43.896   4.684
39611W        W  977  31.009  13.231  14.029
39612W        W  978  15.721  19.136   0.443
39613W        W  979  20.652   7.194  11.394
39614W        W  980  12.714  20.056   4.328
39615W        W  981   5.214  24.198  11.526
39616W        W  982  28.659  23.236  12.021
39617W        W  983  29.103  23.622   3.276
39618W        W  984  27.497   7.837   1.781
39619W        W  985  19.752  29.542   0.359
39620W        W  986   9.825  10.667  11.058
39621W        W  987  44.929  27.472  11.045
39622W        W  988   8.362  35.529   1.730
39623W        W  989  28.168  44.901  13.843
39624W        W  990  19.250  35.596  11.503
39625W        W  991  39.841  38.326  12.510
39626W        W  992  10.760   3.287  10.097
39627W        W  993  28.444  20.212   4.287
39628W        W  994  32.003  34.914   5.125
39629W        W  995  16.743   2.383   0.310
39630W        W  996   6.329   2.355   4.807
39631W        W  997   2.420  35.537  10.455
39632W        W  998   2.311   0.790   1.889
39633W        W  999  12.229  42.424   3.380
39634W        W 1000   0.910  11.154   2.273
39635W        W 1001  33.986  29.571   3.698
39636W        W 1002  23.683  21.558  13.352
39637W        W 1003   1.395   9.814  10.622
39638W        W 1004  40.946  33.094  13.319
39639W        W 1005  37.915  20.092   0.474
39640W        W 1006   4.733  14.261   4.153
39641W        W 1007  29.527  18.229  10.546
39642W        W 1008  24.223  12.350   3.209
39643W        W 1009  27.605   7.185  13.376
39644W        W 1010  39.415  15.217  12.908
39645W        W 1011  21.141  26.170   3.641
39646W        W 1012   5.735  23.985  14.516
39647W        W 1013   7.375  37.034  12.854
39648W        W 1014  23.631  26.585  13.046
39649W        W 1015  25.493  18.278   3.702
39650W        W 1016   7.303   7.901  14.014
39651W        W 1017   5.902  29.040  11.606
39652W        W 1018   2.382  37.454   1.776
39653W        W 1019  31.447  21.126   5.228
39654W        W 1020  15.675  40.878   4.155
39655W        W 1021  28.536   6.740   1.789
39656W        W 1022  29.062  27.534   4.789
39657W        W 1023  24.083   1.930   5.256
39658W        W 1024  43.892   4.802   2.232
39659W        W 1025  43.488   6.270  12.494
39660W        W 1026  31.997  24.003  10.935
39661W        W 1027  14.759  20.713  10.520
39662W        W 1028  12.247  20.607   4.737
39663W        W 1029   6.293   2.773  10.019
39664W        W 1030  28.076  15.298   3.335
39665W        W 1031  43.836  24.608   2.188
39666W        W 1032  13.647  14.194   0.789
39667W        W 1033  33.589   4.713  13.447
39668W        W 1034  25.967  20.169   2.695
39669W        W 1035   1.321  26.181  12.025
39670W        W 1036  34.469   5.831  13.842
39671W        W 1037  19.619  39.455  13.374
39672W        W 1038  16.179  30.010  12.565
39673W        W 1039  31.985  13.194   2.237
39674W        W 1040  29.150   8.218  11.480
39675W        W 1041  33.940  26.199  12.031
39676W        W 1042  42.988   1.332   1.740
39677W        W 1043  39.919   8.847  11.992
39678W        W 1044  21.756  35.458   2.207
39679W        W 1045  20.523  18.080  12.527
39680W        W 1046  19.708   6.235   2.787
39681W        W 1047  26.983  10.653   2.665
39682W        W 1048  42.012  40.381  12.975
39683W        W 1049   9.673  12.708   1.409
39684W        W 1050   6.737  10.322  12.478
39685W        W 1051  34.084  38.006   1.328
39686W        W 1052   0.899  10.173  14.369
39687W        W 1053  35.372   8.888   4.626
39688W        W 1054  41.023  14.321  11.017
39689W        W 1055   0.866  25.676  11.907
39690W        W 1056  33.498  16.777  10.143
39691W        W 1057  25.477   5.760  12.484
39692W        W 1058  15.786  33.524   0.429
39693W        W 1059  20.121  24.008   1.328
39694W        W 1060  22.664  43.938  14.907
39695W        W 1061  33.109  34.609   1.396
39696W        W 1062  11.340  38.385  11.604
39697W        W 1063  21.228  15.783   1.335
39698W        W 1064   0.260  18.081   2.821
39699W        W 1065   0.778  25.042   0.298
39700W        W 1066  13.200   8.240  14.812
39701W        W 1067  26.070  10.251  12.386
39702W        W 1068   7.799  29.667  13.393
39703W        W 1069  37.838  13.278  14.774
39704W        W 1070   4.348   1.310   2.733
39705W        W 1071  41.958   6.903  13.884
39706W        W 1072  24.499  13.719   4.180
39707W        W 1073  44.779  13.654  13.041
39708W        W 1074  22.024  41.833   4.805
39709W        W 1075  31.639  13.790  14.370
39710W        W 1076  37.362  30.526   3.172
39711W        W 1077  33.536  30.448   2.391
39712W        W 1078   1.362   9.263   4.685
39713W        W 1079  34.112  39.985  11.594
39714W        W 1080  33.492  11.367  13.879
39715W        W 1081  21.072  26.544   3.668
39716W        W 1082  30.102  11.197  14.882
39717W        W 1083   3.326   8.891  14.862
39718W        W 1084  20.141  17.717  13.974
39719W        W 1085   9.829  40.016   3.828
39720W        W 1086   1.261   0.931   0.876
39721W        W 1087   4.809   8.707   0.483
39722W        W 1088  42.306  38.333   4.280
39723W        W 1089  28.586  24.671   3.340
39724W        W 1090  41.333   7.877  11.547
39725W        W 1091  43.294  13.832  10.930
39726W        W 1092   6.202  23.128  12.985
39727W        W 1093   6.427  12.724  11.044
39728W        W 1094   3.460  19.131  12.405
39729W        W 1095  28.118   2.402   1.795
39730W        W 1096  27.637  23.206   1.324
39731W        W 1097  42.360  40.812   1.838
39732W        W 1098  31.903  26.584   2.213
39733W        W 1099  33.001  19.672   1.792
39734W        W 1100  36.512  26.195  10.512
39735W        W 1101   0.387  33.088  13.898
39736W        W 1102  21.190  34.536   1.809
39737W        W 1103   4.846   3.866   1.845
39738W        W 1104  21.551   6.712  11.066
39739W        W 1105  37.882  39.364  11.451
39740W        W 1106   5.852  27.669  10.926
39741W        W 1107  13.330  19.058  14.491
39742W        W 1108  44.798   2.877   1.441
39743W        W 1109   9.250  31.987  12.564
39744W        W 1110   6.362  37.477   1.364
39745W        W 1111  42.512  44.825   0.308
39746W        W 1112  26.193  35.603   0.880
39747W        W 1113  41.832   1.347   1.314
39748W        W 1114  19.238  34.892   5.570
39749W        W 1115   7.680  43.978  11.014
39750W        W 1116  23.132  22.197   4.714
39751W        W 1117  42.975   0.804   0.836
39752W        W 1118  29.470  40.839   1.300
39753W        W 1119   4.926  16.073  13.828
39754W        W 1120  24.622  20.052   4.667
39755W        W 1121  40.845  43.388   2.335
39756W        W 1122  19.207  40.039  13.912
39757W        W 1123  23.613  31.990   3.153
39758W        W 1124  15.134  41.979   0.325
39759W        W 1125   8.295  21.674  11.089
39760W        W 1126  36.069   6.394  12.380
39761W        W 1127  43.772  35.937   4.232
39762W        W 1128  20.673  10.851  10.575
39763W        W 1129  34.037  11.365  12.532
39764W        W 1130  25.560   9.198   2.378
39765W        W 1131  15.739  10.742  10.473
39766W        W 1132  27.010  11.863  10.584
39767W        W 1133  29.136  25.962  13.011
39768W        W 1134  18.632  12.760   3.381
39769W        W 1135  39.321  23.585   0.966
39770W        W 1136  33.907  16.618   3.337
39771W        W 1137   4.372  24.048  13.316
39772W        W 1138  25.660  35.587  13.797
39773W        W 1139   9.160  30.935   1.312
39774W        W 1140   5.776  15.689  13.909
39775W        W 1141  32.473  33.926   1.816
39776W        W 1142  42.372   1.887   2.857
39777W        W 1143  41.026   4.877   0.727
39778W        W 1144  29.051  24.994  12.422
39779W        W 1145   1.368   8.189   2.768
39780W        W 1146  23.033  33.562  10.079
39781W        W 1147  17.063  19.251  11.523
39782W        W 1148  23.630   9.875   1.701
39783W        W 1149  14.226  29.522   2.256
39784W        W 1150  22.143  35.466   0.727
39785W        W 1151   9.729  19.208  10.949
39786W        W 1152   5.752  10.299   4.245
39787W        W 1153  43.429  36.012   0.279
39788W        W 1154  24.579  15.126   0.893
39789W        W 1155  25.219  41.806   0.904
39790W        W 1156  44.388  12.752  13.987
39791W        W 1157   7.752  29.967   2.845
39792W        W 1158  35.021  10.794  12.398
39793W        W 1159  31.559  20.635   3.361
39794W        W 1160  24.558   0.367  10.609
39795W        W 1161  13.844  35.868   0.872
39796W        W 1162  29.612  31.920   4.132
39797W        W 1163  11.640  20.190  10.476
39798W        W 1164  24.141   1.743   2.750
39799W        W 1165  12.216  16.584   4.742
39800W        W 1166   0.281   7.727  11.013
39801W        W 1167   5.909  17.583  13.487
39802W        W 1168  44.330  21.715  13.046
39803W        W 1169  36.935  12.149   1.414
39804W        W 1170  12.765  30.949  14.790
39805W        W 1171  34.498  43.872  13.862
39806W        W 1172  34.538  14.244   0.289
39807W        W 1173  20.656  30.652  10.612
39808W        W 1174  37.456  23.543  10.958
39809W        W 1175  34.388  15.122   3.765
39810W        W 1176   0.326  44.779  11.918
39811W        W 1177  43.472  22.048  12.063
39812W        W 1178   2.291  10.159  10.519
39813W        W 1179   5.313   9.159   0.950
39814W        W 1180   8.812  24.506  12.368
39815W        W 1181   2.892  37.932   3.675
39816W        W 1182  21.575  44.267  10.597
39817W        W 1183  14.684   0.879  13.865
39818W        W 1184  16.738  31.440   3.800
39819W        W 1185   6.721  15.689  12.937
39820W        W 1186  44.976  29.646   1.885
39821W        W 1187  38.509  44.976  12.481
39822W        W 1188  30.539  40.464  13.960
39823W        W 1189  20.769  17.296  12.869
39824W        W 1190  18.269  26.665   3.194
39825W        W 1191  18.178  17.689   4.821
39826W        W 1192  33.526   4.347   1.286
39827W        W 1193  25.477  44.480  12.489
39828W        W 1194  11.822  33.520   1.863
39829W        W 1195  20.552  19.563  12.832
39830W        W 1196  42.506  24.605   0.461
39831W        W 1197  16.786  16.092  13.401
39832W        W 1198  11.172   0.379  11.478
39833W        W 1199  22.124  29.008   3.213
39834W        W 1200   6.793  30.630   4.658
39835W        W 1201  21.654  32.523  11.526
39836W        W 1202  30.417  23.024  10.107
39837W        W 1203  41.423  37.927  10.574
39838W        W 1204  21.702  27.114   3.656
39839W        W 1205   2.305  27.971   2.221
39840W        W 1206  44.884  35.442   0.427
39841W        W 1207  37.014  34.562  10.437
39842W        W 1208  14.126   1.360   1.845
39843W        W 1209  34.972  23.649  13.835
39844W        W 1210  42.934  11.774   4.351
39845W        W 1211  22.599  24.090  11.885
39846W        W 1212  40.431   0.463   2.859
39847W        W 1213   7.846  39.319   1.783
39848W        W 1214  12.827  15.713  13.531
39849W        W 1215  24.640  12.245  13.967
39850W        W 1216  32.030  18.669  12.860
39851W        W 1217  17.272   3.744   3.653
39852W        W 1218  38.014  41.884   0.739
39853W        W 1219  18.570  17.143  14.772
39854W        W 1220  12.712  29.971   1.889
39855W        W 1221  29.429  44.834  12.824
39856W        W 1222  11.191  33.455  12.080
39857W        W 1223   6.893  17.780  10.130
39858W        W 1224  13.748   0.816   3.864
39859W        W 1225  29.124  40.936   4.724
39860W        W 1226  28.064  28.538  14.945
39861W        W 1227  13.184  14.797   3.785
39862W        W 1228  27.036  14.215   5.158
39863W        W 1229  39.018   4.786  11.932
39864W        W 1230  38.958  25.173   5.223
39865W        W 1231   4.304  19.578  13.977
39866W        W 1232  19.570  44.838  12.018
39867W        W 1233  19.612  40.829  11.081
39868W        W 1234  26.474  15.130  13.929
39869W        W 1235   7.347  32.528   3.847
39870W        W 1236  22.179  40.535  12.835
39871W        W 1237  32.936  32.516   1.891
39872W        W 1238  24.639  26.690  11.526
39873W        W 1239  11.767  15.677   1.436
39874W        W 1240   8.365  16.751   1.759
39875W        W 1241  28.999  42.489  12.999
39876W        W 1242  23.217  42.501  11.410
39877W        W 1243  11.720  29.013  11.463
39878W        W 1244  32.510  18.651   4.663
39879W        W 1245  37.581  22.197   4.243
39880W        W 1246  12.195   4.878  14.365
39881W        W 1247  35.894  17.268   2.204
39882W        W 1248  10.368  37.387   1.858
39883W        W 1249   9.159  28.439  13.339
39884W        W 1250  24.614  30.972  10.030
39885W        W 1251  15.706  32.435   0.457
39886W        W 1252  31.580  32.469  11.593
39887W        W 1253  21.053   9.260  12.030
39888W        W 1254  28.090  20.148   9.629
39889W        W 1255  26.070   5.309   4.114
39890W        W 1256  43.313  25.047  14.919
39891W        W 1257  25.525  39.356  14.018
39892W        W 1258   5.375   5.204  14.832
39893W        W 1259  24.489  37.414   4.683
39894W        W 1260  33.480  42.907  11.473
39895W        W 1261  35.903   8.837  12.926
39896W        W 1262  10.382   6.750   3.317
39897W        W 1263  40.329  12.316   4.286
39898W        W 1264  29.946  38.822  13.408
39899W        W 1265  16.194   2.832   3.795
39900W        W 1266  21.626  44.301   2.239
39901W        W 1267  21.114   2.233   2.774
39902W        W 1268  25.158  13.781   1.718
39903W        W 1269  14.820  26.104   0.389
39904W        W 1270   8.659  29.554  13.311
39905W        W 1271   4.886  35.873  13.392
39906W        W 1272  28.642   2.770   1.358
39907W        W 1273  17.248   7.403  14.956
39908W        W 1274  29.078   3.761  12.957
39909W        W 1275  27.637  30.526   2.281
39910W        W 1276   4.870  22.690   5.259
39911W        W 1277  18.279  25.005  11.127
39912W        W 1278  30.912  42.791  12.519
39913W        W 1279  15.720  30.972   0.445
39914W        W 1280   0.790  36.583  13.800
39915W        W 1281  33.972   4.925   2.840
39916W        W 1282   3.367  20.252  12.462
39917W        W 1283  35.976  18.225   4.706
39918W        W 1284  38.906  30.107  14.959
39919W        W 1285   8.181  39.843  13.909
39920W        W 1286  31.949   4.777  14.339
39921W        W 1287  29.539  44.879  10.510
39922W        W 1288   7.414   6.892   1.863
39923W        W 1289   3.223  19.259   3.660
39924W        W 1290  10.714  42.961   4.159
39925W        W 1291  19.213  21.213  13.371
39926W        W 1292  42.849  10.687  13.358
39927W        W 1293  31.077  19.094  14.391
39928W        W 1294  30.507  11.324  12.912
39929W        W 1295  21.536   5.913   3.274
39930W        W 1296  28.968  32.119  12.003
39931W        W 1297  17.246   0.255   0.326
39932W        W 1298  16.780   1.428   3.162
39933W        W 1299  26.971  18.168  11.426
39934W        W 1300  20.177  22.215   2.219
39935W        W 1301   9.834   5.815  10.481
39936W        W 1302   4.871  33.001  12.412
39937W        W 1303  43.945  37.884  14.354
39938W        W 1304  20.134   1.919   0.371
39939W        W 1305   5.875  35.423  14.882
39940W        W 1306   3.428   9.393   0.809
39941W        W 1307  28.087  44.859   0.765
39942W        W 1308  37.558  34.913  14.302
39943W        W 1309  23.618  36.841  12.873
39944W        W 1310  43.513  17.573  10.505
39945W        W 1311  43.840  26.143   2.821
39946W        W 1312  12.687  16.796   2.350
39947W        W 1313  38.871  30.039   0.431
39948W        W 1314  13.293  43.289  11.441
39949W        W 1315  13.761  18.072  13.425
39950W        W 1316  29.087  32.436  13.491
39951W        W 1317   5.258  13.822  12.969
39952W        W 1318  36.517  24.511  11.555
39953W        W 1319  27.614  27.976   2.273
39954W        W 1320  27.176   3.307   2.371
39955W        W 1321  32.050  23.692  13.400
39956W        W 1322  35.076   8.848   2.206
39957W        W 1323   5.367  32.026   1.930
39958W        W 1324  37.067  30.612  10.530
39959W        W 1325   0.402  44.823   3.804
39960W        W 1326   8.755  38.840   4.708
39961W        W 1327  37.509   3.745  12.060
39962W        W 1328  32.112  26.011   0.308
39963W        W 1329  38.380  39.396  10.534
39964W        W 1330  38.521  16.127  14.010
39965W        W 1331  13.252   5.718  14.397
39966W        W 1332  14.706  19.175   2.393
39967W        W 1333  39.544   8.805   4.826
39968W        W 1334  25.053   1.263  12.540
39969W        W 1335  38.372  32.965   0.953
39970W        W 1336   2.812  18.161   1.776
39971W        W 1337  32.939  25.648   3.340
39972W        W 1338  24.572  19.545   2.343
39973W        W 1339   8.201  19.113  12.430
39974W        W 1340  19.143  22.062  11.527
39975W        W 1341   6.862   7.200  11.432
39976W        W 1342  27.458   2.238  12.358
39977W        W 1343  11.784  39.994  10.568
39978W        W 1344  26.016  42.775   0.898
39979W        W 1345   6.255   2.871   0.964
39980W        W 1346   2.280   6.379  14.015
39981W        W 1347  26.541  37.037   0.479
39982W        W 1348   2.773  25.069   0.247
39983W        W 1349   7.669  22.534  10.033
39984W        W 1350  14.681  17.094   0.283
39985W        W 1351  24.182  18.212   4.310
39986W        W 1352  17.727   6.699  12.948
39987W        W 1353   7.741  35.424  10.404
39988W        W 1354  26.145  23.158  12.367
39989W        W 1355  44.411  30.631  10.463
39990W        W 1356  28.019  29.504   2.751
39991W        W 1357  16.629   1.789   2.864
39992W        W 1358  44.448   2.957   0.456
39993W        W 1359  32.949  15.761  14.905
39994W        W 1360  11.730  43.350  13.797
39995W        W 1361  41.473  11.759   1.220
39996W        W 1362  27.114  30.994   0.850
39997W        W 1363  32.612  26.200   4.144
39998W        W 1364  28.627  13.603   3.190
39999W        W 1365  21.259  20.032  13.838
40000W        W 1366  41.881   7.198  10.137
40001W        W 1367  32.102  15.274   1.356
40002W        W 1368  12.161   8.358   1.426
40003W        W 1369  28.977  21.105   4.314
40004W        W 1370  30.564  12.796   3.310
40005W        W 1371   1.734  31.621   3.382
40006W        W 1372  15.197  23.053  12.482
40007W        W 1373  29.996   2.240  12.550
40008W        W 1374  30.080  32.919   4.700
40009W        W 1375  18.703  38.957  10.614
40010W        W 1376   0.836   4.307   4.323
40011W        W 1377  28.930  23.725   4.272
40012W        W 1378  12.754   7.369   3.839
40013W        W 1379  38.440  14.775  13.854
40014W        W 1380  29.578  13.807   3.763
40015W        W 1381  32.444  16.243  12.959
40016W        W 1382  14.259  14.688  11.604
40017W        W 1383   5.912   8.832  14.788
40018W        W 1384  39.003  41.793  14.858
40019W        W 1385   2.907   3.272  13.048
40020W        W 1386  33.545  37.833  10.040
40021W        W 1387  34.111  12.151  12.966
40022W        W 1388  29.497   5.798  10.410
40023W        W 1389  18.618  32.513   1.417
40024W        W 1390  40.858  31.560   2.277
40025W        W 1391  35.479  30.135  14.979
40026W        W 1392  23.050  12.636   4.629
40027W        W 1393  35.406  41.368  14.341
40028W        W 1394  43.959  31.910   4.330
40029W        W 1395  10.829  30.090   4.246
40030W        W 1396  43.942  32.061  13.967
40031W        W 1397  15.085  42.377  13.038
40032W        W 1398  26.691  40.971  10.592
40033W        W 1399  24.054  41.321   0.399
40034W        W 1400  13.706  20.246  11.609
40035W        W 1401  42.320   9.856  11.031
40036W        W 1402  43.015   0.427  12.984
40037W        W 1403  11.296  20.059   2.351
40038W        W 1404  10.804   5.225  11.427
40039W        W 1405  25.522  34.985   0.392
40040W        W 1406  12.817  11.164  11.115
40041W        W 1407  41.900  24.524   3.740
40042W        W 1408  21.112  41.377   0.839
40043W        W 1409   1.788  27.553   2.366
40044W        W 1410  44.498  34.094  10.900
40045W        W 1411  27.181  22.590   2.183
40046W        W 1412  14.183  35.047   3.802
40047W        W 1413  13.196   0.414  11.109
40048W        W 1414  40.453  35.105  13.914
40049W        W 1415  18.089  32.554  10.601
40050W        W 1416  11.848  39.812   0.730
40051W        W 1417  32.010   4.342  12.408
40052W        W 1418   4.233  15.189   3.194
40053W        W 1419  42.402  13.328  13.485
40054W        W 1420  16.148   5.709   2.784
40055W        W 1421  12.831   4.320  11.401
40056W        W 1422   1.453  22.251   3.236
40057W        W 1423  35.397   8.882  11.980
40058W        W 1424   6.839   2.787   1.896
40059W        W 1425  37.032  33.572   0.754
40060W        W 1426   5.822   7.352   4.644
40061W        W 1427  13.306  27.638  12.069
40062W        W 1428  13.824   6.774   0.774
40063W        W 1429  21.631  18.693   3.294
40064W        W 1430  27.037  26.018  11.894
40065W        W 1431  32.530  33.519   1.348
40066W        W 1432  14.684  43.982   4.621
40067W        W 1433   1.381  27.961   2.284
40068W        W 1434  28.027  15.794   4.679
40069W        W 1435  11.757  19.659   1.210
40070W        W 1436   5.296   4.810  14.873
40071W        W 1437  17.612  42.355  11.991
40072W        W 1438  34.086   2.931  12.523
40073W        W 1439  44.470   1.323  10.933
40074W        W 1440   5.690  20.613   0.950
40075W        W 1441  27.635  10.354   3.380
40076W        W 1442  30.940  25.186  14.871
40077W        W 1443  23.596  23.522  13.004
40078W        W 1444  24.175  33.412   4.188
40079W        W 1445  15.632   6.349  12.874
40080W        W 1446  27.030  31.638   2.371
40081W        W 1447  34.065   5.209  14.808
40082W        W 1448  23.173  24.180   2.782
40083W        W 1449  11.303  37.457  10.106
40084W        W 1450  44.861  13.349  11.474
40085W        W 1451  25.604  30.938   1.210
40086W        W 1452  21.239  31.498   1.781
40087W        W 1453   8.755  12.634   2.811
40088W        W 1454  12.812  18.072  11.472
40089W        W 1455  14.204   7.742   0.850
40090W        W 1456  35.950  11.746   2.803
40091W        W 1457  15.761  18.791   1.735
40092W        W 1458   1.450   7.253  14.894
40093W        W 1459  24.550  36.037  10.948
40094W        W 1460   5.714  12.736   5.211
40095W        W 1461  25.964  22.227   0.397
40096W        W 1462  17.565  29.141   0.292
40097W        W 1463  33.130  23.633  12.972
40098W        W 1464  42.011  13.702  11.128
40099W        W 1465  26.194   8.337  10.608
40100W        W 1466   1.315  26.493  11.473
40101W        W 1467  18.711   1.422  12.847
40102W        W 1468  11.862   5.823  14.387
40103W        W 1469  39.526  28.455  12.506
40104W        W 1470  33.964  37.011   0.862
40105W        W 1471  25.063  32.528   3.789
40106W        W 1472  27.077  15.753  12.935
40107W        W 1473   7.325  10.252  11.572
40108W        W 1474  35.947  33.996  14.438
40109W        W 1475   2.423   2.725  10.954
40110W        W 1476  31.096   6.915   3.237
40111W        W 1477  21.607   2.398  13.839
40112W        W 1478  30.042   8.864   2.180
40113W        W 1479  15.271  36.083  11.974
40114W        W 1480  30.477  22.556   3.371
40115W        W 1481  44.368  33.961  12.488
40116W        W 1482  27.565  13.745  12.996
40117W        W 1483  29.428  33.524   0.801
40118W        W 1484  34.080  16.193  11.467
40119W        W 1485  11.148  39.455  10.418
40120W        W 1486  41.497   9.305  13.832
40121W        W 1487  13.692  16.670  11.861
40122W        W 1488   0.304  44.385   4.261
40123W        W 1489  19.057  13.177   3.319
40124W        W 1490  27.625  33.955  10.521
40125W        W 1491  25.605  24.584   3.372
40126W        W 1492  29.629  32.959   2.820
40127W        W 1493  30.568  40.525  12.823
40128W        W 1494   9.683  17.569  10.893
40129W        W 1495  20.118  44.822   0.962
40130W        W 1496  35.956  43.379   9.506
40131W        W 1497  31.914  26.690  11.115
40132W        W 1498  16.300  35.986   0.342
40133W        W 1499   2.891  15.603  10.588
40134W        W 1500   2.876  43.859   1.818
40135W        W 1501  14.593  31.533   1.353
40136W        W 1502  22.108  36.412  10.956
40137W        W 1503  23.005  40.333   1.829
40138W        W 1504   7.303  42.830  11.572
40139W        W 1505  34.006  17.147   1.363
40140W        W 1506   3.354  30.029  13.503
40141W        W 1507   8.839  40.890   3.178
40142W        W 1508  20.228  38.500  15.000
40143W        W 1509  44.993  17.740   1.281
40144W        W 1510  41.801  28.647   3.651
40145W        W 1511   5.735   5.392  12.006
40146W        W 1512  11.859  30.004  11.890
40147W        W 1513  35.545  28.127  11.441
40148W        W 1514  17.158  30.150  11.513
40149W        W 1515  23.123  34.001  13.880
40150W        W 1516  40.911  37.948   2.344
40151W        W 1517  22.171   7.394  13.867
40152W        W 1518  32.626  22.014   1.754
40153W        W 1519   1.835  34.387  11.415
40154W        W 1520  40.886  33.037   0.764
40155W        W 1521  39.499  28.643  11.606
40156W        W 1522   8.749  26.030   0.747
40157W        W 1523  21.199  40.051   4.230
40158W        W 1524  30.053  32.038  10.915
40159W        W 1525  29.110   6.835  13.368
40160W        W 1526  43.890  10.323  10.924
40161W        W 1527  34.482  32.043  13.043
40162W        W 1528  20.742  35.942  11.543
40163W        W 1529  26.986  27.967  12.018
40164W        W 1530  15.303  19.115   2.675
40165W        W 1531  15.630  43.344  10.409
40166W        W 1532  33.550  44.969   2.200
40167W        W 1533  29.576   4.783   2.808
40168W        W 1534  39.335  10.293   2.837
40169W        W 1535  25.021  12.184   0.759
40170W        W 1536   0.919  34.023  13.043
40171W        W 1537  33.505  11.283  11.893
40172W        W 1538  13.611  18.273  14.437
40173W        W 1539  28.939  38.499  12.960
40174W        W 1540   8.835   1.921  11.473
40175W        W 1541  12.836   7.405   1.872
40176W        W 1542  39.055   5.366  12.547
40177W        W 1543  44.898  28.174   1.312
40178W        W 1544   5.879  17.708  12.884
40179W        W 1545  18.063  33.463   3.193
40180W        W 1546  15.258  37.415   4.760
40181W        W 1547  37.036  13.139   4.653
40182W        W 1548  15.799  11.254  13.821
40183W        W 1549  11.310   0.457   2.787
40184W        W 1550   6.821  19.204  11.499
40185W        W 1551  39.936  24.986  13.418
40186W        W 1552   8.188  35.396  11.099
40187W        W 1553   1.756  11.709   1.725
40188W        W 1554   2.348  26.114   4.206
40189W        W 1555  14.764   5.717  13.914
40190W        W 1556  30.984  31.959   3.834
40191W        W 1557  26.618  24.225   1.768
40192W        W 1558   4.824   1.969  13.444
40193W        W 1559  33.615  20.608   5.727
40194W        W 1560  42.415  34.000  13.905
40195W        W 1561  24.568  29.430   2.388
40196W        W 1562  41.897  19.264  10.463
40197W        W 1563  12.330  39.350  13.058
40198W        W 1564  32.999  31.975   1.411
40199W        W 1565  27.499  21.691   4.337
40200W        W 1566  18.633  40.952   3.354
40201W        W 1567  33.012  40.826  14.424
40202W        W 1568  29.070  24.711  13.880
40203W        W 1569  41.816   9.216  14.456
40204W        W 1570   6.293  30.982  13.917
40205W        W 1571  44.968  12.227  14.333
40206W        W 1572  37.351  23.532  12.013
40207W        W 1573  33.044   5.814  12.862
40208W        W 1574  30.944   8.813   4.300
40209W        W 1575  25.075  28.030   2.291
40210W        W 1576   6.236  31.456   3.673
40211W        W 1577   7.797  31.013   3.696
40212W        W 1578  16.111  19.646  11.576
40213W        W 1579  35.494  14.178  10.457
40214W        W 1580  43.847  42.361  14.962
40215W        W 1581  39.954  16.159  12.501
40216W        W 1582  14.233   5.266   1.339
40217W        W 1583  18.603   4.441  12.065
40218W        W 1584  33.115  23.538  13.351
40219W        W 1585   9.275  33.542  11.603
40220W        W 1586  15.778  10.271   3.332
40221W        W 1587  11.241  19.616   0.340
40222W        W 1588   3.373  11.315  13.854
40223W        W 1589  22.614   6.800  14.027
40224W        W 1590   6.780  39.911   0.874
40225W        W 1591  23.523  31.108   4.672
40226W        W 1592  40.530  26.579   1.896
40227W        W 1593  13.648  38.042  12.926
40228W        W 1594  28.968  21.178   1.778
40229W        W 1595  31.598  42.327  11.092
40230W        W 1596  26.528  41.851  11.064
40231W        W 1597  14.121  22.040   2.283
40232W        W 1598  24.025  26.499   0.263
40233W        W 1599  27.502  26.507  10.614
40234W        W 1600  24.221   0.394   3.744
40235W        W 1601   4.355  34.417  11.901
40236W        W 1602  15.301  16.727   4.643
40237W        W 1603  29.163  33.960   4.639
40238W        W 1604   5.747   8.173  12.976
40239W        W 1605  21.083  12.700  13.041
40240W        W 1606  21.640  18.613  13.815
40241W        W 1607  33.115   6.334  13.534
40242W        W 1608   5.412  41.930   4.685
40243W        W 1609   5.899  43.847  12.389
40244W        W 1610   3.803  40.525  14.776
40245W        W 1611  27.197  44.889   4.337
40246W        W 1612  21.526   9.227   4.300
40247W        W 1613  36.991  28.452   3.247
40248W        W 1614  32.442   7.405   0.814
40249W        W 1615  13.260  31.473   2.398
40250W        W 1616  12.229   0.925   3.738
40251W        W 1617  30.536   3.712  13.319
40252W        W 1618  15.287   3.437  11.055
40253W        W 1619  17.748  12.786   2.791
40254W        W 1620   6.709  30.155   2.307
40255W        W 1621   1.347  33.033   4.819
40256W        W 1622  17.227  29.610   1.422
40257W        W 1623  12.824  34.457   0.776
40258W        W 1624  14.329  34.394  12.012
40259W        W 1625  39.853  35.521   3.647
40260W        W 1626  39.842  14.223   1.214
40261W        W 1627  26.961   7.855  13.884
40262W        W 1628  27.007  30.082  14.288
40263W        W 1629  37.552  18.672   2.889
40264W        W 1630  40.841  42.479  14.884
40265W        W 1631   6.426  10.329   3.845
40266W        W 1632  22.679   4.302  11.540
40267W        W 1633   8.887  39.510   3.811
40268W        W 1634  21.035  16.140  11.431
40269W        W 1635   1.382   9.780  11.966
40270W        W 1636  31.999   3.881  12.483
40271W        W 1637  23.007  43.479   2.200
40272W        W 1638   1.426  36.991   4.773
40273W        W 1639  40.921  18.706  13.830
40274W        W 1640  18.637  41.898  14.352
40275W        W 1641  23.546  11.320   1.213
40276W        W 1642   2.413  19.550   1.307
40277W        W 1643  26.091  33.079  11.069
40278W        W 1644  15.119   6.355   0.771
40279W        W 1645  18.598  16.240  12.391
40280W        W 1646  18.567   5.331  12.021
40281W        W 1647  19.138  33.060   4.203
40282W        W 1648   0.427  31.133  12.028
40283W        W 1649  39.507   9.676   2.671
40284W        W 1650  31.536  17.140  12.913
40285W        W 1651  16.231  18.129  10.571
40286W        W 1652  18.295   4.863  12.415
40287W        W 1653  41.808   1.354   1.700
40288W        W 1654   9.329  38.924  12.490
40289W        W 1655  44.949  41.322  12.469
40290W        W 1656   0.902  21.224   4.275
40291W        W 1657  36.879  16.704   2.750
40292W        W 1658  38.936  28.098  13.498
40293W        W 1659  40.052   9.827  14.781
40294W        W 1660  26.105  34.115   0.318
40295W        W 1661  28.090  17.208   2.766
40296W        W 1662  43.434   0.383   2.663
40297W        W 1663  29.644  13.647   2.775
40298W        W 1664  38.554   7.780  12.945
40299W        W 1665  35.566  15.824  11.582
40300W        W 1666  17.612  39.926  11.035
40301W        W 1667  13.252  21.634  13.941
40302W        W 1668  25.054  43.979  10.510
40303W        W 1669  11.320  13.289   4.154
40304W        W 1670  17.584  24.001   4.122
40305W        W 1671  15.633  26.095  10.466
40306W        W 1672  44.979   8.703   3.177
40307W        W 1673  21.728  17.581  13.408
40308W        W 1674   1.314  18.153   0.393
40309W        W 1675  43.771  42.364  14.506
40310W        W 1676  12.843  30.493   3.649
40311W        W 1677  35.487  10.379   0.846
40312W        W 1678  17.175  20.028  10.466
40313W        W 1679  28.029   1.300   4.638
40314W        W 1680  13.308  13.703   1.440
40315W        W 1681  44.290   0.299  13.986
40316W        W 1682  38.957  31.107  10.640
40317W        W 1683   2.893  33.992   1.231
40318W        W 1684   7.415  34.892  11.078
40319W        W 1685  35.015  20.030   2.238
40320W        W 1686   5.299  40.938   4.718
40321W        W 1687  40.497  20.147  11.371
40322W        W 1688  14.125  23.153   2.353
40323W        W 1689  16.591   0.360  13.531
40324W        W 1690  21.735   7.406   2.273
40325W        W 1691  39.479  37.045  10.987
40326W        W 1692  44.906  24.713  11.599
40327W        W 1693  17.766  34.491  11.106
40328W        W 1694  33.527  36.082   3.383
40329W        W 1695  26.122  43.794   4.301
40330W        W 1696  32.015  43.764  11.387
40331W        W 1697  37.501  10.674  11.392
40332W        W 1698  34.050   3.263   3.794
40333W        W 1699  13.682  31.914  13.882
40334W        W 1700  18.567  26.575  11.519
40335W        W 1701  27.987   6.407   0.891
40336W        W 1702  20.719  22.581   3.825
40337W        W 1703  34.998  27.146   0.735
40338W        W 1704  28.165  34.087  13.986
40339W        W 1705  25.164  23.527   3.678
40340W        W 1706   5.922  39.515   4.237
40341W        W 1707  15.280  26.487   3.164
40342W        W 1708  32.944   8.694  13.060
40343W        W 1709  13.642   5.837   4.600
40344W        W 1710  30.419   7.280   3.827
40345W        W 1711  29.607  39.912  14.931
40346W        W 1712  26.967  27.093   0.411
40347W        W 1713   4.859  18.172  13.967
40348W        W 1714   7.720  38.410   3.243
40349W        W 1715  29.491  33.027   3.165
40350W        W 1716  27.940   5.314  11.073
40351W        W 1717  17.591  37.516  11.391
40352W        W 1718  44.900   5.402  13.378
40353W        W 1719   5.279  22.570   2.261
40354W        W 1720  24.665  10.190   1.322
40355W        W 1721  15.607  23.583   2.334
40356W        W 1722  43.815  44.307  13.804
40357W        W 1723  40.051  32.940   4.122
40358W        W 1724  25.052  19.252  13.004
40359W        W 1725  26.092  40.994   3.848
40360W        W 1726  26.167   7.887   0.440
40361W        W 1727   2.244  28.651  12.910
40362W        W 1728  41.417  15.315  13.324
40363W        W 1729  40.487  14.793   3.381
40364W        W 1730  12.260   5.370  13.346
40365W        W 1731  23.717  15.708  11.936
40366W        W 1732   7.254  41.994   0.819
40367W        W 1733  26.596  12.306  10.941
40368W        W 1734  17.654  17.061   0.791
40369W        W 1735  39.004  12.222   2.393
40370W        W 1736  23.156  23.666  11.573
40371W        W 1737  41.536  34.938  13.543
40372W        W 1738   9.877   0.848  14.023
40373W        W 1739   7.400   4.363   1.228
40374W        W 1740   4.329  33.384   0.805
40375W        W 1741  23.736  10.349  10.555
40376W        W 1742  19.222  34.558  12.015
40377W        W 1743  24.600  23.167   0.903
40378W        W 1744  13.697  28.070   0.879
40379W        W 1745  33.399   8.284   1.876
40380W        W 1746  23.103  44.974   1.282
40381W        W 1747  26.701  42.954  11.456
40382W        W 1748  31.437   0.293   2.847
40383W        W 1749  20.249  35.941   4.638
40384W        W 1750  11.851   1.311  12.456
40385W        W 1751  27.531  41.314  14.463
40386W        W 1752  29.556   8.707  10.126
40387W        W 1753   9.643  31.585  12.541
40388W        W 1754  15.090  44.963  12.354
40389W        W 1755   4.412  11.151  11.596
40390W        W 1756   8.685   4.372  14.983
40391W        W 1757  28.027  36.874  11.406
40392W        W 1758   7.776   8.822   2.345
40393W        W 1759  15.628   8.688  14.467
40394W        W 1760  11.692  13.677   3.170
40395W        W 1761  29.096  11.253   2.873
40396W        W 1762  17.628  25.538  12.411
40397W        W 1763  11.755  17.266  12.092
40398W        W 1764  35.014  13.765  11.099
40399W        W 1765  17.219   7.336   4.609
40400W        W 1766  41.022   9.648   0.477
40401W        W 1767  33.483  39.860   0.326
40402W        W 1768   7.681  39.361  13.041
40403W        W 1769   3.394  44.858  12.843
40404W        W 1770   3.457  35.053  13.850
40405W        W 1771  35.893   8.266  10.608
40406W        W 1772  15.677  38.351   3.308
40407W        W 1773   4.783  35.575   2.253
40408W        W 1774  10.827  26.002   1.345
40409W        W 1775   9.166   2.229   0.742
40410W        W 1776  24.186  26.627   2.401
40411W        W 1777  25.608  15.819   2.324
40412W        W 1778  35.509  21.252  11.943
40413W        W 1779  14.714  43.998  11.528
40414W        W 1780   3.346  43.467   1.408
40415W        W 1781   2.397  14.683  13.810
40416W        W 1782   2.433   7.247   9.937
40417W        W 1783  34.524  28.072  10.982
40418W        W 1784  33.048   8.170   3.174
40419W        W 1785  24.695  33.499   0.409
40420W        W 1786   7.828  11.839  13.926
40421W        W 1787  29.159  26.521   0.775
40422W        W 1788   8.165  37.346  12.921
40423W        W 1789  15.635  42.971   2.250
40424W        W 1790   6.337  43.923   3.288
40425W        W 1791  42.869   8.836  12.409
40426W        W 1792  38.560   8.243  14.989
40427W        W 1793  20.560   5.716   4.825
40428W        W 1794   6.737  16.780   1.843
40429W        W 1795   2.919  13.293   4.204
40430W        W 1796  39.969  14.741  14.958
40431W        W 1797   3.855  36.433  11.926
40432W        W 1798  24.609  20.076  14.929
40433W        W 1799  17.107  11.283  13.820
40434W        W 1800  20.523  32.087  11.070
40435W        W 1801  31.598  19.234   1.703
40436W        W 1802  33.415   8.329  12.355
40437W        W 1803   7.820  33.908   4.354
40438W        W 1804   4.843  27.523   5.728
40439W        W 1805  33.045  42.776  10.891
40440W        W 1806  44.265  39.353  14.409
40441W        W 1807  12.802   8.714  12.579
40442W        W 1808  32.406   6.230   3.376
40443W        W 1809  36.869  19.210   4.669
40444W        W 1810  37.892  35.444   2.320
40445W        W 1811  17.234   8.301   2.375
40446W        W 1812   4.286  24.492  12.553
40447W        W 1813   7.822  30.557  14.980
40448W        W 1814  42.929  20.551   4.151
40449W        W 1815  32.456  44.409  14.969
40450W        W 1816   7.233  42.031   2.692
40451W        W 1817  16.610  34.548  14.291
40452W        W 1818  41.434  31.976  11.023
40453W        W 1819  40.956  42.823  13.892
40454W        W 1820   5.421  39.822  13.533
40455W        W 1821  12.135   5.913  12.352
40456W        W 1822  21.105  11.373   1.749
40457W        W 1823   8.165  38.931  12.947
40458W        W 1824  26.613  23.995   1.399
40459W        W 1825  31.425   8.162   4.187
40460W        W 1826  25.112   4.306   3.221
40461W        W 1827  25.657  22.191  10.638
40462W        W 1828  16.290  38.343   0.777
40463W        W 1829  28.521  18.270  13.835
40464W        W 1830  38.425   5.425  14.006
40465W        W 1831   8.377  12.153  14.843
40466W        W 1832  23.708  12.317  12.905
40467W        W 1833  26.688  10.673  13.450
40468W        W 1834   1.309   0.431   2.678
40469W        W 1835  14.195  42.284   2.406
40470W        W 1836   6.763  17.123  12.018
40471W        W 1837  11.344  42.843  14.833
40472W        W 1838  28.078  18.585   0.942
40473W        W 1839  10.247  40.838   1.373
40474W        W 1840  25.144  27.655  12.411
40475W        W 1841  36.565  29.949   2.273
40476W        W 1842  23.628   7.275  10.456
40477W        W 1843  17.192  24.219   2.359
40478W        W 1844   6.883  37.396  12.383
40479W        W 1845  11.157  23.649  13.326
40480W        W 1846   8.282  27.030  11.997
40481W        W 1847  17.199  43.339   2.315
40482W        W 1848  10.658  24.593  13.863
40483W        W 1849   0.793  15.720   0.446
40484W        W 1850  42.999  31.540   0.786
40485W        W 1851  35.967  37.865   1.848
40486W        W 1852  16.613   1.333  12.057
40487W        W 1853   6.713  20.628  13.355
40488W        W 1854  12.729  37.350  10.634
40489W        W 1855  10.327  42.962   2.887
40490W        W 1856   0.794   3.724  12.450
40491W        W 1857  31.502  38.042   0.426
40492W        W 1858  16.589  38.906   3.647
40493W        W 1859  15.674  15.319   4.653
40494W        W 1860  42.320   3.255   3.257
40495W        W 1861  21.260  43.326  14.360
40496W        W 1862   2.328   2.744   4.297
40497W        W 1863  15.215  24.018  10.507
40498W        W 1864  20.076  35.384   4.279
40499W        W 1865  30.433  18.691  14.441
40500W        W 1866  25.613  30.544   0.422
40501W        W 1867  29.456   3.299  13.333
40502W        W 1868  27.994  10.716  14.885
40503W        W 1869  24.602  22.509   1.894
40504W        W 1870  19.268  33.094   0.729
40505W        W 1871   5.252   0.833   3.757
40506W        W 1872  16.139  23.116  14.921
40507W        W 1873  25.966   4.272  14.026
40508W        W 1874   1.888  25.077   4.337
40509W        W 1875  26.139  41.945   1.787
40510W        W 1876  33.961  22.193  13.888
40511W        W 1877   9.180  17.770   2.778
40512W        W 1878  35.098  41.892   3.317
40513W        W 1879   9.333  41.435   0.434
40514W        W 1880   3.835  37.430  13.452
40515W        W 1881  24.679  37.418   0.737
40516W        W 1882   5.904  38.851   3.238
40517W        W 1883  17.700  30.638  13.348
40518W        W 1884   2.875  13.199   0.744
40519W        W 1885  19.740  22.531  13.398
40520W        W 1886   8.848  24.558  13.388
40521W        W 1887  26.156  37.447  14.385
40522W        W 1888  28.165  34.386   4.241
40523W        W 1889   8.187  33.510   2.703
40524W        W 1890  10.295   3.753  11.041
40525W        W 1891  14.750  13.284  12.372
40526W        W 1892  44.982  33.058  11.447
40527W        W 1893  38.556  14.750  11.422
40528W        W 1894  24.228  13.681   1.866
40529W        W 1895   5.885  13.756   4.748
40530W        W 1896  19.703  14.178  11.028
40531W        W 1897  42.364  41.413   2.782
40532W        W 1898  44.872  25.009   2.876
40533W        W 1899  28.674  38.030  13.011
40534W        W 1900  22.222  39.432  13.800
40535W        W 1901   4.701  30.599  13.456
40536W        W 1902  18.054  35.457   4.777
40537W        W 1903  23.237  10.262  13.793
40538W        W 1904   4.276  17.306   2.704
40539W        W 1905  20.029  23.533   0.770
40540W        W 1906   7.892  22.028   2.893
40541W        W 1907  43.974  17.251   4.182
40542W        W 1908  36.870  19.182  12.439
40543W        W 1909   9.784  27.166   0.741
40544W        W 1910  28.995  41.496   2.242
40545W        W 1911  14.769  35.015  13.443
40546W        W 1912   4.354   5.796  12.048
40547W        W 1913  32.954  38.510  14.488
40548W        W 1914  22.050  37.972  12.925
40549W        W 1915   1.460  31.983  13.539
40550W        W 1916  24.152  34.475  14.277
40551W        W 1917  19.119   7.340  14.820
40552W        W 1918   4.432  38.899  14.423
40553W        W 1919  13.219  20.563   1.336
40554W        W 1920  39.030  26.558  12.457
40555W        W 1921   1.365   3.797  12.937
40556W        W 1922  23.698   2.382  12.349
40557W        W 1923  36.858  32.581  14.883
40558W        W 1924  12.325  38.971  10.033
40559W        W 1925   5.925   7.221   0.831
40560W        W 1926  42.830  13.821   0.863
40561W        W 1927  32.959  15.701   3.217
40562W        W 1928   5.693  36.946  12.944
40563W        W 1929  31.071  43.315  10.975
40564W        W 1930  20.177  29.531  12.401
40565W        W 1931   3.842  35.885  14.925
40566W        W 1932  23.135  30.569  12.406
40567W        W 1933  22.599  12.757  10.910
40568W        W 1934   4.813   1.269   1.812
40569W        W 1935  13.264  19.129   0.946
40570W        W 1936  31.642  14.168  11.976
40571W        W 1937  41.822  41.818   4.759
40572W        W 1938  32.583  23.036   2.185
40573W        W 1939  35.916   9.168   4.671
40574W        W 1940  16.133  15.222   9.454
40575W        W 1941  31.898  41.410  12.530
40576W        W 1942  10.258  32.539   9.965
40577W        W 1943  13.224  13.272   2.780
40578W        W 1944  24.557  44.269   4.647
40579W        W 1945  13.234   2.290  10.909
40580W        W 1946   3.432  27.115  10.933
40581W        W 1947   7.346  31.969   1.378
40582W        W 1948  24.640  40.896   1.303
40583W        W 1949  17.165  37.582  11.510
40584W        W 1950  42.342  21.593   2.774
40585W        W 1951  16.083   8.177   3.671
40586W        W 1952  34.891  35.896   5.102
40587W        W 1953   0.873  27.544  11.579
40588W        W 1954  36.556  15.138  14.015
40589W        W 1955  36.872   4.335  11.857
40590W        W 1956  15.178  36.072  11.406
40591W        W 1957  12.661  33.108  14.293
40592W        W 1958   0.932  17.061   1.274
40593W        W 1959   9.244  43.850  11.482
40594W        W 1960  38.878  43.515  10.569
40595W        W 1961   9.817  29.440  14.482
40596W        W 1962  28.968  44.296  10.103
40597W        W 1963  29.661  38.999   1.779
40598W        W 1964  30.149  36.060   0.810
40599W        W 1965  18.101  33.618   4.209
40600W        W 1966  20.126  36.359  14.984
40601W        W 1967  41.010  14.701  10.944
40602W        W 1968  18.117   7.284   2.678
40603W        W 1969   4.437  40.479  11.889
40604W        W 1970   1.921  35.099   4.196
40605W        W 1971  35.928   6.251   3.704
40606W        W 1972  11.816  12.231  12.988
40607W        W 1973  30.075  35.003  10.519
40608W        W 1974  20.095  37.841   4.795
40609W        W 1975  11.644   4.205  14.786
40610W        W 1976  39.534  13.174  13.506
40611W        W 1977  18.087   8.671   2.713
40612W        W 1978  23.610  14.794  12.534
40613W        W 1979  16.245  15.216  13.821
40614W        W 1980  38.840  29.918   1.260
40615W        W 1981  36.994  13.797  10.539
40616W        W 1982  33.940  19.214  14.786
40617W        W 1983   8.191  13.828   0.813
40618W        W 1984  35.535  21.052   1.805
40619W        W 1985  27.692  29.445  13.939
40620W        W 1986   9.366  22.613   4.134
40621W        W 1987  40.940   2.322  14.511
40622W        W 1988  22.625   5.388   3.357
40623W        W 1989  25.095  21.643  12.010
40624W        W 1990   5.203  41.405   5.217
40625W        W 1991  18.557  23.523   0.478
40626W        W 1992  33.534   3.890  13.323
40627W        W 1993  33.018  38.529   3.183
40628W        W 1994   5.437  27.452   4.653
40629W        W 1995  43.810   2.448  11.887
40630W        W 1996  35.382   9.220  12.475
40631W        W 1997  29.941  13.239  11.608
40632W        W 1998   1.459   4.849   1.919
40633W        W 1999  37.485  18.286   3.775
40634W        W 2000  14.097  40.533  12.895
40635W        W 2001  33.583  32.576   0.421
40636W        W 2002  40.399  31.119  13.350
40637W        W 2003  34.605  14.212   2.329
40638W        W 2004   5.862  44.780  12.556
40639W        W 2005  23.116  19.228   0.476
40640W        W 2006  29.444   0.829   9.928
40641W        W 2007  40.384  40.438   0.438
40642W        W 2008  26.593  10.207   5.197
40643W        W 2009  38.001  36.005  10.515
40644W        W 2010   1.924  19.546   1.709
40645W        W 2011  14.329   7.197   1.408
40646W        W 2012   9.255   9.750   1.698
40647W        W 2013  19.615  38.849  13.431
40648W        W 2014  34.582   7.355   4.691
40649W        W 2015  37.065  39.056  12.923
40650W        W 2016  14.183  14.731  14.972
40651W        W 2017   2.433   5.342   3.778
40652W        W 2018   3.756   0.333   4.304
40653W        W 2019  30.557  10.237  13.827
40654W        W 2020  26.085  20.098  12.892
40655W        W 2021  28.560   3.387   1.913
40656W        W 2022  31.035  42.312   4.677
40657W        W 2023  28.526  31.005   4.598
40658W        W 2024  23.052  25.584  10.889
40659W        W 2025  32.402  37.972  10.425
40660W        W 2026  28.100  34.484  13.064
40661W        W 2027  19.665  26.156  11.584
40662W        W 2028  41.841  23.148  13.329
40663W        W 2029  10.194  23.515   4.813
40664W        W 2030  18.177  17.575  11.504
40665W        W 2031   0.977  35.468   0.844
40666W        W 2032   1.835  25.174   1.770
40667W        W 2033   3.868  31.932  12.977
40668W        W 2034  41.307  25.083   0.310
40669W        W 2035  33.924  16.136  14.373
40670W        W 2036   2.286  31.504  10.465
40671W        W 2037  39.404  32.988  11.089
40672W        W 2038   1.436  37.499  14.437
40673W        W 2039  30.060  20.186   2.885
40674W        W 2040  30.550  16.746   1.786
40675W        W 2041  44.970  34.430   2.316
40676W        W 2042   7.845   8.737  13.011
40677W        W 2043  28.511  41.308   1.232
40678W        W 2044  41.436  34.962   1.749
40679W        W 2045  26.047  13.143  13.877
40680W        W 2046  23.078  42.382   3.809
40681W        W 2047  12.827  41.885   3.263
40682W        W 2048  42.018  25.024  13.390
40683W        W 2049   0.969  19.167  13.790
40684W        W 2050   0.425   7.868  11.481
40685W        W 2051  39.851  39.814  13.795
40686W        W 2052  26.036  41.469  14.001
40687W        W 2053  43.442   3.875   1.358
40688W        W 2054  38.990  35.475   3.321
40689W        W 2055  13.297  24.228   0.371
40690W        W 2056  40.823  40.001  11.021
40691W        W 2057  32.582  21.245  10.917
40692W        W 2058  31.955   6.706  10.464
40693W        W 2059  19.606  15.599  14.352
40694W        W 2060   8.732  28.552  11.053
40695W        W 2061  43.804  23.532   0.747
40696W        W 2062  31.937  43.978   1.238
40697W        W 2063   6.899  18.580  10.405
40698W        W 2064  39.329   5.433  14.465
40699W        W 2065  11.839  22.116   1.865
40700W        W 2066  10.666  38.372   1.309
40701W        W 2067   9.678  43.000   2.186
40702W        W 2068   3.865  30.468  12.051
40703W        W 2069  18.251  42.358   1.419
40704W        W 2070  25.674   7.681  10.438
40705W        W 2071   6.873  24.555   0.417
40706W        W 2072   0.938  27.052  10.948
40707W        W 2073  22.509   7.697  12.096
40708W        W 2074   3.364  28.092  14.452
40709W        W 2075   7.730   3.954  10.070
40710W        W 2076  27.566  40.321   0.245
40711W        W 2077  23.523  31.977  14.991
40712W        W 2078  32.634  39.000  13.316
40713W        W 2079  13.795  23.034   4.113
40714W        W 2080  22.037  27.111   0.317
40715W        W 2081  41.408  13.671   4.602
40716W        W 2082   5.897  25.478  13.856
40717W        W 2083  29.113  19.594   0.881
40718W        W 2084  13.257   0.801  11.002
40719W        W 2085  19.565  25.711   2.311
40720W        W 2086   9.291   0.443  10.487
40721W        W 2087  41.331  42.009   5.196
40722W        W 2088  31.511  35.506  12.398
40723W        W 2089  28.013  22.149  10.610
40724W        W 2090   8.845  43.328  11.932
40725W        W 2091  19.671  25.073  13.460
40726W        W 2092   7.378  19.756  10.943
40727W        W 2093  17.643  39.546  14.939
40728W        W 2094  37.987  22.708   1.245
40729W        W 2095   6.829  11.631  11.949
40730W        W 2096  36.527  40.482   3.695
40731W        W 2097  15.812   8.389  13.367
40732W        W 2098  18.130   7.241  13.015
40733W        W 2099  43.391  22.714   0.824
40734W        W 2100  44.265  23.180  12.056
40735W        W 2101  19.185  30.014  12.565
40736W        W 2102  43.990  29.095   0.313
40737W        W 2103  16.207  32.597   4.669
40738W        W 2104  27.564  41.395   2.722
40739W        W 2105  27.180  32.952  12.914
40740W        W 2106  21.263  20.578   4.679
40741W        W 2107  38.466  30.472  11.390
40742W        W 2108  23.519  33.026   3.370
40743W        W 2109  10.778   2.908  13.934
40744W        W 2110  12.215  29.614   2.797
40745W        W 2111  37.073  24.219  11.526
40746W        W 2112   3.299  21.540  12.936
40747W        W 2113  25.142  38.015  13.512
40748W        W 2114  13.350   2.965   4.192
40749W        W 2115  43.367  37.846   3.656
40750W        W 2116  20.592  40.860   4.696
40751W        W 2117  16.712  25.184  13.931
40752W        W 2118  19.203  41.959  11.956
40753W        W 2119  40.533  40.975   0.267
40754W        W 2120  37.411  25.031   1.784
40755W        W 2121  38.490   1.285  12.435
40756W        W 2122   3.806  21.744   1.813
40757W        W 2123  42.501  44.953  12.960
40758W        W 2124   9.357  28.165   1.378
40759W        W 2125  41.307  38.334  14.470
40760W        W 2126  28.527  32.521   1.777
40761W        W 2127  40.987  32.538   2.197
40762W        W 2128  29.997  15.794  13.438
40763W        W 2129  29.939   3.244   1.249
40764W        W 2130  33.097  10.144   4.749
40765W        W 2131  27.603   2.743  10.451
40766W        W 2132   2.824  35.365   4.618
40767W        W 2133  11.262  34.044  10.524
40768W        W 2134  36.880  34.395   2.755
40769W        W 2135  13.277  25.583   1.862
40770W        W 2136  23.227  39.954  14.303
40771W        W 2137   4.419   4.283   1.807
40772W        W 2138  28.456   9.279  14.461
40773W        W 2139  20.610   2.408   4.291
40774W        W 2140  28.094   4.746   0.409
40775W        W 2141   9.380  26.561  13.822
40776W        W 2142  13.147   7.392   1.211
40777W        W 2143   7.317  36.360  13.515
40778W        W 2144  12.126   7.391  12.398
40779W        W 2145  15.753  30.010  10.639
40780W        W 2146  40.518  36.354  13.926
40781W        W 2147  40.426  20.635   1.708
40782W        W 2148  39.889  43.312  13.898
40783W        W 2149  11.785  22.152   0.839
40784W        W 2150  30.051  23.555  12.996
40785W        W 2151  26.468  41.507   2.809
40786W        W 2152   0.756  44.781   4.612
40787W        W 2153   9.820  11.728   2.180
40788W        W 2154  26.484  35.903  11.032
40789W        W 2155  31.078  39.878   0.782
40790W        W 2156   7.324   1.862  12.490
40791W        W 2157  33.088   4.347   3.211
40792W        W 2158  40.008  14.621  12.543
40793W        W 2159   3.823  41.895   0.405
40794W        W 2160  28.532  18.271   5.288
40795W        W 2161  42.915   2.322  12.521
40796W        W 2162  23.095  24.561  11.987
40797W        W 2163  23.108   9.813  12.481
40798W        W 2164  34.394  39.373   1.718
40799W        W 2165   8.732  33.883  14.420
40800W        W 2166   9.319  38.961   4.152
40801W        W 2167  41.893  33.445   2.780
40802W        W 2168  26.553  29.594  14.788
40803W        W 2169  40.327  33.545   5.183
40804W        W 2170   4.818  24.177  11.096
40805W        W 2171  21.188   3.832  10.132
40806W        W 2172  13.140   7.838  11.078
40807W        W 2173   1.854  23.022  14.912
40808W        W 2174  11.693   4.223   3.670
40809W        W 2175  28.001  43.441   0.926
40810W        W 2176  25.964   3.335  12.469
40811W        W 2177   7.231   1.894  14.427
40812W        W 2178  19.611  15.119  13.348
40813W        W 2179  41.889  37.459   0.400
40814W        W 2180  16.091  32.471   0.266
40815W        W 2181  21.030  21.641   2.693
40816W        W 2182   0.366  13.280   3.231
40817W        W 2183  32.508   4.723  10.434
40818W        W 2184  25.519   7.259   1.339
40819W        W 2185  37.975  35.085   1.441
40820W        W 2186  25.476   5.336   0.404
40821W        W 2187  11.830  23.707  14.994
40822W        W 2188  17.294  25.999  14.766
40823W        W 2189   2.417  42.518  13.003
40824W        W 2190  16.314  44.478   4.641
40825W        W 2191  28.138  26.533  14.427
40826W        W 2192  16.222   9.165   4.764
40827W        W 2193  18.236  16.626   1.918
40828W        W 2194   5.354   1.287   3.380
40829W        W 2195  10.852  11.734  12.044
40830W        W 2196  42.960   9.215  11.439
40831W        W 2197  29.958  29.658  12.879
40832W        W 2198  14.311  12.209   0.840
40833W        W 2199  15.279   2.391   2.197
40834W        W 2200  38.013  24.075   1.883
40835W        W 2201  14.615  12.680   3.830
40836W        W 2202  21.521  30.119   0.262
40837W        W 2203  14.181  42.891  10.990
40838W        W 2204  40.970   3.304   4.310
40839W        W 2205   4.344  22.689  11.106
40840W        W 2206  44.309  19.241  11.930
40841W        W 2207  20.524  29.987   2.310
40842W        W 2208   8.243  44.338  10.632
40843W        W 2209  16.808  42.505   3.689
40844W        W 2210  33.520  26.957  10.598
40845W        W 2211   3.230  33.549  13.952
40846W        W 2212  23.189  13.615  13.938
40847W        W 2213  31.567  36.348   3.848
40848W        W 2214  27.197  38.981  12.396
40849W        W 2215  37.337  11.633  14.404
40850W        W 2216  24.132  36.841   4.161
40851W        W 2217   8.801  42.826  10.457
40852W        W 2218  41.309  37.477  10.962
40853W        W 2219  21.064  17.583  12.057
40854W        W 2220  16.123  11.767  12.980
40855W        W 2221  29.140  19.747  14.870
40856W        W 2222  20.273  15.784  10.614
40857W        W 2223  29.138  43.889   1.220
40858W        W 2224  39.342  30.046   3.276
40859W        W 2225  25.012  30.076  13.547
40860W        W 2226   5.215  36.022   4.828
40861W        W 2227  34.554  22.030   4.207
40862W        W 2228  17.212   1.285   1.889
40863W        W 2229  32.935  26.689  11.882
40864W        W 2230  41.413  21.241   4.287
40865W        W 2231  11.253  10.220  14.789
40866W        W 2232  27.159  40.495  10.408
40867W        W 2233  16.114  36.914   1.718
40868W        W 2234  13.680  25.162  12.539
40869W        W 2235  28.120  33.475  14.895
40870W        W 2236  43.384   7.215   3.795
40871W        W 2237   3.753  23.080  12.569
40872W        W 2238  37.447  26.660  12.013
40873W        W 2239   7.338   7.722   0.306
40874W        W 2240   2.912  11.780  14.778
40875W        W 2241   8.375  38.445  10.943
40876W        W 2242  38.878   5.825  12.043
40877W        W 2243   5.361  15.122   3.351
40878W        W 2244  23.215  30.466   4.349
40879W        W 2245  27.984   2.400  11.968
40880W        W 2246  43.784   9.837   4.351
40881W        W 2247  32.494  38.973   3.323
40882W        W 2248  13.805  41.042   2.687
40883W        W 2249  18.092  42.294  10.980
40884W        W 2250  12.806  39.056  10.635
40885W        W 2251   1.442  34.118   4.134
40886W        W 2252   6.223  29.425  12.944
40887W        W 2253  44.487  34.493  12.524
40888W        W 2254  15.692  41.501   9.993
40889W        W 2255  18.676  36.859  10.414
40890W        W 2256  33.398  25.207   1.436
40891W        W 2257   1.405  10.859   0.908
40892W        W 2258  42.872  38.981  14.781
40893W        W 2259  41.404  10.366  11.036
40894W        W 2260   2.764  13.671  13.498
40895W        W 2261  25.009  14.193   0.811
40896W        W 2262  13.724  19.083   4.790
40897W        W 2263  18.144   5.767  11.516
40898W        W 2264  26.471  25.063  10.086
40899W        W 2265  39.483   2.923  12.956
40900W        W 2266  18.061  37.427   2.259
40901W        W 2267  31.992  36.533   1.893
40902W        W 2268  43.496  44.318  14.914
40903W        W 2269  10.246  30.039   0.260
40904W        W 2270  15.666  39.519  12.355
40905W        W 2271   9.287   1.251  13.022
40906W        W 2272  37.568  32.940  13.934
40907W        W 2273  29.027  40.440  11.055
40908W        W 2274  28.141  10.278   1.225
40909W        W 2275  39.979  37.898   2.419
40910W        W 2276  23.125  39.881   2.255
40911W        W 2277   3.742  39.898   2.682
40912W        W 2278  16.620  36.084  12.993
40913W        W 2279  43.362   2.420  10.443
40914W        W 2280   3.264  15.748  14.445
40915W        W 2281  11.853  10.646   3.244
40916W        W 2282  36.056   7.213   2.412
40917W        W 2283   4.342   2.954  14.784
40918W        W 2284  12.814  34.497   4.790
40919W        W 2285  32.133  25.964  14.492
40920W        W 2286   8.179  35.965  13.417
40921W        W 2287   7.237  26.615   1.268
40922W        W 2288   1.954  36.972  13.399
40923W        W 2289   6.868  38.543   4.693
40924W        W 2290  40.388  29.658   0.857
40925W        W 2291  18.552   2.876  13.414
40926W        W 2292   4.245  13.710  14.284
40927W        W 2293  26.067  44.919   0.769
40928W        W 2294  13.156  25.181  14.343
40929W        W 2295   6.891  20.173   2.707
40930W        W 2296  11.268  25.676  14.875
40931W        W 2297  16.281  17.290  12.039
40932W        W 2298  38.845  42.451   1.267
40933W        W 2299  24.026   5.419  11.124
40934W        W 2300  13.174  35.945  14.935
40935W        W 2301  28.665  36.866   2.345
40936W        W 2302  14.608  12.786  10.069
40937W        W 2303  23.038  16.243  10.907
40938W        W 2304  28.540  13.807   0.867
40939W        W 2305  25.030  11.788  14.799
40940W        W 2306  29.958   2.953   2.714
40941W        W 2307  24.479  11.734  12.902
40942W        W 2308   4.280  43.779   1.251
40943W        W 2309   4.723  15.170   2.338
40944W        W 2310   9.771  15.189   4.315
40945W        W 2311  42.405  19.183   1.925
40946W        W 2312  35.387  18.729   4.263
40947W        W 2313  43.824  43.358  14.925
40948W        W 2314  40.428  10.770   4.287
40949W        W 2315  13.131  27.469   2.748
40950W        W 2316  43.357   7.812   2.360
40951W        W 2317   2.299  44.329   4.710
40952W        W 2318  23.628  32.456  11.979
40953W        W 2319  15.689  33.433   1.699
40954W        W 2320  29.659  10.196   4.158
40955W        W 2321  26.003  27.197   2.392
40956W        W 2322  41.958  10.837  14.838
40957W        W 2323  13.188  23.552   4.280
40958W        W 2324  40.531  12.784   1.712
40959W        W 2325  36.487   5.911   1.888
40960W        W 2326  26.617  29.078   4.745
40961W        W 2327  39.047   5.754   1.436
40962W        W 2328   7.296   8.834   0.755
40963W        W 2329  33.616  14.309   2.730
40964W        W 2330  25.092  23.100  10.530
40965W        W 2331  17.181  43.866   4.347
40966W        W 2332  23.576  36.858   1.386
40967W        W 2333   8.370  19.066   1.866
40968W        W 2334  13.326  28.512  14.861
40969W        W 2335  18.244   5.257   3.707
40970W        W 2336  36.362  32.394  11.528
40971W        W 2337  16.244   5.258  12.513
40972W        W 2338  20.630  16.287  14.845
40973W        W 2339   4.266  31.520  10.640
40974W        W 2340  12.119   6.728   3.380
40975W        W 2341  32.032   7.665  14.764
40976W        W 2342  43.881  41.021   4.226
40977W        W 2343  37.988   2.751   4.666
40978W        W 2344  38.863   0.350   3.643
40979W        W 2345  35.536  36.455   0.265
40980W        W 2346  37.025   6.401  12.453
40981W        W 2347  14.211  14.117  12.863
40982W        W 2348  40.996  35.989  12.506
40983W        W 2349  17.589  15.775  14.449
40984W        W 2350   8.768  24.514   3.638
40985W        W 2351  12.676   5.411   0.876
40986W        W 2352  33.079  14.268  10.555
40987W        W 2353   4.207  18.726   1.388
40988W        W 2354  19.745  33.380  11.528
40989W        W 2355  30.963  34.609   2.324
40990W        W 2356  43.985  27.573  14.863
40991W        W 2357  21.199  31.148  10.937
40992W        W 2358  16.612  26.085   0.298
40993W        W 2359  21.702  16.303  14.338
40994W        W 2360  20.533  15.089  11.076
40995W        W 2361  24.723  18.591  11.099
40996W        W 2362  38.068  38.539   4.350
40997W        W 2363  39.541   6.685   3.635
40998W        W 2364  14.340  36.521   4.613
40999W        W 2365   7.843  19.280  10.448
41000W        W 2366   3.767  42.979   3.758
41001W        W 2367  18.554  42.902  11.000
41002W        W 2368  40.542  39.440  12.951
41003W        W 2369   1.860  27.144  11.114
41004W        W 2370  23.150  17.077   4.187
41005W        W 2371  16.135  42.894   9.945
41006W        W 2372  26.501   4.257   3.309
41007W        W 2373   6.858  32.457   1.319
41008W        W 2374  20.199  23.157   2.710
41009W        W 2375  40.336  27.576  14.355
41010W        W 2376  19.247  29.154  10.617
41011W        W 2377  38.024  37.503  11.956
41012W        W 2378   3.275  11.744   2.317
41013W        W 2379   6.209  29.667  10.010
41014W        W 2380  32.430  43.906  11.569
41015W        W 2381  33.521  33.092  12.534
41016W        W 2382  33.583   1.350   0.317
41017W        W 2383  33.402  44.917   4.216
41018W        W 2384   9.749  22.149  11.907
41019W        W 2385  21.693  25.645   3.713
41020W        W 2386   9.370   7.840  11.976
41021W        W 2387  33.514  24.113  14.949
41022W        W 2388  25.105  36.525  10.559
41023W        W 2389  37.953  39.919  13.935
41024W        W 2390  29.933   4.373   4.650
41025W        W 2391   1.919  32.601   2.894
41026W        W 2392  13.815  15.638   1.215
41027W        W 2393  13.620  25.028   4.621
41028W        W 2394  38.477  36.030   4.323
41029W        W 2395   4.441   9.767   4.130
41030W        W 2396  29.555  10.643   3.866
41031W        W 2397  35.924  25.191   4.339
41032W        W 2398  19.580  38.866  14.833
41033W        W 2399  43.388  32.997  13.457
41034W        W 2400   7.351  32.113  10.950
41035W        W 2401   8.881  12.812   4.132
41036W        W 2402  19.055  19.138  12.363
41037W        W 2403  40.483  44.331   3.300
41038W        W 2404  34.408  29.003   0.743
41039W        W 2405  29.612  42.359   1.859
41040W        W 2406  30.993  21.080  12.430
41041W        W 2407  22.547  15.770   2.800
41042W        W 2408  15.277  24.119   1.435
41043W        W 2409  41.306  41.850   2.212
41044W        W 2410  11.659   2.862   3.813
41045W        W 2411  28.547  21.670   2.224
41046W        W 2412  36.528  14.601   3.869
41047W        W 2413  29.096  38.397   0.311
41048W        W 2414  28.471  41.040   1.825
41049W        W 2415  26.085  26.683  11.483
41050W        W 2416  30.490  30.949   2.899
41051W        W 2417  23.495  16.203  10.417
41052W        W 2418   1.379  32.887  13.492
41053W        W 2419  38.367   3.863   4.312
41054W        W 2420  24.567  42.804  13.395
41055W        W 2421  20.244  22.551   3.658
41056W        W 2422  16.127   2.917  13.463
41057W        W 2423  36.949  21.656  13.882
41058W        W 2424  11.779  40.305   1.259
41059W        W 2425  37.914  31.980   3.322
41060W        W 2426  37.046  25.487  14.868
41061W        W 2427  36.400  44.781   1.733
41062W        W 2428  38.869  40.485  10.454
41063W        W 2429   3.392  41.357   1.704
41064W        W 2430  41.311   5.212   2.296
41065W        W 2431  23.058  14.735   0.878
41066W        W 2432  22.251   9.662  13.514
41067W        W 2433  35.597  37.860  14.761
41068W        W 2434  43.436  31.607   4.799
41069W        W 2435  38.369  20.058  11.984
41070W        W 2436  15.696  42.298   2.212
41071W        W 2437   0.921  27.562   0.758
41072W        W 2438  24.562  25.487   1.259
41073W        W 2439  12.233  18.264  14.834
41074W        W 2440  34.394  39.393   4.125
41075W        W 2441  15.697   9.235   2.901
41076W        W 2442  36.465  23.661  14.492
41077W        W 2443   0.787  28.022  14.028
41078W        W 2444  21.166   2.845   3.670
41079W        W 2445  24.613  10.194   3.694
41080W        W 2446   0.860  40.829  11.424
41081W        W 2447  14.725  38.924   2.721
41082W        W 2448   5.270  36.503  10.640
41083W        W 2449  14.129  19.609  13.990
41084W        W 2450  12.841  26.471  12.495
41085W        W 2451   6.756  14.603  13.804
41086W        W 2452  20.103  12.797   1.257
41087W        W 2453  42.019  39.469  11.084
41088W        W 2454  12.283  31.633  12.447
41089W        W 2455  12.247   2.765   3.778
41090W        W 2456  37.873  36.590  10.511
41091W        W 2457   5.438  38.852   2.811
41092W        W 2458  17.103  26.164   3.147
41093W        W 2459  27.660  36.912  13.906
41094W        W 2460   8.879   9.782  14.935
41095W        W 2461   1.763   0.832   0.271
41096W        W 2462  43.934  42.822  11.959
41097W        W 2463  40.377  24.179   3.341
41098W        W 2464  33.566  29.047   4.801
41099W        W 2465  13.600  11.267   3.829
41100W        W 2466  22.202  15.276   1.301
41101W        W 2467   4.803  16.311  11.536
41102W        W 2468  19.255  43.366  12.343
41103W        W 2469  21.239  41.880  13.793
41104W        W 2470  28.463   0.955  13.055
41105W        W 2471  31.524  33.538  14.794
41106W        W 2472  17.252  11.821  13.536
41107W        W 2473   1.825  35.573  14.928
41108W        W 2474  15.757  38.498  13.315
41109W        W 2475  31.420  37.387  13.330
41110W        W 2476  16.192  11.149   0.846
41111W        W 2477  20.522  31.952   9.485
41112W        W 2478   7.231  32.972  10.437
41113W        W 2479  28.504  11.797  14.934
41114W        W 2480  13.242  22.214  10.448
41115W        W 2481  39.879   2.839  10.408
41116W        W 2482  25.480  44.896   3.316
41117W        W 2483  16.747  19.668   3.334
41118W        W 2484   5.745  14.110   5.700
41119W        W 2485  13.312  11.695   4.343
41120W        W 2486  29.636  20.274   3.327
41121W        W 2487  28.611  26.208  13.976
41122W        W 2488   9.151   4.828   2.844
41123W        W 2489  12.206   3.419  14.299
41124W        W 2490  26.467   4.286   0.839
41125W        W 2491  43.492  26.162   4.740
41126W        W 2492  22.014  13.296   1.732
41127W        W 2493  38.896  29.424  11.556
41128W        W 2494  35.936  15.761   2.839
41129W        W 2495   3.235  11.217   4.833
41130W        W 2496  11.860  19.536  12.357
41131W        W 2497   2.931  11.631   1.898
41132W        W 2498  25.217  38.915   1.845
41133W        W 2499   0.939  18.721   3.813
41134W        W 2500  21.683   6.812  12.927
41135W        W 2501  42.315  35.859  14.380
41136W        W 2502  35.518  17.785  14.424
41137W        W 2503  38.391  27.641  11.925
41138W        W 2504   5.737  10.180  11.865
41139W        W 2505  25.185   8.722  12.867
41140W        W 2506  27.058  32.468   1.215
41141W        W 2507  18.088  22.064   4.113
41142W        W 2508  18.187   0.968   4.170
41143W        W 2509  35.580  33.618   0.950
41144W        W 2510  41.526  36.940   4.236
41145W        W 2511  37.433   1.866  10.526
41146W        W 2512  38.875  41.507  11.476
41147W        W 2513   6.411  15.616   3.172
41148W        W 2514  24.030  14.112   3.645
41149W        W 2515  22.030  23.693   3.707
41150W        W 2516   6.396   3.744  14.874
41151W        W 2517   9.175  36.991   2.790
41152W        W 2518  44.497   9.379   3.356
41153W        W 2519  11.655   5.373  13.006
41154W        W 2520  40.413  31.592   4.735
41155W        W 2521  13.273  17.162   4.628
41156W        W 2522  10.643  33.386   2.288
41157W        W 2523  19.678   7.849   2.288
41158W        W 2524  43.406  20.653  12.025
41159W        W 2525  40.460   7.316  13.019
41160W        W 2526  18.187  33.542   4.604
41161W        W 2527  28.100  31.541   4.805
41162W        W 2528  19.150   4.785   3.787
41163W        W 2529  19.253  26.694  10.919
41164W        W 2530  29.632   1.947   1.371
41165W        W 2531  13.666  29.934  11.477
41166W        W 2532  43.504  16.747   2.391
41167W        W 2533   2.418  15.289  11.887
41168W        W 2534  41.952   9.289  13.437
41169W        W 2535   7.842  40.493   2.406
41170W        W 2536  18.137  32.486  10.926
41171W        W 2537  36.007  28.009  12.914
41172W        W 2538   6.271  16.768   1.725
41173W        W 2539  16.639  33.601   0.265
41174W        W 2540  19.665  27.666   4.184
41175W        W 2541  39.529  23.670  10.931
41176W        W 2542   7.764   3.264  14.008
41177W        W 2543  11.815   7.745   1.367
41178W        W 2544  39.328  14.791  10.932
41179W        W 2545  36.382   3.750  12.533
41180W        W 2546  17.234  40.802   3.203
41181W        W 2547   5.315  27.997   4.674
41182W        W 2548  39.521  16.149   1.222
41183W        W 2549  23.601   4.732  14.811
41184W        W 2550  14.781  25.115  10.486
41185W        W 2551  27.175  44.350  14.939
41186W        W 2552   9.299  22.162  10.516
41187W        W 2553  10.300  30.530  14.848
41188W        W 2554  10.366  12.179   1.935
41189W        W 2555  12.186  40.014   4.826
41190W        W 2556  16.269  38.367  10.461
41191W        W 2557  26.026  24.136  11.916
41192W        W 2558  36.574  22.210   0.356
41193W        W 2559  35.442  26.546  12.953
41194W        W 2560  27.613  42.808  10.494
41195W        W 2561  22.121  13.666  12.037
41196W        W 2562   9.305  14.746  13.821
41197W        W 2563  32.950  27.090  13.854
41198W        W 2564  25.638  33.099  13.454
41199W        W 2565  32.477  27.670  11.060
41200W        W 2566  13.212  27.991   1.223
41201W        W 2567  15.137  41.470  13.436
41202W        W 2568  13.152  33.114   0.395
41203W        W 2569  36.966  15.131   0.304
41204W        W 2570  40.890  17.635  13.536
41205W        W 2571  32.632  21.057   1.794
41206W        W 2572  37.482  15.325  10.492
41207W        W 2573  35.014   3.269   0.393
41208W        W 2574   5.392  27.945  11.954
41209W        W 2575   6.399  33.893   2.254
41210W        W 2576  30.479   2.759   1.231
41211W        W 2577  18.259  28.091  11.525
41212W        W 2578   4.723   8.251  12.834
41213W        W 2579   9.667  21.111   1.726
41214W        W 2580   8.820  44.806  10.472
41215W        W 2581  21.526  44.384  11.392
41216W        W 2582   7.815  15.241   4.603
41217W        W 2583  38.446  10.810  11.860
41218W        W 2584  15.638  35.496   2.292
41219W        W 2585  27.067  26.967   1.857
41220W        W 2586  18.735  24.723  11.420
41221W        W 2587  10.246   0.962  12.867
41222W        W 2588  38.401   5.311  11.960
41223W        W 2589  28.500  26.586   3.289
41224W        W 2590  13.812   2.783  10.405
41225W        W 2591  36.411  20.082  13.870
41226W        W 2592  14.317   1.432  10.540
41227W        W 2593  33.464  37.943   0.946
41228W        W 2594  13.788  22.713  12.509
41229W        W 2595   8.329  12.850  10.588
41230W        W 2596  33.491  15.178  10.456
41231W        W 2597   3.448   3.438  10.601
41232W        W 2598  19.544  42.313  12.474
41233W        W 2599   0.333  15.652   0.298
41234W        W 2600  40.917  24.693   3.671
41235W        W 2601   9.305   1.441   0.739
41236W        W 2602  27.673  13.609  14.486
41237W        W 2603  35.924  23.119   1.255
41238W        W 2604  10.211  27.565  10.936
41239W        W 2605  36.542  25.711   0.291
41240W        W 2606   6.220  14.685  13.053
41241W        W 2607  39.847  42.846  12.409
41242W        W 2608   9.653  28.568  11.527
41243W        W 2609   3.872  35.948   3.361
41244W        W 2610  13.734  16.656   2.762
41245W        W 2611  16.577  27.963  14.023
41246W        W 2612  24.013  24.582  10.490
41247W        W 2613   6.695  24.064  14.475
41248W        W 2614   9.745  39.429   0.811
41249W        W 2615  13.650  26.086   1.247
41250W        W 2616  17.703  30.092  14.991
41251W        W 2617   7.384  20.067   4.728
41252W        W 2618  25.550  31.633   0.884
41253W        W 2619  20.202   5.700  11.455
41254W        W 2620  18.068  14.262  11.007
41255W        W 2621  30.529  30.415  11.945
41256W        W 2622  11.662   7.313  10.469
41257W        W 2623  44.978  36.403  11.407
41258W        W 2624   7.385  43.904   1.256
41259W        W 2625  32.989  32.055  12.928
41260W        W 2626  22.227   5.885  13.325
41261W        W 2627  14.677  11.292  14.383
41262W        W 2628  44.354   0.261  10.535
41263W        W 2629   0.839  21.622  13.852
41264W        W 2630  11.263  43.932  10.477
41265W        W 2631   2.259   5.252  12.862
41266W        W 2632  23.665  39.954  13.408
41267W        W 2633   0.278   7.691  14.416
41268W        W 2634   8.672  38.062  12.869
41269W        W 2635  42.458  26.162   2.276
41270W        W 2636  27.983  44.438  13.320
41271W        W 2637  15.111  36.914   4.235
41272W        W 2638  20.080  10.358  11.015
41273W        W 2639  22.044  32.970   0.399
41274W        W 2640  34.091  30.124  13.367
41275W        W 2641  31.944  17.234   0.286
41276W        W 2642  11.677  26.021  13.022
41277W        W 2643  40.369  28.976   3.248
41278W        W 2644   2.930  32.519  10.481
41279W        W 2645  38.445  14.809  10.983
41280W        W 2646  23.073  38.069  14.960
41281W        W 2647   4.838  23.190   3.167
41282W        W 2648   6.821  12.133   4.824
41283W        W 2649  41.797  37.895   4.782
41284W        W 2650  10.849  40.933   2.699
41285W        W 2651  27.537  17.674   3.688
41286W        W 2652  10.339  31.444   4.723
41287W        W 2653  39.438  36.011  10.467
41288W        W 2654  29.092  12.308  14.014
41289W        W 2655   0.789   7.292   3.689
41290W        W 2656   1.324   1.889   4.795
41291W        W 2657  17.102   1.788  12.513
41292W        W 2658  13.311  18.145   1.848
41293W        W 2659  35.919  38.904  12.835
41294W        W 2660  38.559  30.039  12.495
41295W        W 2661  41.025  29.439  14.995
41296W        W 2662  36.979  44.934  10.981
41297W        W 2663   0.774  40.430   5.293
41298W        W 2664   1.273   5.899   1.723
41299W        W 2665  14.149  26.459  12.370
41300W        W 2666  20.638  36.360   4.337
41301W        W 2667   7.714  25.148   1.269
41302W        W 2668   0.409   9.789   2.804
41303W        W 2669   2.447   6.185   4.749
41304W        W 2670   4.274  25.969   1.757
41305W        W 2671  16.657  11.241  12.068
41306W        W 2672  29.093  40.314   3.715
41307W        W 2673   8.346   1.936  11.066
41308W        W 2674  29.521  39.347  10.926
41309W        W 2675  10.746  40.529  14.947
41310W        W 2676  33.616  30.481  13.942
41311W        W 2677  27.961  36.552   0.335
41312W        W 2678   9.724  41.403   3.709
41313W        W 2679   7.816   9.805   0.916
41314W        W 2680  13.125   6.898   0.849
41315W        W 2681  34.386  22.142   1.905
41316W        W 2682   0.309  29.653   4.612
41317W        W 2683  34.534   9.373   2.229
41318W        W 2684   3.335  41.294  11.610
41319W        W 2685  25.083  36.593  11.988
41320W        W 2686  12.231  20.032  13.920
41321W        W 2687  22.650  17.695   4.289
41322W        W 2688  14.812   4.274  13.984
41323W        W 2689  38.441  35.014   4.317
41324W        W 2690   4.724  26.033  11.440
41325W        W 2691  31.098  29.604   0.250
41326W        W 2692  18.632  18.286  10.533
41327W        W 2693   4.271   8.846   3.163
41328W        W 2694  18.644  18.254  13.404
41329W        W 2695  30.414   8.181  11.400
41330W        W 2696  42.487   0.488  11.515
41331W        W 2697  29.109  10.344   1.426
41332W        W 2698  35.993  10.166  12.467
41333W        W 2699  35.854  23.173   0.899
41334W        W 2700  31.442  28.608  10.961
41335W        W 2701  34.051  22.679   1.714
41336W        W 2702  26.192   9.393  12.401
41337W        W 2703   0.912  29.512   0.730
41338W        W 2704   2.812  23.161   1.840
41339W        W 2705   8.292  43.491  11.895
41340W        W 2706  15.688  19.619   0.948
41341W        W 2707  24.004  32.089  13.986
41342W        W 2708  37.941  40.862   4.782
41343W        W 2709  25.060  35.869  10.644
41344W        W 2710  25.508  25.482   3.156
41345W        W 2711  22.583  19.728   2.208
41346W        W 2712  19.544  25.573  11.505
41347W        W 2713   5.790  19.668   0.964
41348W        W 2714  40.509  27.536   3.695
41349W        W 2715  16.194  44.783  12.868
41350W        W 2716   1.462   0.959   0.255
41351W        W 2717   8.393  30.140   3.302
41352W        W 2718   5.324   9.840   4.278
41353W        W 2719  39.504   5.342   4.632
41354W        W 2720  26.662  26.652  12.969
41355W        W 2721   7.249  30.443  12.851
41356W        W 2722  22.726  31.998  13.456
41357W        W 2723   3.453   7.298   3.862
41358W        W 2724  13.193   8.676   4.760
41359W        W 2725   5.333  25.111  11.517
41360W        W 2726  22.572  15.119   0.807
41361W        W 2727  30.984  32.549  13.951
41362W        W 2728  38.359  38.561  13.807
41363W        W 2729  44.308   6.262  12.548
41364W        W 2730   3.455   1.459  13.320
41365W        W 2731  19.268  33.912   5.185
41366W        W 2732  23.120  13.833   1.270
41367W        W 2733  23.002  36.349   2.869
41368W        W 2734  21.027  36.074   2.243
41369W        W 2735  44.294   9.879   1.443
41370W        W 2736  32.424  31.013   0.785
41371W        W 2737  39.006  18.133  13.353
41372W        W 2738   6.819  41.514  11.998
41373W        W 2739  28.031   7.697   1.890
41374W        W 2740  20.246   2.948  11.577
41375W        W 2741  22.703   7.707   4.341
41376W        W 2742   7.407  22.209   4.269
41377W        W 2743   5.809  32.054  13.931
41378W        W 2744  23.616   6.734  11.020
41379W        W 2745  41.017  40.877  13.420
41380W        W 2746  34.089  35.040  13.407
41381W        W 2747   4.416  27.475   2.226
41382W        W 2748   6.339  18.275   5.224
41383W        W 2749  19.754  24.478   4.662
41384W        W 2750  21.068  44.888   4.135
41385W        W 2751  43.981  44.850   0.479
41386W        W 2752  15.587  28.128   1.919
41387W        W 2753  26.096  13.274   0.925
41388W        W 2754  20.090  18.544   3.671
41389W        W 2755  28.939  15.327   1.862
41390W        W 2756  34.576  20.256  12.491
41391W        W 2757  43.492  23.067   3.721
41392W        W 2758   4.444  31.142   2.314
41393W        W 2759   6.207  18.770   5.202
41394W        W 2760  18.197  22.182  11.931
41395W        W 2761  21.154  43.506   1.450
41396W        W 2762  38.475  41.514   4.757
41397W        W 2763  22.648  21.096   4.784
41398W        W 2764   8.328  40.470  10.482
41399W        W 2765  35.961  32.398  10.494
41400W        W 2766  35.890  38.954  11.575
41401W        W 2767  37.558   0.485  12.027
41402W        W 2768  19.705  44.445   4.134
41403W        W 2769  18.648  15.264  14.478
41404W        W 2770   6.819  34.956  10.554
41405W        W 2771   1.375  30.440   2.356
41406W        W 2772  15.177   9.230  14.370
41407W        W 2773  20.114  39.816   3.646
41408W        W 2774  25.191  19.053  11.001
41409W        W 2775  13.702   1.946   2.734
41410W        W 2776   8.692  13.110  12.037
41411W        W 2777  24.009  44.414   1.299
41412W        W 2778  24.648  39.428  12.345
41413W        W 2779   9.287  14.151  14.328
41414W        W 2780  26.024  15.717  12.906
41415W        W 2781  40.887  23.986   1.289
41416W        W 2782  36.936  39.027   0.405
41417W        W 2783  27.020  32.014   4.248
41418W        W 2784  34.432  41.896  12.048
41419W        W 2785  39.864  33.095   3.690
41420W        W 2786  27.517  38.070   2.808
41421W        W 2787  14.703   8.174  11.934
41422W        W 2788  18.586  34.515  13.511
41423W        W 2789  15.168   9.149  13.948
41424W        W 2790  26.176   8.655  13.405
41425W        W 2791  44.780  21.090   1.887
41426W        W 2792  17.164  27.094  12.518
41427W        W 2793   9.188  21.220  10.995
41428W        W 2794  41.932  44.960   3.266
41429W        W 2795  24.488  40.343   1.414
41430W        W 2796   8.666  37.342   4.647
41431W        W 2797   5.692  15.197   0.307
41432W        W 2798   9.858  35.602  11.597
41433W        W 2799  28.576  19.571   1.360
41434W        W 2800   2.931  29.958  12.885
41435W        W 2801   0.313  44.934   2.302
41436W        W 2802   7.805  32.621   0.817
41437W        W 2803  27.161  34.930  11.529
41438W        W 2804  32.106  39.517   0.439
41439W        W 2805  15.707  19.668  14.777
41440W        W 2806  41.300   6.720   0.331
41441W        W 2807  28.100  36.001  12.453
41442W        W 2808   7.693  37.930   2.211
41443W        W 2809   2.770  31.016  10.992
41444W        W 2810   9.823  16.638   2.407
41445W        W 2811   4.384  18.216   3.379
41446W        W 2812   1.936   4.806  11.026
41447W        W 2813  34.578  42.943  11.858
41448W        W 2814  15.604   4.888  14.500
41449W        W 2815  25.477  24.714   2.346
41450W        W 2816  25.135  16.621  10.041
41451W        W 2817  41.384   1.823   1.351
41452W        W 2818  37.962  27.457   1.912
41453W        W 2819  44.391  17.731   4.748
41454W        W 2820   7.195  18.218  11.436
41455W        W 2821  38.003  16.613  14.012
41456W        W 2822  12.235   1.294   3.707
41457W        W 2823  42.803   3.919  12.541
41458W        W 2824  12.743   6.844  13.013
41459W        W 2825   3.374  37.895  13.848
41460W        W 2826   5.337  12.718  12.011
41461W        W 2827  37.988   0.308  14.022
41462W        W 2828  21.096  30.965   0.788
41463W        W 2829  44.921  18.086  13.014
41464W        W 2830  21.518  33.983  14.948
41465W        W 2831  21.512  37.440   2.274
41466W        W 2832   6.803  16.206  14.905
41467W        W 2833  19.260  34.422  14.814
41468W        W 2834  40.812  23.209  11.947
41469W        W 2835  24.636  17.218   4.723
41470W        W 2836   9.850  36.985  11.581
41471W        W 2837  29.433  17.207   9.989
41472W        W 2838  20.728  17.725   2.319
41473W        W 2839  29.136  28.602  13.402
41474W        W 2840   9.792  31.128  12.070
41475W        W 2841   6.889  24.103   1.707
41476W        W 2842   7.384  35.901  11.480
41477W        W 2843  30.603  33.620  13.986
41478W        W 2844   3.781  28.454  13.509
41479W        W 2845  31.527  34.111  11.486
41480W        W 2846  10.201   1.941  14.375
41481W        W 2847  16.708  17.074   1.913
41482W        W 2848  35.569  35.491   4.231
41483W        W 2849  35.577  34.984   2.827
41484W        W 2850  37.485  21.645   3.300
41485W        W 2851  23.716   6.231  14.365
41486W        W 2852   9.343  27.604  12.043
41487W        W 2853  21.646  15.143  11.560
41488W        W 2854  21.123  21.530  11.380
41489W        W 2855  43.450  30.594  13.000
41490W        W 2856   3.334  30.149  12.021
41491W        W 2857   2.348  23.724  11.067
41492W        W 2858  28.970  27.636  14.819
41493W        W 2859  10.168  13.616  12.347
41494W        W 2860  35.089  18.273   3.744
41495W        W 2861  26.473  35.406   0.368
41496W        W 2862   3.232   8.729   4.128
41497W        W 2863  30.642   0.477   1.746
41498W        W 2864  12.638  11.814  12.833
41499W        W 2865  41.876  37.046   3.830
41500W        W 2866   0.951  44.996   4.150
41501W        W 2867  16.247  39.344  13.956
41502W        W 2868  30.429  39.833   0.962
41503W        W 2869  36.929  24.642  10.996
41504W        W 2870  22.729   9.316   0.805
41505W        W 2871   1.453  35.598  10.588
41506W        W 2872  41.021   9.246  12.548
41507W        W 2873   1.746   2.424  12.535
41508W        W 2874  37.998  39.473  13.480
41509W        W 2875  10.819  10.371   4.753
41510W        W 2876  11.329  40.541  13.878
41511W        W 2877  35.399  43.780   1.232
41512W        W 2878  28.048  18.093   4.661
41513W        W 2879  25.550  15.160   1.319
41514W        W 2880  11.746  17.295  14.433
41515W        W 2881  22.033  22.164   3.383
41516W        W 2882  15.297  15.750   0.787
41517W        W 2883  16.759  27.631  11.866
41518W        W 2884  31.441  14.146  10.642
41519W        W 2885   9.314  29.573   2.299
41520W        W 2886  29.078  29.126   0.283
41521W        W 2887  33.413   5.220   5.282
41522W        W 2888  12.360  14.733  13.408
41523W        W 2889   1.908   6.371  10.944
41524W        W 2890  31.544   2.835   1.339
41525W        W 2891   6.424  17.099   1.429
41526W        W 2892  30.521  36.884  12.895
41527W        W 2893  27.069  10.705  14.467
41528W        W 2894  37.466  19.638  14.328
41529W        W 2895  34.868  32.500   1.841
41530W        W 2896  16.792  31.985   3.163
41531W        W 2897  27.039  31.544   2.759
41532W        W 2898  10.773  36.999  11.127
41533W        W 2899  36.063  21.089  14.921
41534W        W 2900   4.361  28.141   1.770
41535W        W 2901  22.560   7.219  10.092
41536W        W 2902  25.004  24.049   4.768
41537W        W 2903  33.887  27.069   2.686
41538W        W 2904  31.507  25.058   2.744
41539W        W 2905  24.981  36.924   2.225
41540W        W 2906  31.137   1.851   0.355
41541W        W 2907  19.160  40.365  11.897
41542W        W 2908  26.536  14.609  13.367
41543W        W 2909   0.273  15.111  14.513
41544W        W 2910  16.236  30.568   3.655
41545W        W 2911  20.755  23.018  14.001
41546W        W 2912  17.662  19.698  11.426
41547W        W 2913  15.637  12.333  13.926
41548W        W 2914  37.425  14.613   1.301
41549W        W 2915   2.421  36.430  11.035
41550W        W 2916   9.719  25.002   1.356
41551W        W 2917  10.332  22.700   0.764
41552W        W 2918   7.707   1.944   3.211
41553W        W 2919  20.560  40.907   0.851
41554W        W 2920  40.378  44.463   0.427
41555W        W 2921  16.600   1.459   2.755
41556W        W 2922   5.423  32.070   3.870
41557W        W 2923  20.172  30.535   0.346
41558W        W 2924  43.349   6.692   2.349
41559W        W 2925   2.403  44.948   2.852
41560W        W 2926  15.299  16.715  12.397
41561W        W 2927  26.458   1.751  13.837
41562W        W 2928   8.255  11.702   3.748
41563W        W 2929  36.098  26.548   1.828
41564W        W 2930  15.706   2.893  12.580
41565W        W 2931  11.827  42.800   4.607
41566W        W 2932  40.961  37.340   0.454
41567W        W 2933  36.873   4.876  10.439
41568W        W 2934  43.865  41.327   4.320
41569W        W 2935  33.444  32.621   3.832
41570W        W 2936  13.348   0.373  14.837
41571W        W 2937  14.293  20.182  12.369
41572W        W 2938   1.969  42.378  12.861
41573W        W 2939   3.783   5.334   2.780
41574W        W 2940  41.510  29.043   2.187
41575W        W 2941   9.867  38.380   4.156
41576W        W 2942   7.695  27.469  12.945
41577W        W 2943   9.786   8.295  12.074
41578W        W 2944   4.277  22.608  12.345
41579W        W 2945  10.715  41.042   4.321
41580W        W 2946  21.174  30.923  12.577
41581W        W 2947  23.512   6.722  14.022
41582W        W 2948   3.283  13.119  10.976
41583W        W 2949  11.670  39.923   1.750
41584W        W 2950  27.009  15.724   4.698
41585W        W 2951  44.900  44.917  12.071
41586W        W 2952  18.669  22.150  13.356
41587W        W 2953  23.653  12.281  10.608
41588W        W 2954  41.495  38.387   2.329
41589W        W 2955  30.024  30.157   1.720
41590W        W 2956  34.913   9.379  13.952
41591W        W 2957  40.960  31.424  10.636
41592W        W 2958   4.733   6.221   0.335
41593W        W 2959  12.252  25.129   4.755
41594W        W 2960  11.712  21.725   0.422
41595W        W 2961  18.131  13.610  14.952
41596W        W 2962  15.807  22.746   0.936
41597W        W 2963  26.196  15.794   2.766
41598W        W 2964  22.020  31.142   0.795
41599W        W 2965   8.732   2.967   5.783
41600W        W 2966  14.645  26.491   4.114
41601W        W 2967  20.700  18.648  11.457
41602W        W 2968  35.020  43.973  14.435
41603W        W 2969  27.047  31.486   0.415
41604W        W 2970  10.190   4.819   5.220
41605W        W 2971   5.841  43.363   4.354
41606W        W 2972  42.862   9.873  11.991
41607W        W 2973  29.567  41.423   0.939
41608W        W 2974   4.425  38.968   3.248
41609W        W 2975  39.318   9.156  10.559
41610W        W 2976   3.773   1.428  13.803
41611W        W 2977  43.508   8.221   3.368
41612W        W 2978  44.877  35.929  12.516
41613W        W 2979   6.310  27.498   1.422
41614W        W 2980  38.414  44.444  14.409
41615W        W 2981  24.122   8.394   4.671
41616W        W 2982   9.708   1.360  10.614
41617W        W 2983  21.023  16.244   3.242
41618W        W 2984  30.153  43.824  10.632
41619W        W 2985  27.148  38.447  13.382
41620W        W 2986   5.870  32.634   0.339
41621W        W 2987  35.526  16.675  13.486
41622W        W 2988  44.848  34.597   4.609
41623W        W 2989  27.649  29.652  11.480
41624W        W 2990  22.605  29.636   5.092
41625W        W 2991  37.027   5.234   2.390
41626W        W 2992   0.450   5.770   3.835
41627W        W 2993  37.012  25.055  13.413
41628W        W 2994  38.871  15.609  11.401
41629W        W 2995  43.783  44.351   0.384
41630W        W 2996  25.605  26.678   3.322
41631W        W 2997  10.185  26.631  10.416
41632W        W 2998  22.040  22.232  11.954
41633W        W 2999   3.364  37.014   0.454
41634W        W 3000  11.695   1.469   0.309
41635W        W 3001   5.855  35.495   1.749
41636W        W 3002  30.038  38.547   3.278
41637W        W 3003  31.006   0.300   0.953
41638W        W 3004  18.274  44.846   1.430
41639W        W 3005   9.840  40.489  14.318
41640W        W 3006   6.743   6.701  13.967
41641W        W 3007   6.708  33.469  14.989
41642W        W 3008  12.830  30.086  11.922
41643W        W 3009  39.901  26.671  13.388
41644W        W 3010  10.207   7.275  14.815
41645W        W 3011  23.190  24.495   2.213
41646W        W 3012  35.001  15.820   1.310
41647W        W 3013  18.223  26.620  13.032
41648W        W 3014  42.005  39.875  11.104
41649W        W 3015  20.106  21.230   4.272
41650W        W 3016  26.478  40.303   4.704
41651W        W 3017  10.137  42.859   1.429
41652W        W 3018  28.136  19.610  10.569
41653W        W 3019  19.088  30.441  14.351
41654W        W 3020  15.682  42.849  12.906
41655W        W 3021  24.085  18.573   4.354
41656W        W 3022   6.372  34.419   2.721
41657W        W 3023  12.687  20.047  14.299
41658W        W 3024  11.242  13.190  14.028
41659W        W 3025   9.211  43.869  11.055
41660W        W 3026  11.649  36.918  12.848
41661W        W 3027  35.879  24.979  11.497
41662W        W 3028   0.902  25.066   0.832
41663W        W 3029   2.315  35.038   3.369
41664W        W 3030  13.273   3.807   3.214
41665W        W 3031   2.748  12.830   2.301
41666W        W 3032   7.398  18.276  13.373
41667W        W 3033  14.764  12.362   4.812
41668W        W 3034  41.473  12.260   3.697
41669W        W 3035  37.457   1.277   4.646
41670W        W 3036  35.379  21.018  10.118
41671W        W 3037  43.972  37.455  13.999
41672W        W 3038  34.938  17.242   5.163
41673W        W 3039  29.144  37.357  10.075
41674W        W 3040  13.201  34.011  12.003
41675W        W 3041  25.161  38.971   3.748
41676W        W 3042   5.918  15.649   4.605
41677W        W 3043   8.291  16.582   4.601
41678W        W 3044  16.773   7.187   4.773
41679W        W 3045  41.957   8.819   4.310
41680W        W 3046  16.651  27.652   1.436
41681W        W 3047  24.513  30.163   4.790
41682W        W 3048   0.370  31.454   4.730
41683W        W 3049  17.759   4.321   4.290
41684W        W 3050  37.441  15.681  12.515
41685W        W 3051  31.561  15.260  12.451
41686W        W 3052   0.984  27.151   2.181
41687W        W 3053   1.878  28.944   0.885
41688W        W 3054  29.430  21.210   9.956
41689W        W 3055  22.089  14.302  10.524
41690W        W 3056  12.325   5.812  11.969
41691W        W 3057  12.823  25.168  13.046
41692W        W 3058   8.302   7.798  11.048
41693W        W 3059  24.674  11.769   2.292
41694W        W 3060   9.762  10.379  11.867
41695W        W 3061  22.654  35.948   3.833
41696W        W 3062  40.934  13.711   1.748
41697W        W 3063  33.879  41.983   1.341
41698W        W 3064  17.763  43.766  11.553
41699W        W 3065  40.054  10.378   3.755
41700W        W 3066  43.468  14.670  13.056
41701W        W 3067  12.208  10.171  14.362
41702W        W 3068  18.682  13.669  14.938
41703W        W 3069  31.036  40.840   1.865
41704W        W 3070  25.505  12.838   3.649
41705W        W 3071  31.937  31.425  10.909
41706W        W 3072   3.891  43.850   4.625
41707W        W 3073  14.300  24.529  13.324
41708W        W 3074  20.189  16.295  13.462
41709W        W 3075  40.935  24.131  13.957
41710W        W 3076  13.612  31.944   3.643
41711W        W 3077  14.186  16.162  11.548
41712W        W 3078  34.077  11.631   1.805
41713W        W 3079  11.140   9.232  14.511
41714W        W 3080  42.308  38.993  13.861
41715W        W 3081  34.511  25.968  11.105
41716W        W 3082   5.690  24.170  10.542
41717W        W 3083  31.463  31.121  11.418
41718W        W 3084  34.601  16.759  13.064
41719W        W 3085  14.101  37.441   0.933
41720W        W 3086  18.651  34.944  13.808
41721W        W 3087  28.583  16.764   4.125
41722W        W 3088  44.754   3.884  10.517
41723W        W 3089   3.441  44.328   0.331
41724W        W 3090  11.316  25.213  13.441
41725W        W 3091   4.249   6.222  11.419
41726W        W 3092  44.924  30.529   4.815
41727W        W 3093  11.211  32.958  12.467
41728W        W 3094  23.699  20.549  10.498
41729W        W 3095  35.052  32.898   2.729
41730W        W 3096  10.209  12.236  10.918
41731W        W 3097  43.940   2.855  13.811
41732W        W 3098  33.921  39.867  12.497
41733W        W 3099  31.950  44.917   4.631
41734W        W 3100  38.008   2.384   0.758
41735W        W 3101   6.803  37.339  10.614
41736W        W 3102   5.435  32.111  12.465
41737W        W 3103  17.276  38.915  14.851
41738W        W 3104  27.155   4.245   4.157
41739W        W 3105  11.312  11.349   4.674
41740W        W 3106  36.467   9.316  13.047
41741W        W 3107   7.299  22.710  13.836
41742W        W 3108  32.435  18.708   4.171
41743W        W 3109  39.403  21.204  12.963
41744W        W 3110   4.840  36.555   2.783
41745W        W 3111  23.231  35.084  14.448
41746W        W 3112  13.643   3.773   1.358
41747W        W 3113  42.861  30.485  13.491
41748W        W 3114  19.623   6.703  13.891
41749W        W 3115  43.788  24.031  11.612
41750W        W 3116  36.406  17.165  10.970
41751W        W 3117  31.118  28.016  13.377
41752W        W 3118  24.046  23.069  13.398
41753W        W 3119  32.628  42.446  10.638
41754W        W 3120   1.947  23.160   3.663
41755W        W 3121  11.659  18.658  11.397
41756W        W 3122  27.502  17.596   0.929
41757W        W 3123  24.142  10.149   3.712
41758W        W 3124  28.950  23.227  13.838
41759W        W 3125  31.903   4.750   2.793
41760W        W 3126  26.644  44.989   2.398
41761W        W 3127  39.495  37.443  13.012
41762W        W 3128  29.597   8.818  12.883
41763W        W 3129  37.507  15.196  13.810
41764W        W 3130  19.622  12.284   4.690
41765W        W 3131  31.409  42.389   1.304
41766W        W 3132  22.042  42.347   4.620
41767W        W 3133   9.170  42.507  12.911
41768W        W 3134  34.103  34.412   1.451
41769W        W 3135  34.905  30.963  12.986
41770W        W 3136  14.157  11.360   4.142
41771W        W 3137  21.631  43.917  14.801
41772W        W 3138  39.545  33.397  14.777
41773W        W 3139  30.616  21.654   0.790
41774W        W 3140  38.062  36.999   4.635
41775W        W 3141  36.876  16.759  13.469
41776W        W 3142  44.350  17.159  12.467
41777W        W 3143  11.283  41.924   4.136
41778W        W 3144  39.036  14.211  10.617
41779W        W 3145  23.064   2.910  12.420
41780W        W 3146  38.908  41.509  10.503
41781W        W 3147  22.641  39.058   2.342
41782W        W 3148   2.822  28.155   0.342
41783W        W 3149  34.488   1.953  13.363
41784W        W 3150  35.523  25.147  13.352
41785W        W 3151  39.945  40.805   2.790
41786W        W 3152  44.386  12.795  10.025
41787W        W 3153  13.332  37.997  13.059
41788W        W 3154  38.380   5.793  14.277
41789W        W 3155   0.938  44.891  12.936
41790W        W 3156  35.463  21.611   0.263
41791W        W 3157  40.334  34.370  13.915
41792W        W 3158  15.286  35.960   2.201
41793W        W 3159  37.388   1.253   2.199
41794W        W 3160  27.592   8.790  13.471
41795W        W 3161  25.705  17.084   3.229
41796W        W 3162   9.829  23.234   2.376
41797W        W 3163  37.883  22.215  12.533
41798W        W 3164   1.399  26.616  13.435
41799W        W 3165  17.211  30.019   0.383
41800W        W 3166  26.184   9.701   3.293
41801W        W 3167  23.705  37.464   1.309
41802W        W 3168  31.648  23.718   2.298
41803W        W 3169  23.610  28.541  13.435
41804W        W 3170  22.741  37.377  10.514
41805W        W 3171  24.044  30.613  10.905
41806W        W 3172  44.887  41.394   0.311
41807W        W 3173  25.630  16.256   0.460
41808W        W 3174   2.342  28.943  14.465
41809W        W 3175  12.309  13.294   0.753
41810W        W 3176  34.371  23.018  10.525
41811W        W 3177  18.101  17.244   3.660
41812W        W 3178  18.611  14.182   2.232
41813W        W 3179  21.556  37.851  14.774
41814W        W 3180  19.618  29.089   1.747
41815W        W 3181   4.398  21.631   1.306
41816W        W 3182  17.262  31.008   3.205
41817W        W 3183  29.590  18.223   2.275
41818W        W 3184  38.516   6.297   1.447
41819W        W 3185  28.149  24.578   4.337
41820W        W 3186  37.877  21.033   4.614
41821W        W 3187  11.796  12.268   3.314
41822W        W 3188  35.432  13.627  13.018
41823W        W 3189  19.093   1.304   3.823
41824W        W 3190  34.607   4.348  13.515
41825W        W 3191   5.425  15.310   1.416
41826W        W 3192   4.816   1.470  11.466
41827W        W 3193  12.612  35.995   2.807
41828W        W 3194  11.743  32.067   2.777
41829W        W 3195  34.369  30.446   2.667
41830W        W 3196  40.399  33.881  14.509
41831W        W 3197   7.251  11.779   4.809
41832W        W 3198  19.158  21.097  13.954
41833W        W 3199  44.355  18.074   2.260
41834W        W 3200   1.385  43.805   1.741
41835W        W 3201  27.003  32.955   1.351
41836W        W 3202  36.496  40.501   9.931
41837W        W 3203   0.359  30.009  12.870
41838W        W 3204  30.055   4.819  13.936
41839W        W 3205  14.828  32.624  12.029
41840W        W 3206  38.371  37.377  10.152
41841W        W 3207  22.513   3.227  11.503
41842W        W 3208  35.481   5.878  11.951
41843W        W 3209  14.102  16.795   1.308
41844W        W 3210   7.880  22.668  14.819
41845W        W 3211   2.862   9.362  11.542
41846W        W 3212  24.159  24.092   4.815
41847W        W 3213  15.192  35.576  12.938
41848W        W 3214   1.771  39.495   1.302
41849W        W 3215   8.761  41.994  12.035
41850W        W 3216   5.755  18.754  12.521
41851W        W 3217  28.592  44.991  11.587
41852W        W 3218  25.217   6.696  11.896
41853W        W 3219  31.005  11.332   0.765
41854W        W 3220   4.901   1.875   4.234
41855W        W 3221   0.395  33.525   2.297
41856W        W 3222  33.887  26.638   4.144
41857W        W 3223  30.095  14.705   3.378
41858W        W 3224  36.914  36.900   4.288
41859W        W 3225   1.482  32.442   1.260
41860W        W 3226  17.295  21.108   1.329
41861W        W 3227  18.089  25.604   1.287
41862W        W 3228  39.914  41.961  12.834
41863W        W 3229   3.789  36.856  13.430
41864W        W 3230   1.405   1.446   0.425
41865W        W 3231  30.042  11.713  14.847
41866W        W 3232   9.881  43.471  14.993
41867W        W 3233  36.506  21.200  10.606
41868W        W 3234  29.612  43.489  10.616
41869W        W 3235  32.547   6.771  11.390
41870W        W 3236  20.711  21.225  14.926
41871W        W 3237   0.279  22.245  12.020
41872W        W 3238  40.386  42.307  10.521
41873W        W 3239  40.508   8.667   5.128
41874W        W 3240  42.527   5.363  11.384
41875W        W 3241  16.289  23.185   1.339
41876W        W 3242  17.742  38.981   4.281
41877W        W 3243  41.412  14.282   4.281
41878W        W 3244  12.326  33.945   1.373
41879W        W 3245  29.036  14.224   4.715
41880W        W 3246  22.997  17.128  13.041
41881W        W 3247  40.830  20.249  11.485
41882W        W 3248  27.066  33.964   3.157
41883W        W 3249  33.433   5.257   0.435
41884W        W 3250  18.786  10.816  14.921
41885W        W 3251   7.373  14.326   3.183
41886W        W 3252   0.897  20.048   2.674
41887W        W 3253  14.695  35.906   1.884
41888W        W 3254  24.601  43.485  11.100
41889W        W 3255  23.663   4.757   0.287
41890W        W 3256  40.918  14.335   0.796
41891W        W 3257  43.816  25.506  11.608
41892W        W 3258  36.468  37.068  10.453
41893W        W 3259   7.228  19.576   1.839
41894W        W 3260  43.822   1.423   0.374
41895W        W 3261   9.393  10.314   0.436
41896W        W 3262  26.592  20.238   1.250
41897W        W 3263  24.546   9.278   0.882
41898W        W 3264  12.288  18.109  12.864
41899W        W 3265  37.563  33.381  13.485
41900W        W 3266  21.655  13.117  14.280
41901W        W 3267  40.044  20.710  11.947
41902W        W 3268  34.871  41.032   9.923
41903W        W 3269  19.765   2.423  10.585
41904W        W 3270  24.023  30.571  10.113
41905W        W 3271  40.425  10.757   1.392
41906W        W 3272   0.984  43.508   2.259
41907W        W 3273  44.287  28.127  14.390
41908W        W 3274   8.719   9.851   0.735
41909W        W 3275  15.181  28.096  13.525
41910W        W 3276  17.651  27.676   3.285
41911W        W 3277  17.632  17.719  11.938
41912W        W 3278  28.042  12.814   1.759
41913W        W 3279   0.775   1.971  13.503
41914W        W 3280   1.306  39.387   3.201
41915W        W 3281  38.368  29.441  11.383
41916W        W 3282  24.608  11.702   4.315
41917W        W 3283  36.922  17.577  10.642
41918W        W 3284  40.020  43.403  11.461
41919W        W 3285  30.089   6.726  12.830
41920W        W 3286  27.986  19.581  12.465
41921W        W 3287  43.818  14.334  13.973
41922W        W 3288  13.124  18.123   3.865
41923W        W 3289   4.396  42.458  13.523
41924W        W 3290  14.248   3.879  12.547
41925W        W 3291  42.775  35.055   2.415
41926W        W 3292  24.593  34.025   3.714
41927W        W 3293  16.285   8.788   3.736
41928W        W 3294  14.169  44.876   2.390
41929W        W 3295   9.808  12.848   4.317
41930W        W 3296  11.356   7.882  13.791
41931W        W 3297  41.293  42.976   3.371
41932W        W 3298   2.472   9.767   2.417
41933W        W 3299  12.312  29.629  10.938
41934W        W 3300   5.201   8.672   2.675
41935W        W 3301   1.944  26.656   2.745
41936W        W 3302   2.466   5.317   0.422
41937W        W 3303   5.934  34.977   3.848
41938W        W 3304  29.488  32.942  11.046
41939W        W 3305  33.881   7.262   4.270
41940W        W 3306   2.368  16.149  10.414
41941W        W 3307  31.071  43.839   0.863
41942W        W 3308  40.523  32.944  13.467
41943W        W 3309  28.032  35.595   4.651
41944W        W 3310   4.919  42.368   4.831
41945W        W 3311   5.403  14.339   1.826
41946W        W 3312  12.681  11.247   1.884
41947W        W 3313  38.540  41.031   2.366
41948W        W 3314  32.105  36.466  11.543
41949W        W 3315   1.932  10.878  13.039
41950W        W 3316  37.918   4.832   4.124
41951W        W 3317  18.069  19.539  14.420
41952W        W 3318   3.717  41.900   4.674
41953W        W 3319  40.421  18.626   2.792
41954W        W 3320  40.327  19.710   3.258
41955W        W 3321  21.719  17.715   4.612
41956W        W 3322  38.875   6.200   0.449
41957W        W 3323  41.408   5.899  14.999
41958W        W 3324  43.776  32.134   4.647
41959W        W 3325  19.175  30.029   2.697
41960W        W 3326  21.133   5.321   5.704
41961W        W 3327  27.559  18.592   1.403
41962W        W 3328  37.962  35.432   1.378
41963W        W 3329  29.647  14.729  13.427
41964W        W 3330  24.611  24.500   0.380
41965W        W 3331  25.098  12.280  11.069
41966W        W 3332   8.403  15.808  11.876
41967W        W 3333  24.491  30.491   2.848
41968W        W 3334  16.767  15.189  14.399
41969W        W 3335  43.869  22.606   1.388
41970W        W 3336  40.330  42.401  14.862
41971W        W 3337  38.340  24.530   2.891
41972W        W 3338  10.230  38.068   9.937
41973W        W 3339  41.949   5.908   0.746
41974W        W 3340   4.897  17.672   1.738
41975W        W 3341  18.786  44.426   2.853
41976W        W 3342   5.911  34.573  11.979
41977W        W 3343  35.366  19.133   3.844
41978W        W 3344  34.112  20.756   5.135
41979W        W 3345   5.358  17.571   4.788
41980W        W 3346  25.982  11.240   2.357
41981W        W 3347   6.182  31.475  14.882
41982W        W 3348  35.486  25.066  11.021
41983W        W 3349  10.351  32.395  12.068
41984W        W 3350  28.516   4.278   2.896
41985W        W 3351   0.788  20.266  12.472
41986W        W 3352  34.584  19.197  13.490
41987W        W 3353   8.228  34.104   0.292
41988W        W 3354  11.782  28.605  13.344
41989W        W 3355  18.278  36.457   5.276
41990W        W 3356  36.042  16.213  10.983
41991W        W 3357   3.732   5.328   3.661
41992W        W 3358  27.941  37.430  12.956
41993W        W 3359  27.462  39.923  11.994
41994W        W 3360  16.105   8.851  14.899
41995W        W 3361   2.954   0.356   2.717
41996W        W 3362  29.987  36.359   1.359
41997W        W 3363  39.051  20.536   3.363
41998W        W 3364  11.356  34.529   5.757
41999W        W 3365   1.307  24.706  14.810
42000W        W 3366  27.474  16.644   3.380
42001W        W 3367  40.809   1.846   0.467
42002W        W 3368  28.031  26.522  14.858
42003W        W 3369   7.362  13.199   4.606
42004W        W 3370  12.845  35.875  13.923
42005W        W 3371  27.992  18.161  11.866
42006W        W 3372   8.296   3.390   2.690
42007W        W 3373  24.999  29.606   4.614
42008W        W 3374  43.932  19.747   0.282
42009W        W 3375  38.532  26.021  10.919
42010W        W 3376  43.866  33.587   0.456
42011W        W 3377  14.640  38.373   2.900
42012W        W 3378  30.062  29.972  13.327
42013W        W 3379  41.993  35.907  10.008
42014W        W 3380   6.233  14.154   3.846
42015W        W 3381  44.813   8.254  10.540
42016W        W 3382  14.138  41.978   2.298
42017W        W 3383  32.932  25.528   1.327
42018W        W 3384  33.083  28.152   2.386
42019W        W 3385   5.930  22.519  10.444
42020W        W 3386   5.876   3.919   4.778
42021W        W 3387  35.095  11.137   0.289
42022W        W 3388  34.536   2.322   3.715
42023W        W 3389  19.777  17.798  13.319
42024W        W 3390  31.080   4.758   4.600
42025W        W 3391  41.930   2.364   1.840
42026W        W 3392   6.794  17.594   3.203
42027W        W 3393   0.450  43.474   3.210
42028W        W 3394  15.670   4.887   5.190
42029W        W 3395  14.644  25.092  14.840
42030W        W 3396  44.913  20.101  12.881
42031W        W 3397   6.381  32.452   3.291
42032W        W 3398  13.146  39.038  11.996
42033W        W 3399  19.671   0.879   2.722
42034W        W 3400   5.751   8.862   2.267
42035W        W 3401   9.790  23.670  14.952
42036W        W 3402  20.109  15.094  10.904
42037W        W 3403  12.814  38.359  13.339
42038W        W 3404  43.338   8.312   3.764
42039W        W 3405  29.446  44.937  13.454
42040W        W 3406   1.784  22.575   3.314
42041W        W 3407   6.197  43.372   4.687
42042W        W 3408  16.169  43.928   1.711
42043W        W 3409  10.148  23.597   5.098
42044W        W 3410  31.540  44.933  11.114
42045W        W 3411  32.942  34.009  11.106
42046W        W 3412  17.644  39.021  11.915
42047W        W 3413  37.959  19.071  13.856
42048W        W 3414  15.688  13.649   2.663
42049W        W 3415  37.891  20.259  10.465
42050W        W 3416   0.379  44.318  14.327
42051W        W 3417  12.791   0.463  13.446
42052W        W 3418  11.264  10.749  10.462
42053W        W 3419  10.220  23.493  12.963
42054W        W 3420   9.245  14.302   1.346
42055W        W 3421   1.796  24.026   5.199
42056W        W 3422   3.400   9.206   0.442
42057W        W 3423   4.871  41.449  11.894
42058W        W 3424  43.855  23.035   3.190
42059W        W 3425  42.892  44.302  13.327
42060W        W 3426  37.524  43.002  13.334
42061W        W 3427  23.505  38.829  13.517
42062W        W 3428  21.596  28.939  12.461
42063W        W 3429  14.832  17.061   4.158
42064W        W 3430   6.187  12.623  11.613
42065W        W 3431  17.252   5.368  11.985
42066W        W 3432   8.736  27.119   5.209
42067W        W 3433   6.748   6.364  13.914
42068W        W 3434  31.492  12.122  11.402
42069W        W 3435  36.460  36.465  13.807
42070W        W 3436  10.669  34.415   0.967
42071W        W 3437  40.390   1.390  13.372
42072W        W 3438  41.971   4.258   4.244
42073W        W 3439  35.520  29.623  11.493
42074W        W 3440   9.763   0.915  14.302
42075W        W 3441   0.806  27.083  10.458
42076W        W 3442  13.677  33.975   2.240
42077W        W 3443   1.372  37.444  13.397
42078W        W 3444  16.275  40.347   2.860
42079W        W 3445  32.392  22.657   1.402
42080W        W 3446  32.045  25.690  14.905
42081W        W 3447  39.985   5.899  14.358
42082W        W 3448  19.674  30.478   1.893
42083W        W 3449   7.803  32.622   3.664
42084W        W 3450  44.289  14.248   1.333
42085W        W 3451  41.874  13.317   1.785
42086W        W 3452  41.033  27.153   2.734
42087W        W 3453   2.392  26.133   0.902
42088W        W 3454  23.042   7.300   3.771
42089W        W 3455  11.274  40.887   0.454
42090W        W 3456   2.805   4.712  11.512
42091W        W 3457   6.311  12.753  12.993
42092W        W 3458  14.218  21.678  12.979
42093W        W 3459  44.293  35.583  10.472
42094W        W 3460  27.087  42.509  12.005
42095W        W 3461   5.315  42.364  13.537
42096W        W 3462  16.813   5.837  11.479
42097W        W 3463  39.829  16.143   1.763
42098W        W 3464  19.055  20.155   2.742
42099W        W 3465  38.002  30.453   5.233
42100W        W 3466  34.066  38.842   4.190
42101W        W 3467  31.076  28.938  10.440
42102W        W 3468  14.233   1.968  12.556
42103W        W 3469  20.116   2.787   4.710
42104W        W 3470  18.595  31.467  11.027
42105W        W 3471  42.444  40.923   2.867
42106W        W 3472  32.007   8.821  13.317
42107W        W 3473  31.936  21.699  14.966
42108W        W 3474  34.566   0.839  14.380
42109W        W 3475  17.559  38.931   4.701
42110W        W 3476  13.669  15.308   2.318
42111W        W 3477  18.647  39.947  11.855
42112W        W 3478  41.473  17.246   1.290
42113W        W 3479  29.996  24.103   2.258
42114W        W 3480  10.847  22.103   4.690
42115W        W 3481  27.126  40.984  13.333
42116W        W 3482  13.763  40.333  13.505
42117W        W 3483  44.461  30.436   3.715
42118W        W 3484  29.562  18.569   1.766
42119W        W 3485  23.593   1.274  12.021
42120W        W 3486  30.431  23.074  13.929
42121W        W 3487   0.359  32.633  11.936
42122W        W 3488  12.754  15.131  14.813
42123W        W 3489  22.087  39.858   1.899
42124W        W 3490  32.488  32.085   3.670
42125W        W 3491   6.774  23.050   3.196
42126W        W 3492   3.871  23.050  11.599
42127W        W 3493  11.366  31.050  10.618
42128W        W 3494  39.975  44.495   1.908
42129W        W 3495   5.849   8.358   2.402
42130W        W 3496  38.937  30.974   3.279
42131W        W 3497  24.126  12.848  13.965
42132W        W 3498   9.650   9.863  14.363
42133W        W 3499  28.470  35.887  14.778
42134W        W 3500  17.682  42.796  13.811
42135W        W 3501  37.474  15.778   2.662
42136W        W 3502  40.993  38.385   3.866
42137W        W 3503  13.694  40.405  11.561
42138W        W 3504  15.619  20.212  10.477
42139W        W 3505  14.745  39.317   3.707
42140W        W 3506  20.751  35.574  11.917
42141W        W 3507  15.235   9.866   2.683
42142W        W 3508  29.518   9.835  13.444
42143W        W 3509  36.475  33.550   2.244
42144W        W 3510  29.643   0.292   1.746
42145W        W 3511  29.134  34.949   2.699
42146W        W 3512  44.005   5.430  12.907
42147W        W 3513  40.403  27.053   4.606
42148W        W 3514  43.335   1.479   1.392
42149W        W 3515  41.986  44.495   2.222
42150W        W 3516  35.462  43.868   0.797
42151W        W 3517  40.004  26.492  12.074
42152W        W 3518   4.324  33.472   2.301
42153W        W 3519   3.408  40.321   4.779
42154W        W 3520  13.668  16.750   1.282
42155W        W 3521  35.053  26.119   2.412
42156W        W 3522  38.369  24.129  11.927
42157W        W 3523  29.033  13.215   3.738
42158W        W 3524  16.180  13.255   0.369
42159W        W 3525  12.787  35.078  13.995
42160W        W 3526  41.354  10.311   0.822
42161W        W 3527  34.571  29.430  14.772
42162W        W 3528  42.283   7.306  14.859
42163W        W 3529  37.021  14.220  12.499
42164W        W 3530  13.275  18.628  14.382
42165W        W 3531  17.608  35.996   1.402
42166W        W 3532  38.501  23.564   1.814
42167W        W 3533  31.054  33.903   3.149
42168W        W 3534  30.597   3.271   4.123
42169W        W 3535  11.703  15.744   4.244
42170W        W 3536  18.095  12.684   1.734
42171W        W 3537  44.810  25.169   3.349
42172W        W 3538  38.827  15.647  14.345
42173W        W 3539  23.516   5.258   3.687
42174W        W 3540  22.653   1.749  12.857
42175W        W 3541   7.212  42.487   3.812
42176W        W 3542   8.303   6.380  11.948
42177W        W 3543  10.763  31.502  13.464
42178W        W 3544  21.710  19.277   0.762
42179W        W 3545  32.070  32.597   2.351
42180W        W 3546   2.777  28.618  11.424
42181W        W 3547  31.987   0.802   5.188
42182W        W 3548  43.861  34.977  13.851
42183W        W 3549  14.742  17.109  12.947
42184W        W 3550   2.798   3.242   0.764
42185W        W 3551  31.979   5.718  14.855
42186W        W 3552  19.573  23.205   2.360
42187W        W 3553  16.223  36.036   2.664
42188W        W 3554  34.538  17.201  14.761
42189W        W 3555  43.350   7.383  10.572
42190W        W 3556  35.495  40.887   2.224
42191W        W 3557  23.518  38.909  11.866
42192W        W 3558  14.697  27.024   4.277
42193W        W 3559  17.587  29.168  12.848
42194W        W 3560  40.961  33.005   0.349
42195W        W 3561  29.112  11.717  12.378
42196W        W 3562   9.224  28.602  13.976
42197W        W 3563  13.624  36.066  11.048
42198W        W 3564  22.101  38.330  10.424
42199W        W 3565  20.210   4.804  12.377
42200W        W 3566  22.217  12.622  11.008
42201W        W 3567  21.130  16.682   4.757
42202W        W 3568  19.708  27.942   1.428
42203W        W 3569   1.465  43.919  11.600
42204W        W 3570  25.467  36.871  12.844
42205W        W 3571  22.116  36.474  12.884
42206W        W 3572  35.885  27.522   2.851
42207W        W 3573  15.748  33.546   3.229
42208W        W 3574  42.335  22.524  14.299
42209W        W 3575  12.337  22.246  12.991
42210W        W 3576  12.241  34.498   0.844
42211W        W 3577  29.597  11.646   9.923
42212W        W 3578   1.343   7.299  12.355
42213W        W 3579   1.342  25.673   9.989
42214W        W 3580  18.714  22.066  12.514
42215W        W 3581  35.917  40.463   2.361
42216W        W 3582  40.304   2.289   2.755
42217W        W 3583  35.903  36.950  10.936
42218W        W 3584  20.639  43.339  11.985
42219W        W 3585  42.836  39.334  14.439
42220W        W 3586  16.661   8.239   3.214
42221W        W 3587  10.778   3.272   0.780
42222W        W 3588   8.861  44.839  12.541
42223W        W 3589  26.658  15.606  13.994
42224W        W 3590  19.595  30.482  14.396
42225W        W 3591  28.456  18.552  14.761
42226W        W 3592   6.887  19.572   4.792
42227W        W 3593  23.063  38.396   3.805
42228W        W 3594  16.071  22.672  11.030
42229W        W 3595  23.567  22.577   3.695
42230W        W 3596  41.309  30.990  11.584
42231W        W 3597  21.697   8.755  12.870
42232W        W 3598  42.820  25.014  12.025
42233W        W 3599  25.560  23.658   0.314
42234W        W 3600  28.115  14.625  12.969
42235W        W 3601  17.174   1.835   3.314
42236W        W 3602   3.297   6.767   2.295
42237W        W 3603   6.313  27.960   0.830
42238W        W 3604  11.839  24.545  10.568
42239W        W 3605  25.677  43.274   2.297
42240W        W 3606  30.117   8.697  10.613
42241W        W 3607  30.141  35.952  12.984
42242W        W 3608  40.411  19.734   1.866
42243W        W 3609  17.205  23.087  12.448
42244W        W 3610   9.647  19.696   4.168
42245W        W 3611  23.609  34.559  12.413
42246W        W 3612  28.555  39.431  11.605
42247W        W 3613  24.686   1.359   5.283
42248W        W 3614  34.459  15.138   2.675
42249W        W 3615  37.490   7.668   3.218
42250W        W 3616   6.242  33.059  10.610
42251W        W 3617  25.658   9.228  13.894
42252W        W 3618   4.223  41.020   0.354
42253W        W 3619  44.297  16.107  13.812
42254W        W 3620  33.091   3.217   2.667
42255W        W 3621  40.847  35.862   4.804
42256W        W 3622  23.060   5.819  12.401
42257W        W 3623  11.796   8.862  10.950
42258W        W 3624  10.713  12.140   2.690
42259W        W 3625  38.404  42.782   0.782
42260W        W 3626  33.973  11.195   2.684
42261W        W 3627  40.453  38.012  13.814
42262W        W 3628   5.844  37.457   2.336
42263W        W 3629  40.467  44.469   9.942
42264W        W 3630  22.177  43.410   2.673
42265W        W 3631   0.908  17.741  13.886
42266W        W 3632  42.785   7.377   4.661
42267W        W 3633   8.332  25.664   4.712
42268W        W 3634   7.351   3.283  13.042
42269W        W 3635  27.690  30.491   1.697
42270W        W 3636  28.933  11.787  14.898
42271W        W 3637  33.999  29.999   4.670
42272W        W 3638  13.681  39.059  12.931
42273W        W 3639  30.990  25.516   1.826
42274W        W 3640  28.471  16.689   3.329
42275W        W 3641  42.396  10.686  14.369
42276W        W 3642  42.833   7.700   4.721
42277W        W 3643  14.110  20.245  14.913
42278W        W 3644  20.610  27.054  14.415
42279W        W 3645   6.305  17.717  14.927
42280W        W 3646  37.083   7.911   0.856
42281W        W 3647   0.745  14.322   0.751
42282W        W 3648  13.799   6.295  13.029
42283W        W 3649  32.596  43.350  14.332
42284W        W 3650  16.274   6.260   1.312
42285W        W 3651   2.923  43.278  11.911
42286W        W 3652  40.052  27.513   3.660
42287W        W 3653  19.238   3.952  14.511
42288W        W 3654  16.643   6.310   0.301
42289W        W 3655  16.159   3.892  11.390
42290W        W 3656  44.951  12.726   3.780
42291W        W 3657  11.845  31.518   1.382
42292W        W 3658  10.246  11.771   0.808
42293W        W 3659  18.114  38.984   3.668
42294W        W 3660  10.323  33.621   1.750
42295W        W 3661  36.551  14.274   3.199
42296W        W 3662  21.019   0.452   1.312
42297W        W 3663  40.953  41.986   3.333
42298W        W 3664  10.720  24.625  14.385
42299W        W 3665   7.877  28.638   1.876
42300W        W 3666  29.596  36.935  14.848
42301W        W 3667   0.275  17.184  12.504
42302W        W 3668  31.142  11.224  14.407
42303W        W 3669  24.219   7.793  10.091
42304W        W 3670  19.730  18.743   4.148
42305W        W 3671  10.859  11.789  12.411
42306W        W 3672  38.071   9.765  12.471
42307W        W 3673   7.341  44.959  12.509
42308W        W 3674  42.502   7.871  14.017
42309W        W 3675   1.807  27.675   1.287
42310W        W 3676  31.072  30.452   0.461
42311W        W 3677  25.132   9.801   1.318
42312W        W 3678  37.943  40.025   3.159
42313W        W 3679   1.742  38.954   3.307
42314W        W 3680  35.016  32.476   3.247
42315W        W 3681  21.646  22.190   2.361
42316W        W 3682  18.615   4.744   2.759
42317W        W 3683   2.365  22.682   5.199
42318W        W 3684  37.403  29.597  13.794
42319W        W 3685   0.846  22.081  14.367
42320W        W 3686  17.258  43.276  13.905
42321W        W 3687   3.366  10.233  10.622
42322W        W 3688   1.930   0.429  13.547
42323W        W 3689  10.633  28.474   3.172
42324W        W 3690   5.313   0.391   0.363
42325W        W 3691  14.127   2.735  12.341
42326W        W 3692  42.351  28.654   4.201
42327W        W 3693  35.602  29.504   3.657
42328W        W 3694  30.999  21.075   2.810
42329W        W 3695  13.775  13.842   3.651
42330W        W 3696  35.380   5.264   0.873
42331W        W 3697  27.148   8.360   2.831
42332W        W 3698  34.975  43.767   1.311
42333W        W 3699   4.398  41.306  11.081
42334W        W 3700   0.293   9.180  13.902
42335W        W 3701  36.949  11.169   1.838
42336W        W 3702   0.492  13.289   3.869
42337W        W 3703  15.199   7.788  11.866
42338W        W 3704  30.602  34.910  11.864
42339W        W 3705  20.711  18.153  11.498
42340W        W 3706  37.429  38.328   2.695
42341W        W 3707  35.007  33.388  12.447
42342W        W 3708  21.645  19.278  13.544
42343W        W 3709  41.882   4.929  10.450
42344W        W 3710  26.596  27.075  14.482
42345W        W 3711  12.344   8.758   4.258
42346W        W 3712  38.823  36.030   4.697
42347W        W 3713  14.634  35.539  11.024
42348W        W 3714  26.683  22.171  14.839
42349W        W 3715  38.372  16.809  14.906
42350W        W 3716   2.790   2.956  10.013
42351W        W 3717  33.896  38.447  12.985
42352W        W 3718   8.266   2.929  12.434
42353W        W 3719   9.753  10.658   2.184
42354W        W 3720   2.815  23.099  12.857
42355W        W 3721   2.847  42.475  11.497
42356W        W 3722  10.278  12.856  11.968
42357W        W 3723   5.331  42.368   3.736
42358W        W 3724  34.554  40.997  10.897
42359W        W 3725   5.195  41.961  11.065
42360W        W 3726  37.847  28.112   1.302
42361W        W 3727   2.375  33.007  10.642
42362W        W 3728   5.319  38.919  10.020
42363W        W 3729  34.021  20.047  13.979
42364W        W 3730  35.373  11.760  13.915
42365W        W 3731  36.429  21.239   3.334
42366W        W 3732  32.408  14.184  14.307
42367W        W 3733   6.760  41.331  13.328
42368W        W 3734  39.481   3.320  11.104
42369W        W 3735  24.629   0.398   0.889
42370W        W 3736   7.325   5.842   2.408
42371W        W 3737  13.630  44.010  13.957
42372W        W 3738  34.104   3.416   1.930
42373W        W 3739   5.414  40.823  13.863
42374W        W 3740  41.845   3.346  11.447
42375W        W 3741  25.090  15.163  13.369
42376W        W 3742   7.687  25.519   1.320
42377W        W 3743   0.315  40.312   1.706
42378W        W 3744  41.387   6.394   3.816
42379W        W 3745  17.089  31.044   4.349
42380W        W 3746  29.655  12.719  11.117
42381W        W 3747  41.514  29.624   3.311
42382W        W 3748  21.576  35.556   3.180
42383W        W 3749  25.593  42.525  11.538
42384W        W 3750  27.451  43.307  12.828
42385W        W 3751  12.776  27.055   1.874
42386W        W 3752  41.834  41.802  11.990
42387W        W 3753  38.843   6.422   2.321
42388W        W 3754  19.702   5.224  13.382
42389W        W 3755  36.399   3.278  10.130
42390W        W 3756  38.834  42.794   2.751
42391W        W 3757  39.469  26.485  14.446
42392W        W 3758  40.982  26.469  14.811
42393W        W 3759  27.980  15.199  11.594
42394W        W 3760  36.940  17.660  13.985
42395W        W 3761   7.736   5.259   0.396
42396W        W 3762  20.152  10.774   1.266
42397W        W 3763  41.996  27.168   1.360
42398W        W 3764  14.282  33.063   1.425
42399W        W 3765  41.526  21.703   0.815
42400W        W 3766   5.817  43.988   0.924
42401W        W 3767  22.571  30.531  11.905
42402W        W 3768  42.888  37.966  12.962
42403W        W 3769  36.901  12.162   4.691
42404W        W 3770  34.445  31.523   2.210
42405W        W 3771  29.451  42.357   0.412
42406W        W 3772   2.725   5.333  10.159
42407W        W 3773  29.988  43.851   0.325
42408W        W 3774   8.873  10.764  12.409
42409W        W 3775  44.279  20.631   0.808
42410W        W 3776  31.005  24.719  14.314
42411W        W 3777  32.625  30.016   2.209
42412W        W 3778   2.781  14.107  14.852
42413W        W 3779   4.210  22.140   3.763
42414W        W 3780   2.936   1.473   1.704
42415W        W 3781  11.157  14.218   2.386
42416W        W 3782  31.416  32.102   3.254
42417W        W 3783   4.761  18.789  14.966
42418W        W 3784  16.252  37.886   1.827
42419W        W 3785  42.302  25.181   2.704
42420W        W 3786  37.519   9.649   1.924
42421W        W 3787   7.393   9.664  12.910
42422W        W 3788  25.015  38.069  10.987
42423W        W 3789   9.839   6.370  13.502
42424W        W 3790  36.067  18.120  10.493
42425W        W 3791  40.515  22.697   5.177
42426W        W 3792  20.640  20.541  11.438
42427W        W 3793  26.466  21.141   1.934
42428W        W 3794  29.495  22.694   2.320
42429W        W 3795   7.226  43.499   4.734
42430W        W 3796  42.934   3.440   5.153
42431W        W 3797  19.628  22.745   5.230
42432W        W 3798  18.645   7.821   1.347
42433W        W 3799   0.478  34.982   0.779
42434W        W 3800  16.173  32.530   3.161
42435W        W 3801  31.059  37.010  13.831
42436W        W 3802  24.683  10.232   4.265
42437W        W 3803  32.535  31.493   4.682
42438W        W 3804  44.917  12.258   1.262
42439W        W 3805  30.907  22.237   9.569
42440W        W 3806  29.596  14.753  14.283
42441W        W 3807  25.031  42.946  11.503
42442W        W 3808  10.236  38.825   3.838
42443W        W 3809  31.056  39.364  11.919
42444W        W 3810  21.708  11.731  14.384
42445W        W 3811  40.860  33.519   2.785
42446W        W 3812  42.918  19.592   2.224
42447W        W 3813  32.134   2.467  14.987
42448W        W 3814  35.043  26.138   1.369
42449W        W 3815   4.363   8.786   1.338
42450W        W 3816  40.824   6.676  11.395
42451W        W 3817  24.697  39.465  14.863
42452W        W 3818  22.242  32.465   5.114
42453W        W 3819  30.504  18.249   0.873
42454W        W 3820   3.903  35.094  14.953
42455W        W 3821  10.700  18.723   3.871
42456W        W 3822  38.978   8.891   2.293
42457W        W 3823  12.671  12.811   2.780
42458W        W 3824  41.443  33.551   2.314
42459W        W 3825  16.280  41.402  12.922
42460W        W 3826   9.348  19.554   4.815
42461W        W 3827  23.624  21.167  12.470
42462W        W 3828  41.522  20.053  10.408
42463W        W 3829  20.249   2.724   3.368
42464W        W 3830  41.023  14.626   3.320
42465W        W 3831  23.213   6.322   3.699
42466W        W 3832  11.789  34.444   3.730
42467W        W 3833   6.220  38.825  10.897
42468W        W 3834  37.466  27.991  11.980
42469W        W 3835   1.790  29.937  10.063
42470W        W 3836   1.970  28.518  13.011
42471W        W 3837   3.261  31.553  14.898
42472W        W 3838   2.909  43.784  13.985
42473W        W 3839   4.928  26.673   2.671
42474W        W 3840  15.229  13.237  13.526
42475W        W 3841  33.095  28.555   0.369
42476W        W 3842  27.488  24.510   2.203
42477W        W 3843   8.393   5.811   3.169
42478W        W 3844   3.295  11.132  14.927
42479W        W 3845   5.690  27.468   0.903
42480W        W 3846  35.577  11.637  10.436
42481W        W 3847  17.701   8.262   1.243
42482W        W 3848   5.211  33.541   0.770
42483W        W 3849  34.920  44.389  12.524
42484W        W 3850  43.448  26.145   0.327
42485W        W 3851   1.352  42.371  12.876
42486W        W 3852  29.431  38.327   4.189
42487W        W 3853  14.777   2.958   2.849
42488W        W 3854  10.866  14.752  13.885
42489W        W 3855  33.072  24.640   0.342
42490W        W 3856  12.132  34.046  13.029
42491W        W 3857  13.140  19.105  11.904
42492W        W 3858  33.884  38.057   1.882
42493W        W 3859  34.878  39.811   3.690
42494W        W 3860  15.779   8.174   3.252
42495W        W 3861  30.074  40.499   2.275
42496W        W 3862  35.909  43.463   2.693
42497W        W 3863   8.700  16.632  10.121
42498W        W 3864  15.719  36.073  13.347
42499W        W 3865  43.995   7.396   2.842
42500W        W 3866  21.252  18.576  13.465
42501W        W 3867  44.346  40.326  13.342
42502W        W 3868  15.146   1.897  10.480
42503W        W 3869  22.601  28.033   4.324
42504W        W 3870  38.481   4.284  12.955
42505W        W 3871  38.935  10.662   0.390
42506W        W 3872  16.128  34.910   0.815
42507W        W 3873  23.673   9.736  14.333
42508W        W 3874  13.202  31.532   3.859
42509W        W 3875  32.058  37.059   3.211
42510W        W 3876  10.312  19.091  12.912
42511W        W 3877  12.855  20.643  13.966
42512W        W 3878  27.652  17.288  12.463
42513W        W 3879  34.919  17.274  11.034
42514W        W 3880  28.471  26.648  10.514
42515W        W 3881  43.980  11.737  12.481
42516W        W 3882   2.902  11.350   1.303
42517W        W 3883  11.633  27.972   2.300
42518W        W 3884  19.104   4.710   0.838
42519W        W 3885  39.314   3.425  12.025
42520W        W 3886   2.890  20.179  12.900
42521W        W 3887  26.062  17.077   1.254
42522W        W 3888  21.552   0.880   1.245
42523W        W 3889  28.666  39.556   1.702
42524W        W 3890  39.468  18.110  11.529
42525W        W 3891  14.166  17.778   4.766
42526W        W 3892  26.979   8.883   2.888
42527W        W 3893  16.191   8.262  12.021
42528W        W 3894  11.331   3.903  12.843
42529W        W 3895   5.812   6.249  11.598
42530W        W 3896  29.167   8.679  11.508
42531W        W 3897  15.297   8.304   1.226
42532W        W 3898   4.419  16.783  10.032
42533W        W 3899  26.594  12.792   3.727
42534W        W 3900  19.654  38.989  11.521
42535W        W 3901  32.987   8.751   2.242
42536W        W 3902  22.562  40.535   5.081
42537W        W 3903  29.086  23.653   2.275
42538W        W 3904  26.118  38.862   0.312
42539W        W 3905   6.416  30.622  14.446
42540W        W 3906   6.824   8.657   2.769
42541W        W 3907  12.739  23.162  12.025
42542W        W 3908  25.649  19.130   0.434
42543W        W 3909  32.056  39.929   1.397
42544W        W 3910  27.014  43.419   3.317
42545W        W 3911  13.204  15.299  13.328
42546W        W 3912  14.809  26.058   4.210
42547W        W 3913  35.932  16.794   2.750
42548W        W 3914  22.535  16.203   3.849
42549W        W 3915  43.882  10.875   4.721
42550W        W 3916  37.476  17.692  12.926
42551W        W 3917   3.424  35.463  12.472
42552W        W 3918  41.794  39.556  11.425
42553W        W 3919  18.080  36.904   0.867
42554W        W 3920  32.631  32.582  11.608
42555W        W 3921  10.721  27.467  13.846
42556W        W 3922  12.335  13.164  10.960
42557W        W 3923  14.805  17.598  13.414
42558W        W 3924  36.413  20.603  10.913
42559W        W 3925  37.942  19.573  14.434
42560W        W 3926  29.667  30.023  11.472
42561W        W 3927  29.992  31.500   1.323
42562W        W 3928  29.548  42.878   1.709
42563W        W 3929  44.920   7.872   1.757
42564W        W 3930  20.037  24.523   4.620
42565W        W 3931  41.368   9.361  11.597
42566W        W 3932  34.893  38.539   0.858
42567W        W 3933   4.307  42.403  12.045
42568W        W 3934  19.149  22.523   0.391
42569W        W 3935  23.516   3.284  10.516
42570W        W 3936  23.048  14.167  14.914
42571W        W 3937  11.314  12.661   3.174
42572W        W 3938   4.426  34.023   4.174
42573W        W 3939  41.967  10.369   2.213
42574W        W 3940   9.735  43.474   3.820
42575W        W 3941  16.786  11.819  10.972
42576W        W 3942   2.728   1.887   2.236
42577W        W 3943  18.676   9.724   4.709
42578W        W 3944  33.438  25.178  12.904
42579W        W 3945  18.638  36.448   1.240
42580W        W 3946  36.537  35.080  13.537
42581W        W 3947  16.121  29.963  10.943
42582W        W 3948  43.481  27.971  14.012
42583W        W 3949  35.463  23.138   0.467
42584W        W 3950  12.843  21.060   0.385
42585W        W 3951  40.459  14.267   4.608
42586W        W 3952  31.947   2.965   3.832
42587W        W 3953   3.312  35.434   2.345
42588W        W 3954  25.983  42.847  10.540
42589W        W 3955   2.772  23.645  13.818
42590W        W 3956  15.131  31.997  13.499
42591W        W 3957  37.555  26.009  11.903
42592W        W 3958  30.094  23.626  13.449
42593W        W 3959  15.321   5.699   4.785
42594W        W 3960  21.627  34.461  10.549
42595W        W 3961  20.626  42.389   4.812
42596W        W 3962  22.129  11.714  10.942
42597W        W 3963   1.419  35.508   4.640
42598W        W 3964  30.494  28.178   0.338
42599W        W 3965  18.089  10.762   3.240
42600W        W 3966  35.453  23.190   0.932
42601W        W 3967  18.698  36.478   9.608
42602W        W 3968  34.490  32.614   0.790
42603W        W 3969  41.442  18.560   3.179
42604W        W 3970   7.909  19.571   5.220
42605W        W 3971  37.462   1.908   4.679
42606W        W 3972  21.184  22.642  10.985
42607W        W 3973  16.642  29.532   1.799
42608W        W 3974  44.856  30.975   0.761
42609W        W 3975  14.289   6.715   1.849
42610W        W 3976  27.514  29.555   4.811
42611W        W 3977  10.271   5.915  13.039
42612W        W 3978   7.733  15.090  10.593
42613W        W 3979  15.613  12.856   4.654
42614W        W 3980   8.678   4.729  12.467
42615W        W 3981   4.318   3.409  14.032
42616W        W 3982   5.914  16.795   0.933
42617W        W 3983  28.095  43.900  13.889
42618W        W 3984   3.951  19.078   0.776
42619W        W 3985   4.847   2.383   3.641
42620W        W 3986  10.771  35.968   4.739
42621W        W 3987  43.333   7.881   0.476
42622W        W 3988  32.992   5.760   4.269
42623W        W 3989  19.047  43.879  14.856
42624W        W 3990  21.236   5.412   1.279
42625W        W 3991  16.159   9.765  14.938
42626W        W 3992  30.144  27.160  12.086
42627W        W 3993  43.955  33.433  12.964
42628W        W 3994   0.870  13.135  11.913
42629W        W 3995  27.479  34.017   0.894
42630W        W 3996  13.687   5.393  13.837
42631W        W 3997  16.776  15.293   2.411
42632W        W 3998  29.159  14.282   3.766
42633W        W 3999   5.200  14.238  10.455
42634W        W 4000  35.462   7.172  14.274
42635W        W 4001  18.234   8.691  12.924
42636W        W 4002   0.446  15.731  12.997
42637W        W 4003   6.900  35.597   1.873
42638W        W 4004  13.651   3.413  13.879
42639W        W 4005  13.172  13.769   3.828
42640W        W 4006  31.491  42.956   0.325
42641W        W 4007  25.640  13.206   4.224
42642W        W 4008  32.042  35.581  12.072
42643W        W 4009   9.661  37.445  11.499
42644W        W 4010  31.624  33.039   3.320
42645W        W 4011   7.220  17.558   0.931
42646W        W 4012  23.597  40.534  12.975
42647W        W 4013  18.557   7.400   0.432
42648W        W 4014  38.985  12.122   0.868
42649W        W 4015  20.149   9.714  10.640
42650W        W 4016  38.410  42.819   2.892
42651W        W 4017  32.567  15.098  11.087
42652W        W 4018  33.594  30.563   4.628
42653W        W 4019   7.369  12.644  10.493
42654W        W 4020  13.683   6.354   3.768
42655W        W 4021  26.019  37.495  12.471
42656W        W 4022  14.597  31.078  13.508
42657W        W 4023   1.277  34.557   1.704
42658W        W 4024  41.414  30.601  12.547
42659W        W 4025  12.788   6.381   1.407
42660W        W 4026  17.121  40.317   1.805
42661W        W 4027  41.826  39.860   1.420
42662W        W 4028  24.526  13.204   3.747
42663W        W 4029   8.397  16.234   3.654
42664W        W 4030  20.613   8.772  13.441
42665W        W 4031  22.223  40.849  13.344
42666W        W 4032  31.943  33.006  11.556
42667W        W 4033  26.609  19.589  11.465
42668W        W 4034   2.824   5.734  11.488
42669W        W 4035  43.396  24.564   2.765
42670W        W 4036  19.237  38.941   1.900
42671W        W 4037   3.789  17.686  12.479
42672W        W 4038   0.352   4.306  13.377
42673W        W 4039   2.238   0.319   4.716
42674W        W 4040  41.482   1.482   2.405
42675W        W 4041   3.922  14.272  12.390
42676W        W 4042   1.868  40.025   2.333
42677W        W 4043  38.932  10.746  12.520
42678W        W 4044  27.621  32.944  11.583
42679W        W 4045   9.778  41.910   0.303
42680W        W 4046   1.879  15.298   4.273
42681W        W 4047  14.791   5.432  10.986
42682W        W 4048   9.364   1.816   0.817
42683W        W 4049   6.748   1.437  14.491
42684W        W 4050  11.822  24.701  14.409
42685W        W 4051  26.513  30.481  11.008
42686W        W 4052  24.160  41.858   0.936
42687W        W 4053  37.461   6.694   1.442
42688W        W 4054  16.787  26.564  11.420
42689W        W 4055   4.892   8.794  10.919
42690W        W 4056  17.164  10.667   2.280
42691W        W 4057  16.140   0.983   3.249
42692W        W 4058  29.553  44.387  12.968
42693W        W 4059  30.593  36.501  10.990
42694W        W 4060  14.186  18.211   4.819
42695W        W 4061  40.549   0.746  14.975
42696W        W 4062  12.246  12.719  11.385
42697W        W 4063  12.281  42.808  10.642
42698W        W 4064  23.544  39.937  13.811
42699W        W 4065  25.605  35.031   2.869
42700W        W 4066  38.423   1.951  12.972
42701W        W 4067   3.718  25.545  12.059
42702W        W 4068   0.331  33.466   3.323
42703W        W 4069  32.563  29.125   4.719
42704W        W 4070  21.097  27.053  14.921
42705W        W 4071   8.718  14.251  10.124
42706W        W 4072  17.181  33.047   1.935
42707W        W 4073   5.282  18.168  14.505
42708W        W 4074  16.228   7.888  14.860
42709W        W 4075  29.026   6.901   2.337
42710W        W 4076  43.508  33.117   3.767
42711W        W 4077  14.828  32.098   4.704
42712W        W 4078  33.411  43.829  10.468
42713W        W 4079   9.288   8.682   1.851
42714W        W 4080   6.798  21.685   1.359
42715W        W 4081  27.122   8.276  14.992
42716W        W 4082   3.245  39.909  12.999
42717W        W 4083   0.816   0.451   4.792
42718W        W 4084  36.963  33.617   0.382
42719W        W 4085   9.817  43.425   3.362
42720W        W 4086  35.484   4.797  10.082
42721W        W 4087  26.622   8.811   2.308
42722W        W 4088  37.480  34.921  13.013
42723W        W 4089   0.355  27.661   4.816
42724W        W 4090  30.559  28.555  14.843
42725W        W 4091  42.822  21.166  11.509
42726W        W 4092  20.546  31.548  12.880
42727W        W 4093  21.071  36.928   0.881
42728W        W 4094  41.396  16.240   1.263
42729W        W 4095  36.084   6.889  11.862
42730W        W 4096  22.056  16.668  14.416
42731W        W 4097   4.781  37.011   3.279
42732W        W 4098  18.668  35.873   0.318
42733W        W 4099  43.834   2.323   3.369
42734W        W 4100  39.889  38.470   2.248
42735W        W 4101   0.382  26.692   4.214
42736W        W 4102  26.017  14.167  12.376
42737W        W 4103  24.107  23.028  12.391
42738W        W 4104  22.016  44.970  13.511
42739W        W 4105  36.582  44.002  11.064
42740W        W 4106   5.761   8.291   4.769
42741W        W 4107   7.355  23.074   3.284
42742W        W 4108  41.851  36.868   1.271
42743W        W 4109  40.534   6.818  11.993
42744W        W 4110  37.464  39.969  10.944
42745W        W 4111  14.155  43.282  11.090
42746W        W 4112   9.255   9.770  14.883
42747W        W 4113  14.314   7.222  10.598
42748W        W 4114   0.381   1.830   4.152
42749W        W 4115  32.504   6.297   2.669
42750W        W 4116  39.009  10.173   2.389
42751W        W 4117  30.932  25.538   3.216
42752W        W 4118  42.857  22.659   4.279
42753W        W 4119  24.612  32.462  10.933
42754W        W 4120   6.257  25.505  11.435
42755W        W 4121  44.334   0.264  14.901
42756W        W 4122  26.979  41.409   0.883
42757W        W 4123  27.500  28.660  14.509
42758W        W 4124  20.618  15.096   4.335
42759W        W 4125  10.816  20.595   1.225
42760W        W 4126   3.758  32.420   4.810
42761W        W 4127  33.399   8.226   1.286
42762W        W 4128  19.135  39.403  13.508
42763W        W 4129  13.207   0.443   0.326
42764W        W 4130  16.143  29.982   3.742
42765W        W 4131   0.834  18.612   2.238
42766W        W 4132  43.454  42.873   0.922
42767W        W 4133  17.116  28.442   0.773
42768W        W 4134  30.485   8.396  10.643
42769W        W 4135  43.289  29.459   0.832
42770W        W 4136  38.839  25.680   1.304
42771W        W 4137  12.830  37.009  12.992
42772W        W 4138  13.351  28.089  11.551
42773W        W 4139  43.442  20.631  13.483
42774W        W 4140  20.559  43.808   2.326
42775W        W 4141  10.642  16.678   1.716
42776W        W 4142   3.907  25.657   2.351
42777W        W 4143  12.719  27.670   3.274
42778W        W 4144  39.032  23.993   4.603
42779W        W 4145   9.853  30.987  14.999
42780W        W 4146  18.238   6.713   0.372
42781W        W 4147  10.652  10.773   3.161
42782W        W 4148  18.765  24.134  12.436
42783W        W 4149  22.570  37.857  11.917
42784W        W 4150  32.116  25.045  12.837
42785W        W 4151  40.496  38.832  10.602
42786W        W 4152   3.745  19.590  13.057
42787W        W 4153   6.369  42.889   0.859
42788W        W 4154  39.044  31.424   4.172
42789W        W 4155  17.233  22.603   0.827
42790W        W 4156  19.534  33.430  12.909
42791W        W 4157   2.740   0.756  12.916
42792W        W 4158   1.401  15.721  13.881
42793W        W 4159  39.924  17.610  11.560
42794W        W 4160  20.688  27.569   1.703
42795W        W 4161   3.902  11.816   4.771
42796W        W 4162  31.580  31.034   2.373
42797W        W 4163   5.321  18.743   1.865
42798W        W 4164  26.690  15.234   1.349
42799W        W 4165  14.604  44.885   4.158
42800W        W 4166  17.564  33.470   1.784
42801W        W 4167  14.330   8.263   2.184
42802W        W 4168  19.276  36.426  14.837
42803W        W 4169  29.941  10.646   2.858
42804W        W 4170  18.736  19.761  12.968
42805W        W 4171  27.111   0.420   4.807
42806W        W 4172  41.386   2.305  14.967
42807W        W 4173  41.940  12.126   3.289
42808W        W 4174  20.732  20.106  12.836
42809W        W 4175  32.411  17.556   4.813
42810W        W 4176  32.952  18.222   0.957
42811W        W 4177  23.992  40.508  11.407
42812W        W 4178  20.722  36.024  13.033
42813W        W 4179  33.913  29.929  10.588
42814W        W 4180  22.611   6.185   2.399
42815W        W 4181  26.576  36.855   2.291
42816W        W 4182  37.415   3.726  14.914
42817W        W 4183  12.150  39.428  14.353
42818W        W 4184  27.982  25.193  12.510
42819W        W 4185   3.302  39.858   2.387
42820W        W 4186  17.261   3.327  12.453
42821W        W 4187  39.527  41.867  11.121
42822W        W 4188  18.597   7.332  14.917
42823W        W 4189  39.416  38.056  13.823
42824W        W 4190  42.785  41.446   3.318
42825W        W 4191  27.174   4.887   3.848
42826W        W 4192  19.241  44.500   3.229
42827W        W 4193  15.297  42.466  12.398
42828W        W 4194  35.852  26.040  12.574
42829W        W 4195  17.760  37.832   4.332
42830W        W 4196  33.538  21.588  12.427
42831W        W 4197  16.568  25.562  11.566
42832W        W 4198  31.951  32.003  10.974
42833W        W 4199  11.782  20.073  14.924
42834W        W 4200   3.954  44.894  10.930
42835W        W 4201  37.939   8.781   4.201
42836W        W 4202  41.341  15.802   0.297
42837W        W 4203  42.523  29.053  14.436
42838W        W 4204   2.817  14.114   4.247
42839W        W 4205  22.227   7.891  13.515
42840W        W 4206  19.573  11.220  12.022
42841W        W 4207  42.962  14.268  13.897
42842W        W 4208  40.911   3.907   4.662
42843W        W 4209  26.460   3.375   4.205
42844W        W 4210  39.008  39.989  10.523
42845W        W 4211  24.573   4.715  14.473
42846W        W 4212  19.128  41.989   2.218
42847W        W 4213   9.351  33.585   3.385
42848W        W 4214  20.719  39.519  14.501
42849W        W 4215  41.473  25.550  10.605
42850W        W 4216  22.018   8.223  11.495
42851W        W 4217  19.550   9.167  13.314
42852W        W 4218   1.477  38.894   1.767
42853W        W 4219  37.048  18.692  11.107
42854W        W 4220   1.856  38.834  14.301
42855W        W 4221  11.246  25.711  11.457
42856W        W 4222  13.752   3.388  14.847
42857W        W 4223  23.699  35.943  11.091
42858W        W 4224  24.190  41.361  14.419
42859W        W 4225  17.127  15.578   3.678
42860W        W 4226  37.046   8.779   0.392
42861W        W 4227  27.458  39.876  12.947
42862W        W 4228   7.363  30.067   0.865
42863W        W 4229   6.831  29.564  12.566
42864W        W 4230  22.567  39.456   4.702
42865W        W 4231  10.686  28.017   4.276
42866W        W 4232   3.763  10.763  13.799
42867W        W 4233  38.855   5.709   3.187
42868W        W 4234   3.364  26.075   1.423
42869W        W 4235  10.375  43.845  10.983
42870W        W 4236   0.425  19.767  12.400
42871W        W 4237  37.562  21.564   1.739
42872W        W 4238  11.230   2.897   4.303
42873W        W 4239  14.693  29.613  12.964
42874W        W 4240  34.372  37.535   0.390
42875W        W 4241  13.328  13.784  10.604
42876W        W 4242  28.169  33.920   4.657
42877W        W 4243  15.735  17.071   5.186
42878W        W 4244  21.548  10.251  12.561
42879W        W 4245  26.122  43.273  13.345
42880W        W 4246   7.904  34.114   2.678
42881W        W 4247  29.654  25.033  13.921
42882W        W 4248   0.852  14.311  14.878
42883W        W 4249   5.340  30.010  10.604
42884W        W 4250   6.353  12.207   3.167
42885W        W 4251   5.293  37.037  14.397
42886W        W 4252  28.032   1.937   1.868
42887W        W 4253  24.535  43.904   2.326
42888W        W 4254  16.733  31.918  10.507
42889W        W 4255  35.063  23.054   3.815
42890W        W 4256  27.493  37.480  13.017
42891W        W 4257  16.151  24.200  11.967
42892W        W 4258  17.253  26.628   9.954
42893W        W 4259  34.504  13.265  10.564
42894W        W 4260   4.295  28.499  11.384
42895W        W 4261   0.354   6.199   2.800
42896W        W 4262  24.673  22.116   1.821
42897W        W 4263  18.719   0.965  10.995
42898W        W 4264   3.455  18.590   5.094
42899W        W 4265  11.706  29.006  14.415
42900W        W 4266  20.580   7.334   0.744
42901W        W 4267  21.254   2.395   4.169
42902W        W 4268  37.342   6.789  10.544
42903W        W 4269  40.310  39.501   3.148
42904W        W 4270  17.571  23.672   2.903
42905W        W 4271  18.100  15.722   1.394
42906W        W 4272  39.350  23.178  12.015
42907W        W 4273  13.711  24.066   3.149
42908W        W 4274   3.397  38.819   1.890
42909W        W 4275  18.745  38.038  14.963
42910W        W 4276  24.636  27.681  10.072
42911W        W 4277   6.715   3.347  14.275
42912W        W 4278  44.503  13.639   4.697
42913W        W 4279  16.289   2.819   4.729
42914W        W 4280  21.567  17.251  10.474
42915W        W 4281  36.974  14.186  14.334
42916W        W 4282  40.958  18.054  10.495
42917W        W 4283  16.742  34.077   2.736
42918W        W 4284  25.624  39.364   0.782
42919W        W 4285  17.653  34.078   1.426
42920W        W 4286  33.929  40.880   3.335
42921W        W 4287  16.767   8.295   2.894
42922W        W 4288  32.142   1.314   1.755
42923W        W 4289  20.678  30.614   2.840
42924W        W 4290  20.694  24.644   4.242
42925W        W 4291  12.704   5.687  13.887
42926W        W 4292  38.920  31.025   1.447
42927W        W 4293  23.511   5.237  10.616
42928W        W 4294  22.030  19.645  13.508
42929W        W 4295  13.657   5.718  10.586
42930W        W 4296  21.758  37.534   0.331
42931W        W 4297   7.273  15.107  10.069
42932W        W 4298  31.003  44.838   4.194
42933W        W 4299  34.065   1.456   2.735
42934W        W 4300  43.781  41.342   3.843
42935W        W 4301  35.375   3.461   3.283
42936W        W 4302   0.746  10.690  13.545
42937W        W 4303  44.378  20.719   4.333
42938W        W 4304  28.584  20.686   3.690
42939W        W 4305  33.409  24.132   1.933
42940W        W 4306  16.284  24.067   4.815
42941W        W 4307  12.355  33.553   2.407
42942W        W 4308  21.194  20.601   2.817
42943W        W 4309  21.083  28.584   2.289
42944W        W 4310   5.308   7.268   5.188
42945W        W 4311  25.095  20.030   5.127
42946W        W 4312  23.692  16.108  12.570
42947W        W 4313   8.194  33.425  14.898
42948W        W 4314  10.218  13.659   3.797
42949W        W 4315  36.939  33.479   3.150
42950W        W 4316  42.878  15.712   1.911
42951W        W 4317  12.806  23.715  11.121
42952W        W 4318  34.445  14.756   4.241
42953W        W 4319  29.963  40.449  11.993
42954W        W 4320  15.775  21.635   2.839
42955W        W 4321  16.164  39.861   1.808
42956W        W 4322  12.615   1.755   3.776
42957W        W 4323  41.325  33.412  11.925
42958W        W 4324   7.864  30.470  13.340
42959W        W 4325  24.605  16.597   3.825
42960W        W 4326   2.322  11.715   4.343
42961W        W 4327  13.171  30.529  10.102
42962W        W 4328  21.224  17.171   3.369
42963W        W 4329   5.775  13.297  11.568
42964W        W 4330  29.621  18.555   3.780
42965W        W 4331  30.085  19.227  12.525
42966W        W 4332  24.490   6.841   1.438
42967W        W 4333  36.532  36.578   3.694
42968W        W 4334  44.995  18.772  12.524
42969W        W 4335  39.391  29.562  13.830
42970W        W 4336  36.435   3.425  12.990
42971W        W 4337   0.408   6.204   4.231
42972W        W 4338  25.990  13.138  11.976
42973W        W 4339   6.285   0.851  10.066
42974W        W 4340  24.205  19.152   1.256
42975W        W 4341  11.810   8.193   3.736
42976W        W 4342  27.627  14.312  12.908
42977W        W 4343  40.990  17.771   3.336
42978W        W 4344  10.682   1.258  12.008
42979W        W 4345  27.592  33.946   3.743
42980W        W 4346   4.933   0.868   2.894
42981W        W 4347   6.803  16.691  11.519
42982W        W 4348  15.115   2.363  14.762
42983W        W 4349  33.901  15.169  14.897
42984W        W 4350  44.957   2.441   1.700
42985W        W 4351  17.199  25.964   2.274
42986W        W 4352  16.654  18.105   2.384
42987W        W 4353   6.792  38.826   3.716
42988W        W 4354   7.717   7.393  12.496
42989W        W 4355  24.081  43.358   1.282
42990W        W 4356  12.295  14.828  12.824
42991W        W 4357  16.179  26.467  10.512
42992W        W 4358  19.632  25.118  10.429
42993W        W 4359  17.726  28.592  10.624
42994W        W 4360  11.667  29.646  11.998
42995W        W 4361  44.451  43.356   3.207
42996W        W 4362  42.479   2.834   0.763
42997W        W 4363  15.308  16.781   3.834
42998W        W 4364  35.504  36.390   4.298
42999W        W 4365  31.642  23.152  11.958
43000W        W 4366  19.570  14.257   4.796
43001W        W 4367   7.872  12.749   4.661
43002W        W 4368   1.777  11.350   4.743
43003W        W 4369  16.205   4.923  14.414
43004W        W 4370   6.305  11.798   0.472
43005W        W 4371  29.974  32.424   2.198
43006W        W 4372   9.838   8.280  12.503
43007W        W 4373   9.787  36.414   4.207
43008W        W 4374  22.518  20.617   2.238
43009W        W 4375  14.151  14.670   1.225
43010W        W 4376  29.120  20.198  14.419
43011W        W 4377   3.220   9.166  12.834
43012W        W 4378  17.635  36.391  14.935
43013W        W 4379   1.920  33.899  11.105
43014W        W 4380  19.568   3.874  10.495
43015W        W 4381  36.034   7.206   4.163
43016W        W 4382  12.283   8.369   4.197
43017W        W 4383  40.516  20.147   4.787
43018W        W 4384  16.779  21.082   3.763
43019W        W 4385  26.554  31.516   3.198
43020W        W 4386  25.652  37.913   3.200
43021W        W 4387  36.454  29.145   5.138
43022W        W 4388  40.903  41.019   4.610
43023W        W 4389  40.311  36.951  12.047
43024W        W 4390   6.753  14.652   2.761
43025W        W 4391   0.350  44.505  12.039
43026W        W 4392  36.040  39.957  13.900
43027W        W 4393  11.709  38.443   0.759
43028W        W 4394  30.112  44.870  11.044
43029W        W 4395  43.477  29.548  13.308
43030W        W 4396  44.883   3.230  12.577
43031W        W 4397  26.664  42.456   2.835
43032W        W 4398   1.328   5.408   1.310
43033W        W 4399   8.837  15.819  11.943
43034W        W 4400  28.055  43.486  12.344
43035W        W 4401  18.612  40.424  11.401
43036W        W 4402  33.473  30.419   0.433
43037W        W 4403  44.908  20.596  14.889
43038W        W 4404  25.025  36.560   2.845
43039W        W 4405  28.971  36.926  13.901
43040W        W 4406  29.961  28.933  14.017
43041W        W 4407  25.147  12.740  11.927
43042W        W 4408  16.192  44.832   2.799
43043W        W 4409  14.147  30.461  14.415
43044W        W 4410  39.463  37.993  13.512
43045W        W 4411   0.746  44.773  10.897
43046W        W 4412  16.726  20.135   1.790
43047W        W 4413  43.842   8.714   2.775
43048W        W 4414  30.464  37.844  14.458
43049W        W 4415  17.303   3.799  10.629
43050W        W 4416  29.146  29.483  12.566
43051W        W 4417  31.981  31.590   0.822
43052W        W 4418  41.476   6.720  13.949
43053W        W 4419  30.612  37.035   2.897
43054W        W 4420  36.986  28.943   0.847
43055W        W 4421  30.109  44.311  13.351
43056W        W 4422   0.310   8.312  11.527
43057W        W 4423  16.113  26.615   3.328
43058W        W 4424  36.016  31.151  12.411
43059W        W 4425  15.321  41.038   0.315
43060W        W 4426  11.862  34.118   2.752
43061W        W 4427  28.966  24.993   0.273
43062W        W 4428  13.689  28.030  14.948
43063W        W 4429  20.554  31.930  12.481
43064W        W 4430  44.807  41.381   4.632
43065W        W 4431  38.072   9.751  11.126
43066W        W 4432  13.206   4.761  14.805
43067W        W 4433  28.057  31.571   1.220
43068W        W 4434  19.693   8.759   2.720
43069W        W 4435   8.356   9.769   3.861
43070W        W 4436  43.515  36.861   1.406
43071W        W 4437  24.495  43.305   1.442
43072W        W 4438  20.144  22.539   0.942
43073W        W 4439  16.698  10.206   3.867
43074W        W 4440  31.008  37.490  11.372
43075W        W 4441  24.571  27.491   1.289
43076W        W 4442   0.308  11.233   0.367
43077W        W 4443   1.401  30.418  12.460
43078W        W 4444  24.630  40.021  14.364
43079W        W 4445   2.880  39.384  10.574
43080W        W 4446  18.619   1.474   0.797
43081W        W 4447  30.425  42.781   2.895
43082W        W 4448  38.861  29.581  13.819
43083W        W 4449  23.518   8.356  10.468
43084W        W 4450   5.687  12.179  12.930
43085W        W 4451  30.521  43.460   2.291
43086W        W 4452  34.008  32.943  14.800
43087W        W 4453  24.148  31.416   0.886
43088W        W 4454  14.704  16.088  14.899
43089W        W 4455   1.789   4.758  14.344
43090W        W 4456  42.502  19.122   4.303
43091W        W 4457  26.127   8.784   2.768
43092W        W 4458   0.494  28.485   1.724
43093W        W 4459   7.868  21.566  11.052
43094W        W 4460  22.561  28.600  12.924
43095W        W 4461   3.317  32.899   4.286
43096W        W 4462  14.237  27.482  14.322
43097W        W 4463  30.627  25.085  11.452
43098W        W 4464  25.202   0.388  14.776
43099W        W 4465   5.317  35.596   1.889
43100W        W 4466  19.204  33.916   0.794
43101W        W 4467  33.456   0.959   2.834
43102W        W 4468   2.446   9.798   1.219
43103W        W 4469  20.074  22.685   4.135
43104W        W 4470  25.668  23.998   3.851
43105W        W 4471  38.045   8.350  11.562
43106W        W 4472  40.020  44.954   4.292
43107W        W 4473   5.430  37.397   3.783
43108W        W 4474  21.212  40.327   3.750
43109W        W 4475  10.762  29.134   1.262
43110W        W 4476   9.349  27.459   1.889
43111W        W 4477  15.689   6.250   0.448
43112W        W 4478   9.251  41.797   4.735
43113W        W 4479   0.806  28.525   2.382
43114W        W 4480   4.228  44.259  14.348
43115W        W 4481  36.512  35.589   4.708
43116W        W 4482  43.460  36.431  10.911
43117W        W 4483  21.154  14.603  11.039
43118W        W 4484  18.782   2.361  12.007
43119W        W 4485   4.348  23.603  10.563
43120W        W 4486  37.903  16.102  13.354
43121W        W 4487  34.030  18.729  14.789
43122W        W 4488   8.847  41.447  12.912
43123W        W 4489  15.648  31.443   1.706
43124W        W 4490   2.926  38.913  13.973
43125W        W 4491  11.736   2.721  13.345
43126W        W 4492   3.259   4.798   0.278
43127W        W 4493   8.271  38.900  12.525
43128W        W 4494  42.468  34.575  11.448
43129W        W 4495  11.856   3.325  14.807
43130W        W 4496  44.995  10.813   1.890
43131W        W 4497   4.734   6.233   3.271
43132W        W 4498   3.938  23.118  13.915
43133W        W 4499   9.832  16.606  13.529
43134W        W 4500  39.909   6.275   2.286
43135W        W 4501  22.124  40.820   1.337
43136W        W 4502  33.007  25.184   1.277
43137W        W 4503   7.249  24.558   2.387
43138W        W 4504  10.195  24.191   3.308
43139W        W 4505  32.137   2.891  11.027
43140W        W 4506   4.427  31.056   1.435
43141W        W 4507  32.448  36.384   0.344
43142W        W 4508   2.869   3.763   3.766
43143W        W 4509  26.643  17.114  12.878
43144W        W 4510  15.217  11.845  11.599
43145W        W 4511  15.664  16.699   4.755
43146W        W 4512   0.379   1.300  12.391
43147W        W 4513  38.866  19.651   0.937
43148W        W 4514  43.826   9.176  10.425
43149W        W 4515  13.623  26.530   4.598
43150W        W 4516  33.464  16.746  11.975
43151W        W 4517  33.002   2.946   1.219
43152W        W 4518  28.642  24.107   4.606
43153W        W 4519  25.579  12.785  10.915
43154W        W 4520  38.373  19.068  12.021
43155W        W 4521  27.186  40.421  10.026
43156W        W 4522   8.693  42.895  14.445
43157W        W 4523  42.294  16.578   1.383
43158W        W 4524  10.290  35.045  14.448
43159W        W 4525  44.786  22.708  11.920
43160W        W 4526  23.998  27.150  14.447
43161W        W 4527  11.783  19.650   0.896
43162W        W 4528  26.074  28.992  11.909
43163W        W 4529  41.521  31.923  12.972
43164W        W 4530  17.612  33.593  10.547
43165W        W 4531  25.983   2.830  12.400
43166W        W 4532  36.416  29.014  13.815
43167W        W 4533  12.828  11.795   1.890
43168W        W 4534   5.751  31.618   4.169
43169W        W 4535  28.576   9.376  10.923
43170W        W 4536  21.698  14.218  10.608
43171W        W 4537  16.262   1.352   4.282
43172W        W 4538  29.957  24.101  12.079
43173W        W 4539  24.654  21.124   0.767
43174W        W 4540   3.219  29.549  13.891
43175W        W 4541   5.905  25.623   4.729
43176W        W 4542  39.391  17.209   1.754
43177W        W 4543  23.188  42.329   4.779
43178W        W 4544   4.819  25.174  11.117
43179W        W 4545  32.412  19.176  10.159
43180W        W 4546   3.273  25.689   4.726
43181W        W 4547  16.298  20.174   4.216
43182W        W 4548  19.263   6.350  12.037
43183W        W 4549  29.001  32.575   2.787
43184W        W 4550   7.777  40.024   3.297
43185W        W 4551  34.105   5.754  12.579
43186W        W 4552  10.768  13.289  13.914
43187W        W 4553  38.951   0.806   1.814
43188W        W 4554  27.145  18.618  14.410
43189W        W 4555  29.968  18.117  14.795
43190W        W 4556  15.191  22.543  14.421
43191W        W 4557  10.204   7.194  13.402
43192W        W 4558  20.694  11.693  14.912
43193W        W 4559  27.630   5.199   0.930
43194W        W 4560  17.582  39.325   1.772
43195W        W 4561   7.788   9.281   0.453
43196W        W 4562   0.414   1.897  10.596
43197W        W 4563  10.318  43.493  13.952
43198W        W 4564  44.394  27.518   2.755
43199W        W 4565   1.433  10.689  14.461
43200W        W 4566  10.719   5.698  12.362
43201W        W 4567  20.667  43.468  12.900
43202W        W 4568  32.557  11.356  14.800
43203W        W 4569  21.107  13.632   3.859
43204W        W 4570  28.956   9.713   3.199
43205W        W 4571  20.750  33.078  14.382
43206W        W 4572   1.794   7.743   2.334
43207W        W 4573  26.674  33.005   3.787
43208W        W 4574  27.197  39.832   4.261
43209W        W 4575  33.902  39.491  10.098
43210W        W 4576  28.601  29.118   4.654
43211W        W 4577  25.048  15.805  12.879
43212W        W 4578  33.966  37.446  11.928
43213W        W 4579  39.485  44.769   2.702
43214W        W 4580  37.488   6.308   4.727
43215W        W 4581   0.369  32.050  10.461
43216W        W 4582  10.831   6.850   4.200
43217W        W 4583  29.566  18.577   0.413
43218W        W 4584  12.189  26.544  10.554
43219W        W 4585  42.992   3.740  14.297
43220W        W 4586  13.241  38.525   0.884
43221W        W 4587   0.417  20.231   4.255
43222W        W 4588  26.652  27.128   2.227
43223W        W 4589  16.725  43.930   4.668
43224W        W 4590  18.591  36.462  12.968
43225W        W 4591  19.556  13.679  13.039
43226W        W 4592  36.087  25.627  10.486
43227W        W 4593  31.925   4.804   1.720
43228W        W 4594  31.072   1.948   2.328
43229W        W 4595  28.047   6.850  11.584
43230W        W 4596  42.845  41.996   4.115
43231W        W 4597  42.880   2.902  11.415
43232W        W 4598  12.235   6.884  12.033
43233W        W 4599  13.123   5.229  13.418
43234W        W 4600  35.540   9.389  12.965
43235W        W 4601  13.788  37.968   3.811
43236W        W 4602   2.800  26.167  10.915
43237W        W 4603  12.650  20.719   1.338
43238W        W 4604  42.459  13.154   1.708
43239W        W 4605  11.715  43.946  12.571
43240W        W 4606  44.494  22.582   5.270
43241W        W 4607  31.431   2.774  12.353
43242W        W 4608   0.464  16.307   3.328
43243W        W 4609  21.104  27.135  10.442
43244W        W 4610   0.773   3.436   3.375
43245W        W 4611  32.405  25.577   2.737
43246W        W 4612  29.007   7.341  10.901
43247W        W 4613  17.205  21.078  12.881
43248W        W 4614  25.091  21.206   2.746
43249W        W 4615   7.815  28.180   1.883
43250W        W 4616  37.902  30.079   1.318
43251W        W 4617  42.485  43.915   0.455
43252W        W 4618  37.362  25.678   1.896
43253W        W 4619  40.048  27.155   2.341
43254W        W 4620  23.207  27.569   2.845
43255W        W 4621  36.965   2.872   0.900
43256W        W 4622   8.847  26.652  12.434
43257W        W 4623   5.796  20.238  12.830
43258W        W 4624  11.181  14.643   4.321
43259W        W 4625  16.163  10.286   0.817
43260W        W 4626   3.750  43.393  14.924
43261W        W 4627  35.097   1.302  11.385
43262W        W 4628  35.524  22.506   3.712
43263W        W 4629  11.129  43.962   0.273
43264W        W 4630   4.818   5.360   2.370
43265W        W 4631  19.049  32.125   1.422
43266W        W 4632  11.321  39.062   1.833
43267W        W 4633   0.425  20.161  12.391
43268W        W 4634  11.805  18.591  12.839
43269W        W 4635  10.296   1.841  14.996
43270W        W 4636  38.933  27.575  10.582
43271W        W 4637  11.179  10.839  11.464
43272W        W 4638  26.024  32.540   2.755
43273W        W 4639  18.646  29.127   2.274
43274W        W 4640  26.628   8.864  11.486
43275W        W 4641  34.077  17.556   3.860
43276W        W 4642  13.764  29.543   4.333
43277W        W 4643  19.229   7.683   4.176
43278W        W 4644  20.677  30.459  13.355
43279W        W 4645  22.074  14.825   3.832
43280W        W 4646  41.421  33.537   2.740
43281W        W 4647   9.686  30.952   1.359
43282W        W 4648  10.260  36.576   1.829
43283W        W 4649  38.380  40.798  11.128
43284W        W 4650   5.907  37.979   4.699
43285W        W 4651  30.578  41.809  13.003
43286W        W 4652  39.861  41.508  14.406
43287W        W 4653  22.038   4.870   3.265
43288W        W 4654   8.837   6.863   1.270
43289W        W 4655  31.048  25.621  13.852
43290W        W 4656   5.887  12.836  13.501
43291W        W 4657  43.008  36.549   2.196
43292W        W 4658  17.686   7.747  14.950
43293W        W 4659  31.035  30.534  11.985
43294W        W 4660  40.876  40.906   0.249
43295W        W 4661  16.750  23.181   0.246
43296W        W 4662  37.867  20.041   2.341
43297W        W 4663   9.734  11.717  12.561
43298W        W 4664   0.749   2.847   1.881
43299W        W 4665  17.108  12.171   0.841
43300W        W 4666  14.192  41.826  11.111
43301W        W 4667  41.414  27.990  11.059
43302W        W 4668  31.419  38.973   3.644
43303W        W 4669  15.187  36.952   4.690
43304W        W 4670  16.763  22.009   4.704
43305W        W 4671  20.038  30.138   4.632
43306W        W 4672  24.095   8.813  12.471
43307W        W 4673  14.133  20.096   2.671
43308W        W 4674  31.097  40.850  11.863
43309W        W 4675   9.760  30.630  14.330
43310W        W 4676  21.723  40.001   3.187
43311W        W 4677  41.516  13.271  14.302
43312W        W 4678  33.512   0.853   5.104
43313W        W 4679   5.884  19.228  10.518
43314W        W 4680  14.238  18.602   5.193
43315W        W 4681  44.398  32.938   1.307
43316W        W 4682  10.327   7.401  11.419
43317W        W 4683   6.394   1.347   2.278
43318W        W 4684   0.349  21.136  14.458
43319W        W 4685  34.426  33.528  13.920
43320W        W 4686  38.829   4.713   3.384
43321W        W 4687  13.619  26.541  14.838
43322W        W 4688  32.898   0.989  11.485
43323W        W 4689  33.009  14.254   1.350
43324W        W 4690  37.570   8.761  12.063
43325W        W 4691  40.507  23.108   1.272
43326W        W 4692   2.804  25.133  12.855
43327W        W 4693  30.479  10.750   0.388
43328W        W 4694  14.683  22.588  12.031
43329W        W 4695  37.905  14.330   3.755
43330W        W 4696  41.479  12.853  12.857
43331W        W 4697  15.204  27.033   4.791
43332W        W 4698   8.735   1.747  14.986
43333W        W 4699  23.053  34.550  14.288
43334W        W 4700  32.953  32.411  14.506
43335W        W 4701   4.282  24.620   1.237
43336W        W 4702  34.400  31.030   2.763
43337W        W 4703  32.018  14.129  12.068
43338W        W 4704   6.301  35.525  13.490
43339W        W 4705  35.528  17.761   3.695
43340W        W 4706   9.331  21.199   3.671
43341W        W 4707  16.254  13.312  14.929
43342W        W 4708  20.527   2.302   1.441
43343W        W 4709  25.067  36.580   0.254
43344W        W 4710  21.573  36.360   1.374
43345W        W 4711   4.321  16.229   1.331
43346W        W 4712   5.840  43.783   1.827
43347W        W 4713  22.223  44.806  12.982
43348W        W 4714  44.379  13.820   4.188
43349W        W 4715   9.246  28.184  12.572
43350W        W 4716  27.670  26.009   0.306
43351W        W 4717  19.143  28.567   2.386
43352W        W 4718   2.811  18.242  11.089
43353W        W 4719   0.429  30.979  14.315
43354W        W 4720  28.441  25.501   1.214
43355W        W 4721   3.732  33.985   0.335
43356W        W 4722  15.678   9.373   4.174
43357W        W 4723  21.549  14.171   2.815
43358W        W 4724  41.420  22.540   0.279
43359W        W 4725   6.234   2.263   0.392
43360W        W 4726  31.547  33.608   2.780
43361W        W 4727  18.147  32.413   1.336
43362W        W 4728  37.053  37.523   4.808
43363W        W 4729  25.962  17.193   3.833
43364W        W 4730  40.838   0.308  11.386
43365W        W 4731  32.637   9.729   0.394
43366W        W 4732  38.916  25.020   2.354
43367W        W 4733  39.853  34.876  11.114
43368W        W 4734  24.507  39.815   3.847
43369W        W 4735  18.271  15.626  11.953
43370W        W 4736   6.308  18.663   2.840
43371W        W 4737   7.406  16.623  11.536
43372W        W 4738   3.921  39.852  14.870
43373W        W 4739  11.790  18.209   2.677
43374W        W 4740  42.924  39.941   2.784
43375W        W 4741  43.792  18.551   2.781
43376W        W 4742  27.135  27.472   2.340
43377W        W 4743   7.770  29.934   4.294
43378W        W 4744  35.994  14.769   4.726
43379W        W 4745  43.373  11.672   1.791
43380W        W 4746  23.989  25.614  14.880
43381W        W 4747  34.958  19.581   3.268
43382W        W 4748   1.478  35.511   4.203
43383W        W 4749  34.411  26.573   1.451
43384W        W 4750  19.284  38.863  13.018
43385W        W 4751  43.764   1.802  13.497
43386W        W 4752  26.137  31.083   1.440
43387W        W 4753   4.709  27.542  14.361
43388W        W 4754  31.627   4.714  10.107
43389W        W 4755  26.043  13.677  10.607
43390W        W 4756  15.228  34.418   4.340
43391W        W 4757   1.343  44.827  12.005
43392W        W 4758   2.952   8.287   0.860
43393W        W 4759   2.813  37.010   4.765
43394W        W 4760   4.704  26.528   0.453
43395W        W 4761   5.728  38.509   3.222
43396W        W 4762   6.278  44.383  14.021
43397W        W 4763   0.252  22.597   3.198
43398W        W 4764  41.526  28.117  11.463
43399W        W 4765   1.960  25.604  10.520
43400W        W 4766  28.500   2.824  10.612
43401W        W 4767  40.527  28.575  12.939
43402W        W 4768  14.240  14.162   5.578
43403W        W 4769  34.430   1.760  13.955
43404W        W 4770  41.995  37.892   0.914
43405W        W 4771  12.717  23.990  11.000
43406W        W 4772  42.472   4.376  12.927
43407W        W 4773  14.730  18.575  10.564
43408W        W 4774  25.624  25.031   5.256
43409W        W 4775  34.417  21.261   2.273
43410W        W 4776  19.678  32.932  12.547
43411W        W 4777  19.556   3.392   1.339
43412W        W 4778  20.218  28.618  12.866
43413W        W 4779  14.151   0.896  12.932
43414W        W 4780  23.044   4.249   0.361
43415W        W 4781  29.436  32.904  13.922
43416W        W 4782  33.592   9.394   1.384
43417W        W 4783  27.086  42.403  12.536
43418W        W 4784  22.747  25.972   4.830
43419W        W 4785   5.695  27.077   3.189
43420W        W 4786  24.669  29.497  11.574
43421W        W 4787  19.590  31.149   0.404
43422W        W 4788  25.549  27.948   3.205
43423W        W 4789  29.949   9.826  14.275
43424W        W 4790  14.635  37.867  13.412
43425W        W 4791  20.164   4.717   4.118
43426W        W 4792  13.124  35.498  11.897
43427W        W 4793  40.369  43.279   2.862
43428W        W 4794  38.886   0.443  13.064
43429W        W 4795   8.830   6.731  12.436
43430W        W 4796  24.718  15.769   1.229
43431W        W 4797  25.505   3.840  13.528
43432W        W 4798  24.678  27.582   4.800
43433W        W 4799  20.619  35.981   3.226
43434W        W 4800  18.594   8.736  11.891
43435W        W 4801   2.289  30.970   3.231
43436W        W 4802  34.944  28.540   1.930
43437W        W 4803   8.872  42.880   4.737
43438W        W 4804  27.478  35.907  13.315
43439W        W 4805  22.156  34.476   1.444
43440W        W 4806   5.214  22.656  13.431
43441W        W 4807   5.319  41.830  13.534
43442W        W 4808  33.573   0.456  14.021
43443W        W 4809  19.080  34.375   4.150
43444W        W 4810  29.613  31.428   2.315
43445W        W 4811  30.558  33.559   3.821
43446W        W 4812  26.630   3.907  10.901
43447W        W 4813  19.771  22.651   0.372
43448W        W 4814  36.018  26.522   2.671
43449W        W 4815  19.216   3.288   1.708
43450W        W 4816  14.599  33.074   2.285
43451W        W 4817  16.176  26.627  13.902
43452W        W 4818  12.117  22.166  14.779
43453W        W 4819  24.696  39.908   0.260
43454W        W 4820  43.299  20.213   3.237
43455W        W 4821   8.830  18.120  13.371
43456W        W 4822   6.273  29.136  14.477
43457W        W 4823  14.147  13.182  14.453
43458W        W 4824  13.180  23.559   2.286
43459W        W 4825  11.765   0.265  13.521
43460W        W 4826  30.150  16.115  11.016
43461W        W 4827  37.962  15.729   0.822
43462W        W 4828  36.057  20.036  13.839
43463W        W 4829  13.663   0.311  14.923
43464W        W 4830  26.053   2.721   0.806
43465W        W 4831  38.365  14.188   1.445
43466W        W 4832  14.670  13.247  12.082
43467W        W 4833   2.757   2.409   4.723
43468W        W 4834  41.019  15.637  10.889
43469W        W 4835  34.934  21.548  12.493
43470W        W 4836  29.573  24.197  13.426
43471W        W 4837  29.478  18.252  11.488
43472W        W 4838  27.642  23.696  11.401
43473W        W 4839  14.818  25.673   2.367
43474W        W 4840   2.886  26.566  11.031
43475W        W 4841  10.255  37.047  11.582
43476W        W 4842   4.362  17.279   4.298
43477W        W 4843  18.066   8.285   0.940
43478W        W 4844  40.452  27.194  14.393
43479W        W 4845  34.866  31.646  10.437
43480W        W 4846  37.374   6.699  11.514
43481W        W 4847  28.635   5.849  13.435
43482W        W 4848  35.907  36.449  14.514
43483W        W 4849  20.194   4.388   0.862
43484W        W 4850  31.406  35.935   1.345
43485W        W 4851   2.356  36.940  10.407
43486W        W 4852  44.921  35.051  10.469
43487W        W 4853  33.908  24.576  11.030
43488W        W 4854  36.850  29.437  11.083
43489W        W 4855  35.997   8.714  11.381
43490W        W 4856  18.724  35.041   3.648
43491W        W 4857  12.246   3.821  11.998
43492W        W 4858   7.686  34.029   1.848
43493W        W 4859  21.102   2.914   5.081
43494W        W 4860   1.404  31.431  14.900
43495W        W 4861  37.535  44.418  12.008
43496W        W 4862   9.666  28.109  12.009
43497W        W 4863  11.201   7.178  14.762
43498W        W 4864   8.200  41.454   2.316
43499W        W 4865   3.724  22.624   9.930
43500W        W 4866  40.426  40.473   2.185
43501W        W 4867  36.020  33.517   3.221
43502W        W 4868  25.130  30.024   1.834
43503W        W 4869  13.745  33.899  13.381
43504W        W 4870  25.045  39.887  14.290
43505W        W 4871  15.703  40.006  14.275
43506W        W 4872  25.010  17.739   2.290
43507W        W 4873  27.615  10.859   1.829
43508W        W 4874  13.284  39.928   4.167
43509W        W 4875  12.353  32.439   9.518
43510W        W 4876  37.397  28.540  14.787
43511W        W 4877  13.232  30.131  11.528
43512W        W 4878  41.532  10.837   4.288
43513W        W 4879   1.827   3.222   2.894
43514W        W 4880  27.496  44.311   2.278
43515W        W 4881  29.965  21.148   0.728
43516W        W 4882  36.438   9.190  10.630
43517W        W 4883   8.383  41.823   0.851
43518W        W 4884  31.517  18.560   1.337
43519W        W 4885  22.178   1.419   1.892
43520W        W 4886   3.753   0.309  13.390
43521W        W 4887  32.076  21.073   0.744
43522W        W 4888  30.995  31.640   1.811
43523W        W 4889  13.829  31.109   3.286
43524W        W 4890  44.459  28.625   4.701
43525W        W 4891  22.249  37.861   4.610
43526W        W 4892  17.119   9.687  11.051
43527W        W 4893   1.460  37.505  12.543
43528W        W 4894  13.610   0.335  13.847
43529W        W 4895  40.340  31.531   3.256
43530W        W 4896   2.765   0.826  14.885
43531W        W 4897  41.857  13.719   4.173
43532W        W 4898   1.463  19.637  10.592
43533W        W 4899  12.216  34.999  13.999
43534W        W 4900  28.502  31.052  10.583
43535W        W 4901   1.300  44.358   1.747
43536W        W 4902  21.078  27.546   2.223
43537W        W 4903   7.821   7.284   0.482
43538W        W 4904  37.529  20.671   4.138
43539W        W 4905  28.103  35.365  13.312
43540W        W 4906   4.231  35.935  12.358
43541W        W 4907  26.632  16.228  13.402
43542W        W 4908  41.887  31.571  13.422
43543W        W 4909  29.970  32.037   2.703
43544W        W 4910  25.152   0.418   4.216
43545W        W 4911  12.167  43.376  14.792
43546W        W 4912  21.108  37.461  10.071
43547W        W 4913  16.222  20.552  13.469
43548W        W 4914  24.038  27.996  13.008
43549W        W 4915   7.413  20.674   3.696
43550W        W 4916   1.240  41.824   3.652
43551W        W 4917  44.379  40.543   1.298
43552W        W 4918  22.599  27.985  12.091
43553W        W 4919  13.647  22.535  13.064
43554W        W 4920  37.892  15.748   3.215
43555W        W 4921  19.584  36.548  10.575
43556W        W 4922  40.436  13.165  14.784
43557W        W 4923  22.154  17.061  13.427
43558W        W 4924  43.800  21.185   5.258
43559W        W 4925   0.883  27.629   1.772
43560W        W 4926  14.219  21.156   2.227
43561W        W 4927   9.859   6.725  11.452
43562W        W 4928  27.171  20.529  14.431
43563W        W 4929  15.218  26.081  14.011
43564W        W 4930  11.638  19.204  11.072
43565W        W 4931   7.227   0.877  12.579
43566W        W 4932  15.324  35.367  12.016
43567W        W 4933  16.678  33.950   1.825
43568W        W 4934  17.175  21.701   4.129
43569W        W 4935  23.102  30.433  13.049
43570W        W 4936  33.043  16.115   4.301
43571W        W 4937  20.157  28.964  10.470
43572W        W 4938  16.225  16.084   1.286
43573W        W 4939  41.823  42.445  12.355
43574W        W 4940  13.270  17.186  14.884
43575W        W 4941   3.938  38.483  13.407
43576W        W 4942  36.935  23.546   1.226
43577W        W 4943  15.150  13.628  10.524
43578W        W 4944  13.814   7.318   4.810
43579W        W 4945  14.695  29.627   0.482
43580W        W 4946  23.585   4.393   4.175
43581W        W 4947  34.479  17.726  14.982
43582W        W 4948   6.685  22.719   1.231
43583W        W 4949   9.846   2.367  12.391
43584W        W 4950  24.662   0.291  14.844
43585W        W 4951  25.515  30.535  13.373
43586W        W 4952   5.933  23.121  12.442
43587W        W 4953  17.790  40.865  14.481
43588W        W 4954   2.248   1.408  14.011
43589W        W 4955  20.638  16.612  11.395
43590W        W 4956   4.846  29.076   1.704
43591W        W 4957  21.694   4.882   5.301
43592W        W 4958  25.707  32.026  10.636
43593W        W 4959  21.641  39.335  12.455
43594W        W 4960   6.869  12.193   2.766
43595W        W 4961  25.149  44.460  13.453
43596W        W 4962  25.063  22.162  14.304
43597W        W 4963  22.052  12.188  10.504
43598W        W 4964  28.975  21.091   2.409
43599W        W 4965  38.441  16.305  13.397
43600W        W 4966  31.517  21.542   4.838
43601W        W 4967   9.298  20.726   3.747
43602W        W 4968  10.139  33.094  10.157
43603W        W 4969  10.307  39.954  11.586
43604W        W 4970  38.002  12.349  12.933
43605W        W 4971  13.118  21.757  12.424
43606W        W 4972   9.254  34.541   1.229
43607W        W 4973  29.485  18.160   1.698
43608W        W 4974  38.869  10.197  10.959
43609W        W 4975  39.394  37.972  12.565
43610W        W 4976   3.786  24.558   1.754
43611W        W 4977  29.492  27.100  13.445
43612W        W 4978  16.280   7.383  13.815
43613W        W 4979   8.207  25.502  12.562
43614W        W 4980  16.790  11.255   1.433
43615W        W 4981  33.995  22.728  12.513
43616W        W 4982  28.984  12.295  11.870
43617W        W 4983  13.273  27.602   4.704
43618W        W 4984  28.185   5.910  13.415
43619W        W 4985  11.200  44.965  14.303
43620W        W 4986   7.346  23.022  12.539
43621W        W 4987  22.741  18.197   2.200
43622W        W 4988   1.950  13.293   0.888
43623W        W 4989  15.678  20.168  11.956
43624W        W 4990  10.246  29.079   4.283
43625W        W 4991  29.052   0.427  10.990
43626W        W 4992  25.526  14.116  14.879
43627W        W 4993   9.803  15.703  12.488
43628W        W 4994  26.084   1.256   4.245
43629W        W 4995   7.869  19.143  14.837
43630W        W 4996   0.342  21.122   0.829
43631W        W 4997  43.408  12.341   2.206
43632W        W 4998  18.055   6.757   4.215
43633W        W 4999  29.511  21.519  10.890
43634W        W 5000   9.822  18.205   1.881
43635W        W 5001  30.145  44.403   0.449
43636W        W 5002  17.167  35.985   2.249
43637W        W 5003  23.073  31.470   2.670
43638W        W 5004  28.655  33.101  13.041
43639W        W 5005   0.814  15.310   3.728
43640W        W 5006  10.166  38.020   0.414
43641W        W 5007  13.326  22.074   3.707
43642W        W 5008  16.760  34.032  14.786
43643W        W 5009  34.521  17.717  14.478
43644W        W 5010  30.977  42.351   4.337
43645W        W 5011  23.144   3.882   1.749
43646W        W 5012  12.822   7.878   2.810
43647W        W 5013  15.171  39.549   4.802
43648W        W 5014  15.810   1.333  11.066
43649W        W 5015  10.364  29.531  11.982
43650W        W 5016   6.782   1.413  14.776
43651W        W 5017  20.211  10.317   1.414
43652W        W 5018  23.211  22.247  12.516
43653W        W 5019  29.466  17.221  10.915
43654W        W 5020  14.756  30.553  10.501
43655W        W 5021  33.545  38.964  13.913
43656W        W 5022   8.887  25.513  12.034
43657W        W 5023  29.149  31.491  13.395
43658W        W 5024  14.169  41.963   1.447
43659W        W 5025   4.415   1.866  11.394
43660W        W 5026  43.512   6.826   0.423
43661W        W 5027  15.204  31.073   3.766
43662W        W 5028  12.238  38.555   0.375
43663W        W 5029   3.263  22.026   4.637
43664W        W 5030  31.954  40.020   3.148
43665W        W 5031  19.178  24.141  14.458
43666W        W 5032  42.369  13.820   4.193
43667W        W 5033   6.849  14.164  12.430
43668W        W 5034   6.815  35.865  14.997
43669W        W 5035  44.470   7.886   4.628
43670W        W 5036  15.604  39.889   3.334
43671W        W 5037  21.179  42.784  11.934
43672W        W 5038  26.082   4.207   3.831
43673W        W 5039  32.018   4.290  13.315
43674W        W 5040  31.523   3.396   0.822
43675W        W 5041   4.316  39.820   0.958
43676W        W 5042  25.577   6.863   2.831
43677W        W 5043  16.763  18.080   3.853
43678W        W 5044   0.416  35.547   0.860
43679W        W 5045  10.282  33.466   3.685
43680W        W 5046  36.491   1.453  14.992
43681W        W 5047  29.934  24.123   0.906
43682W        W 5048  30.622  25.708   0.728
43683W        W 5049   5.311  34.433   3.814
43684W        W 5050   6.815  18.199  14.811
43685W        W 5051   0.486   8.899   0.411
43686W        W 5052  37.004  38.946   2.332
43687W        W 5053  11.852  43.365   3.696
43688W        W 5054   8.669  18.609   1.234
43689W        W 5055   1.357   0.790  10.933
43690W        W 5056  24.114  15.813   1.246
43691W        W 5057  16.627  10.178  10.997
43692W        W 5058   1.805  20.746  14.475
43693W        W 5059   4.758  18.206  12.049
43694W        W 5060  21.247  43.999  14.819
43695W        W 5061   5.427  13.638   0.386
43696W        W 5062   4.256  35.511   0.335
43697W        W 5063  15.735  19.176   0.871
43698W        W 5064  23.021  26.058   3.275
43699W        W 5065  34.384   6.830   2.217
43700W        W 5066  37.066  36.365   1.823
43701W        W 5067  25.017  20.558   2.815
43702W        W 5068  42.422  38.332  13.970
43703W        W 5069  25.202   5.933   4.257
43704W        W 5070  26.160  23.634   1.771
43705W        W 5071  29.026   5.235   4.676
43706W        W 5072  12.689  29.980  13.958
43707W        W 5073   2.312  39.483   2.311
43708W        W 5074   8.280  16.149   2.177
43709W        W 5075  44.475  11.795   3.274
43710W        W 5076  18.143  20.183   0.948
43711W        W 5077   5.295  23.037   1.853
43712W        W 5078  39.809  25.215  14.950
43713W        W 5079  23.004   2.351  11.064
43714W        W 5080  27.459  42.290   2.807
43715W        W 5081  35.914   1.465   1.784
43716W        W 5082   3.232   9.753  13.019
43717W        W 5083  10.857   9.661   1.313
43718W        W 5084  30.141  18.562   0.368
43719W        W 5085   7.224  42.011  13.057
43720W        W 5086  32.062  12.670   1.375
43721W        W 5087  25.549  25.656  11.545
43722W        W 5088   6.231  18.562  12.995
43723W        W 5089  28.655  29.445  10.574
43724W        W 5090   7.414  12.206  14.429
43725W        W 5091  19.054   6.687  13.498
43726W        W 5092   8.312  38.522  12.018
43727W        W 5093  15.788  13.807  10.443
43728W        W 5094  13.341  21.115  12.037
43729W        W 5095  12.646  39.820   2.245
43730W        W 5096  14.116  42.954   3.159
43731W        W 5097   8.304  14.795  14.315
43732W        W 5098  29.616  28.050   2.414
43733W        W 5099  21.539  42.326  11.033
43734W        W 5100  18.751   0.757  14.458
43735W        W 5101  16.165  21.621  13.837
43736W        W 5102   8.884  36.396  10.525
43737W        W 5103   1.770  29.102  12.878
43738W        W 5104  18.152  17.600  12.933
43739W        W 5105   3.915  43.962  10.576
43740W        W 5106   6.721  27.125   0.250
43741W        W 5107  32.485   8.278   1.857
43742W        W 5108  41.798   5.925  14.849
43743W        W 5109  33.541   7.395   4.202
43744W        W 5110  24.115  22.605  12.823
43745W        W 5111  44.434  23.051  11.566
43746W        W 5112   5.873   3.223  11.425
43747W        W 5113  39.353   7.876   4.608
43748W        W 5114  27.472  22.083  12.520
43749W        W 5115   0.960  35.946   2.194
43750W        W 5116   0.816  31.004  12.538
43751W        W 5117  31.620  30.059   2.814
43752W        W 5118  41.884  24.004  11.080
43753W        W 5119  40.966  28.008   2.794
43754W        W 5120  37.406  29.587   2.827
43755W        W 5121  29.654  34.491   3.809
43756W        W 5122  23.620   0.955  12.509
43757W        W 5123   5.425  17.183  14.300
43758W        W 5124  16.712  24.122   4.701
43759W        W 5125  36.944  22.622  14.486
43760W        W 5126  11.313  34.950   9.660
43761W        W 5127  14.142   1.460   4.252
43762W        W 5128  33.958  12.340   0.351
43763W        W 5129  19.190  19.590  10.553
43764W        W 5130  22.141  10.153  13.360
43765W        W 5131  14.761  18.775  14.947
43766W        W 5132   0.769  23.592  12.411
43767W        W 5133  25.688  40.869   2.889
43768W        W 5134  12.707  28.946  13.838
43769W        W 5135  38.493  15.162   2.725
43770W        W 5136  15.105  27.097   3.186
43771W        W 5137  38.451  40.837  13.798
43772W        W 5138   8.774  36.999   4.625
43773W        W 5139  38.855   5.316  14.320
43774W        W 5140  31.987   0.333   0.259
43775W        W 5141  34.933  20.559   2.329
43776W        W 5142  17.237   9.171   3.851
43777W        W 5143   8.356   3.440   0.956
43778W        W 5144  13.730  39.824  10.494
43779W        W 5145  19.126  40.874   4.819
43780W        W 5146   4.389   2.935  11.995
43781W        W 5147  13.202  32.500  12.919
43782W        W 5148  18.147  34.548  13.517
43783W        W 5149  14.242  38.487  14.402
43784W        W 5150  19.215  39.343  12.937
43785W        W 5151  31.030   7.683  13.359
43786W        W 5152  11.852   0.827  13.939
43787W        W 5153  19.238  38.003   3.834
43788W        W 5154  29.118  22.731  11.531
43789W        W 5155   2.327  10.690  14.787
43790W        W 5156  24.679  33.473   3.331
43791W        W 5157  22.195  31.031   4.641
43792W        W 5158   1.949  35.935   1.760
43793W        W 5159  23.515   3.326  11.585
43794W        W 5160  27.668  21.261   0.829
43795W        W 5161  11.147   9.673   3.785
43796W        W 5162  44.363   6.785  12.523
43797W        W 5163  29.660  26.556   0.376
43798W        W 5164  21.758  31.472   4.622
43799W        W 5165  29.454  31.919  14.474
43800W        W 5166  28.506  19.574  12.874
43801W        W 5167  36.389  27.674   4.800
43802W        W 5168  11.651   9.668   0.443
43803W        W 5169  11.643  42.780   1.750
43804W        W 5170  26.106  35.919   0.806
43805W        W 5171  26.078  10.262  11.915
43806W        W 5172   0.453  18.778   2.721
43807W        W 5173  40.382   1.345  14.968
43808W        W 5174  21.204   9.326   0.464
43809W        W 5175  32.089  23.145  12.840
43810W        W 5176  28.944  35.069   2.347
43811W        W 5177   5.833  38.052   2.415
43812W        W 5178  40.310   1.805   1.323
43813W        W 5179   2.443  32.569   1.772
43814W        W 5180   3.311  23.005  14.347
43815W        W 5181  37.968  43.801   4.330
43816W        W 5182  41.024  33.085   1.905
43817W        W 5183  28.668   3.812   0.276
43818W        W 5184  44.928  37.525  14.933
43819W        W 5185  41.342  39.843   3.649
43820W        W 5186  38.953   9.175   4.687
43821W        W 5187   7.825  33.554  12.077
43822W        W 5188  25.148   7.717   3.364
43823W        W 5189   4.238  30.942  13.932
43824W        W 5190  34.061  19.549   3.788
43825W        W 5191  31.578  13.719   2.365
43826W        W 5192  39.448  28.565  14.319
43827W        W 5193   6.709  42.346  13.895
43828W        W 5194  37.056  28.544  10.442
43829W        W 5195   4.764  41.430  12.372
43830W        W 5196   6.745   8.329   1.876
43831W        W 5197   7.878  21.555   3.778
43832W        W 5198  18.175  12.813   0.861
43833W        W 5199  38.034  36.418   0.357
43834W        W 5200   1.427  16.770   0.329
43835W        W 5201   6.820   2.247  11.948
43836W        W 5202   8.675  30.435  12.418
43837W        W 5203  26.958  23.090   0.317
43838W        W 5204  39.508  16.699   3.188
43839W        W 5205  13.190  38.924  11.549
43840W        W 5206  26.195  25.610  10.539
43841W        W 5207  22.021  13.841   2.405
43842W        W 5208  26.581   7.890   4.788
43843W        W 5209  43.986  25.677  14.872
43844W        W 5210  43.931  36.392  14.429
43845W        W 5211  31.512  30.071   1.739
43846W        W 5212  38.453  33.495  11.478
43847W        W 5213   0.332  28.128   0.866
43848W        W 5214  23.116  26.080   4.285
43849W        W 5215  16.226  16.227   4.791
43850W        W 5216  15.262  21.528  14.358
43851W        W 5217  13.690   1.902   1.215
43852W        W 5218  25.962  19.130   2.261
43853W        W 5219  34.472  21.594   2.803
43854W        W 5220  37.434   2.333  11.550
43855W        W 5221  42.392  23.633   4.167
43856W        W 5222   6.729   6.739  12.402
43857W        W 5223   0.803  21.208  10.455
43858W        W 5224  23.992  18.072  13.948
43859W        W 5225  30.989  34.009  14.306
43860W        W 5226  39.001  37.997   4.763
43861W        W 5227  15.691  24.027   4.265
43862W        W 5228  33.069   7.800  13.054
43863W        W 5229  36.983  22.717  11.992
43864W        W 5230  41.843  31.899   2.794
43865W        W 5231  16.714  11.827   2.702
43866W        W 5232   9.340  37.536   0.804
43867W        W 5233   9.160   2.908   1.229
43868W        W 5234  40.952  31.565   4.831
43869W        W 5235   5.707  16.249  11.451
43870W        W 5236  39.481  29.428   2.746
43871W        W 5237  34.111   6.865  14.447
43872W        W 5238  22.125  23.164  10.907
43873W        W 5239  38.862  17.299  14.879
43874W        W 5240  32.440   6.819  14.805
43875W        W 5241  29.579  20.620   1.240
43876W        W 5242  33.451  25.204   4.163
43877W        W 5243  24.580  21.545   3.740
43878W        W 5244   0.466   0.479   4.758
43879W        W 5245  10.289  13.175   0.315
43880W        W 5246  25.982  32.973  11.603
43881W        W 5247  22.524  23.153   0.333
43882W        W 5248  26.985   0.305  10.901
43883W        W 5249  42.521  25.664   2.231
43884W        W 5250  44.815  12.642  13.493
43885W        W 5251  40.850   2.845  12.563
43886W        W 5252  36.959  35.511  14.384
43887W        W 5253  24.712   5.398  11.400
43888W        W 5254  25.019  19.574  11.451
43889W        W 5255  24.227  22.681  11.079
43890W        W 5256  38.936   5.811   2.841
43891W        W 5257  28.937  31.418   3.761
43892W        W 5258   6.732  12.709   2.780
43893W        W 5259  11.238  25.635  10.607
43894W        W 5260  22.211  16.758  13.384
43895W        W 5261   3.341  32.955   4.693
43896W        W 5262  36.559   3.893  13.381
43897W        W 5263  41.299   4.852   2.694
43898W        W 5264  40.984   1.754  14.332
43899W        W 5265   1.471   1.380  12.566
43900W        W 5266  40.470   0.946  10.084
43901W        W 5267  15.794  21.741   1.724
43902W        W 5268  22.571   5.819   4.716
43903W        W 5269  30.950   8.281   4.801
43904W        W 5270  41.828  40.371   0.894
43905W        W 5271  25.506  14.272   3.705
43906W        W 5272  36.048  13.287   1.843
43907W        W 5273  11.259  28.472   4.697
43908W        W 5274  42.952  40.363   2.721
43909W        W 5275   7.766  41.954  14.806
43910W        W 5276  19.169  13.798   4.175
43911W        W 5277   5.711   6.207  14.953
43912W        W 5278  39.025  22.608  12.088
43913W        W 5279  16.687  14.292  14.836
43914W        W 5280  38.387  32.636  10.518
43915W        W 5281  12.348   8.899   3.278
43916W        W 5282   9.374   0.433  14.431
43917W        W 5283  16.608  35.554  12.920
43918W        W 5284  18.102   8.169   1.218
43919W        W 5285   5.242  31.460   1.735
43920W        W 5286  26.176   9.334  12.026
43921W        W 5287   9.310  44.488  10.570
43922W        W 5288  31.106   3.731   3.317
43923W        W 5289  32.493   1.855  12.969
43924W        W 5290   1.786  41.291  14.912
43925W        W 5291  44.262   7.790   0.363
43926W        W 5292  35.082  39.552   3.772
43927W        W 5293  39.909  30.601  14.773
43928W        W 5294  13.649  36.415   1.745
43929W        W 5295  21.057  25.472  11.053
43930W        W 5296  11.648  20.101  13.374
43931W        W 5297  36.091  42.839   3.762
43932W        W 5298   2.376   1.748  12.517
43933W        W 5299   6.690  22.210   0.935
43934W        W 5300  44.355   2.878   2.202
43935W        W 5301  21.057  27.987   1.253
43936W        W 5302   6.343  34.604  14.758
43937W        W 5303   6.402  19.284   2.222
43938W        W 5304  15.585  12.703  12.362
43939W        W 5305  30.950  20.552  11.395
43940W        W 5306  19.693  33.011  10.578
43941W        W 5307  21.228  41.501  12.830
43942W        W 5308  42.943  13.303  12.377
43943W        W 5309  19.069  22.198  13.991
43944W        W 5310  13.249  16.168  14.920
43945W        W 5311  36.944  34.567   0.917
43946W        W 5312   7.211  14.235  12.403
43947W        W 5313  17.695  17.599  10.444
43948W        W 5314  12.636  37.892   3.669
43949W        W 5315  30.558  24.172   1.706
43950W        W 5316  31.006   2.230   5.269
43951W        W 5317  23.643  36.530  13.017
43952W        W 5318  22.696  12.345   1.285
43953W        W 5319  31.474   2.330  11.449
43954W        W 5320  19.757   1.842   2.667
43955W        W 5321  29.164  36.493  10.532
43956W        W 5322  14.647  44.349   1.863
43957W        W 5323  37.536  42.393  12.943
43958W        W 5324  32.546  12.243   1.784
43959W        W 5325   0.283  34.095   1.426
43960W        W 5326  18.777  31.648   1.727
43961W        W 5327  25.196  34.525  11.505
43962W        W 5328  37.538  40.958   1.891
43963W        W 5329  31.063  42.287  10.602
43964W        W 5330  25.681  24.694  12.579
43965W        W 5331  31.495  13.111   4.764
43966W        W 5332  31.586   8.349  14.344
43967W        W 5333   0.852   6.877  12.426
43968W        W 5334   7.858  28.003  10.054
43969W        W 5335   6.915  42.290  13.337
43970W        W 5336  42.924  24.081  10.566
43971W        W 5337  22.235   5.349   3.269
43972W        W 5338  32.398  22.169  12.906
43973W        W 5339   4.281   6.887  13.398
43974W        W 5340  38.564  23.155  14.894
43975W        W 5341  17.792  10.815  10.617
43976W        W 5342  35.950  30.078   4.709
43977W        W 5343  44.437  12.264  12.969
43978W        W 5344  33.923  30.626  12.571
43979W        W 5345   7.253   2.463   3.840
43980W        W 5346  31.069  31.470  12.032
43981W        W 5347  37.465  39.938   0.348
43982W        W 5348   0.781  39.854  12.902
43983W        W 5349  30.614  35.501   2.374
43984W        W 5350  35.432   3.337   1.255
43985W        W 5351  44.412   5.857   4.225
43986W        W 5352   5.350  28.517   3.786
43987W        W 5353  16.081   6.306  10.511
43988W        W 5354  43.987  13.198   3.180
43989W        W 5355  15.579  44.320  11.395
43990W        W 5356  18.601   4.821   3.811
43991W        W 5357  43.902  14.619  11.081
43992W        W 5358  39.435  14.637  10.465
43993W        W 5359   5.322  30.055   3.180
43994W        W 5360  33.626   5.844  14.386
43995W        W 5361  23.569  40.822   4.220
43996W        W 5362   5.345   7.256   1.718
43997W        W 5363  31.984  33.969  14.925
43998W        W 5364  31.057  33.003  12.515
43999W        W 5365  16.312  26.580  10.056
44000W        W 5366  22.119   6.762  12.078
44001W        W 5367  10.379   0.798   2.825
44002W        W 5368  27.483  28.993   3.225
44003W        W 5369  17.610  33.039   2.277
44004W        W 5370  10.703   0.927   3.262
44005W        W 5371  11.753  18.644   0.883
44006W        W 5372  36.880  38.033   0.889
44007W        W 5373  21.080  30.036   1.227
44008W        W 5374  11.718  11.686  13.945
44009W        W 5375  23.558   6.737  14.959
44010W        W 5376  16.267  42.872  12.048
44011W        W 5377   6.797  25.016   2.290
44012W        W 5378   2.884  10.224   3.756
44013W        W 5379  20.557  38.883  13.881
44014W        W 5380  19.212  29.491   1.337
44015W        W 5381  33.589  10.757  13.391
44016W        W 5382  13.658  36.955   4.698
44017W        W 5383  40.442  14.654  11.549
44018W        W 5384  33.381  39.454   5.626
44019W        W 5385  44.450  28.107   1.809
44020W        W 5386  11.254  15.198   4.262
44021W        W 5387   8.266  26.989   2.706
44022W        W 5388  34.613   4.315   1.838
44023W        W 5389  27.960  27.034   0.860
44024W        W 5390  18.173  44.266  14.951
44025W        W 5391  41.511  34.551  12.518
44026W        W 5392   3.816  12.855   0.936
44027W        W 5393  29.639  24.648   3.303
44028W        W 5394  42.381  29.670  11.033
44029W        W 5395  34.562  11.326  14.853
44030W        W 5396  12.231   2.773   1.853
44031W        W 5397  14.636   0.385  14.342
44032W        W 5398   2.311   2.371   3.662
44033W        W 5399  16.250  24.101  14.841
44034W        W 5400  40.855   4.798   4.188
44035W        W 5401  31.973  38.991   4.760
44036W        W 5402  31.545  43.938   1.248
44037W        W 5403  33.957  39.467   0.849
44038W        W 5404   6.231  42.496   0.442
44039W        W 5405   9.884  44.008   2.366
44040W        W 5406  20.758  29.640   2.779
44041W        W 5407  27.972  39.437  13.525
44042W        W 5408  14.187   3.789   3.319
44043W        W 5409   2.819   4.281   4.796
44044W        W 5410  17.700  30.453  12.928
44045W        W 5411  19.723  17.615   1.749
44046W        W 5412  17.601  26.171  10.891
44047W        W 5413   2.254   0.950   3.743
44048W        W 5414  34.398  32.932  12.441
44049W        W 5415  32.394  17.779   2.824
44050W        W 5416  32.629   5.929   2.370
44051W        W 5417   2.777  15.622   1.836
44052W        W 5418   7.694  15.116   2.795
44053W        W 5419   2.398  10.349   4.298
44054W        W 5420  25.692  28.931   3.865
44055W        W 5421  13.614   8.859   0.340
44056W        W 5422   2.956  30.547   3.351
44057W        W 5423   6.273  13.807   0.786
44058W        W 5424  11.331  16.699   3.302
44059W        W 5425  44.811  21.636  11.558
44060W        W 5426  25.993   7.344  11.869
44061W        W 5427  33.425  38.454  11.895
44062W        W 5428  20.655  10.674  11.873
44063W        W 5429  19.701  34.975   0.814
44064W        W 5430  41.928  15.178   3.716
44065W        W 5431  34.581  37.882  11.928
44066W        W 5432  37.057  19.255  10.404
44067W        W 5433   5.359  20.650  10.538
44068W        W 5434   4.358  27.181   2.268
44069W        W 5435  19.192   4.712   2.866
44070W        W 5436  17.609  37.555   4.312
44071W        W 5437  38.928  11.314   9.940
44072W        W 5438   8.896  31.919  11.463
44073W        W 5439  21.207  41.806  10.610
44074W        W 5440  28.108  24.715   1.768
44075W        W 5441  24.489  24.147   1.257
44076W        W 5442  36.916  30.997   2.842
44077W        W 5443   0.772  12.179  14.887
44078W        W 5444  39.444  13.687   0.748
44079W        W 5445  42.946  18.133  14.858
44080W        W 5446  35.930  32.958   3.633
44081W        W 5447  28.005  30.587   2.778
44082W        W 5448  31.493  14.736   1.798
44083W        W 5449  25.080  44.901   1.874
44084W        W 5450  16.257  40.332   0.857
44085W        W 5451  41.292  42.333   1.313
44086W        W 5452  38.489  26.145  12.428
44087W        W 5453  21.609  31.071  10.446
44088W        W 5454  35.512  10.161   2.885
44089W        W 5455  17.300  16.624   0.811
44090W        W 5456   5.403  15.126  12.383
44091W        W 5457   0.353  25.080   3.174
44092W        W 5458  36.474  42.522  14.342
44093W        W 5459  32.565  30.590  12.929
44094W        W 5460  35.894   2.735   0.348
44095W        W 5461  37.425   8.795  10.959
44096W        W 5462  13.171  25.060   4.221
44097W        W 5463  37.040   5.817  12.024
44098W        W 5464  20.692  13.736  11.945
44099W        W 5465  20.608  44.494   3.208
44100W        W 5466  22.223  29.463   1.273
44101W        W 5467  24.177  38.968   5.268
44102W        W 5468  21.231  34.866   2.769
44103W        W 5469  30.573  31.646  11.115
44104W        W 5470  38.832  21.591  11.387
44105W        W 5471  34.874  38.017  13.991
44106W        W 5472  18.684   0.908  13.513
44107W        W 5473   4.419   1.430   3.699
44108W        W 5474  20.527  33.896   1.885
44109W        W 5475  25.182  30.990   1.416
44110W        W 5476  30.505   3.295   3.350
44111W        W 5477  36.370   0.933  13.313
44112W        W 5478  35.883  39.385  11.922
44113W        W 5479  37.444  12.620  13.521
44114W        W 5480   1.455  44.285  10.642
44115W        W 5481  39.946  19.162  12.434
44116W        W 5482   3.904   9.707   2.311
44117W        W 5483   9.878  30.584   1.347
44118W        W 5484  13.757  21.681   1.747
44119W        W 5485  24.092   7.288   2.862
44120W        W 5486  43.942  27.056  10.970
44121W        W 5487  14.163  28.008  14.920
44122W        W 5488   6.349  12.274  14.304
44123W        W 5489  12.665  10.822   3.635
44124W        W 5490   6.818  43.463   2.277
44125W        W 5491   3.350  26.080   2.269
44126W        W 5492  28.645  35.514   3.251
44127W        W 5493  14.825  18.138   5.092
44128W        W 5494   1.949  27.088   9.628
44129W        W 5495   9.255  30.973  13.458
44130W        W 5496  22.062  36.435   2.188
44131W        W 5497  37.378  33.517  10.523
44132W        W 5498  16.184  15.649  11.930
44133W        W 5499  27.002   6.185  10.032
44134W        W 5500  17.166  38.985   0.741
44135W        W 5501  22.132  10.658  13.950
44136W        W 5502  35.903   0.410  13.367
44137W        W 5503  44.495  11.714   4.619
44138W        W 5504  14.761   0.371  12.514
44139W        W 5505  17.283  17.218  10.943
44140W        W 5506   4.746  19.584   2.831
44141W        W 5507   4.790  38.515  12.906
44142W        W 5508  19.627   0.467  13.925
44143W        W 5509  39.944   4.386   2.346
44144W        W 5510  41.420  29.623   2.335
44145W        W 5511  28.665   7.192   0.270
44146W        W 5512  37.378  43.507   0.303
44147W        W 5513  41.350  44.986  12.024
44148W        W 5514  29.039   3.330   5.249
44149W        W 5515  10.636  31.643  11.062
44150W        W 5516  29.114  10.794   2.231
44151W        W 5517  36.862  14.768  12.518
44152W        W 5518  43.013  22.535  14.314
44153W        W 5519  28.087  30.977  14.430
44154W        W 5520  36.031  42.511  10.549
44155W        W 5521   0.426  21.175   3.226
44156W        W 5522  23.132  23.669   2.216
44157W        W 5523  10.349  31.600   4.163
44158W        W 5524  10.176  20.704   4.774
44159W        W 5525  30.571  32.477  11.506
44160W        W 5526   9.821  23.634   0.267
44161W        W 5527  35.402  21.026  13.405
44162W        W 5528  20.554   1.338   3.633
44163W        W 5529   5.788  21.749   4.186
44164W        W 5530  33.390  13.257   3.313
44165W        W 5531  12.671  21.137  13.887
44166W        W 5532  21.672  41.919   1.375
44167W        W 5533   4.746  42.001   1.828
44168W        W 5534  30.135  12.345  11.992
44169W        W 5535  44.903  19.221  14.771
44170W        W 5536  29.596  30.929   4.352
44171W        W 5537  25.488  11.638   4.686
44172W        W 5538  25.166  17.647   0.389
44173W        W 5539  31.151   9.273   0.332
44174W        W 5540  10.878  29.604  14.882
44175W        W 5541   7.413  21.072   4.635
44176W        W 5542  27.474   8.721   4.694
44177W        W 5543  24.680   1.754  12.823
44178W        W 5544  16.228   6.378  14.911
44179W        W 5545  36.378   8.167  12.090
44180W        W 5546  41.018  29.000   4.162
44181W        W 5547  32.550  17.097   4.792
44182W        W 5548  29.454  24.983   0.767
44183W        W 5549  25.586  34.507  14.829
44184W        W 5550   0.897  41.356  13.836
44185W        W 5551  28.516   0.745   2.899
44186W        W 5552   3.787  26.196  12.056
44187W        W 5553  32.529  22.575  13.875
44188W        W 5554  37.867   7.238   0.455
44189W        W 5555  32.401  13.183   1.387
44190W        W 5556  38.942   4.214   4.251
44191W        W 5557  25.525   0.959  11.576
44192W        W 5558  29.086   5.227  13.970
44193W        W 5559  23.548  33.590   3.370
44194W        W 5560  34.452  31.496  13.853
44195W        W 5561  13.105  20.147  13.451
44196W        W 5562  20.627  17.733   4.221
44197W        W 5563  26.630  28.534   2.372
44198W        W 5564  41.355  20.146  13.018
44199W        W 5565  44.393  17.077  11.389
44200W        W 5566  43.449  41.975   4.613
44201W        W 5567  28.089  10.642   4.241
44202W        W 5568   9.392  27.947   3.279
44203W        W 5569  19.601  36.468   1.798
44204W        W 5570  27.469   8.691   1.795
44205W        W 5571  21.231   8.758  11.474
44206W        W 5572  40.048  15.287   4.607
44207W        W 5573   0.250  35.026  13.308
44208W        W 5574  35.919  15.737   1.817
44209W        W 5575  44.898  43.777   2.668
44210W        W 5576  35.971   7.840   1.443
44211W        W 5577  15.702  36.090   2.329
44212W        W 5578   9.328  33.545  11.040
44213W        W 5579  13.297   6.257   5.321
44214W        W 5580  30.127  27.060   5.585
44215W        W 5581  14.272  23.492  12.538
44216W        W 5582  14.205  31.095  10.517
44217W        W 5583  15.661   0.317  13.026
44218W        W 5584  27.624   3.434  10.542
44219W        W 5585   3.271  40.485  10.499
44220W        W 5586   0.892  10.193  12.905
44221W        W 5587  21.231  11.253   0.799
44222W        W 5588  17.588  44.901  11.895
44223W        W 5589  24.186  29.959  13.045
44224W        W 5590  29.109  40.905  13.021
44225W        W 5591  22.685   8.235   0.750
44226W        W 5592   3.357   5.917  13.885
44227W        W 5593  34.882  40.516   3.285
44228W        W 5594  11.864  44.921  11.428
44229W        W 5595  33.529  14.616   1.771
44230W        W 5596  19.652  25.557  13.373
44231W        W 5597  13.830  37.045  14.992
44232W        W 5598  25.710  28.448  12.366
44233W        W 5599  35.071  43.857  12.562
44234W        W 5600  29.032  44.376  13.852
44235W        W 5601  29.526  12.680   2.858
44236W        W 5602  27.630  42.929  13.415
44237W        W 5603  21.695  18.594   1.314
44238W        W 5604   3.449   2.769   2.692
44239W        W 5605  22.703   9.285   1.410
44240W        W 5606   3.722   8.815  14.288
44241W        W 5607  30.482  26.659   4.148
44242W        W 5608   4.774  19.199   3.156
44243W        W 5609  38.548  41.826  10.447
44244W        W 5610  21.196   3.422  14.943
44245W        W 5611  21.167  20.767  11.977
44246W        W 5612  10.341  13.688  10.050
44247W        W 5613   8.669  25.049   3.680
44248W        W 5614  43.365   0.986  13.532
44249W        W 5615  31.903  35.924  14.335
44250W        W 5616  22.178  31.017  14.450
44251W        W 5617  28.126   4.227   3.806
44252W        W 5618  22.728  21.022  10.075
44253W        W 5619   5.247  15.660   1.806
44254W        W 5620  33.129  34.913   4.350
44255W        W 5621  20.055  36.860   0.747
44256W        W 5622  35.027  36.534   0.392
44257W        W 5623  26.485  29.085  13.542
44258W        W 5624   9.674  10.163   3.730
44259W        W 5625  22.551  14.280  14.888
44260W        W 5626   5.246  34.990   1.364
44261W        W 5627  28.961  36.522  12.568
44262W        W 5628  33.625  29.486  10.422
44263W        W 5629  20.581  35.594  13.845
44264W        W 5630  37.336  35.996  13.929
44265W        W 5631  43.373  14.802  14.887
44266W        W 5632   5.401   9.319  14.827
44267W        W 5633   9.816  10.843  13.803
44268W        W 5634  25.010   7.738   2.817
44269W        W 5635  42.350  17.577  10.408
44270W        W 5636  25.081  26.151  14.858
44271W        W 5637   0.367  15.776  10.543
44272W        W 5638  26.951  24.177   3.685
44273W        W 5639  20.754  30.039   4.256
44274W        W 5640  12.210  35.857  11.390
44275W        W 5641  41.938   0.311  14.799
44276W        W 5642  42.401  28.547  13.425
44277W        W 5643  41.434  33.541  13.060
44278W        W 5644  39.064  18.596   2.188
44279W        W 5645   3.239  16.087   4.127
44280W        W 5646  26.589  15.664   1.289
44281W        W 5647  33.915  42.996   4.735
44282W        W 5648   4.334  29.619   1.403
44283W        W 5649   8.225   4.351  10.572
44284W        W 5650   6.870  38.477  12.486
44285W        W 5651  31.500   8.386  12.987
44286W        W 5652   1.794  13.616  14.802
44287W        W 5653  35.476  10.180  13.498
44288W        W 5654   8.299  12.648  12.406
44289W        W 5655  36.524  37.445   4.248
44290W        W 5656   5.293  19.131  11.071
44291W        W 5657   0.817  44.383   0.300
44292W        W 5658  36.077  30.608   1.703
44293W        W 5659  20.059  30.597   4.715
44294W        W 5660  16.580  33.505  12.553
44295W        W 5661  37.479  34.564  11.056
44296W        W 5662  10.256  10.331  12.971
44297W        W 5663  33.991  13.174   2.750
44298W        W 5664  42.849  17.560  12.955
44299W        W 5665   2.373   5.797  11.002
44300W        W 5666  10.754   9.376   2.765
44301W        W 5667  24.713   7.241   3.785
44302W        W 5668  22.503   2.824  13.469
44303W        W 5669  18.708  23.161   2.227
44304W        W 5670  42.288  12.327   0.939
44305W        W 5671  15.150  39.333  10.980
44306W        W 5672  38.056  34.396   4.795
44307W        W 5673  29.086  40.003   0.476
44308W        W 5674  10.141  30.930   3.828
44309W        W 5675   3.266   0.387  11.065
44310W        W 5676  33.038   2.310  14.959
44311W        W 5677  25.169  11.244   0.895
44312W        W 5678  43.448  31.581  11.526
44313W        W 5679  41.938  26.058  10.914
44314W        W 5680  18.118   7.257   4.617
44315W        W 5681   8.386  11.798   4.278
44316W        W 5682  21.243  43.003   3.387
44317W        W 5683  17.588  22.574  11.936
44318W        W 5684  35.401   1.809   1.866
44319W        W 5685  25.536   3.799  12.840
44320W        W 5686  39.321  39.914   0.826
44321W        W 5687  34.905   2.889  13.875
44322W        W 5688   5.892  33.910  13.890
44323W        W 5689  30.991  30.163  14.901
44324W        W 5690  23.681  22.508   2.786
44325W        W 5691   9.384  33.460   3.770
44326W        W 5692  27.133   3.883   2.314
44327W        W 5693   2.958  32.906   2.291
44328W        W 5694  22.606  19.631  12.059
44329W        W 5695   0.810  15.659   0.858
44330W        W 5696  19.546   3.254   4.788
44331W        W 5697  27.102  30.563  14.822
44332W        W 5698  27.985  15.322   2.724
44333W        W 5699  17.660   8.683   3.850
44334W        W 5700  19.237  44.905  13.898
44335W        W 5701   2.273  32.618   1.384
44336W        W 5702  36.918  21.594   1.738
44337W        W 5703  19.741  38.410   1.762
44338W        W 5704   0.866  42.330  13.383
44339W        W 5705  14.798  44.305  10.637
44340W        W 5706  26.168   3.247  14.510
44341W        W 5707  24.082  33.102   1.863
44342W        W 5708  33.604  26.636  13.395
44343W        W 5709  35.495  29.600  14.338
44344W        W 5710  44.451   4.350   4.188
44345W        W 5711  37.852  34.095   2.671
44346W        W 5712  38.519  25.040  13.451
44347W        W 5713  44.773   9.395  10.556
44348W        W 5714  18.730  15.274   4.281
44349W        W 5715  18.252   5.840  12.490
44350W        W 5716  15.093  11.144   2.318
44351W        W 5717  32.636  17.633   3.150
44352W        W 5718  22.697  26.661   2.201
44353W        W 5719  17.117  36.055   4.780
44354W        W 5720  14.782   6.837   1.802
44355W        W 5721  29.920   3.337  10.553
44356W        W 5722  14.108   1.341   1.434
44357W        W 5723  30.472  43.290  13.464
44358W        W 5724  37.363   7.726  14.012
44359W        W 5725  29.450  42.440   0.872
44360W        W 5726  36.471  21.674   2.818
44361W        W 5727  24.718  29.126  12.941
44362W        W 5728  40.919  18.784  10.562
44363W        W 5729   9.293  36.469   4.781
44364W        W 5730  12.160  24.096   1.432
44365W        W 5731   1.268   0.808  11.581
44366W        W 5732   3.944  44.768   0.389
44367W        W 5733  43.841  37.420   4.656
44368W        W 5734  24.060  36.995  12.352
44369W        W 5735  10.664  22.126  14.842
44370W        W 5736  21.252  31.073  10.465
44371W        W 5737  40.525  37.942   1.831
44372W        W 5738  29.014  21.047  10.497
44373W        W 5739  12.683  35.511  13.495
44374W        W 5740  37.085  29.071   4.818
44375W        W 5741  19.569  17.123   2.344
44376W        W 5742  32.991  11.219  12.882
44377W        W 5743  21.185  33.061  12.841
44378W        W 5744  36.006  41.419  14.954
44379W        W 5745  31.409  10.748   3.304
44380W        W 5746  21.573  25.087  13.022
44381W        W 5747  29.509  42.930  14.846
44382W        W 5748  13.829  43.858  11.860
44383W        W 5749   3.401  35.931  14.772
44384W        W 5750   2.367  20.108   3.629
44385W        W 5751  29.994  22.508  12.433
44386W        W 5752  34.612  35.384  13.442
44387W        W 5753   3.242  44.813  14.761
44388W        W 5754  14.828  34.875   9.470
44389W        W 5755   4.329  16.810   2.829
44390W        W 5756  35.480  13.838  11.492
44391W        W 5757  15.681  41.401   0.890
44392W        W 5758  35.922  18.190   3.311
44393W        W 5759  25.105  23.561  12.521
44394W        W 5760  14.637  37.987  12.532
44395W        W 5761   0.471  38.886   2.226
44396W        W 5762  40.963  21.561  11.905
44397W        W 5763  17.762  15.127  12.045
44398W        W 5764  17.564  38.325   0.824
44399W        W 5765  31.503  26.691   0.957
44400W        W 5766  38.487  23.496   3.278
44401W        W 5767  41.361  34.397  14.818
44402W        W 5768  44.286  41.039  11.043
44403W        W 5769  27.140   9.191   4.305
44404W        W 5770   1.388  32.570  12.339
44405W        W 5771  19.178  23.547  11.045
44406W        W 5772   0.449  18.551  11.951
44407W        W 5773   8.396  10.303  14.918
44408W        W 5774  20.596   0.825  13.817
44409W        W 5775  36.901  31.535   2.262
44410W        W 5776  32.452  32.972  13.324
44411W        W 5777  18.629  29.444   5.168
44412W        W 5778   4.394  42.841  10.532
44413W        W 5779  24.532   5.431   1.832
44414W        W 5780  35.868   7.799   3.725
44415W        W 5781  25.484   7.379  13.817
44416W        W 5782  28.566  22.647   5.253
44417W        W 5783  40.396  10.683   3.750
44418W        W 5784  42.016  21.067  14.977
44419W        W 5785  25.587  12.833  12.927
44420W        W 5786  31.896  12.659   3.261
44421W        W 5787  38.964   2.379   0.386
44422W        W 5788   9.657  36.510   1.360
44423W        W 5789   5.717  40.981  11.106
44424W        W 5790   8.772   9.836  12.836
44425W        W 5791  37.939   2.945  11.981
44426W        W 5792   5.273  31.030   2.757
44427W        W 5793  14.161  14.306   3.213
44428W        W 5794   5.774   9.201   1.701
44429W        W 5795  28.166  19.625  14.967
44430W        W 5796  21.133  43.485   1.814
44431W        W 5797   3.221  43.019   2.238
44432W        W 5798  28.950  23.718   3.659
44433W        W 5799   0.889  35.367  13.498
44434W        W 5800  34.533  37.938   0.814
44435W        W 5801  38.519  30.605   0.784
44436W        W 5802  14.637   0.854  11.984
44437W        W 5803  18.774  38.511  13.925
44438W        W 5804  12.185  39.313   0.964
44439W        W 5805  27.613   2.760   3.726
44440W        W 5806  19.128  25.579   2.766
44441W        W 5807  42.316  10.853   3.832
44442W        W 5808  18.783  20.648   4.733
44443W        W 5809  14.638   5.318  13.856
44444W        W 5810  37.970  28.540   4.295
44445W        W 5811  38.881  21.533   3.639
44446W        W 5812  15.250  24.572   2.769
44447W        W 5813  33.118   6.699   3.336
44448W        W 5814  26.557  26.076  10.526
44449W        W 5815   2.416   3.814   9.677
44450W        W 5816  44.454  18.189   3.690
44451W        W 5817  43.477   8.764   0.412
44452W        W 5818  38.520  43.292   2.706
44453W        W 5819   5.888   0.474  12.544
44454W        W 5820  21.105  21.026  12.561
44455W        W 5821  29.501  11.756   1.850
44456W        W 5822  15.599  40.468  14.327
44457W        W 5823  10.338  41.459  13.020
44458W        W 5824  28.634  18.066   4.838
44459W        W 5825  30.571  27.029   1.884
44460W        W 5826   8.395  21.720  11.590
44461W        W 5827  18.059  18.755  12.523
44462W        W 5828  30.930  15.607  12.386
44463W        W 5829  28.547   6.209  11.001
44464W        W 5830  31.604  13.228   1.858
44465W        W 5831  36.573   3.321  14.398
44466W        W 5832   4.846  24.978   0.805
44467W        W 5833  20.131  22.668  10.097
44468W        W 5834  44.361  29.084   2.886
44469W        W 5835  23.560  18.194  11.393
44470W        W 5836  44.265  29.153  10.495
44471W        W 5837   6.845  44.964  10.406
44472W        W 5838  30.106  24.191  12.578
44473W        W 5839  15.683  27.545   1.327
44474W        W 5840  11.721   8.848  14.977
44475W        W 5841  18.749  30.532  10.529
44476W        W 5842  43.415  19.151   2.844
44477W        W 5843   1.246  17.632  14.897
44478W        W 5844  20.183  29.466   2.342
44479W        W 5845  28.006   7.793   2.256
44480W        W 5846  44.304  13.189   2.343
44481W        W 5847  15.716  36.064   0.964
44482W        W 5848  21.603  34.885  12.572
44483W        W 5849  24.107   0.975   1.756
44484W        W 5850  18.183   0.262   2.286
44485W        W 5851  38.468  30.119  12.866
44486W        W 5852   4.334  33.071   2.217
44487W        W 5853  30.090  32.521   0.896
44488W        W 5854   7.802  28.483  13.804
44489W        W 5855   8.788  29.533   2.264
44490W        W 5856  41.989  10.352  12.492
44491W        W 5857  42.505  19.639   5.269
44492W        W 5858  41.526  19.055  12.440
44493W        W 5859  29.615   4.714  12.438
44494W        W 5860  35.066  14.184   2.216
44495W        W 5861  26.174  32.482  14.311
44496W        W 5862  20.178  24.071   2.794
44497W        W 5863   3.272  32.598   4.624
44498W        W 5864  39.376  40.539  12.064
44499W        W 5865  27.448   6.749   4.240
44500W        W 5866  27.666  31.436   0.821
44501W        W 5867  32.068  41.469   4.282
44502W        W 5868  31.048  34.532  12.017
44503W        W 5869   5.796  41.873   2.326
44504W        W 5870  28.098  32.442  10.589
44505W        W 5871  40.881  27.516   2.381
44506W        W 5872   4.826  36.852  13.960
44507W        W 5873  37.918  20.738  11.111
44508W        W 5874  38.339  43.018   3.870
44509W        W 5875  18.115   4.862  13.981
44510W        W 5876  20.586  19.617   0.959
44511W        W 5877  37.566  41.510   3.759
44512W        W 5878   8.310   9.681   4.147
44513W        W 5879  21.095   1.933  12.566
44514W        W 5880  12.342   0.763  11.048
44515W        W 5881   2.268  33.929   4.206
44516W        W 5882  22.231  29.129  14.803
44517W        W 5883   2.338  29.669   4.158
44518W        W 5884  14.722  24.983  12.899
44519W        W 5885  35.504  19.192  13.529
44520W        W 5886  42.451  27.470  14.914
44521W        W 5887  24.061  42.907  10.016
44522W        W 5888   0.944  22.684  12.495
44523W        W 5889  17.265  43.456  11.998
44524W        W 5890  14.244  23.528  10.630
44525W        W 5891   8.901  17.675   1.400
44526W        W 5892  23.212  10.815  13.493
44527W        W 5893  22.010  19.101   2.810
44528W        W 5894   0.933   5.807   0.406
44529W        W 5895  32.945   0.897  11.030
44530W        W 5896   1.810  16.168   0.244
44531W        W 5897  44.387  14.714   3.831
44532W        W 5898  36.576  36.028  13.384
44533W        W 5899  22.171  24.675  10.443
44534W        W 5900  36.928  26.039   2.297
44535W        W 5901  33.428  19.116  11.424
44536W        W 5902  20.561  31.906   3.802
44537W        W 5903  39.842  36.069   4.807
44538W        W 5904  44.489  41.974  12.890
44539W        W 5905  14.719  15.710   1.380
44540W        W 5906  17.206  18.751   0.324
44541W        W 5907  20.057  16.631  12.458
44542W        W 5908  36.459  40.049   4.236
44543W        W 5909  27.059  15.301  14.898
44544W        W 5910  26.161   3.872   3.824
44545W        W 5911  44.943   1.280   3.787
44546W        W 5912   8.201  18.150  10.023
44547W        W 5913  10.845   0.250   0.475
44548W        W 5914  29.070  13.135   0.781
44549W        W 5915  33.949   7.766   2.317
44550W        W 5916  34.080  42.319   4.830
44551W        W 5917  29.943  32.502   2.706
44552W        W 5918  12.849   3.821   0.245
44553W        W 5919  13.624   6.916  10.450
44554W        W 5920  11.732  40.825  10.951
44555W        W 5921  37.417   4.422  14.969
44556W        W 5922  33.496  32.528   2.839
44557W        W 5923  13.263   2.238   0.360
44558W        W 5924  38.348  22.641  10.998
44559W        W 5925  25.155  23.010   2.680
44560W        W 5926  12.661  12.672  10.432
44561W        W 5927  29.439   3.894   0.823
44562W        W 5928  29.150  12.736  13.505
44563W        W 5929  15.819  17.110  14.278
44564W        W 5930  15.727  18.740  10.518
44565W        W 5931   2.305  37.065  14.435
44566W        W 5932  14.299  35.393   0.744
44567W        W 5933   7.180  37.408   2.338
44568W        W 5934   9.764  33.599  11.568
44569W        W 5935  19.096  20.029  14.923
44570W        W 5936  20.619  37.981  13.367
44571W        W 5937  32.401  42.463  13.916
44572W        W 5938   9.273  25.129   0.406
44573W        W 5939  30.092  40.446  11.098
44574W        W 5940  30.961  38.532   2.235
44575W        W 5941   2.950  10.200   4.747
44576W        W 5942   9.162  36.907  10.641
44577W        W 5943   1.867   7.720   0.860
44578W        W 5944  37.832  31.463   4.287
44579W        W 5945   3.373  34.006   4.172
44580W        W 5946  11.656  11.707   5.177
44581W        W 5947  23.140  43.871   2.892
44582W        W 5948   3.312  15.282  13.341
44583W        W 5949  37.079  42.449  13.414
44584W        W 5950  38.933  40.998  11.095
44585W        W 5951  11.302   6.249  10.574
44586W        W 5952  19.729  29.509   2.789
44587W        W 5953  41.811  43.494  12.505
44588W        W 5954   6.252  34.460  13.008
44589W        W 5955  32.025  12.233  11.535
44590W        W 5956  42.839   3.743  14.032
44591W        W 5957   4.313   5.694   2.261
44592W        W 5958   3.732  23.692   2.877
44593W        W 5959  19.122  28.660   1.338
44594W        W 5960  42.982  30.631   0.462
44595W        W 5961  30.939  22.060   2.227
44596W        W 5962  39.033  40.356  11.454
44597W        W 5963  10.147  33.083   2.244
44598W        W 5964  29.078  19.051   4.828
44599W        W 5965  33.012  24.221   1.305
44600W        W 5966  31.414  17.208   3.744
44601W        W 5967  44.792  14.626  14.281
44602W        W 5968  37.463   3.903   4.183
44603W        W 5969  40.007  18.093   2.229
44604W        W 5970  27.093  31.514  11.909
44605W        W 5971  29.646   7.251  11.968
44606W        W 5972   2.926  35.930   3.316
44607W        W 5973  12.305  30.553   0.243
44608W        W 5974   8.293  24.199   0.780
44609W        W 5975  24.523  42.886  12.546
44610W        W 5976  44.302  34.084  10.539
44611W        W 5977  25.014   1.775   3.757
44612W        W 5978   7.394  32.530   1.418
44613W        W 5979   8.344  38.499  10.484
44614W        W 5980   8.257   1.898  10.040
44615W        W 5981   6.884   1.808   1.769
44616W        W 5982   4.404  12.703  11.592
44617W        W 5983  35.051  22.236   3.280
44618W        W 5984  33.986   6.293  11.449
44619W        W 5985   2.827   8.733  13.962
44620W        W 5986  21.077  23.721   1.733
44621W        W 5987   1.920  26.670  13.509
44622W        W 5988  30.554   1.437   3.364
44623W        W 5989  36.946  27.146   3.329
44624W        W 5990  21.710   0.407  10.557
44625W        W 5991  40.425  23.678   3.226
44626W        W 5992  33.609  38.466  14.888
44627W        W 5993  17.721   9.239   4.744
44628W        W 5994  32.027  13.650  12.889
44629W        W 5995  27.022  25.579  14.801
44630W        W 5996  27.564  18.273  14.346
44631W        W 5997  20.230  33.620  10.082
44632W        W 5998  20.231  22.185   4.751
44633W        W 5999  38.461  14.287   0.330
44634W        W 6000  41.339   0.922   0.300
44635W        W 6001   9.686  30.536   4.829
44636W        W 6002  40.849  42.505  11.981
44637W        W 6003   1.325  10.831   1.213
44638W        W 6004  11.232  20.568  12.440
44639W        W 6005  31.137  35.461   1.422
44640W        W 6006  18.721  32.108  13.367
44641W        W 6007   2.303  38.471   1.728
44642W        W 6008   8.754  27.689  10.610
44643W        W 6009  36.438   8.183  10.999
44644W        W 6010  18.732   8.722  11.080
44645W        W 6011  16.133  24.196   3.300
44646W        W 6012  38.028  41.012  14.020
44647W        W 6013  44.430  22.731   3.268
44648W        W 6014  15.290  34.959  11.993
44649W        W 6015  15.812  27.969  11.552
44650W        W 6016   3.939  24.106  11.462
44651W        W 6017  17.723   4.773  14.277
44652W        W 6018  21.221  42.848   4.158
44653W        W 6019  24.197  20.266  14.363
44654W        W 6020  35.942  19.069   1.405
44655W        W 6021  19.071  44.403   1.327
44656W        W 6022   4.225  38.378  14.803
44657W        W 6023  24.624  43.499  14.863
44658W        W 6024  26.205  42.814   4.121
44659W        W 6025  17.233  18.641   2.341
44660W        W 6026  33.390   4.424  14.383
44661W        W 6027  41.335  28.101   0.301
44662W        W 6028  16.240   9.844  12.373
44663W        W 6029   6.378   8.357   2.800
44664W        W 6030  12.284  41.457  11.500
44665W        W 6031  40.847  14.657  12.994
44666W        W 6032  18.579  24.077   0.370
44667W        W 6033  35.358   1.944  13.854
44668W        W 6034   1.805  12.333   2.351
44669W        W 6035  14.655   0.392  14.862
44670W        W 6036  40.311  16.143   0.790
44671W        W 6037  42.833  38.553  11.087
44672W        W 6038  32.885  17.071  12.864
44673W        W 6039   1.370  16.774   1.823
44674W        W 6040  37.507  38.872   1.423
44675W        W 6041  37.831   6.267   0.459
44676W        W 6042  38.991  33.616  12.578
44677W        W 6043  25.000  35.552   3.286
44678W        W 6044  22.628  26.971  14.827
44679W        W 6045  22.576  44.285   3.351
44680W        W 6046   6.804  36.874   4.290
44681W        W 6047  29.440   1.389   4.115
44682W        W 6048  26.542  39.968   2.413
44683W        W 6049  15.597   8.263   1.439
44684W        W 6050  34.400  24.087   3.721
44685W        W 6051  14.102  44.439  11.032
44686W        W 6052  20.576  37.423  11.536
44687W        W 6053  20.741  38.341   0.815
44688W        W 6054  22.607   7.191  11.949
44689W        W 6055  36.072  37.492   3.631
44690W        W 6056  30.007  27.663   1.894
44691W        W 6057  34.414  35.946   3.359
44692W        W 6058  27.617  32.495  12.391
44693W        W 6059  39.917   3.730   1.868
44694W        W 6060  33.458   4.350  12.971
44695W        W 6061  21.150   6.425  10.958
44696W        W 6062   8.767  21.099   3.304
44697W        W 6063  41.469  15.613   3.799
44698W        W 6064  15.686  30.492   3.321
44699W        W 6065  18.660  26.474   0.243
44700W        W 6066  14.212  17.754  12.031
44701W        W 6067   2.457  38.937   0.799
44702W        W 6068  18.230  13.628   1.322
44703W        W 6069  33.576  29.921   0.428
44704W        W 6070  41.021   5.342   0.262
44705W        W 6071  29.474  44.348  14.938
44706W        W 6072   5.234   6.407   4.200
44707W        W 6073  28.437   2.414  13.858
44708W        W 6074   0.962  30.657   0.395
44709W        W 6075  15.622   2.459   2.353
44710W        W 6076  35.858  33.916  14.995
44711W        W 6077  39.964  19.125  12.049
44712W        W 6078  42.337  43.773   0.760
44713W        W 6079   7.238   7.193   4.625
44714W        W 6080  32.892  24.684   3.641
44715W        W 6081  14.599  16.788   4.341
44716W        W 6082  11.303   1.364  14.955
44717W        W 6083  32.596   8.282  10.459
44718W        W 6084  15.265  16.239   0.825
44719W        W 6085  26.131   9.867  13.060
44720W        W 6086  31.511  28.171   1.784
44721W        W 6087  31.953  41.442   0.747
44722W        W 6088  24.019  11.819   0.911
44723W        W 6089  30.656   7.277   0.907
44724W        W 6090  33.935   3.448   1.268
44725W        W 6091  43.398  30.063   1.217
44726W        W 6092   9.219  31.901  12.965
44727W        W 6093  14.231  30.128  13.437
44728W        W 6094  28.536  31.504   0.729
44729W        W 6095  18.284  12.848   0.262
44730W        W 6096   0.444  38.955  12.347
44731W        W 6097  20.232  16.663   1.852
44732W        W 6098  38.889  42.389  14.390
44733W        W 6099  39.404  12.743  14.499
44734W        W 6100  43.271  26.531   4.662
44735W        W 6101  28.525  44.372  11.884
44736W        W 6102  15.263  20.670   4.261
44737W        W 6103  23.985   7.276  13.947
44738W        W 6104  36.360  28.032   1.213
44739W        W 6105  38.426   4.209  12.009
44740W        W 6106  39.546  19.536  13.309
44741W        W 6107   3.736  10.187  13.867
44742W        W 6108  21.567  38.963   1.451
44743W        W 6109   4.301   7.182   0.333
44744W        W 6110  25.618  25.549   1.257
44745W        W 6111   8.762   9.220  12.426
44746W        W 6112  39.854   3.901   4.639
44747W        W 6113  33.912   1.911  13.343
44748W        W 6114   9.316   0.449  11.570
44749W        W 6115   2.841  18.055  14.917
44750W        W 6116  42.833  21.175   1.351
44751W        W 6117  32.420  37.948   0.733
44752W        W 6118  17.603  14.785   3.253
44753W        W 6119  16.316  36.567   1.364
44754W        W 6120  26.494  17.152   3.194
44755W        W 6121  19.260  18.278   0.911
44756W        W 6122  32.898  29.166  13.542
44757W        W 6123  10.660   8.179   3.364
44758W        W 6124  20.184  33.428   0.320
44759W        W 6125  37.876  24.014   2.782
44760W        W 6126  36.930  43.976  14.030
44761W        W 6127   4.855  18.097  11.483
44762W        W 6128   3.788  15.291  12.414
44763W        W 6129  37.861  23.030  14.305
44764W        W 6130  34.570  20.047  14.492
44765W        W 6131  30.635  11.279   1.705
44766W        W 6132  31.494   2.272  13.311
44767W        W 6133  28.585  33.575  14.909
44768W        W 6134  38.839   7.241  12.045
44769W        W 6135  12.153  20.529   0.966
44770W        W 6136   6.255  44.854   1.222
44771W        W 6137  18.207   5.794  14.760
44772W        W 6138  16.709  20.060  12.866
44773W        W 6139  33.463  19.629   4.673
44774W        W 6140  27.458   1.399   4.327
44775W        W 6141  33.897   9.765   1.772
44776W        W 6142  13.751  20.166   3.165
44777W        W 6143  17.085  44.319  11.062
44778W        W 6144  42.027  44.378   3.745
44779W        W 6145  33.564  44.920   3.206
44780W        W 6146  10.267  18.682  11.482
44781W        W 6147  34.558  36.455  11.481
44782W        W 6148   7.183  32.627   4.261
44783W        W 6149  30.083  21.551  11.467
44784W        W 6150  29.048   9.865   0.774
44785W        W 6151  37.571  17.211  13.795
44786W        W 6152  44.759  10.203   2.234
44787W        W 6153  33.888  22.032   4.138
44788W        W 6154   3.409  43.991   4.132
44789W        W 6155  43.492   8.728  11.108
44790W        W 6156  30.562  25.962  13.020
44791W        W 6157   8.852   0.450   0.846
44792W        W 6158  14.280  35.533   1.365
44793W        W 6159  11.793  22.571  10.915
44794W        W 6160  38.378  21.119  11.518
44795W        W 6161  19.540  37.435   3.857
44796W        W 6162  23.725   7.342   5.232
44797W        W 6163  30.155   2.465   1.794
44798W        W 6164   6.871   6.885   3.724
44799W        W 6165  24.511   2.943  10.989
44800W        W 6166  36.384  32.590  13.057
44801W        W 6167  38.567  41.885  14.818
44802W        W 6168  29.475  30.911  12.459
44803W        W 6169  29.555   8.768  13.453
44804W        W 6170  12.831  31.586  12.023
44805W        W 6171  11.140   0.911   2.687
44806W        W 6172  29.660  20.152  14.758
44807W        W 6173  28.460  30.955  13.807
44808W        W 6174  12.629  30.117  14.280
44809W        W 6175  18.174  12.273   1.809
44810W        W 6176  28.474  25.658   4.712
44811W        W 6177   8.319   3.330   3.829
44812W        W 6178  43.438  39.898   1.223
44813W        W 6179   2.851  16.718  11.863
44814W        W 6180   9.663  38.841  14.505
44815W        W 6181  30.653  18.689   5.749
44816W        W 6182   7.829  27.077  11.036
44817W        W 6183   2.843   3.892   5.316
44818W        W 6184  15.136  24.203  11.421
44819W        W 6185  26.519  17.270   0.470
44820W        W 6186  30.437  29.507  14.790
44821W        W 6187  35.503  20.089   1.739
44822W        W 6188  29.654  14.241   1.425
44823W        W 6189  39.512   9.328   2.725
44824W        W 6190   8.805   5.725  14.840
44825W        W 6191  31.540  43.007   0.765
44826W        W 6192  33.032  23.496  12.374
44827W        W 6193  19.551  18.724  13.945
44828W        W 6194   7.210  44.789  12.842
44829W        W 6195  14.775  31.020  12.554
44830W        W 6196  10.158  35.528   3.293
44831W        W 6197  20.755  44.959   0.402
44832W        W 6198  31.081   4.418   4.307
44833W        W 6199  13.758  40.850  11.599
44834W        W 6200  27.635  16.789   1.264
44835W        W 6201  24.480  31.481  13.943
44836W        W 6202   1.811  44.464   1.906
44837W        W 6203  37.947  31.447   0.780
44838W        W 6204  33.023  24.196  13.418
44839W        W 6205  15.775  41.439   0.395
44840W        W 6206  38.874  11.185  13.371
44841W        W 6207   1.801  16.127  11.533
44842W        W 6208  38.926  36.577   4.180
44843W        W 6209  30.414   8.654  11.104
44844W        W 6210  25.139  40.308   4.812
44845W        W 6211  44.408  15.095  12.837
44846W        W 6212  21.222  25.557   4.608
44847W        W 6213   1.311  32.035   4.205
44848W        W 6214  30.943  27.626  11.598
44849W        W 6215  32.917  21.735   5.107
44850W        W 6216   7.735  17.716   0.786
44851W        W 6217  31.064  43.943   4.839
44852W        W 6218   1.854  36.419  12.884
44853W        W 6219  24.041  32.049   2.329
44854W        W 6220  43.323   6.704   4.711
44855W        W 6221  22.031  36.049   1.880
44856W        W 6222  26.952   1.765   4.610
44857W        W 6223  33.553  36.485  12.523
44858W        W 6224  22.567  44.836   4.245
44859W        W 6225  18.614   5.712  14.811
44860W        W 6226  32.630  31.022  12.962
44861W        W 6227  43.373  29.022  11.093
44862W        W 6228  18.064   4.365  11.532
44863W        W 6229  42.393   3.828   2.836
44864W        W 6230  44.966  33.990   2.263
44865W        W 6231  27.009  42.362   1.382
44866W        W 6232  41.491  25.035  11.041
44867W        W 6233  17.234  23.190   4.829
44868W        W 6234  34.893  16.172   0.356
44869W        W 6235   5.760  26.506   0.746
44870W        W 6236  22.613  13.796   2.866
44871W        W 6237  40.501  26.532  13.849
44872W        W 6238  27.516  21.606  12.032
44873W        W 6239  12.797  17.639  10.463
44874W        W 6240   1.292  32.067  14.879
44875W        W 6241  36.483   1.865   2.215
44876W        W 6242  25.192  39.047  13.409
44877W        W 6243   4.325  43.282  14.807
44878W        W 6244  20.042   6.850   2.237
44879W        W 6245  35.378  42.790   4.651
44880W        W 6246  27.459   1.787   2.884
44881W        W 6247  37.546  27.194   3.197
44882W        W 6248  13.733   1.387   1.278
44883W        W 6249   6.832  38.987  11.569
44884W        W 6250  34.894   0.838  11.971
44885W        W 6251  30.034  33.131   1.731
44886W        W 6252  10.801   6.211  12.854
44887W        W 6253  21.132  32.577  12.517
44888W        W 6254  33.018  13.326  10.950
44889W        W 6255  41.801   8.363   3.680
44890W        W 6256  14.266   5.721  14.011
44891W        W 6257   9.879  38.012   1.923
44892W        W 6258  22.594  21.545   4.640
44893W        W 6259  29.066  40.391  10.546
44894W        W 6260   9.339   2.927  14.758
44895W        W 6261   2.442  29.527  11.437
44896W        W 6262  33.414  31.906  13.341
44897W        W 6263  37.443  23.643   2.869
44898W        W 6264  28.016  23.690  14.779
44899W        W 6265  43.336  10.820   2.702
44900W        W 6266  26.081  13.261   4.256
44901W        W 6267  26.486  27.108  13.852
44902W        W 6268  39.548  10.684   4.136
44903W        W 6269  23.173  26.612   3.652
44904W        W 6270  16.235  23.207   0.276
44905W        W 6271  44.300   7.840   9.954
44906W        W 6272  44.400   1.743   3.206
44907W        W 6273   9.841  20.630  11.606
44908W        W 6274   5.709  36.919  14.858
44909W        W 6275  14.179  33.978   4.252
44910W        W 6276  41.819  24.662  12.467
44911W        W 6277  10.170  39.026  12.875
44912W        W 6278   1.245  19.160  12.964
44913W        W 6279  33.119  24.049  11.968
44914W        W 6280  33.128  42.506  11.911
44915W        W 6281  14.283   8.662  11.020
44916W        W 6282   7.900  36.561  14.836
44917W        W 6283  39.516  30.109  11.522
44918W        W 6284  31.411  33.464  12.895
44919W        W 6285  38.039  25.682   0.848
44920W        W 6286  43.438  25.545  12.419
44921W        W 6287  36.855  42.372  14.357
44922W        W 6288  16.229  18.780   4.277
44923W        W 6289  16.149  32.446  13.546
44924W        W 6290  23.586  26.181  13.477
44925W        W 6291  10.220  14.213   1.440
44926W        W 6292  16.605  36.394  11.450
44927W        W 6293   7.894   4.433   2.292
44928W        W 6294  24.619   9.339   3.215
44929W        W 6295  20.676   9.856  13.410
44930W        W 6296   3.405  19.075  13.061
44931W        W 6297  19.695  12.789  12.422
44932W        W 6298   5.799  11.197   4.789
44933W        W 6299  38.001  24.098   4.773
44934W        W 6300  29.985   1.783   2.872
44935W        W 6301  42.791  30.466  14.488
44936W        W 6302  16.683  43.466  14.994
44937W        W 6303  19.570  40.417  13.869
44938W        W 6304  27.164  37.977  14.930
44939W        W 6305   9.673  15.217  12.093
44940W        W 6306   5.387  28.003  14.310
44941W        W 6307  43.993  22.572  10.902
44942W        W 6308   9.733  11.653  14.011
44943W        W 6309   8.162   5.349   2.668
44944W        W 6310   0.795   0.981  10.619
44945W        W 6311   8.296  26.603   1.890
44946W        W 6312   4.783  40.322  11.389
44947W        W 6313  11.722  28.449   0.736
44948W        W 6314  32.438  36.412   4.207
44949W        W 6315   7.369  19.284  12.457
44950W        W 6316  27.657   1.863  12.371
44951W        W 6317   1.291  43.844  14.275
44952W        W 6318  27.533  42.001  11.473
44953W        W 6319  33.899   7.742   0.395
44954W        W 6320  32.423  35.015   0.760
44955W        W 6321   0.419  31.504   2.298
44956W        W 6322  41.395  13.805   1.303
44957W        W 6323  20.568  37.058   0.480
44958W        W 6324  28.011  27.601   1.870
44959W        W 6325  31.549  36.924   0.462
44960W        W 6326  28.544   5.433   3.704
44961W        W 6327  39.990  13.177   2.876
44962W        W 6328  24.974  15.820   1.423
44963W        W 6329  33.487  40.919   0.861
44964W        W 6330  19.102  26.162  13.863
44965W        W 6331  17.610  17.115  11.384
44966W        W 6332   5.218  31.511  12.048
44967W        W 6333  29.968  35.483  10.636
44968W        W 6334  13.800   6.844  11.933
44969W        W 6335   9.247  39.552   3.773
44970W        W 6336  36.857   9.246  10.995
44971W        W 6337  11.681  14.808  12.492
44972W        W 6338   1.274  39.840   2.838
44973W        W 6339   8.254  27.483   1.337
44974W        W 6340   3.340  40.464  12.525
44975W        W 6341  21.674  43.293   0.767
44976W        W 6342  29.160   9.209  11.052
44977W        W 6343  36.962  40.887   2.362
44978W        W 6344  13.221  23.192  10.626
44979W        W 6345  24.210  15.316   1.285
44980W        W 6346  19.216  42.826  13.801
44981W        W 6347  10.645  10.655   1.928
44982W        W 6348  22.209  29.055  11.554
44983W        W 6349   3.739  13.212   4.142
44984W        W 6350  32.045  23.186   4.167
44985W        W 6351  34.008  33.472   4.692
44986W        W 6352  19.648   8.273   2.255
44987W        W 6353  10.707   2.904   4.162
44988W        W 6354   9.275   7.711   1.895
44989W        W 6355  42.363   3.411  13.912
44990W        W 6356  11.248  41.875  11.099
44991W        W 6357  25.985  23.106   3.205
44992W        W 6358  44.854  23.030  12.538
44993W        W 6359  22.084  35.438  14.928
44994W        W 6360  42.989  29.038   3.332
44995W        W 6361   9.285  35.020  10.616
44996W        W 6362  10.647  16.162  12.521
44997W        W 6363   1.415  29.095  12.376
44998W        W 6364   8.752  12.136   4.731
44999W        W 6365  35.990  31.995   1.733
45000W        W 6366  16.658  40.996   3.646
45001W        W 6367  18.241   8.730   3.724
45002W        W 6368  21.240  29.004  13.961
45003W        W 6369  14.131  25.995  13.801
45004W        W 6370  12.124  41.859   0.356
45005W        W 6371  41.505  19.537   0.843
45006W        W 6372   5.811  33.413  14.900
45007W        W 6373  26.967  10.176   2.742
45008W        W 6374  21.656  41.454  12.931
45009W        W 6375  12.827  29.037  12.455
45010W        W 6376  42.430  40.937  10.587
45011W        W 6377  26.966  44.501   2.832
45012W        W 6378  27.978  30.628  10.949
45013W        W 6379  40.444  24.079   4.330
45014W        W 6380   9.856   9.829   2.722
45015W        W 6381  40.018  20.079   0.331
45016W        W 6382  40.376  14.630   1.745
45017W        W 6383  37.433  18.774  13.857
45018W        W 6384  44.806  23.989  13.812
45019W        W 6385  29.482   5.213   1.295
45020W        W 6386  15.320  19.224   3.236
45021W        W 6387  20.227  42.981   2.280
45022W        W 6388  11.792   3.715   3.775
45023W        W 6389  11.830  16.620  13.934
45024W        W 6390  38.022   0.863  13.853
45025W        W 6391  37.906  30.058  14.330
45026W        W 6392  12.304  41.825   1.409
45027W        W 6393  35.039  35.086   0.248
45028W        W 6394  33.610   0.962   3.237
45029W        W 6395  34.028  43.512  14.998
45030W        W 6396  11.352  40.970  13.807
45031W        W 6397  31.446  34.071   1.237
45032W        W 6398  16.597  42.830   0.731
45033W        W 6399  20.139  33.442  12.515
45034W        W 6400  22.175  30.004   4.153
45035W        W 6401  16.763  21.121   2.293
45036W        W 6402  17.618   5.694  14.349
45037W        W 6403  11.641  25.996  13.804
45038W        W 6404  13.142  32.039  11.516
45039W        W 6405  34.562  33.400   0.766
45040W        W 6406  20.582   8.288   4.766
45041W        W 6407   8.208   0.953  11.558
45042W        W 6408   7.221  23.019   4.205
45043W        W 6409  44.793   8.178  10.922
45044W        W 6410  25.580  13.136   1.706
45045W        W 6411  19.759   1.731  14.381
45046W        W 6412  34.535   0.474   1.867
45047W        W 6413  17.750  39.533   2.237
45048W        W 6414  15.652  32.548  13.881
45049W        W 6415  18.659  28.577  14.984
45050W        W 6416   5.794  15.804   3.741
45051W        W 6417   6.888  39.034   4.269
45052W        W 6418  30.482  39.401  11.013
45053W        W 6419  40.836  25.109   3.682
45054W        W 6420  38.898  27.027  10.972
45055W        W 6421  25.658  30.008  11.444
45056W        W 6422  23.136  31.085   0.847
45057W        W 6423  35.007  44.429  11.011
45058W        W 6424  12.242  24.010  11.476
45059W        W 6425   1.780  31.086  14.873
45060W        W 6426  17.574  32.030  10.609
45061W        W 6427   1.461  17.276  11.377
45062W        W 6428  31.530  30.080   2.200
45063W        W 6429  42.830   5.202  13.014
45064W        W 6430  15.812  29.619   1.811
45065W        W 6431   5.389   0.253   1.259
45066W        W 6432  43.934   6.917  11.379
45067W        W 6433  34.509  12.845  13.355
45068W        W 6434  13.226  31.986   4.782
45069W        W 6435   2.407  23.506   0.887
45070W        W 6436  22.139  11.739   0.843
45071W        W 6437   1.878  15.215  12.959
45072W        W 6438  23.045  21.196   2.667
45073W        W 6439  34.072   8.738   1.815
45074W        W 6440  41.359  31.463  13.412
45075W        W 6441   4.237  35.936  14.923
45076W        W 6442  32.008  20.632  10.418
45077W        W 6443   2.431  30.549  13.018
45078W        W 6444  34.398  32.047  10.959
45079W        W 6445  44.494  20.044  14.383
45080W        W 6446  16.239   6.682   0.462
45081W        W 6447   9.743   7.249   4.293
45082W        W 6448   5.273   6.229  12.940
45083W        W 6449   6.345   2.956  14.861
45084W        W 6450   2.963  26.656   1.723
45085W        W 6451  14.654   4.291  11.105
45086W        W 6452  18.616   0.821   4.772
45087W        W 6453  11.311   3.256  10.563
45088W        W 6454  38.965  10.761  10.535
45089W        W 6455  13.740   6.219   1.714
45090W        W 6456   7.683   3.904  13.452
45091W        W 6457   1.829  20.736  10.553
45092W        W 6458  33.479   0.823   1.742
45093W        W 6459  25.125  35.064   1.802
45094W        W 6460  22.111  14.817  13.456
45095W        W 6461  24.035   9.797   1.812
45096W        W 6462  41.850  35.527  12.861
45097W        W 6463   2.350  18.699  10.506
45098W        W 6464   3.248   3.738  11.414
45099W        W 6465  29.656  41.360   2.369
45100W        W 6466  18.132  28.480  14.318
45101W        W 6467  27.085  32.891  13.820
45102W        W 6468  28.125  23.109  14.387
45103W        W 6469  18.135   3.854  11.590
45104W        W 6470  15.189  11.808   2.195
45105W        W 6471  27.126  15.293  13.936
45106W        W 6472  20.233  15.278   0.301
45107W        W 6473  33.046  12.302   4.626
45108W        W 6474   1.392  37.452  10.438
45109W        W 6475  10.639  39.458  13.508
45110W        W 6476   3.886  30.147  12.420
45111W        W 6477  41.035  37.480  14.830
45112W        W 6478  27.456  36.590   2.828
45113W        W 6479   1.432  39.531  14.874
45114W        W 6480  12.701   9.743   0.921
45115W        W 6481  38.484  38.045   4.228
45116W        W 6482  37.512  41.494   1.851
45117W        W 6483  43.357  14.700   2.772
45118W        W 6484  39.051  33.448  11.466
45119W        W 6485   4.356  24.496  10.993
45120W        W 6486  18.737  24.984   1.279
45121W        W 6487  40.416  42.348   0.401
45122W        W 6488  17.266  34.937  14.314
45123W        W 6489   8.173  43.003  10.034
45124W        W 6490  19.648  25.086   2.762
45125W        W 6491  14.737   2.742  14.476
45126W        W 6492  28.676  44.504   1.841
45127W        W 6493  38.864  10.835   2.204
45128W        W 6494   4.212   9.314   0.891
45129W        W 6495  41.928  37.469   1.720
45130W        W 6496   0.811  17.730   3.318
45131W        W 6497  35.048  32.027  10.532
45132W        W 6498  25.176  10.694  14.483
45133W        W 6499  20.108   9.251  13.534
45134W        W 6500   0.986  42.817  13.473
45135W        W 6501  21.172   8.849  10.159
45136W        W 6502   3.726   6.321  14.917
45137W        W 6503   7.896  37.459   5.273
45138W        W 6504  35.013  35.858  14.370
45139W        W 6505  18.734   7.172   5.308
45140W        W 6506  28.096  43.821   1.800
45141W        W 6507  18.776  13.682  10.433
45142W        W 6508  41.861  33.065   0.323
45143W        W 6509  30.097   3.412  11.948
45144W        W 6510  22.056  19.619   1.711
45145W        W 6511  32.001  28.626  11.437
45146W        W 6512  36.499  15.691   3.736
45147W        W 6513  27.127  27.108  12.929
45148W        W 6514  30.552  16.773   0.817
45149W        W 6515  40.379  11.222   2.273
45150W        W 6516  17.163  17.255   3.677
45151W        W 6517  34.502   5.233   3.285
45152W        W 6518  43.469  20.176  14.282
45153W        W 6519   9.220   4.324  14.011
45154W        W 6520  16.688  33.089  11.111
45155W        W 6521  22.635  35.066  13.517
45156W        W 6522   2.836  18.275   3.366
45157W        W 6523  17.631  15.736  11.004
45158W        W 6524  36.558  37.028  11.454
45159W        W 6525  37.444   7.699  14.821
45160W        W 6526  16.722  29.011   0.277
45161W        W 6527  26.479  27.625  12.839
45162W        W 6528  15.824  30.468  13.034
45163W        W 6529   5.845  44.262  14.496
45164W        W 6530  10.738   6.792  14.958
45165W        W 6531  31.896  37.366  14.379
45166W        W 6532  38.514  30.641  14.855
45167W        W 6533   5.879   2.938  13.423
45168W        W 6534  35.867  34.934  10.957
45169W        W 6535  44.466  22.106   3.298
45170W        W 6536  32.586   9.273  14.829
45171W        W 6537   9.152  18.276  13.932
45172W        W 6538   4.229  28.939  12.930
45173W        W 6539   8.827  40.825  11.984
45174W        W 6540  30.486  18.597   0.410
45175W        W 6541  18.578   0.416   4.785
45176W        W 6542  32.961  11.167  11.452
45177W        W 6543  36.042   7.747  14.290
45178W        W 6544  18.291   6.368  12.464
45179W        W 6545   1.325  12.745  12.958
45180W        W 6546  10.364  35.014   4.716
45181W        W 6547  42.862   6.304  10.944
45182W        W 6548  43.353  30.089   0.464
45183W        W 6549  36.066  21.724   4.316
45184W        W 6550  23.655  32.417  13.542
45185W        W 6551  44.290   3.308  13.503
45186W        W 6552  14.300  32.051  13.543
45187W        W 6553  40.958  29.454   2.829
45188W        W 6554  25.192   5.380  12.874
45189W        W 6555   8.753  41.422  14.350
45190W        W 6556  19.075  22.138   1.380
45191W        W 6557  22.102  35.988   2.380
45192W        W 6558  15.179   0.979   4.786
45193W        W 6559  33.129  13.665   4.696
45194W        W 6560  12.132  26.138  11.007
45195W        W 6561  27.056  35.005   0.862
45196W        W 6562  25.092  20.527   4.319
45197W        W 6563  13.645  20.683   3.681
45198W        W 6564  39.388  33.100  13.412
45199W        W 6565  40.865  11.858  13.992
45200W        W 6566  41.387  28.529  14.832
45201W        W 6567  13.162  41.372  10.547
45202W        W 6568  12.797   8.325   0.737
45203W        W 6569  10.383  44.393   4.833
45204W        W 6570  22.251  18.727   3.772
45205W        W 6571   7.300   5.797  12.867
45206W        W 6572  20.263  16.724   1.232
45207W        W 6573  14.164  15.710   5.094
45208W        W 6574  24.530   6.869   2.344
45209W        W 6575   7.689  33.622  12.548
45210W        W 6576  27.653  15.093  14.937
45211W        W 6577  26.508   5.787  12.980
45212W        W 6578  39.879  26.656   4.735
45213W        W 6579  29.091  18.569   0.283
45214W        W 6580  32.593  29.099  10.899
45215W        W 6581   5.350  39.865  13.921
45216W        W 6582  17.787  10.679  14.896
45217W        W 6583  19.594  38.004   3.260
45218W        W 6584   3.784   7.268  14.983
45219W        W 6585  14.617   0.424  11.962
45220W        W 6586  38.563  37.844  11.582
45221W        W 6587   5.238  18.600   4.707
45222W        W 6588   6.792  14.259  11.930
45223W        W 6589  23.549  16.149   2.843
45224W        W 6590  26.184  10.252  10.951
45225W        W 6591  39.379  11.265  10.533
45226W        W 6592  32.012  23.729  14.301
45227W        W 6593   6.290  24.185   9.971
45228W        W 6594  31.909  36.558   0.800
45229W        W 6595   5.724  13.821   0.964
45230W        W 6596  22.010  35.551   2.898
45231W        W 6597  34.891  36.996  14.444
45232W        W 6598  25.562  35.361  10.993
45233W        W 6599  13.169  32.407   0.855
45234W        W 6600  44.956  13.708  10.591
45235W        W 6601  25.538  32.539  13.952
45236W        W 6602   3.773  42.436  14.895
45237W        W 6603  10.168  11.302   2.402
45238W        W 6604  21.173  12.776  10.011
45239W        W 6605  41.806  29.997  14.972
45240W        W 6606   3.709  41.348  14.285
45241W        W 6607  20.233  34.431   1.801
45242W        W 6608  41.525  23.584  11.115
45243W        W 6609  22.069   2.838   0.778
45244W        W 6610  33.052  11.145  12.511
45245W        W 6611  42.885  12.748  11.864
45246W        W 6612  41.394  36.950  12.935
45247W        W 6613  32.077  40.357  12.940
45248W        W 6614  19.199  29.640   4.792
45249W        W 6615  28.568  12.732   1.860
45250W        W 6616   7.714  24.704   1.264
45251W        W 6617  14.325  30.998  11.910
45252W        W 6618  15.660  33.065   0.443
45253W        W 6619  36.027   7.335  14.298
45254W        W 6620  35.467  12.725   0.264
45255W        W 6621   8.709   3.330   2.207
45256W        W 6622  18.162  32.569   4.330
45257W        W 6623  11.367  39.823  12.345
45258W        W 6624  33.621  24.590  14.373
45259W        W 6625  24.049  25.176  12.576
45260W        W 6626  16.689   2.247  12.912
45261W        W 6627  18.671  34.991   5.234
45262W        W 6628  36.477   5.900   3.376
45263W        W 6629  39.380  40.325  11.538
45264W        W 6630  34.486   5.839   3.249
45265W        W 6631  37.962  22.628   1.876
45266W        W 6632  41.893  25.674   3.686
45267W        W 6633  14.710  11.218  10.530
45268W        W 6634  21.681  39.348  12.932
45269W        W 6635  14.314  41.878   4.113
45270W        W 6636  15.283  25.681   3.651
45271W        W 6637  33.985  14.821  10.444
45272W        W 6638  28.467  33.392   2.239
45273W        W 6639  11.842   1.358  10.919
45274W        W 6640  38.855  11.356  12.395
45275W        W 6641  44.281  23.229   4.698
45276W        W 6642  38.038   1.946   0.831
45277W        W 6643   5.403  26.140   0.840
45278W        W 6644   2.928  23.013   2.380
45279W        W 6645  12.266   9.234  11.489
45280W        W 6646  34.911  18.589   2.250
45281W        W 6647  40.991  39.377  10.452
45282W        W 6648   2.875  33.095  12.940
45283W        W 6649  34.438  37.376  13.320
45284W        W 6650  12.224  18.287  12.028
45285W        W 6651  29.940  20.146   1.215
45286W        W 6652   8.192  15.644  12.366
45287W        W 6653  37.397  35.096   0.809
45288W        W 6654  16.686   1.965  13.011
45289W        W 6655  16.225  16.270   0.348
45290W        W 6656  33.997  22.744  13.887
45291W        W 6657   8.239  13.285   0.332
45292W        W 6658  44.916  27.163   0.810
45293W        W 6659   9.742  24.544  10.534
45294W        W 6660  17.640   3.710   4.614
45295W        W 6661  24.520  33.996   9.524
45296W        W 6662   9.702  34.906  11.911
45297W        W 6663  16.796  32.581   4.130
45298W        W 6664  24.984  10.260   1.748
45299W        W 6665  30.001  30.046  12.549
45300W        W 6666  29.628  36.900   3.775
45301W        W 6667  14.637  40.303  13.489
45302W        W 6668  11.866  27.601   0.728
45303W        W 6669  32.452   9.803   4.719
45304W        W 6670  36.014  17.301  10.473
45305W        W 6671   2.378  22.738   0.401
45306W        W 6672  34.396  19.091   0.752
45307W        W 6673  16.217  32.529  11.944
45308W        W 6674  34.977  23.640   0.828
45309W        W 6675   8.657  37.881   0.856
45310W        W 6676  10.178   9.200   4.638
45311W        W 6677  36.961   4.398  13.466
45312W        W 6678  33.004  36.991  14.891
45313W        W 6679  24.213  42.516  14.494
45314W        W 6680  13.154  32.455   2.324
45315W        W 6681  24.121  22.089  13.442
45316W        W 6682  20.729  15.164   1.242
45317W        W 6683  44.932  12.183   0.242
45318W        W 6684  32.587  21.228  13.054
45319W        W 6685  34.429  39.034   0.798
45320W        W 6686   2.315   2.890   1.884
45321W        W 6687  35.061  24.631  11.479
45322W        W 6688  29.628  22.016   1.328
45323W        W 6689  40.479  32.986   1.911
45324W        W 6690  31.576   5.693   4.334
45325W        W 6691  35.099  35.857  12.000
45326W        W 6692  41.320  24.528   2.700
45327W        W 6693   2.260  18.135  14.791
45328W        W 6694  33.580  17.740   3.365
45329W        W 6695  44.408  24.082   2.892
45330W        W 6696  10.147  36.996  12.040
45331W        W 6697  20.258  39.898   4.283
45332W        W 6698  17.169   7.183  14.342
45333W        W 6699  26.202  18.220  11.438
45334W        W 6700  43.944   5.201   0.450
45335W        W 6701  18.234  18.094   2.313
45336W        W 6702   5.304  39.909   4.694
45337W        W 6703  16.778  23.060  11.584
45338W        W 6704  29.564  25.121  12.024
45339W        W 6705  32.564   6.194   1.358
45340W        W 6706  21.030  36.082   0.909
45341W        W 6707  31.446  23.631  11.601
45342W        W 6708  41.923   3.877   1.900
45343W        W 6709  39.905  17.078  14.003
45344W        W 6710  36.053  44.287   2.272
45345W        W 6711  40.436   4.244   4.197
45346W        W 6712  35.495   7.866  14.342
45347W        W 6713   3.433  25.044   4.613
45348W        W 6714   9.272  15.203   4.615
45349W        W 6715   0.797  17.299  13.416
45350W        W 6716   8.851  19.128   1.695
45351W        W 6717  22.216   6.227   1.716
45352W        W 6718  31.922  39.038  13.848
45353W        W 6719  21.132   2.870   1.786
45354W        W 6720  37.445  42.913   2.815
45355W        W 6721  34.384  28.154  14.360
45356W        W 6722  36.490  27.046   2.385
45357W        W 6723   5.298   5.220  11.032
45358W        W 6724  12.330  42.358   3.809
45359W        W 6725  32.634  17.139   0.324
45360W        W 6726  33.928  41.817   2.896
45361W        W 6727  43.021  24.127  13.375
45362W        W 6728   0.822  24.662  12.895
45363W        W 6729  20.580  14.282  13.007
45364W        W 6730  16.621  14.607   0.862
45365W        W 6731  33.891  22.007   2.258
45366W        W 6732  42.879   6.225  10.422
45367W        W 6733  28.652  34.923   1.225
45368W        W 6734  43.396  24.574   2.334
45369W        W 6735  42.829  37.058   4.183
45370W        W 6736  22.046  35.045  14.453
45371W        W 6737  36.351   8.860  12.046
45372W        W 6738  41.040  19.557  14.904
45373W        W 6739  30.593  15.605  14.023
45374W        W 6740  39.033  18.088  12.893
45375W        W 6741   7.413  43.475  14.340
45376W        W 6742  30.156  14.247   3.386
45377W        W 6743  43.503  30.050   4.145
45378W        W 6744  33.092  24.533  13.469
45379W        W 6745  12.166   5.858  11.014
45380W        W 6746  43.989  17.669   2.699
45381W        W 6747   1.848   8.695  11.957
45382W        W 6748  24.186  42.427  12.845
45383W        W 6749   4.858  22.237  12.923
45384W        W 6750   1.240  40.053  11.034
45385W        W 6751  12.811  18.564   2.205
45386W        W 6752  40.544  14.633   4.281
45387W        W 6753  10.854  10.825  11.533
45388W        W 6754  29.126  25.602  14.442
45389W        W 6755  10.221   6.681  14.810
45390W        W 6756  32.415   1.456  13.489
45391W        W 6757  16.245  26.171   1.719
45392W        W 6758   6.736  23.552  10.567
45393W        W 6759   8.182  31.532   3.243
45394W        W 6760   7.320  15.171   2.866
45395W        W 6761  17.285   4.367   2.234
45396W        W 6762  22.021  15.162  14.817
45397W        W 6763  26.049  17.303  14.940
45398W        W 6764  27.081  44.356  11.958
45399W        W 6765  34.941  40.445   0.336
45400W        W 6766   0.913   8.820   3.750
45401W        W 6767  37.494  39.880  12.993
45402W        W 6768  40.980  39.410   1.291
45403W        W 6769  23.994  37.501  13.387
45404W        W 6770  21.544   9.878  11.977
45405W        W 6771  41.330  23.510   3.205
45406W        W 6772   3.415  11.789   4.233
45407W        W 6773  41.941  38.828  10.488
45408W        W 6774   2.852   8.759  10.559
45409W        W 6775   2.916  32.028   0.736
45410W        W 6776  14.146   7.333  14.515
45411W        W 6777  44.303  25.058   0.951
45412W        W 6778  18.087  10.782  11.425
45413W        W 6779  17.178  16.182   1.776
45414W        W 6780  29.537  28.104  11.517
45415W        W 6781  32.423  21.054   2.696
45416W        W 6782  11.758  44.382   0.326
45417W        W 6783  16.751  14.818  11.423
45418W        W 6784  28.560   2.456   4.687
45419W        W 6785   0.436   1.374  10.594
45420W        W 6786  23.603   0.372   2.886
45421W        W 6787   8.814  21.112   1.719
45422W        W 6788   3.920  13.195   3.756
45423W        W 6789  17.691  25.493   4.225
45424W        W 6790  37.559   7.898  11.062
45425W        W 6791   7.840  41.947  12.353
45426W        W 6792  13.179   6.773   3.676
45427W        W 6793   0.805  16.087  12.431
45428W        W 6794  17.791  30.548   1.391
45429W        W 6795   8.757  32.042   1.368
45430W        W 6796  24.646   2.933  10.121
45431W        W 6797   1.441  43.354  12.439
45432W        W 6798  12.771   2.260   0.262
45433W        W 6799  38.350  22.247   4.742
45434W        W 6800  36.015   0.280  10.433
45435W        W 6801  30.937  28.151   2.834
45436W        W 6802   7.734  10.250   4.749
45437W        W 6803  35.872   4.806   2.867
45438W        W 6804  16.591   6.240  11.462
45439W        W 6805  25.497  35.098  12.952
45440W        W 6806  10.859  24.976   1.766
45441W        W 6807  17.671  15.635   4.794
45442W        W 6808   3.709   7.690  14.455
45443W        W 6809  40.053  18.685   0.278
45444W        W 6810  14.204  33.125  14.342
45445W        W 6811  22.126  19.080   2.391
45446W        W 6812  27.690  36.551  14.856
45447W        W 6813  38.454   4.773   0.474
45448W        W 6814  44.389  22.540   4.342
45449W        W 6815  22.598  43.809  10.006
45450W        W 6816   9.292  36.441   2.818
45451W        W 6817  25.005   7.198  12.467
45452W        W 6818   0.793  31.135  11.053
45453W        W 6819  12.630  23.024   4.666
45454W        W 6820  16.693  20.594   3.288
45455W        W 6821  44.989  27.511  14.855
45456W        W 6822  22.629   9.664   3.371
45457W        W 6823   2.258   6.714  14.360
45458W        W 6824  44.452  25.517   1.446
45459W        W 6825  24.498  42.897   1.720
45460W        W 6826   7.327  38.423  11.484
45461W        W 6827  11.694  10.263   4.640
45462W        W 6828  28.560  32.004  10.624
45463W        W 6829  36.482   8.863   2.857
45464W        W 6830  40.037   5.695   0.966
45465W        W 6831   4.445  39.526   1.836
45466W        W 6832  28.950  40.009   2.895
45467W        W 6833  37.853  34.004   3.783
45468W        W 6834  19.656   8.837  10.893
45469W        W 6835  35.551   8.341   1.900
45470W        W 6836  34.014  20.185  10.435
45471W        W 6837  11.629  17.073  11.017
45472W        W 6838  23.561  27.008  11.894
45473W        W 6839  35.451  37.927  12.890
45474W        W 6840  40.924  22.503  13.455
45475W        W 6841  22.220   4.310   1.891
45476W        W 6842  16.601   4.763  10.108
45477W        W 6843  21.020   7.797   2.714
45478W        W 6844  36.082  43.944   4.286
45479W        W 6845  38.013  36.562  13.878
45480W        W 6846  11.838  30.555   2.286
45481W        W 6847  33.542  44.264   2.373
45482W        W 6848  43.836   3.850  13.945
45483W        W 6849  24.515  11.632  11.443
45484W        W 6850  42.480   4.808  10.445
45485W        W 6851  42.924   4.243  12.970
45486W        W 6852   6.355  41.798  12.923
45487W        W 6853  26.126  16.650  13.832
45488W        W 6854  22.663  18.076  10.584
45489W        W 6855   6.186  16.698  13.316
45490W        W 6856   9.355  30.023  12.848
45491W        W 6857   2.873  43.822   3.783
45492W        W 6858  39.515  42.931  14.485
45493W        W 6859   5.199   9.718  14.944
45494W        W 6860  15.188  16.316   1.349
45495W        W 6861  41.865  32.418  14.935
45496W        W 6862  24.052  35.004  11.102
45497W        W 6863  30.646  40.519   0.916
45498W        W 6864  13.808  27.944  12.381
45499W        W 6865  33.002  42.955  14.770
45500W        W 6866   7.230  15.170   4.756
45501W        W 6867   4.233   4.228   3.330
45502W        W 6868  39.045  13.184  10.438
45503W        W 6869   0.841  30.635   2.713
45504W        W 6870  15.133  31.053  10.958
45505W        W 6871   5.933  10.828   3.698
45506W        W 6872  25.994  17.784  12.559
45507W        W 6873  42.936   4.704  14.275
45508W        W 6874  28.481   1.402   0.292
45509W        W 6875   6.371  18.699  10.075
45510W        W 6876  13.639  31.028   2.195
45511W        W 6877   2.359  32.093  10.605
45512W        W 6878  35.009   0.963  11.521
45513W        W 6879  12.805  30.068  10.509
45514W        W 6880   2.967  39.316   3.639
45515W        W 6881  20.638  38.028  12.033
45516W        W 6882  41.033  40.433   2.842
45517W        W 6883   8.888  24.577   4.315
45518W        W 6884  39.911   5.755   3.862
45519W        W 6885  22.644  13.820  11.047
45520W        W 6886  30.006   3.433  11.112
45521W        W 6887   1.351   3.305   2.178
45522W        W 6888  10.328  42.990   2.412
45523W        W 6889  18.634   5.311   2.335
45524W        W 6890  40.960  35.374   1.708
45525W        W 6891  41.021  43.321   3.853
45526W        W 6892  11.331   7.404  14.275
45527W        W 6893  29.627  44.906   0.446
45528W        W 6894   4.925  34.378   9.958
45529W        W 6895   8.845  13.194   1.426
45530W        W 6896   4.908   0.781  11.972
45531W        W 6897  14.790   8.312   0.319
45532W        W 6898  23.532  13.198  11.950
45533W        W 6899  31.138  15.321  10.911
45534W        W 6900  19.644  31.429  12.480
45535W        W 6901   9.254  31.558   1.821
45536W        W 6902  34.079  40.368  14.993
45537W        W 6903  36.904  30.545  12.473
45538W        W 6904  20.029  16.130   2.350
45539W        W 6905  27.017  22.714   0.851
45540W        W 6906  36.853  40.016   5.628
45541W        W 6907   6.345  34.470  10.980
45542W        W 6908  20.031   5.381  10.484
45543W        W 6909  43.988  41.992  12.357
45544W        W 6910  40.980  20.153   4.807
45545W        W 6911  33.950  42.810  13.865
45546W        W 6912  28.075   5.829   2.814
45547W        W 6913  15.684  41.907  11.529
45548W        W 6914   8.839  11.265  13.975
45549W        W 6915  43.316  33.032   0.283
45550W        W 6916  41.020  37.384  10.553
45551W        W 6917  18.622  34.563   1.415
45552W        W 6918   2.755   3.457  10.513
45553W        W 6919   4.282   5.702  13.957
45554W        W 6920  42.011  34.039  12.349
45555W        W 6921  24.129  14.297  12.488
45556W        W 6922  32.447  31.540  10.586
45557W        W 6923  15.091   3.447  12.009
45558W        W 6924  15.725  16.596   5.593
45559W        W 6925  15.697  34.082  12.933
45560W        W 6926  21.082  26.079   0.747
45561W        W 6927  24.562  27.609   1.860
45562W        W 6928   7.218  25.023  10.922
45563W        W 6929  18.193  23.081  14.788
45564W        W 6930  44.425  23.558   3.308
45565W        W 6931   2.250  30.996  11.861
45566W        W 6932  33.117   1.853   2.327
45567W        W 6933   0.474   6.813  14.918
45568W        W 6934  41.958  36.390  14.369
45569W        W 6935  27.160  41.022  12.534
45570W        W 6936  18.139  28.597  11.069
45571W        W 6937  31.991  26.973  12.515
45572W        W 6938   1.246  23.582  14.951
45573W        W 6939   1.786  33.578  13.869
45574W        W 6940  23.185  39.522   0.755
45575W        W 6941  11.714  34.572  11.539
45576W        W 6942  44.979  26.624   2.269
45577W        W 6943   1.778  19.712   4.348
45578W        W 6944  44.839  16.765   2.792
45579W        W 6945  40.542  24.539  11.881
45580W        W 6946  17.116  33.413  10.599
45581W        W 6947   9.209  28.182   3.749
45582W        W 6948  14.309   4.321  14.286
45583W        W 6949  15.084  13.276   4.267
45584W        W 6950   2.313  18.670  12.975
45585W        W 6951  20.668  13.246  14.443
45586W        W 6952  11.148  32.910   3.714
45587W        W 6953  40.874   1.297  13.954
45588W        W 6954  13.641  13.108  12.380
45589W        W 6955  21.618  22.211  12.045
45590W        W 6956  33.027  11.825   4.270
45591W        W 6957   1.341  30.490   4.150
45592W        W 6958   4.851  38.861  10.572
45593W        W 6959  16.760  34.481  13.358
45594W        W 6960   4.766   3.425  13.803
45595W        W 6961  11.766  43.372  14.351
45596W        W 6962  10.795  11.645  10.154
45597W        W 6963  44.383   1.377   2.346
45598W        W 6964   8.828  17.645   2.234
45599W        W 6965   6.725  41.939  10.963
45600W        W 6966  10.145  20.716   0.477
45601W        W 6967  25.995  29.966   0.419
45602W        W 6968  26.017  25.983   1.381
45603W        W 6969   9.804   7.686   4.680
45604W        W 6970  12.146   9.673   2.359
45605W        W 6971   1.927  40.330   1.304
45606W        W 6972   3.246   3.249  11.532
45607W        W 6973   7.222  12.296  10.929
45608W        W 6974  29.107   3.348  10.984
45609W        W 6975  15.750   8.793  14.818
45610W        W 6976  17.785  18.279   3.702
45611W        W 6977   3.411   1.461  11.595
45612W        W 6978  44.425   2.759   0.945
45613W        W 6979   1.779  42.887   1.347
45614W        W 6980  29.055  21.221   5.256
45615W        W 6981  34.404  26.562  11.395
45616W        W 6982  10.657  17.210  11.858
45617W        W 6983  22.186   0.280   4.654
45618W        W 6984  19.697  43.846   0.482
45619W        W 6985  12.821  13.350   4.656
45620W        W 6986  24.114   5.339  10.594
45621W        W 6987  40.454  44.320  14.825
45622W        W 6988  42.504  18.676  11.571
45623W        W 6989  33.398  42.983   0.804
45624W        W 6990  32.048  37.391   1.383
45625W        W 6991  42.811  42.393   1.424
45626W        W 6992  23.000   0.888  14.922
45627W        W 6993  18.690   4.430  11.448
45628W        W 6994  25.145   7.410  11.900
45629W        W 6995  34.974   4.377  12.577
45630W        W 6996  38.994  11.650   2.699
45631W        W 6997  18.204  17.185   2.901
45632W        W 6998  43.967  19.148  11.975
45633W        W 6999   0.898  15.086  12.423
45634W        W 7000  42.835  32.615  10.948
45635W        W 7001  42.030  42.491   1.344
45636W        W 7002  39.990  39.889   1.862
45637W        W 7003  43.951   8.658   1.344
45638W        W 7004   9.179  27.049   3.712
45639W        W 7005  15.190   3.903  10.927
45640W        W 7006  34.942  40.829  13.389
45641W        W 7007  13.106  27.978   3.808
45642W        W 7008  22.576  18.695  10.580
45643W        W 7009  15.710   4.257   0.345
45644W        W 7010  27.670  15.769   3.647
45645W        W 7011  36.552  10.862   0.941
45646W        W 7012  42.467  14.098   4.629
45647W        W 7013  12.259  31.636   0.822
45648W        W 7014  25.070  11.766  14.021
45649W        W 7015   8.376  30.041   4.298
45650W        W 7016  44.772   2.432   4.275
45651W        W 7017   3.251  35.372   3.798
45652W        W 7018  41.358  18.787  11.398
45653W        W 7019   9.205  18.639   0.287
45654W        W 7020  33.598  30.639   3.157
45655W        W 7021   0.912   1.894  14.803
45656W        W 7022  12.342  28.626  14.437
45657W        W 7023  29.550  14.113   9.960
45658W        W 7024  31.125  20.651  12.486
45659W        W 7025   9.223  14.178  11.383
45660W        W 7026  16.261  41.903  11.459
45661W        W 7027  15.739  25.652   2.698
45662W        W 7028   3.764   8.359   0.339
45663W        W 7029  26.481   0.851  14.952
45664W        W 7030  18.724  13.311  14.852
45665W        W 7031  41.292  23.711   4.650
45666W        W 7032  34.058  18.256  13.506
45667W        W 7033  25.643  25.597  12.538
45668W        W 7034  10.699  10.757   4.833
45669W        W 7035   7.281  31.643   4.679
45670W        W 7036  41.827   8.325   2.418
45671W        W 7037  28.526   4.248   1.441
45672W        W 7038  25.132  19.077  13.991
45673W        W 7039   3.306  15.650  14.908
45674W        W 7040  19.721  42.987   1.327
45675W        W 7041  33.093   4.897   0.291
45676W        W 7042  25.976  23.682   3.286
45677W        W 7043  12.723   6.418  12.495
45678W        W 7044  44.813  31.026   3.649
45679W        W 7045  13.845  13.739   0.847
45680W        W 7046  31.643  10.250   0.930
45681W        W 7047  44.443   2.820   3.779
45682W        W 7048  24.097  34.407   3.703
45683W        W 7049  32.518  13.159   0.913
45684W        W 7050   3.951   5.899   0.779
45685W        W 7051   7.681   4.783   2.693
45686W        W 7052  41.935  39.948   4.213
45687W        W 7053   6.743   9.201   3.176
45688W        W 7054  25.706  32.894   3.816
45689W        W 7055  43.786  41.487   1.394
45690W        W 7056  22.714  21.563   2.708
45691W        W 7057  40.366  14.144   3.363
45692W        W 7058  39.363  11.343  11.907
45693W        W 7059  15.763  41.534  13.822
45694W        W 7060  18.775  41.526  13.445
45695W        W 7061   0.454   2.373  11.593
45696W        W 7062  32.084   8.846  11.993
45697W        W 7063  40.926  26.039   0.765
45698W        W 7064  10.317  21.595   1.729
45699W        W 7065   9.743  23.720  12.359
45700W        W 7066  42.453  27.139   0.269
45701W        W 7067  12.334   0.757  13.447
45702W        W 7068  20.685  37.959   1.332
45703W        W 7069   3.420  32.512  12.487
45704W        W 7070  18.269  42.841  10.531
45705W        W 7071  28.637  14.141   0.843
45706W        W 7072  17.063   9.659   3.780
45707W        W 7073  28.082  24.155   1.296
45708W        W 7074  16.234  35.365   3.349
45709W        W 7075  41.441  25.990   3.757
45710W        W 7076  43.817  24.068   3.347
45711W        W 7077  26.032  36.364  11.589
45712W        W 7078   4.317  28.971   0.787
45713W        W 7079  21.103  13.234  12.440
45714W        W 7080  26.056  37.981  13.537
45715W        W 7081  30.977  29.531  10.572
45716W        W 7082  27.537  29.159   1.242
45717W        W 7083  23.612  25.107  11.997
45718W        W 7084  36.917   2.881  11.550
45719W        W 7085  12.172  29.156  14.378
45720W        W 7086  10.835   9.206   1.341
45721W        W 7087  36.363  40.997  14.935
45722W        W 7088  20.537  18.060   0.417
45723W        W 7089   9.225  38.859   3.749
45724W        W 7090  34.522  24.212  12.016
45725W        W 7091  18.590  30.589  12.468
45726W        W 7092  31.482  10.692  13.059
45727W        W 7093   0.436   3.389   3.262
45728W        W 7094  35.859  37.445  14.335
45729W        W 7095   7.858  17.230  12.928
45730W        W 7096  28.963  17.751  13.446
45731W        W 7097   2.779  29.135   9.495
45732W        W 7098  43.987   5.828  12.492
45733W        W 7099  36.063  36.952  14.919
45734W        W 7100  41.518  36.583   2.771
45735W        W 7101  35.457   6.892   0.899
45736W        W 7102  20.700   9.766  12.470
45737W        W 7103   4.734   0.797  10.477
45738W        W 7104  17.166  16.111   9.960
45739W        W 7105  25.118   2.963  12.054
45740W        W 7106   9.162  44.818  13.471
45741W        W 7107  39.518  12.338  12.927
45742W        W 7108  16.107  35.479  13.435
45743W        W 7109  13.236  25.005  12.879
45744W        W 7110  38.056  18.657   1.852
45745W        W 7111  33.456  12.773  14.983
45746W        W 7112  19.237  33.425   2.679
45747W        W 7113   8.300  22.656   3.664
45748W        W 7114  35.007   5.348  12.060
45749W        W 7115  43.927  20.082   4.191
45750W        W 7116  31.968  14.118   3.758
45751W        W 7117   2.369  35.025  10.479
45752W        W 7118  32.918  34.118   4.322
45753W        W 7119  24.605  25.711   3.236
45754W        W 7120  36.498   3.235  14.976
45755W        W 7121  29.486  34.387   2.404
45756W        W 7122  19.757  34.571   2.705
45757W        W 7123  17.719  33.106   1.734
45758W        W 7124  18.588  42.999   2.256
45759W        W 7125  17.117   6.713   0.243
45760W        W 7126  40.930  38.995   2.780
45761W        W 7127  34.061  17.571   4.658
45762W        W 7128  27.143  15.158  14.312
45763W        W 7129   3.802   9.740  14.410
45764W        W 7130   8.791  14.687   3.780
45765W        W 7131  41.510  18.202  11.915
45766W        W 7132   1.913  32.605  10.900
45767W        W 7133  29.460  10.181  11.906
45768W        W 7134  10.373  43.343  11.456
45769W        W 7135  37.938   8.838  12.461
45770W        W 7136   9.787   6.286   1.874
45771W        W 7137  15.636  25.602   4.231
45772W        W 7138   9.742  16.117  12.433
45773W        W 7139  15.141  22.185   0.888
45774W        W 7140  19.114   5.836   1.290
45775W        W 7141  18.590  36.980  11.001
45776W        W 7142  27.978  13.742   2.188
45777W        W 7143  29.436  41.501   1.301
45778W        W 7144   7.400  37.998  11.984
45779W        W 7145  31.442  11.695  11.117
45780W        W 7146  28.170   7.298  11.538
45781W        W 7147  33.950  41.401   1.318
45782W        W 7148  43.316  36.377   1.279
45783W        W 7149   8.858   0.798  14.915
45784W        W 7150  15.120   0.301   1.226
45785W        W 7151  44.764   6.778   4.188
45786W        W 7152  38.012  10.194  11.123
45787W        W 7153  10.287  26.117  12.393
45788W        W 7154   9.271  29.616   4.801
45789W        W 7155   3.837  22.624  14.289
45790W        W 7156  27.956  15.723  10.462
45791W        W 7157  23.710  31.648  12.567
45792W        W 7158   7.332   8.338   1.245
45793W        W 7159  11.128  44.760   3.696
45794W        W 7160  16.151  21.715   3.336
45795W        W 7161  37.873  16.245   2.803
45796W        W 7162  27.509  35.945  12.339
45797W        W 7163  24.588  27.673  11.610
45798W        W 7164  31.494  24.536  11.512
45799W        W 7165  18.784   9.828   1.694
45800W        W 7166  31.538  11.231   3.656
45801W        W 7167  41.024  33.558  12.495
45802W        W 7168   2.255  25.036   4.203
45803W        W 7169  19.082  17.244   2.342
45804W        W 7170  13.111   7.348   4.727
45805W        W 7171  28.033  19.126  10.091
45806W        W 7172  12.788   2.946   3.751
45807W        W 7173  12.257   3.429  14.886
45808W        W 7174  35.992  43.460   4.764
45809W        W 7175   4.439  42.916  11.982
45810W        W 7176   9.359  11.184   3.238
45811W        W 7177   9.218  13.280  11.951
45812W        W 7178  23.652  15.769   1.933
45813W        W 7179  30.054   1.307   2.666
45814W        W 7180  42.330  25.190  10.991
45815W        W 7181   4.369  34.039   4.744
45816W        W 7182   9.728  28.474  14.833
45817W        W 7183   6.759  37.868  11.054
45818W        W 7184  27.139  36.553   2.816
45819W        W 7185   8.712  25.689  13.442
45820W        W 7186  32.888  26.671  13.810
45821W        W 7187  19.615   0.454   3.256
45822W        W 7188   7.416  26.688  12.855
45823W        W 7189  22.248  12.239   3.313
45824W        W 7190  23.137  31.924   0.867
45825W        W 7191  14.199  24.538   1.704
45826W        W 7192   4.434  27.512   0.252
45827W        W 7193   1.321  11.773  12.008
45828W        W 7194  32.117  31.591  10.457
45829W        W 7195  39.418   1.954   3.205
45830W        W 7196  10.384  29.451  12.866
45831W        W 7197   2.852  17.600  11.869
45832W        W 7198   8.323  12.219  12.430
45833W        W 7199   1.459  36.934  11.457
45834W        W 7200  44.986  16.730   0.296
45835W        W 7201  38.342  22.067  14.454
45836W        W 7202  40.452  31.941   3.221
45837W        W 7203  16.571  10.822   2.203
45838W        W 7204  31.000   1.254   3.160
45839W        W 7205   2.824  40.887  14.961
45840W        W 7206  41.489  40.400   0.333
45841W        W 7207  26.647  14.653  14.462
45842W        W 7208  19.755   0.377   4.733
45843W        W 7209  21.079  12.274  10.961
45844W        W 7210  40.460   6.334  14.305
45845W        W 7211  11.710  10.708   1.412
45846W        W 7212  33.944  24.096  14.357
45847W        W 7213  33.616  43.923  11.513
45848W        W 7214  19.274   4.258   0.260
45849W        W 7215  28.179   2.950   3.857
45850W        W 7216  10.684  10.258   3.637
45851W        W 7217  15.639  42.523  11.511
45852W        W 7218   1.238  10.364  10.087
45853W        W 7219  12.729  41.325   1.796
45854W        W 7220   0.486  30.618   3.368
45855W        W 7221  31.423  32.414  12.825
45856W        W 7222  36.869  27.661  14.760
45857W        W 7223  18.702  15.189  12.579
45858W        W 7224  44.968  29.956   2.664
45859W        W 7225  22.533   8.267   2.730
45860W        W 7226  20.046  23.123  13.817
45861W        W 7227  41.016  15.631   1.811
45862W        W 7228  40.396   9.167  13.939
45863W        W 7229  11.190  29.437   3.266
45864W        W 7230   1.810  13.136   2.416
45865W        W 7231   0.915  30.119   2.791
45866W        W 7232  15.231  20.745   3.798
45867W        W 7233  40.455  43.515  10.528
45868W        W 7234  25.561  22.238   4.266
45869W        W 7235  15.729  33.046  12.487
45870W        W 7236  15.288   0.942  12.048
45871W        W 7237  26.515   7.367  10.429
45872W        W 7238   6.855  19.260   9.582
45873W        W 7239  38.363  44.431   3.217
45874W        W 7240  16.173  37.883   0.392
45875W        W 7241  15.290  13.812  11.564
45876W        W 7242  21.692  39.394   0.827
45877W        W 7243  27.073  10.349  13.313
45878W        W 7244  25.603   1.342  10.589
45879W        W 7245  38.832  39.893   1.898
45880W        W 7246  13.619  14.218  13.047
45881W        W 7247  24.002   7.788  13.349
45882W        W 7248  28.466  20.245  13.868
45883W        W 7249  18.607  18.641   2.827
45884W        W 7250  32.936  26.554   0.875
45885W        W 7251  26.515  40.891   1.318
45886W        W 7252  38.920  15.721   0.958
45887W        W 7253  42.373  31.095   0.868
45888W        W 7254  43.442  39.560   2.689
45889W        W 7255  34.373  22.126  14.909
45890W        W 7256  35.566   9.851   1.404
45891W        W 7257  44.475  20.240   2.327
45892W        W 7258  18.114  31.513   2.892
45893W        W 7259   3.278  19.207  10.520
45894W        W 7260  24.017  12.700   5.317
45895W        W 7261  16.687  42.877  11.460
45896W        W 7262   4.350   7.409  10.555
45897W        W 7263   1.327   0.958  13.462
45898W        W 7264  25.580  40.306   0.877
45899W        W 7265  38.415  26.530   0.902
45900W        W 7266  10.364  34.909  10.067
45901W        W 7267  31.574  43.926   2.358
45902W        W 7268  41.527  10.189   3.350
45903W        W 7269  10.273   2.741  13.424
45904W        W 7270   3.934  25.188   1.290
45905W        W 7271   0.408  34.466   4.667
45906W        W 7272  31.027  18.621   0.274
45907W        W 7273   8.359  17.731   0.732
45908W        W 7274   1.375   7.404  12.890
45909W        W 7275  25.074  31.621  13.485
45910W        W 7276  39.059   6.390  10.572
45911W        W 7277   7.891  28.606  12.574
45912W        W 7278   8.771  42.391  11.558
45913W        W 7279  26.566  25.079  12.519
45914W        W 7280  26.032   6.907  13.947
45915W        W 7281  39.887  41.946   3.669
45916W        W 7282  13.602  17.654   3.178
45917W        W 7283  12.796   3.410   0.335
45918W        W 7284  11.859  17.182   0.258
45919W        W 7285   3.796  23.188  14.434
45920W        W 7286  44.829   4.410   1.705
45921W        W 7287   1.757  12.278  11.057
45922W        W 7288   7.666   6.731  11.906
45923W        W 7289  18.615   4.923   3.344
45924W        W 7290   9.196   6.908   0.760
45925W        W 7291  37.879   5.792   2.313
45926W        W 7292   8.180  38.439  14.469
45927W        W 7293  12.245   3.268   0.253
45928W        W 7294   3.248  37.848  14.292
45929W        W 7295  40.836  10.808   2.179
45930W        W 7296  43.299  22.558  11.053
45931W        W 7297  26.483  32.577   1.400
45932W        W 7298  33.977  36.590  12.392
45933W        W 7299  16.183  35.066   1.828
45934W        W 7300  31.107  44.759  11.597
45935W        W 7301  42.410   0.930  12.950
45936W        W 7302  28.027  25.570  10.593
45937W        W 7303  10.294  11.757  12.982
45938W        W 7304  33.382  25.120   0.449
45939W        W 7305  36.419  25.170   3.275
45940W        W 7306  39.027  14.304   9.989
45941W        W 7307  16.302  11.202   0.410
45942W        W 7308  41.496  11.688  13.963
45943W        W 7309  42.377   1.279   0.911
45944W        W 7310  37.394  22.521  13.851
45945W        W 7311  24.176  15.653   4.250
45946W        W 7312  38.022  12.283  14.363
45947W        W 7313  26.531   3.885  13.376
45948W        W 7314  44.924  17.584   2.246
45949W        W 7315  43.900   8.250   2.719
45950W        W 7316   5.426  30.526  14.357
45951W        W 7317  31.453  39.933  13.973
45952W        W 7318  20.064  33.396  13.435
45953W        W 7319   6.762  30.928   3.798
45954W        W 7320   8.691  38.510   1.263
45955W        W 7321  38.512  34.436  11.402
45956W        W 7322   6.849  22.147   3.835
45957W        W 7323  16.106  25.499  10.635
45958W        W 7324  15.268   0.872   0.311
45959W        W 7325  38.927   9.299  13.491
45960W        W 7326   6.410   4.720   3.188
45961W        W 7327  11.854  27.136  10.502
45962W        W 7328   3.825  28.068  14.465
45963W        W 7329   7.182  44.428  11.065
45964W        W 7330  36.936  37.013  10.948
45965W        W 7331  31.610  21.157   2.808
45966W        W 7332  11.852   9.355   2.867
45967W        W 7333   8.655  32.132   3.664
45968W        W 7334  20.200  23.031  13.484
45969W        W 7335  37.551   1.888  14.916
45970W        W 7336  44.380  21.207   1.234
45971W        W 7337   9.756  24.725  11.514
45972W        W 7338  35.438  14.324  12.560
45973W        W 7339   4.411   7.879  13.454
45974W        W 7340   8.696   4.211   1.855
45975W        W 7341  38.478  21.639  13.819
45976W        W 7342  19.640  30.038   1.933
45977W        W 7343  29.941   5.890   0.814
45978W        W 7344  38.950  23.120  12.555
45979W        W 7345   4.834  19.104   4.199
45980W        W 7346  42.348  43.387   4.678
45981W        W 7347   8.357  27.585   4.626
45982W        W 7348  30.479  10.830  11.372
45983W        W 7349  37.375  40.455   2.828
45984W        W 7350  30.486  24.540  11.060
45985W        W 7351  39.915  27.139  13.413
45986W        W 7352  25.069  27.100   3.705
45987W        W 7353  36.060  27.196   2.844
45988W        W 7354   0.940   7.889   1.353
45989W        W 7355  37.543  41.904   5.169
45990W        W 7356  19.632   5.849   1.280
45991W        W 7357   7.744  21.164   0.858
45992W        W 7358   1.766  34.566   2.196
45993W        W 7359   1.772  34.017  13.349
45994W        W 7360  18.135   1.811   0.292
45995W        W 7361   6.406   8.854   3.319
45996W        W 7362  38.420  30.058   0.949
45997W        W 7363  43.469  39.474  14.017
45998W        W 7364   5.819  23.692  13.039
45999W        W 7365  37.418  25.478  11.523
46000W        W 7366  42.815   6.775   3.368
46001W        W 7367  13.774  30.972   4.680
46002W        W 7368  39.003  40.919  13.845
46003W        W 7369  40.487  19.727   4.307
46004W        W 7370  44.351  31.049  12.018
46005W        W 7371  31.026  22.527   1.760
46006W        W 7372  20.218  27.659   0.933
46007W        W 7373  10.812  28.621  11.015
46008W        W 7374   5.918  34.933   1.885
46009W        W 7375  31.463  31.570  13.895
46010W        W 7376  12.697  30.005   0.958
46011W        W 7377  29.551  23.220   4.677
46012W        W 7378   7.847  40.442   5.278
46013W        W 7379   4.354  28.058   5.231
46014W        W 7380  31.585  40.854  14.303
46015W        W 7381   8.162  23.682   2.238
46016W        W 7382  14.189  28.162   1.443
46017W        W 7383   7.225  36.449  12.472
46018W        W 7384   4.257  16.243  12.923
46019W        W 7385  40.342   1.329   4.746
46020W        W 7386   5.876  32.889  13.451
46021W        W 7387   3.862  18.753   9.962
46022W        W 7388  27.630  38.502   1.398
46023W        W 7389  34.084  34.908   2.865
46024W        W 7390   5.742  44.435   1.337
46025W        W 7391   0.376  14.125  11.923
46026W        W 7392   8.893   0.909  12.503
46027W        W 7393  21.101  36.436  11.511
46028W        W 7394  35.500  31.088  10.593
46029W        W 7395  15.701  25.098  11.417
46030W        W 7396   7.774  18.739   4.301
46031W        W 7397  39.833  12.278   4.217
46032W        W 7398  43.496  44.833   1.415
46033W        W 7399   1.249  18.630  14.803
46034W        W 7400  20.586  21.199   2.411
46035W        W 7401  36.916  43.511  14.478
46036W        W 7402  10.701  34.584   5.142
46037W        W 7403  16.222  17.153  13.046
46038W        W 7404   8.187  27.587   0.444
46039W        W 7405   1.963  23.710  14.443
46040W        W 7406  25.072   5.846   3.729
46041W        W 7407  22.249  27.601   4.312
46042W        W 7408  29.051  31.977   3.243
46043W        W 7409  32.063   7.277  10.059
46044W        W 7410  19.057  24.144   3.376
46045W        W 7411  28.671   8.365  11.892
46046W        W 7412  29.918   7.410   3.756
46047W        W 7413  16.157   3.286   2.282
46048W        W 7414  29.555  13.827  13.820
46049W        W 7415  14.659  40.003  10.896
46050W        W 7416   7.298  38.894   1.910
46051W        W 7417  38.834   6.841  14.464
46052W        W 7418   0.756  35.571   2.268
46053W        W 7419  41.818  13.350  11.576
46054W        W 7420   7.767  14.667   3.263
46055W        W 7421  21.647  31.455  13.465
46056W        W 7422  10.781   2.439   0.792
46057W        W 7423   7.216  32.490  10.451
46058W        W 7424  19.566  14.172   1.290
46059W        W 7425  34.012  17.754  11.086
46060W        W 7426   8.299  28.519  10.605
46061W        W 7427  10.196   1.885   0.303
46062W        W 7428  38.440  18.216  13.955
46063W        W 7429  43.486  14.712   1.834
46064W        W 7430   9.358  41.487  14.795
46065W        W 7431  27.083  33.033  11.992
46066W        W 7432  35.049  26.978   4.646
46067W        W 7433   3.260  23.618  11.994
46068W        W 7434   5.797  37.992  12.060
46069W        W 7435  31.043  43.935  13.817
46070W        W 7436  30.978   2.948  12.567
46071W        W 7437   9.387   7.679   0.911
46072W        W 7438  39.474  35.000  12.876
46073W        W 7439   2.254  29.481  13.460
46074W        W 7440  22.198   1.468   3.162
46075W        W 7441  23.236  20.631   2.701
46076W        W 7442  23.711   5.801  10.953
46077W        W 7443   5.217   0.446  11.541
46078W        W 7444  28.024  35.023  12.483
46079W        W 7445  14.194  12.358   1.430
46080W        W 7446  32.073  16.807  11.857
46081W        W 7447   2.291  42.023  10.975
46082W        W 7448  34.985  26.593   5.244
46083W        W 7449  34.593  15.105   2.199
46084W        W 7450  25.529   6.388  13.836
46085W        W 7451  29.057  39.439   2.290
46086W        W 7452  21.666  10.868  13.485
46087W        W 7453  34.883   1.291   1.931
46088W        W 7454  14.822  24.077  14.278
46089W        W 7455  43.414  38.534   0.388
46090W        W 7456  10.267  44.290   0.430
46091W        W 7457  12.274  42.856   1.852
46092W        W 7458  38.532  11.685   3.206
46093W        W 7459   7.688   7.722  13.428
46094W        W 7460  29.001  19.644   2.792
46095W        W 7461  38.484  16.309   2.685
46096W        W 7462  40.310  11.773   3.855
46097W        W 7463  13.129  31.049  13.547
46098W        W 7464  28.552  31.636  14.852
46099W        W 7465  29.988  10.686  11.970
46100W        W 7466  39.915  16.797  10.987
46101W        W 7467  15.302  20.124   3.185
46102W        W 7468  15.133  10.195   2.874
46103W        W 7469   5.213   8.706  12.867
46104W        W 7470  18.763  39.375  10.927
46105W        W 7471  19.596  12.346   0.858
46106W        W 7472  41.381  42.909  13.003
46107W        W 7473  39.988  25.507  13.919
46108W        W 7474   8.347   9.863   3.148
46109W        W 7475  18.586  42.908   4.838
46110W        W 7476   6.858  41.521   1.320
46111W        W 7477  44.498   4.255  11.933
46112W        W 7478  32.080   9.824  14.399
46113W        W 7479  39.470  39.410  10.611
46114W        W 7480  16.314  28.984   0.940
46115W        W 7481  35.392  40.366   2.749
46116W        W 7482  10.782  23.685   2.715
46117W        W 7483  16.083  10.876  13.374
46118W        W 7484  20.263  13.320  13.491
46119W        W 7485  41.962  29.994   1.860
46120W        W 7486  42.422  21.208   3.697
46121W        W 7487   1.450   1.413  10.591
46122W        W 7488  28.466  32.599   4.319
46123W        W 7489  29.034   0.896  11.923
46124W        W 7490  11.688  13.320  14.953
46125W        W 7491  23.090  11.689   2.220
46126W        W 7492  10.140   8.396   0.305
46127W        W 7493  21.627  18.258  13.488
46128W        W 7494  23.041  37.357   3.868
46129W        W 7495  32.431   9.650  11.397
46130W        W 7496  26.529  29.085  14.453
46131W        W 7497  38.523  12.705   4.233
46132W        W 7498   4.911  35.965  14.502
46133W        W 7499  15.208  33.414   0.936
46134W        W 7500  15.265  34.990   1.834
46135W        W 7501  11.156   5.300   4.286
46136W        W 7502  28.171   8.702   2.878
46137W        W 7503  34.991   1.943  13.522
46138W        W 7504  26.953  29.940  13.996
46139W        W 7505   5.696  21.071   2.855
46140W        W 7506  13.152  29.107  13.481
46141W        W 7507  32.579  34.987  13.867
46142W        W 7508  28.178  41.875   1.248
46143W        W 7509  20.073  39.378  11.612
46144W        W 7510   6.817   2.364   2.885
46145W        W 7511  34.963   7.416   3.277
46146W        W 7512  23.576  21.097   0.464
46147W        W 7513  21.753  43.771   1.312
46148W        W 7514  11.267   4.432  11.913
46149W        W 7515  31.627   9.809   1.383
46150W        W 7516  17.203  26.967   3.357
46151W        W 7517  12.623  12.233   1.271
46152W        W 7518  11.179  12.272   4.309
46153W        W 7519   2.301  13.787   1.773
46154W        W 7520  36.999  31.451  13.521
46155W        W 7521  35.090   5.380  11.064
46156W        W 7522  43.405   6.680  14.432
46157W        W 7523  37.338  21.739  11.477
46158W        W 7524  44.438  17.559  12.029
46159W        W 7525  43.794  15.685  10.121
46160W        W 7526  41.026  18.759   3.777
46161W        W 7527   9.305   8.735  12.921
46162W        W 7528  17.266  43.015   1.920
46163W        W 7529  19.265  38.432   3.167
46164W        W 7530  24.591   2.335   0.262
46165W        W 7531  20.078   9.777  14.013
46166W        W 7532  18.729  22.595   3.775
46167W        W 7533  23.155  36.901  13.470
46168W        W 7534  31.430  22.203  14.284
46169W        W 7535  38.926  31.922   3.269
46170W        W 7536   2.927  10.234  13.456
46171W        W 7537   6.923   5.826  13.901
46172W        W 7538   2.326  28.470   1.878
46173W        W 7539   9.255   0.420   3.239
46174W        W 7540  13.196  18.685   4.761
46175W        W 7541  30.595   2.246   4.720
46176W        W 7542  35.370  36.858   4.769
46177W        W 7543  32.405   2.242   3.277
46178W        W 7544   8.852  30.623  10.561
46179W        W 7545   0.918  13.634   2.897
46180W        W 7546  28.997  40.822   2.758
46181W        W 7547  16.095  10.774  10.907
46182W        W 7548  18.606  18.738  12.883
46183W        W 7549  41.319   1.404   3.703
46184W        W 7550   5.704  18.073  10.414
46185W        W 7551  10.297  17.079  10.566
46186W        W 7552  33.034  22.204   0.262
46187W        W 7553  44.505  33.911   3.226
46188W        W 7554   0.955  19.071   2.862
46189W        W 7555  29.468  17.791   0.758
46190W        W 7556   0.823  27.145   5.211
46191W        W 7557   7.830  36.376   2.889
46192W        W 7558   3.827  17.556  11.386
46193W        W 7559   4.821  22.615  13.828
46194W        W 7560  40.986  12.199  11.501
46195W        W 7561  37.891   7.774   1.881
46196W        W 7562  31.647   8.809  13.028
46197W        W 7563  12.128  36.449   1.771
46198W        W 7564  34.925  26.203   3.357
46199W        W 7565  24.006   7.226   1.318
46200W        W 7566  41.451  37.027  12.516
46201W        W 7567  20.199  28.601  12.475
46202W        W 7568  43.786  17.179  13.420
46203W        W 7569  16.612  24.504   4.701
46204W        W 7570   7.789  20.678  12.061
46205W        W 7571  44.895  25.094  11.523
46206W        W 7572  33.000  10.168  10.454
46207W        W 7573   5.325   4.287  12.868
46208W        W 7574  26.069   6.848  10.542
46209W        W 7575  38.478  34.977  14.882
46210W        W 7576   8.199  26.058  11.999
46211W        W 7577  28.931   7.694   4.236
46212W        W 7578  31.609  27.142   4.789
46213W        W 7579   0.864   3.424  10.511
46214W        W 7580  28.157  38.425   1.293
46215W        W 7581   5.436   3.871  12.893
46216W        W 7582  10.333  22.735  12.913
46217W        W 7583   2.784  40.328   1.392
46218W        W 7584  31.936  38.432   1.265
46219W        W 7585  33.500  15.725  11.054
46220W        W 7586  40.812  30.558  13.844
46221W        W 7587  15.664  12.768  11.928
46222W        W 7588   7.376  15.231  12.502
46223W        W 7589  23.166  13.190  11.393
46224W        W 7590  15.809  18.230   1.751
46225W        W 7591  40.455  27.623  11.935
46226W        W 7592  22.998  37.560  12.425
46227W        W 7593  32.460   3.294  10.459
46228W        W 7594  13.343  38.353   1.812
46229W        W 7595   6.830  23.072   3.835
46230W        W 7596  25.155   3.882  13.814
46231W        W 7597  16.697  25.173   4.665
46232W        W 7598  16.274   3.237  13.467
46233W        W 7599  19.218  42.913  14.283
46234W        W 7600  32.920  19.234  11.561
46235W        W 7601  41.983  12.644  12.963
46236W        W 7602   7.837  13.708  11.503
46237W        W 7603  27.185  19.533   1.296
46238W        W 7604   6.193   4.721   0.469
46239W        W 7605   8.874   5.347  14.422
46240W        W 7606   5.235  41.361  11.888
46241W        W 7607  10.754   3.717   3.704
46242W        W 7608  20.645  23.137  11.916
46243W        W 7609  41.964  34.604  13.398
46244W        W 7610   2.956   6.323   3.750
46245W        W 7611  19.718  43.389  14.010
46246W        W 7612   7.863  39.474   2.203
46247W        W 7613   9.352  16.265   4.727
46248W        W 7614   0.856   7.172   1.396
46249W        W 7615  14.208   1.375   3.656
46250W        W 7616   6.759  25.637   4.685
46251W        W 7617   8.172  26.165  12.412
46252W        W 7618   3.778  29.119   4.275
46253W        W 7619  21.209  39.900  14.000
46254W        W 7620  22.995  17.263   1.733
46255W        W 7621  30.075  29.534  12.383
46256W        W 7622  26.508  29.004  13.855
46257W        W 7623  22.591  37.910   2.393
46258W        W 7624   1.782  23.231   4.268
46259W        W 7625  16.144  18.166   1.852
46260W        W 7626  43.406  24.608  11.536
46261W        W 7627   3.836  41.426  12.380
46262W        W 7628  26.572  22.089  10.985
46263W        W 7629  28.599  15.593  14.014
46264W        W 7630  32.526  26.204   2.747
46265W        W 7631  27.612  32.935  13.984
46266W        W 7632  11.173  12.195   3.316
46267W        W 7633  22.621  32.439  13.402
46268W        W 7634  17.772  21.583   3.651
46269W        W 7635  31.973   7.262  14.968
46270W        W 7636  10.354  42.880   5.191
46271W        W 7637  44.333  35.447   3.240
46272W        W 7638  26.969  38.052   1.222
46273W        W 7639   5.221  44.391   1.826
46274W        W 7640  19.170  43.387  14.988
46275W        W 7641   5.331  26.509   3.673
46276W        W 7642  27.095  17.587  10.517
46277W        W 7643   0.410   3.262   1.277
46278W        W 7644  21.524  19.745   5.207
46279W        W 7645   7.804  26.959   0.811
46280W        W 7646  17.089  35.057   4.253
46281W        W 7647  29.509   6.413   3.259
46282W        W 7648  12.346  32.067   1.218
46283W        W 7649  33.942   2.422   4.351
46284W        W 7650  23.698  36.940  14.980
46285W        W 7651   8.304  11.248  12.488
46286W        W 7652   7.272  19.178   1.315
46287W        W 7653  31.120  44.788  13.480
46288W        W 7654  25.701  13.700  13.799
46289W        W 7655   9.202  40.034   3.278
46290W        W 7656  28.607  10.642   0.917
46291W        W 7657   1.260   0.420   1.355
46292W        W 7658   0.828  24.707   4.314
46293W        W 7659   6.749  39.812   2.220
46294W        W 7660  23.648  21.244   2.218
46295W        W 7661   9.320  14.125   4.816
46296W        W 7662  28.456  18.595   0.846
46297W        W 7663  11.273  23.001  14.415
46298W        W 7664  39.402   1.333   0.391
46299W        W 7665  23.154  42.783   1.715
46300W        W 7666  20.243   9.781   4.799
46301W        W 7667   3.799  20.208   0.375
46302W        W 7668  26.683   1.907   2.274
46303W        W 7669  39.929  14.280   2.415
46304W        W 7670  14.188  19.138   0.832
46305W        W 7671   2.393  12.188  11.929
46306W        W 7672  44.473   6.877   0.818
46307W        W 7673  38.074  33.108  11.065
46308W        W 7674  27.640  16.647   4.673
46309W        W 7675   9.727  10.356   4.608
46310W        W 7676  10.235  12.253  12.947
46311W        W 7677   2.466  30.524   4.153
46312W        W 7678  25.065  12.669   3.737
46313W        W 7679  10.792  27.136  11.978
46314W        W 7680  20.560   9.309   1.439
46315W        W 7681  44.793  26.576   1.868
46316W        W 7682  16.210  18.660  12.883
46317W        W 7683  10.168   1.444  14.956
46318W        W 7684  15.695  42.404   3.312
46319W        W 7685   6.313  39.876  14.460
46320W        W 7686  43.984  42.363  13.438
46321W        W 7687  35.538  38.358  14.940
46322W        W 7688  40.355  36.358   4.694
46323W        W 7689  41.828  15.592  10.917
46324W        W 7690  38.063   6.702   3.855
46325W        W 7691  21.586  10.641  11.610
46326W        W 7692   2.245  19.129   0.817
46327W        W 7693   3.320  40.514   0.803
46328W        W 7694  24.151  20.732   4.631
46329W        W 7695  21.576  37.976  12.571
46330W        W 7696  14.308   8.868  10.125
46331W        W 7697  33.968  20.075  13.518
46332W        W 7698  43.441   6.296  11.427
46333W        W 7699  22.156  36.396   5.768
46334W        W 7700   2.427   5.423   1.832
46335W        W 7701  43.450  22.190  12.410
46336W        W 7702  37.500  10.355  12.935
46337W        W 7703   3.928   7.288   0.319
46338W        W 7704  32.108  24.204   2.882
46339W        W 7705  11.721   1.917  12.069
46340W        W 7706  34.977   1.240  13.986
46341W        W 7707  38.404  27.552  13.346
46342W        W 7708   7.220  24.509   1.921
46343W        W 7709  41.975   6.881  12.038
46344W        W 7710  43.467  33.068   0.824
46345W        W 7711  29.165   6.693  10.547
46346W        W 7712  18.103  19.658   0.273
46347W        W 7713  44.406   7.886  10.920
46348W        W 7714  40.930  14.753   3.697
46349W        W 7715  38.043  38.820   0.339
46350W        W 7716  11.210  40.970  10.904
46351W        W 7717  29.449  33.001  10.455
46352W        W 7718  15.651  38.465  10.605
46353W        W 7719  26.019  14.667  13.826
46354W        W 7720  29.667   1.737   1.867
46355W        W 7721  27.651  21.242   0.335
46356W        W 7722  39.869  33.588   0.795
46357W        W 7723  23.684  39.944   2.256
46358W        W 7724  15.209  11.221   4.284
46359W        W 7725  17.163  24.129   3.795
46360W        W 7726   5.255  14.617   4.293
46361W        W 7727  15.157  23.652   0.731
46362W        W 7728  13.830  26.466   3.195
46363W        W 7729  37.903  25.047   2.276
46364W        W 7730   3.815  44.848   1.256
46365W        W 7731  18.662   8.772   3.720
46366W        W 7732  32.082  18.591  11.606
46367W        W 7733  17.725  30.607   0.821
46368W        W 7734   3.914  14.217  10.430
46369W        W 7735  11.228  37.907   4.755
46370W        W 7736  36.024  17.667  11.954
46371W        W 7737  13.268  39.844  12.545
46372W        W 7738  11.826  35.947  11.510
46373W        W 7739   0.962  39.007  12.991
46374W        W 7740  33.944  22.657   0.248
46375W        W 7741  43.303  37.973  10.907
46376W        W 7742  27.604  17.194  14.942
46377W        W 7743  23.088   4.268  13.538
46378W        W 7744  28.529  33.574   1.305
46379W        W 7745  34.101   2.388   3.201
46380W        W 7746  32.901   5.788   1.709
46381W        W 7747  40.860   8.725   2.213
46382W        W 7748   6.867  17.078  11.499
46383W        W 7749  29.451   1.241   3.340
46384W        W 7750   2.887  20.591  12.483
46385W        W 7751  44.401   6.903   3.190
46386W        W 7752  18.650  39.497   1.903
46387W        W 7753   6.864  38.062  14.331
46388W        W 7754  22.143   6.905  13.527
46389W        W 7755  37.041  28.077  13.376
46390W        W 7756  12.249  20.062   4.254
46391W        W 7757  28.651  39.330  12.356
46392W        W 7758  41.356   4.729   3.733
46393W        W 7759  18.101  24.568  10.423
46394W        W 7760   6.284  17.139   4.229
46395W        W 7761  14.794  26.641   1.345
46396W        W 7762  12.140  31.151   2.353
46397W        W 7763  16.635  17.678  12.027
46398W        W 7764   6.746   1.749  11.084
46399W        W 7765  15.257  12.642   0.466
46400W        W 7766  37.356  42.395  11.062
46401W        W 7767  41.294  13.211  11.559
46402W        W 7768   1.432  31.039  12.493
46403W        W 7769  10.762   5.826  13.867
46404W        W 7770  30.630  42.941   1.329
46405W        W 7771  31.638  22.202   9.617
46406W        W 7772  21.205   3.904   3.822
46407W        W 7773  19.774  28.443   3.171
46408W        W 7774  11.343  43.766   0.880
46409W        W 7775  33.975  16.637   4.718
46410W        W 7776  29.501   8.799  11.387
46411W        W 7777  13.153  14.734  14.913
46412W        W 7778  24.650  13.673  11.944
46413W        W 7779  22.166  23.085  12.868
46414W        W 7780  17.190  30.553  11.906
46415W        W 7781  36.460  38.512  11.060
46416W        W 7782  17.788  19.547  14.317
46417W        W 7783  28.435  44.435   4.210
46418W        W 7784  20.173  43.021   0.920
46419W        W 7785  26.469  26.538  10.442
46420W        W 7786   6.385  26.561   0.258
46421W        W 7787  38.452  44.764  13.910
46422W        W 7788  28.632  26.114  12.981
46423W        W 7789  31.013  35.469  10.618
46424W        W 7790  30.434  28.939   4.792
46425W        W 7791  22.658  31.580   2.279
46426W        W 7792  17.161  44.957   2.766
46427W        W 7793  23.059  23.699  12.020
46428W        W 7794  23.497  18.236  10.489
46429W        W 7795  11.283  16.132   3.203
46430W        W 7796  34.497  44.484  14.864
46431W        W 7797  19.744  11.731  12.921
46432W        W 7798  38.362  19.676   4.317
46433W        W 7799  18.129  16.270   0.322
46434W        W 7800   8.812  27.506  13.547
46435W        W 7801  17.169  15.740   4.704
46436W        W 7802   8.769  22.632   3.693
46437W        W 7803   7.808  24.518  12.041
46438W        W 7804   6.369  37.462  14.423
46439W        W 7805  21.150  40.406   0.951
46440W        W 7806   4.216  35.953  14.332
46441W        W 7807  29.666   4.410   4.819
46442W        W 7808  14.683   1.363  11.504
46443W        W 7809  17.204  21.119   3.734
46444W        W 7810  26.607   7.206  13.830
46445W        W 7811  23.602  16.177  14.972
46446W        W 7812  26.958  40.834  13.028
46447W        W 7813  29.438  28.032   5.752
46448W        W 7814  19.039  13.649  14.859
46449W        W 7815  44.417  22.190  12.880
46450W        W 7816  22.722   2.804   2.397
46451W        W 7817   4.211  10.333   9.984
46452W        W 7818   1.350   4.868   1.353
46453W        W 7819  44.325  44.757  12.897
46454W        W 7820  44.894  39.407  11.031
46455W        W 7821  10.341  13.158  13.961
46456W        W 7822  14.104   7.227  11.590
46457W        W 7823  26.653  16.141   2.754
46458W        W 7824  39.056   7.179  10.427
46459W        W 7825  28.967  38.066  11.046
46460W        W 7826  43.491  23.524   1.264
46461W        W 7827  22.535  31.551  13.803
46462W        W 7828  22.244  13.840  13.908
46463W        W 7829  16.586   8.799  12.967
46464W        W 7830  20.537  27.558   3.155
46465W        W 7831  41.972  12.800  12.445
46466W        W 7832  43.344  33.459  13.014
46467W        W 7833  22.571   2.424  12.558
46468W        W 7834   1.434  15.698  14.895
46469W        W 7835  43.415  30.043  12.456
46470W        W 7836  18.286   9.650  11.030
46471W        W 7837  25.489  29.439   1.261
46472W        W 7838  34.596   1.914   1.330
46473W        W 7839  24.517  26.548   1.795
46474W        W 7840  34.942   7.312   3.686
46475W        W 7841  25.992  21.135  10.960
46476W        W 7842  19.244  36.923  13.062
46477W        W 7843  22.550  12.178  14.964
46478W        W 7844   9.701   7.201  14.392
46479W        W 7845  10.798  25.700   2.228
46480W        W 7846  33.930  17.276  14.385
46481W        W 7847  42.999  42.355  11.120
46482W        W 7848  38.456  42.832   1.278
46483W        W 7849  37.063  13.670  13.432
46484W        W 7850   2.772  25.979   2.693
46485W        W 7851  37.060  38.523   3.650
46486W        W 7852  22.579  16.167   1.327
46487W        W 7853  16.315  22.612  12.397
46488W        W 7854  31.918   0.452  14.783
46489W        W 7855  11.201   7.312  11.387
46490W        W 7856   3.765  34.484  12.449
46491W        W 7857  21.086  16.204  13.369
46492W        W 7858   3.792   6.401  10.586
46493W        W 7859  23.555  41.943   4.336
46494W        W 7860  42.825   1.436   2.884
46495W        W 7861  33.896  12.676   4.613
46496W        W 7862  20.688  39.001   2.684
46497W        W 7863   2.939  43.361  14.359
46498W        W 7864  12.156   5.767   4.145
46499W        W 7865   3.945  15.824   2.892
46500W        W 7866   5.861   1.298  12.061
46501W        W 7867   2.931  18.678  10.545
46502W        W 7868  29.498  40.826  14.982
46503W        W 7869  39.487  13.164  12.008
46504W        W 7870  40.522  34.009  11.080
46505W        W 7871  17.179  32.103  12.827
46506W        W 7872  27.596  40.921  10.624
46507W        W 7873  25.503  11.360  10.440
46508W        W 7874   4.360  39.342   3.723
46509W        W 7875  15.814  19.545   1.810
46510W        W 7876  38.836  34.566   3.704
46511W        W 7877  25.093  37.452  12.852
46512W        W 7878  19.049  18.655   4.803
46513W        W 7879  43.907  36.447  13.545
46514W        W 7880  14.714  18.244   2.827
46515W        W 7881  18.576  26.984  10.524
46516W        W 7882  40.311   7.209  11.087
46517W        W 7883  27.541   4.323  13.986
46518W        W 7884   1.333  21.585  14.942
46519W        W 7885  21.752  26.171   4.292
46520W        W 7886  17.081  29.477  11.520
46521W        W 7887  27.523  24.075   4.241
46522W        W 7888  14.254  13.275   1.243
46523W        W 7889  28.086   7.206   3.267
46524W        W 7890  22.232  19.265   1.730
46525W        W 7891   7.384  12.270   4.672
46526W        W 7892  31.144   3.389   3.650
46527W        W 7893  11.725  18.688  14.873
46528W        W 7894   9.312  19.777   5.209
46529W        W 7895  39.922  11.141   4.213
46530W        W 7896   9.663  21.099  11.372
46531W        W 7897  37.006  38.075  12.895
46532W        W 7898  30.089  13.226  13.050
46533W        W 7899  27.152  32.462  11.495
46534W        W 7900   3.852  33.410   2.178
46535W        W 7901  30.021  16.735  10.570
46536W        W 7902  31.052   2.256  12.404
46537W        W 7903  44.770  38.929   4.184
46538W        W 7904   6.228   2.957   4.184
46539W        W 7905  34.483  15.760   4.340
46540W        W 7906   9.802  37.434   3.317
46541W        W 7907  12.257  25.067   4.253
46542W        W 7908  19.614   9.828   3.291
46543W        W 7909   8.805   9.700  13.377
46544W        W 7910   0.405  38.394   2.740
46545W        W 7911   4.791  43.811   2.415
46546W        W 7912   1.931  28.039   5.305
46547W        W 7913  19.241  23.187  14.436
46548W        W 7914  24.480   1.446   2.760
46549W        W 7915  43.339   0.312   3.721
46550W        W 7916  10.656   4.816   1.431
46551W        W 7917  33.066  30.084  12.906
46552W        W 7918  36.568   9.725  14.001
46553W        W 7919  34.926   6.326  12.986
46554W        W 7920  39.532   9.175  13.310
46555W        W 7921   1.443  18.761   1.275
46556W        W 7922  24.715  20.219  12.530
46557W        W 7923  35.530  34.082  11.076
46558W        W 7924  13.671  31.979  14.970
46559W        W 7925  19.704  35.527   0.811
46560W        W 7926  30.552  33.037  13.369
46561W        W 7927  44.496  20.265   4.641
46562W        W 7928  24.576  34.416   1.212
46563W        W 7929  27.656  40.476  13.518
46564W        W 7930  21.064  40.336   5.304
46565W        W 7931  41.838  11.136   2.786
46566W        W 7932   3.719  28.526  12.381
46567W        W 7933  29.017  19.244   3.867
46568W        W 7934  34.896  26.545   4.602
46569W        W 7935   8.765   6.254  14.471
46570W        W 7936  16.581   6.361  13.533
46571W        W 7937  17.716   2.394  10.926
46572W        W 7938  26.957  43.306   0.845
46573W        W 7939  43.327  39.493   2.243
46574W        W 7940   6.788  39.911   3.740
46575W        W 7941  18.060  14.221   0.839
46576W        W 7942  32.926  16.788   1.287
46577W        W 7943  11.710  35.477  12.493
46578W        W 7944  11.245  34.907  11.611
46579W        W 7945  37.513  17.570   0.316
46580W        W 7946  22.568  17.139  12.368
46581W        W 7947   8.346   6.877   4.229
46582W        W 7948  18.249  23.027   2.403
46583W        W 7949  24.062   6.415  10.504
46584W        W 7950  34.031  37.522  13.418
46585W        W 7951  40.928   1.444   1.379
46586W        W 7952   1.458  25.003  12.842
46587W        W 7953  10.737  18.638   0.403
46588W        W 7954  44.970   4.779   3.745
46589W        W 7955  42.811   1.372  10.604
46590W        W 7956  16.127  13.638   0.799
46591W        W 7957  28.092   0.465  11.070
46592W        W 7958  35.478  19.560  10.904
46593W        W 7959  26.461  23.507  14.508
46594W        W 7960  35.930  38.819  11.068
46595W        W 7961   1.762   6.749   4.783
46596W        W 7962  19.234  34.033  13.488
46597W        W 7963  14.615   8.789  12.383
46598W        W 7964  16.207  16.753  12.012
46599W        W 7965  33.999  11.250   4.692
46600W        W 7966   8.305  13.693  11.414
46601W        W 7967   3.911  19.221   2.808
46602W        W 7968   4.217  14.168   4.783
46603W        W 7969  36.494  18.202   1.908
46604W        W 7970   9.714   2.394   4.639
46605W        W 7971   1.303  23.686   3.322
46606W        W 7972  16.072  30.978  13.457
46607W        W 7973  44.790  12.229  12.841
46608W        W 7974  26.528   8.701   0.871
46609W        W 7975   3.789  21.578  13.017
46610W        W 7976   9.835  23.523   2.679
46611W        W 7977  31.092  38.899  11.601
46612W        W 7978  43.408  33.388   0.777
46613W        W 7979  19.095  15.285   0.895
46614W        W 7980  44.999  31.011  11.872
46615W        W 7981  29.624  31.638   1.278
46616W        W 7982  26.696  39.938  10.582
46617W        W 7983  28.032  12.636  11.882
46618W        W 7984  22.067  43.347   2.246
46619W        W 7985  23.004  34.028  14.860
46620W        W 7986  30.096  29.639   2.260
46621W        W 7987  10.673  15.629  14.832
46622W        W 7988   8.883   7.385   4.231
46623W        W 7989  19.079   5.343  11.489
46624W        W 7990   2.454  44.764   1.787
46625W        W 7991  14.301  41.460  14.760
46626W        W 7992  34.094  34.386  12.556
46627W        W 7993   9.722  41.304   2.706
46628W        W 7994  41.894  34.017   2.227
46629W        W 7995  26.591  19.697  10.474
46630W        W 7996  24.147  24.717  13.998
46631W        W 7997  34.938  33.986  13.389
46632W        W 7998   5.353  35.042  13.019
46633W        W 7999  28.640  16.715   1.771
46634W        W 8000  28.564  10.865  11.071
46635W        W 8001  10.859  36.845  14.354
46636W        W 8002  38.964  25.593   0.768
46637W        W 8003  13.173   8.846   5.285
46638W        W 8004  11.208  27.626  12.344
46639W        W 8005   7.184  17.252  14.409
46640W        W 8006  25.144  18.546  13.417
46641W        W 8007  36.528  38.944  10.435
46642W        W 8008  29.062  11.866  10.455
46643W        W 8009  33.495  38.442  10.456
46644W        W 8010  42.332   2.931   0.333
46645W        W 8011  31.139   0.961   2.753
46646W        W 8012  23.058  39.496  12.864
46647W        W 8013   2.839  26.137  10.610
46648W        W 8014  31.145  18.629   2.242
46649W        W 8015  30.055  27.460   1.354
46650W        W 8016  13.833   7.765  12.825
46651W        W 8017  34.059  27.955  13.515
46652W        W 8018  43.432  27.654  14.367
46653W        W 8019  31.076  43.373   0.456
46654W        W 8020  10.290   9.777   0.954
46655W        W 8021  31.091   8.268  11.596
46656W        W 8022  17.760  19.211   0.418
46657W        W 8023  21.695  13.119  13.822
46658W        W 8024  13.605   5.282   1.388
46659W        W 8025   3.942  10.160   2.331
46660W        W 8026   2.944  16.244  14.301
46661W        W 8027   0.314  23.733   4.165
46662W        W 8028  28.545  26.153   0.824
46663W        W 8029   5.843  22.733  13.799
46664W        W 8030  27.949  30.521   5.732
46665W        W 8031  40.397  30.459  11.080
46666W        W 8032  32.057  35.548   3.720
46667W        W 8033  11.247  27.075   0.394
46668W        W 8034  24.701  32.035   9.968
46669W        W 8035  11.801  28.122   0.922
46670W        W 8036  43.339   2.431   1.794
46671W        W 8037  21.719  10.744  10.596
46672W        W 8038   8.365  32.923  11.000
46673W        W 8039  18.637  19.708   4.146
46674W        W 8040  33.582  28.992   0.751
46675W        W 8041   8.747  15.233  13.915
46676W        W 8042   2.382   3.238   9.940
46677W        W 8043  26.053  31.568   0.379
46678W        W 8044  16.653  41.036   4.243
46679W        W 8045  22.662   3.318  13.919
46680W        W 8046  43.965   7.668   3.296
46681W        W 8047  34.048  41.003   0.366
46682W        W 8048   6.375  10.290  11.403
46683W        W 8049  19.548  20.694  14.322
46684W        W 8050  24.486  42.450  10.511
46685W        W 8051   8.178  22.155   4.815
46686W        W 8052  14.321  18.289  11.409
46687W        W 8053  25.468  38.986  14.452
46688W        W 8054  12.298  25.580  13.310
46689W        W 8055  16.219  34.952   4.197
46690W        W 8056   7.770   0.821  13.310
46691W        W 8057   2.820   7.702  12.463
46692W        W 8058  44.446  32.134  10.510
46693W        W 8059  24.002  28.070  12.001
46694W        W 8060  38.900  17.201   2.252
46695W        W 8061   8.328  44.903  13.845
46696W        W 8062  24.125  43.335   2.286
46697W        W 8063   2.843  24.081  14.896
46698W        W 8064   3.454  37.078  12.927
46699W        W 8065  37.915  38.978  13.426
46700W        W 8066  37.895   1.250  14.508
46701W        W 8067  12.341   1.461  13.330
46702W        W 8068  26.121   6.735  12.414
46703W        W 8069  18.786   3.715   1.738
46704W        W 8070  18.649  35.985   1.814
46705W        W 8071  38.960   4.725   0.832
46706W        W 8072  39.534  18.693   2.227
46707W        W 8073   3.418   6.742  14.021
46708W        W 8074  17.116  21.258  14.395
46709W        W 8075   8.285   5.911  12.972
46710W        W 8076  20.123  25.987  14.894
46711W        W 8077  21.527  34.615   1.913
46712W        W 8078   7.799   4.853  14.353
46713W        W 8079  35.086  35.369   3.770
46714W        W 8080   2.727  12.217   4.662
46715W        W 8081   4.846  24.501  11.053
46716W        W 8082  35.519  19.069   2.886
46717W        W 8083  35.592  30.925   3.322
46718W        W 8084  22.208   7.415   1.410
46719W        W 8085  33.589  44.005   4.700
46720W        W 8086  26.552  33.898  12.972
46721W        W 8087  11.322  19.655   1.437
46722W        W 8088  36.557  38.057   3.245
46723W        W 8089  31.101  39.558   4.633
46724W        W 8090  40.429  15.700  12.016
46725W        W 8091  36.021   3.227  14.023
46726W        W 8092  20.034  43.289   3.680
46727W        W 8093  10.658  17.118   3.382
46728W        W 8094  34.396  15.743   1.838
46729W        W 8095  17.559  27.134   0.807
46730W        W 8096  25.535  15.183  12.354
46731W        W 8097   7.855  43.294  14.313
46732W        W 8098  25.136  23.674   2.883
46733W        W 8099  33.447   0.313   3.218
46734W        W 8100  12.816  15.146  13.498
46735W        W 8101  26.549  42.942  13.537
46736W        W 8102  21.668  11.261   3.161
46737W        W 8103  33.928  19.270   5.605
46738W        W 8104  30.975  39.326  11.544
46739W        W 8105   5.700  37.054   4.729
46740W        W 8106  13.845  30.594  11.589
46741W        W 8107  19.217  31.571  14.279
46742W        W 8108  14.720  22.077   0.321
46743W        W 8109  34.915   6.318  10.406
46744W        W 8110  23.638   0.975   3.359
46745W        W 8111   3.240   8.798   1.881
46746W        W 8112  36.505  29.062   0.777
46747W        W 8113  38.973  38.934   1.397
46748W        W 8114   0.918  20.579   2.747
46749W        W 8115  25.548  17.609  10.634
46750W        W 8116  17.131   9.221  13.423
46751W        W 8117  36.873   6.740   0.921
46752W        W 8118   7.781  29.649  13.994
46753W        W 8119  43.483  36.074   1.386
46754W        W 8120  36.065  16.133   1.818
46755W        W 8121  26.171  26.681   4.253
46756W        W 8122   9.193  39.533  12.559
46757W        W 8123  33.087   1.411  14.442
46758W        W 8124  12.722   1.240   0.900
46759W        W 8125  27.151   5.345   5.100
46760W        W 8126  44.881   7.405  14.283
46761W        W 8127  35.459  24.713   4.720
46762W        W 8128  39.968  15.269  14.797
46763W        W 8129  22.630  26.621   0.743
46764W        W 8130  28.578  11.694   3.821
46765W        W 8131  30.616  23.144   3.384
46766W        W 8132   6.679  32.576  13.442
46767W        W 8133   9.292  31.628  11.576
46768W        W 8134  16.284  18.672  11.054
46769W        W 8135  40.829  12.287   3.702
46770W        W 8136  43.472  32.128   0.438
46771W        W 8137  16.279  29.015   3.313
46772W        W 8138   2.903  32.994   0.468
46773W        W 8139   0.441  27.175  12.000
46774W        W 8140  27.087  21.034  14.316
46775W        W 8141  22.688   8.212  14.399
46776W        W 8142  36.452  44.781   3.711
46777W        W 8143  21.206   0.840  13.512
46778W        W 8144  31.118   1.357   1.759
46779W        W 8145  29.089  40.958  10.486
46780W        W 8146   1.442  10.159  13.923
46781W        W 8147  36.532  17.651   0.304
46782W        W 8148  10.318  38.528  14.941
46783W        W 8149  34.028  27.026   3.640
46784W        W 8150   0.893  38.389   0.373
46785W        W 8151  31.640  41.424  12.860
46786W        W 8152  38.901  43.470  12.445
46787W        W 8153  35.898  19.095  13.462
46788W        W 8154  33.088  34.601   4.311
46789W        W 8155   1.469   1.249  12.988
46790W        W 8156   4.939   0.409  13.799
46791W        W 8157  32.395  18.170  14.930
46792W        W 8158  17.665  21.073  13.884
46793W        W 8159  40.953  23.214   1.305
46794W        W 8160  26.976  15.157   4.280
46795W        W 8161   5.754   4.350   9.558
46796W        W 8162   6.222   0.481  13.402
46797W        W 8163  24.673   0.784  10.999
46798W        W 8164  34.912  14.257   1.797
46799W        W 8165  37.491  14.767  13.003
46800W        W 8166  18.624   0.796   3.230
46801W        W 8167  41.384  33.561  12.367
46802W        W 8168  17.252  15.239   0.743
46803W        W 8169  44.430   5.758   1.908
46804W        W 8170  14.196  25.096   3.746
46805W        W 8171  26.564  25.991  13.533
46806W        W 8172  17.081  34.007  13.054
46807W        W 8173  10.264   2.288   4.610
46808W        W 8174  25.100  23.191   1.429
46809W        W 8175  14.623  43.504   4.828
46810W        W 8176  11.257  30.487  14.441
46811W        W 8177  25.171  40.842  13.008
46812W        W 8178  21.172  14.740  12.531
46813W        W 8179  24.518  44.361   1.840
46814W        W 8180  36.921  19.599   1.882
46815W        W 8181  17.724  26.496   4.193
46816W        W 8182  20.035  17.161   9.963
46817W        W 8183  37.016  26.190  13.453
46818W        W 8184  35.522  22.670  14.018
46819W        W 8185   0.936   3.396   0.966
46820W        W 8186  34.507  31.410  14.379
46821W        W 8187   7.410  24.182   4.730
46822W        W 8188  44.311  27.469   1.387
46823W        W 8189  22.230  15.193  10.407
46824W        W 8190  32.143   1.931   4.144
46825W        W 8191   2.767  25.148  10.585
46826W        W 8192  43.955   5.718   2.237
46827W        W 8193   0.772   6.310   4.764
46828W        W 8194  30.912  16.712  13.032
46829W        W 8195  21.111  28.435  11.983
46830W        W 8196  23.043   2.762  14.415
46831W        W 8197  18.240   1.880  14.933
46832W        W 8198  39.538   9.359  11.553
46833W        W 8199   1.365  22.650  14.386
46834W        W 8200   3.321   2.384   1.877
46835W        W 8201  22.094  19.573   1.252
46836W        W 8202  10.208  20.532  14.966
46837W        W 8203  17.286  35.572  14.962
46838W        W 8204  39.015   5.260  11.406
46839W        W 8205  25.993   7.353  13.326
46840W        W 8206  19.171  22.093   0.402
46841W        W 8207   7.383   0.836   3.690
46842W        W 8208  44.944  37.340   3.783
46843W        W 8209   5.226  10.651  11.593
46844W        W 8210   1.925  20.158  11.556
46845W        W 8211   7.717  19.045  12.901
46846W        W 8212  32.454   3.716   0.337
46847W        W 8213  12.616  22.019   0.746
46848W        W 8214  36.508  41.934  10.625
46849W        W 8215  36.543  17.162  11.390
46850W        W 8216  34.974   2.723   4.144
46851W        W 8217  13.295  27.180   1.415
46852W        W 8218   8.707   1.373  11.479
46853W        W 8219  15.802   9.857   4.747
46854W        W 8220   2.741  31.645   5.770
46855W        W 8221  32.099  36.048   2.292
46856W        W 8222  35.935  11.238   4.709
46857W        W 8223  41.900  16.712   4.212
46858W        W 8224  41.364   2.460  12.068
46859W        W 8225  11.727  23.115   2.684
46860W        W 8226  24.649  44.921  11.056
46861W        W 8227  16.313  20.694  13.793
46862W        W 8228  24.135  24.990  11.860
46863W        W 8229   1.289  30.160   4.709
46864W        W 8230   4.215  20.610   2.772
46865W        W 8231  16.204  20.220  13.815
46866W        W 8232   1.357  34.903  11.531
46867W        W 8233  25.641  20.230   3.789
46868W        W 8234  13.260  40.969  10.501
46869W        W 8235  12.129  41.007   4.127
46870W        W 8236  23.493  12.734  11.000
46871W        W 8237  34.917  44.844   4.178
46872W        W 8238  35.090   1.852   1.421
46873W        W 8239  11.695  35.366  13.062
46874W        W 8240  31.020  35.561  13.340
46875W        W 8241   1.328  40.428   3.828
46876W        W 8242  31.981   4.802  11.431
46877W        W 8243   1.824   4.895   4.206
46878W        W 8244   7.337  27.162  10.907
46879W        W 8245  25.181  25.191  13.998
46880W        W 8246  21.531  26.132   1.708
46881W        W 8247  16.166  29.158   0.347
46882W        W 8248  11.808  38.960   1.848
46883W        W 8249  44.934  37.414   3.173
46884W        W 8250  25.637  35.891   1.434
46885W        W 8251  42.894  34.586   3.374
46886W        W 8252  43.413  34.938  12.500
46887W        W 8253  26.133  18.158   1.821
46888W        W 8254  35.516  19.612   2.895
46889W        W 8255  13.262  33.516  12.375
46890W        W 8256   2.360  18.151   0.932
46891W        W 8257  21.735  13.116  11.495
46892W        W 8258  27.680  42.945  14.399
46893W        W 8259  19.237  37.573   0.445
46894W        W 8260  15.686  39.066   3.240
46895W        W 8261  15.606  29.481  14.921
46896W        W 8262  20.042  23.074   3.734
46897W        W 8263  32.490  39.037   1.825
46898W        W 8264  38.512   8.281  11.539
46899W        W 8265  36.538   2.892  10.913
46900W        W 8266  42.337  22.036   4.684
46901W        W 8267  14.707   8.767  14.782
46902W        W 8268  33.924  29.925  12.932
46903W        W 8269  28.104  39.004   2.741
46904W        W 8270   6.333  36.071  11.004
46905W        W 8271  41.850  14.098   4.155
46906W        W 8272  29.940  22.071  13.945
46907W        W 8273  15.659  31.552  12.437
46908W        W 8274  22.039  24.028  10.905
46909W        W 8275  29.960   7.711   1.800
46910W        W 8276  37.083  27.594   1.911
46911W        W 8277   5.920   6.267   0.312
46912W        W 8278  40.457  25.471   3.829
46913W        W 8279  14.163  19.597  14.897
46914W        W 8280  13.788  39.959  14.910
46915W        W 8281  13.755   4.797   3.727
46916W        W 8282  15.141  24.146  14.970
46917W        W 8283  15.605  29.082  11.536
46918W        W 8284  18.231  22.642  11.048
46919W        W 8285  35.864  12.129   1.695
46920W        W 8286   0.984  30.545   4.340
46921W        W 8287  12.244   8.764  13.902
46922W        W 8288   7.730  33.439  14.773
46923W        W 8289   3.900  29.009  13.956
46924W        W 8290   2.855  31.591   1.702
46925W        W 8291  23.633  23.173   0.314
46926W        W 8292  31.984   9.788   2.895
46927W        W 8293  40.993  14.201   3.387
46928W        W 8294  35.464  41.528  13.508
46929W        W 8295   8.401  42.423   1.796
46930W        W 8296  42.919  37.339   0.445
46931W        W 8297  20.142  35.033  14.844
46932W        W 8298  18.053  41.812  14.275
46933W        W 8299  14.764  35.017   0.445
46934W        W 8300   3.842  39.985  11.124
46935W        W 8301  19.537  30.516  10.579
46936W        W 8302  42.000  11.730  14.336
46937W        W 8303  28.081  20.680   1.893
46938W        W 8304  24.529  44.379  13.835
46939W        W 8305  25.003  36.367   1.364
46940W        W 8306  19.650   9.225   2.821
46941W        W 8307   2.280  12.717  14.876
46942W        W 8308  39.971  36.435   4.141
46943W        W 8309   9.175  30.415   0.877
46944W        W 8310  28.514  28.488   0.419
46945W        W 8311  41.859   9.272   3.319
46946W        W 8312   8.240  36.971  14.398
46947W        W 8313  35.013   2.278  13.508
46948W        W 8314  13.738  33.981   0.296
46949W        W 8315  32.621  41.847  13.840
46950W        W 8316  19.139  34.935  14.498
46951W        W 8317  15.138   8.681  13.856
46952W        W 8318  43.839  20.605  11.033
46953W        W 8319  18.632  23.627   4.603
46954W        W 8320   2.308   8.677  14.022
46955W        W 8321  39.405  10.649  11.016
46956W        W 8322  40.308  15.253  11.039
46957W        W 8323  33.478  40.876  12.945
46958W        W 8324  15.806  16.258  14.969
46959W        W 8325  42.485  35.015  13.005
46960W        W 8326  22.189   6.718   3.722
46961W        W 8327  11.732  37.925  13.956
46962W        W 8328  37.883   3.914   3.819
46963W        W 8329  10.223   8.847   5.299
46964W        W 8330  20.103  26.198   4.218
46965W        W 8331  43.388  17.294  10.442
46966W        W 8332  39.918   4.270  14.999
46967W        W 8333   8.220  15.205  13.361
46968W        W 8334  44.960  12.702   1.316
46969W        W 8335  27.120   9.881  12.845
46970W        W 8336  35.596  17.143  12.828
46971W        W 8337   5.421  18.139   4.139
46972W        W 8338  38.971  27.983   3.800
46973W        W 8339  30.538  26.464  12.395
46974W        W 8340   1.414  24.568   2.849
46975W        W 8341   1.741  27.651  13.014
46976W        W 8342  18.252  12.636   4.255
46977W        W 8343  40.866   9.171  11.597
46978W        W 8344  13.816   4.739   4.158
46979W        W 8345  35.578  28.513  14.943
46980W        W 8346  44.940   3.403  14.362
46981W        W 8347  18.712  38.340   4.604
46982W        W 8348  34.019  43.845   5.152
46983W        W 8349   3.830  16.156   3.238
46984W        W 8350   2.724  21.234   0.838
46985W        W 8351  44.960  32.129  11.443
46986W        W 8352  16.749  15.804  14.412
46987W        W 8353  12.358  14.683   4.171
46988W        W 8354  21.643  43.778   2.875
46989W        W 8355  35.411  10.821   1.807
46990W        W 8356  15.258  43.001  10.412
46991W        W 8357   2.468   4.858   0.770
46992W        W 8358  41.305   3.381   3.245
46993W        W 8359   2.739  10.331  14.016
46994W        W 8360   0.832  40.856  13.794
46995W        W 8361  32.526   3.412   0.244
46996W        W 8362  37.940  39.950   1.355
46997W        W 8363  17.066  38.968  13.983
46998W        W 8364  14.711  42.895  14.897
46999W        W 8365  15.718  38.436  13.984
47000W        W 8366  39.411   4.723   9.988
47001W        W 8367  35.525  43.427  12.444
47002W        W 8368  37.524  36.551   5.250
47003W        W 8369  32.923  23.987  11.413
47004W        W 8370   5.934  18.286  11.579
47005W        W 8371   0.986  39.026   0.959
47006W        W 8372  11.669  13.298  10.484
47007W        W 8373  20.542   8.381   3.735
47008W        W 8374   6.848  43.436   1.263
47009W        W 8375  22.605   0.411   4.300
47010W        W 8376  33.512  27.512   9.922
47011W        W 8377  39.548  17.303  13.388
47012W        W 8378   5.699  28.582  14.848
47013W        W 8379   0.922  35.595   2.848
47014W        W 8380  18.221  43.438  14.465
47015W        W 8381  40.384   3.807   4.819
47016W        W 8382  17.232  19.673   1.389
47017W        W 8383  23.506  44.404  13.875
47018W        W 8384   4.447  28.968   5.087
47019W        W 8385  23.543  23.053   0.927
47020W        W 8386  37.412  40.893   0.289
47021W        W 8387   1.370  21.135  10.955
47022W        W 8388  17.171  43.929  12.554
47023W        W 8389  20.055  29.454   3.836
47024W        W 8390   7.383  15.642   2.375
47025W        W 8391  37.421  43.508   2.412
47026W        W 8392  29.964  11.351   1.756
47027W        W 8393  41.999  38.429   4.303
47028W        W 8394   4.718  32.419   2.299
47029W        W 8395  35.014  12.751  10.052
47030W        W 8396  38.454   0.824   2.803
47031W        W 8397  36.574  13.817   4.349
47032W        W 8398   2.425  25.691   4.154
47033W        W 8399   9.790  20.238  13.051
47034W        W 8400  23.534  33.489   5.284
47035W        W 8401  36.086  30.927  11.876
47036W        W 8402   4.347  27.112   2.852
47037W        W 8403  40.980  43.799  14.951
47038W        W 8404  14.681  41.017  10.613
47039W        W 8405  26.202  31.985   3.781
47040W        W 8406   1.887  39.454   0.741
47041W        W 8407  37.507  27.008  12.565
47042W        W 8408  38.888   7.711   4.724
47043W        W 8409   7.324  21.717  10.954
47044W        W 8410  14.605  42.023   4.242
47045W        W 8411  10.353   1.336  11.442
47046W        W 8412  11.226  32.621   9.476
47047W        W 8413  41.008  43.794  13.333
47048W        W 8414  18.209  29.586   0.316
47049W        W 8415  40.359   0.297   1.345
47050W        W 8416  17.650  18.068   4.700
47051W        W 8417  30.452  42.883  13.801
47052W        W 8418  37.876  24.511   3.720
47053W        W 8419   0.797  38.457  12.883
47054W        W 8420  36.526   6.195   3.333
47055W        W 8421  28.539  24.002  11.375
47056W        W 8422  33.597  25.010   2.261
47057W        W 8423  28.446  12.183  12.081
47058W        W 8424  10.229  17.634  13.421
47059W        W 8425  29.934  39.527  13.499
47060W        W 8426  27.568   6.680   2.803
47061W        W 8427  25.145  25.666   2.363
47062W        W 8428  17.561  27.464   1.865
47063W        W 8429  23.141  28.967  11.555
47064W        W 8430  20.741   1.370  13.905
47065W        W 8431  26.162  37.950   1.824
47066W        W 8432  29.659  40.544   4.648
47067W        W 8433  34.077  20.069  10.949
47068W        W 8434  40.033  36.424   1.418
47069W        W 8435  13.222  25.075   2.834
47070W        W 8436  15.715   4.858   1.788
47071W        W 8437   5.913  32.054   0.749
47072W        W 8438   4.416   7.804   4.768
47073W        W 8439  12.709  29.649  12.509
47074W        W 8440   9.297  10.720   4.303
47075W        W 8441  15.112   7.878  11.438
47076W        W 8442  34.420  34.968   1.857
47077W        W 8443  38.404   3.277  13.463
47078W        W 8444  41.537  35.914   3.331
47079W        W 8445   4.912   7.411   3.317
47080W        W 8446  12.264  44.352  12.049
47081W        W 8447   2.289  13.737   2.190
47082W        W 8448  30.119  43.400   4.254
47083W        W 8449  41.294  19.684   1.416
47084W        W 8450  29.102  15.325  10.986
47085W        W 8451  30.128  17.598   5.763
47086W        W 8452  27.985  14.102  12.990
47087W        W 8453  22.613   8.758  12.008
47088W        W 8454  24.102  38.857   3.727
47089W        W 8455  12.185  18.273  13.812
47090W        W 8456   0.276   6.757  14.487
47091W        W 8457  43.411   4.771   2.899
47092W        W 8458  18.735  10.367   1.821
47093W        W 8459   7.911  31.595   0.845
47094W        W 8460   7.367  44.315   4.166
47095W        W 8461  36.400  44.272  12.383
47096W        W 8462  16.237  10.364   3.325
47097W        W 8463  40.471  41.386   9.945
47098W        W 8464   7.665  18.119  10.994
47099W        W 8465  15.810  35.556   0.349
47100W        W 8466  38.034  28.543  10.613
47101W        W 8467  39.331  44.807   2.241
47102W        W 8468  37.338  31.079  13.909
47103W        W 8469  36.972  25.109   4.662
47104W        W 8470  12.647  40.316   0.330
47105W        W 8471  28.149  19.682   0.382
47106W        W 8472  44.339  35.045  11.472
47107W        W 8473   4.296   3.333  14.298
47108W        W 8474  34.904  16.106  13.946
47109W        W 8475   8.215  39.042  10.974
47110W        W 8476   1.737   9.746   3.716
47111W        W 8477   5.843  43.001   0.292
47112W        W 8478  22.511  22.575  13.962
47113W        W 8479  26.496  28.524   3.169
47114W        W 8480  12.350  36.432  13.476
47115W        W 8481   7.874   1.853   2.843
47116W        W 8482  12.289  26.167   4.122
47117W        W 8483  14.713   8.735   1.903
47118W        W 8484   9.819   0.327  13.400
47119W        W 8485  25.147  43.365  11.926
47120W        W 8486  44.454  36.052   3.249
47121W        W 8487  42.820  40.812   4.239
47122W        W 8488  21.172   3.897   2.216
47123W        W 8489  41.942  36.902   0.311
47124W        W 8490  41.511  23.070  14.978
47125W        W 8491  32.054  43.916   3.680
47126W        W 8492  41.505   3.751   4.819
47127W        W 8493  12.693  25.530   3.848
47128W        W 8494   0.779  25.051   5.180
47129W        W 8495  34.049  19.138   3.315
47130W        W 8496  12.759  39.476   2.354
47131W        W 8497  43.011  12.683   3.268
47132W        W 8498  17.088  16.693  12.083
47133W        W 8499  10.698  30.615   0.378
47134W        W 8500  26.034  14.334  13.983
47135W        W 8501  38.502   6.404   3.157
47136W        W 8502   4.782   9.766  12.995
47137W        W 8503  23.212  20.271   0.952
47138W        W 8504  19.569  41.298  12.869
47139W        W 8505  25.157  31.106   2.296
47140W        W 8506  10.739  15.746  11.897
47141W        W 8507   1.942  26.185  10.021
47142W        W 8508  36.467  27.500  13.875
47143W        W 8509   3.460  38.986   2.864
47144W        W 8510  34.594  12.812  11.535
47145W        W 8511  35.525  20.766   2.838
47146W        W 8512  32.573   8.895  11.924
47147W        W 8513  27.606  23.679  12.009
47148W        W 8514  21.108   1.275   1.844
47149W        W 8515  12.349  12.613  14.017
47150W        W 8516   2.424  20.134   3.309
47151W        W 8517   7.178   2.279  11.068
47152W        W 8518  28.480  32.088  12.935
47153W        W 8519  21.063  37.064   2.373
47154W        W 8520  11.623  25.615  10.968
47155W        W 8521  11.783  15.304   1.268
47156W        W 8522  32.056  27.617  13.968
47157W        W 8523  37.430  30.020  14.319
47158W        W 8524  12.332  41.382  12.543
47159W        W 8525  29.141  36.456   0.402
47160W        W 8526  24.069   8.866  14.902
47161W        W 8527  39.525  16.568  11.538
47162W        W 8528  44.261  44.760  10.117
47163W        W 8529   1.846  35.960  12.504
47164W        W 8530  14.679  32.477  13.837
47165W        W 8531  39.522   6.779   1.895
47166W        W 8532  21.515   3.277   0.283
47167W        W 8533  16.240   2.877   1.389
47168W        W 8534   5.259   7.747   1.766
47169W        W 8535   8.353   0.932   3.147
47170W        W 8536  23.722  11.177   4.755
47171W        W 8537   2.804  33.462   1.279
47172W        W 8538   2.839  33.978  12.921
47173W        W 8539   7.242  27.068   4.208
47174W        W 8540  22.177   3.902   4.145
47175W        W 8541  29.112  25.206  14.879
47176W        W 8542  40.521  32.989  13.060
47177W        W 8543   8.779  18.658   1.785
47178W        W 8544  29.092  16.091   3.219
47179W        W 8545  29.542  30.473   1.304
47180W        W 8546  30.099  17.299   1.356
47181W        W 8547  28.125  17.588   3.819
47182W        W 8548  12.267   6.289   3.382
47183W        W 8549  22.081   1.849  10.033
47184W        W 8550  43.829  17.162  12.967
47185W        W 8551  18.734  37.410   4.144
47186W        W 8552  22.547  41.799  11.073
47187W        W 8553   5.916  32.475  10.931
47188W        W 8554  20.239  16.246  12.864
47189W        W 8555  22.242  39.002  13.538
47190W        W 8556  41.326  34.056   2.743
47191W        W 8557  36.910  15.600   3.756
47192W        W 8558  34.114  32.480   4.223
47193W        W 8559  43.320  41.922  14.302
47194W        W 8560  36.000  12.158  11.897
47195W        W 8561  35.360   4.702  13.532
47196W        W 8562  35.079  27.580  12.035
47197W        W 8563  13.171  36.912  10.546
47198W        W 8564   0.869  19.724  11.903
47199W        W 8565   9.263   2.227  12.885
47200W        W 8566   1.747   6.789  11.935
47201W        W 8567  21.607  42.004  11.479
47202W        W 8568  30.628   2.382  10.933
47203W        W 8569  26.121   8.761   1.212
47204W        W 8570  41.863  18.057  12.865
47205W        W 8571  37.034  28.652  11.447
47206W        W 8572  24.692  44.938  12.410
47207W        W 8573  20.744   1.771  10.517
47208W        W 8574   0.339  35.869   4.603
47209W        W 8575  44.902  14.340   2.330
47210W        W 8576   8.757  11.290  11.986
47211W        W 8577  19.749   6.352  14.818
47212W        W 8578  13.828   9.320  10.564
47213W        W 8579   9.805  14.285   1.881
47214W        W 8580  39.446  35.067   2.235
47215W        W 8581   4.392  44.802  11.861
47216W        W 8582  37.487  32.554   5.173
47217W        W 8583  17.063  22.155  10.474
47218W        W 8584  39.420   9.658  11.855
47219W        W 8585  19.693  30.959   0.960
47220W        W 8586  13.282  17.283  12.963
47221W        W 8587   2.411  13.147  11.515
47222W        W 8588  22.133  31.485  10.062
47223W        W 8589   0.261   6.860   1.734
47224W        W 8590  28.036  31.085  12.519
47225W        W 8591  20.676   8.794   4.208
47226W        W 8592  38.547  27.016  14.449
47227W        W 8593  41.042  32.421  11.483
47228W        W 8594  31.968   5.330  13.053
47229W        W 8595  32.985  14.325   3.360
47230W        W 8596   4.928  44.976   4.623
47231W        W 8597   7.411  21.025   1.892
47232W        W 8598  24.029   2.240  11.392
47233W        W 8599  31.012   6.796   2.750
47234W        W 8600  13.173  29.511   4.181
47235W        W 8601  38.418   4.757   0.834
47236W        W 8602  24.130  16.613   0.299
47237W        W 8603  17.283  14.148  13.914
47238W        W 8604  14.712  18.787  12.420
47239W        W 8605  15.155  44.441   4.186
47240W        W 8606  23.633   9.748  13.933
47241W        W 8607  21.199  41.021   2.679
47242W        W 8608   3.249  30.041   3.197
47243W        W 8609  34.528  19.596  14.852
47244W        W 8610  35.562  34.897   3.792
47245W        W 8611  42.819  11.160   4.717
47246W        W 8612   4.761  21.522   2.301
47247W        W 8613  10.811  13.183   0.282
47248W        W 8614  15.650  23.053   1.399
47249W        W 8615  34.019  13.677   4.348
47250W        W 8616   9.319   6.408  14.485
47251W        W 8617  17.202   4.307   1.737
47252W        W 8618  31.999  32.107   0.311
47253W        W 8619  24.673  29.018  10.119
47254W        W 8620   4.704  12.317  12.826
47255W        W 8621  35.024  12.795  10.948
47256W        W 8622  43.824  44.281   1.318
47257W        W 8623  14.296  21.120  14.853
47258W        W 8624  22.047  31.595   2.299
47259W        W 8625  23.644  35.018   2.253
47260W        W 8626   1.436   6.896  12.366
47261W        W 8627  42.795  40.940  12.867
47262W        W 8628   3.314  15.676   1.428
47263W        W 8629  30.518  35.917  11.479
47264W        W 8630  20.697  13.658  12.369
47265W        W 8631  37.553  40.414   3.708
47266W        W 8632  31.593  43.958   3.151
47267W        W 8633  19.547  24.114   4.799
47268W        W 8634   9.839  23.198   4.330
47269W        W 8635  16.778  23.595   3.660
47270W        W 8636  26.684  36.471   4.353
47271W        W 8637  38.844  18.057   2.677
47272W        W 8638  35.974  28.625   4.284
47273W        W 8639  43.924  15.321  11.922
47274W        W 8640  37.385   6.345  14.911
47275W        W 8641  27.605  14.641   1.228
47276W        W 8642  23.060  37.491  14.419
47277W        W 8643  19.770  15.605  13.385
47278W        W 8644   1.915   7.183   4.619
47279W        W 8645  35.009  29.654  12.574
47280W        W 8646   1.871  27.045   4.275
47281W        W 8647  10.354  34.073   2.235
47282W        W 8648   3.416   3.903  13.799
47283W        W 8649  31.018  20.246  14.912
47284W        W 8650  20.165  40.941   4.261
47285W        W 8651  13.723  19.742  13.802
47286W        W 8652  16.720  27.970  13.385
47287W        W 8653  16.667  26.199   4.744
47288W        W 8654   9.352  10.356  14.772
47289W        W 8655  22.670  25.505   4.164
47290W        W 8656  10.730   8.860  14.983
47291W        W 8657  39.063  21.624  14.964
47292W        W 8658   3.450   3.797   3.709
47293W        W 8659  30.927  24.069   3.253
47294W        W 8660  14.203  30.482   5.229
47295W        W 8661  39.483  41.420  13.494
47296W        W 8662  13.310  35.948  13.333
47297W        W 8663  37.001  19.075   0.854
47298W        W 8664  35.510  26.597  10.531
47299W        W 8665  37.343  10.873  11.119
47300W        W 8666  44.904  16.697  13.486
47301W        W 8667  23.525  19.601  12.899
47302W        W 8668  34.982   6.829  10.899
47303W        W 8669   3.410  21.155   0.326
47304W        W 8670   8.791  17.199  14.301
47305W        W 8671  17.086  39.865   3.332
47306W        W 8672  10.763  28.517   0.279
47307W        W 8673  18.073  13.321  13.427
47308W        W 8674  32.119  33.384   3.206
47309W        W 8675   9.200  30.572   4.642
47310W        W 8676  41.947  23.073   1.379
47311W        W 8677  39.988  31.104   1.369
47312W        W 8678  11.824  18.254   3.369
47313W        W 8679  33.082   6.706  11.873
47314W        W 8680  13.105  25.525   2.322
47315W        W 8681  19.680  23.545  12.903
47316W        W 8682  28.465   0.888   1.326
47317W        W 8683  40.031   4.806   0.797
47318W        W 8684  30.956  13.202  14.956
47319W        W 8685   4.311   4.249   1.255
47320W        W 8686  31.590   8.250  11.584
47321W        W 8687  25.120  27.155  12.356
47322W        W 8688  31.547  31.417   1.922
47323W        W 8689  27.478  27.170  13.487
47324W        W 8690  32.489  28.065   1.407
47325W        W 8691  16.247   6.687  10.554
47326W        W 8692  39.356  36.424  11.001
47327W        W 8693  28.099  39.836   4.685
47328W        W 8694  22.212  41.857   0.362
47329W        W 8695  44.438  28.975   1.919
47330W        W 8696  29.666  11.712   0.338
47331W        W 8697  31.482  16.673   4.181
47332W        W 8698  25.550  14.629  14.016
47333W        W 8699   0.297  30.658  11.437
47334W        W 8700  30.566  42.798   5.265
47335W        W 8701  33.577   5.203  14.971
47336W        W 8702  23.490  25.498   1.710
47337W        W 8703  28.676  25.069  11.089
47338W        W 8704  32.627  23.643  14.409
47339W        W 8705  26.474  39.989  11.419
47340W        W 8706  36.967  41.939   0.922
47341W        W 8707  43.487  24.168   4.608
47342W        W 8708  30.069  17.575   4.192
47343W        W 8709  41.450  22.999   4.773
47344W        W 8710   6.760  42.781  12.910
47345W        W 8711  43.382   3.829  14.810
47346W        W 8712  27.519  44.291   4.682
47347W        W 8713   8.217   8.253  12.416
47348W        W 8714  23.071  27.680  13.524
47349W        W 8715  44.418  44.483   5.275
47350W        W 8716  30.496  32.477   0.284
47351W        W 8717  19.098  19.563   1.221
47352W        W 8718  14.679   9.379  12.035
47353W        W 8719  28.131  18.705  11.076
47354W        W 8720  29.952  25.591   0.281
47355W        W 8721  34.003   9.271  11.479
47356W        W 8722  18.153  20.763   3.824
47357W        W 8723  29.581  28.072   3.360
47358W        W 8724  17.160  28.933  14.362
47359W        W 8725  11.298   1.318   4.674
47360W        W 8726  38.560  21.086   2.811
47361W        W 8727  19.715  23.168  12.028
47362W        W 8728  44.379  39.889   1.300
47363W        W 8729  40.964   8.375   4.198
47364W        W 8730   4.413  40.021  12.062
47365W        W 8731  44.753  10.654   0.402
47366W        W 8732  15.707  38.934  10.974
47367W        W 8733  38.897  34.422  10.120
47368W        W 8734  20.605  10.285   0.292
47369W        W 8735  28.524   3.354  14.780
47370W        W 8736  40.012  34.072   3.739
47371W        W 8737  10.351  12.812  13.530
47372W        W 8738  39.522  30.554  11.955
47373W        W 8739   8.778  42.426   4.340
47374W        W 8740   9.257  29.613  10.614
47375W        W 8741   5.216  22.199  14.986
47376W        W 8742  16.703  20.747   1.753
47377W        W 8743   5.243  21.109   4.660
47378W        W 8744   1.971  15.768   2.307
47379W        W 8745  26.683  40.822  11.897
47380W        W 8746  38.891  17.302   4.657
47381W        W 8747  42.453  16.791  13.970
47382W        W 8748  30.575  27.471   3.870
47383W        W 8749  44.906  35.855  12.893
47384W        W 8750  29.118  27.985   5.615
47385W        W 8751   9.829  18.105   4.670
47386W        W 8752  17.121  25.564  14.766
47387W        W 8753   9.695  13.642   1.787
47388W        W 8754   6.191   8.696  14.480
47389W        W 8755   5.815  36.505  10.929
47390W        W 8756  12.777  40.312   1.928
47391W        W 8757  36.440  23.106   2.826
47392W        W 8758  10.838  18.218  14.771
47393W        W 8759  13.336  39.368  14.511
47394W        W 8760  33.612  14.190   0.474
47395W        W 8761  35.534  33.407  13.915
47396W        W 8762  31.568  35.570  11.383
47397W        W 8763  32.027  31.427  13.464
47398W        W 8764  29.505   4.400   4.323
47399W        W 8765  11.826  18.224  11.485
47400W        W 8766  36.480   8.373   2.696
47401W        W 8767  12.659  37.952  11.597
47402W        W 8768  18.547  19.081   2.681
47403W        W 8769  22.544  31.409  12.943
47404W        W 8770  13.635   4.351   0.875
47405W        W 8771  43.464  33.538  12.567
47406W        W 8772  19.257   9.839  11.548
47407W        W 8773  30.981  28.585  14.452
47408W        W 8774   5.736   1.877  13.374
47409W        W 8775  10.304   2.432  12.427
47410W        W 8776  11.865  30.470   3.153
47411W        W 8777  27.182  37.346  10.152
47412W        W 8778   8.295  32.549   0.754
47413W        W 8779  27.479  26.076  12.356
47414W        W 8780   5.259  32.073  10.565
47415W        W 8781  35.898   6.182   1.366
47416W        W 8782  42.862  42.935   3.652
47417W        W 8783  17.627  13.237   0.936
47418W        W 8784  26.685  40.457   3.688
47419W        W 8785  44.444  25.670   1.701
47420W        W 8786  11.755  37.861  14.416
47421W        W 8787  43.832   8.723  12.343
47422W        W 8788  33.527   8.317  11.893
47423W        W 8789   2.779  41.020   3.800
47424W        W 8790  32.585  27.071  14.471
47425W        W 8791  44.373  24.981   4.278
47426W        W 8792   4.264  25.671  12.065
47427W        W 8793   8.273  29.540   2.284
47428W        W 8794  42.475  18.212   4.261
47429W        W 8795   2.864  33.471  13.833
47430W        W 8796  33.054  23.700   2.301
47431W        W 8797  19.777  36.352  13.878
47432W        W 8798  27.644  38.447  11.578
47433W        W 8799  32.918  14.690  13.025
47434W        W 8800  38.530  17.255  14.855
47435W        W 8801   0.364  29.435   0.886
47436W        W 8802  32.482  15.649   1.301
47437W        W 8803  21.072   1.425  11.451
47438W        W 8804  41.841  27.055  11.382
47439W        W 8805   9.662  33.604  11.861
47440W        W 8806  15.214  15.248   1.325
47441W        W 8807  23.140  17.199   3.224
47442W        W 8808  10.661  22.048  12.552
47443W        W 8809  16.109   2.311   3.784
47444W        W 8810  20.666  32.409  13.973
47445W        W 8811  28.630  38.933   1.271
47446W        W 8812  27.621  44.810  10.961
47447W        W 8813  44.819  18.699   1.865
47448W        W 8814  12.686  23.092   2.790
47449W        W 8815   4.832  20.726  11.490
47450W        W 8816   2.722  33.534   4.626
47451W        W 8817  13.788  19.272  13.046
47452W        W 8818  17.631  32.556  12.035
47453W        W 8819  24.186  42.007   4.206
47454W        W 8820   6.704  20.585   4.827
47455W        W 8821   2.232   3.316   2.785
47456W        W 8822  34.004  17.165  11.083
47457W        W 8823  32.887  17.556  12.573
47458W        W 8824  36.517  25.628  13.354
47459W        W 8825  35.930  39.349  12.385
47460W        W 8826  30.539  25.589   5.243
47461W        W 8827   3.887   0.803  14.279
47462W        W 8828   6.818  20.742   1.346
47463W        W 8829  26.467   2.449   2.840
47464W        W 8830  14.719  34.005   1.755
47465W        W 8831  36.966  20.646   2.226
47466W        W 8832  23.638  27.677  10.060
47467W        W 8833   2.801   5.905  11.022
47468W        W 8834  12.132  19.738  14.456
47469W        W 8835  25.588  27.946  14.348
47470W        W 8836  38.982  23.185  10.598
47471W        W 8837  24.516  31.933  11.419
47472W        W 8838  23.992  23.065   1.877
47473W        W 8839  11.288   0.925   2.200
47474W        W 8840   7.700   2.227  14.416
47475W        W 8841   6.794  10.777   3.801
47476W        W 8842  42.031   7.202  12.053
47477W        W 8843   1.483  23.210  14.924
47478W        W 8844  16.762   3.722  14.476
47479W        W 8845   3.789   6.921  11.025
47480W        W 8846  39.003  42.385   2.815
47481W        W 8847  26.488  36.015  11.570
47482W        W 8848  43.010  16.709   3.240
47483W        W 8849  10.341  22.996  13.910
47484W        W 8850  21.241   8.252   4.618
47485W        W 8851  24.138  13.190   4.175
47486W        W 8852  41.321   7.875  14.814
47487W        W 8853  43.776  35.007  10.613
47488W        W 8854  25.095   9.176  14.433
47489W        W 8855  26.480  32.036  10.999
47490W        W 8856   7.357  13.634   4.770
47491W        W 8857  16.126  27.168   0.314
47492W        W 8858  38.906  14.139  12.443
47493W        W 8859   6.247   7.781  10.110
47494W        W 8860  13.663  18.547   2.361
47495W        W 8861  36.377   9.670   0.275
47496W        W 8862  31.028  10.693   1.223
47497W        W 8863  27.612  14.195  13.991
47498W        W 8864  18.234  44.501  13.926
47499W        W 8865  22.119  36.593   5.240
47500W        W 8866  36.027  14.130   4.224
47501W        W 8867  44.283   2.766   2.842
47502W        W 8868  28.606  41.514  13.925
47503W        W 8869   4.364  18.613   3.203
47504W        W 8870  25.982  24.491  13.827
47505W        W 8871  28.461  23.144  13.413
47506W        W 8872   2.264  16.582  14.447
47507W        W 8873  34.973  25.478   3.805
47508W        W 8874  28.500  34.483  11.511
47509W        W 8875   9.665  17.710   2.374
47510W        W 8876  20.168  25.575  10.990
47511W        W 8877   9.683  25.091  13.411
47512W        W 8878  32.441  15.189  11.893
47513W        W 8879  33.497  19.117  14.870
47514W        W 8880   4.816  39.551  14.000
47515W        W 8881  26.097   7.280  14.805
47516W        W 8882  24.674  32.391   1.832
47517W        W 8883   9.738  13.162   2.283
47518W        W 8884  12.703  38.461  14.846
47519W        W 8885  10.347  31.603  12.932
47520W        W 8886   8.800   4.403   1.243
47521W        W 8887   0.788  43.342   3.275
47522W        W 8888   8.218  29.974   1.284
47523W        W 8889  28.059  16.655  13.390
47524W        W 8890   2.873  43.286   3.159
47525W        W 8891  33.502  39.393  11.992
47526W        W 8892  16.260  29.460   2.183
47527W        W 8893  33.512   5.895  12.923
47528W        W 8894  28.046  20.530  11.538
47529W        W 8895  22.616  43.427   0.963
47530W        W 8896  44.468  19.622  14.897
47531W        W 8897  15.615  20.166   1.867
47532W        W 8898   9.789  17.687   3.248
47533W        W 8899   7.250  35.428   1.372
47534W        W 8900  23.029  31.536   0.276
47535W        W 8901  16.773  44.313  10.892
47536W        W 8902  26.064   1.779   0.302
47537W        W 8903  11.734  23.222   9.967
47538W        W 8904  41.815  43.293   3.301
47539W        W 8905  31.043   2.927   0.325
47540W        W 8906  28.544  11.246  13.912
47541W        W 8907  31.143  35.957   4.329
47542W        W 8908  34.996  18.596  13.969
47543W        W 8909  19.671   0.841  10.417
47544W        W 8910   2.967  44.437  14.848
47545W        W 8911  15.718   9.833  14.416
47546W        W 8912  12.335  27.542   4.711
47547W        W 8913  23.601  40.348   3.703
47548W        W 8914  15.091  18.767  13.804
47549W        W 8915  27.679  10.163   2.232
47550W        W 8916  26.161  42.320  13.489
47551W        W 8917  34.026  43.864  11.584
47552W        W 8918  39.813  41.483   2.245
47553W        W 8919  23.145  31.600  12.879
47554W        W 8920  21.183  13.651   2.858
47555W        W 8921  15.272  33.513  14.349
47556W        W 8922   6.711   3.410  11.561
47557W        W 8923   6.914  37.346   1.431
47558W        W 8924  44.787  21.623   2.839
47559W        W 8925   3.784  40.883  13.503
47560W        W 8926   1.969  14.610  11.507
47561W        W 8927  10.378  17.669   3.167
47562W        W 8928  27.987  37.955   0.933
47563W        W 8929  21.147   1.420   2.840
47564W        W 8930  37.981  29.578  10.156
47565W        W 8931  27.470  13.313   1.242
47566W        W 8932  30.015   1.449   4.745
47567W        W 8933  44.456  34.474  14.297
47568W        W 8934  25.128  14.338   1.216
47569W        W 8935   7.810  28.594   2.680
47570W        W 8936  13.704   8.316   0.484
47571W        W 8937  14.221  34.087   2.284
47572W        W 8938  35.365  21.515   3.262
47573W        W 8939  24.179  32.612   3.753
47574W        W 8940  26.170  22.624  14.992
47575W        W 8941  36.504  33.585  13.882
47576W        W 8942  15.190  34.918   1.428
47577W        W 8943   5.873  35.110   3.209
47578W        W 8944  20.540  37.506   2.202
47579W        W 8945  38.918  30.475  14.494
47580W        W 8946  37.466  12.650  11.426
47581W        W 8947  24.178  37.040  10.973
47582W        W 8948  38.486  28.630  14.913
47583W        W 8949  12.159   1.962   0.261
47584W        W 8950   0.973  23.131   0.366
47585W        W 8951   4.314  11.758  13.981
47586W        W 8952  16.268  14.291  13.412
47587W        W 8953   2.862   2.924   1.401
47588W        W 8954  11.802  29.051  10.566
47589W        W 8955  34.878  14.138   2.741
47590W        W 8956   9.301  41.027   1.832
47591W        W 8957  44.406  42.816  10.500
47592W        W 8958  38.509  11.262   2.827
47593W        W 8959   3.724  11.202   2.284
47594W        W 8960  27.067  23.241   3.298
47595W        W 8961  39.446  30.467   3.169
47596W        W 8962  27.511   6.185   2.781
47597W        W 8963   8.172  42.916  10.618
47598W        W 8964  23.642   2.400  11.934
47599W        W 8965  28.675  26.140  11.379
47600W        W 8966  26.598   5.357  14.511
47601W        W 8967  38.990  27.674  13.911
47602W        W 8968   3.389  36.941  14.818
47603W        W 8969  34.447  11.228   4.645
47604W        W 8970  24.205   3.733  12.835
47605W        W 8971  37.076  13.344  10.971
47606W        W 8972  33.386  43.409  12.449
47607W        W 8973   4.889  41.321   1.283
47608W        W 8974  36.912  44.949  10.562
47609W        W 8975  11.208  41.841  12.960
47610W        W 8976  39.046  12.851   1.834
47611W        W 8977  28.049  16.111   1.317
47612W        W 8978   6.785  17.095   3.684
47613W        W 8979  26.130  31.561   2.861
47614W        W 8980   2.425  27.087   5.215
47615W        W 8981  27.629  21.135  11.867
47616W        W 8982   9.644  42.030  11.453
47617W        W 8983   3.299  37.455   4.815
47618W        W 8984   2.942  42.281  13.819
47619W        W 8985  36.014  11.626   0.342
47620W        W 8986  14.277  14.195   1.697
47621W        W 8987  11.159   4.751   4.303
47622W        W 8988   9.191  28.473  11.095
47623W        W 8989  18.277   9.699  13.313
47624W        W 8990  38.968   2.741  14.850
47625W        W 8991   2.895   9.330   2.380
47626W        W 8992  43.808  29.023   0.818
47627W        W 8993   2.262  34.059  10.459
47628W        W 8994  40.463  18.632   3.772
47629W        W 8995  19.227  41.361   2.707
47630W        W 8996  43.490  14.819  12.005
47631W        W 8997   5.397   1.934  14.442
47632W        W 8998  19.736  32.045  12.097
47633W        W 8999  11.811  28.644  12.500
47634W        W 9000  40.371  39.450   1.322
47635W        W 9001  39.418  40.383  13.975
47636W        W 9002   5.369  32.606  12.936
47637W        W 9003  21.618  38.855  12.901
47638W        W 9004  41.824   3.259  11.946
47639W        W 9005  33.500  42.827  10.414
47640W        W 9006  44.888  12.634  12.079
47641W        W 9007  34.413   6.854   4.656
47642W        W 9008  43.837  10.182   1.415
47643W        W 9009  44.937  31.956   2.738
47644W        W 9010  13.782   4.350  14.394
47645W        W 9011  12.757  11.851  14.878
47646W        W 9012   1.292   2.840   4.241
47647W        W 9013   6.868  23.227  12.458
47648W        W 9014  38.041  22.615   0.903
47649W        W 9015  20.737  42.422  11.551
47650W        W 9016   9.263   0.432  12.380
47651W        W 9017  32.997   7.410  13.427
47652W        W 9018  20.239  37.338  12.560
47653W        W 9019  18.773  23.211  13.854
47654W        W 9020   5.367  14.120  14.425
47655W        W 9021  37.843  20.060  13.938
47656W        W 9022  24.133  44.260   1.761
47657W        W 9023  10.317  31.015   0.469
47658W        W 9024  11.831  28.128  10.523
47659W        W 9025  10.639  43.455   4.157
47660W        W 9026  15.211   0.437   1.777
47661W        W 9027  14.299  15.759   4.717
47662W        W 9028  41.804  16.269  10.519
47663W        W 9029  15.255  30.482  11.921
47664W        W 9030  27.461  25.046  13.866
47665W        W 9031  25.983  32.490   2.209
47666W        W 9032  10.747  44.856   3.291
47667W        W 9033  12.695  22.176   4.628
47668W        W 9034  34.916  40.872   0.774
47669W        W 9035   2.345   8.210   2.714
47670W        W 9036  36.450  32.507   0.250
47671W        W 9037  42.512  32.474   4.702
47672W        W 9038  10.664  28.040  14.372
47673W        W 9039  42.324  24.568   3.767
47674W        W 9040  33.426  20.563   1.350
47675W        W 9041  26.589  25.583  12.915
47676W        W 9042   9.667   4.912  10.613
47677W        W 9043  21.612  22.239  14.941
47678W        W 9044  43.888  24.619  13.877
47679W        W 9045   1.481  13.238   0.462
47680W        W 9046  16.709  41.508  14.828
47681W        W 9047   0.468   0.282  14.400
47682W        W 9048  36.866  27.096  12.083
47683W        W 9049  44.374   2.377   1.846
47684W        W 9050  27.106  14.825   1.820
47685W        W 9051  26.695  14.715  14.771
47686W        W 9052  26.100  14.704  12.991
47687W        W 9053  24.110  10.202   0.959
47688W        W 9054  17.221  44.892   1.433
47689W        W 9055  16.783  34.921  14.441
47690W        W 9056  37.052   4.711  14.304
47691W        W 9057  15.282  13.276   4.691
47692W        W 9058  20.237   2.281  14.991
47693W        W 9059  35.922   4.374   4.307
47694W        W 9060  43.939  27.472  10.608
47695W        W 9061  36.853  15.180   3.162
47696W        W 9062  34.893  38.561   4.691
47697W        W 9063  27.644   9.665  13.864
47698W        W 9064  19.604   1.297   2.835
47699W        W 9065  29.992  38.464   0.300
47700W        W 9066  33.081  33.001   3.834
47701W        W 9067   8.244  29.057   3.319
47702W        W 9068  43.401  37.532  10.584
47703W        W 9069  10.154  17.587   4.790
47704W        W 9070  29.066  20.739   3.285
47705W        W 9071  25.666  23.233  12.001
47706W        W 9072   9.191  19.258  14.341
47707W        W 9073  30.489  10.282   1.404
47708W        W 9074  32.483  42.383  14.921
47709W        W 9075  37.383  23.030   3.329
47710W        W 9076  14.183   9.334   1.709
47711W        W 9077  32.063  19.283  14.382
47712W        W 9078  43.290   3.367   5.201
47713W        W 9079   0.310  37.951  14.930
47714W        W 9080   7.360  34.040   1.373
47715W        W 9081   2.286   3.818  14.843
47716W        W 9082  24.037  18.554   2.371
47717W        W 9083  14.656  36.435   4.203
47718W        W 9084  28.673   5.415   0.416
47719W        W 9085  13.197  14.673   2.807
47720W        W 9086  23.505  17.128   3.312
47721W        W 9087  28.105  13.177   5.318
47722W        W 9088  41.344  30.439  11.606
47723W        W 9089   3.756  17.557   1.742
47724W        W 9090  25.173  31.424   3.196
47725W        W 9091  11.632   1.749  12.394
47726W        W 9092  23.694  34.546  12.013
47727W        W 9093  26.689  20.270  11.515
47728W        W 9094  31.606   4.929   4.837
47729W        W 9095  19.636   8.218   1.765
47730W        W 9096  22.025  25.709  11.572
47731W        W 9097  31.116  13.279  12.090
47732W        W 9098   1.838  29.438  10.553
47733W        W 9099  31.602  43.396   9.455
47734W        W 9100   9.802  35.001  11.032
47735W        W 9101   1.772  23.706  12.526
47736W        W 9102  26.204   3.847   0.810
47737W        W 9103  18.747   0.938   3.856
47738W        W 9104  21.193  43.914   4.156
47739W        W 9105  26.554  15.639   2.221
47740W        W 9106  41.895  42.001  11.477
47741W        W 9107  20.526  38.987  12.360
47742W        W 9108  28.030  16.093  13.317
47743W        W 9109  16.127  18.580   3.693
47744W        W 9110  38.478  25.661   3.173
47745W        W 9111  39.959  25.558   1.411
47746W        W 9112  17.743   7.217  13.368
47747W        W 9113   9.200  12.629  11.485
47748W        W 9114  42.875   8.286  13.354
47749W        W 9115  41.487  31.006   3.673
47750W        W 9116  29.481  13.695  13.003
47751W        W 9117   1.438  40.037  11.868
47752W        W 9118   5.777  21.589  12.008
47753W        W 9119  15.769  36.481  11.895
47754W        W 9120   1.836  24.648  14.314
47755W        W 9121   4.784   8.659  12.084
47756W        W 9122  24.041  34.521   2.334
47757W        W 9123  25.622  20.137  13.498
47758W        W 9124  30.447  24.165  14.389
47759W        W 9125  34.501   5.885  12.850
47760W        W 9126  23.073  12.738  12.942
47761W        W 9127  38.400  34.946  14.484
47762W        W 9128   3.226  24.705   1.701
47763W        W 9129   5.735  37.480  13.417
47764W        W 9130  29.513  34.550   2.868
47765W        W 9131  33.438   4.210   0.298
47766W        W 9132  25.688  23.588   3.698
47767W        W 9133  15.182  22.227  12.094
47768W        W 9134  22.074  27.629  10.487
47769W        W 9135  18.663  26.120   2.884
47770W        W 9136  35.974  16.738   4.310
47771W        W 9137  26.543  28.966   2.853
47772W        W 9138  33.097   7.800   0.386
47773W        W 9139  35.038  24.713  10.509
47774W        W 9140  32.961  15.306   1.400
47775W        W 9141   6.202  21.534   0.888
47776W        W 9142  17.191   2.810  11.926
47777W        W 9143  10.328  21.636  13.334
47778W        W 9144  22.037   5.886   0.299
47779W        W 9145  43.400   0.938  11.988
47780W        W 9146  15.794  28.453  13.022
47781W        W 9147  42.967  24.668   2.706
47782W        W 9148   9.768  29.097   2.303
47783W        W 9149   7.872  31.403  13.403
47784W        W 9150  32.113   8.733  12.512
47785W        W 9151   0.921  40.397   0.424
47786W        W 9152   0.461   6.878   2.737
47787W        W 9153  22.578   4.270   1.872
47788W        W 9154  42.912  43.819  10.917
47789W        W 9155  29.989  38.497   2.822
47790W        W 9156  17.139  19.061   1.339
47791W        W 9157  44.448  37.497  10.548
47792W        W 9158  42.808  14.759   5.285
47793W        W 9159  44.392   9.338   0.252
47794W        W 9160  26.104  28.613   2.804
47795W        W 9161  12.733  39.998  10.554
47796W        W 9162  13.115  29.557  14.408
47797W        W 9163  39.411  38.007   2.402
47798W        W 9164  38.920  25.071   3.735
47799W        W 9165  20.715  21.739  10.959
47800W        W 9166  28.956   1.339   1.420
47801W        W 9167  22.036  27.682   0.371
47802W        W 9168  29.945  26.607  14.339
47803W        W 9169   1.959  43.016  13.487
47804W        W 9170  22.724   0.344   4.696
47805W        W 9171  12.852   4.776   4.789
47806W        W 9172  18.154   3.422  13.381
47807W        W 9173  13.293  11.338  13.508
47808W        W 9174  21.127  32.030   3.673
47809W        W 9175  11.680  35.568  13.472
47810W        W 9176   8.167   8.176   0.346
47811W        W 9177  33.592  32.621  12.942
47812W        W 9178  31.599  32.939  14.830
47813W        W 9179  31.948  38.890   1.276
47814W        W 9180  17.785   6.395   2.894
47815W        W 9181   6.389  42.931   2.869
47816W        W 9182   6.848  19.704   2.227
47817W        W 9183  18.784  17.619   4.280
47818W        W 9184  25.545  41.959  12.461
47819W        W 9185  11.725   2.728  11.985
47820W        W 9186  33.038  18.791  13.985
47821W        W 9187  43.873  10.155   3.182
47822W        W 9188  18.058  12.170   3.855
47823W        W 9189  22.058  21.086   4.819
47824W        W 9190   5.790  23.670   4.684
47825W        W 9191  36.460  33.985   4.352
47826W        W 9192  23.116  14.808   4.194
47827W        W 9193   0.912  13.654  11.983
47828W        W 9194  30.978  34.929  12.071
47829W        W 9195   4.409  17.226   3.167
47830W        W 9196  43.289  11.302   3.243
47831W        W 9197  14.598  30.464  14.338
47832W        W 9198  33.383   6.885  12.863
47833W        W 9199   6.889  24.217  13.983
47834W        W 9200  14.165  41.820   2.709
47835W        W 9201  40.897  26.516   3.647
47836W        W 9202  34.482  22.653   3.692
47837W        W 9203  44.874  22.177  12.472
47838W        W 9204  39.886  29.572  13.929
47839W        W 9205  24.513  31.079   2.892
47840W        W 9206   3.731  23.584   0.424
47841W        W 9207   7.695   0.303  11.485
47842W        W 9208  43.282  14.627  14.317
47843W        W 9209   4.878  19.104   4.777
47844W        W 9210  33.555  12.669  11.588
47845W        W 9211  12.261   4.802   0.290
47846W        W 9212   2.459   2.894   1.409
47847W        W 9213  25.060  23.019  13.525
47848W        W 9214  37.416  16.199   3.820
47849W        W 9215  40.924  25.086  13.980
47850W        W 9216  19.218  22.073   3.850
47851W        W 9217  29.010  30.070   3.675
47852W        W 9218  27.615  10.854  11.064
47853W        W 9219  29.992  14.310  10.408
47854W        W 9220   0.473  43.923   3.790
47855W        W 9221  13.141  11.742  14.464
47856W        W 9222  41.317  25.661  13.542
47857W        W 9223  28.127   3.347   3.263
47858W        W 9224  14.276  14.801  12.033
47859W        W 9225  42.505  24.603  13.979
47860W        W 9226  26.132  28.171   4.179
47861W        W 9227  25.054  28.526  13.946
47862W        W 9228  17.727  42.024  10.486
47863W        W 9229  25.624  38.075   4.191
47864W        W 9230  23.094  21.079  14.987
47865W        W 9231  27.641   3.890   3.289
47866W        W 9232  13.765  32.434  12.404
47867W        W 9233   1.798  41.363  11.555
47868W        W 9234   6.380   8.185   4.170
47869W        W 9235  28.648  32.545  12.823
47870W        W 9236   4.943   0.806   3.866
47871W        W 9237  15.249  39.051  13.898
47872W        W 9238  23.630  14.318  13.839
47873W        W 9239  26.574  40.435   4.153
47874W        W 9240  40.312  31.541  14.480
47875W        W 9241   0.760  38.507  11.119
47876W        W 9242  40.542  21.606  12.052
47877W        W 9243  36.985  39.354  12.918
47878W        W 9244  29.950  21.154  11.870
47879W        W 9245   2.472  37.945   4.341
47880W        W 9246  14.322  38.832  13.848
47881W        W 9247  13.287  12.229   1.822
47882W        W 9248  19.221  21.737  13.980
47883W        W 9249  24.147  33.588  14.294
47884W        W 9250  40.500  21.055  14.363
47885W        W 9251  16.603  19.169   3.171
47886W        W 9252  28.660  32.498  13.455
47887W        W 9253  28.438   4.824  10.448
47888W        W 9254  38.035  23.675  14.419
47889W        W 9255  36.940  40.500  13.956
47890W        W 9256  26.478  32.611   2.787
47891W        W 9257   7.363   1.434   1.295
47892W        W 9258  19.618  40.871   1.738
47893W        W 9259  11.235  25.592   2.186
47894W        W 9260  36.584  36.005  12.568
47895W        W 9261  31.118  44.851   0.407
47896W        W 9262  23.043   0.958   2.812
47897W        W 9263   8.729  21.189  11.422
47898W        W 9264  29.158  29.627   0.271
47899W        W 9265  31.587  43.960   2.729
47900W        W 9266  37.929  37.433  13.377
47901W        W 9267  16.574  33.940  12.544
47902W        W 9268  25.966  24.031  12.522
47903W        W 9269  28.031  31.078  11.429
47904W        W 9270   5.270  23.189   0.359
47905W        W 9271   7.863  32.418   1.323
47906W        W 9272  36.446  15.094   2.706
47907W        W 9273  23.698  31.605  12.930
47908W        W 9274  29.444   0.341   0.482
47909W        W 9275   9.731  16.677   1.771
47910W        W 9276  13.801  10.745  12.858
47911W        W 9277  10.259   5.317   1.912
47912W        W 9278  42.803  23.190  14.768
47913W        W 9279   2.397  18.653  11.487
47914W        W 9280  20.074  38.328   4.799
47915W        W 9281  19.637  26.630   0.257
47916W        W 9282  32.134  41.890  10.500
47917W        W 9283  39.338  34.981   3.871
47918W        W 9284  23.542  14.191   3.154
47919W        W 9285   9.810  14.667   0.943
47920W        W 9286  20.118   2.884  12.488
47921W        W 9287  29.138  27.641   2.806
47922W        W 9288   6.723  22.596   0.956
47923W        W 9289   0.754  41.021   0.878
47924W        W 9290   1.405  26.137  13.308
47925W        W 9291   7.766   8.180   3.735
47926W        W 9292   5.396  19.262   2.390
47927W        W 9293  30.652  22.116   1.300
47928W        W 9294  19.082  19.572   3.720
47929W        W 9295  23.523  23.097  13.016
47930W        W 9296   1.933  44.921  10.586
47931W        W 9297  39.436  17.248   2.333
47932W        W 9298   8.307  33.393  13.331
47933W        W 9299  21.611  34.439   0.893
47934W        W 9300  26.601  29.174  11.129
47935W        W 9301   1.778  29.522   2.288
47936W        W 9302   1.793  15.625  14.493
47937W        W 9303  14.780  29.528  13.515
47938W        W 9304  43.282  16.264   2.810
47939W        W 9305  40.981  30.018   3.829
47940W        W 9306  11.726  10.696  12.529
47941W        W 9307  19.235  28.168  13.518
47942W        W 9308   9.651  42.906   4.274
47943W        W 9309  14.804   5.329   4.317
47944W        W 9310  20.055  10.233   0.875
47945W        W 9311  14.097  10.804   2.665
47946W        W 9312  23.555  19.193   1.768
47947W        W 9313  28.148   0.393   1.264
47948W        W 9314   6.734  12.213  14.394
47949W        W 9315   2.256   4.860  11.008
47950W        W 9316  29.428  20.537  12.824
47951W        W 9317  35.038  18.696  12.574
47952W        W 9318  27.128  36.033   3.730
47953W        W 9319   0.287  11.310  14.428
47954W        W 9320  19.618   1.273  10.522
47955W        W 9321  41.408  25.468   3.372
47956W        W 9322  18.627  25.590  11.008
47957W        W 9323  29.924   7.668   1.388
47958W        W 9324  33.999  16.169   1.838
47959W        W 9325   8.358  25.676  11.922
47960W        W 9326  31.402  44.844  14.868
47961W        W 9327  32.050  23.094  12.023
47962W        W 9328  44.835  43.009  12.412
47963W        W 9329   3.715  42.864  13.945
47964W        W 9330   6.919  40.979   3.192
47965W        W 9331  13.633  14.124   2.363
47966W        W 9332  21.618  31.413  12.042
47967W        W 9333  38.945   9.379   2.671
47968W        W 9334  21.625   6.378  11.031
47969W        W 9335  21.694  11.178  13.062
47970W        W 9336  14.779  30.496   5.741
47971W        W 9337  28.003  34.116   3.310
47972W        W 9338  42.830  18.291  11.554
47973W        W 9339  16.105  28.531  10.429
47974W        W 9340  23.199  19.141   1.785
47975W        W 9341  17.732  20.183  14.332
47976W        W 9342  22.623  44.439   1.785
47977W        W 9343  16.612  42.928   1.437
47978W        W 9344  28.629  27.002  11.102
47979W        W 9345   0.329   5.805   1.886
47980W        W 9346  22.206  19.544   4.127
47981W        W 9347  27.940  38.464   4.695
47982W        W 9348   8.179  11.370  10.535
47983W        W 9349  24.587   7.673  11.494
47984W        W 9350   5.904  14.703  12.538
47985W        W 9351  30.539   3.349  12.520
47986W        W 9352   5.751  14.716  13.801
47987W        W 9353  39.464   7.299  14.767
47988W        W 9354  30.128  22.147   2.332
47989W        W 9355   7.828   8.220   0.829
47990W        W 9356  26.567  31.985   3.645
47991W        W 9357  37.419  30.024   3.310
47992W        W 9358   3.925  23.648  12.410
47993W        W 9359  22.236  15.616   0.956
47994W        W 9360   1.754  30.975   1.695
47995W        W 9361   0.979  44.805  13.316
47996W        W 9362   8.719   8.748  10.905
47997W        W 9363  28.652  14.132  14.772
47998W        W 9364   4.324  30.510  12.832
47999W        W 9365   6.908   5.922  11.057
48000W        W 9366   6.734   4.836   3.332
48001W        W 9367   0.311  37.871   4.217
48002W        W 9368  27.466  33.550  14.946
48003W        W 9369  16.671  25.522  14.508
48004W        W 9370  39.821  11.303   0.927
48005W        W 9371   1.319  14.822  12.513
48006W        W 9372  39.362  20.075   3.691
48007W        W 9373  20.525  40.797  12.091
48008W        W 9374  25.132  44.984  13.328
48009W        W 9375  33.965   4.307  12.838
48010W        W 9376  13.343  43.279   3.724
48011W        W 9377  29.954  30.464   3.385
48012W        W 9378  23.610  10.695   2.751
48013W        W 9379  23.221  24.090  14.424
48014W        W 9380  13.826  30.576   2.357
48015W        W 9381  19.535  28.089  12.043
48016W        W 9382  14.282  27.630  11.119
48017W        W 9383  38.514  22.510   3.370
48018W        W 9384   2.932  32.108   3.203
48019W        W 9385  39.346  29.539  10.544
48020W        W 9386  16.250   6.683  14.873
48021W        W 9387  25.035  18.112  12.510
48022W        W 9388   0.880   8.162  10.970
48023W        W 9389   0.489   4.889   0.427
48024W        W 9390  19.077   4.721  11.020
48025W        W 9391  25.668  29.052   1.760
48026W        W 9392  41.041   1.813   2.326
48027W        W 9393   4.859  40.821  13.055
48028W        W 9394  19.575  13.701   1.339
48029W        W 9395  34.871   7.871   0.277
48030W        W 9396   0.273   5.751  10.921
48031W        W 9397   8.744   6.750  10.540
48032W        W 9398  16.795  32.585  11.609
48033W        W 9399  38.908  16.296  12.466
48034W        W 9400  43.320  28.658   0.793
48035W        W 9401   8.739  30.618  13.524
48036W        W 9402  32.614  20.084  12.531
48037W        W 9403  35.060   7.744   1.699
48038W        W 9404  16.590  37.028   2.285
48039W        W 9405  22.089  26.660  14.278
48040W        W 9406   4.421  44.923  11.040
48041W        W 9407  27.043  23.045  12.415
48042W        W 9408  32.911  39.861   1.816
48043W        W 9409  37.347  39.882   1.888
48044W        W 9410  10.843   0.957  14.903
48045W        W 9411  22.503  31.468  11.934
48046W        W 9412   8.820  21.095  10.026
48047W        W 9413  21.066  39.322  12.923
48048W        W 9414  21.148  23.601   4.177
48049W        W 9415  42.284  31.495   3.631
48050W        W 9416   3.333  36.985   3.640
48051W        W 9417  23.568  17.196  13.543
48052W        W 9418   4.815  16.201   1.391
48053W        W 9419  24.686  35.946   1.918
48054W        W 9420  25.051  33.055  12.461
48055W        W 9421  39.338  32.412  13.016
48056W        W 9422  12.611   8.305   3.158
48057W        W 9423  12.172   6.403  12.532
48058W        W 9424   6.895  25.487  14.275
48059W        W 9425  24.493  34.484   3.146
48060W        W 9426  26.668  30.090  11.035
48061W        W 9427  19.777  33.546   3.819
48062W        W 9428  34.536  44.395   2.858
48063W        W 9429  32.624  33.129  11.889
48064W        W 9430  17.588  36.363  13.041
48065W        W 9431  26.980  14.806   0.289
48066W        W 9432  28.017  25.990   3.694
48067W        W 9433  12.134  26.131   1.295
48068W        W 9434   3.736  26.103   3.731
48069W        W 9435  25.972   7.335  14.030
48070W        W 9436  38.040   1.843   2.743
48071W        W 9437  23.580   0.824   2.279
48072W        W 9438  10.307  11.676  13.309
48073W        W 9439  17.734  26.110   3.678
48074W        W 9440  38.507   2.935   4.266
48075W        W 9441  28.111   5.732  11.111
48076W        W 9442   8.350  30.525   4.123
48077W        W 9443  36.018  19.186   0.442
48078W        W 9444  20.585  20.218   0.260
48079W        W 9445  44.283  22.527   9.921
48080W        W 9446   4.899  26.049  10.972
48081W        W 9447  15.642  13.168   4.819
48082W        W 9448   7.249  14.592  14.883
48083W        W 9449  33.544   8.810  14.375
48084W        W 9450  31.416  10.152  14.922
48085W        W 9451  23.218  14.703  12.889
48086W        W 9452  11.145  32.471   1.273
48087W        W 9453  33.513   7.311  12.357
48088W        W 9454  27.563  15.731  12.022
48089W        W 9455  25.540  12.308  10.416
48090W        W 9456  35.857  25.191  13.326
48091W        W 9457  26.126  26.681  10.991
48092W        W 9458  18.188  24.114  13.346
48093W        W 9459  20.095  37.571  12.993
48094W        W 9460  24.657  31.643   2.900
48095W        W 9461  26.957  34.980   1.374
48096W        W 9462  27.979   2.770   1.774
48097W        W 9463  42.860   5.750   4.675
48098W        W 9464   2.235  10.293   2.882
48099W        W 9465  17.667  44.267   3.761
48100W        W 9466  34.096  27.457  13.484
48101W        W 9467  30.095   0.482  10.493
48102W        W 9468  24.588  20.045  13.382
48103W        W 9469  40.351  24.163   2.207
48104W        W 9470   8.754  35.600   4.229
48105W        W 9471   8.343  25.530  10.996
48106W        W 9472  23.188  43.837   0.859
48107W        W 9473  11.680  32.107  10.533
48108W        W 9474  25.088  38.053   1.371
48109W        W 9475   9.152  37.420   3.722
48110W        W 9476  17.101  31.113   2.254
48111W        W 9477  14.206  17.177   0.439
48112W        W 9478  24.068  19.671   4.304
48113W        W 9479  30.462  10.256  14.810
48114W        W 9480  41.510  30.067  14.336
48115W        W 9481  27.691  39.335   1.923
48116W        W 9482   1.766  40.517  10.940
48117W        W 9483  31.116  22.568   4.752
48118W        W 9484  19.634  37.016   4.608
48119W        W 9485  21.559  36.953   3.662
48120W        W 9486  26.656  23.053   2.227
48121W        W 9487  27.169  17.573  12.852
48122W        W 9488   2.402   3.220  13.821
48123W        W 9489  16.098  10.829  10.504
48124W        W 9490  10.271  35.018   1.246
48125W        W 9491  42.030  40.824   3.744
48126W        W 9492  27.140  25.549   1.697
48127W        W 9493  27.505  17.079   4.273
48128W        W 9494   0.373  34.980   4.211
48129W        W 9495  23.172  18.685  11.101
48130W        W 9496  18.550  23.053   0.938
48131W        W 9497  39.474  26.671   3.711
48132W        W 9498   0.909  29.951  12.901
48133W        W 9499   8.829  15.312  10.607
48134W        W 9500  12.807  28.975  13.346
48135W        W 9501  11.181   7.716  12.486
48136W        W 9502  25.714  17.762  10.919
48137W        W 9503  24.991  22.569  12.439
48138W        W 9504  24.145   0.933   3.763
48139W        W 9505  32.105  11.855   3.317
48140W        W 9506  44.346  14.165   3.372
48141W        W 9507  11.774  15.133   4.824
48142W        W 9508  39.905  24.039   2.689
48143W        W 9509  27.192   5.757   9.502
48144W        W 9510  24.036  27.644   9.967
48145W        W 9511  10.731  37.895  12.063
48146W        W 9512  23.104  16.796  14.970
48147W        W 9513  42.308  31.505  10.923
48148W        W 9514   0.295  14.605   0.818
48149W        W 9515  23.522  18.661  11.469
48150W        W 9516  32.445  43.393  11.390
48151W        W 9517  27.615  34.503   4.764
48152W        W 9518  19.248   7.368  14.495
48153W        W 9519   9.737   9.792   0.860
48154W        W 9520  29.639  37.371  10.600
48155W        W 9521  10.367  22.672  13.362
48156W        W 9522  21.173  36.030  14.843
48157W        W 9523  16.280  28.046   4.205
48158W        W 9524  10.183  36.985   4.632
48159W        W 9525  39.454  13.350  14.019
48160W        W 9526  26.537  14.638  12.062
48161W        W 9527   0.886  26.165  13.971
48162W        W 9528  10.731  12.814   0.338
48163W        W 9529  22.722  35.860   2.713
48164W        W 9530  31.445  17.678   1.847
48165W        W 9531  32.991  19.574   0.728
48166W        W 9532  36.532   4.315  11.052
48167W        W 9533  10.679  28.064   4.734
48168W        W 9534  30.059  33.130   2.837
48169W        W 9535  16.180  35.993   0.789
48170W        W 9536  13.188  28.511  13.927
48171W        W 9537   7.813  37.050  11.891
48172W        W 9538  28.980   4.814   1.427
48173W        W 9539  30.453  40.942   3.296
48174W        W 9540  11.694  29.516  10.431
48175W        W 9541  17.210  31.069  10.930
48176W        W 9542  30.434  41.934   1.814
48177W        W 9543  37.948  42.804   4.271
48178W        W 9544  44.861  39.380   2.667
48179W        W 9545   2.367  24.057  13.513
48180W        W 9546   4.251  36.933   3.713
48181W        W 9547   1.843  30.970  10.532
48182W        W 9548  15.765  10.731   1.330
48183W        W 9549   0.984  25.646   2.864
48184W        W 9550  21.673  15.691   0.343
48185W        W 9551   3.382  25.004  11.914
48186W        W 9552  16.275  41.794   3.166
48187W        W 9553  11.190  20.582   3.763
48188W        W 9554  12.660  24.184   1.916
48189W        W 9555   0.333  39.820  10.420
48190W        W 9556  21.616  28.475   3.658
48191W        W 9557   9.189  34.594   2.709
48192W        W 9558  43.426  18.103  13.370
48193W        W 9559  29.113  44.492   1.252
48194W        W 9560  44.958  27.954   0.347
48195W        W 9561  27.984   6.294   2.672
48196W        W 9562  40.419  22.126   3.828
48197W        W 9563  28.111  39.550  10.610
48198W        W 9564  31.991  27.688   0.808
48199W        W 9565  14.186  20.581  13.452
48200W        W 9566   3.364  40.016   1.373
48201W        W 9567  23.580  11.788   1.401
48202W        W 9568  35.452  37.511  13.811
48203W        W 9569  27.113   7.875   2.382
48204W        W 9570  28.123  23.200   3.347
48205W        W 9571  28.658  14.227   4.181
48206W        W 9572  32.140  18.173  12.889
48207W        W 9573  16.116  16.144  12.920
48208W        W 9574  12.316  22.079   1.264
48209W        W 9575  30.617  37.957  11.593
48210W        W 9576  37.418  14.807  12.460
48211W        W 9577   8.201  19.062   3.235
48212W        W 9578   3.461   1.356  10.909
48213W        W 9579   4.238  13.692   0.895
48214W        W 9580   4.334  39.359   0.482
48215W        W 9581  15.694  28.020  12.549
48216W        W 9582  24.667   6.214   2.794
48217W        W 9583  26.539  33.470  14.372
48218W        W 9584  28.018  14.738   1.422
48219W        W 9585  18.221  34.062  14.407
48220W        W 9586   1.940   3.242  12.521
48221W        W 9587   1.368  27.976   2.740
48222W        W 9588  30.992  33.477  13.798
48223W        W 9589  22.037  44.377  11.091
48224W        W 9590   8.784  28.677   2.729
48225W        W 9591  31.019  17.750   1.269
48226W        W 9592  31.999   8.344   4.624
48227W        W 9593  29.513  17.598  10.974
48228W        W 9594  31.550  11.306  13.515
48229W        W 9595  16.101   7.252   0.798
48230W        W 9596  26.171   3.426  10.907
48231W        W 9597  29.550  43.941  13.987
48232W        W 9598  39.469  40.876   4.639
48233W        W 9599  36.937   8.809  11.086
48234W        W 9600  11.139  13.187   3.149
48235W        W 9601  18.768  24.191   1.837
48236W        W 9602  24.227   8.285  14.499
48237W        W 9603  43.823   4.339   3.321
48238W        W 9604  28.082   4.409  13.337
48239W        W 9605   5.215   5.331   1.747
48240W        W 9606  18.626  39.031  12.496
48241W        W 9607  13.324  24.638  11.058
48242W        W 9608  19.161  26.053   1.263
48243W        W 9609  44.853  26.516   3.776
48244W        W 9610  28.674   3.433   0.894
48245W        W 9611  11.636  44.939   3.211
48246W        W 9612   4.823  24.537  10.494
48247W        W 9613  35.388  39.559  12.387
48248W        W 9614  36.976  25.488  12.568
48249W        W 9615  20.707  19.158   1.396
48250W        W 9616  32.119  33.117   3.267
48251W        W 9617  17.249  36.546   4.725
48252W        W 9618  13.622  24.075  13.385
48253W        W 9619  12.127  36.911   3.852
48254W        W 9620  15.301  35.496   2.299
48255W        W 9621  27.684  24.044   4.748
48256W        W 9622  42.434  17.575   0.802
48257W        W 9623  38.922  35.465   0.336
48258W        W 9624  35.086  19.058   1.344
48259W        W 9625  40.420  38.029   2.664
48260W        W 9626  38.416  35.599   2.840
48261W        W 9627  14.165   2.746   4.262
48262W        W 9628  34.923  38.876   4.641
48263W        W 9629  27.581  10.157  14.998
48264W        W 9630  36.496  22.732  11.592
48265W        W 9631  34.058  21.608   0.737
48266W        W 9632   9.356  21.548  11.507
48267W        W 9633   4.921   7.778   0.850
48268W        W 9634  38.488  31.075  13.950
48269W        W 9635  40.398   0.306  11.088
48270W        W 9636   7.379  11.245  14.012
48271W        W 9637  33.581   0.482  14.873
48272W        W 9638  18.662  33.552  14.862
48273W        W 9639  19.598  27.555  13.468
48274W        W 9640  40.307  24.649   1.324
48275W        W 9641  37.909  39.015  12.341
48276W        W 9642  23.089  20.142  11.429
48277W        W 9643  12.700  38.870  13.020
48278W        W 9644  22.225  24.058   0.425
48279W        W 9645  20.189  35.913  12.039
48280W        W 9646  23.525  25.103   0.852
48281W        W 9647  13.618  23.634  11.888
48282W        W 9648  19.239  42.874   1.275
48283W        W 9649  13.650  37.038   2.219
48284W        W 9650  31.069  17.133  11.453
48285W        W 9651  11.692  39.515   3.771
48286W        W 9652  38.346  30.641  12.348
48287W        W 9653  15.735  23.194   0.784
48288W        W 9654  44.889  26.154  12.866
48289W        W 9655  27.080  36.842  13.307
48290W        W 9656  23.635   8.841  10.627
48291W        W 9657  43.800   4.874  12.561
48292W        W 9658  31.127  21.758  13.018
48293W        W 9659  18.676  44.899  14.949
48294W        W 9660  12.119   9.665   3.700
48295W        W 9661  43.378  21.660   3.828
48296W        W 9662  11.645  28.537   1.816
48297W        W 9663  39.830  10.152  12.349
48298W        W 9664  33.961  19.262  11.372
48299W        W 9665  14.211  17.710  10.628
48300W        W 9666  13.714  25.632   4.249
48301W        W 9667  39.927  23.653   0.357
48302W        W 9668  40.946  27.167   1.359
48303W        W 9669  37.896  35.557  14.404
48304W        W 9670  39.022  17.592   3.246
48305W        W 9671  11.849  44.288   2.843
48306W        W 9672  10.862   3.243  13.387
48307W        W 9673  19.058  18.199  14.015
48308W        W 9674  40.910  18.175  14.346
48309W        W 9675  14.195   1.831   3.289
48310W        W 9676  43.010  13.161   3.237
48311W        W 9677   7.343  25.173   3.799
48312W        W 9678   8.290  13.215  12.986
48313W        W 9679  26.159  17.619   2.330
48314W        W 9680  41.424  14.167  14.831
48315W        W 9681   5.404  41.506  11.510
48316W        W 9682  27.458   7.180  12.498
48317W        W 9683  41.418  13.740  14.016
48318W        W 9684  25.201  16.594  14.789
48319W        W 9685   6.685  17.071  13.453
48320W        W 9686  44.426   8.742   1.928
48321W        W 9687  43.343  12.333  13.952
48322W        W 9688   4.288  40.804  14.840
48323W        W 9689  35.001  44.884  11.603
48324W        W 9690  33.418  25.032  11.858
48325W        W 9691  27.012  14.633   2.182
48326W        W 9692  41.903   2.469  13.050
48327W        W 9693  27.562   7.853   4.811
48328W        W 9694  33.026  18.665   2.889
48329W        W 9695   1.871  25.561  10.932
48330W        W 9696  24.569  42.460   0.922
48331W        W 9697  28.070  41.017   1.700
48332W        W 9698  20.619  28.095   3.657
48333W        W 9699  40.483  34.093   0.288
48334W        W 9700  31.049  36.427   2.215
48335W        W 9701  21.634  12.179   4.695
48336W        W 9702  14.304   4.350  14.941
48337W        W 9703  13.749  29.639  10.512
48338W        W 9704   2.253  30.046   0.860
48339W        W 9705  31.113  18.178   1.356
48340W        W 9706  39.485  20.716  14.479
48341W        W 9707  11.256  16.093  12.064
48342W        W 9708   8.891   1.282   3.741
48343W        W 9709  20.711  10.711  13.379
48344W        W 9710   5.293  42.479  14.509
48345W        W 9711  27.480  19.592   9.675
48346W        W 9712  29.128   0.375  12.550
48347W        W 9713  39.895  19.660  13.510
48348W        W 9714  30.974  32.023   4.611
48349W        W 9715   7.414  18.171   1.375
48350W        W 9716  44.264   9.178  12.489
48351W        W 9717   6.330  25.526   1.397
48352W        W 9718  29.424  12.213  11.958
48353W        W 9719  35.069  43.849   2.365
48354W        W 9720  18.168   7.877  12.826
48355W        W 9721  44.776  44.008  12.540
48356W        W 9722  35.511   1.467   2.273
48357W        W 9723  37.084  13.645   1.224
48358W        W 9724   5.314  39.374   3.829
48359W        W 9725  13.128  28.679   0.938
48360W        W 9726  35.388   4.270   1.277
48361W        W 9727  32.054  18.208   1.415
48362W        W 9728  39.889  26.001   1.441
48363W        W 9729  33.924  11.626   4.727
48364W        W 9730  23.076  22.186   4.150
48365W        W 9731  16.310  10.749   0.319
48366W        W 9732  38.841   4.434   1.346
48367W        W 9733  38.377   1.770   2.779
48368W        W 9734  42.314  17.785  13.541
48369W        W 9735   2.953  14.652  10.435
48370W        W 9736  38.065  38.877   0.884
48371W        W 9737  14.797  26.185  12.466
48372W        W 9738   4.858   9.307  11.967
48373W        W 9739  37.872  39.378  10.978
48374W        W 9740  23.042   1.904   0.367
48375W        W 9741  35.440  15.671  14.879
48376W        W 9742  41.538   1.241  12.951
48377W        W 9743  25.110  29.155   2.384
48378W        W 9744  29.443  31.914  11.943
48379W        W 9745   2.331  28.637  10.997
48380W        W 9746  39.402   3.405   1.426
48381W        W 9747   7.843   0.776   1.384
48382W        W 9748   8.279  20.041  12.391
48383W        W 9749   5.843  24.013   0.386
48384W        W 9750  24.979   1.244  10.991
48385W        W 9751  10.729  19.777  12.938
48386W        W 9752  26.511   9.821  14.810
48387W        W 9753   5.728  24.191   2.898
48388W        W 9754   5.802  41.305   4.819
48389W        W 9755  37.026  16.729   1.227
48390W        W 9756  36.849  17.612   3.804
48391W        W 9757  27.528   3.239   4.138
48392W        W 9758  20.568  35.537  12.829
48393W        W 9759  13.248   0.887  14.376
48394W        W 9760  19.101  19.127   2.874
48395W        W 9761  22.723   2.359   2.816
48396W        W 9762  35.924  43.462   1.322
48397W        W 9763   0.967  11.835  14.960
48398W        W 9764  35.919  24.528  10.424
48399W        W 9765  24.006  28.435  10.459
48400W        W 9766  36.991  15.169  12.929
48401W        W 9767   9.870  20.246   4.120
48402W        W 9768  22.732  43.286  13.930
48403W        W 9769  26.655   8.679   5.254
48404W        W 9770  24.209  26.168  14.824
48405W        W 9771  35.470  38.931  11.496
48406W        W 9772  33.535  13.308  10.486
48407W        W 9773  34.054   3.454   4.738
48408W        W 9774  32.540  24.016   4.194
48409W        W 9775  33.403  16.648  14.988
48410W        W 9776  25.964  27.179  13.857
48411W        W 9777   4.735  38.055   1.884
48412W        W 9778  27.679   5.850  11.393
48413W        W 9779   8.376  24.608  14.334
48414W        W 9780  32.054   9.310  13.861
48415W        W 9781  37.461  40.366  13.314
48416W        W 9782  15.124  20.669  11.555
48417W        W 9783   0.892   0.951  14.841
48418W        W 9784  18.224  29.113  14.022
48419W        W 9785  28.602  15.091  14.386
48420W        W 9786  16.765  32.955   1.722
48421W        W 9787  23.506  42.991  11.441
48422W        W 9788   3.950   1.928  12.417
48423W        W 9789   5.369  39.476   2.820
48424W        W 9790  30.999  42.311  11.574
48425W        W 9791  43.327  40.524  14.378
48426W        W 9792  41.420  32.397  12.062
48427W        W 9793  12.156  43.438   1.429
48428W        W 9794  44.398   7.324   1.304
48429W        W 9795  41.013  39.047   3.209
48430W        W 9796  17.123   2.365   2.750
48431W        W 9797  33.952  12.699  12.945
48432W        W 9798  41.789  38.532  14.008
48433W        W 9799  18.138  34.863  14.958
48434W        W 9800  26.986  24.992   3.166
48435W        W 9801  37.862  18.119  14.877
48436W        W 9802  34.902  36.999   1.738
48437W        W 9803  16.084  25.658  12.546
48438W        W 9804   6.763   5.339   0.325
48439W        W 9805  24.054  22.059  11.558
48440W        W 9806  12.170  41.850  13.058
48441W        W 9807   7.336  33.520   0.873
48442W        W 9808  26.173  18.212  13.793
48443W        W 9809  28.063  40.516   0.788
48444W        W 9810  28.167  21.191  12.463
48445W        W 9811   0.794   2.739  12.007
48446W        W 9812   0.832  23.715  13.998
48447W        W 9813  29.562  18.204   2.848
48448W        W 9814  37.035   1.899   1.881
48449W        W 9815   8.691  28.004  14.438
48450W        W 9816  29.017  12.743  13.040
48451W        W 9817  25.500   6.704  12.557
48452W        W 9818   5.874  40.491  10.991
48453W        W 9819  44.862   2.432   1.408
48454W        W 9820   2.230  19.282  11.034
48455W        W 9821  15.705  22.199   0.822
48456W        W 9822  13.292   1.807   3.258
48457W        W 9823  41.799  11.168  14.761
48458W        W 9824  17.645  14.291  11.879
48459W        W 9825   1.347  41.392   3.345
48460W        W 9826  44.991   2.780  10.464
48461W        W 9827  31.021  30.494  11.022
48462W        W 9828  34.503  33.907   1.694
48463W        W 9829  37.966   1.436  12.003
48464W        W 9830  21.540   5.768   2.717
48465W        W 9831  32.444  24.042   1.743
48466W        W 9832  28.469   8.685   2.832
48467W        W 9833  23.124  14.291   1.707
48468W        W 9834  20.751  43.975  10.546
48469W        W 9835  39.002  19.580   1.723
48470W        W 9836  11.278  38.032   1.400
48471W        W 9837  39.964  11.833   0.886
48472W        W 9838  24.716  44.379  13.327
48473W        W 9839  40.013   0.884   1.742
48474W        W 9840  44.350  44.760   4.654
48475W        W 9841  41.504  18.065   0.930
48476W        W 9842  14.729  30.044  11.528
48477W        W 9843  35.874  13.214   3.298
48478W        W 9844  13.788  34.027  13.982
48479W        W 9845  22.699   3.911  11.940
48480W        W 9846  14.614  29.111  10.626
48481W        W 9847  11.854  17.649  14.454
48482W        W 9848  35.450  19.152   0.832
48483W        W 9849   7.668  24.709   0.368
48484W        W 9850  28.642  40.351   1.838
48485W        W 9851  12.281  14.225  12.436
48486W        W 9852  17.767   4.447  10.544
48487W        W 9853  30.542  41.974   3.199
48488W        W 9854  23.615  37.457  11.873
48489W        W 9855  11.740  36.462  14.343
48490W        W 9856   4.745  32.902  12.024
48491W        W 9857  39.850  18.059   3.319
48492W        W 9858  11.169   7.732  11.035
48493W        W 9859   6.869  28.083  14.292
48494W        W 9860  14.200  21.203  12.982
48495W        W 9861  41.444  43.516  13.421
48496W        W 9862  42.948  25.150  13.473
48497W        W 9863  16.308   3.885  12.087
48498W        W 9864   4.207  28.057   4.653
48499W        W 9865  38.552  40.797   1.807
48500W        W 9866  32.558   9.313   1.803
48501W        W 9867  28.153  37.058   0.377
48502W        W 9868  31.588  34.511   3.245
48503W        W 9869  30.470  35.532  13.901
48504W        W 9870  13.220   2.903  10.506
48505W        W 9871  26.100  35.944   1.401
48506W        W 9872  37.087  14.778   3.238
48507W        W 9873  27.543   7.840  11.470
48508W        W 9874  25.078  19.742   4.797
48509W        W 9875  25.976  16.640   1.854
48510W        W 9876  29.656  29.599   2.255
48511W        W 9877  18.264  26.541  13.471
48512W        W 9878  22.621   2.840   2.717
48513W        W 9879  41.860  28.607   3.201
48514W        W 9880  32.898  25.477   4.689
48515W        W 9881   7.687  11.318  11.907
48516W        W 9882  44.853  39.914   1.293
48517W        W 9883  19.259  40.397  11.085
48518W        W 9884  36.510  30.590   0.289
48519W        W 9885  44.417  25.582   0.907
48520W        W 9886   8.697   1.328   1.729
48521W        W 9887  30.642  32.408   4.166
48522W        W 9888   0.888   4.437  14.492
48523W        W 9889  43.813  32.107  14.956
48524W        W 9890  39.038  25.021  11.928
48525W        W 9891  37.034  21.071  11.939
48526W        W 9892  28.491  22.738   1.728
48527W        W 9893  36.378  44.000   1.843
48528W        W 9894   4.292  31.429   1.747
48529W        W 9895   0.362  37.446   0.947
48530W        W 9896  39.976   7.868  12.444
48531W        W 9897   4.313  26.599   0.836
48532W        W 9898  13.196  11.856   3.231
48533W        W 9899   9.716  40.456   0.476
48534W        W 9900   2.317  17.631  14.973
48535W        W 9901  28.114  13.145  13.849
48536W        W 9902  27.627   2.740   3.341
48537W        W 9903  17.595  42.931   1.369
48538W        W 9904  17.154  26.472   1.766
48539W        W 9905   8.263   1.843   3.681
48540W        W 9906  27.060  18.231  10.954
48541W        W 9907  37.927  23.734   4.207
48542W        W 9908  34.375  37.435   3.806
48543W        W 9909   6.425  36.358   0.469
48544W        W 9910  36.489  13.155   0.905
48545W        W 9911  31.546  22.129   2.739
48546W        W 9912  19.260  17.083   0.407
48547W        W 9913  23.721   1.862  11.860
48548W        W 9914  44.851  31.906  11.966
48549W        W 9915   7.759  39.431  14.825
48550W        W 9916  41.905   7.362  10.418
48551W        W 9917  36.464  33.405   1.830
48552W        W 9918  42.400  25.132  11.397
48553W        W 9919  15.085  27.634  12.360
48554W        W 9920   1.802  39.999  11.574
48555W        W 9921  25.980  32.540  13.500
48556W        W 9922   8.212  34.467   3.277
48557W        W 9923  41.489   5.306  12.340
48558W        W 9924  35.359  41.390   0.790
48559W        W 9925  31.509  24.610  14.962
48560W        W 9926  29.516  20.196  13.832
48561W        W 9927  43.828   1.443   2.742
48562W        W 9928  23.021   2.411  14.814
48563W        W 9929  34.391   6.368  11.486
48564W        W 9930   9.800  28.645  13.925
48565W        W 9931  21.520   2.447  12.012
48566W        W 9932   0.779  31.451   1.841
48567W        W 9933  15.189   3.290  13.310
48568W        W 9934  33.060  18.263  12.416
48569W        W 9935  11.154  42.980   2.863
48570W        W 9936  31.432   8.844   3.280
48571W        W 9937  30.909  36.448  14.788
48572W        W 9938  20.571  24.680   4.631
48573W        W 9939  31.627  21.664   0.326
48574W        W 9940  21.027  40.430   2.379
48575W        W 9941  25.544  22.037  14.508
48576W        W 9942   6.842  16.239  14.442
48577W        W 9943   0.796  20.583   3.324
48578W        W 9944  32.584  15.302  12.449
48579W        W 9945  19.072  30.485   0.838
48580W        W 9946  19.178   0.836  11.105
48581W        W 9947   8.406  30.658   2.315
48582W        W 9948  44.972   2.285  14.324
48583W        W 9949  20.182  38.830  11.580
48584W        W 9950  21.560  23.087  12.431
48585W        W 9951   4.773  15.151  14.449
48586W        W 9952  44.873   6.815  11.506
48587W        W 9953   1.260  43.349   3.812
48588W        W 9954  40.803   5.889  11.575
48589W        W 9955   4.808  30.647   2.717
48590W        W 9956  16.642  38.860  10.988
48591W        W 9957  43.968  30.112   2.707
48592W        W 9958   4.899  35.471  14.768
48593W        W 9959  37.994  35.383   0.741
48594W        W 9960  36.854  41.326   1.263
48595W        W 9961  15.264  42.517   4.176
48596W        W 9962  18.249  11.145  11.950
48597W        W 9963  29.044   8.840   1.855
48598W        W 9964  15.705  19.615   4.827
48599W        W 9965  33.426  41.324  13.540
48600W        W 9966  39.487   9.686  10.415
48601W        W 9967   8.816  30.981   0.923
48602W        W 9968  44.833   6.760  10.928
48603W        W 9969  23.548  36.053  11.569
48604W        W 9970  25.555  40.319   0.448
48605W        W 9971  33.599  18.657  10.478
48606W        W 9972  38.465  23.070   1.441
48607W        W 9973   3.390  17.173  10.544
48608W        W 9974  31.087   0.286  13.466
48609W        W 9975  12.166   2.752  13.055
48610W        W 9976   1.304  31.523   2.821
48611W        W 9977   0.250  11.702   4.786
48612W        W 9978  15.792  35.894  14.901
48613W        W 9979   0.291  19.693   0.280
48614W        W 9980  27.155  31.438  14.393
48615W        W 9981   7.697  14.197  13.334
48616W        W 9982  32.561  18.106   0.326
48617W        W 9983   6.349  16.189   1.834
48618W        W 9984  24.146  12.237   4.672
48619W        W 9985  11.652  32.462  13.890
48620W        W 9986   0.396   2.932   0.765
48621W        W 9987  42.458  18.622  10.931
48622W        W 9988  24.000  15.633  12.383
48623W        W 9989   9.832  28.652   4.680
48624W        W 9990  37.508  18.694  14.907
48625W        W 9991   2.422  31.421   2.814
48626W        W 9992  33.008  25.594  13.888
48627W        W 9993  34.537   5.871   2.396
48628W        W 9994  38.984   1.926   0.953
48629W        W 9995   9.279   3.910  12.342
48630W        W 9996  37.913  42.403   3.360
48631W        W 9997   1.916  33.925  14.897
48632W        W 9998  41.398  20.594  13.821
48633W        W 9999  26.106  18.748  14.388
48634W        W10000  34.001  28.626  11.529
48635W        W10001  37.855   5.699   1.268
48636W        W10002  34.554  32.576  14.943
48637W        W10003  13.696  20.202  12.911
48638W        W10004  26.517  18.224  14.963
48639W        W10005  16.586  23.731  14.852
48640W        W10006  42.871  41.295   2.191
48641W        W10007  23.230  38.542  13.430
48642W        W10008  12.844   2.807  11.405
48643W        W10009  13.677   1.738   4.295
48644W        W10010  30.498  31.085   1.831
48645W        W10011  33.975  11.273   3.637
48646W        W10012  35.974   6.840  10.581
48647W        W10013  17.294  37.966  12.036
48648W        W10014  13.756  27.484   0.468
48649W        W10015  21.109  40.926   0.737
48650W        W10016  44.818   6.798   0.876
48651W        W10017  35.441   4.235   3.315
48652W        W10018  31.003  42.431  10.911
48653W        W10019  42.891  31.119   4.152
48654W        W10020   1.741  32.984   2.191
48655W        W10021   5.439  42.459  11.070
48656W        W10022  10.642  35.411   1.237
48657W        W10023  43.303  35.379   1.912
48658W        W10024  27.606  44.753   4.829
48659W        W10025   9.301   2.768   1.697
48660W        W10026   5.384  33.459   4.771
48661W        W10027  10.237  34.381   2.672
48662W        W10028  44.898  41.805  14.445
48663W        W10029   3.791   7.866   4.304
48664W        W10030  33.414  26.661   3.299
48665W        W10031  28.010  13.766   4.748
48666W        W10032  40.822  29.139   0.315
48667W        W10033  30.420  44.961   0.252
48668W        W10034  14.734   5.876  13.324
48669W        W10035  29.478  37.937   4.177
48670W        W10036  40.898  34.585  10.905
48671W        W10037  10.307  21.132  12.959
48672W        W10038   0.753  43.445   1.425
48673W        W10039  29.622  25.156   1.212
48674W        W10040  27.533  35.447  11.943
48675W        W10041  37.036   1.829   2.742
48676W        W10042  31.919   3.730  13.821
48677W        W10043  24.077  29.175  13.380
48678W        W10044  29.008   7.848  12.000
48679W        W10045  27.176  31.963   1.326
48680W        W10046   1.891  28.629   1.370
48681W        W10047  29.095   7.868   2.841
48682W        W10048  34.030  11.753   0.284
48683W        W10049  11.269  12.686  12.862
48684W        W10050   6.893   0.256   4.307
48685W        W10051   1.450  17.137  11.876
48686W        W10052  26.579   1.350  10.469
48687W        W10053  43.864   2.294   4.224
48688W        W10054  38.350   2.284  11.475
48689W        W10055  26.097  10.817   3.230
48690W        W10056  29.443   2.416   1.793
48691W        W10057  11.304  33.002   2.820
48692W        W10058   1.765  32.000   0.930
48693W        W10059   3.277  16.723   2.735
48694W        W10060  36.436  26.657  13.472
48695W        W10061   9.313   6.685   2.677
48696W        W10062   8.184  31.896  13.444
48697W        W10063  23.042  44.920  12.884
48698W        W10064  38.386  12.650  11.557
48699W        W10065  26.185  38.417  14.891
48700W        W10066  42.841  36.548  11.384
48701W        W10067   4.365  26.151   3.311
48702W        W10068  20.656  25.069   1.894
48703W        W10069   5.290  23.702   0.773
48704W        W10070  33.981   3.280   0.910
48705W        W10071   3.814  31.428   4.341
48706W        W10072   9.667  42.514   0.449
48707W        W10073  38.384  17.560   2.723
48708W        W10074  39.945  35.006   3.733
48709W        W10075   8.725  20.089  13.437
48710W        W10076  44.835  24.503  14.834
48711W        W10077   3.764  12.357  12.968
48712W        W10078  21.136   3.240   0.736
48713W        W10079  20.136  33.427   3.793
48714W        W10080   7.874  39.028  13.470
48715W        W10081  38.548  28.464   0.300
48716W        W10082  19.657  13.141  13.537
48717W        W10083  29.053   0.275  10.511
48718W        W10084  22.139  21.201   1.418
48719W        W10085  40.420  19.580  12.917
48720W        W10086  40.034  16.761  13.059
48721W        W10087  14.650  27.688   3.239
48722W        W10088  13.600  31.610   2.404
48723W        W10089  11.791  27.141  10.994
48724W        W10090  22.138  11.166   4.637
48725W        W10091  32.001   1.458  14.842
48726W        W10092  11.651  43.423   4.690
48727W        W10093  27.191   4.920  12.358
48728W        W10094  42.369  20.079  10.603
48729W        W10095   4.713   2.296   4.676
48730W        W10096  39.448   1.746   1.329
48731W        W10097  16.665   1.364   4.253
48732W        W10098  31.574  31.580  14.498
48733W        W10099  28.945  12.299   0.861
48734W        W10100  31.121  26.146  13.011
48735W        W10101  11.836  18.759  14.427
48736W        W10102   7.675   8.392   3.379
48737W        W10103   7.223  43.328  12.397
48738W        W10104  28.157  36.376  12.907
48739W        W10105  18.153  27.006   2.419
48740W        W10106  31.421   0.385   0.243
48741W        W10107  39.843  43.417   1.868
48742W        W10108  12.272  40.858   1.819
48743W        W10109  18.595  39.403   4.603
48744W        W10110  38.417  18.701   4.133
48745W        W10111  31.538   1.925   0.247
48746W        W10112   6.426  26.070   0.320
48747W        W10113  36.462   0.464   2.205
48748W        W10114  27.510  44.801   2.700
48749W        W10115  28.640   5.273   1.387
48750W        W10116  38.973  40.957  11.873
48751W        W10117  30.083   2.295   2.242
48752W        W10118  15.280  21.168   3.348
48753W        W10119  16.089  35.098  12.843
48754W        W10120  25.115  36.053   1.274
48755W        W10121  12.289  21.029  12.920
48756W        W10122  42.854  31.614   4.662
48757W        W10123  16.119  10.754   1.252
48758W        W10124  38.835  15.815  14.004
48759W        W10125   2.236  22.554   4.264
48760W        W10126  24.690  23.209  13.516
48761W        W10127  42.972  37.901  12.485
48762W        W10128  32.470  42.345   3.370
48763W        W10129  30.539   6.688  12.880
48764W        W10130  33.083  32.951   4.183
48765W        W10131  35.494  32.922   3.647
48766W        W10132   9.275  21.132  13.394
48767W        W10133  21.058  36.936  11.123
48768W        W10134  37.063   9.238  13.024
48769W        W10135  13.826  39.365   3.754
48770W        W10136  37.395  37.948  14.282
48771W        W10137  38.353  17.762  14.398
48772W        W10138  12.156  39.020  13.963
48773W        W10139  29.482  44.938  11.053
48774W        W10140  22.701  27.975   3.793
48775W        W10141  20.719   3.753   9.976
48776W        W10142   5.434  20.689  13.372
48777W        W10143  31.097  27.624   0.387
48778W        W10144   5.918  22.093   0.913
48779W        W10145  12.627  34.506  13.469
48780W        W10146  19.629  41.852  13.032
48781W        W10147  20.192  44.304  12.888
48782W        W10148  39.957  17.604   0.425
48783W        W10149  17.786  44.317  12.373
48784W        W10150   9.364  10.709  14.277
48785W        W10151  44.473  19.264   1.222
48786W        W10152  27.485  35.992  13.025
48787W        W10153  12.720  42.885   3.786
48788W        W10154  41.933  20.614   3.330
48789W        W10155  41.528  42.966   2.855
48790W        W10156  36.976   8.833   3.839
48791W        W10157  10.669  25.988  10.612
48792W        W10158  22.050  11.631  11.893
48793W        W10159  16.611  11.861   1.788
48794W        W10160  25.627  14.746   2.746
48795W        W10161   2.894  23.589   2.266
48796W        W10162  33.429   7.811   5.158
48797W        W10163  32.112   8.668   0.917
48798W        W10164  34.986   5.904   0.393
48799W        W10165  43.883   8.284   1.757
48800W        W10166  18.552  13.631  11.401
48801W        W10167  37.890  18.282   0.463
48802W        W10168  10.189  36.527   4.267
48803W        W10169  24.053   6.721   3.297
48804W        W10170  37.396   8.883   1.879
48805W        W10171  22.186  32.594  12.884
48806W        W10172  17.115  19.724  12.971
48807W        W10173  12.178  36.406   3.729
48808W        W10174  30.936  31.136  13.393
48809W        W10175  26.483  36.440   0.934
48810W        W10176  30.038  13.678  13.013
48811W        W10177  13.816  18.601   3.742
48812W        W10178   5.825  35.415  10.991
48813W        W10179  30.156  31.601  14.993
48814W        W10180  30.052  23.072  11.412
48815W        W10181  10.784  29.993  12.884
48816W        W10182  20.634  17.611  10.529
48817W        W10183   4.450  34.887   1.914
48818W        W10184  36.540  24.176  13.412
48819W        W10185   3.927  43.989  13.887
48820W        W10186  19.110  19.257   0.393
48821W        W10187  11.818  43.450   0.868
48822W        W10188  39.878  42.386  13.835
48823W        W10189  36.881  44.305   0.768
48824W        W10190  44.470  32.951   3.226
48825W        W10191  21.730  27.520  11.990
48826W        W10192  21.101  10.667  10.928
48827W        W10193  38.404  32.926   4.731
48828W        W10194  39.399   3.890   3.665
48829W        W10195  13.323   1.952  13.431
48830W        W10196  25.487  44.917  13.962
48831W        W10197  35.004  40.394  14.804
48832W        W10198  13.687  29.071  13.546
48833W        W10199  40.355   2.246   3.306
48834W        W10200  34.868  23.557  14.448
48835W        W10201  20.083  27.648   3.843
48836W        W10202  38.390  39.037   2.293
48837W        W10203  16.595  43.439   3.856
48838W        W10204  24.720  40.932   3.284
48839W        W10205  39.871  32.128   0.322
48840W        W10206  27.647   0.463   4.797
48841W        W10207   8.383  41.309  12.999
48842W        W10208  24.503  16.075  11.886
48843W        W10209  14.624   6.797  11.943
48844W        W10210  34.496  21.061  14.788
48845W        W10211  33.936   4.221   3.724
48846W        W10212  19.570  21.530   4.683
48847W        W10213  15.095  13.325  14.326
48848W        W10214   5.820  24.179   0.850
48849W        W10215  43.434  33.964  14.396
48850W        W10216  15.612   4.335  10.159
48851W        W10217   9.685  26.677   2.303
48852W        W10218  29.975  36.359  11.399
48853W        W10219   0.340  28.645  12.870
48854W        W10220  30.976  41.379  14.294
48855W        W10221  38.454  26.513   1.381
48856W        W10222   5.717   8.708  13.910
48857W        W10223  32.116  34.080   1.354
48858W        W10224  31.031  29.059  11.067
48859W        W10225  39.835  30.936  13.999
48860W        W10226  41.849  25.709   1.876
48861W        W10227  12.314   8.886   3.720
48862W        W10228  20.645  18.772   2.747
48863W        W10229   9.812  35.500   4.113
48864W        W10230  37.873  13.709   1.411
48865W        W10231  27.149   2.749   1.772
48866W        W10232  24.493   6.741  12.879
48867W        W10233  43.840   2.870   2.792
48868W        W10234   8.392  37.007  14.824
48869W        W10235  34.021  37.071  12.912
48870W        W10236  28.066  36.483   4.339
48871W        W10237  31.023  18.596   9.506
48872W        W10238  37.087  32.927  11.431
48873W        W10239  26.688  43.987  13.538
48874W        W10240  32.036  19.150  11.453
48875W        W10241  27.190  28.092   3.359
48876W        W10242  14.106   9.178  13.011
48877W        W10243  14.718   3.823   2.827
48878W        W10244  42.516  34.369  11.078
48879W        W10245  38.909  24.577  13.897
48880W        W10246  12.151   3.873  13.362
48881W        W10247  12.265  38.515  14.394
48882W        W10248  28.609  22.213   1.813
48883W        W10249  43.412  22.670   2.761
48884W        W10250  42.414  44.935  13.506
48885W        W10251  44.321  27.062  14.922
48886W        W10252  42.518   2.885  11.055
48887W        W10253  36.518   0.324  13.336
48888W        W10254   1.448  33.583  10.633
48889W        W10255  14.755  39.486   0.262
48890W        W10256  15.244  20.608   2.853
48891W        W10257  17.742  32.583  14.302
48892W        W10258  12.670   1.876  14.487
48893W        W10259  23.076  19.039   2.832
48894W        W10260  21.565  35.401   4.792
48895W        W10261  34.068   0.873  12.893
48896W        W10262  33.383   6.761   1.861
48897W        W10263   7.847  28.167   0.936
48898W        W10264  12.284  20.165   2.178
48899W        W10265  12.139  39.062   1.242
48900W        W10266  30.412   3.926   3.173
48901W        W10267  33.531  18.244   3.366
48902W        W10268   2.819  44.959  12.981
48903W        W10269   3.313  41.933   3.836
48904W        W10270  10.803   7.194  13.522
48905W        W10271  24.037  29.976   0.374
48906W        W10272  29.464   1.963  12.889
48907W        W10273  34.898  28.147  14.982
48908W        W10274  23.540  18.188  12.883
48909W        W10275  12.301  15.796   3.697
48910W        W10276  16.276  35.588  14.907
48911W        W10277  33.618  30.486  12.842
48912W        W10278  18.781  24.697  10.491
48913W        W10279  25.047  27.193  11.422
48914W        W10280  30.430  36.421  13.493
48915W        W10281  10.384  23.689   2.681
48916W        W10282  30.933  44.898  14.963
48917W        W10283  20.666   1.287   1.223
48918W        W10284  40.034  17.217   0.362
48919W        W10285  39.339  27.083  13.377
48920W        W10286  30.656  44.933  12.066
48921W        W10287  38.891  43.802   0.840
48922W        W10288   7.201  29.634  14.470
48923W        W10289  17.661  37.476   1.382
48924W        W10290   6.230   9.885  13.794
48925W        W10291  30.973  11.134  13.924
48926W        W10292   7.342  25.036   1.746
48927W        W10293   3.922  17.096   1.238
48928W        W10294  18.194  22.203  14.958
48929W        W10295  30.064  23.035   2.761
48930W        W10296  13.257  21.755  10.957
48931W        W10297  38.485  25.688  10.408
48932W        W10298  25.683   7.408   9.962
48933W        W10299  23.152  32.047  14.422
48934W        W10300  34.476  43.337   2.835
48935W        W10301  25.080   6.376  11.082
48936W        W10302  34.887  29.045  14.811
48937W        W10303  22.553   9.677  10.450
48938W        W10304  44.312  14.213   0.283
48939W        W10305  37.065  10.820   0.781
48940W        W10306   3.849  22.681   1.334
48941W        W10307   0.452  39.894  12.515
48942W        W10308  38.004   3.741   4.165
48943W        W10309  26.995   5.200   0.911
48944W        W10310  18.658  13.758   5.259
48945W        W10311  21.141   7.312  14.936
48946W        W10312  20.033   3.887  14.943
48947W        W10313  34.478  25.028   1.336
48948W        W10314   2.439  15.754   4.335
48949W        W10315  36.096  44.398  11.120
48950W        W10316  10.294  30.975   4.186
48951W        W10317   7.736  36.529   1.259
48952W        W10318   0.480  39.979  12.045
48953W        W10319  43.784  32.460  13.875
48954W        W10320  22.633  24.627   2.289
48955W        W10321  11.296   1.421   3.632
48956W        W10322   4.212  43.859  10.996
48957W        W10323  33.456  35.459  13.382
48958W        W10324  40.841  10.661  11.403
48959W        W10325  14.782   2.270   0.837
48960W        W10326  32.529  40.979  13.376
48961W        W10327  25.497  15.809   4.622
48962W        W10328  24.027  20.118   0.298
48963W        W10329   9.804   1.948  11.982
48964W        W10330  16.255   3.754   4.297
48965W        W10331   9.215   7.261   4.307
48966W        W10332  41.830  25.027   1.391
48967W        W10333  13.128  19.562   2.689
48968W        W10334  15.249  37.361   0.916
48969W        W10335  39.432  13.334   2.397
48970W        W10336  26.185  29.593   4.211
48971W        W10337  20.607   2.242   4.730
48972W        W10338   5.270  10.773  10.455
48973W        W10339  28.065   6.817   4.224
48974W        W10340   6.726  40.040  13.326
48975W        W10341  35.010  17.230   4.627
48976W        W10342  30.484  11.287   4.159
48977W        W10343   6.923   8.719  14.813
48978W        W10344  34.501  15.624  12.027
48979W        W10345  21.530  16.796   4.661
48980W        W10346  15.776  22.145  12.929
48981W        W10347   4.443  23.002   0.341
48982W        W10348  29.569  38.990  11.914
48983W        W10349  42.986  34.044   1.413
48984W        W10350   1.745  32.012   1.215
48985W        W10351   7.271  43.901  13.879
48986W        W10352  10.826  41.863  11.069
48987W        W10353  39.359  15.111   0.743
48988W        W10354  22.525  27.612   1.821
48989W        W10355  16.317  11.303   4.220
48990W        W10356   2.276   0.947   1.393
48991W        W10357  25.484   8.862  11.531
48992W        W10358  13.630  43.345   1.450
48993W        W10359  31.577  36.922   0.913
48994W        W10360  14.674  42.373   4.339
48995W        W10361  17.122  20.162   4.243
48996W        W10362  26.655   6.216   0.284
48997W        W10363  27.013  29.579   2.179
48998W        W10364  38.948  20.070   1.412
48999W        W10365  42.913   1.242   4.692
49000W        W10366  11.241  24.217   1.437
49001W        W10367  19.640  18.246  10.556
49002W        W10368   1.956  22.243   1.291
49003W        W10369  42.789  33.500   0.292
49004W        W10370  10.806  31.040   1.267
49005W        W10371  37.840   2.375  12.524
49006W        W10372  30.033  25.527   1.872
49007W        W10373  16.149   8.328  13.414
49008W        W10374  31.071  33.387   3.383
49009W        W10375  13.142  32.109  13.821
49010W        W10376  22.030   1.871   4.178
49011W        W10377  11.783  33.064   3.315
49012W        W10378  39.327  25.687   3.197
49013W        W10379  38.512  43.428   4.191
49014W        W10380  29.590  16.125  11.917
49015W        W10381  16.310  41.854   2.248
49016W        W10382  30.998  18.583   1.695
49017W        W10383   7.860  33.061  10.434
49018W        W10384  14.131  40.964  13.472
49019W        W10385  23.216  21.047  11.375
49020W        W10386   3.928   8.239  11.858
49021W        W10387  33.625  28.988  14.785
49022W        W10388  24.131  17.133   9.971
49023W        W10389  38.545  43.406  10.943
49024W        W10390  21.199  31.983  14.854
49025W        W10391   5.399  26.980  14.864
49026W        W10392  29.099  10.668   3.373
49027W        W10393  10.739  13.115  11.008
49028W        W10394  17.307  12.663  11.510
49029W        W10395  15.784  13.233  12.953
49030W        W10396  13.626  13.791  13.367
49031W        W10397  12.323  31.039  14.405
49032W        W10398  10.210  38.011   4.776
49033W        W10399  33.969  11.688  14.382
49034W        W10400  22.159   7.365  12.936
49035W        W10401  42.432  29.038  14.006
49036W        W10402  25.581  33.494   3.698
49037W        W10403  41.880  41.503   2.219
49038W        W10404  22.728  30.983  11.414
49039W        W10405  33.086  23.664   1.327
49040W        W10406  21.614  42.326  14.476
49041W        W10407   3.323  25.597   2.400
49042W        W10408  31.466  27.022   0.907
49043W        W10409   1.960   8.729   3.354
49044W        W10410  14.773  43.357   0.368
49045W        W10411  18.065  41.420  11.483
49046W        W10412  35.982   5.780  11.002
49047W        W10413  35.366   0.397  11.473
49048W        W10414   2.440  12.623   1.795
49049W        W10415  35.920   7.804   2.381
49050W        W10416  30.081   8.806  11.915
49051W        W10417  20.731   2.747   0.257
49052W        W10418  12.173  13.750  12.528
49053W        W10419  40.323  33.387  11.014
49054W        W10420  37.901  27.456  12.878
49055W        W10421  13.620  36.996  11.032
49056W        W10422  39.862   2.855   3.799
49057W        W10423  18.604   7.709  12.950
49058W        W10424  31.972  14.652  13.957
49059W        W10425  36.075  14.231  13.445
49060W        W10426  27.620  18.607  11.867
49061W        W10427  18.732  11.754   2.225
49062W        W10428  12.313  27.651   1.415
49063W        W10429  34.104   1.862   1.261
49064W        W10430  29.669  38.389   2.766
49065W        W10431  36.427  36.014  10.523
49066W        W10432  31.932  41.039   0.276
49067W        W10433   1.743  27.557   0.404
49068W        W10434   6.790  37.390  10.897
49069W        W10435  39.450  37.580  10.120
49070W        W10436  27.151  21.753   1.770
49071W        W10437  27.630  28.951   2.220
49072W        W10438   5.389  14.764  11.979
49073W        W10439  42.015  10.706  13.848
49074W        W10440  26.994   1.275   4.722
49075W        W10441  19.122  11.704  14.306
49076W        W10442  43.860  29.938  11.029
49077W        W10443  31.433  22.208   5.132
49078W        W10444   1.468   8.207  12.443
49079W        W10445  15.805   3.826   3.379
49080W        W10446  21.732  20.640  14.286
49081W        W10447  22.197   0.250   1.842
49082W        W10448  41.501  24.161  12.526
49083W        W10449   0.825  28.971   3.689
49084W        W10450  19.744  31.978   4.749
49085W        W10451  34.018  29.114   0.842
49086W        W10452  11.650  17.698  10.495
49087W        W10453  24.708  29.009  10.607
49088W        W10454  36.553  14.829   1.899
49089W        W10455  27.953  36.844   4.824
49090W        W10456  21.259  21.218   2.765
49091W        W10457  20.593  42.395   4.206
49092W        W10458  31.972   9.851  12.531
49093W        W10459  17.592  34.965   3.684
49094W        W10460  28.462  34.024   0.850
49095W        W10461  14.706  33.453   0.463
49096W        W10462  34.470   5.252  14.321
49097W        W10463  40.521  32.963  10.967
49098W        W10464  13.819  12.615   2.885
49099W        W10465  31.437   3.338   0.245
49100W        W10466  35.484  24.004  13.492
49101W        W10467  30.516  44.399   2.251
49102W        W10468  24.723   1.795  13.445
49103W        W10469   6.211  12.823   3.257
49104W        W10470  17.188  36.017  12.969
49105W        W10471  25.573   3.243  13.848
49106W        W10472  30.598   1.454   1.406
49107W        W10473  39.468   5.865   1.826
49108W        W10474  19.059  10.867  10.991
49109W        W10475  10.149  12.189  13.939
49110W        W10476  28.644  20.644  12.999
49111W        W10477  36.005   5.788  14.418
49112W        W10478   4.390  35.427  12.878
49113W        W10479   1.356  38.896  10.576
49114W        W10480  38.551  36.353  13.870
49115W        W10481  27.014  25.488  13.332
49116W        W10482  17.716  37.917   1.240
49117W        W10483  38.458  26.517   2.674
49118W        W10484   3.842  16.662   4.621
49119W        W10485  23.144  42.999   3.701
49120W        W10486  16.796  22.035   1.809
49121W        W10487  40.447  29.502  10.440
49122W        W10488  20.656  34.064  13.926
49123W        W10489  40.404  31.961  13.035
49124W        W10490  13.187   9.154   3.701
49125W        W10491   8.747  40.528  14.317
49126W        W10492  14.656  10.216  12.485
49127W        W10493  20.556  24.163  10.514
49128W        W10494  39.894  37.469  10.497
49129W        W10495  37.068  31.925  11.385
49130W        W10496  42.934  34.928  14.287
49131W        W10497  24.641  10.143  12.487
49132W        W10498  26.195  12.281  10.945
49133W        W10499   7.357  12.234  14.880
49134W        W10500   3.319  25.488   3.360
49135W        W10501  30.161  35.366   1.356
49136W        W10502  27.141  42.379  13.397
49137W        W10503  33.088  20.037  13.358
49138W        W10504  44.420   0.965  11.421
49139W        W10505  23.546   2.290   9.663
49140W        W10506  43.876  11.744   1.792
49141W        W10507  35.998   5.736   1.918
49142W        W10508   5.426  14.834   9.993
49143W        W10509  21.697   9.799   2.236
49144W        W10510  28.509  32.887   2.388
49145W        W10511   3.287  14.238  10.569
49146W        W10512  22.129  15.798  14.990
49147W        W10513   6.416  14.690   9.928
49148W        W10514  44.951   2.281  10.444
49149W        W10515  23.736  41.043   2.222
49150W        W10516  31.070  28.143  12.834
49151W        W10517  19.593  34.572  13.548
49152W        W10518   8.750  44.435  10.916
49153W        W10519  40.322  21.174   4.615
49154W        W10520   4.845   0.902   1.227
49155W        W10521  41.529  36.977   1.869
49156W        W10522  33.041  19.578   1.245
49157W        W10523  24.216  44.337  13.941
49158W        W10524  36.026  28.157   3.190
49159W        W10525  37.088  22.051  11.905
49160W        W10526   5.696  11.649  11.981
49161W        W10527  23.621  43.390   1.730
49162W        W10528  36.397   6.322   2.188
49163W        W10529  10.275  41.898   0.881
49164W        W10530  30.489  33.958   3.371
49165W        W10531  11.788  38.939   3.245
49166W        W10532  13.748  26.107   0.945
49167W        W10533   9.671   3.454   2.208
49168W        W10534   9.350  31.485   3.220
49169W        W10535  15.240  35.536   1.869
49170W        W10536  17.184   0.754   2.227
49171W        W10537  16.627  22.103  10.933
49172W        W10538  23.673  40.049  14.431
49173W        W10539   1.402  44.428   2.779
49174W        W10540  30.091  36.380  11.925
49175W        W10541  27.497   3.741  10.983
49176W        W10542  37.457  43.509   1.249
49177W        W10543  24.554  40.457   4.778
49178W        W10544  43.934  11.718  13.922
49179W        W10545   1.877  31.083  13.027
49180W        W10546   2.327   6.381  14.776
49181W        W10547  42.291  38.917   0.729
49182W        W10548  26.523  43.944   4.779
49183W        W10549   2.248  44.392   0.283
49184W        W10550  28.648  24.997   3.803
49185W        W10551  12.719  24.706  10.961
49186W        W10552  23.001  44.846   0.958
49187W        W10553  37.458   7.733  13.454
49188W        W10554  19.148  43.274  11.049
49189W        W10555  43.887  12.127  10.984
49190W        W10556  37.074  41.826  12.029
49191W        W10557  20.587  17.671  11.395
49192W        W10558  23.675  40.367  14.504
49193W        W10559  38.063  42.466  14.393
49194W        W10560   6.364  24.986  14.438
49195W        W10561  41.989   2.426   3.306
49196W        W10562  27.525  21.578   4.796
49197W        W10563  28.614  19.103  10.996
49198W        W10564  23.996  40.003  10.538
49199W        W10565   6.340  21.569  12.976
49200W        W10566  22.154  38.013  11.025
49201W        W10567  15.330  44.300  10.114
49202W        W10568   1.457  25.675   0.343
49203W        W10569   8.696  17.248   0.360
49204W        W10570  37.456  39.453   4.687
49205W        W10571  42.860  43.422  14.491
49206W        W10572  21.541  24.614  12.469
49207W        W10573  21.195  25.658  13.895
49208W        W10574  38.023  41.463  13.992
49209W        W10575  26.465  22.550   1.421
49210W        W10576  35.428  14.255  13.922
49211W        W10577  35.874  12.243  14.868
49212W        W10578  23.181  44.391  11.004
49213W        W10579  32.028   1.960  11.399
49214W        W10580   2.783   8.849   2.832
49215W        W10581  20.235   8.844   4.774
49216W        W10582  17.175  17.620  12.838
49217W        W10583  14.327  23.182  11.879
49218W        W10584  33.492  23.603  12.457
49219W        W10585  18.157  24.527  14.873
49220W        W10586   5.219   6.731   2.845
49221W        W10587  35.941  32.601   3.784
49222W        W10588   2.866  26.091  12.469
49223W        W10589  42.829   5.346  11.856
49224W        W10590  12.687  44.494  12.552
49225W        W10591   0.764  18.161  11.033
49226W        W10592  10.676  32.025   0.811
49227W        W10593  22.688  44.502  12.835
49228W        W10594  24.200   9.680   0.832
49229W        W10595  41.897  44.962  14.836
49230W        W10596   1.903  15.300  13.332
49231W        W10597  15.178  16.135   4.771
49232W        W10598  23.653  32.547   3.248
49233W        W10599  35.919  30.585  14.413
49234W        W10600  43.791  10.147  10.476
49235W        W10601   5.328  24.090   1.843
49236W        W10602  31.069  33.607  10.417
49237W        W10603  40.821   5.304  14.975
49238W        W10604  31.008   2.373   3.674
49239W        W10605  32.082  15.805   5.239
49240W        W10606  31.936  14.248  12.423
49241W        W10607  29.174  39.810  13.399
49242W        W10608   8.714  15.782  14.997
49243W        W10609  39.043  37.082  12.008
49244W        W10610  24.980  42.480   4.713
49245W        W10611  10.351  34.941  13.841
49246W        W10612  10.360  27.489  13.896
49247W        W10613  39.856   9.648   3.340
49248W        W10614  17.593  35.558  13.996
49249W        W10615   3.308  30.578  11.073
49250W        W10616  28.590  31.545  10.594
49251W        W10617   5.771  18.729  11.544
49252W        W10618   4.910  44.982   1.803
49253W        W10619   5.301  24.538  11.458
49254W        W10620  12.259   1.319  10.574
49255W        W10621  29.983  11.249   2.251
49256W        W10622   2.239  10.725  13.371
49257W        W10623  13.343   2.748  14.022
49258W        W10624  36.394  35.000   1.356
49259W        W10625  28.563  39.553   2.310
49260W        W10626   3.329  37.977   1.896
49261W        W10627  19.275  11.867   1.736
49262W        W10628   3.233  26.623   0.873
49263W        W10629  23.539   2.837  10.932
49264W        W10630  15.264  35.569   5.774
49265W        W10631  39.419  28.488   3.645
49266W        W10632  40.521  36.859  10.456
49267W        W10633  44.318  32.477   0.911
49268W        W10634  35.567  14.628   3.720
49269W        W10635   7.286  34.539   4.319
49270W        W10636  40.493   6.400   4.779
49271W        W10637  27.615  25.518   1.373
49272W        W10638  19.718  31.464   0.294
49273W        W10639   5.824  29.436   3.679
49274W        W10640  23.143  15.307   1.364
49275W        W10641  26.480   6.911   2.392
49276W        W10642   1.969  11.802  12.891
49277W        W10643  15.616   7.228   3.209
49278W        W10644  39.474  28.013  14.381
49279W        W10645  20.052  44.789  12.972
49280W        W10646  33.011  42.845  13.980
49281W        W10647  41.426  19.749   5.287
49282W        W10648   0.362  27.029   1.922
49283W        W10649  30.607  24.620  12.892
49284W        W10650  17.800   4.890  13.329
49285W        W10651   6.676  32.532   3.697
49286W        W10652  39.861   3.712  13.533
49287W        W10653  40.032  28.150   1.411
49288W        W10654   7.174   7.318   2.883
49289W        W10655  17.632  30.561   2.339
49290W        W10656  10.167   0.276   3.320
49291W        W10657  35.995   3.388  14.907
49292W        W10658  38.826  44.500  13.047
49293W        W10659  21.701   1.449   1.749
49294W        W10660  28.061   9.246   4.195
49295W        W10661  30.083   8.226  11.973
49296W        W10662  15.584  16.176  10.047
49297W        W10663  16.739  12.129   0.252
49298W        W10664  30.992  11.804   4.718
49299W        W10665   6.339  20.082   2.865
49300W        W10666  22.164   6.191  13.527
49301W        W10667  13.308  35.969  14.440
49302W        W10668  43.450  35.969  13.315
49303W        W10669  25.007   9.881   4.761
49304W        W10670  36.014  11.698  14.444
49305W        W10671  36.861  20.722  12.986
49306W        W10672   8.735  44.765   1.849
49307W        W10673  12.198  40.029  10.500
49308W        W10674   6.861  13.728   4.294
49309W        W10675  23.577  42.301  11.410
49310W        W10676  11.847  34.927  14.869
49311W        W10677  30.588  11.233  14.781
49312W        W10678  11.770   3.215   0.482
49313W        W10679  34.040  12.138   2.822
49314W        W10680  26.604  17.086   2.417
49315W        W10681  26.585  11.738  14.847
49316W        W10682  35.523  34.469  13.947
49317W        W10683  12.347   7.274  14.762
49318W        W10684  39.886  32.518   1.792
49319W        W10685  16.746  19.054  14.840
49320W        W10686  14.775  40.400   4.295
49321W        W10687  12.770   5.721  14.446
49322W        W10688  41.928   2.408  12.366
49323W        W10689   3.899   9.197   4.630
49324W        W10690  13.269  13.194   0.377
49325W        W10691  41.824  16.721   1.837
49326W        W10692   8.364  28.143  13.037
49327W        W10693   5.830  37.401   0.961
49328W        W10694  32.912   2.920  10.527
49329W        W10695  23.554  14.799   0.939
49330W        W10696  15.147   2.749   2.844
49331W        W10697   5.709  13.119  10.907
49332W        W10698  44.777  36.953  11.946
49333W        W10699   9.673  24.224   4.135
49334W        W10700  13.626  42.023  11.000
49335W        W10701  25.576  44.948  12.415
49336W        W10702  30.076  12.290  13.499
49337W        W10703  42.944  26.540   4.300
49338W        W10704  32.934  16.284  10.556
49339W        W10705   9.795  14.226  13.841
49340W        W10706  34.980  36.933   2.218
49341W        W10707  36.972  19.226   2.274
49342W        W10708  41.390  44.899  13.534
49343W        W10709   5.861   7.188   2.831
49344W        W10710  26.466  31.999   4.177
49345W        W10711   4.812   0.290   4.773
49346W        W10712  39.406  25.971  14.842
49347W        W10713   8.786  37.395  11.495
49348W        W10714  32.502  17.269   1.268
49349W        W10715  22.609  39.545  14.767
49350W        W10716   0.466  28.676   3.765
49351W        W10717   6.911  24.581   1.853
49352W        W10718  25.126  44.857   2.834
49353W        W10719  24.146  18.083  13.364
49354W        W10720  17.561  12.669  11.497
49355W        W10721  18.733  18.072   9.965
49356W        W10722  37.472  26.567  10.087
49357W        W10723  28.957  29.093   4.319
49358W        W10724  42.517  12.820   3.243
49359W        W10725  15.793  13.248  10.614
49360W        W10726   4.886  40.454  13.544
49361W        W10727  27.535   6.820  12.824
49362W        W10728  20.270  11.773   0.444
49363W        W10729   0.307  29.543  11.518
49364W        W10730  11.857  20.127  11.441
49365W        W10731  17.249  10.637   0.399
49366W        W10732  27.195  42.455   4.619
49367W        W10733   1.783   8.374   2.350
49368W        W10734  18.090   3.236   0.853
49369W        W10735  26.038  31.051  11.953
49370W        W10736  43.765   2.366  14.790
49371W        W10737  14.765  19.577   4.320
49372W        W10738  28.659  22.528  10.917
49373W        W10739   6.850  22.723   3.638
49374W        W10740  15.704  40.018  13.452
49375W        W10741  14.763  39.906  11.522
49376W        W10742  15.213   0.955   4.187
49377W        W10743   9.670  14.338   4.742
49378W        W10744   0.290  15.145  13.051
49379W        W10745  11.748  19.559   2.387
49380W        W10746  28.053  42.295   1.768
49381W        W10747   2.437  35.490  12.412
49382W        W10748  32.126  10.784  13.469
49383W        W10749   2.423   7.240  10.606
49384W        W10750  33.613  16.808  14.019
49385W        W10751  32.109  34.524   3.730
49386W        W10752  26.146  31.095  13.013
49387W        W10753   9.670  18.767   4.765
49388W        W10754  12.702  20.560   2.708
49389W        W10755   5.317  28.625  14.853
49390W        W10756  14.613  33.420  14.838
49391W        W10757  34.106  39.001   5.273
49392W        W10758   9.691  29.640   3.834
49393W        W10759  26.656  33.545   1.752
49394W        W10760   4.941  29.096  14.920
49395W        W10761  35.039  31.433   0.824
49396W        W10762  41.952  43.973   4.196
49397W        W10763  23.724   6.391   2.256
49398W        W10764   8.339  20.558   0.788
49399W        W10765  41.323  20.033   4.346
49400W        W10766  21.218  40.533  11.379
49401W        W10767  25.644  34.038  11.865
49402W        W10768  23.567  40.976  13.917
49403W        W10769   8.813  15.311   3.725
49404W        W10770  14.650  26.680  10.034
49405W        W10771  32.968  43.489  10.444
49406W        W10772  25.522  11.251   1.738
49407W        W10773  40.830  31.111   2.804
49408W        W10774  33.955   4.866   1.219
49409W        W10775  34.460  30.657   1.400
49410W        W10776  35.082  25.190   0.875
49411W        W10777  31.093  14.329   5.155
49412W        W10778  37.022   1.369   0.376
49413W        W10779   8.212  10.248  11.565
49414W        W10780  44.447  39.313  13.379
49415W        W10781  40.411  30.915  13.855
49416W        W10782  12.118   4.882  11.557
49417W        W10783  26.098  35.467   4.807
49418W        W10784  12.286  42.852  10.914
49419W        W10785  35.040   0.754  11.047
49420W        W10786  24.986  14.619  14.460
49421W        W10787  26.565   3.409   2.790
49422W        W10788  14.263  25.539  10.894
49423W        W10789  19.695  31.923  13.848
49424W        W10790  18.111   1.879   1.424
49425W        W10791  11.350  21.058  12.051
49426W        W10792  25.208   2.463   0.257
49427W        W10793  14.818  29.609  10.506
49428W        W10794  43.934  28.505   9.936
49429W        W10795   6.300  15.813   2.221
49430W        W10796  31.500  39.952  10.462
49431W        W10797  41.508  33.082  10.978
49432W        W10798  38.939   4.320   2.753
49433W        W10799   7.265  24.136   2.259
49434W        W10800   5.747   3.228  12.859
49435W        W10801  28.543  40.820   2.790
49436W        W10802  31.428   4.804  12.382
49437W        W10803  26.136   4.833   1.447
49438W        W10804  33.918  35.466  14.874
49439W        W10805  34.070   4.207  14.501
49440W        W10806  29.115  16.282  10.989
49441W        W10807  26.103  26.629  14.487
49442W        W10808  26.185   2.472   1.375
49443W        W10809  30.992  22.251  14.817
49444W        W10810  43.376  14.140  10.640
49445W        W10811  12.847   9.371   0.468
49446W        W10812  15.322  13.679  13.951
49447W        W10813  11.268   7.778   0.804
49448W        W10814  11.681  34.865   1.322
49449W        W10815  36.408  22.036  14.477
49450W        W10816  42.997  19.753   0.317
49451W        W10817   9.194  11.178   4.753
49452W        W10818  14.674  36.416   3.703
49453W        W10819  17.293  40.430  13.958
49454W        W10820  39.816  10.228   1.854
49455W        W10821  30.423  39.902   2.228
49456W        W10822  12.288  14.721  14.298
49457W        W10823   0.814   8.349   1.787
49458W        W10824  22.027   7.910   1.398
49459W        W10825  10.751  36.959   4.241
49460W        W10826  21.631  29.508   2.285
49461W        W10827  11.216  30.580   1.383
49462W        W10828  34.478  18.276   1.392
49463W        W10829   1.352  38.351   0.880
49464W        W10830  26.656  44.322   1.730
49465W        W10831  43.962   8.798  11.894
49466W        W10832  17.730  26.468   3.652
49467W        W10833  44.937  40.969  12.341
49468W        W10834  36.082  15.085  11.455
49469W        W10835  40.871  14.595   4.311
49470W        W10836   8.693  41.295  13.405
49471W        W10837   9.381  40.816  13.002
49472W        W10838  10.254  14.817   2.858
49473W        W10839  24.549   0.913  13.491
49474W        W10840  35.864  11.763   4.615
49475W        W10841  15.117  12.209  12.450
49476W        W10842  44.946  33.916   1.384
49477W        W10843  37.576  22.744  12.013
49478W        W10844  20.174  22.125  10.924
49479W        W10845  37.058  39.832  12.454
49480W        W10846  30.016  23.055   1.723
49481W        W10847   3.744  21.748   3.656
49482W        W10848  10.304   6.210   5.082
49483W        W10849  30.491   0.754   4.277
49484W        W10850  14.135  31.089  13.886
49485W        W10851  35.554  12.308   3.720
49486W        W10852  38.913  41.803  13.803
49487W        W10853   5.866  26.034   0.401
49488W        W10854   5.728   5.777   4.829
49489W        W10855  16.258  25.027   1.814
49490W        W10856  31.085  33.540  12.381
49491W        W10857  24.190  23.678   4.607
49492W        W10858  34.079  24.693  13.828
49493W        W10859  15.701  30.153   3.663
49494W        W10860  44.812  35.396  13.949
49495W        W10861  19.215  25.153  12.567
49496W        W10862  36.384   8.814   3.722
49497W        W10863  15.204  38.504  11.932
49498W        W10864  40.899  20.619  14.934
49499W        W10865   3.277  34.483  10.526
49500W        W10866  11.720  18.596   1.718
49501W        W10867  25.588  31.481  14.495
49502W        W10868  33.400  38.900  11.895
49503W        W10869  33.991  33.415  10.584
49504W        W10870  10.353  34.462  13.486
49505W        W10871  38.966   3.798  11.913
49506W        W10872  11.231  42.380  11.975
49507W        W10873  29.083  13.845  12.832
49508W        W10874   7.809  39.054  12.949
49509W        W10875  14.200  19.229   2.354
49510W        W10876   1.360  37.419   4.649
49511W        W10877  25.705  15.091   0.413
49512W        W10878   7.841  44.821   0.740
49513W        W10879  24.127   7.819   4.695
49514W        W10880  22.245  39.847   3.784
49515W        W10881  17.626   1.957   2.196
49516W        W10882  34.077  10.641   2.186
49517W        W10883  19.675  22.661   1.864
49518W        W10884  10.320  40.857   0.440
49519W        W10885   4.901  34.505   0.336
49520W        W10886  10.363  19.144   0.435
49521W        W10887  24.102   9.351  10.494
49522W        W10888  42.874  29.053   2.802
49523W        W10889  31.940  27.178   4.185
49524W        W10890  44.828   1.383   2.180
49525W        W10891  20.040  20.065   4.142
49526W        W10892  19.614   5.217  13.834
49527W        W10893  38.473  11.252   3.147
49528W        W10894  33.598  39.459   1.808
49529W        W10895  10.825  44.902  11.598
49530W        W10896  29.502  32.467   2.889
49531W        W10897  27.600  19.109  13.316
49532W        W10898   0.276  28.537   0.808
49533W        W10899  20.208  43.486  13.899
49534W        W10900  12.740  37.444  13.522
49535W        W10901  44.784  26.663   4.743
49536W        W10902   5.789  29.091   1.373
49537W        W10903  25.162   0.972   0.939
49538W        W10904  37.375  15.141   2.419
49539W        W10905  37.991  30.647  14.857
49540W        W10906  26.466  12.786   3.196
49541W        W10907  21.684  34.563  12.975
49542W        W10908  44.814  40.956  14.366
49543W        W10909   0.375  17.659   3.336
49544W        W10910  11.765  10.673  11.076
49545W        W10911   2.813  15.204   9.662
49546W        W10912  24.098  19.605  11.557
49547W        W10913   9.653  23.085   3.283
49548W        W10914  25.968  39.966  14.495
49549W        W10915  41.510  27.591  13.480
49550W        W10916  27.538  15.603   1.841
49551W        W10917  12.628   9.834  11.456
49552W        W10918  20.572   7.878   1.333
49553W        W10919  40.548  40.809   4.229
49554W        W10920  22.552  20.071  14.385
49555W        W10921  12.238  32.397  13.543
49556W        W10922  30.070  36.513   2.729
49557W        W10923   3.408   8.862  13.822
49558W        W10924   8.204  32.589   3.636
49559W        W10925  25.011  23.108  10.971
49560W        W10926  33.439  23.203  11.089
49561W        W10927   4.726   3.748  11.876
49562W        W10928  44.281  38.448  12.512
49563W        W10929  27.502  31.031  14.344
49564W        W10930  18.233  18.174   1.864
49565W        W10931  38.411   4.295  13.914
49566W        W10932  41.339  27.676  12.564
49567W        W10933   4.924  17.255  14.281
49568W        W10934  13.200  29.949   0.816
49569W        W10935  10.757  18.614   0.831
49570W        W10936   0.814  30.037  11.097
49571W        W10937  22.184  16.239  10.972
49572W        W10938  40.860  40.502  10.978
49573W        W10939  19.646   6.260  12.415
49574W        W10940   9.874  32.063   4.628
49575W        W10941  27.964  39.319   3.721
49576W        W10942  19.042  29.090  13.367
49577W        W10943  12.129  34.506  14.832
49578W        W10944  10.823   5.688   3.661
49579W        W10945  44.908  33.037   2.234
49580W        W10946   4.886  26.195   1.287
49581W        W10947  40.329  41.992  11.872
49582W        W10948  41.433  11.629  14.817
49583W        W10949  20.222   3.788  13.999
49584W        W10950  22.545  25.632  12.000
49585W        W10951  26.172  20.567  10.412
49586W        W10952  32.631   2.744   0.854
49587W        W10953   2.920  38.484   4.117
49588W        W10954  41.318  30.935  11.083
49589W        W10955  17.745  43.968  11.870
49590W        W10956  18.687  19.674  10.541
49591W        W10957  15.665  11.261   2.874
49592W        W10958  42.348  15.306  12.997
49593W        W10959  14.655   5.357   1.885
49594W        W10960  32.134  20.076   2.698
49595W        W10961  36.870   3.359  13.465
49596W        W10962  20.085  20.034   2.819
49597W        W10963  37.337  43.441   4.661
49598W        W10964  31.902  31.931  14.367
49599W        W10965   7.722  19.609  13.821
49600W        W10966  43.007   1.817   1.240
49601W        W10967  39.398  21.596  12.348
49602W        W10968  12.810   8.876   0.444
49603W        W10969   5.821  28.048  12.995
49604W        W10970   0.933  43.987  14.509
49605W        W10971  16.273  28.623  11.962
49606W        W10972   9.752   1.930  11.536
49607W        W10973  36.506  21.590  12.422
49608W        W10974  15.259   5.283  13.823
49609W        W10975  26.041  20.217  13.441
49610W        W10976  15.209  44.311   3.840
49611W        W10977   1.280   6.196   2.831
49612W        W10978  31.007  29.527   0.906
49613W        W10979  16.147  27.486  14.810
49614W        W10980   2.752  12.151  10.943
49615W        W10981   9.355  43.466   2.299
49616W        W10982  19.180   2.249  12.560
49617W        W10983   0.749  23.734   3.776
49618W        W10984  14.206  28.480  14.833
49619W        W10985   9.154  28.056   4.608
49620W        W10986  33.002  32.562  12.970
49621W        W10987  32.964  34.081  13.352
49622W        W10988  14.613  28.048   0.371
49623W        W10989  41.999  42.784  13.473
49624W        W10990   5.885   9.291   3.244
49625W        W10991  42.919  37.008  11.607
49626W        W10992  18.124  20.077   0.267
49627W        W10993  34.083  16.623   2.402
49628W        W10994  23.234  36.407  13.308
49629W        W10995  40.452  36.847   2.804
49630W        W10996  14.709  41.856   0.315
49631W        W10997  32.491  19.085  12.466
49632W        W10998  32.548  34.572  12.050
49633W        W10999  16.784  10.669  14.331
49634W        W11000  28.679  43.414   3.287
49635W        W11001  23.993  14.663  11.610
49636W        W11002  24.194  24.599  12.566
49637W        W11003  38.377   4.355   3.307
49638W        W11004  22.712  13.675  10.486
49639W        W11005  37.876  28.672  14.823
49640W        W11006  12.274  37.922  10.478
49641W        W11007  41.980  18.122   3.260
49642W        W11008  30.641  23.099  14.874
49643W        W11009  10.250  17.218   1.831
49644W        W11010   7.682  25.130   3.815
49645W        W11011  31.550   6.802   3.794
49646W        W11012  15.089  12.842   4.306
49647W        W11013  32.617  40.510   0.895
49648W        W11014   4.355  24.483  13.954
49649W        W11015  21.648  11.225  13.850
49650W        W11016  20.138  37.489   4.608
49651W        W11017   8.400  41.426   1.304
49652W        W11018  32.428   2.930  14.997
49653W        W11019  10.245  16.078  12.062
49654W        W11020  31.544   4.425   1.240
49655W        W11021  27.461  41.344  11.993
49656W        W11022  35.535   0.450  14.933
49657W        W11023  17.564   6.349  13.346
49658W        W11024  37.866  23.499  11.529
49659W        W11025   6.797  13.805   0.351
49660W        W11026  30.130   9.838   4.774
49661W        W11027  26.036  31.090  11.123
49662W        W11028  44.860  12.737   3.214
49663W        W11029  22.723   2.889   1.273
49664W        W11030  20.594  39.342  12.932
49665W        W11031  23.045   6.872   0.883
49666W        W11032  40.451  13.670  12.995
49667W        W11033   9.803  11.850   2.855
49668W        W11034  33.037  31.489   4.263
49669W        W11035   7.686  32.960   0.291
49670W        W11036  15.152   6.260  12.565
49671W        W11037  15.749   0.419   0.878
49672W        W11038   4.713  37.087  12.978
49673W        W11039  17.201  24.487   1.907
49674W        W11040   0.472   9.219   0.307
49675W        W11041  31.468  27.671   3.267
49676W        W11042  13.758  15.126   0.271
49677W        W11043  24.149  18.723  10.552
49678W        W11044  18.184  20.703  10.613
49679W        W11045   3.255  36.912  13.402
49680W        W11046  34.577  27.164   4.297
49681W        W11047  28.592   9.890   0.307
49682W        W11048  30.939  40.478   2.889
49683W        W11049   5.690  21.022  12.419
49684W        W11050  21.629  25.603  10.548
49685W        W11051   5.885  14.589   4.286
49686W        W11052   6.243  14.628   0.958
49687W        W11053  27.156  18.690   3.382
49688W        W11054  40.454  15.312   2.800
49689W        W11055   5.850  12.775  10.635
49690W        W11056   0.392  10.237  12.963
49691W        W11057  26.070   8.817   3.686
49692W        W11058  38.964  28.456   1.384
49693W        W11059  28.474   4.846  14.864
49694W        W11060  31.995  28.171   3.151
49695W        W11061  14.673   4.217  10.605
49696W        W11062  26.173  29.428  11.377
49697W        W11063  40.449  35.031  10.619
49698W        W11064   0.349  44.340   1.933
49699W        W11065   9.259   9.259   4.234
49700W        W11066  31.936   3.458  12.558
49701W        W11067  18.053  20.183   1.282
49702W        W11068  14.305   9.865  11.860
49703W        W11069   2.361  39.324   3.822
49704W        W11070  41.983  44.769   0.756
49705W        W11071  15.733  36.507  10.634
49706W        W11072  24.021  17.789   3.743
49707W        W11073  31.522   2.230   3.659
49708W        W11074  32.058  39.859   3.757
49709W        W11075  33.934  40.851  13.878
49710W        W11076   8.351   8.328   1.757
49711W        W11077  37.519   7.708   0.850
49712W        W11078   4.928  39.515   9.990
49713W        W11079  28.000  25.129  14.880
49714W        W11080   6.318  32.398  12.441
49715W        W11081  20.051  36.913   3.270
49716W        W11082   6.244  31.072  11.971
49717W        W11083  26.145  12.197  14.831
49718W        W11084   5.281   5.815   0.469
49719W        W11085   0.300  40.475  10.430
49720W        W11086  28.050  18.562  13.892
49721W        W11087  33.425  15.800   5.319
49722W        W11088  36.949  28.558   0.853
49723W        W11089  26.044  30.448   4.284
49724W        W11090  11.288  30.116  11.010
49725W        W11091  23.115  40.319   2.212
49726W        W11092  31.921  30.108  10.914
49727W        W11093  35.388  25.670   2.901
49728W        W11094  13.610  18.240   1.235
49729W        W11095  34.554  13.737  10.609
49730W        W11096  10.801  27.545  14.794
49731W        W11097  35.472   8.390  13.986
49732W        W11098  32.103   7.401  10.448
49733W        W11099  17.792  25.025   3.162
49734W        W11100  41.329  37.578  11.982
49735W        W11101  35.518  20.539   4.654
49736W        W11102  42.408  32.636  11.871
49737W        W11103  16.208  21.572   1.784
49738W        W11104  25.179  40.331   2.892
49739W        W11105   4.223   4.386   3.848
49740W        W11106   9.881  11.756  10.524
49741W        W11107   2.388  24.577  11.113
49742W        W11108  43.917   2.768   0.395
49743W        W11109  34.878  25.525   3.379
49744W        W11110  18.651  44.793   4.323
49745W        W11111  10.662  34.031  11.997
49746W        W11112   0.455  17.734  12.909
49747W        W11113   9.152   2.258  10.513
49748W        W11114  21.687  18.260   2.797
49749W        W11115   9.853  26.025  13.836
49750W        W11116  22.700  39.930   4.294
49751W        W11117  37.504  27.493  12.569
49752W        W11118   2.261   1.807   1.309
49753W        W11119  27.505   2.309   4.295
49754W        W11120   5.887  25.612  12.906
49755W        W11121  26.161  22.578  12.841
49756W        W11122  16.122  40.945   3.771
49757W        W11123  32.959  10.366   3.346
49758W        W11124  29.117  26.481   2.360
49759W        W11125  10.263   6.818  13.475
49760W        W11126  14.696  42.312  11.484
49761W        W11127  43.429  13.695   2.726
49762W        W11128  43.812  26.566   1.747
49763W        W11129   7.691  16.204  12.036
49764W        W11130  16.242  29.503   4.761
49765W        W11131  35.565  27.669  14.982
49766W        W11132  22.192  33.005  10.597
49767W        W11133  22.712   7.830  13.447
49768W        W11134  41.946  30.946  11.947
49769W        W11135   7.689  38.465   4.138
49770W        W11136  40.861   3.718  12.080
49771W        W11137  30.646   4.822   3.669
49772W        W11138  18.729  41.874   0.881
49773W        W11139  12.232  12.138  14.012
49774W        W11140  20.149  36.997   0.422
49775W        W11141  33.981  34.579   3.362
49776W        W11142  38.039  20.645  12.927
49777W        W11143  28.672   1.907   0.277
49778W        W11144  12.667  10.380  14.927
49779W        W11145  25.044  40.332   3.841
49780W        W11146  36.400   2.757  12.031
49781W        W11147  25.480   9.663   2.361
49782W        W11148  12.814  35.995  11.600
49783W        W11149  40.020  11.721  12.076
49784W        W11150  36.894   6.228   0.903
49785W        W11151  14.644  39.558  12.980
49786W        W11152  35.603   9.771   1.825
49787W        W11153  24.139   2.284  10.508
49788W        W11154  15.708  19.152  14.009
49789W        W11155  11.208   9.161   0.760
49790W        W11156   7.358  26.050  11.025
49791W        W11157  31.912   7.414  12.529
49792W        W11158   5.777  38.328   3.671
49793W        W11159  16.150  27.123  13.327
49794W        W11160  13.812   0.444   2.854
49795W        W11161  19.103  38.010  14.941
49796W        W11162  26.094  14.298   2.347
49797W        W11163  17.645  11.141   4.255
49798W        W11164  33.984   5.210  14.358
49799W        W11165  23.215  28.134  11.013
49800W        W11166  34.594  43.908   4.710
49801W        W11167  18.147  21.695   1.898
49802W        W11168  38.551  19.554  11.106
49803W        W11169  33.587  13.635   1.814
49804W        W11170  36.395  40.345   2.233
49805W        W11171  21.744  31.438   2.689
49806W        W11172   6.214  21.235   0.473
49807W        W11173  14.683   8.272   1.889
49808W        W11174  44.932   2.745  14.954
49809W        W11175  24.119  42.440   2.722
49810W        W11176  10.810  32.996  10.928
49811W        W11177  27.612   2.464   2.725
49812W        W11178  18.271  18.551  14.823
49813W        W11179  21.620   1.245  11.880
49814W        W11180  11.202  17.126  12.008
49815W        W11181  40.483  19.158   0.920
49816W        W11182   2.788   8.798   1.220
49817W        W11183  14.795  36.993   0.915
49818W        W11184   3.947   3.284   3.868
49819W        W11185   8.337  25.991   0.346
49820W        W11186  16.571  20.727  14.364
49821W        W11187   6.315   5.846   9.991
49822W        W11188  24.601   8.349  13.476
49823W        W11189   6.244  41.349  11.595
49824W        W11190  13.729  14.755   1.342
49825W        W11191  43.879  36.938  12.879
49826W        W11192   0.978  41.358   0.423
49827W        W11193  23.642   3.756  12.466
49828W        W11194  43.386  28.607   1.444
49829W        W11195  33.411  24.536   2.838
49830W        W11196  34.874  20.707   2.870
49831W        W11197   3.744   3.275  14.934
49832W        W11198   5.927  33.576  12.531
49833W        W11199  10.186  27.100  12.902
49834W        W11200  42.377  12.312   4.784
49835W        W11201  10.348   5.357   2.364
49836W        W11202  26.953  42.777   2.417
49837W        W11203  23.664  17.273  11.396
49838W        W11204  30.600  23.519   2.216
49839W        W11205   2.314  15.788   0.830
49840W        W11206  28.996  13.794  13.986
49841W        W11207  27.682  24.008  11.929
49842W        W11208   7.339  42.316  10.569
49843W        W11209  32.106   8.701   4.210
49844W        W11210  23.568  31.148   4.196
49845W        W11211  40.981  33.387   1.781
49846W        W11212   9.214  44.938  14.758
49847W        W11213  27.004  43.386   3.762
49848W        W11214  33.069   2.757  12.059
49849W        W11215  21.735  14.684  13.906
49850W        W11216  34.896  28.101  11.082
49851W        W11217  29.607  29.668  12.087
49852W        W11218  12.348  27.169   1.702
49853W        W11219   1.331   8.219  13.503
49854W        W11220  43.822  43.804  14.281
49855W        W11221   5.739  17.241   4.286
49856W        W11222  31.037  30.595  13.517
49857W        W11223  28.971  21.742   4.793
49858W        W11224  18.750   2.734   2.316
49859W        W11225   8.313  35.949   0.361
49860W        W11226  37.011  42.347  12.058
49861W        W11227  39.379   8.712  11.028
49862W        W11228  12.313  12.772   4.317
49863W        W11229   8.880  12.836   1.827
49864W        W11230   1.298  22.189   2.896
49865W        W11231  39.860  42.337   2.354
49866W        W11232   9.243  30.536   1.341
49867W        W11233   5.270  31.012  11.460
49868W        W11234   1.413   0.307   3.864
49869W        W11235  44.368  15.664  14.824
49870W        W11236  29.134  22.545  13.490
49871W        W11237   1.957  21.601  10.576
49872W        W11238  28.661   8.702  14.460
49873W        W11239  43.334  38.848   2.851
49874W        W11240  18.166  37.441  10.480
49875W        W11241   6.707  27.583   1.348
49876W        W11242  24.183  41.894   4.640
49877W        W11243  30.417  29.604   1.446
49878W        W11244  44.497   4.807  14.929
49879W        W11245  39.882  32.897  11.591
49880W        W11246  11.158  14.225   1.432
49881W        W11247  28.655   0.943  12.093
49882W        W11248  32.030  39.886  11.513
49883W        W11249   9.333   8.350   4.274
49884W        W11250  44.843  22.128  13.495
49885W        W11251  42.297  22.209   0.730
49886W        W11252   2.794  35.388  14.939
49887W        W11253  36.904   7.182  14.950
49888W        W11254  10.705  20.738   1.813
49889W        W11255  29.951  32.559   3.303
49890W        W11256  22.565  38.983   3.819
49891W        W11257  33.938  14.177  13.332
49892W        W11258  43.882   0.413   0.792
49893W        W11259  25.002  13.739   3.296
49894W        W11260  38.953  17.094  14.498
49895W        W11261  27.473  16.276   2.893
49896W        W11262  35.863  26.970  11.914
49897W        W11263  43.844  24.682   4.721
49898W        W11264   9.231  40.532   4.664
49899W        W11265   2.226  12.172   4.696
49900W        W11266  19.587  38.373   3.687
49901W        W11267   5.786  42.955   2.322
49902W        W11268   2.908  38.024  13.829
49903W        W11269  37.521  19.244   0.296
49904W        W11270  27.614   1.283  11.944
49905W        W11271  34.970   5.356   1.387
49906W        W11272  34.899   2.793   0.467
49907W        W11273  24.561  12.129  13.051
49908W        W11274  35.444  36.961  11.024
49909W        W11275   4.361   6.810   4.274
49910W        W11276  24.127   5.837  12.385
49911W        W11277  26.623  26.570   3.766
49912W        W11278  12.645  41.513   3.318
49913W        W11279  31.918  30.627  12.490
49914W        W11280  18.630  41.434   1.875
49915W        W11281  13.653  10.712   1.247
49916W        W11282  37.918  14.814  11.422
49917W        W11283  29.141  39.359   3.665
49918W        W11284   8.895  44.804  11.421
49919W        W11285  29.930  38.379  10.553
49920W        W11286  32.512   3.424   0.931
49921W        W11287   2.811  25.142  11.953
49922W        W11288  23.160  40.840  14.912
49923W        W11289  11.797   2.456  14.380
49924W        W11290  25.140   0.862   1.851
49925W        W11291  39.456  25.069  14.946
49926W        W11292  37.541  24.607  14.499
49927W        W11293   9.221  19.545  11.007
49928W        W11294  32.078  20.143  12.462
49929W        W11295  39.839  12.624  12.939
49930W        W11296  19.137  14.673   0.945
49931W        W11297  24.226  32.440   0.838
49932W        W11298  37.068  26.620   3.681
49933W        W11299  25.991  31.097   3.179
49934W        W11300   3.807   3.237  13.909
49935W        W11301  15.702  31.108   2.789
49936W        W11302  23.621  43.455   1.388
49937W        W11303  12.177  11.639  13.510
49938W        W11304   3.267  40.872   3.798
49939W        W11305   1.472   8.202  12.097
49940W        W11306  39.392  13.601   3.230
49941W        W11307   4.934  39.814   3.280
49942W        W11308  10.169  27.010   3.243
49943W        W11309  23.087   4.214   2.374
49944W        W11310  37.878  38.477   3.649
49945W        W11311  43.306  31.526  12.415
49946W        W11312  32.946  31.462   2.844
49947W        W11313  11.285  43.277   2.663
49948W        W11314  35.853   2.398  14.929
49949W        W11315   3.308   4.334  12.490
49950W        W11316   7.793  34.504  14.371
49951W        W11317   2.448  32.422  12.437
49952W        W11318  36.460   7.327  13.019
49953W        W11319  43.431  40.822   3.657
49954W        W11320  22.062  42.302   1.792
49955W        W11321   8.832  34.575   2.386
49956W        W11322   3.934  17.228   4.806
49957W        W11323  19.743  14.128   4.284
49958W        W11324  29.970  26.535   4.798
49959W        W11325  13.132  27.126   3.870
49960W        W11326  18.703  10.371  14.014
49961W        W11327  15.630   1.280  14.028
49962W        W11328  34.910  28.654  14.759
49963W        W11329  39.944  19.581  11.501
49964W        W11330  34.967   9.833   3.745
49965W        W11331  18.594  11.645   1.829
49966W        W11332   0.439  15.132   0.474
49967W        W11333   3.715   7.705  13.819
49968W        W11334  11.631  12.776   3.385
49969W        W11335  27.031  15.205  13.417
49970W        W11336  29.547  31.594  13.814
49971W        W11337  38.879   9.216  10.913
49972W        W11338   9.190  17.201  11.106
49973W        W11339  28.132  25.497   1.223
49974W        W11340  42.316  44.373   1.330
49975W        W11341   4.854  37.991   2.193
49976W        W11342  30.941  32.141  12.033
49977W        W11343   2.414  25.618  14.367
49978W        W11344   6.205  13.206   2.201
49979W        W11345  26.532  44.952  11.926
49980W        W11346  37.533   0.879   1.435
49981W        W11347  26.063  14.810   2.183
49982W        W11348  13.789  40.305  12.561
49983W        W11349  29.092  22.227   4.824
49984W        W11350  20.061  37.948  14.812
49985W        W11351  43.933  40.395   3.740
49986W        W11352  30.413  22.618  14.911
49987W        W11353   0.358  39.937   2.402
49988W        W11354  36.489  19.229  14.942
49989W        W11355  18.100   1.341  11.050
49990W        W11356   4.370  39.393   4.662
49991W        W11357   1.735  14.679   0.789
49992W        W11358  32.961  29.502   4.627
49993W        W11359  20.524  19.041  14.807
49994W        W11360  26.964  29.004   0.423
49995W        W11361   8.328  33.018   1.917
49996W        W11362   7.338  33.558  13.981
49997W        W11363  23.001   0.805   3.692
49998W        W11364  20.086  44.830  10.966
49999W        W11365  38.054  26.104   3.730
50000W        W11366  29.476  42.431  14.463
50001W        W11367  14.123   5.376   2.376
50002W        W11368  20.220   4.326   4.610
50003W        W11369  11.654  13.838   0.439
50004W        W11370  28.574  12.853   4.687
50005W        W11371  25.136   0.751   4.684
50006W        W11372   8.730  42.951   3.861
50007W        W11373  42.289  25.116  13.936
50008W        W11374  12.623  43.391  14.917
50009W        W11375  28.140  12.349  13.953
50010W        W11376   4.432  36.067  13.451
50011W        W11377  28.467   7.814   2.368
50012W        W11378  26.081  38.486  13.043
50013W        W11379  27.078   9.333  10.613
50014W        W11380   4.781  42.933  12.068
50015W        W11381  32.431  10.639   3.815
50016W        W11382   0.882  27.991   0.808
50017W        W11383  21.045  24.034  13.536
50018W        W11384  17.648  30.976   1.389
50019W        W11385  41.887  32.022  13.383
50020W        W11386  21.554  26.668  10.590
50021W        W11387  24.528   0.407  12.832
50022W        W11388   8.727  25.567   4.811
50023W        W11389  14.692  23.238   0.807
50024W        W11390   1.899   0.411   0.752
50025W        W11391  32.093  15.609  13.993
50026W        W11392  32.064  27.151   2.219
50027W        W11393  36.067   5.762  11.475
50028W        W11394  24.679  38.530  11.935
50029W        W11395  11.803  33.025  11.508
50030W        W11396   3.345  41.418  13.022
50031W        W11397  23.722  43.419   3.645
50032W        W11398  36.076  37.443  13.822
50033W        W11399  41.980  39.332  14.292
50034W        W11400  30.538  12.185  10.916
50035W        W11401  22.056  33.019   5.232
50036W        W11402  10.254  15.251   9.937
50037W        W11403  24.135   3.423   3.345
50038W        W11404   5.278  42.847  11.442
50039W        W11405  12.676  28.462  13.911
50040W        W11406   0.340  13.303   4.315
50041W        W11407   3.909  24.192   1.878
50042W        W11408  16.780   4.429   4.627
50043W        W11409   1.791  40.830  11.909
50044W        W11410  34.391   2.961   4.333
50045W        W11411  25.048  16.650  11.389
50046W        W11412   6.865  36.432   2.399
50047W        W11413  41.849  34.938  13.405
50048W        W11414  21.557   9.867   0.248
50049W        W11415  34.992   2.910  13.442
50050W        W11416  31.433   6.347   2.187
50051W        W11417  10.302   8.767   1.878
50052W        W11418  31.065  17.754  12.000
50053W        W11419   4.931  19.082   2.902
50054W        W11420  23.044  27.562   4.671
50055W        W11421  29.442   6.842  11.868
50056W        W11422  14.737   5.728  11.122
50057W        W11423  44.293  27.027   3.356
50058W        W11424  18.057   7.171  12.443
50059W        W11425  36.379  22.069  11.036
50060W        W11426  44.329  38.409  10.591
50061W        W11427  21.081  22.688   4.733
50062W        W11428  16.655   4.250  12.971
50063W        W11429  43.872  29.161  11.042
50064W        W11430  26.995  32.552  13.860
50065W        W11431  17.697  11.351  13.387
50066W        W11432  29.428  43.771  11.581
50067W        W11433  17.265  28.448   2.738
50068W        W11434  31.906  14.780  12.859
50069W        W11435  19.625  22.730   0.817
50070W        W11436  33.503   1.388   3.870
50071W        W11437  31.986  12.325   1.372
50072W        W11438  12.769  31.545   4.637
50073W        W11439   4.346  33.585   3.713
50074W        W11440  36.959   3.405   4.153
50075W        W11441   8.893   1.452   4.691
50076W        W11442  37.543  41.397  12.091
50077W        W11443  28.150  43.951  10.985
50078W        W11444   9.838  24.495  11.932
50079W        W11445  17.256  32.087  14.392
50080W        W11446  27.610  30.530   0.360
50081W        W11447  23.193  40.923   0.288
50082W        W11448   0.923  41.825   4.672
50083W        W11449  31.442  10.840   0.305
50084W        W11450   8.888  17.122   3.180
50085W        W11451  42.866  14.662  11.061
50086W        W11452  11.645   6.253  13.336
50087W        W11453  33.028  32.129   3.660
50088W        W11454  11.159  43.835  14.953
50089W        W11455  38.962  41.343   2.888
50090W        W11456  44.323  36.865   4.197
50091W        W11457  19.105  32.619   2.893
50092W        W11458  17.784  23.606  11.393
50093W        W11459  32.897  18.624   3.295
50094W        W11460   3.869  40.434  14.386
50095W        W11461  33.095  23.142   1.427
50096W        W11462   1.288  44.999  11.046
50097W        W11463  40.354  42.307   2.897
50098W        W11464  41.893  21.751   3.773
50099W        W11465  35.091  24.703  14.905
50100W        W11466  34.007   8.205  10.623
50101W        W11467  30.078  20.118  14.431
50102W        W11468  26.953  36.537   4.210
50103W        W11469  13.293  34.072   2.337
50104W        W11470  20.036  17.585  10.566
50105W        W11471  36.956  23.697  14.819
50106W        W11472  22.697  30.610   2.691
50107W        W11473  42.975  37.037   2.672
50108W        W11474  17.263  19.219  14.890
50109W        W11475  20.171  28.678  14.822
50110W        W11476   4.300   5.248   5.087
50111W        W11477  20.731  12.700   4.219
50112W        W11478   7.839  41.509  12.915
50113W        W11479   3.732  41.873  13.901
50114W        W11480  13.758  19.139  11.468
50115W        W11481   8.731   9.249  10.506
50116W        W11482  23.163  20.592   4.233
50117W        W11483  25.996  35.389   4.169
50118W        W11484  24.553  28.577   3.377
50119W        W11485   2.413  17.195  13.326
50120W        W11486   9.885  33.015   2.286
50121W        W11487   6.218  12.804   5.805
50122W        W11488  28.018  40.809   0.884
50123W        W11489  44.923  44.933   1.898
50124W        W11490  22.202  25.983  14.485
50125W        W11491  13.311  37.848  11.475
50126W        W11492  37.552   3.457   0.917
50127W        W11493   9.361  21.095   5.111
50128W        W11494   9.334  24.984   4.598
50129W        W11495   6.193   7.854  11.490
50130W        W11496  17.800  40.968  14.814
50131W        W11497  11.264  40.468   4.299
50132W        W11498  33.096  43.509   9.954
50133W        W11499  24.200  26.966  11.412
50134W        W11500  20.678  23.088   2.858
50135W        W11501  17.299  43.770   1.392
50136W        W11502  29.977  42.822  11.110
50137W        W11503  26.626   4.283   1.725
50138W        W11504  35.038  38.850  12.542
50139W        W11505  27.999  19.603   9.928
50140W        W11506  35.058  18.243   3.274
50141W        W11507  35.854  16.272   4.135
50142W        W11508  12.854  32.030   1.814
50143W        W11509  27.006  31.153   3.147
50144W        W11510  15.320   9.229   0.909
50145W        W11511  14.136  11.800  11.608
50146W        W11512   4.882  30.112  13.915
50147W        W11513  41.796  44.907  13.049
50148W        W11514  43.316  22.055  10.994
50149W        W11515   1.312  29.446  14.760
50150W        W11516  42.317  36.510   4.200
50151W        W11517   8.284  22.050  14.918
50152W        W11518   0.379  32.519  14.828
50153W        W11519   2.906   9.183   3.731
50154W        W11520  21.133  28.113   5.175
50155W        W11521  44.864  43.842  12.833
50156W        W11522  19.115  12.274   4.742
50157W        W11523  11.723  44.290   4.752
50158W        W11524   6.736   7.906   4.737
50159W        W11525   2.778  25.207   1.343
50160W        W11526  10.207  20.122  11.571
50161W        W11527  33.540  12.747  10.138
50162W        W11528  40.351  41.325   3.658
50163W        W11529  43.823   8.209   0.937
50164W        W11530  35.911  27.160  12.575
50165W        W11531  10.335  40.333  13.332
50166W        W11532  38.061  31.569  11.575
50167W        W11533  25.486  29.151   2.713
50168W        W11534  40.941  22.007  12.574
50169W        W11535  20.053  41.863  11.868
50170W        W11536  15.106  11.853   3.699
50171W        W11537  14.235   2.959  11.010
50172W        W11538  38.365  38.015  13.394
50173W        W11539  21.546   1.921  11.904
50174W        W11540  18.284  18.766  12.911
50175W        W11541   9.319  40.839  10.904
50176W        W11542  30.421  28.441   0.890
50177W        W11543  39.558  10.807  13.345
50178W        W11544  39.977   2.772   1.934
50179W        W11545  16.125   3.313  14.909
50180W        W11546  17.064  39.837  14.334
50181W        W11547  26.476  30.023   0.892
50182W        W11548  30.542  34.960  14.817
50183W        W11549  34.944  19.777   4.624
50184W        W11550  40.508   0.759   2.741
50185W        W11551  21.659   4.882   3.814
50186W        W11552  11.724  21.211  14.965
50187W        W11553  28.966  28.134  13.447
50188W        W11554  40.867  21.045   0.911
50189W        W11555  26.463  25.559   3.764
50190W        W11556  28.445   9.217   2.891
50191W        W11557  22.717  44.867   0.856
50192W        W11558  21.532   1.765   4.805
50193W        W11559   3.241   4.789  10.523
50194W        W11560   0.301   4.922   2.765
50195W        W11561  26.605  30.084  10.110
50196W        W11562   1.978   6.264   0.464
50197W        W11563   4.259  22.216  13.020
50198W        W11564  39.832  23.223   0.376
50199W        W11565  39.974  34.064   4.612
50200W        W11566  39.022   9.848   0.852
50201W        W11567  44.289  17.733  14.852
50202W        W11568  13.265   0.843   0.966
50203W        W11569   0.874  34.091   3.784
50204W        W11570  29.649   5.195   1.915
50205W        W11571  44.259  27.017  11.503
50206W        W11572   3.226  25.182   2.797
50207W        W11573   2.411  17.079  12.913
50208W        W11574  20.130   8.300  12.573
50209W        W11575  43.022  12.308   2.347
50210W        W11576  12.733  42.336   1.298
50211W        W11577   5.885  20.553  11.862
50212W        W11578  29.621   6.332  12.444
50213W        W11579  41.375   6.869  13.510
50214W        W11580  39.528  28.462   2.204
50215W        W11581  25.541  39.044  11.406
50216W        W11582  17.649  17.801  14.371
50217W        W11583  11.755  11.726   2.283
50218W        W11584  19.265  10.812  10.445
50219W        W11585  28.491   8.194  13.406
50220W        W11586  11.336   2.964   0.942
50221W        W11587  11.155  14.260   1.895
50222W        W11588  10.371  11.787   2.740
50223W        W11589  19.644   9.383   4.179
50224W        W11590  15.238  27.572   0.798
50225W        W11591  10.710  44.934  12.580
50226W        W11592  11.840  39.418  13.989
50227W        W11593  31.588   1.834  10.984
50228W        W11594   5.372  41.345  12.397
50229W        W11595  35.108  11.657  10.609
50230W        W11596  14.618  27.663  12.061
50231W        W11597  28.108  33.557  13.909
50232W        W11598  21.059  31.444   2.886
50233W        W11599  18.569  34.012   4.168
50234W        W11600   0.920  16.147  12.927
50235W        W11601   2.931  18.657   1.252
50236W        W11602   1.834   5.288  11.875
50237W        W11603  28.051  32.422  11.402
50238W        W11604  30.569  42.517  13.369
50239W        W11605  36.464  23.067   3.238
50240W        W11606   7.396  38.881   4.621
50241W        W11607  28.997  27.024   4.611
50242W        W11608  13.278  14.739   0.471
50243W        W11609  15.653  41.374   4.761
50244W        W11610   4.359  25.644   2.798
50245W        W11611  19.746  42.335   2.836
50246W        W11612  11.810   0.768   5.195
50247W        W11613  15.281   2.843  14.862
50248W        W11614  43.359   1.971  10.408
50249W        W11615  15.804  30.600   3.766
50250W        W11616  14.829  23.036   4.159
50251W        W11617  30.091  22.192   0.846
50252W        W11618   4.883  24.015   4.687
50253W        W11619  15.618   0.368   4.695
50254W        W11620  24.187  21.251   1.835
50255W        W11621  27.190  13.157   0.430
50256W        W11622  44.325  21.612   2.882
50257W        W11623   9.282  33.384  14.786
50258W        W11624  32.432   9.379   3.735
50259W        W11625  10.838   4.220   3.692
50260W        W11626  42.880  41.963  13.310
50261W        W11627   7.854  23.019  11.443
50262W        W11628  16.587  23.585   4.741
50263W        W11629  38.821  35.057   4.742
50264W        W11630  31.418  33.457  12.039
50265W        W11631  40.404  29.651  11.536
50266W        W11632  30.095  19.606   2.255
50267W        W11633  14.677   4.350   2.268
50268W        W11634  15.727  38.833  12.378
50269W        W11635  26.495  11.339  10.495
50270W        W11636   0.983  36.551  12.945
50271W        W11637  33.991   5.193  11.593
50272W        W11638  17.181  13.646   3.755
50273W        W11639  22.669   6.212   2.757
50274W        W11640  30.936  16.078  12.467
50275W        W11641  16.275  28.556  13.545
50276W        W11642   5.213  16.613   0.251
50277W        W11643  37.978  19.167  14.959
50278W        W11644  43.901  36.480  12.041
50279W        W11645  19.737  21.220  13.495
50280W        W11646  30.035  25.166  10.890
50281W        W11647  21.585  34.097  13.494
50282W        W11648  19.535   2.802   1.880
50283W        W11649  16.753   3.287  10.938
50284W        W11650  10.635  44.332  10.144
50285W        W11651  28.514  17.715  14.972
50286W        W11652   6.801  42.004   0.870
50287W        W11653  12.660   2.464   2.329
50288W        W11654  44.447  14.195   4.620
50289W        W11655  22.555  29.462  10.462
50290W        W11656  11.149   3.767   1.296
50291W        W11657  10.655   5.728  10.546
50292W        W11658  10.162  20.706  11.475
50293W        W11659   3.288  20.229  11.089
50294W        W11660  12.195  11.364   2.257
50295W        W11661  43.939   1.908   0.774
50296W        W11662  17.662   2.869   3.865
50297W        W11663  27.574   0.373   0.308
50298W        W11664   7.725  13.816   4.835
50299W        W11665  21.049  30.068   2.766
50300W        W11666  27.487   0.819   1.916
50301W        W11667   3.329  11.680   2.833
50302W        W11668  35.584  31.020  12.541
50303W        W11669  16.678   6.254   2.774
50304W        W11670  27.132  28.099  10.431
50305W        W11671   8.268   5.306  11.873
50306W        W11672  28.969  26.583   1.282
50307W        W11673  20.654  40.002  12.074
50308W        W11674  20.072  31.488   3.848
50309W        W11675  44.789  43.289  10.522
50310W        W11676   3.405  13.217   1.749
50311W        W11677   3.841  32.931  13.064
50312W        W11678  34.572  16.637   4.302
50313W        W11679  25.082   4.304   1.226
50314W        W11680  34.582  38.475   4.669
50315W        W11681   8.711  34.948  11.065
50316W        W11682  26.044  26.953   0.872
50317W        W11683   6.793  11.207   2.842
50318W        W11684  39.342  15.194   1.409
50319W        W11685  25.574  34.928   0.824
50320W        W11686   2.840  37.480   4.325
50321W        W11687  31.035  42.819   0.920
50322W        W11688  13.683  16.232  14.329
50323W        W11689  28.005  40.925  14.472
50324W        W11690  33.399   4.880  12.466
50325W        W11691  27.960  13.624  14.886
50326W        W11692  14.196  22.184  12.571
50327W        W11693  32.427  20.047  12.829
50328W        W11694  16.608   3.904  13.916
50329W        W11695  30.458   1.795  12.512
50330W        W11696  36.998  26.978  11.485
50331W        W11697  16.143  34.907  12.371
50332W        W11698  12.696   1.365   4.192
50333W        W11699   9.189  20.174  12.069
50334W        W11700  19.541   8.717  14.922
50335W        W11701  25.611  13.186   0.439
50336W        W11702  14.811  42.941  10.406
50337W        W11703   2.916   2.425  14.991
50338W        W11704   6.796   5.802   0.948
50339W        W11705  30.998  43.341   2.315
50340W        W11706  40.037   6.386   0.820
50341W        W11707   2.822  22.089  13.843
50342W        W11708  15.605  35.562   1.718
50343W        W11709  29.510   0.758   3.664
50344W        W11710  19.723  40.926  12.976
50345W        W11711  32.139  44.908  11.607
50346W        W11712   6.288  37.998   0.351
50347W        W11713   2.399   9.776   3.293
50348W        W11714  36.924   8.741   3.214
50349W        W11715  23.498  33.008  12.419
50350W        W11716   4.224   4.815  12.407
50351W        W11717   0.865  22.724  14.893
50352W        W11718  21.622   6.727   3.279
50353W        W11719  21.047  35.935  10.928
50354W        W11720  41.308  26.462  12.930
50355W        W11721   6.345  27.096   2.278
50356W        W11722  13.762  28.679  11.396
50357W        W11723  44.768  34.116   0.416
50358W        W11724  17.221  11.665   2.340
50359W        W11725  19.094   4.929  14.971
50360W        W11726   2.261  44.338   4.343
50361W        W11727  40.325  21.132   2.742
50362W        W11728   5.919  26.626   1.879
50363W        W11729   3.260  44.005  12.998
50364W        W11730   1.266  10.193   0.376
50365W        W11731  37.015  30.103   1.444
50366W        W11732  38.819   5.717   0.464
50367W        W11733  22.541  33.605   1.896
50368W        W11734   8.300  26.082   1.798
50369W        W11735  27.690   6.246  12.360
50370W        W11736  10.268  25.652  13.957
50371W        W11737  18.573  11.797   3.227
50372W        W11738  39.896   7.901   4.659
50373W        W11739  12.659  11.705   2.229
50374W        W11740  40.536   4.857   2.790
50375W        W11741   9.316   2.884   0.894
50376W        W11742  13.290  34.400   3.358
50377W        W11743  40.547  23.551  10.487
50378W        W11744   4.812  12.705   2.733
50379W        W11745  27.077  13.202  12.868
50380W        W11746  20.029  44.295  13.487
50381W        W11747  16.684  22.682  11.080
50382W        W11748  10.832   6.300  11.977
50383W        W11749  25.058  19.761  14.955
50384W        W11750  26.643  41.938   1.360
50385W        W11751  19.607  24.127   1.305
50386W        W11752   6.206  27.015   3.321
50387W        W11753   7.891  25.612   4.656
50388W        W11754   4.256  26.570   0.340
50389W        W11755   1.422  12.826  13.510
50390W        W11756  25.010  31.025   3.870
50391W        W11757  10.190  14.221  11.121
50392W        W11758  13.758  41.005  13.881
50393W        W11759  22.515  16.676   0.871
50394W        W11760  28.945  31.119   3.769
50395W        W11761   2.906  35.869   0.455
50396W        W11762  12.692  40.852  14.317
50397W        W11763   9.676  16.181   0.948
50398W        W11764  31.074  36.538   0.769
50399W        W11765  25.192   2.729   4.626
50400W        W11766  44.980   2.359  13.903
50401W        W11767  32.140  20.226  13.935
50402W        W11768  23.036  19.189  14.015
50403W        W11769  33.113   8.256  12.945
50404W        W11770  25.162  37.404   2.234
50405W        W11771  22.163  29.565   4.170
50406W        W11772  17.705  18.718  11.428
50407W        W11773  39.368  12.235  10.467
50408W        W11774  39.954  15.188   1.724
50409W        W11775  25.097  38.342   1.391
50410W        W11776   8.782  41.901  11.128
50411W        W11777   7.330  42.031  10.428
50412W        W11778  38.051  27.666  13.951
50413W        W11779  16.601  33.090   2.803
50414W        W11780   8.864  28.973   2.685
50415W        W11781   3.360   6.231  12.867
50416W        W11782   9.169  42.918   2.206
50417W        W11783  14.611  18.712   2.228
50418W        W11784   9.856  14.208   3.357
50419W        W11785   4.832  20.104  12.069
50420W        W11786  37.943  17.122  14.831
50421W        W11787  42.452  15.681   0.775
50422W        W11788   5.761  40.873   0.421
50423W        W11789  30.008   2.760  14.809
50424W        W11790  24.580  24.197  14.991
50425W        W11791   1.737  35.985   3.301
50426W        W11792  27.014   1.768   9.957
50427W        W11793   5.375  12.757  11.586
50428W        W11794  24.500   8.695   3.807
50429W        W11795  12.259  17.201  11.407
50430W        W11796   7.796  24.181   0.466
50431W        W11797  26.521  33.889  11.606
50432W        W11798   0.914  17.224  13.968
50433W        W11799  19.127  12.155   2.889
50434W        W11800  23.662  36.857  12.495
50435W        W11801  39.522  23.581  12.485
50436W        W11802  23.077  44.412  14.884
50437W        W11803  38.859  37.496   4.754
50438W        W11804  41.499  35.080   1.369
50439W        W11805  25.483  19.066   4.120
50440W        W11806  13.715  44.930  11.052
50441W        W11807   3.418  32.062   3.238
50442W        W11808  21.134  31.002  14.441
50443W        W11809  34.598  28.088  13.477
50444W        W11810   7.871   9.796  11.537
50445W        W11811  33.477  36.906   0.924
50446W        W11812  37.479  35.066   2.679
50447W        W11813  10.725  21.168   3.776
50448W        W11814  34.578  25.560  13.863
50449W        W11815  34.418  31.611   3.777
50450W        W11816  40.856   3.778   1.727
50451W        W11817  19.724  24.069  10.642
50452W        W11818  12.833  36.533  12.509
50453W        W11819   6.191  31.143   0.359
50454W        W11820  34.545  25.146   1.835
50455W        W11821  18.608   6.700   0.285
50456W        W11822  44.816   6.288   1.336
50457W        W11823  11.755  11.856  12.372
50458W        W11824  32.986  34.055  11.967
50459W        W11825  40.426  44.798   0.443
50460W        W11826  40.496  37.973  10.558
50461W        W11827  35.488  31.607   4.183
50462W        W11828   8.297  35.380  12.390
50463W        W11829  22.020  42.431   2.402
50464W        W11830  15.601  23.574   4.615
50465W        W11831  26.599   5.232   0.759
50466W        W11832  10.679  22.661  11.573
50467W        W11833   1.881  26.052  13.035
50468W        W11834  15.628   7.173  12.432
50469W        W11835  44.830  35.037  14.306
50470W        W11836  32.083   5.406   2.368
50471W        W11837  21.140  12.269   4.649
50472W        W11838  30.462  19.226  13.428
50473W        W11839  34.449   9.655  12.965
50474W        W11840  22.505  13.830   4.715
50475W        W11841  41.037   5.907   0.927
50476W        W11842  28.167  15.248   4.339
50477W        W11843  23.493   5.705  11.922
50478W        W11844  26.528  13.172   0.741
50479W        W11845  36.078   7.888  12.437
50480W        W11846  36.436  18.677   3.633
50481W        W11847  35.460   5.425   4.227
50482W        W11848  37.840  21.262  10.467
50483W        W11849  35.401  42.790   0.366
50484W        W11850  14.248  24.088  11.512
50485W        W11851  27.014  14.133   4.628
50486W        W11852   8.688  44.846   4.320
50487W        W11853  24.124   9.223   3.777
50488W        W11854   8.897   8.348  11.561
50489W        W11855   6.344  25.046  11.127
50490W        W11856   3.226  14.146   0.423
50491W        W11857  39.039  42.949  14.847
50492W        W11858   3.749  21.681  12.500
50493W        W11859   8.857  17.754  11.901
50494W        W11860   8.773  43.787   1.299
50495W        W11861  31.515  28.147   3.721
50496W        W11862  30.146  19.616   3.232
50497W        W11863  33.066  16.126  12.882
50498W        W11864  13.682  30.510   2.813
50499W        W11865  11.768  25.603  10.636
50500W        W11866  12.659  39.348   4.599
50501W        W11867  40.424  17.747   1.357
50502W        W11868  14.235  24.630  12.967
50503W        W11869  18.292  26.560   1.351
50504W        W11870  25.164   2.402  11.528
50505W        W11871  14.740   1.467   0.804
50506W        W11872  15.088  21.057   2.725
50507W        W11873  30.955  36.084   3.821
50508W        W11874  34.066   1.355   3.298
50509W        W11875  20.048   3.790  13.500
50510W        W11876  33.494  34.561  11.425
50511W        W11877  33.977  34.880   1.297
50512W        W11878  25.062  17.663   1.811
50513W        W11879  39.453  16.298  14.014
50514W        W11880  14.163  19.191  10.563
50515W        W11881  26.007  10.163   0.897
50516W        W11882   6.415   5.302   0.861
50517W        W11883  29.968  28.936  12.830
50518W        W11884  24.679   9.814  14.466
50519W        W11885   1.925  32.986  14.869
50520W        W11886  18.597  16.788   3.779
50521W        W11887  11.181  20.215  13.509
50522W        W11888  13.651   8.225  10.504
50523W        W11889  18.083  16.188  11.564
50524W        W11890  23.212  24.527   0.277
50525W        W11891  24.194  21.176  11.980
50526W        W11892  13.763  22.217  11.999
50527W        W11893   3.406  16.197  13.340
50528W        W11894  38.498  24.066   0.937
50529W        W11895  31.541  42.028  10.890
50530W        W11896  24.539   7.731   3.777
50531W        W11897  10.671   5.341  12.856
50532W        W11898  27.585  43.417  14.289
50533W        W11899  15.820  14.720   2.886
50534W        W11900  18.065  43.765   2.695
50535W        W11901  26.134   8.242   4.188
50536W        W11902  10.318  38.505  10.434
50537W        W11903   2.821  39.025   1.212
50538W        W11904  32.582  16.120  12.050
50539W        W11905  33.460  27.953   0.742
50540W        W11906  33.962  22.676   2.415
50541W        W11907  39.960  12.803   4.722
50542W        W11908  38.393  37.082   1.348
50543W        W11909  28.459   0.433  14.332
50544W        W11910   9.357  19.108   0.872
50545W        W11911  31.635  18.579  13.973
50546W        W11912  14.218   6.826  11.990
50547W        W11913  40.923   4.762  13.024
50548W        W11914   7.183   4.890   1.351
50549W        W11915   7.799   4.281  12.850
50550W        W11916  11.622  38.068  13.393
50551W        W11917  38.449  37.076   2.383
50552W        W11918  16.253  19.761   3.630
50553W        W11919  27.467   9.697   3.242
50554W        W11920  44.853   8.879   1.236
50555W        W11921  40.025  33.922  10.502
50556W        W11922  35.470   2.882  14.982
50557W        W11923  43.952  38.926   3.351
50558W        W11924  18.112  10.718  13.017
50559W        W11925  41.502  32.123   0.258
50560W        W11926  43.320  10.369   1.882
50561W        W11927  41.345   8.684   0.818
50562W        W11928  39.537  18.779  12.077
50563W        W11929  27.061  16.590  13.501
50564W        W11930  12.840   2.378  13.867
50565W        W11931   1.920  41.326  14.009
50566W        W11932  19.277  40.024  11.048
50567W        W11933   5.379  37.954   1.702
50568W        W11934  36.951  32.058   2.713
50569W        W11935  34.890  15.311  12.989
50570W        W11936   5.423   1.918   3.272
50571W        W11937   6.825  25.547   3.378
50572W        W11938  29.546  39.912  10.628
50573W        W11939  21.726  26.153  13.997
50574W        W11940  23.606  37.491   2.885
50575W        W11941  15.329  30.423   1.867
50576W        W11942  24.974   5.925  11.079
50577W        W11943  19.044  44.947  11.584
50578W        W11944  25.013  24.700  10.613
50579W        W11945  40.542  32.983  14.451
50580W        W11946  29.492  25.473  11.896
50581W        W11947  29.596  11.796   3.687
50582W        W11948  26.555  24.176  14.501
50583W        W11949  18.606  16.756   4.680
50584W        W11950  36.585  38.408  10.030
50585W        W11951  31.430   1.818   1.802
50586W        W11952  10.284   1.898   1.736
50587W        W11953   4.885  26.978   0.795
50588W        W11954  28.553   6.916  11.917
50589W        W11955  20.596  28.060   0.242
50590W        W11956  22.171   1.735   0.949
50591W        W11957   7.305  41.395   2.898
50592W        W11958  11.633  11.716  13.318
50593W        W11959   4.248   1.400   4.195
50594W        W11960  34.543   5.832  14.847
50595W        W11961  30.556  11.335   0.750
50596W        W11962  34.526  11.292   1.266
50597W        W11963   6.756  39.962  10.424
50598W        W11964  34.557   2.738   2.788
50599W        W11965  28.023  36.856  12.493
50600W        W11966  29.007  44.954   1.286
50601W        W11967   6.235  29.031   3.360
50602W        W11968  36.517  17.252  12.063
50603W        W11969  37.854  15.094  12.454
50604W        W11970  14.650  44.761   4.686
50605W        W11971  25.969  11.724  10.483
50606W        W11972  22.562  42.861  14.925
50607W        W11973  31.526  25.174   1.395
50608W        W11974  40.889  23.988   0.845
50609W        W11975  36.025  27.133  13.992
50610W        W11976   9.235   4.277   4.781
50611W        W11977  25.152  33.410   5.153
50612W        W11978  23.700  16.141   1.716
50613W        W11979  44.371  19.051   4.173
50614W        W11980  14.240   4.705  12.074
50615W        W11981   8.677  40.004  11.069
50616W        W11982  27.685  14.639  14.910
50617W        W11983  18.760   5.827   2.388
50618W        W11984  27.646  30.498  14.815
50619W        W11985  24.127  28.514   0.388
50620W        W11986   6.284  25.489   3.170
50621W        W11987   9.829  26.978   1.791
50622W        W11988   6.793  24.038   4.308
50623W        W11989   3.769  37.417   1.699
50624W        W11990  22.065  17.258  14.396
50625W        W11991  36.014   6.770  11.516
50626W        W11992  24.222  36.040   3.819
50627W        W11993   1.756  34.882   4.732
50628W        W11994  31.050   5.351   2.697
50629W        W11995  25.556  10.219  13.374
50630W        W11996   4.211  18.217  14.770
50631W        W11997   5.290  23.680  13.038
50632W        W11998  22.997  43.504   0.832
50633W        W11999  35.601  34.023   2.288
50634W        W12000  10.282   6.309   2.726
50635W        W12001  36.844   7.235  11.977
50636W        W12002  14.134  17.610  13.503
50637W        W12003  43.391  14.600   0.433
50638W        W12004  40.894  41.848   0.888
50639W        W12005  13.744   3.327  10.479
50640W        W12006   2.780   2.264  10.576
50641W        W12007  29.127  40.996   4.176
50642W        W12008  16.572  27.660   2.196
50643W        W12009   5.766  34.883  14.290
50644W        W12010  21.648  36.844   4.171
50645W        W12011   6.423  26.553   3.858
50646W        W12012  13.348  33.582   0.774
50647W        W12013  25.697  22.506   4.246
50648W        W12014  21.599  28.036  10.021
50649W        W12015  44.862   3.389   2.832
50650W        W12016  27.575  13.301   4.781
50651W        W12017  35.944  11.264   2.336
50652W        W12018  14.157  35.479   5.317
50653W        W12019  44.376  13.264  10.898
50654W        W12020  20.230  18.074  12.563
50655W        W12021  18.571  27.150  14.869
50656W        W12022  34.588  12.354  14.027
50657W        W12023  35.030  37.017   0.319
50658W        W12024   5.706  44.801  10.585
50659W        W12025  32.097  43.439   4.210
50660W        W12026  37.573  34.983  13.419
50661W        W12027  21.627  40.499  10.586
50662W        W12028  34.914  35.093  13.319
50663W        W12029  39.319  18.674   4.321
50664W        W12030  26.701  37.935  11.903
50665W        W12031  40.992  36.860  11.588
50666W        W12032  15.774  32.002   1.864
50667W        W12033  18.237   2.892   1.361
50668W        W12034  16.293  20.720   4.680
50669W        W12035  41.828  41.385   0.280
50670W        W12036   4.882  36.502   1.296
50671W        W12037  23.205  12.345   3.823
50672W        W12038   3.327   7.302  14.377
50673W        W12039  18.106  41.319   2.188
50674W        W12040  43.006  39.328  13.891
50675W        W12041  25.059  16.612   3.851
50676W        W12042  37.914   4.325  12.834
50677W        W12043  25.559  11.325   1.350
50678W        W12044  15.270  30.997   1.411
50679W        W12045  22.529   4.409  12.090
50680W        W12046  24.553  39.857  13.540
50681W        W12047  26.461  22.207   1.217
50682W        W12048  11.633  10.639   0.477
50683W        W12049  10.801  30.050   2.322
50684W        W12050   4.816  36.054   0.754
50685W        W12051  23.173  26.067  12.839
50686W        W12052  14.276   8.663   4.193
50687W        W12053  27.170  28.546  12.367
50688W        W12054  24.189   1.412  14.310
50689W        W12055  27.635  41.315   4.281
50690W        W12056   1.913  42.290   4.329
50691W        W12057   6.838   9.197  11.456
50692W        W12058  35.931  23.155   4.142
50693W        W12059   6.288   1.379  13.475
50694W        W12060  23.089   1.450  12.945
50695W        W12061  41.811  34.103  13.928
50696W        W12062  22.668  29.617  11.486
50697W        W12063  31.641   6.792   1.906
50698W        W12064  35.501  12.206  13.450
50699W        W12065   6.825  14.712   4.745
50700W        W12066  43.364  10.222   1.225
50701W        W12067  18.182  33.130  10.576
50702W        W12068  19.722  13.153  12.362
50703W        W12069  14.099  12.312  10.559
50704W        W12070  31.607  36.853  13.511
50705W        W12071   0.884  28.061  12.419
50706W        W12072  16.711   0.484  13.941
50707W        W12073  43.788  14.172  14.451
50708W        W12074  10.215  41.401  12.083
50709W        W12075  25.482  24.974   4.352
50710W        W12076  32.470   9.691   2.238
50711W        W12077  38.869  12.835  13.045
50712W        W12078  28.018  44.010   3.668
50713W        W12079  32.982  21.672   4.647
50714W        W12080   9.372   9.373   1.877
50715W        W12081  11.157  33.541   0.929
50716W        W12082  35.369   4.400   0.327
50717W        W12083  40.324  32.573  10.966
50718W        W12084   4.252  32.017  13.016
50719W        W12085   1.420  16.073  12.460
50720W        W12086  12.226  10.265   0.266
50721W        W12087  18.652   3.919  10.614
50722W        W12088   2.751  13.264  10.566
50723W        W12089  31.922  21.128   1.229
50724W        W12090  44.348  30.603   2.272
50725W        W12091  34.600  19.545   2.337
50726W        W12092   8.406  25.131  12.003
50727W        W12093  16.124  25.496   0.935
50728W        W12094   7.710  36.097  14.319
50729W        W12095   6.248   9.344  11.986
50730W        W12096  11.813  43.403   0.473
50731W        W12097  38.032  20.225  11.531
50732W        W12098  21.693  34.926  13.367
50733W        W12099  32.561  42.422   1.827
50734W        W12100  31.005  34.541  12.346
50735W        W12101  17.765  35.959   4.117
50736W        W12102   9.288  29.576  13.871
50737W        W12103  43.450  29.011   1.856
50738W        W12104  41.480  20.200  11.546
50739W        W12105   4.868  44.823  14.383
50740W        W12106  34.036  14.258   3.156
50741W        W12107  40.493   4.369  13.810
50742W        W12108  35.860  25.561   3.204
50743W        W12109  36.881  18.683   3.367
50744W        W12110  39.026  33.489   1.866
50745W        W12111  37.541  29.132  11.956
50746W        W12112   6.390  21.132   0.834
50747W        W12113  35.025   3.218  10.019
50748W        W12114  37.543  17.695   1.359
50749W        W12115  42.995  29.497  14.516
50750W        W12116  18.713  41.410   2.233
50751W        W12117  33.490   1.303  14.805
50752W        W12118  31.110  43.929  10.999
50753W        W12119  39.379   6.419  14.413
50754W        W12120  42.392  14.317  12.487
50755W        W12121  20.221  39.441   2.799
50756W        W12122  13.809  11.716   3.666
50757W        W12123  18.790  35.870   4.674
50758W        W12124  11.743  26.473   3.191
50759W        W12125  35.569  15.210  13.418
50760W        W12126   3.414  42.912   2.764
50761W        W12127  37.357  30.923   0.301
50762W        W12128  35.395   2.956   1.441
50763W        W12129  27.504  32.112   2.383
50764W        W12130  26.701  16.230   4.263
50765W        W12131  32.406   3.407   4.823
50766W        W12132  10.322  40.547   5.256
50767W        W12133  11.332  40.027   3.871
50768W        W12134  23.552   2.850  13.939
50769W        W12135  33.968   8.775  10.411
50770W        W12136   7.244  20.234  12.957
50771W        W12137  16.284  16.188  13.508
50772W        W12138  10.835  25.154  11.091
50773W        W12139   1.759  39.556   1.821
50774W        W12140  13.774   7.816  10.419
50775W        W12141  23.679  17.577   3.173
50776W        W12142  10.285  44.274  10.420
50777W        W12143  40.513   9.781   4.336
50778W        W12144   9.801  25.206   2.202
50779W        W12145  27.066   2.238   4.665
50780W        W12146  26.483  36.503  14.002
50781W        W12147  17.769   9.333   4.137
50782W        W12148   6.765  18.629  13.002
50783W        W12149  43.010  41.845   5.271
50784W        W12150  42.359  32.452  14.959
50785W        W12151  44.910  23.171  10.513
50786W        W12152  24.509  39.046  12.949
50787W        W12153   3.297  17.114   4.193
50788W        W12154  42.440  19.157  10.411
50789W        W12155  40.893  26.527   1.452
50790W        W12156  15.698  11.254  12.501
50791W        W12157  22.064  22.728   2.377
50792W        W12158  18.709  40.320  14.415
50793W        W12159  33.875  41.919  10.627
50794W        W12160  24.012  44.781   2.861
50795W        W12161  41.323  25.139   2.890
50796W        W12162  35.573  28.033   4.610
50797W        W12163  25.155  18.725  14.280
50798W        W12164   0.907  41.950  12.910
50799W        W12165  27.956  30.056  13.974
50800W        W12166   9.670  14.178  11.875
50801W        W12167  19.157  19.596  11.058
50802W        W12168  35.057   5.193  12.428
50803W        W12169  39.527  24.124  14.922
50804W        W12170  19.581  14.670  14.012
50805W        W12171  23.695  24.017   2.839
50806W        W12172   6.364   9.879   1.331
50807W        W12173  19.552   2.895   2.320
50808W        W12174  28.567   4.381  14.850
50809W        W12175  24.200  19.646  12.883
50810W        W12176  31.105  14.759   3.729
50811W        W12177  40.458  41.868   2.360
50812W        W12178  14.178  16.647  14.866
50813W        W12179  20.733   6.853   1.826
50814W        W12180  43.791  28.595   4.650
50815W        W12181  33.038  27.580   0.862
50816W        W12182   1.335  34.480  14.362
50817W        W12183  16.703  38.863   3.223
50818W        W12184  42.479  44.858  13.909
50819W        W12185  29.501  26.007  10.501
50820W        W12186  29.126  13.326  10.633
50821W        W12187  20.552  16.721  12.980
50822W        W12188  25.602  17.146   1.744
50823W        W12189  24.062   9.234   1.884
50824W        W12190  30.501  16.199  10.644
50825W        W12191   3.794  24.655   0.814
50826W        W12192  26.130  22.617   1.755
50827W        W12193  22.668   2.374   4.672
50828W        W12194  16.581  36.567   4.748
50829W        W12195  27.165  43.502  11.915
50830W        W12196   4.415   2.273   4.664
50831W        W12197  29.649  11.786  11.568
50832W        W12198  23.186  29.128   0.908
50833W        W12199  13.183  22.140  12.020
50834W        W12200  26.092  44.349   1.262
50835W        W12201   0.361  33.884   2.256
50836W        W12202  15.250  15.326   2.840
50837W        W12203  28.005   6.187   3.193
50838W        W12204  15.788  39.531  12.831
50839W        W12205  37.409  38.972   3.681
50840W        W12206  31.064   3.364   0.785
50841W        W12207  21.033  10.792   0.821
50842W        W12208   5.221   3.266  13.054
50843W        W12209  34.530  15.086  13.419
50844W        W12210   6.308   5.331  13.398
50845W        W12211  28.014  11.285  13.839
50846W        W12212  10.169  37.543   3.659
50847W        W12213  44.764  11.729  13.503
50848W        W12214   3.944  36.848   3.168
50849W        W12215  38.460   5.829   4.279
50850W        W12216   7.363  44.846   1.340
50851W        W12217  23.230   5.262  11.525
50852W        W12218  42.974  26.479   1.351
50853W        W12219  37.361  31.638   0.792
50854W        W12220  43.925   8.314  12.444
50855W        W12221  18.564   6.203   2.743
50856W        W12222  43.923  17.589  11.927
50857W        W12223   2.296  42.907  13.833
50858W        W12224   9.711   9.884  13.864
50859W        W12225   5.909  40.490  14.784
50860W        W12226  16.683  31.586  10.565
50861W        W12227  37.569  20.580  11.431
50862W        W12228  24.078  39.360   3.717
50863W        W12229  31.038  13.309   4.316
50864W        W12230  16.743   1.326  14.784
50865W        W12231  14.818  36.572  10.085
50866W        W12232  33.014  43.783   4.708
50867W        W12233   7.298  19.112  11.591
50868W        W12234  22.051  27.998   1.836
50869W        W12235  13.599   0.471  10.523
50870W        W12236   7.195  42.941   3.661
50871W        W12237  42.444  16.710   4.751
50872W        W12238  34.052   4.779  11.381
50873W        W12239  44.479  13.680   1.335
50874W        W12240  20.057  22.084   1.247
50875W        W12241  22.063  18.706  10.944
50876W        W12242   7.718  14.154   2.271
50877W        W12243  23.023  27.527  12.451
50878W        W12244  27.119  35.971   0.744
50879W        W12245  15.273   9.196  10.582
50880W        W12246   2.263  42.339  14.836
50881W        W12247  29.018  25.175   4.312
50882W        W12248  36.955  16.791  13.944
50883W        W12249  22.548  36.568  10.918
50884W        W12250  15.143  40.379   4.633
50885W        W12251  29.094   0.299   0.756
50886W        W12252  19.553  31.007  14.479
50887W        W12253  40.389  25.654  14.018
50888W        W12254   0.950  44.351   5.183
50889W        W12255  24.585  32.465  11.373
50890W        W12256  40.450   1.256  10.422
50891W        W12257   0.492  10.352  12.438
50892W        W12258  37.084  13.650  14.890
50893W        W12259   4.798  28.175  10.524
50894W        W12260  21.075  29.604   5.172
50895W        W12261   6.764  28.970  14.960
50896W        W12262  33.590  44.376   3.767
50897W        W12263   6.738  33.998  13.804
50898W        W12264  29.152  18.730  14.809
50899W        W12265   3.239  12.143   0.254
50900W        W12266  44.769   2.382  11.058
50901W        W12267  12.135  14.119  12.855
50902W        W12268  39.039  26.015  11.584
50903W        W12269  21.258   9.742  10.413
50904W        W12270   5.737   5.316   2.247
50905W        W12271  26.206  15.216   1.421
50906W        W12272  14.716  40.029  12.941
50907W        W12273  23.524  20.741  13.952
50908W        W12274  15.126   3.374  12.892
50909W        W12275  24.027  21.725  14.481
50910W        W12276  20.155  30.163   0.369
50911W        W12277   1.880  22.131  12.476
50912W        W12278   4.729  31.085   2.333
50913W        W12279  20.237  25.192   3.281
50914W        W12280  22.521  27.044  11.870
50915W        W12281   9.335  37.523   2.791
50916W        W12282  19.575  38.051  13.016
50917W        W12283  18.786  11.675   2.850
50918W        W12284  15.221   7.227  11.050
50919W        W12285   8.789  40.997   4.191
50920W        W12286  44.836  21.120   0.351
50921W        W12287   2.760   4.224  13.429
50922W        W12288  20.224  36.570  11.004
50923W        W12289  44.790  10.674  11.012
50924W        W12290  26.129  39.441   3.352
50925W        W12291  44.794  26.536  10.533
50926W        W12292  11.629  31.600  13.906
50927W        W12293  40.476  16.792  13.510
50928W        W12294  16.754   8.859   1.343
50929W        W12295  13.219  39.516   1.361
50930W        W12296  39.951  35.570  11.061
50931W        W12297  36.050  38.557  12.995
50932W        W12298  27.661  44.011   2.264
50933W        W12299  13.112  20.164   1.833
50934W        W12300  19.668  12.350   4.223
50935W        W12301  26.589  33.083   4.810
50936W        W12302  25.545   0.936   1.378
50937W        W12303  14.185  34.417  14.453
50938W        W12304  23.152  27.507  11.560
50939W        W12305  36.405  11.724  13.408
50940W        W12306  26.679  20.627  10.076
50941W        W12307   0.966  24.201   3.299
50942W        W12308   6.420  29.977   4.166
50943W        W12309  12.689  44.385  13.499
50944W        W12310   9.376  33.077   0.404
50945W        W12311  16.152  23.532   5.096
50946W        W12312   6.708  21.192  13.527
50947W        W12313  41.882  27.960  10.064
50948W        W12314  21.602  13.780   1.424
50949W        W12315  37.436  38.450   3.152
50950W        W12316  14.256  44.379  12.947
50951W        W12317  25.654  36.894   0.446
50952W        W12318   4.869   2.448   9.977
50953W        W12319   8.660  18.181   1.927
50954W        W12320   9.300  20.216   2.257
50955W        W12321  30.429   3.853   0.889
50956W        W12322   0.337  11.639  11.527
50957W        W12323  25.152  38.954   4.674
50958W        W12324  21.221  43.299  12.526
50959W        W12325  25.538   3.258   0.831
50960W        W12326  21.017  12.161   0.759
50961W        W12327  29.533  41.001   2.686
50962W        W12328  10.243  14.780  13.867
50963W        W12329  41.963  11.813   2.393
50964W        W12330   0.293  17.586   0.243
50965W        W12331   8.257  38.067   3.220
50966W        W12332  38.436   8.381   1.723
50967W        W12333  12.176  38.371   4.197
50968W        W12334  26.583  12.331   4.732
50969W        W12335  21.581  19.615   4.810
50970W        W12336  10.872  30.040  11.039
50971W        W12337  33.579  18.719  13.508
50972W        W12338  39.393  43.863  12.416
50973W        W12339  41.923   4.782   3.320
50974W        W12340  31.586  27.525  14.449
50975W        W12341   1.807  25.200   3.245
50976W        W12342   5.725  39.841  11.049
50977W        W12343   5.425  25.073   0.829
50978W        W12344   7.210  25.568   1.211
50979W        W12345  10.182  37.928   1.901
50980W        W12346  12.346   4.351   1.839
50981W        W12347  31.899  33.955  11.858
50982W        W12348   5.811  44.328   3.231
50983W        W12349  23.207  20.106   3.815
50984W        W12350  31.152  11.862   4.213
50985W        W12351  36.475   8.871   4.113
50986W        W12352  38.889  12.792   0.918
50987W        W12353  25.690  13.766  12.385
50988W        W12354  15.289  34.067   3.656
50989W        W12355   0.824  33.395  13.320
50990W        W12356  15.718  14.241   5.100
50991W        W12357  34.875  14.721   2.698
50992W        W12358  21.107  27.115  14.293
50993W        W12359   7.702   3.384  11.970
50994W        W12360  18.259  28.578  13.396
50995W        W12361   6.356  24.561  12.502
50996W        W12362   9.701   6.425  12.493
50997W        W12363   5.204   2.918  12.515
50998W        W12364  24.642   2.925   3.689
50999W        W12365  29.016  11.148   3.168
51000W        W12366  32.095  24.529  11.496
51001W        W12367   2.838  18.657   0.736
51002W        W12368  26.961   1.910   2.754
51003W        W12369  40.945   1.396   1.741
51004W        W12370  26.207  41.329   0.472
51005W        W12371  11.658  29.631   0.839
51006W        W12372  14.658  29.424  13.972
51007W        W12373  31.564  27.055  14.379
51008W        W12374   7.342  10.335   3.188
51009W        W12375  16.101   9.813   0.307
51010W        W12376   8.240   2.246   4.680
51011W        W12377  23.008  16.297  11.926
51012W        W12378   9.743  32.623  11.027
51013W        W12379  44.405  27.029  13.352
51014W        W12380  39.436  19.717   1.415
51015W        W12381  31.599  39.851   4.335
51016W        W12382  44.417  17.098  10.422
51017W        W12383  16.715  34.099   2.318
51018W        W12384  36.592  14.170  14.779
51019W        W12385   1.297  29.105  13.427
51020W        W12386  32.981  30.534  14.447
51021W        W12387  16.794  44.470  12.070
51022W        W12388  15.321  39.825   0.880
51023W        W12389  10.677   9.289   1.743
51024W        W12390  15.644   1.423   1.789
51025W        W12391  25.598   6.847   3.207
51026W        W12392  24.121  37.341   3.691
51027W        W12393  23.688  35.534   4.133
51028W        W12394  34.041  15.253  12.093
51029W        W12395  35.601  32.624   0.270
51030W        W12396  15.130   0.263   4.149
51031W        W12397  27.624  32.466   0.296
51032W        W12398  42.920  41.363  14.394
51033W        W12399  35.515  35.425  12.453
51034W        W12400  28.619  21.539   2.865
51035W        W12401   5.875  42.321   4.724
51036W        W12402  44.995  35.059  13.351
51037W        W12403  30.103  18.577  10.562
51038W        W12404  41.913   7.381   0.885
51039W        W12405  14.218  32.419  10.996
51040W        W12406  38.012  42.330  11.086
51041W        W12407  22.624  19.715   4.689
51042W        W12408   1.328  43.342  11.550
51043W        W12409  39.926  39.811  11.020
51044W        W12410   7.246  37.914  14.795
51045W        W12411  19.205  33.875  14.822
51046W        W12412   9.276   7.825   0.308
51047W        W12413  43.924  28.653   5.622
51048W        W12414   7.801  15.783   2.186
51049W        W12415   9.799  22.591   1.389
51050W        W12416  13.813  13.284   2.859
51051W        W12417  22.743   7.881   5.306
51052W        W12418  26.574  20.686   3.157
51053W        W12419  36.521  31.915  10.409
51054W        W12420  12.782  30.983  12.924
51055W        W12421  16.708  24.514   3.220
51056W        W12422  16.208  16.802  13.843
51057W        W12423   8.309   9.158   2.662
51058W        W12424  26.013   3.953   2.875
51059W        W12425  40.375  42.471  11.956
51060W        W12426  29.031  26.183   9.566
51061W        W12427  14.818  39.019  10.446
51062W        W12428  32.613   6.207   4.676
51063W        W12429  21.623  18.263   1.792
51064W        W12430  22.247  28.481   0.261
51065W        W12431  21.756  35.372  14.839
51066W        W12432  22.073  13.600   1.790
51067W        W12433  18.194  27.187  14.022
51068W        W12434  17.720   9.393  11.408
51069W        W12435   1.442   7.725   1.281
51070W        W12436  40.489   8.763   1.361
51071W        W12437  12.738  44.294   0.380
51072W        W12438   0.415   7.777   2.730
51073W        W12439  12.841  20.110  12.464
51074W        W12440  39.808  22.134  10.594
51075W        W12441  24.704  17.673   0.342
51076W        W12442   6.841   8.387  12.049
51077W        W12443  15.616  32.419   1.695
51078W        W12444  40.873  30.068   2.671
51079W        W12445  21.105   9.347  14.439
51080W        W12446  19.230   4.418  11.496
51081W        W12447  30.646   4.270   0.408
51082W        W12448  18.759  20.542  13.047
51083W        W12449  38.460  14.779  12.454
51084W        W12450  26.057  25.005   4.768
51085W        W12451  23.522  37.369   1.744
51086W        W12452  16.232  38.884  12.503
51087W        W12453  40.801  32.411   3.777
51088W        W12454  17.240  33.058  11.505
51089W        W12455  32.005  36.462  14.030
51090W        W12456  31.474  30.514   2.232
51091W        W12457   5.695   1.954   2.854
51092W        W12458  29.450  29.160   2.847
51093W        W12459  18.235   9.806  13.949
51094W        W12460  40.874  35.861  11.420
51095W        W12461  21.660  24.667  14.000
51096W        W12462  13.301  14.599  11.576
51097W        W12463  31.960  11.360   1.377
51098W        W12464  16.196  19.571   2.890
51099W        W12465  41.978  12.158  11.531
51100W        W12466   1.450  15.264   1.875
51101W        W12467  15.799   5.792  12.981
51102W        W12468  44.985  37.491   9.979
51103W        W12469   1.404  37.421   1.237
51104W        W12470   4.343  32.626  10.588
51105W        W12471  42.803   0.764   2.229
51106W        W12472  22.250   7.400   1.738
51107W        W12473  33.885  20.063   4.245
51108W        W12474  11.799  15.237  12.417
51109W        W12475  15.113  44.011  13.852
51110W        W12476  20.646  30.075  12.968
51111W        W12477  30.492  42.818   1.749
51112W        W12478   3.844  41.891  14.893
51113W        W12479  19.201  12.134  10.906
51114W        W12480  17.186   8.730  10.598
51115W        W12481   8.685  10.290   1.841
51116W        W12482  12.279  38.565   1.727
51117W        W12483   4.293  23.099  13.062
51118W        W12484  28.445  16.074  14.413
51119W        W12485  16.278  18.255  13.540
51120W        W12486  25.067   3.724  14.407
51121W        W12487  40.417  12.828   0.275
51122W        W12488  25.591   6.861   1.827
51123W        W12489  13.275  24.044  13.405
51124W        W12490  24.678  44.904   3.819
51125W        W12491   3.885  43.419  10.532
51126W        W12492  25.160   7.351   1.839
51127W        W12493  44.983  25.521  13.055
51128W        W12494   3.877  14.133   3.767
51129W        W12495  34.533   3.250   5.280
51130W        W12496  39.967  20.707  14.926
51131W        W12497   5.433  23.684  13.474
51132W        W12498  21.653   8.756   1.874
51133W        W12499  41.508  26.002  12.872
51134W        W12500  18.777  23.110  11.129
51135W        W12501  32.991   8.871   0.876
51136W        W12502  43.302  14.304  14.856
51137W        W12503  23.530  16.803  14.417
51138W        W12504  41.869   0.447   2.373
51139W        W12505  11.861  26.585  11.888
51140W        W12506  22.510  14.695  13.816
51141W        W12507  18.755  38.043   1.279
51142W        W12508  44.284  25.551  12.513
51143W        W12509   4.391  40.008   3.801
51144W        W12510  29.157  41.362   3.151
51145W        W12511  11.335  29.452   3.794
51146W        W12512   9.761  30.088  13.026
51147W        W12513  25.691   1.239  12.867
51148W        W12514  40.396  14.640   0.868
51149W        W12515  34.894  11.200  14.031
51150W        W12516   1.434  42.332   1.831
51151W        W12517  29.468  34.878  14.481
51152W        W12518   3.284  39.360   1.348
51153W        W12519   4.706  14.595  10.547
51154W        W12520  10.191  37.532   3.174
51155W        W12521  16.733  24.693   1.772
51156W        W12522   2.389  24.719   1.694
51157W        W12523  12.123  37.939   0.837
51158W        W12524  29.979  23.640  11.855
51159W        W12525  18.742  39.329  14.297
51160W        W12526   4.746   2.282   0.326
51161W        W12527  16.684  44.784  14.019
51162W        W12528  27.115  31.126  12.008
51163W        W12529  28.985  38.041  14.490
51164W        W12530  33.412   6.324  13.482
51165W        W12531  31.100  19.281   4.141
51166W        W12532  39.550  42.349   2.761
51167W        W12533  33.907  29.662  11.982
51168W        W12534  16.147   0.330  12.963
51169W        W12535  19.229  39.495  12.484
51170W        W12536  34.012  18.185  11.949
51171W        W12537  32.569  37.565   4.216
51172W        W12538   0.447  23.572  14.455
51173W        W12539   2.230  40.948  11.408
51174W        W12540  22.109  29.092   2.747
51175W        W12541   5.280  37.340  13.532
51176W        W12542  37.531  21.656  14.359
51177W        W12543   1.892  21.727   0.451
51178W        W12544  17.667   5.790   0.298
51179W        W12545  35.380  18.265  12.432
51180W        W12546  17.577  34.552   5.096
51181W        W12547  19.610  41.974  12.078
51182W        W12548   0.349  30.133   1.738
51183W        W12549  33.383   2.339   5.230
51184W        W12550  42.387  11.274   1.724
51185W        W12551  37.418  42.779  11.520
51186W        W12552  35.543  22.649   2.187
51187W        W12553  12.759  27.942  14.020
51188W        W12554  37.074   2.408  14.854
51189W        W12555  39.323  41.347   0.307
51190W        W12556  27.682  29.101  13.923
51191W        W12557  13.627  13.137   0.266
51192W        W12558  35.061  22.722  10.577
51193W        W12559  26.533  37.449  11.126
51194W        W12560  43.912  24.994  13.382
51195W        W12561  30.491  17.065  14.291
51196W        W12562  42.033  37.003   4.831
51197W        W12563   9.791  25.567   0.844
51198W        W12564  36.019   5.870  12.050
51199W        W12565  11.730  26.537   0.327
51200W        W12566  35.484  29.021   1.264
51201W        W12567  35.036  17.793   4.761
51202W        W12568  19.213   2.852  11.879
51203W        W12569   2.966  19.686   5.189
51204W        W12570  19.236  29.564  13.464
51205W        W12571  29.628   0.390   2.851
51206W        W12572  19.262   9.205   0.908
51207W        W12573   8.674  21.611  14.019
51208W        W12574  35.929  21.058   4.239
51209W        W12575  39.464  27.062  14.290
51210W        W12576  31.600  23.094  10.640
51211W        W12577  30.543   5.810   2.330
51212W        W12578   7.203   0.460   4.605
51213W        W12579   0.263  36.939   3.184
51214W        W12580  40.360  25.192   3.271
51215W        W12581   5.263  31.574  13.353
51216W        W12582  43.461  42.291   2.206
51217W        W12583  31.423  25.089   0.268
51218W        W12584  32.487  16.153  13.378
51219W        W12585  10.856  38.916   2.317
51220W        W12586  24.503  25.651  12.433
51221W        W12587  25.217  26.456  14.942
51222W        W12588  11.127  28.599   3.190
51223W        W12589  18.146  19.266   3.200
51224W        W12590   6.326   7.688   3.246
51225W        W12591  43.466   0.953   1.908
51226W        W12592  13.792  21.750  12.410
51227W        W12593  29.632  15.302  11.956
51228W        W12594  37.574  42.942  14.007
51229W        W12595   1.962  38.433  12.896
51230W        W12596  38.423   4.730  10.641
51231W        W12597   6.791  26.991   4.629
51232W        W12598  42.845  35.576  14.931
51233W        W12599  19.262   3.766   2.332
51234W        W12600  35.507  31.953   1.778
51235W        W12601  16.252  28.149   1.913
51236W        W12602  18.687  32.010   0.453
51237W        W12603  13.753  12.636   2.189
51238W        W12604  15.726  34.373   2.347
51239W        W12605  35.507  23.683  11.956
51240W        W12606   6.369  24.644   2.762
51241W        W12607  32.086  41.532  11.901
51242W        W12608   0.864  23.649  10.925
51243W        W12609  14.288   6.878   0.786
51244W        W12610  18.679  24.108  10.040
51245W        W12611  16.135  12.359  14.514
51246W        W12612  15.616  25.158  10.542
51247W        W12613  42.901  12.279   2.808
51248W        W12614  37.933  23.507   2.730
51249W        W12615  33.450  25.632  10.575
51250W        W12616  36.495  33.071   4.187
51251W        W12617  18.200  12.764   1.387
51252W        W12618  39.929  26.002  14.831
51253W        W12619  24.144   1.330  10.436
51254W        W12620  39.994  25.167  11.579
51255W        W12621   8.729  14.827   9.999
51256W        W12622   9.338  13.666  14.319
51257W        W12623  15.809   2.302   1.748
51258W        W12624  32.401  12.754   2.680
51259W        W12625  20.052  41.434   3.344
51260W        W12626  28.178  42.394   2.332
51261W        W12627  20.660  43.822   3.327
51262W        W12628  40.381  28.057   4.138
51263W        W12629  16.130  39.048   2.709
51264W        W12630   0.844   4.738  11.889
51265W        W12631   2.821  38.362   0.913
51266W        W12632  35.944  34.385  12.972
51267W        W12633  44.343   8.360   0.379
51268W        W12634  30.473  15.740   1.372
51269W        W12635   5.918  35.065  13.523
51270W        W12636  13.106  36.579   1.928
51271W        W12637  32.536  29.959   4.722
51272W        W12638   0.763  32.414  10.939
51273W        W12639  35.067  19.759   2.854
51274W        W12640   0.360  24.604   1.895
51275W        W12641  19.080   1.358   4.158
51276W        W12642  22.045  19.148   4.743
51277W        W12643  34.395   9.308  11.104
51278W        W12644  38.414  22.567   2.866
51279W        W12645  30.154  22.596   4.237
51280W        W12646  27.966  19.149  10.463
51281W        W12647  27.101  44.432  12.858
51282W        W12648   9.722  20.271  11.110
51283W        W12649  44.328  32.410  12.962
51284W        W12650  39.941  15.326   1.230
51285W        W12651   9.168  17.734   3.326
51286W        W12652  23.508  15.134   1.734
51287W        W12653  33.016  38.015   0.837
51288W        W12654  19.765  21.148  11.469
51289W        W12655  34.919   1.284   4.171
51290W        W12656  34.947  33.414  11.496
51291W        W12657  39.811  36.407   0.885
51292W        W12658  43.992  29.509  11.482
51293W        W12659  42.476   9.261  12.029
51294W        W12660  25.217   8.374  13.421
51295W        W12661  41.975  29.086   1.872
51296W        W12662  36.527  41.944  14.357
51297W        W12663  21.184  13.278   4.127
51298W        W12664  21.067  39.868   3.337
51299W        W12665  14.276  34.967  10.005
51300W        W12666  39.867  43.843   2.668
51301W        W12667   2.404  10.263   3.633
51302W        W12668  23.692  32.465  11.544
51303W        W12669  23.109  34.090  12.484
51304W        W12670  43.781   2.721  11.397
51305W        W12671  19.688  27.156  14.362
51306W        W12672   0.318  24.027   1.234
51307W        W12673  41.817  13.751   1.399
51308W        W12674  42.956   3.809  12.989
51309W        W12675  26.481  40.369   2.690
51310W        W12676   4.785  16.579  12.077
51311W        W12677  26.087  39.418  13.319
51312W        W12678  13.638   9.356   0.454
51313W        W12679  42.921  24.565  12.401
51314W        W12680  32.051  37.511  12.882
51315W        W12681   9.667  14.662   1.275
51316W        W12682  18.602  11.733   4.282
51317W        W12683  10.151  35.500  13.975
51318W        W12684  21.654  26.100   0.802
51319W        W12685  18.088   4.715  14.288
51320W        W12686  30.017  11.672   0.440
51321W        W12687  17.648  10.317  10.628
51322W        W12688  23.113  28.022  14.969
51323W        W12689  30.426   5.897  13.361
51324W        W12690   4.908  31.100   9.628
51325W        W12691  38.920  39.060   4.813
51326W        W12692  19.188  32.602  14.302
51327W        W12693  27.610  32.486  11.976
51328W        W12694   2.940   3.248  11.910
51329W        W12695  35.405  25.102   0.733
51330W        W12696   6.428  21.099  12.563
51331W        W12697  32.998  26.024   0.351
51332W        W12698   3.218   6.797   0.935
51333W        W12699  14.784   3.947   0.276
51334W        W12700   4.314  17.759  13.432
51335W        W12701  20.092  21.593  14.886
51336W        W12702  22.180   4.700   2.745
51337W        W12703  35.480   5.379  10.441
51338W        W12704  27.117  42.912   4.304
51339W        W12705  10.732  38.038  13.837
51340W        W12706  43.284   7.752  14.276
51341W        W12707  19.588  11.788  14.426
51342W        W12708  42.974  14.209   1.277
51343W        W12709  31.001  38.898  10.026
51344W        W12710  19.245  20.134  12.553
51345W        W12711  20.696  41.846   2.893
51346W        W12712   5.246  12.343  13.815
51347W        W12713  33.119  35.472  13.382
51348W        W12714  27.675  25.493  13.471
51349W        W12715  31.401  37.483   0.747
51350W        W12716  41.362  29.514   2.862
51351W        W12717  17.236  28.449  11.597
51352W        W12718  11.755  37.370  10.032
51353W        W12719  16.258  17.301   1.257
51354W        W12720  18.252  25.637   1.734
51355W        W12721  27.496  32.538  13.440
51356W        W12722  12.249  15.690  14.351
51357W        W12723  10.709  35.498   4.655
51358W        W12724  15.583  31.907   2.323
51359W        W12725   0.248  27.074   0.286
51360W        W12726  16.120  35.484  10.951
51361W        W12727  15.664  29.509  13.506
51362W        W12728  13.280   1.248   3.359
51363W        W12729  33.911  11.254   0.323
51364W        W12730  37.026   0.844   0.816
51365W        W12731  24.986  24.686  13.534
51366W        W12732  21.205  41.839   2.416
51367W        W12733  23.675  13.747   1.789
51368W        W12734  23.699  18.113   4.213
51369W        W12735   9.262  40.434  13.027
51370W        W12736   7.387  32.412   2.251
51371W        W12737  44.343  16.157  11.437
51372W        W12738  22.652  20.762   1.751
51373W        W12739  18.236  14.617  10.637
51374W        W12740  30.478   9.800  14.009
51375W        W12741  37.031  19.757   0.869
51376W        W12742  35.367  38.856   2.870
51377W        W12743  40.864  31.078  13.886
51378W        W12744  12.852  16.245   3.697
51379W        W12745  38.412  10.780   1.350
51380W        W12746  33.067   6.335  14.839
51381W        W12747   3.923  39.462   0.932
51382W        W12748  26.571   9.285  12.975
51383W        W12749  25.636  34.502  13.461
51384W        W12750  15.630   1.790   1.825
51385W        W12751   2.467   3.931   1.897
51386W        W12752   4.768  32.085   2.681
51387W        W12753  28.634  19.064   0.391
51388W        W12754  36.983  29.628  12.951
51389W        W12755  31.936  22.653   3.743
51390W        W12756  12.713   2.329   3.276
51391W        W12757  42.350  10.294  13.505
51392W        W12758  26.039  13.620   0.307
51393W        W12759   5.880   4.234   1.255
51394W        W12760  11.767  25.150   0.871
51395W        W12761  13.252   9.725   2.880
51396W        W12762  21.141   9.359   3.734
51397W        W12763   5.343  25.180   2.318
51398W        W12764  30.540  24.109   2.696
51399W        W12765  38.904  18.621  10.584
51400W        W12766   4.363  10.742  11.412
51401W        W12767  29.562  29.505  11.526
51402W        W12768   9.856   5.701   4.345
51403W        W12769  25.615   7.257   1.839
51404W        W12770   8.847  38.004  12.442
51405W        W12771   6.712   9.238  11.875
51406W        W12772  37.912  12.852   0.910
51407W        W12773  17.663   3.423  12.908
51408W        W12774  21.029   0.405  14.910
51409W        W12775  12.653  36.998   3.218
51410W        W12776   7.695  26.681   9.991
51411W        W12777   6.287   7.901  14.762
51412W        W12778   2.304  21.653   1.242
51413W        W12779   6.777  37.884   3.344
51414W        W12780  42.434  24.725  13.000
51415W        W12781  44.824  32.901   3.667
51416W        W12782  27.967  12.129  13.433
51417W        W12783  33.099   3.810   3.758
51418W        W12784   9.240  12.312  14.438
51419W        W12785  25.193  11.179  13.424
51420W        W12786  38.436   6.679   2.294
51421W        W12787  43.995  30.437  14.954
51422W        W12788  42.958  13.162  12.937
51423W        W12789  20.702  11.670  12.000
51424W        W12790  37.043  29.167  10.555
51425W        W12791  42.789  33.380   2.709
51426W        W12792  36.898  33.531  12.530
51427W        W12793   2.903  36.554  10.988
51428W        W12794  12.253   7.354   2.699
51429W        W12795  18.141   8.738   0.423
51430W        W12796   2.268  31.409  13.331
51431W        W12797  36.864  18.159  14.368
51432W        W12798  22.537  33.011   3.365
51433W        W12799  30.105  22.016  14.965
51434W        W12800  37.852  30.450   0.423
51435W        W12801  16.787  34.881   1.930
51436W        W12802   6.360  13.326  11.608
51437W        W12803  27.974  18.257  14.921
51438W        W12804  21.614   9.384   2.399
51439W        W12805  24.980  12.160  14.810
51440W        W12806   1.289  43.313   1.884
51441W        W12807  21.147  32.598  13.351
51442W        W12808   9.683  31.016   2.792
51443W        W12809  19.726  23.166  13.875
51444W        W12810   2.894  12.187   2.358
51445W        W12811  26.016  23.048  14.787
51446W        W12812  25.003  23.500   2.408
51447W        W12813   7.292  12.343  12.840
51448W        W12814  25.496  44.841  10.600
51449W        W12815  41.853  21.183   2.741
51450W        W12816   9.357  30.617  13.432
51451W        W12817  19.682  26.539   4.652
51452W        W12818  39.867  31.112  13.027
51453W        W12819   0.381  14.685   1.841
51454W        W12820  20.136  16.207  14.507
51455W        W12821  39.547  22.057   4.121
51456W        W12822  22.246  22.093   1.795
51457W        W12823  21.194  27.571  10.113
51458W        W12824   8.257   2.901  11.453
51459W        W12825  23.207  28.528  10.420
51460W        W12826  31.972  39.978  13.426
51461W        W12827  30.446  25.631  10.923
51462W        W12828  44.969  22.671  13.362
51463W        W12829  15.748  10.743  13.002
51464W        W12830  31.458   0.835   3.663
51465W        W12831   2.795   3.305  11.405
51466W        W12832  43.333  36.519   1.701
51467W        W12833  28.152  37.924  14.480
51468W        W12834  19.756  27.065  10.612
51469W        W12835  26.031  44.277  10.444
51470W        W12836  10.709  36.416   3.744
51471W        W12837  29.168  21.180   0.301
51472W        W12838  19.215  40.798  11.873
51473W        W12839   0.905   2.767  14.298
51474W        W12840  17.706  37.389  14.454
51475W        W12841  44.857  34.918   4.701
51476W        W12842  28.951   4.842   3.685
51477W        W12843   2.357  41.955  11.990
51478W        W12844  40.413  10.168  14.507
51479W        W12845  37.535   8.193  12.504
51480W        W12846  16.785  39.419   1.884
51481W        W12847  38.544  16.755   4.236
51482W        W12848  21.678   7.176   1.725
51483W        W12849  32.020  11.682  12.392
51484W        W12850  42.979   7.328  14.318
51485W        W12851  25.094  35.462  14.821
51486W        W12852  42.366   8.796  14.880
51487W        W12853  22.528  21.026  12.568
51488W        W12854  42.911  24.147   5.306
51489W        W12855  20.041  20.132   0.766
51490W        W12856  39.971   0.922  11.581
51491W        W12857  43.851   6.841  12.856
51492W        W12858  34.524   2.834   3.276
51493W        W12859  20.060  24.711  12.547
51494W        W12860   5.375  18.637   4.155
51495W        W12861   5.358  19.087   4.323
51496W        W12862  12.793  31.945   0.282
51497W        W12863  26.695  24.600   0.963
51498W        W12864  15.678  35.444  11.375
51499W        W12865  34.055  26.488   0.360
51500W        W12866  16.636  10.333  13.452
51501W        W12867   2.811  16.789  13.928
51502W        W12868  42.936  16.290  12.066
51503W        W12869  38.479  15.797  14.322
51504W        W12870  19.751   9.258  11.995
51505W        W12871  15.263  43.002   0.353
51506W        W12872  32.535   4.942   2.700
51507W        W12873  43.803  35.499   3.384
51508W        W12874  28.659   5.362  13.484
51509W        W12875  19.755  10.821  13.913
51510W        W12876   1.262  15.711  11.935
51511W        W12877   4.381  30.553   1.413
51512W        W12878  26.521   9.173  14.956
51513W        W12879   5.235  21.552   4.746
51514W        W12880  19.668  21.093   3.858
51515W        W12881   5.353   8.819  10.589
51516W        W12882  16.097  44.796   2.206
51517W        W12883  39.043   8.829  14.279
51518W        W12884  38.965  41.813   0.471
51519W        W12885   4.723  25.493  10.999
51520W        W12886  27.047  19.093   3.253
51521W        W12887  42.841  22.633   2.374
51522W        W12888  28.147  34.521  10.058
51523W        W12889  35.386  43.404  13.857
51524W        W12890  28.567  42.798   0.289
51525W        W12891   3.297  12.700   3.787
51526W        W12892  34.590   7.316   0.248
51527W        W12893  37.519  34.883   5.246
51528W        W12894  15.752  28.976   3.829
51529W        W12895  30.969  14.605  12.515
51530W        W12896  29.485  16.783  12.967
51531W        W12897  24.700  20.745  14.916
51532W        W12898  26.545  44.493   0.810
51533W        W12899  15.211  32.021   4.290
51534W        W12900  15.227  24.214  11.116
51535W        W12901   0.935  42.902   0.370
51536W        W12902  17.289  44.944  13.859
51537W        W12903  43.361  20.259  10.506
51538W        W12904  14.290  33.993  14.346
51539W        W12905  35.578  16.302  12.881
51540W        W12906  29.633  30.127   1.221
51541W        W12907  24.199  32.527  10.046
51542W        W12908  18.776  32.510  11.922
51543W        W12909  29.986  12.707  10.645
51544W        W12910  32.088  41.407  14.807
51545W        W12911  28.518  25.664  13.806
51546W        W12912   0.816  11.282   3.725
51547W        W12913  44.815  22.179   3.292
51548W        W12914  39.829   0.822  13.400
51549W        W12915  27.012  40.349  13.473
51550W        W12916  30.440  28.508   4.140
51551W        W12917  20.215  25.678  13.824
51552W        W12918  37.356  30.562   2.730
51553W        W12919  20.269  26.971   0.272
51554W        W12920  19.169  43.874  12.966
51555W        W12921  16.182   1.398  10.540
51556W        W12922   5.804   1.441   2.664
51557W        W12923  35.575  30.523   2.255
51558W        W12924  33.413  23.089  13.334
51559W        W12925  22.100   0.436   3.262
51560W        W12926   1.961  29.142   0.435
51561W        W12927  42.285   7.207  12.373
51562W        W12928  13.144  30.127  13.314
51563W        W12929  27.003   6.305  12.012
51564W        W12930   7.332  21.579   0.476
51565W        W12931   4.852  21.702  12.849
51566W        W12932  31.490   6.901  13.848
51567W        W12933   6.376  32.038   4.755
51568W        W12934  38.378  30.414  10.931
51569W        W12935  34.461  25.497   3.693
51570W        W12936   7.399  43.811   4.127
51571W        W12937  10.161   1.308  12.012
51572W        W12938  25.471  10.671   1.885
51573W        W12939   2.330  16.692  12.875
51574W        W12940   7.892  23.552   0.343
51575W        W12941  22.602  10.804  11.550
51576W        W12942  41.509  23.541   0.282
51577W        W12943  26.981  24.175   1.697
51578W        W12944  27.679  13.280  11.971
51579W        W12945  12.356  32.533   5.154
51580W        W12946   1.347  40.517  14.480
51581W        W12947  35.069   6.886   2.360
51582W        W12948  25.604  32.009   3.727
51583W        W12949  37.458  33.952   2.800
51584W        W12950  22.009   1.779  14.311
51585W        W12951  39.515  44.414  10.403
51586W        W12952   6.243  26.985   0.842
51587W        W12953   9.244  17.744  10.059
51588W        W12954  20.654  40.397   1.701
51589W        W12955  41.422  38.820  14.767
51590W        W12956  20.643  35.100  12.848
51591W        W12957  19.706  41.342  12.384
51592W        W12958   7.846  34.534   3.679
51593W        W12959  11.784  41.303  12.020
51594W        W12960  34.009  38.950  10.482
51595W        W12961  11.771  23.624   3.801
51596W        W12962   3.802   6.768  14.408
51597W        W12963   6.371   1.966   0.932
51598W        W12964  29.145   0.412   2.864
51599W        W12965  11.267  19.666   3.656
51600W        W12966  24.541  40.414   0.817
51601W        W12967  28.529  35.882  13.914
51602W        W12968  44.355   9.780   4.142
51603W        W12969  16.221  36.931  10.570
51604W        W12970  36.920  43.937   3.715
51605W        W12971   4.349  28.516   1.276
51606W        W12972  14.663  30.936  11.604
51607W        W12973  41.384  15.673   1.344
51608W        W12974  24.090  27.500   3.332
51609W        W12975  37.502  33.972  11.054
51610W        W12976   6.905  26.184   3.366
51611W        W12977  10.683  23.127  13.503
51612W        W12978   6.825  39.858   1.307
51613W        W12979  23.114  31.067  13.932
51614W        W12980  25.090  31.428   2.274
51615W        W12981   1.805  14.811   0.453
51616W        W12982  14.766  33.121  11.555
51617W        W12983   2.740   2.944   0.906
51618W        W12984  10.799  41.870   3.660
51619W        W12985  36.470  41.897   3.668
51620W        W12986  19.060  32.042  11.441
51621W        W12987   6.338   3.816  13.862
51622W        W12988   4.725   1.900   4.759
51623W        W12989  19.262  41.892   1.249
51624W        W12990  10.219  10.784  10.417
51625W        W12991   9.866   0.800   1.234
51626W        W12992  44.004  34.035   2.719
51627W        W12993  37.835  11.623   4.791
51628W        W12994   2.464   4.366  13.440
51629W        W12995  24.189  41.853   2.776
51630W        W12996  30.561  44.946  10.637
51631W        W12997   3.731  44.297   1.878
51632W        W12998  21.550  21.591   0.754
51633W        W12999  29.962  27.605   2.313
51634W        W13000   3.221  14.147   2.714
51635W        W13001  31.045  34.438   5.167
51636W        W13002   2.314  43.442   2.358
51637W        W13003  12.836  41.837   1.386
51638W        W13004  29.575  19.232  12.880
51639W        W13005  43.348   4.712   0.847
51640W        W13006  17.714  11.303  11.590
51641W        W13007  39.919  31.118   0.484
51642W        W13008  30.563  18.656  12.528
51643W        W13009  22.713  31.027   2.191
51644W        W13010  31.995  40.442  10.041
51645W        W13011  34.078  25.207   2.286
51646W        W13012   8.800  15.728   4.675
51647W        W13013  29.657  33.453   3.168
51648W        W13014  11.161  25.134   4.147
51649W        W13015  26.601  10.780   0.384
51650W        W13016  10.231  19.626   0.911
51651W        W13017  23.039  44.483   0.483
51652W        W13018  29.439   5.750   4.335
51653W        W13019   1.910  39.367   2.391
51654W        W13020   4.375  43.437   0.295
51655W        W13021  39.421  29.039   4.827
51656W        W13022  36.506   3.348  11.543
51657W        W13023  21.082  40.914  10.612
51658W        W13024  44.763  39.038  14.029
51659W        W13025  38.538  36.571  13.484
51660W        W13026  30.437  14.793   0.943
51661W        W13027  28.561  28.174   9.584
51662W        W13028  29.500   4.741  10.946
51663W        W13029  23.537  13.824   3.267
51664W        W13030   5.725   2.725   3.639
51665W        W13031  37.017  35.564   3.840
51666W        W13032   8.844  11.788   1.824
51667W        W13033  31.129  43.976   1.854
51668W        W13034  30.595   2.258  13.802
51669W        W13035  21.665  43.854   4.233
51670W        W13036  12.261  22.057   2.340
51671W        W13037  24.034  20.037  12.833
51672W        W13038  11.744   8.819   0.761
51673W        W13039  15.118  42.845   2.668
51674W        W13040  43.870  27.123  12.909
51675W        W13041   6.388   2.803  12.067
51676W        W13042  39.917  10.826  13.459
51677W        W13043   1.915  33.453   3.185
51678W        W13044   6.742  13.650   0.814
51679W        W13045   3.230  31.510  12.950
51680W        W13046  16.120  36.081   4.153
51681W        W13047   5.383  36.412   3.252
51682W        W13048  29.493   4.807   3.670
51683W        W13049  18.570  43.981   2.315
51684W        W13050  12.245  39.936  13.896
51685W        W13051  10.283  22.628  12.405
51686W        W13052  43.898  42.344   0.791
51687W        W13053  16.795  34.921   1.219
51688W        W13054  27.197  11.623   0.344
51689W        W13055  30.427  24.700   1.326
51690W        W13056  27.186   1.870   0.884
51691W        W13057  10.717  18.709  13.403
51692W        W13058   3.388  38.511   1.731
51693W        W13059  10.739  35.565  14.019
51694W        W13060  43.847   2.833   3.286
51695W        W13061  25.971   4.288  12.952
51696W        W13062  37.582  29.092   0.738
51697W        W13063  23.032  25.637   0.836
51698W        W13064  33.452  24.544  11.375
51699W        W13065  42.511  42.926   2.712
51700W        W13066  21.217  16.629   1.749
51701W        W13067  39.970  35.012   2.237
51702W        W13068  43.451  41.973  13.984
51703W        W13069  17.672  24.219   4.619
51704W        W13070  24.640  18.691   3.153
51705W        W13071  20.037  24.496   4.304
51706W        W13072   8.856  26.482  13.917
51707W        W13073   7.206  25.606  10.465
51708W        W13074  28.464   3.733   4.684
51709W        W13075  11.355  29.569   2.208
51710W        W13076   7.236  29.136  13.863
51711W        W13077  34.395  44.473  11.909
51712W        W13078   7.780  30.065   1.269
51713W        W13079   8.364  41.844  10.963
51714W        W13080  21.026  11.347  11.402
51715W        W13081  32.404  44.472   9.980
51716W        W13082  21.178  10.204   4.746
51717W        W13083  17.135  38.832   5.214
51718W        W13084  21.199   7.792   0.408
51719W        W13085  26.009  31.911  14.929
51720W        W13086   0.908  15.321   3.356
51721W        W13087  29.513  39.041   2.216
51722W        W13088  12.352  21.164   2.408
51723W        W13089  33.425  42.871   3.761
51724W        W13090  42.906  42.506  14.492
51725W        W13091  21.118  10.841   4.170
51726W        W13092  32.001  36.501   2.703
51727W        W13093   6.782  36.519   4.738
51728W        W13094  38.484   8.708   2.835
51729W        W13095  14.728   1.835  11.915
51730W        W13096   9.359  37.580  10.967
51731W        W13097  37.481  23.235  11.607
51732W        W13098  44.857  31.473  14.942
51733W        W13099  35.110  30.493   4.631
51734W        W13100  34.613  34.369  14.481
51735W        W13101   2.356  35.387   4.180
51736W        W13102   7.177  18.606   2.360
51737W        W13103  41.033  22.248   1.874
51738W        W13104   8.751  27.613   2.413
51739W        W13105  31.552  25.633   4.665
51740W        W13106  31.634  19.238   1.264
51741W        W13107  35.888  25.183   1.250
51742W        W13108   3.243  44.493  11.612
51743W        W13109   0.352  16.723   1.436
51744W        W13110  16.098   0.295   3.710
51745W        W13111   3.307   2.363   2.884
51746W        W13112  23.228   6.856  14.294
51747W        W13113  17.761  40.020   4.689
51748W        W13114  12.719  38.825  11.008
51749W        W13115  28.518  25.090   4.343
51750W        W13116  11.767  42.025  13.799
51751W        W13117   7.236   9.228  13.837
51752W        W13118  38.538  44.756  14.800
51753W        W13119  22.141   1.806  13.874
51754W        W13120  19.574  16.098  11.977
51755W        W13121   6.755  44.390   4.662
51756W        W13122  25.101  30.092   3.870
51757W        W13123  32.393  40.835   0.290
51758W        W13124  19.628  32.455  10.020
51759W        W13125  33.132   6.716  10.558
51760W        W13126  14.813  44.433   9.922
51761W        W13127  27.965   5.921   9.984
51762W        W13128  21.086   2.333   3.777
51763W        W13129  11.842  27.531   0.314
51764W        W13130  35.558  12.745   2.399
51765W        W13131   5.793  20.223   2.327
51766W        W13132  21.120  40.310   1.404
51767W        W13133  40.815  32.051   0.870
51768W        W13134  27.194  21.589   3.746
51769W        W13135  30.452   4.750   4.693
51770W        W13136  35.005  38.889   3.693
51771W        W13137  12.254  35.065   3.162
51772W        W13138  15.742  29.045  10.405
51773W        W13139  17.666  20.588   1.907
51774W        W13140   3.253  23.693  13.451
51775W        W13141  21.594   7.881  12.408
51776W        W13142  44.985  30.972   2.836
51777W        W13143  42.994  28.474  11.601
51778W        W13144  16.798  13.726  13.846
51779W        W13145  39.349  24.022  14.425
51780W        W13146  15.131  28.064   1.706
51781W        W13147  11.859  14.705  14.464
51782W        W13148  32.976  19.051  14.489
51783W        W13149  11.691  19.218   2.745
51784W        W13150  32.461   2.291   0.761
51785W        W13151  30.936  14.103  14.508
51786W        W13152  25.103  25.977  12.572
51787W        W13153  33.107  39.434   5.169
51788W        W13154  37.461  23.118   1.921
51789W        W13155  42.351  41.370   3.775
51790W        W13156  19.128   6.271   3.760
51791W        W13157   5.795  17.302  10.106
51792W        W13158  39.431  12.191   1.863
51793W        W13159  29.649  44.843  11.425
51794W        W13160  13.325  44.957   2.301
51795W        W13161  24.516  39.016   1.343
51796W        W13162   4.746   0.959  11.425
51797W        W13163  24.499  37.574  14.374
51798W        W13164  44.846  16.605  10.587
51799W        W13165  23.155  27.181   4.601
51800W        W13166  30.053   5.719   2.877
51801W        W13167   3.863  37.904   3.272
51802W        W13168  25.985  13.678  12.536
51803W        W13169  35.462  17.279  10.525
51804W        W13170  31.000  41.294   1.218
51805W        W13171  26.561  39.399  12.526
51806W        W13172  18.619  31.071  13.504
51807W        W13173  15.303  30.413   4.725
51808W        W13174  19.254  38.351  13.923
51809W        W13175  44.275  29.069  14.483
51810W        W13176  42.448  30.138  13.021
51811W        W13177  14.270   0.749  14.346
51812W        W13178   6.900  14.649  10.586
51813W        W13179  37.846  28.471   1.905
51814W        W13180  33.092  28.008   3.223
51815W        W13181   0.924   0.944  12.565
51816W        W13182   3.232  40.797  14.767
51817W        W13183  25.708  35.915  10.622
51818W        W13184  43.352  30.133  13.355
51819W        W13185  21.245   2.920   9.979
51820W        W13186  35.421   1.863  10.409
51821W        W13187  29.089   5.418  13.035
51822W        W13188   1.753  44.297  14.449
51823W        W13189   0.758  38.000  11.379
51824W        W13190  24.521  34.037  11.063
51825W        W13191   0.284  44.011  12.856
51826W        W13192  26.681  33.029   3.373
51827W        W13193  27.967  34.960   2.865
51828W        W13194  13.839  36.385   1.264
51829W        W13195  14.633  30.606  12.429
51830W        W13196  17.183  28.933   9.969
51831W        W13197  31.143   2.791   1.858
51832W        W13198  17.186  40.040  13.003
51833W        W13199  37.009  35.921   2.838
51834W        W13200  30.457   5.397  12.827
51835W        W13201   6.860  16.275   1.280
51836W        W13202  16.121  16.253   3.302
51837W        W13203  23.589   7.742   2.306
51838W        W13204   7.340   7.367  12.932
51839W        W13205  27.484  44.009  12.009
51840W        W13206   2.956  28.601  14.787
51841W        W13207  25.199  38.350  11.127
51842W        W13208  16.604  19.195  13.888
51843W        W13209  43.320   7.226   2.746
51844W        W13210  29.582   9.308  13.436
51845W        W13211  22.703   0.265  13.394
51846W        W13212  13.774   1.392   0.943
51847W        W13213  10.368  25.163  12.458
51848W        W13214   8.877  44.844   4.836
51849W        W13215  23.636  35.496  14.430
51850W        W13216  40.341  33.450  13.913
51851W        W13217  41.982  42.031  14.399
51852W        W13218  35.924  13.304   2.298
51853W        W13219  41.490  37.502   4.670
51854W        W13220   3.316  36.019  13.396
51855W        W13221  26.078  38.934   0.836
51856W        W13222  43.488  28.111   0.774
51857W        W13223   3.838  17.255   0.775
51858W        W13224   7.288   0.750  12.083
51859W        W13225  21.063  21.725   0.764
51860W        W13226  38.835   5.306   0.276
51861W        W13227  42.439  12.335   1.739
51862W        W13228  14.793   4.441  13.504
51863W        W13229  24.528   9.289   1.846
51864W        W13230   4.710  25.194  14.453
51865W        W13231  24.133   2.761   4.743
51866W        W13232  18.195   1.880  14.305
51867W        W13233   9.190   5.268  12.960
51868W        W13234  41.455  40.990   0.729
51869W        W13235  44.312   2.307  11.087
51870W        W13236   9.182  27.164   4.271
51871W        W13237  15.222   6.193   4.783
51872W        W13238  27.523  28.028   3.188
51873W        W13239  30.156   2.333  12.031
51874W        W13240  14.808  25.096  13.444
51875W        W13241  29.082  38.974   3.759
51876W        W13242  30.983  14.257   4.768
51877W        W13243  27.619  17.616   1.363
51878W        W13244   8.768  42.437   2.681
51879W        W13245  39.520   3.846  14.857
51880W        W13246  12.117  25.137  10.889
51881W        W13247   8.192  18.205   4.742
51882W        W13248  19.599  31.547  13.811
51883W        W13249  34.999  35.438  13.444
51884W        W13250   2.384   6.220  12.026
51885W        W13251  17.077  36.534  14.784
51886W        W13252  18.616  26.501  12.011
51887W        W13253   7.734   0.812  11.999
51888W        W13254  35.578   3.247  12.055
51889W        W13255  11.834  31.566  12.942
51890W        W13256   1.955  44.260   3.275
51891W        W13257  35.935  21.056   2.242
51892W        W13258  39.326  33.590   4.316
51893W        W13259  23.004  39.837  13.799
51894W        W13260   1.311  22.112  13.942
51895W        W13261  16.317   0.431  14.427
51896W        W13262  19.623   4.279  12.082
51897W        W13263  23.073  29.121   5.211
51898W        W13264  23.499  16.737   4.645
51899W        W13265  13.624  14.131   0.252
51900W        W13266  41.343  18.142   1.292
51901W        W13267  34.387  31.101   4.136
51902W        W13268  34.561  35.568  13.058
51903W        W13269  19.157  28.939   0.349
51904W        W13270  42.448   3.942   0.957
51905W        W13271  36.854   3.289   0.891
51906W        W13272   6.723  15.630   3.680
51907W        W13273  30.444  31.984  12.579
51908W        W13274  16.286   6.260  13.983
51909W        W13275   5.850  12.261  10.625
51910W        W13276  39.317  29.537   3.775
51911W        W13277  31.555  43.420  11.968
51912W        W13278  21.060  33.961   0.292
51913W        W13279   8.822  20.153  11.102
51914W        W13280  40.921  16.111   3.724
51915W        W13281  27.013  14.600   0.875
51916W        W13282  26.681  10.323  13.831
51917W        W13283  30.653  36.436   2.349
51918W        W13284  10.144  43.326   1.420
51919W        W13285   1.298  26.470   0.769
51920W        W13286   6.724   5.346   0.878
51921W        W13287   2.902  31.976  12.486
51922W        W13288  20.254   8.277   3.638
51923W        W13289  23.177  31.596  10.948
51924W        W13290   0.368   1.240   0.441
51925W        W13291  15.169  38.422   3.259
51926W        W13292   8.173  35.597   1.230
51927W        W13293   5.398  24.209  14.504
51928W        W13294   0.426  22.678   2.751
51929W        W13295  34.923  15.100   4.208
51930W        W13296  34.969   5.339   2.274
51931W        W13297  39.843  33.451   2.839
51932W        W13298  22.644  29.424  12.542
51933W        W13299  15.089   1.339   2.340
51934W        W13300  44.829   9.364  14.959
51935W        W13301  11.793  41.399   3.788
51936W        W13302  33.422  25.965   4.248
51937W        W13303  26.584  41.797  14.862
51938W        W13304  35.931  28.036  12.075
51939W        W13305  29.106  42.801  14.884
51940W        W13306  17.678  25.045  14.862
51941W        W13307  26.115  19.128   0.385
51942W        W13308  34.894  40.951   2.244
51943W        W13309   9.761   5.248  10.913
51944W        W13310  41.823  42.393  12.949
51945W        W13311  34.372  23.219  14.369
51946W        W13312  20.573  29.637  12.084
51947W        W13313   3.290  18.267  10.076
51948W        W13314  11.235  33.421  14.498
51949W        W13315  31.951   4.776   2.325
51950W        W13316   9.759  29.592  13.312
51951W        W13317  13.832   6.389   1.403
51952W        W13318   8.228   2.450   1.358
51953W        W13319   9.168  33.881  11.945
51954W        W13320   7.856   5.353  11.933
51955W        W13321  15.246   3.954  12.060
51956W        W13322  43.405  21.031   2.303
51957W        W13323   2.843  15.175   4.715
51958W        W13324  33.990   2.930   3.358
51959W        W13325  25.646  37.949  13.983
51960W        W13326   0.272   4.247  12.479
51961W        W13327  33.520  32.116  12.888
51962W        W13328  43.911  21.690  12.923
51963W        W13329  17.556   9.851  13.792
51964W        W13330  17.107  27.159  14.997
51965W        W13331  15.787  19.186  12.541
51966W        W13332  23.647  41.851   1.254
51967W        W13333  38.546   5.740  10.541
51968W        W13334   3.832  24.703   3.756
51969W        W13335   5.868  26.196   2.200
51970W        W13336  11.729  39.536   2.334
51971W        W13337  35.397  23.592   3.841
51972W        W13338  20.075  20.143   4.720
51973W        W13339  17.725  38.374  13.403
51974W        W13340  11.259  29.154   0.857
51975W        W13341   7.737  41.830   1.820
51976W        W13342  42.936  25.536   0.888
51977W        W13343  21.167   4.872   5.083
51978W        W13344  31.088   6.850   1.262
51979W        W13345  24.562  36.943  11.072
51980W        W13346  22.590  38.943   4.731
51981W        W13347  22.134  43.951  14.484
51982W        W13348  24.146  10.720   2.767
51983W        W13349  25.566  25.196   1.728
51984W        W13350  30.456  18.281   5.718
51985W        W13351  22.162   6.865   0.731
51986W        W13352  13.236   0.929   1.885
51987W        W13353  38.063  15.633  13.516
51988W        W13354  16.741  17.589   3.252
51989W        W13355  39.344  38.378   2.769
51990W        W13356  23.631  31.900   9.973
51991W        W13357  39.552  32.985   2.860
51992W        W13358  42.288  41.503   2.413
51993W        W13359  25.609  31.520  14.827
51994W        W13360   6.764  12.688  14.405
51995W        W13361   8.244  12.228   3.852
51996W        W13362  42.914   0.981   5.184
51997W        W13363  28.567   9.728  11.061
51998W        W13364  18.555   5.299  12.912
51999W        W13365  24.604  22.620   2.273
52000W        W13366   2.382  34.424   2.400
52001W        W13367  40.991  43.313  10.500
52002W        W13368  38.480   7.680   0.902
52003W        W13369  37.520  25.206  11.936
52004W        W13370   5.208  12.706  13.462
52005W        W13371   3.230  22.545   1.933
52006W        W13372  24.576   9.675   1.851
52007W        W13373  37.914  22.724   2.778
52008W        W13374   0.316  23.613   1.819
52009W        W13375  42.985  23.025   3.294
52010W        W13376  10.746  31.543   4.227
52011W        W13377  11.828  38.528   1.276
52012W        W13378  14.245   1.756   1.357
52013W        W13379  37.830  38.564   2.198
52014W        W13380  34.902  17.593  12.863
52015W        W13381  35.955  22.612  14.954
52016W        W13382   0.377  35.040   3.252
52017W        W13383  44.258  18.202  13.414
52018W        W13384  31.141  38.073  11.983
52019W        W13385  12.262  35.941   3.308
52020W        W13386  17.592   0.801   4.727
52021W        W13387  19.041   0.429  12.476
52022W        W13388  25.011  35.567   0.247
52023W        W13389  12.811   1.968   2.311
52024W        W13390  33.394  37.378  12.964
52025W        W13391   0.441  18.189  13.363
52026W        W13392  17.757   2.230   3.704
52027W        W13393  43.850  12.630  11.089
52028W        W13394  26.159  30.432   0.339
52029W        W13395  21.057  43.349  14.974
52030W        W13396  29.951  29.543  13.542
52031W        W13397  20.543   2.905   3.236
52032W        W13398   8.785  15.300   2.269
52033W        W13399  43.505   2.958   2.264
52034W        W13400  14.793   6.423   4.692
52035W        W13401  40.494  40.380  11.865
52036W        W13402   0.797  16.613  13.427
52037W        W13403  33.551   6.347   2.210
52038W        W13404  37.437  23.665  14.470
52039W        W13405  39.540  22.733   0.305
52040W        W13406  16.116  34.042  11.077
52041W        W13407  22.044  11.768   1.263
52042W        W13408  40.465  41.915  13.053
52043W        W13409   3.877  37.951  13.342
52044W        W13410  42.289  30.921   4.274
52045W        W13411  13.208  27.644  10.639
52046W        W13412  31.998   0.964   4.340
52047W        W13413  19.598  18.147   1.275
52048W        W13414  27.556  21.588   5.196
52049W        W13415  32.143   9.753  13.873
52050W        W13416   7.721  20.218   3.210
52051W        W13417  10.332   4.858  12.424
52052W        W13418   1.325  15.117  10.958
52053W        W13419  33.037  19.659  14.991
52054W        W13420   2.383  24.208   4.603
52055W        W13421  32.595  10.298  10.560
52056W        W13422  30.526  43.881   0.480
52057W        W13423  40.049   3.712  14.384
52058W        W13424   8.241  19.667  13.430
52059W        W13425  31.486   7.185   4.286
52060W        W13426   7.193  11.631   4.230
52061W        W13427  19.732  14.832  10.644
52062W        W13428   7.258  12.149  11.572
52063W        W13429  16.127  27.506  12.550
52064W        W13430  41.447  35.543  10.642
52065W        W13431  33.000  20.742   9.588
52066W        W13432  22.657   4.322   3.221
52067W        W13433   3.789  36.392   0.323
52068W        W13434   9.164  32.946  13.951
52069W        W13435  26.011  42.512  13.958
52070W        W13436   5.688  32.498  13.006
52071W        W13437  10.871  13.633  13.841
52072W        W13438  21.249  25.022   2.261
52073W        W13439  41.316  42.393   0.270
52074W        W13440   4.421  13.626   3.239
52075W        W13441  12.838   7.861   3.367
52076W        W13442  21.530  31.453  12.927
52077W        W13443  19.605  38.024   2.348
52078W        W13444  29.530  21.577  12.952
52079W        W13445  36.090   5.863   2.401
52080W        W13446  20.689  16.651   2.226
52081W        W13447  37.071  39.450  10.967
52082W        W13448   7.200  13.777   3.302
52083W        W13449  42.361  13.719   1.825
52084W        W13450  24.608  37.439   1.253
52085W        W13451   3.218  34.473  12.478
52086W        W13452   1.453  22.210  13.468
52087W        W13453  34.431  17.652  14.000
52088W        W13454  38.411   0.363  14.342
52089W        W13455  17.173  37.558   2.300
52090W        W13456  15.307   8.694   3.634
52091W        W13457  31.978  36.517   3.228
52092W        W13458  32.967  26.022  14.969
52093W        W13459  19.211  33.487  13.513
52094W        W13460  32.073  35.461  13.348
52095W        W13461   7.719  10.860   3.867
52096W        W13462   3.403  24.090  11.400
52097W        W13463   0.952  28.089  14.889
52098W        W13464  20.732  34.453   1.811
52099W        W13465  44.004  29.559  14.415
52100W        W13466  15.131  24.571  12.885
52101W        W13467  24.143   2.419   3.339
52102W        W13468  43.459  23.652  14.885
52103W        W13469  23.519  24.975   4.806
52104W        W13470   0.746  26.606  14.940
52105W        W13471   9.782   4.303   3.650
52106W        W13472  43.960   2.367  14.353
52107W        W13473   2.370  21.223   0.377
52108W        W13474   0.814  29.044  14.009
52109W        W13475  16.710  21.113   2.818
52110W        W13476   8.223   0.258  10.491
52111W        W13477  33.959   9.662   3.271
52112W        W13478  13.166  30.136   4.810
52113W        W13479  27.137  38.407  11.606
52114W        W13480  34.430  14.151  13.810
52115W        W13481  38.567   6.791   2.761
52116W        W13482   2.327   4.244  14.930
52117W        W13483  40.482  21.580   0.318
52118W        W13484  12.838  12.238   4.291
52119W        W13485  38.524  24.564  14.919
52120W        W13486   3.252  37.457  14.016
52121W        W13487  22.653  12.852  13.940
52122W        W13488  26.516   1.357  11.887
52123W        W13489  42.878  28.934  12.942
52124W        W13490  22.248  43.016  10.434
52125W        W13491  34.544   4.275   0.452
52126W        W13492   3.757  22.555  12.018
52127W        W13493  33.925  24.497   2.185
52128W        W13494  27.006  36.892  14.934
52129W        W13495  29.139   0.972   3.313
52130W        W13496  36.572   6.694   4.195
52131W        W13497  30.470  41.530   0.844
52132W        W13498  34.540   4.880   4.732
52133W        W13499  13.677  40.884  14.474
52134W        W13500  20.706   5.739   1.309
52135W        W13501   0.974  35.030  14.014
52136W        W13502   7.344  35.898   0.846
52137W        W13503  14.644  26.469  13.931
52138W        W13504  40.427  33.499   0.925
52139W        W13505  30.639   5.831   4.734
52140W        W13506  39.040   6.370   1.752
52141W        W13507  37.408  43.966   0.826
52142W        W13508  23.612  19.231   2.259
52143W        W13509  22.640  36.049   1.886
52144W        W13510  28.463  13.341  14.342
52145W        W13511   9.687   4.374   0.912
52146W        W13512   5.391  16.790  14.800
52147W        W13513  37.923  18.559   4.670
52148W        W13514  25.574   7.367  12.964
52149W        W13515  21.260  27.091  10.988
52150W        W13516  15.202  39.336  12.046
52151W        W13517  23.007  35.447   2.378
52152W        W13518  15.711  37.082  14.913
52153W        W13519  22.629   5.316  10.953
52154W        W13520  37.040  38.452   1.248
52155W        W13521  39.844  32.414   4.284
52156W        W13522  26.587   4.324   4.629
52157W        W13523  17.558  28.523  13.309
52158W        W13524  39.879  31.629  13.843
52159W        W13525  38.834   0.308  10.157
52160W        W13526  26.022   7.912  11.469
52161W        W13527   3.898  29.096   1.221
52162W        W13528  10.376  17.620   3.782
52163W        W13529  42.420  10.270  10.573
52164W        W13530  43.412  44.825   2.268
52165W        W13531  44.855  26.111   2.289
52166W        W13532  10.734   2.813  12.858
52167W        W13533  29.503  22.106   0.265
52168W        W13534  31.108   5.692  13.807
52169W        W13535   0.317  34.019  11.452
52170W        W13536  19.194  41.408  10.491
52171W        W13537  40.805  33.620  11.087
52172W        W13538   0.316  39.021   3.841
52173W        W13539  35.519  17.782   0.883
52174W        W13540   3.312  13.311  13.045
52175W        W13541  36.538  14.171  13.806
52176W        W13542  43.474  11.769   4.713
52177W        W13543  36.857  20.606  14.795
52178W        W13544  21.670   5.439  12.556
52179W        W13545   0.876  27.173   1.752
52180W        W13546  22.721  30.130   0.771
52181W        W13547  41.481  14.118  10.461
52182W        W13548  20.047   7.216   4.202
52183W        W13549  17.065  15.112  13.868
52184W        W13550  38.981  41.982   4.213
52185W        W13551  11.302   5.822   4.652
52186W        W13552   4.345   1.360  11.108
52187W        W13553  39.061  31.909   3.695
52188W        W13554  34.470  31.133  13.336
52189W        W13555  41.801  42.978   4.635
52190W        W13556  29.631   7.342   3.293
52191W        W13557  25.504  37.477   2.340
52192W        W13558   2.418  38.006  13.062
52193W        W13559   5.876  35.103   0.303
52194W        W13560  22.681   4.743  10.058
52195W        W13561  38.380  37.537  12.519
52196W        W13562  23.148  10.369   0.419
52197W        W13563   0.987   6.768   4.272
52198W        W13564  13.675  37.430  10.506
52199W        W13565  17.710  25.038  11.938
52200W        W13566  35.907  42.997  10.912
52201W        W13567  13.736  33.048  11.505
52202W        W13568  43.362  40.865  14.852
52203W        W13569  16.100  29.551   3.636
52204W        W13570  42.303  23.190  13.828
52205W        W13571  40.892  31.548  11.897
52206W        W13572  12.254  18.267   0.744
52207W        W13573  26.134   2.902  12.078
52208W        W13574  32.592  43.296  10.041
52209W        W13575  17.104   4.260   3.267
52210W        W13576  34.519  25.153  13.361
52211W        W13577  44.398  33.079   2.331
52212W        W13578  40.814  26.504   4.619
52213W        W13579   5.928  30.632  10.990
52214W        W13580   5.336  12.254   3.856
52215W        W13581  39.980  38.908   1.763
52216W        W13582  32.041  30.442  14.906
52217W        W13583  35.103  12.261  14.945
52218W        W13584  17.087   5.296   2.396
52219W        W13585  25.620  11.239  11.935
52220W        W13586  40.329   2.866   0.355
52221W        W13587  25.982  13.310   1.228
52222W        W13588   7.775   2.382   4.633
52223W        W13589  21.605   9.859   4.613
52224W        W13590   7.805  29.455   1.287
52225W        W13591   2.885   3.930  14.469
52226W        W13592  26.199  10.804  13.975
52227W        W13593  17.658   9.262   0.858
52228W        W13594  20.272  13.186   1.747
52229W        W13595  19.124  22.632  14.901
52230W        W13596  44.381  10.296   1.817
52231W        W13597  43.003   8.253  12.962
52232W        W13598  27.083   7.222  14.973
52233W        W13599  39.419   7.284  12.421
52234W        W13600  25.074  32.077   4.777
52235W        W13601   8.757  40.318  12.400
52236W        W13602  23.523  26.665  11.039
52237W        W13603  28.969  25.076  10.480
52238W        W13604  13.187   6.780   2.833
52239W        W13605  16.705  38.424   3.856
52240W        W13606  22.211  22.096   4.837
52241W        W13607   3.426  30.430  14.423
52242W        W13608   2.305   6.313  14.457
52243W        W13609  17.140  37.073   4.812
52244W        W13610  32.480  43.945   1.831
52245W        W13611  29.174   6.708  12.943
52246W        W13612  17.786  39.901  14.914
52247W        W13613  11.160  13.644  13.826
52248W        W13614  34.613  15.787  13.793
52249W        W13615  12.808   7.411   2.374
52250W        W13616  34.994  42.361  14.349
52251W        W13617  32.001  29.667  12.444
52252W        W13618  10.171  23.563  13.950
52253W        W13619  30.490  41.465   4.331
52254W        W13620  30.908   1.363  13.040
52255W        W13621  26.503  10.726  11.978
52256W        W13622  23.710  30.063   2.893
52257W        W13623  38.974  16.200  13.972
52258W        W13624  31.072  31.526  14.022
52259W        W13625  20.545   9.824   4.169
52260W        W13626  17.786  38.506  10.600
52261W        W13627  17.737  28.977  10.517
52262W        W13628  26.985   9.296  12.984
52263W        W13629  34.870  10.218  11.377
52264W        W13630  30.082  43.426   1.917
52265W        W13631  36.538  26.647  11.875
52266W        W13632  12.285  23.173   1.434
52267W        W13633   6.412  39.969   9.927
52268W        W13634   4.787  17.225   0.394
52269W        W13635  20.603  32.115   2.220
52270W        W13636  30.082  11.162  13.469
52271W        W13637  24.695  22.668   0.818
52272W        W13638  12.332  33.914   2.856
52273W        W13639  28.015  23.508   4.189
52274W        W13640  43.466  11.196   2.801
52275W        W13641  19.073  20.597   2.746
52276W        W13642  42.468   3.449  14.924
52277W        W13643  35.040  13.206  11.372
52278W        W13644  37.572   1.977  11.113
52279W        W13645  21.169  34.906  13.378
52280W        W13646  11.314   9.756  14.900
52281W        W13647  20.562  28.531   1.855
52282W        W13648  10.183  33.525   2.691
52283W        W13649  26.681  17.654   4.249
52284W        W13650   2.282  12.752   0.772
52285W        W13651  17.636  15.214   1.872
52286W        W13652  27.950  33.555  13.547
52287W        W13653  22.715   6.415   3.707
52288W        W13654  32.608  23.664  13.845
52289W        W13655  34.066  15.683  14.407
52290W        W13656  25.162  12.353  10.585
52291W        W13657  35.421  16.271   3.791
52292W        W13658  16.291  13.164   3.856
52293W        W13659  24.635  16.584  12.045
52294W        W13660  23.123  30.483   3.204
52295W        W13661   8.860  41.856   2.200
52296W        W13662  17.599  13.237  11.902
52297W        W13663   1.257  32.070   3.253
52298W        W13664  41.975  33.621   3.323
52299W        W13665  20.214  34.464  12.551
52300W        W13666  12.857  22.106   0.481
52301W        W13667  25.149   4.386  10.556
52302W        W13668  34.521   0.965   4.718
52303W        W13669  41.326  34.535   2.403
52304W        W13670   0.365  10.651  14.455
52305W        W13671  22.133  36.871  10.497
52306W        W13672   2.263  34.601  14.489
52307W        W13673   1.786   1.384  11.599
52308W        W13674   8.782   6.838   1.758
52309W        W13675   4.392  18.574   0.465
52310W        W13676  44.318  39.834  12.512
52311W        W13677  11.175  38.065   4.193
52312W        W13678  31.640   0.418  11.442
52313W        W13679  41.415   9.669   0.831
52314W        W13680  43.443  32.935   3.327
52315W        W13681   3.403  38.412   4.309
52316W        W13682  43.979  22.998  13.915
52317W        W13683  14.778  42.330  12.942
52318W        W13684  18.275  44.900   4.688
52319W        W13685   3.379  28.517   4.270
52320W        W13686  40.524  17.242   4.632
52321W        W13687  36.043  10.178   1.353
52322W        W13688   0.850  43.956   3.647
52323W        W13689  13.156  20.194   2.730
52324W        W13690  29.111  39.496  12.963
52325W        W13691   8.703  10.149   3.221
52326W        W13692  25.660  27.473   1.893
52327W        W13693  23.142  10.845   3.756
52328W        W13694  35.556  24.626  11.495
52329W        W13695  26.470  27.958  13.847
52330W        W13696   5.818   5.836  12.349
52331W        W13697   1.285  20.680   3.252
52332W        W13698  16.770  35.937   2.871
52333W        W13699  22.662  39.896  10.529
52334W        W13700   7.908  29.548  11.872
52335W        W13701  30.053  14.641   4.768
52336W        W13702  42.026   9.733   0.919
52337W        W13703  24.178  33.058   4.789
52338W        W13704  13.695   4.255  14.895
52339W        W13705   3.455  13.772   2.234
52340W        W13706  42.420  34.000  10.487
52341W        W13707  12.206  26.965   4.770
52342W        W13708   9.704  41.795  10.964
52343W        W13709  25.533  38.509   2.775
52344W        W13710  12.781  31.444  13.957
52345W        W13711  15.096  23.015  14.919
52346W        W13712  24.212  20.219  13.381
52347W        W13713   0.930  33.015  13.929
52348W        W13714   9.201  30.517   9.931
52349W        W13715   8.281  38.985  14.856
52350W        W13716  27.059   8.835  13.032
52351W        W13717  38.547  21.194   4.632
52352W        W13718  15.156  27.981   3.795
52353W        W13719  39.837  35.045   3.264
52354W        W13720  11.831  25.200   0.482
52355W        W13721  12.131  21.667  13.441
52356W        W13722  41.327  44.960   2.720
52357W        W13723  24.173  27.059   0.857
52358W        W13724  44.892  32.061   1.719
52359W        W13725  21.735  33.616   2.289
52360W        W13726  32.532  12.720   0.432
52361W        W13727  40.311   9.213  12.949
52362W        W13728  32.624  26.459   1.720
52363W        W13729  21.118  44.395  14.387
52364W        W13730   0.463  18.645  14.383
52365W        W13731  12.705  29.634  14.485
52366W        W13732  23.730  27.638  11.886
52367W        W13733  40.862  21.729   4.343
52368W        W13734   2.381  36.861  11.518
52369W        W13735  21.073  15.623  11.887
52370W        W13736   4.739  31.427   3.830
52371W        W13737  27.596  21.694   5.619
52372W        W13738  27.183  39.928  10.509
52373W        W13739  34.372   7.221   4.139
52374W        W13740   8.315  37.888   3.645
52375W        W13741  29.490  38.983   4.810
52376W        W13742   3.255  34.052  12.509
52377W        W13743  34.433  10.314   2.367
52378W        W13744   8.897  13.311  12.405
52379W        W13745   9.262  23.674   3.331
52380W        W13746   8.379  33.588   0.465
52381W        W13747  14.222  28.659  13.056
52382W        W13748  43.975  38.449   3.723
52383W        W13749   6.237  10.347   0.332
52384W        W13750   7.232  22.130   1.737
52385W        W13751  12.752  37.948  13.044
52386W        W13752  39.521   9.785  13.975
52387W        W13753  27.167  14.254   2.834
52388W        W13754  43.380  43.326   4.666
52389W        W13755  31.603  41.924   1.365
52390W        W13756  26.105   3.894   0.468
52391W        W13757  30.956  28.040   4.693
52392W        W13758   9.247  31.999   0.431
52393W        W13759  23.654  33.504  10.992
52394W        W13760  24.001   6.220   1.383
52395W        W13761  30.592  18.656   5.207
52396W        W13762  27.041  26.564   2.768
52397W        W13763  43.871  15.322   0.405
52398W        W13764  31.043   2.904   0.751
52399W        W13765  42.007  28.573  11.999
52400W        W13766  35.446   5.197  12.396
52401W        W13767  23.522  29.507  12.464
52402W        W13768  14.339  40.845  11.603
52403W        W13769  18.593  37.003   1.423
52404W        W13770  16.092   9.746   1.786
52405W        W13771  32.630  27.513   2.773
52406W        W13772  29.657   4.735   4.354
52407W        W13773  17.244  42.320   0.836
52408W        W13774  24.666  32.130   0.859
52409W        W13775  29.423  27.177  14.926
52410W        W13776  26.692  37.942   3.741
52411W        W13777  43.293   0.435  13.883
52412W        W13778  16.106  19.599   5.154
52413W        W13779  28.495  33.072   2.886
52414W        W13780   4.774  38.522  13.904
52415W        W13781   2.430  21.559  12.571
52416W        W13782  32.944  44.003  10.451
52417W        W13783  25.089  16.234  11.085
52418W        W13784   5.856  17.581   9.982
52419W        W13785  15.188   9.291   2.880
52420W        W13786  31.920  40.450   1.446
52421W        W13787  15.261  18.611   1.773
52422W        W13788   6.413  17.795  14.296
52423W        W13789  32.406   2.336   4.200
52424W        W13790  27.947   9.170  11.388
52425W        W13791  34.878  13.817   2.675
52426W        W13792  22.078   4.925   4.264
52427W        W13793  12.148  32.569  12.446
52428W        W13794  40.992  19.700  13.953
52429W        W13795  19.056  20.099  10.979
52430W        W13796  29.951  19.535  12.070
52431W        W13797  36.492  32.973   2.733
52432W        W13798   4.375  16.709  13.546
52433W        W13799  23.642  18.548   1.268
52434W        W13800  17.676  14.254   4.609
52435W        W13801  44.381  29.576  13.032
52436W        W13802  24.167  25.503  11.120
52437W        W13803  11.346  28.545   1.806
52438W        W13804   6.889  34.517  12.357
52439W        W13805  15.317  39.857  10.473
52440W        W13806  20.138  44.344  10.952
52441W        W13807   6.766   1.830   3.759
52442W        W13808   4.396  33.488  13.547
52443W        W13809   3.359  34.422   2.396
52444W        W13810   1.358  15.760  11.040
52445W        W13811  24.050  22.196   2.369
52446W        W13812   8.661  18.680   3.778
52447W        W13813  27.147  14.108   0.247
52448W        W13814  21.579  41.428   2.410
52449W        W13815  38.385  10.644   4.329
52450W        W13816  18.138   3.261  14.397
52451W        W13817  12.294  10.178  13.898
52452W        W13818  40.338  31.129   3.804
52453W        W13819  15.250  15.634   2.340
52454W        W13820  30.112  16.729   1.355
52455W        W13821   4.387  34.950  13.991
52456W        W13822  12.744   7.853   3.634
52457W        W13823   2.845   9.337   0.320
52458W        W13824  44.392   5.418  11.967
52459W        W13825  13.690  37.372   2.250
52460W        W13826  32.473  12.259   0.308
52461W        W13827  39.925  25.642   3.277
52462W        W13828  29.947  15.608   4.714
52463W        W13829  20.565  10.345   0.853
52464W        W13830  44.327  13.198  10.112
52465W        W13831   5.715  26.055  11.100
52466W        W13832   3.933  42.844   2.266
52467W        W13833  36.444  32.974  13.854
52468W        W13834  24.116   9.361  14.480
52469W        W13835  27.528   6.706  11.111
52470W        W13836  24.099   2.908   3.218
52471W        W13837  25.181  12.328   3.757
52472W        W13838  36.500  28.095   2.339
52473W        W13839  11.333  30.575   3.296
52474W        W13840  23.099  42.328   0.355
52475W        W13841  38.557   7.807   2.745
52476W        W13842  18.621  39.846   4.349
52477W        W13843  31.964  16.152  12.025
52478W        W13844  22.698  42.387  10.587
52479W        W13845  33.621  41.967   1.326
52480W        W13846   2.725  23.198   0.737
52481W        W13847  18.631  40.544  10.609
52482W        W13848  42.805   5.934  12.056
52483W        W13849   1.956   1.402   3.856
52484W        W13850   1.242  27.452   2.716
52485W        W13851  17.301  28.652   3.699
52486W        W13852  16.793  43.997   4.221
52487W        W13853   8.886   7.842   0.916
52488W        W13854  22.639  20.768   1.402
52489W        W13855   4.796  26.589   2.373
52490W        W13856  36.047  34.555  13.884
52491W        W13857  17.105  23.047  14.344
52492W        W13858   8.221   3.273   3.206
52493W        W13859  24.642   8.232  14.945
52494W        W13860  24.195   6.693  13.862
52495W        W13861  12.738   9.757  11.096
52496W        W13862  31.531  33.013   1.796
52497W        W13863   8.256  29.630  10.422
52498W        W13864  35.455  38.899   0.941
52499W        W13865  44.302  24.026   1.223
52500W        W13866   6.227  16.166  12.379
52501W        W13867  43.440   7.772  11.119
52502W        W13868  40.544  15.675   5.110
52503W        W13869  27.570  27.022   2.407
52504W        W13870  40.540   6.757  14.912
52505W        W13871   2.329  41.977  13.007
52506W        W13872  32.519  30.428  10.441
52507W        W13873  13.806  13.611   0.406
52508W        W13874   0.780  32.999   4.338
52509W        W13875  26.122   7.686  11.991
52510W        W13876  22.738  44.422   0.862
52511W        W13877   1.811  29.536  13.321
52512W        W13878  26.087  15.677  12.377
52513W        W13879  23.015   6.787   3.274
52514W        W13880  33.050  37.492   0.786
52515W        W13881  23.067  44.383  13.954
52516W        W13882  23.538  44.425   1.764
52517W        W13883  40.544  39.866  11.483
52518W        W13884  25.542   1.469  14.778
52519W        W13885  39.344  15.207   0.449
52520W        W13886  28.446   9.738  13.406
52521W        W13887   1.973  19.106  14.511
52522W        W13888  24.480  34.872  10.639
52523W        W13889  20.094  33.904  12.056
52524W        W13890  16.728  16.301   3.372
52525W        W13891  10.841  19.611   0.415
52526W        W13892   0.438   2.929  10.602
52527W        W13893  17.779  27.536  12.994
52528W        W13894  31.432  39.338   2.299
52529W        W13895  44.997  40.461  12.881
52530W        W13896  12.234  31.998  12.961
52531W        W13897  36.486   5.717   2.178
52532W        W13898  26.525  31.076   1.843
52533W        W13899  28.614  18.288   9.658
52534W        W13900   5.835  34.590   0.757
52535W        W13901  15.632  27.638  10.626
52536W        W13902  43.339  10.766  11.125
52537W        W13903  32.039  38.072  14.974
52538W        W13904  37.973  28.010  10.456
52539W        W13905  18.168  31.601   0.288
52540W        W13906  40.538  34.045  13.474
52541W        W13907  23.635  10.668  14.383
52542W        W13908  17.790  42.290  12.535
52543W        W13909  16.648  26.130  12.886
52544W        W13910  26.099  40.951  13.979
52545W        W13911  25.604  44.482  14.920
52546W        W13912  40.527  20.090   4.204
52547W        W13913  30.084   3.869   0.924
52548W        W13914   6.413  23.224  12.406
52549W        W13915  21.252   1.771  13.336
52550W        W13916  21.747  30.489  14.005
52551W        W13917  33.010   2.803  10.967
52552W        W13918  34.068  17.200   2.838
52553W        W13919   0.908  15.212  13.995
52554W        W13920  33.528  43.021   3.340
52555W        W13921   2.827   7.215   0.351
52556W        W13922  23.732  29.079  13.478
52557W        W13923   6.311  32.421  12.016
52558W        W13924  11.242  10.176   0.946
52559W        W13925  14.094  30.579   1.776
52560W        W13926  42.494  28.463   3.342
52561W        W13927   1.397  12.171   3.634
52562W        W13928  34.904   0.941  14.461
52563W        W13929  40.989   1.745   1.738
52564W        W13930  38.363  41.432  10.577
52565W        W13931  23.013   8.212  11.469
52566W        W13932  25.160  12.835   2.822
52567W        W13933  15.667  22.042   2.765
52568W        W13934   3.308  34.947  11.013
52569W        W13935  37.582  11.199  11.582
52570W        W13936  12.800  39.874   3.821
52571W        W13937   9.389  42.404   2.876
52572W        W13938   4.206  20.263   3.370
52573W        W13939  35.033  14.795  13.435
52574W        W13940  18.654   9.150   1.881
52575W        W13941   7.785  33.490  13.879
52576W        W13942  25.170  41.519   1.870
52577W        W13943  31.094   9.208  14.894
52578W        W13944  15.761  10.365   4.711
52579W        W13945  43.767   0.458  12.927
52580W        W13946  38.358  11.731  11.047
52581W        W13947   7.747  38.020   1.314
52582W        W13948   2.319   2.472   0.942
52583W        W13949  44.835  39.981   0.333
52584W        W13950  23.587   8.274  11.448
52585W        W13951  15.798   9.270   0.460
52586W        W13952  15.109  20.524   1.828
52587W        W13953  30.478  24.573   4.156
52588W        W13954  36.570  16.135  14.844
52589W        W13955   7.265  42.343   4.718
52590W        W13956  19.224   7.703  13.038
52591W        W13957  16.796  41.932  10.501
52592W        W13958   3.407  33.545   5.231
52593W        W13959   0.473   2.245  12.851
52594W        W13960   6.195  12.252   3.792
52595W        W13961  28.678  30.449   2.706
52596W        W13962  32.121  14.097   4.302
52597W        W13963  33.940  16.301   3.373
52598W        W13964  29.163  43.275  14.772
52599W        W13965   2.863  28.034  14.455
52600W        W13966  12.708  41.418  11.081
52601W        W13967  26.469  44.348   2.742
52602W        W13968   5.815  13.158   3.251
52603W        W13969  10.746   5.305  10.962
52604W        W13970  37.845  38.962  13.980
52605W        W13971  40.520  23.073  12.395
52606W        W13972   3.887  33.103   4.683
52607W        W13973  22.066  17.260   2.713
52608W        W13974  26.100  17.651   4.808
52609W        W13975   6.195  11.159   0.742
52610W        W13976  25.647  12.282  12.484
52611W        W13977  10.217   2.855   2.674
52612W        W13978   3.326  12.710   1.847
52613W        W13979  42.907  34.916   4.129
52614W        W13980  20.706  10.773   0.773
52615W        W13981  34.564  36.500  12.453
52616W        W13982   4.305  17.086  13.340
52617W        W13983  33.115  22.101  13.377
52618W        W13984  24.216  15.628   0.874
52619W        W13985  24.496  34.060  10.507
52620W        W13986  44.487  35.551  10.082
52621W        W13987   2.903  13.706  10.974
52622W        W13988  43.817  14.256   1.850
52623W        W13989  42.880  16.099   2.261
52624W        W13990   1.733  22.510  10.504
52625W        W13991   3.901  12.759   4.117
52626W        W13992  20.206   1.961   1.317
52627W        W13993  32.052  34.116   3.838
52628W        W13994   6.346  20.705  11.054
52629W        W13995  37.391  10.313   1.333
52630W        W13996  15.762   6.706  11.876
52631W        W13997   9.372   7.814  11.523
52632W        W13998   1.243  44.841  11.554
52633W        W13999  40.314  38.423  10.997
52634W        W14000  39.422  30.447  10.917
52635W        W14001   3.348  18.289   5.128
52636W        W14002   2.835  37.966   4.136
52637W        W14003  31.065  41.424  11.029
52638W        W14004  38.325   0.279   4.678
52639W        W14005  31.446   4.380  10.485
52640W        W14006  18.619  35.525  14.816
52641W        W14007  25.219  37.507   0.846
52642W        W14008  41.503   7.685   3.825
52643W        W14009  30.644  26.576  11.034
52644W        W14010  29.559  27.990   1.836
52645W        W14011  43.515  22.191  13.048
52646W        W14012  44.002  35.944   2.344
52647W        W14013  23.204  19.777   0.317
52648W        W14014  36.475  29.667   2.811
52649W        W14015  17.791   1.380   0.364
52650W        W14016  38.386   3.831   0.378
52651W        W14017  29.524  11.858  14.918
52652W        W14018   7.384   1.392   3.322
52653W        W14019  42.350  27.679   3.350
52654W        W14020  13.312  23.039  14.372
52655W        W14021   7.733   9.354   1.729
52656W        W14022   9.705  40.819   1.767
52657W        W14023  32.411  19.239  14.895
52658W        W14024  24.115   6.376  13.511
52659W        W14025  10.751  31.528   4.658
52660W        W14026  27.585  38.996   2.304
52661W        W14027   0.348  42.812   3.216
52662W        W14028   5.348  17.565  14.361
52663W        W14029   2.472  28.547  14.340
52664W        W14030  29.143  11.851  13.503
52665W        W14031   9.686   3.862   2.224
52666W        W14032  20.717  33.879  11.395
52667W        W14033  37.866  26.634   0.730
52668W        W14034   2.469  14.251   5.129
52669W        W14035  42.481   2.861   1.751
52670W        W14036  40.911  11.269  10.907
52671W        W14037   6.909  39.950  12.398
52672W        W14038  18.148  20.104  12.416
52673W        W14039   9.209   6.359  11.610
52674W        W14040   2.295  42.990   0.889
52675W        W14041  15.202  29.033  14.476
52676W        W14042  14.211  27.069   0.922
52677W        W14043   2.325  33.029  14.384
52678W        W14044   5.218  36.984  13.975
52679W        W14045  25.662   8.322   3.691
52680W        W14046   4.908  16.078   0.739
52681W        W14047   5.210  27.674   3.630
52682W        W14048   1.482  24.020   1.368
52683W        W14049  17.643   1.268   2.761
52684W        W14050  41.389  14.831   4.224
52685W        W14051  43.403  34.867   0.387
52686W        W14052  12.822  37.523   5.189
52687W        W14053  41.825  35.988  13.389
52688W        W14054  43.395  43.276  11.542
52689W        W14055   9.391  36.501  14.285
52690W        W14056  14.788  32.920   2.779
52691W        W14057  37.346  40.506   0.319
52692W        W14058  26.147   1.850   1.385
52693W        W14059   2.388  15.607  10.498
52694W        W14060  33.578  34.941  11.407
52695W        W14061  10.378  42.404   4.623
52696W        W14062  35.040  35.978   4.326
52697W        W14063  11.796  21.041  14.338
52698W        W14064   0.862  28.441   0.827
52699W        W14065  10.878  25.075  13.458
52700W        W14066   9.289  20.742  10.571
52701W        W14067  21.597  15.585  11.924
52702W        W14068   9.725  33.081  11.934
52703W        W14069  18.067   1.869  13.504
52704W        W14070  44.800   4.903  10.449
52705W        W14071  28.125  25.640  14.376
52706W        W14072  31.973  43.292   3.192
52707W        W14073  28.956  34.473  11.508
52708W        W14074  40.961  38.439  13.371
52709W        W14075   2.375  41.931  14.987
52710W        W14076  28.456  21.098   2.678
52711W        W14077  30.645  24.198   1.240
52712W        W14078  38.057  14.324  11.081
52713W        W14079  12.158  14.233   3.165
52714W        W14080  24.540  30.120   0.946
52715W        W14081  17.669   0.331   4.758
52716W        W14082   9.238  32.931  13.450
52717W        W14083  15.125  18.728  11.407
52718W        W14084  36.492   2.281   1.297
52719W        W14085   7.195  35.925  13.508
52720W        W14086  33.563  11.164  11.373
52721W        W14087  14.795  41.530   4.298
52722W        W14088  42.818  27.170  10.497
52723W        W14089  42.434   6.750  11.057
52724W        W14090  35.361  24.179  10.613
52725W        W14091  43.380  22.023  14.779
52726W        W14092  44.294  41.302  11.939
52727W        W14093   6.270  25.663   0.348
52728W        W14094  33.000  29.593   3.752
52729W        W14095   0.850   0.314   2.363
52730W        W14096  16.631  40.545  12.895
52731W        W14097   0.292   8.371  14.887
52732W        W14098  41.900  22.541  10.489
52733W        W14099   7.738  31.119   1.770
52734W        W14100  15.766  39.903  12.069
52735W        W14101  32.986  26.990   0.746
52736W        W14102  35.391   0.469   3.638
52737W        W14103   5.799  15.639   1.887
52738W        W14104   6.824  29.112  10.418
52739W        W14105   4.813   2.444  14.514
52740W        W14106  37.920  24.216   4.160
52741W        W14107  10.718  22.170   1.714
52742W        W14108  43.790  37.574   1.430
52743W        W14109  11.844  21.682  11.056
52744W        W14110  32.954   5.829  14.004
52745W        W14111  19.756   6.902   4.730
52746W        W14112   1.317  11.837  14.315
52747W        W14113  22.156  23.699  11.003
52748W        W14114   5.752  20.208   1.843
52749W        W14115   8.804  41.013   1.716
52750W        W14116   5.822  37.340  14.814
52751W        W14117  41.531  35.043  12.580
52752W        W14118  17.148  17.174  12.088
52753W        W14119  36.895   6.417   1.359
52754W        W14120  37.445  16.280   4.804
52755W        W14121  38.898   3.266  10.035
52756W        W14122   3.295   8.860  13.354
52757W        W14123  37.554   4.728   3.332
52758W        W14124   9.789  29.627  12.542
52759W        W14125  16.279  15.645  13.503
52760W        W14126   0.284   4.356  14.294
52761W        W14127  39.879  12.720   2.397
52762W        W14128  15.097  38.971  14.910
52763W        W14129  20.601  12.815  12.928
52764W        W14130  26.963  29.488  11.456
52765W        W14131  10.668  21.231  13.365
52766W        W14132  14.661  37.564  12.968
52767W        W14133  28.631  35.930  11.570
52768W        W14134  30.454  15.191  10.578
52769W        W14135  41.799  33.473  11.601
52770W        W14136  31.467   5.837  10.483
52771W        W14137  32.482  42.816   3.736
52772W        W14138  11.264  44.326  13.536
52773W        W14139  43.986   2.370  13.478
52774W        W14140   3.757   2.252  13.955
52775W        W14141  22.706  27.601   0.914
52776W        W14142  42.386  18.192  11.856
52777W        W14143  33.051   3.263   2.305
52778W        W14144  40.361  18.089  10.951
52779W        W14145  14.821   6.716   4.599
52780W        W14146   8.874  37.511   0.385
52781W        W14147  35.539   5.423  12.909
52782W        W14148  26.146  25.578   3.759
52783W        W14149  36.393  43.957   2.859
52784W        W14150  44.269  44.278  10.440
52785W        W14151  19.534  25.099   0.838
52786W        W14152  16.265   0.282   3.300
52787W        W14153  25.104  36.562   0.957
52788W        W14154  39.319   5.393   1.421
52789W        W14155   4.395   5.797  11.083
52790W        W14156   3.216  22.680  11.038
52791W        W14157  39.340  16.627  12.899
52792W        W14158  31.984  38.883  10.404
52793W        W14159  42.982  26.680  12.932
52794W        W14160  18.772   2.333  14.426
52795W        W14161   1.269  33.897   3.147
52796W        W14162  17.093  30.428   4.338
52797W        W14163  39.025  36.544  10.626
52798W        W14164  32.592  32.900   4.764
52799W        W14165  43.481  44.300  13.834
52800W        W14166  37.340  13.691  13.439
52801W        W14167   9.861  40.819  14.922
52802W        W14168  38.859  34.867  13.860
52803W        W14169  41.343  37.490  12.456
52804W        W14170   6.389   5.810  13.425
52805W        W14171  13.618   8.836  13.040
52806W        W14172  26.639  11.199   4.340
52807W        W14173  30.917  38.514  11.885
52808W        W14174  33.498  25.154   0.946
52809W        W14175  34.096   8.247  13.001
52810W        W14176  33.576  33.494  13.340
52811W        W14177   8.850  15.224  13.010
52812W        W14178  24.491  43.488   2.690
52813W        W14179  11.137  13.824  11.407
52814W        W14180  41.342   9.773   0.275
52815W        W14181   1.946   7.210  12.372
52816W        W14182  23.181   4.305   3.641
52817W        W14183  29.147  41.808   1.886
52818W        W14184   6.385  42.459   4.741
52819W        W14185  39.921   7.736   0.910
52820W        W14186  13.755   6.339  14.821
52821W        W14187  44.488  28.463   1.223
52822W        W14188  14.209  13.246  14.866
52823W        W14189  24.712   6.684  10.498
52824W        W14190   2.898  15.221  14.859
52825W        W14191  44.862  34.425   3.279
52826W        W14192  39.554  43.939   4.769
52827W        W14193  41.474  10.226   4.648
52828W        W14194  41.490  39.517  12.573
52829W        W14195  10.706  10.142   4.249
52830W        W14196   9.302  12.133  12.514
52831W        W14197  43.312   8.764  13.448
52832W        W14198  34.082  41.987   1.901
52833W        W14199   2.773  43.372   0.426
52834W        W14200   5.930  43.328   4.711
52835W        W14201  44.774  41.449   4.183
52836W        W14202   6.183  42.802  14.317
52837W        W14203  30.097  22.236   3.748
52838W        W14204   8.735   7.401  10.969
52839W        W14205  11.669   5.730   4.152
52840W        W14206   1.755  12.197   4.171
52841W        W14207   9.242  41.349   1.222
52842W        W14208  19.624  31.532   1.824
52843W        W14209  24.516  10.369  11.032
52844W        W14210  35.586  27.656   4.639
52845W        W14211  22.576  26.024   3.289
52846W        W14212  25.521  20.101   0.910
52847W        W14213  33.510   3.795  10.491
52848W        W14214  13.252  26.031  13.473
52849W        W14215   0.465  11.275  11.991
52850W        W14216   7.212  19.673  11.990
52851W        W14217  31.496  24.203  14.017
52852W        W14218  19.148  31.052   2.244
52853W        W14219  19.648  18.100  14.420
52854W        W14220  38.456  19.131   4.139
52855W        W14221   1.773  25.112   5.262
52856W        W14222  11.630   5.697  11.461
52857W        W14223   3.790   4.745   0.402
52858W        W14224  10.660  38.419  13.382
52859W        W14225  25.067  35.519   5.600
52860W        W14226   0.450  36.853  10.416
52861W        W14227   1.953  28.118  14.011
52862W        W14228  42.351  19.714  12.930
52863W        W14229  32.602  38.495  10.543
52864W        W14230  33.588  23.589   2.804
52865W        W14231  32.022   1.801  10.150
52866W        W14232  20.058   3.258  10.902
52867W        W14233  39.341   1.405   1.881
52868W        W14234  37.566   7.409  13.469
52869W        W14235  43.015  37.009  10.609
52870W        W14236  12.723  25.036  14.819
52871W        W14237  14.281   4.861   3.837
52872W        W14238  19.237  15.290  10.568
52873W        W14239  25.704   1.968  13.919
52874W        W14240  28.635  30.618  14.827
52875W        W14241  41.355  23.132   4.174
52876W        W14242   6.255   2.753  11.510
52877W        W14243   2.314  36.466   3.822
52878W        W14244  10.293  10.338  11.407
52879W        W14245  19.581   3.266   2.894
52880W        W14246  34.017  26.085   2.671
52881W        W14247   7.743  32.498  13.382
52882W        W14248  42.987  41.493  13.889
52883W        W14249   3.746  25.145   0.348
52884W        W14250  12.356  41.805  14.005
52885W        W14251  18.746   5.860   1.308
52886W        W14252  16.162  17.211   4.608
52887W        W14253  25.571  25.047   1.255
52888W        W14254  31.522   0.285   4.354
52889W        W14255  38.462  27.599   2.865
52890W        W14256  15.327  23.034  13.955
52891W        W14257  32.583  39.999   0.321
52892W        W14258  40.523  23.068  11.060
52893W        W14259  32.555  12.162  10.998
52894W        W14260  16.657   8.841  12.526
52895W        W14261  19.055  42.422  11.942
52896W        W14262  40.872  10.808  13.526
52897W        W14263  31.993  38.523  12.421
52898W        W14264   2.371  34.063  11.421
52899W        W14265  34.563   0.491   2.396
52900W        W14266  21.566  21.110   1.870
52901W        W14267  25.680  26.463   0.886
52902W        W14268   6.383  24.669   0.290
52903W        W14269   4.716  24.107   0.298
52904W        W14270  34.442  40.304  14.897
52905W        W14271  23.599  21.717   1.257
52906W        W14272  41.015  24.036  11.374
52907W        W14273  16.190   8.168  11.470
52908W        W14274  18.740  29.529   0.382
52909W        W14275   6.378  36.948  12.521
52910W        W14276  12.247   1.818   2.703
52911W        W14277  15.175  23.025   3.839
52912W        W14278   6.186  18.606   1.753
52913W        W14279  41.471   8.792   4.632
52914W        W14280  41.806  44.867  13.461
52915W        W14281  38.846  10.208  13.504
52916W        W14282  44.486  21.038   0.249
52917W        W14283  15.231  21.615   0.336
52918W        W14284  22.704  24.990   0.774
52919W        W14285  12.696  42.308   1.772
52920W        W14286  40.548  35.962   0.325
52921W        W14287   3.311   7.677  10.985
52922W        W14288  24.986  10.231   4.712
52923W        W14289  11.177   7.907   4.655
52924W        W14290  11.622   6.372  11.045
52925W        W14291  26.960  21.563  12.876
52926W        W14292  18.093   9.729   1.240
52927W        W14293  44.393  36.049  12.987
52928W        W14294  23.592  37.833  13.899
52929W        W14295  29.945  11.782  11.565
52930W        W14296  16.255  13.332   1.763
52931W        W14297  34.510  14.181   2.710
52932W        W14298  10.287  11.805  14.781
52933W        W14299  14.821  23.543  13.358
52934W        W14300  38.046  42.814   2.701
52935W        W14301  17.159  14.792  11.899
52936W        W14302  16.314  16.712   1.320
52937W        W14303  22.204  40.995  14.448
52938W        W14304   2.938  11.638   2.185
52939W        W14305  17.220  30.108   4.670
52940W        W14306   2.924   1.741   1.777
52941W        W14307  41.836  39.995   2.309
52942W        W14308   7.750  43.496   4.800
52943W        W14309  12.831  15.579   3.687
52944W        W14310   5.898  38.337  10.533
52945W        W14311  40.817  40.894  13.991
52946W        W14312  15.601  30.994  14.452
52947W        W14313   5.375  28.063  13.869
52948W        W14314  17.749   1.822  10.476
52949W        W14315  32.953   0.431  10.897
52950W        W14316  32.428  21.098   4.198
52951W        W14317  37.014  26.016  11.443
52952W        W14318   6.839  11.798   3.744
52953W        W14319  14.610  44.815  13.949
52954W        W14320  25.006  30.161   0.781
52955W        W14321  29.527  15.780   2.742
52956W        W14322   5.719  43.860   3.325
52957W        W14323   2.850  34.926  14.354
52958W        W14324  27.030   7.734   1.907
52959W        W14325  22.716  11.633   3.200
52960W        W14326  13.821  34.405  10.554
52961W        W14327  30.575   2.786   3.657
52962W        W14328  43.410  19.130   4.727
52963W        W14329   2.355  44.875  13.931
52964W        W14330   5.390  29.111  13.546
52965W        W14331  39.522  18.638  13.371
52966W        W14332  20.612  42.314   3.716
52967W        W14333  44.417   7.788   3.803
52968W        W14334   0.824  37.426  10.462
52969W        W14335  22.651  33.084   2.766
52970W        W14336   0.859  43.021   3.355
52971W        W14337  23.633  16.613   0.948
52972W        W14338  19.572  17.626   4.205
52973W        W14339  31.642  40.443  14.032
52974W        W14340   3.381  14.626   1.713
52975W        W14341   1.938  40.908  11.602
52976W        W14342  42.926  12.293  10.517
52977W        W14343   0.271   1.786  13.431
52978W        W14344  11.132  33.491  12.835
52979W        W14345  30.541  10.777  11.970
52980W        W14346  15.696   6.914   0.405
52981W        W14347  13.674   4.443  14.009
52982W        W14348  26.199  43.420   4.633
52983W        W14349   8.680  38.953   1.879
52984W        W14350  35.400  15.709  13.002
52985W        W14351  12.318  15.649  13.461
52986W        W14352  34.469   9.673  11.486
52987W        W14353  24.704   8.308   0.446
52988W        W14354   8.263   1.237  12.844
52989W        W14355   5.785   2.745  11.941
52990W        W14356  43.335  35.481  14.784
52991W        W14357   0.472  20.696   0.394
52992W        W14358   6.849  22.547  11.915
52993W        W14359  44.832  42.004  13.312
52994W        W14360  27.588   7.289  13.937
52995W        W14361  28.050  33.419  10.641
52996W        W14362  35.515  31.518  10.421
52997W        W14363  44.797  17.255  11.935
52998W        W14364  30.430   1.824  13.982
52999W        W14365  31.413  32.633  14.969
53000W        W14366  17.741  26.126  10.504
53001W        W14367   2.901  38.423  11.510
53002W        W14368  22.246   2.854  11.987
53003W        W14369  43.286  26.593   2.891
53004W        W14370  20.137  29.470   2.835
53005W        W14371   9.714  18.635  10.993
53006W        W14372  40.011  38.940  13.313
53007W        W14373  36.438  14.230  13.408
53008W        W14374   8.243  18.669   1.402
53009W        W14375   0.982   0.248  12.468
53010W        W14376  32.010  23.711  10.447
53011W        W14377  31.565  29.110   0.344
53012W        W14378  37.338  34.077  10.531
53013W        W14379  14.672  43.296  11.384
53014W        W14380  28.031  34.586   0.418
53015W        W14381  22.211  27.544   1.921
53016W        W14382  12.705  41.882  14.389
53017W        W14383  11.845  44.004  12.925
53018W        W14384  39.949  30.417  13.363
53019W        W14385   2.874  20.260   3.839
53020W        W14386   4.702   7.348  12.007
53021W        W14387  27.531  32.632   1.821
53022W        W14388  17.590  29.594   0.373
53023W        W14389  23.623  25.676   0.402
53024W        W14390  33.593  36.045   3.803
53025W        W14391  14.101  34.596   2.224
53026W        W14392  15.237  25.522  12.930
53027W        W14393  12.845  44.497   5.298
53028W        W14394  44.899  14.179  12.839
53029W        W14395  30.419   9.170  14.457
53030W        W14396  31.089  28.522  14.995
53031W        W14397  34.005  33.011   1.745
53032W        W14398  15.249  35.088  10.413
53033W        W14399   8.680  19.271  14.968
53034W        W14400   5.882   3.259   1.293
53035W        W14401  31.932  42.785  12.035
53036W        W14402  12.317  13.730  11.967
53037W        W14403  16.620  28.128   4.601
53038W        W14404  24.689   1.329   1.916
53039W        W14405   9.805   4.926   4.801
53040W        W14406   3.324   7.384  13.983
53041W        W14407  22.075  26.674  13.327
53042W        W14408  44.470   7.849  11.977
53043W        W14409  33.467  29.503   0.288
53044W        W14410  22.098  23.596   1.744
53045W        W14411  28.679  22.083   4.608
53046W        W14412  36.549  28.130  10.061
53047W        W14413  30.440  17.228   4.145
53048W        W14414   7.212   3.230   0.456
53049W        W14415  44.957  27.584   5.208
53050W        W14416   4.450  15.592  13.878
53051W        W14417   2.747  34.030   4.757
53052W        W14418  40.027  11.679  12.412
53053W        W14419  17.241  20.648   4.736
53054W        W14420  31.055  15.635  10.954
53055W        W14421  23.241  40.816  10.449
53056W        W14422   4.879   6.749  12.014
53057W        W14423  37.067  31.579  12.936
53058W        W14424  14.094   6.708   2.340
53059W        W14425  24.176  40.832  13.024
53060W        W14426  28.056  15.144  10.160
53061W        W14427  31.516   9.773   0.403
53062W        W14428  20.583  24.691   2.803
53063W        W14429  22.702  30.575   3.703
53064W        W14430  14.728  18.100   0.423
53065W        W14431   0.881   2.367  10.565
53066W        W14432  24.540  42.854   2.269
53067W        W14433  44.436  39.063   2.680
53068W        W14434  38.023  29.559  13.056
53069W        W14435  27.187   6.699  14.287
53070W        W14436   3.363  18.678  14.860
53071W        W14437  22.592  26.158  14.292
53072W        W14438  14.705  12.344  11.041
53073W        W14439  43.394  33.104  11.605
53074W        W14440  10.151   2.916  11.889
53075W        W14441  22.220  18.664   4.262
53076W        W14442  22.232  30.487   3.823
53077W        W14443  23.179  10.670  14.919
53078W        W14444   4.318   3.292  14.790
53079W        W14445  22.017  40.365  11.902
53080W        W14446  44.397  27.492  13.037
53081W        W14447  36.373  43.512   5.203
53082W        W14448   7.735  21.186  14.781
53083W        W14449   4.739  21.642   0.727
53084W        W14450  34.382  32.073   2.312
53085W        W14451  33.006   0.373   3.742
53086W        W14452  22.178  16.686   1.232
53087W        W14453  19.161   3.237   3.681
53088W        W14454   5.727  34.116   3.307
53089W        W14455   5.882  35.577   1.435
53090W        W14456  30.650  26.690  13.810
53091W        W14457   1.439  34.426   4.280
53092W        W14458   1.304  13.262   3.644
53093W        W14459  16.790  36.393   1.257
53094W        W14460  38.567  11.867   1.804
53095W        W14461  17.667  35.483  10.430
53096W        W14462  17.258  28.535   2.290
53097W        W14463   3.244  23.234   1.373
53098W        W14464  11.739  32.895   1.728
53099W        W14465  37.444  38.431  10.421
53100W        W14466  38.967  12.814   4.688
53101W        W14467  19.055  31.418  11.052
53102W        W14468  31.624  41.496   2.782
53103W        W14469  38.553  28.442   1.737
53104W        W14470  16.616  36.957   1.923
53105W        W14471  17.222  23.557   2.818
53106W        W14472  39.550  18.141  13.424
53107W        W14473  27.627  27.108   3.279
53108W        W14474   6.247  30.140   4.804
53109W        W14475  18.589  23.669  13.944
53110W        W14476   1.936  23.557  11.392
53111W        W14477  21.167  19.264  12.493
53112W        W14478  22.174  17.132   3.338
53113W        W14479   1.379  18.259  11.565
53114W        W14480  17.272  42.796  14.930
53115W        W14481  44.477  44.780  13.382
53116W        W14482   4.366  33.458   1.704
53117W        W14483  37.955  32.903   0.305
53118W        W14484  33.402  38.054  11.506
53119W        W14485  22.075  27.082   1.724
53120W        W14486  22.561  11.805   4.333
53121W        W14487  35.399  33.528  14.892
53122W        W14488   4.808  40.349   4.796
53123W        W14489   7.702  15.171  14.022
53124W        W14490  44.377  44.494  14.476
53125W        W14491  29.064  21.550  14.924
53126W        W14492   3.411  22.123  12.575
53127W        W14493  24.510  36.931   0.249
53128W        W14494  44.841   9.172  13.942
53129W        W14495  44.275  40.873   4.180
53130W        W14496  41.986  27.195  10.987
53131W        W14497   1.433  39.400  10.892
53132W        W14498   9.646   4.280  14.871
53133W        W14499  25.507   3.426  11.895
53134W        W14500  43.801   1.959  11.379
53135W        W14501  23.691  22.023  13.874
53136W        W14502  34.451  17.276  14.478
53137W        W14503  36.897   7.732   1.211
53138W        W14504   5.849  30.065   4.198
53139W        W14505   0.869  37.401  11.608
53140W        W14506  40.802  43.455  14.783
53141W        W14507  14.270  28.084  12.874
53142W        W14508   7.854  27.513  13.888
53143W        W14509  18.615  42.808   1.302
53144W        W14510  11.757  20.162   3.301
53145W        W14511  22.743  30.110   4.193
53146W        W14512  38.349  15.122  11.573
53147W        W14513  36.978   2.290  13.375
53148W        W14514  40.499  36.523   3.376
53149W        W14515  26.636  11.745  11.387
53150W        W14516  25.540   1.472  14.002
53151W        W14517  17.273   9.711   1.800
53152W        W14518   2.771  24.598  13.520
53153W        W14519  18.147  13.794  12.864
53154W        W14520   6.371  40.938   3.272
53155W        W14521   8.749  16.602   5.705
53156W        W14522  11.262   0.453   3.255
53157W        W14523  36.060  29.033   3.848
53158W        W14524  42.955  25.989  13.040
53159W        W14525  35.032  25.644  11.373
53160W        W14526   9.279   5.348   0.324
53161W        W14527  10.155  23.117   0.963
53162W        W14528   1.397  13.703  11.908
53163W        W14529   7.683  24.134   1.727
53164W        W14530  43.975  20.648   0.906
53165W        W14531  33.532  17.160   1.705
53166W        W14532  40.901   1.894  14.805
53167W        W14533  12.664  32.590  11.962
53168W        W14534  21.150  18.077   3.629
53169W        W14535   3.719  14.824  10.568
53170W        W14536  24.182   3.936  10.542
53171W        W14537  26.987  42.967  12.454
53172W        W14538   9.789   7.834  14.891
53173W        W14539  32.462  19.664   3.803
53174W        W14540  30.908   2.910   4.602
53175W        W14541   0.386   3.394  13.417
53176W        W14542  43.816  40.824   4.778
53177W        W14543  27.675  35.097  11.538
53178W        W14544  11.715  20.242   4.267
53179W        W14545  39.966  26.072  13.008
53180W        W14546  35.441   1.468  14.026
53181W        W14547   8.675   4.841   0.806
53182W        W14548  24.058   0.876   0.395
53183W        W14549  43.882  35.600   0.750
53184W        W14550  32.077  37.917  14.292
53185W        W14551  17.569   6.753  11.433
53186W        W14552  27.067  24.622   4.773
53187W        W14553  13.231  11.750  14.939
53188W        W14554  26.186   8.286  12.846
53189W        W14555  37.431  22.150   2.864
53190W        W14556  22.651  12.818   4.636
53191W        W14557  19.142  20.110   4.676
53192W        W14558  12.675  25.572  14.297
53193W        W14559  15.804   1.887   4.752
53194W        W14560  25.113  19.123  11.527
53195W        W14561  22.700  30.007   1.412
53196W        W14562  40.436  41.954  11.536
53197W        W14563  25.492  12.650  11.409
53198W        W14564  30.909   6.417  11.532
53199W        W14565   0.845  30.023   2.205
53200W        W14566   4.433  20.703  12.865
53201W        W14567  22.514  38.927  13.398
53202W        W14568  43.009  40.479   0.813
53203W        W14569   8.173  24.036  10.469
53204W        W14570  13.603  14.792  13.310
53205W        W14571  30.424   9.268  11.948
53206W        W14572  32.038  12.314   0.908
53207W        W14573  27.031  15.225  12.434
53208W        W14574   4.264   4.915   5.132
53209W        W14575  34.602  27.064  13.795
53210W        W14576  44.811  40.542   3.165
53211W        W14577  21.712  25.579  13.013
53212W        W14578   5.375  39.423  10.898
53213W        W14579  23.072  14.315  11.989
53214W        W14580  31.967  40.027   0.343
53215W        W14581  37.856   2.795   4.342
53216W        W14582  38.350   0.884  11.092
53217W        W14583  30.131  18.605   1.738
53218W        W14584  31.913  35.019  11.475
53219W        W14585  39.007  20.234  14.897
53220W        W14586  20.202  34.006   1.914
53221W        W14587  15.155   2.888   3.697
53222W        W14588  38.427  26.986   3.844
53223W        W14589   3.806   3.235   4.135
53224W        W14590  30.561  23.192   0.274
53225W        W14591   1.805  11.699   3.324
53226W        W14592  10.301  29.133   0.394
53227W        W14593   3.794  23.991  14.818
53228W        W14594   0.867   8.176   4.328
53229W        W14595  28.598  10.794   2.285
53230W        W14596  12.187  24.711   3.864
53231W        W14597  38.002  13.199  11.890
53232W        W14598  34.499  36.049   0.310
53233W        W14599  38.913  21.033   0.279
53234W        W14600  35.055   0.332   2.242
53235W        W14601   1.318  13.268  12.079
53236W        W14602  16.286  25.137  12.018
53237W        W14603  36.932  26.515   0.883
53238W        W14604  34.393   0.926  10.503
53239W        W14605   8.268  17.761  11.978
53240W        W14606  17.740  40.451   2.786
53241W        W14607  17.078  16.306   1.243
53242W        W14608   8.294  30.937  13.917
53243W        W14609   6.418  44.847   2.706
53244W        W14610   0.944  29.974   4.187
53245W        W14611   4.878  22.559   3.262
53246W        W14612  37.073   4.336   2.774
53247W        W14613  44.962  37.405  11.024
53248W        W14614  14.832   2.254   2.339
53249W        W14615  15.148  13.823   1.248
53250W        W14616  30.941   6.353   1.909
53251W        W14617  21.745  32.131  12.399
53252W        W14618  36.570  43.308   4.291
53253W        W14619  12.313  29.946   3.371
53254W        W14620  11.849   3.310   0.746
53255W        W14621   9.247  42.500  11.563
53256W        W14622   9.302  15.233  13.869
53257W        W14623  23.023  41.917  12.843
53258W        W14624  12.217  32.101   9.946
53259W        W14625  42.314  11.157   0.328
53260W        W14626  12.652   0.360   0.268
53261W        W14627  42.462  17.198   2.729
53262W        W14628  24.723  34.899  13.343
53263W        W14629  32.977  44.384   0.351
53264W        W14630   0.759   0.381   4.194
53265W        W14631   0.891  43.765   9.948
53266W        W14632  21.209  40.549   3.251
53267W        W14633  11.322  28.524  12.022
53268W        W14634  13.111  21.575  11.419
53269W        W14635  34.934  31.102  14.985
53270W        W14636  13.132  20.610  11.031
53271W        W14637  18.721  40.809  11.018
53272W        W14638  39.524  19.101  14.412
53273W        W14639  32.610  18.619   3.248
53274W        W14640  28.001  33.506  12.823
53275W        W14641  19.220  36.059  11.109
53276W        W14642  19.045  32.083  13.454
53277W        W14643  37.384  39.460  13.797
53278W        W14644  37.843  43.917   0.305
53279W        W14645  31.605  15.704   0.798
53280W        W14646  27.160  29.564  12.900
53281W        W14647   8.275  14.110  10.910
53282W        W14648  39.386  34.522   3.307
53283W        W14649  17.086  16.273   2.217
53284W        W14650  11.803  10.346   3.752
53285W        W14651  43.951  14.816   2.662
53286W        W14652  22.172   6.267  12.400
53287W        W14653  26.484  35.055  11.399
53288W        W14654  11.800  36.469  11.929
53289W        W14655  22.709  20.666  12.928
53290W        W14656   2.899   5.305  12.427
53291W        W14657  37.545  33.591   1.345
53292W        W14658   4.249  42.387   1.356
53293W        W14659  29.510  20.247  12.440
53294W        W14660  36.946  35.036   3.204
53295W        W14661  39.815  32.577  13.994
53296W        W14662  16.776  33.902   3.780
53297W        W14663  43.882  14.098  14.941
53298W        W14664  10.314  24.051  12.940
53299W        W14665  37.066  17.143   0.906
53300W        W14666  41.379  35.508  12.912
53301W        W14667  32.088  41.892   4.651
53302W        W14668  41.978   8.844  10.011
53303W        W14669  23.638   1.388   0.326
53304W        W14670  22.641  32.930   4.706
53305W        W14671  10.184  26.489  11.117
53306W        W14672  13.745  10.836  10.946
53307W        W14673  14.107  28.618   4.350
53308W        W14674   6.847  21.552  10.940
53309W        W14675  40.332  38.525   4.613
53310W        W14676   7.283  43.464   5.113
53311W        W14677  25.118  10.189  12.876
53312W        W14678  19.272  40.433   0.752
53313W        W14679  31.544  19.663   2.883
53314W        W14680  31.101   3.433   4.804
53315W        W14681  25.706   9.666   2.749
53316W        W14682  11.351   3.429  12.352
53317W        W14683  36.386  40.023   3.761
53318W        W14684  36.474  23.159  11.122
53319W        W14685  31.574   1.268  14.994
53320W        W14686   1.384  16.647   3.736
53321W        W14687  40.822   7.762   2.390
53322W        W14688   9.225  25.471   4.699
53323W        W14689  17.758  25.188   1.836
53324W        W14690  17.653   9.674   0.891
53325W        W14691  44.329  40.302   3.360
53326W        W14692  34.591   3.864  14.883
53327W        W14693  38.481  34.440   1.777
53328W        W14694  26.472  12.278   1.221
53329W        W14695  40.311  36.927  14.501
53330W        W14696  37.002   0.294  11.088
53331W        W14697  40.847  25.027  11.923
53332W        W14698   1.386  19.175   1.869
53333W        W14699  30.140  39.377  13.900
53334W        W14700  35.894  32.565   0.814
53335W        W14701  36.982   2.859  10.410
53336W        W14702  14.699  39.461  14.969
53337W        W14703   4.799  15.184  13.426
53338W        W14704  24.488  25.008   4.130
53339W        W14705  21.168  10.673  14.288
53340W        W14706  32.998   1.381   4.679
53341W        W14707  44.369  42.443  10.907
53342W        W14708  23.217  24.207  13.523
53343W        W14709  20.708  14.180   3.301
53344W        W14710  15.220   4.253  14.504
53345W        W14711  32.560  22.015   0.949
53346W        W14712  20.523  23.630   4.679
53347W        W14713  22.553  14.638  10.600
53348W        W14714   5.381  43.950  11.590
53349W        W14715  34.601   0.410   0.383
53350W        W14716  13.119  17.121   4.253
53351W        W14717  37.959  13.206  12.410
53352W        W14718  33.484  41.860  13.032
53353W        W14719  37.854  15.239  10.578
53354W        W14720  41.293  15.296  11.906
53355W        W14721  42.345  37.373  13.394
53356W        W14722  38.499  14.172   4.304
53357W        W14723   3.264  33.038  12.014
53358W        W14724  18.712  19.139  14.295
53359W        W14725  28.014  10.239  12.412
53360W        W14726  24.500  30.653   1.345
53361W        W14727  40.031   1.260   3.262
53362W        W14728  41.981   9.668   1.244
53363W        W14729  36.853  19.068  13.054
53364W        W14730   8.757  39.908   0.262
53365W        W14731   7.786  22.589   0.885
53366W        W14732  36.466   5.914   0.827
53367W        W14733  33.620  19.118  13.482
53368W        W14734   8.737  35.601  11.477
53369W        W14735  29.988  30.512   3.673
53370W        W14736  22.629  22.048   3.641
53371W        W14737  20.171  43.319   4.743
53372W        W14738  21.628  41.846  10.519
53373W        W14739  33.443  44.924  14.792
53374W        W14740   6.781  21.718   4.299
53375W        W14741   4.297   5.890   4.331
53376W        W14742  44.964  27.969   5.160
53377W        W14743   4.400  16.573  10.419
53378W        W14744  32.897  27.025  12.961
53379W        W14745   7.678  43.298   3.278
53380W        W14746   1.249  31.988  11.999
53381W        W14747  35.530  13.216  10.642
53382W        W14748  12.850  17.207   3.663
53383W        W14749  16.808   2.961  13.937
53384W        W14750  24.090  28.570  14.829
53385W        W14751  19.715   4.436   3.164
53386W        W14752  18.134  35.895  12.865
53387W        W14753  29.617  16.184   2.316
53388W        W14754  26.997  14.701  14.508
53389W        W14755  16.185  10.839   3.835
53390W        W14756  40.456  19.733  14.458
53391W        W14757  38.939  43.343   0.840
53392W        W14758  41.352  11.727  11.952
53393W        W14759  44.921  12.772  10.527
53394W        W14760  18.712  19.576  14.452
53395W        W14761  38.549  14.639   2.890
53396W        W14762  33.007   6.250   0.771
53397W        W14763  32.919  36.013  12.906
53398W        W14764   2.324  36.430   4.834
53399W        W14765  43.841  35.468   0.475
53400W        W14766  13.139   1.919   0.748
53401W        W14767  44.438  42.366   3.814
53402W        W14768  44.461  37.083  11.595
53403W        W14769  15.130   7.273  14.287
53404W        W14770  40.419  27.556   0.796
53405W        W14771  43.939   0.846   0.854
53406W        W14772   8.373  21.741   4.839
53407W        W14773  21.575   0.795   0.735
53408W        W14774   3.753   2.913   0.934
53409W        W14775  18.186  41.970  13.417
53410W        W14776  21.545  12.800  13.894
53411W        W14777  28.567  42.411  13.380
53412W        W14778  39.887  15.157   3.311
53413W        W14779  18.615  36.432  10.899
53414W        W14780  29.644  38.333  13.869
53415W        W14781  35.493  33.015   4.181
53416W        W14782   5.341  27.028   0.727
53417W        W14783  14.205  31.962  11.004
53418W        W14784  40.987  44.505  14.465
53419W        W14785   9.252  36.574  12.994
53420W        W14786   9.876  44.996   4.134
53421W        W14787  43.362  18.184  14.380
53422W        W14788  40.956  16.568  13.487
53423W        W14789  26.515  37.950  14.925
53424W        W14790  39.025  15.300  12.977
53425W        W14791   4.910   1.436   2.665
53426W        W14792  36.571  28.943   4.200
53427W        W14793  16.217  21.549  12.919
53428W        W14794  22.597  38.430  11.113
53429W        W14795   5.325  24.603   1.718
53430W        W14796  13.609  33.031  14.761
53431W        W14797  35.474  25.985   1.291
53432W        W14798  42.981  14.209  10.992
53433W        W14799  39.553  41.003  11.125
53434W        W14800  27.075   7.316  11.469
53435W        W14801   8.891  33.897   1.875
53436W        W14802  28.988   8.702   3.161
53437W        W14803  19.756  34.556   5.266
53438W        W14804  23.506  25.659  14.880
53439W        W14805  16.239  40.902   0.417
53440W        W14806  21.608   1.954   2.315
53441W        W14807   7.691  42.991   3.293
53442W        W14808  30.537  41.865  14.512
53443W        W14809  20.526  14.243   4.646
53444W        W14810  16.573  42.835  10.588
53445W        W14811  11.300  22.554   2.345
53446W        W14812  27.640  18.166   1.282
53447W        W14813   7.186  44.759   3.788
53448W        W14814  27.556  12.214   0.903
53449W        W14815  39.990  16.579   0.464
53450W        W14816   0.368  12.810  12.342
53451W        W14817  37.902  12.851  12.968
53452W        W14818  36.870  35.526  12.528
53453W        W14819  39.517  16.202   3.348
53454W        W14820  33.083  11.347  10.958
53455W        W14821  44.365  28.162  13.454
53456W        W14822  14.332  20.740   1.242
53457W        W14823   7.763  24.644   4.702
53458W        W14824  39.543  20.621  10.449
53459W        W14825  31.142  22.238  10.944
53460W        W14826  38.341  40.841   4.815
53461W        W14827  34.940  31.474  13.032
53462W        W14828  15.150  17.185   3.670
53463W        W14829   8.373  24.700  13.331
53464W        W14830  29.449  22.510  13.488
53465W        W14831  28.524  42.505   4.209
53466W        W14832  24.588   2.869  11.984
53467W        W14833   4.878   6.323   2.378
53468W        W14834  28.950  25.060  10.902
53469W        W14835  20.076  34.568  11.921
53470W        W14836  36.902  27.985  13.918
53471W        W14837  18.068   2.388   4.669
53472W        W14838  11.270   4.377  12.455
53473W        W14839  44.492  16.117  10.443
53474W        W14840  10.641  35.033  13.469
53475W        W14841  11.775  28.962   0.377
53476W        W14842  17.566  32.555   1.699
53477W        W14843  18.150   7.373  12.002
53478W        W14844  28.679  27.591   9.945
53479W        W14845   0.963  44.968  14.859
53480W        W14846  12.831  19.174   4.321
53481W        W14847  34.431  24.001  10.599
53482W        W14848  34.467  27.197  12.865
53483W        W14849  20.638  41.386   0.275
53484W        W14850   0.467  24.196   2.707
53485W        W14851   7.323   6.425  11.454
53486W        W14852  31.457  12.187  13.415
53487W        W14853  14.259   7.806  14.488
53488W        W14854  12.351  15.682  13.903
53489W        W14855  18.224  32.980  11.973
53490W        W14856  13.833  44.896  13.064
53491W        W14857  29.073  27.457  13.477
53492W        W14858  27.102  19.552  10.960
53493W        W14859  24.032  35.069  11.506
53494W        W14860  13.838  15.758  14.309
53495W        W14861  26.179  21.741  13.990
53496W        W14862   6.867   6.333   9.607
53497W        W14863  39.961  30.913  10.921
53498W        W14864  17.642   6.901  13.940
53499W        W14865  23.088  33.970   1.921
53500W        W14866  23.072  18.567   1.381
53501W        W14867  44.832   7.801   4.257
53502W        W14868  14.233  44.925   0.925
53503W        W14869   6.741  11.829  14.392
53504W        W14870  40.305  16.223   2.323
53505W        W14871  38.835   6.381  13.361
53506W        W14872  38.954  44.839   2.884
53507W        W14873  11.162  40.966  11.979
53508W        W14874  27.186  28.486   1.816
53509W        W14875   6.346  30.991   3.295
53510W        W14876  44.268  23.072   1.230
53511W        W14877  40.937  35.535  13.526
53512W        W14878  13.602  12.247   1.413
53513W        W14879  26.038   1.418   4.746
53514W        W14880  10.699  14.142  13.397
53515W        W14881  29.435  33.966  10.525
53516W        W14882  35.561  37.409   5.287
53517W        W14883   2.784  18.601   3.310
53518W        W14884  41.482  37.003   4.637
53519W        W14885  40.471   9.763   2.857
53520W        W14886  11.294  15.596   1.703
53521W        W14887  42.792  41.868  10.968
53522W        W14888  27.455   1.378   4.816
53523W        W14889  36.054   0.381   3.161
53524W        W14890   2.828   3.891  11.613
53525W        W14891   0.779   8.377  14.772
53526W        W14892  28.103  36.457  14.873
53527W        W14893  26.048   9.356   1.225
53528W        W14894  18.628  40.940  14.842
53529W        W14895  29.561  38.397   0.333
53530W        W14896  34.604  25.538  12.523
53531W        W14897   0.408   8.842   1.902
53532W        W14898   0.858  32.065  14.889
53533W        W14899  30.938  22.741  10.925
53534W        W14900  23.219  17.666  14.425
53535W        W14901  29.452  15.793  10.470
53536W        W14902  34.083  23.688   1.357
53537W        W14903   4.382  36.496   2.717
53538W        W14904  26.137   9.329  14.444
53539W        W14905  16.740   3.817   3.631
53540W        W14906   0.390  12.707  13.014
53541W        W14907  22.735  13.726  12.533
53542W        W14908   5.347  11.741   1.297
53543W        W14909  20.574   2.276  10.891
53544W        W14910   2.786  12.798   0.266
53545W        W14911  12.308  34.065   3.345
53546W        W14912  26.992   8.371  11.902
53547W        W14913  27.068  29.988  10.959
53548W        W14914  26.632  31.464   1.362
53549W        W14915  25.570   7.855  14.302
53550W        W14916   0.950   0.925   3.356
53551W        W14917  14.175  19.654  11.605
53552W        W14918  11.836   6.684  12.050
53553W        W14919   4.715   0.967  13.928
53554W        W14920  42.821  21.727   1.862
53555W        W14921   7.816  12.759   3.197
53556W        W14922  37.952  42.833  12.971
53557W        W14923  42.295   1.774  13.812
53558W        W14924  32.017  20.152  12.025
53559W        W14925   4.268   4.731  12.842
53560W        W14926   5.401  31.032   4.624
53561W        W14927  30.066  33.496   3.280
53562W        W14928  38.923  25.124   0.412
53563W        W14929   4.774  28.940  13.860
53564W        W14930   5.823  23.155   1.329
53565W        W14931  22.054  26.135   3.835
53566W        W14932  10.691  38.456  13.062
53567W        W14933  18.095   0.835   2.274
53568W        W14934  38.410  14.598  14.834
53569W        W14935  15.309   2.756  13.428
53570W        W14936   5.846   7.900   3.760
53571W        W14937  30.424  38.875  14.408
53572W        W14938  32.968   1.325   3.255
53573W        W14939  31.915  10.330  13.860
53574W        W14940  27.128  23.532  14.474
53575W        W14941  32.607  39.449  13.498
53576W        W14942  12.190  31.099  12.891
53577W        W14943  21.545  33.029  11.939
53578W        W14944   4.712  15.814  14.774
53579W        W14945   5.761  33.890  11.459
53580W        W14946  26.036  29.922  12.840
53581W        W14947  39.350  37.057   1.327
53582W        W14948   0.894  43.960  13.342
53583W        W14949  21.695  10.244  12.088
53584W        W14950  18.646  32.018  14.964
53585W        W14951  44.913  36.522   4.762
53586W        W14952  40.958   7.289   0.280
53587W        W14953  22.620  32.049   3.828
53588W        W14954   9.882  12.121  12.442
53589W        W14955  42.297   0.454  14.352
53590W        W14956  25.170  25.699   0.477
53591W        W14957   2.289   9.160  14.308
53592W        W14958   3.849  23.044   4.178
53593W        W14959   6.354  32.535  13.957
53594W        W14960  43.411  40.826   0.790
53595W        W14961  42.475  43.344  11.377
53596W        W14962   3.824   9.759   1.220
53597W        W14963  42.346   7.810   0.961
53598W        W14964   1.943  41.489  10.890
53599W        W14965   2.364  22.605  11.094
53600W        W14966  18.589  10.296   1.281
53601W        W14967   3.910   7.319  12.043
53602W        W14968   4.863  33.942   2.412
53603W        W14969  40.953  34.863   1.713
53604W        W14970  31.504  16.694  14.974
53605W        W14971  21.031  43.020   1.341
53606W        W14972  10.645  43.845   0.453
53607W        W14973   6.276  24.222   1.829
53608W        W14974  11.339  33.100  13.462
53609W        W14975  38.513  32.920  14.924
53610W        W14976   1.823  33.521   3.654
53611W        W14977  35.951  43.926  14.029
53612W        W14978  16.693  23.127   0.932
53613W        W14979  41.536   6.266   0.325
53614W        W14980  19.779  44.901   1.816
53615W        W14981  12.809  27.091   2.323
53616W        W14982  36.569  10.797  11.891
53617W        W14983  37.426  30.120  11.122
53618W        W14984  30.136  30.494  10.911
53619W        W14985  40.914  34.412   2.711
53620W        W14986   0.321  20.632  12.421
53621W        W14987   5.858  42.455   3.172
53622W        W14988  32.412  23.578  10.101
53623W        W14989  30.114  24.545   0.480
53624W        W14990  26.060   7.230  12.866
53625W        W14991  20.711  33.387  13.426
53626W        W14992   8.714  15.250  14.929
53627W        W14993  13.180  22.245   1.891
53628W        W14994  27.994   7.804   0.752
53629W        W14995  41.861  18.190  14.974
53630W        W14996  10.361   3.953  12.572
53631W        W14997  21.724   4.418   1.826
53632W        W14998   8.272  23.041   3.748
53633W        W14999   3.834  10.190  10.120
53634W        W15000  13.255  38.916   4.740
53635W        W15001  41.013  27.990   2.405
53636W        W15002   4.717  26.609   4.626
53637W        W15003   1.966  11.631   0.364
53638W        W15004  38.847  35.072   4.326
53639W        W15005   2.402  38.999  13.429
53640W        W15006  30.023   9.179  13.503
53641W        W15007  38.423  19.064   0.791
53642W        W15008  10.372   7.358   1.432
53643W        W15009   0.918   4.226   0.427
53644W        W15010   6.410   7.272  10.497
53645W        W15011  12.127  27.093  13.471
53646W        W15012  22.099  39.911  12.864
53647W        W15013   0.860  39.448   1.370
53648W        W15014  38.440   2.877   0.330
53649W        W15015  38.440  10.156  12.854
53650W        W15016  38.854  19.647   4.794
53651W        W15017  38.067  26.109   2.692
53652W        W15018  12.322  24.554   3.225
53653W        W15019  38.379  32.020   3.857
53654W        W15020  42.426  44.851   1.932
53655W        W15021  15.101  31.428   1.751
53656W        W15022  39.429  41.448   2.361
53657W        W15023  36.894  22.056   3.752
53658W        W15024  19.224  38.493   1.795
53659W        W15025  18.682  30.542   5.120
53660W        W15026  10.819  20.086   3.701
53661W        W15027   2.789  42.468  14.887
53662W        W15028  24.552  29.947  13.515
53663W        W15029  21.026  32.934   2.880
53664W        W15030  13.199  40.373   4.722
53665W        W15031  23.233  42.949  13.908
53666W        W15032   0.479  26.664  11.377
53667W        W15033  39.452   8.328  13.395
53668W        W15034   6.374  22.644   1.825
53669W        W15035  20.757  30.948  11.875
53670W        W15036   4.292   6.746   3.194
53671W        W15037  16.283  30.920   4.737
53672W        W15038  36.979  30.952   4.320
53673W        W15039  21.529  44.900  11.128
53674W        W15040  39.405  43.875  14.811
53675W        W15041  22.535  26.146  11.978
53676W        W15042   3.805  36.860  14.973
53677W        W15043  28.483   7.895  11.048
53678W        W15044  24.178  15.240   1.914
53679W        W15045  23.127  28.610  11.978
53680W        W15046  43.447  42.979  11.902
53681W        W15047  24.585   3.454   0.882
53682W        W15048   4.387  25.636   0.942
53683W        W15049  37.072  10.323  12.991
53684W        W15050   5.837   4.841  12.967
53685W        W15051  35.592  23.718   3.347
53686W        W15052  42.436  23.699   3.381
53687W        W15053  22.575  35.456   0.956
53688W        W15054   3.257   2.242  12.372
53689W        W15055  22.543  18.259   2.689
53690W        W15056  39.818   5.691   2.412
53691W        W15057  10.355  37.465  11.580
53692W        W15058   7.226  21.170  10.507
53693W        W15059  10.253  22.652   0.252
53694W        W15060  26.981  42.338  10.914
53695W        W15061  41.788  20.094  13.459
53696W        W15062   0.875  34.458   2.681
53697W        W15063  14.289  33.535  14.368
53698W        W15064  17.221   3.364   0.404
53699W        W15065  13.678  37.570  12.354
53700W        W15066   9.797  13.675   4.234
53701W        W15067  15.097  33.071   3.698
53702W        W15068   0.949  40.802   2.374
53703W        W15069   2.726  26.046   1.273
53704W        W15070  27.070   8.876  12.028
53705W        W15071  15.199  33.452  10.461
53706W        W15072   1.264  43.504   2.868
53707W        W15073   1.374   5.343   3.709
53708W        W15074  28.184   5.302   4.766
53709W        W15075   1.889  20.080   3.292
53710W        W15076  23.554  22.144  11.863
53711W        W15077  44.898  18.750   2.826
53712W        W15078   7.245  23.580  12.448
53713W        W15079  23.695   5.840  13.500
53714W        W15080   3.230   2.747  12.914
53715W        W15081   0.829  24.638   0.879
53716W        W15082  37.076  13.643   2.331
53717W        W15083  19.279   6.858   3.347
53718W        W15084  32.596  22.164   4.189
53719W        W15085  24.166  18.749   1.365
53720W        W15086   1.900  35.076  12.341
53721W        W15087  14.795  12.288   1.251
53722W        W15088   2.784  23.198  14.427
53723W        W15089  38.901  32.115   2.889
53724W        W15090  18.145  25.704   2.185
53725W        W15091  23.222   5.368   1.338
53726W        W15092  22.127  19.538   3.204
53727W        W15093  39.819  15.758  11.060
53728W        W15094  13.734   3.366  11.998
53729W        W15095  40.043   1.840   2.187
53730W        W15096   5.316  27.653  11.051
53731W        W15097  21.110  37.377  11.528
53732W        W15098  10.298  43.001   0.416
53733W        W15099  38.969  44.799   3.712
53734W        W15100  33.584  11.201  14.989
53735W        W15101  37.061  14.794  10.599
53736W        W15102  44.466  31.013   1.878
53737W        W15103  19.261  34.572  13.846
53738W        W15104   3.741  28.523   3.183
53739W        W15105  44.463  27.563   0.356
53740W        W15106  32.105   8.253   3.145
53741W        W15107   7.386  37.430  11.426
53742W        W15108  42.312  11.652  14.306
53743W        W15109   2.335  43.789   4.646
53744W        W15110  26.016  11.676   3.294
53745W        W15111   6.252  41.487  13.433
53746W        W15112  10.727  10.211   3.260
53747W        W15113  11.775   9.317  10.476
53748W        W15114  30.988   5.892  10.488
53749W        W15115  37.895   1.762   4.304
53750W        W15116  19.606  37.366   0.250
53751W        W15117  15.655  36.090  10.953
53752W        W15118   9.382  32.016  11.958
53753W        W15119  26.461  36.095   1.788
53754W        W15120  41.891   5.729  12.022
53755W        W15121  31.069  25.547   3.866
53756W        W15122  10.669  29.165   4.788
53757W        W15123  28.555  14.151  11.422
53758W        W15124   2.232  37.427  14.296
53759W        W15125  22.014   8.217  10.959
53760W        W15126  13.130  13.659  10.914
53761W        W15127  35.958  14.111  14.434
53762W        W15128  33.614  39.477   9.514
53763W        W15129  16.264  44.292  10.605
53764W        W15130   1.977  40.990  14.370
53765W        W15131  41.323  41.498  12.494
53766W        W15132  33.125  27.669   2.669
53767W        W15133  31.573  19.647  13.987
53768W        W15134  39.368   4.936  13.327
53769W        W15135  24.583  38.883   1.869
53770W        W15136  17.666  20.667  14.510
53771W        W15137  25.680  12.658  11.939
53772W        W15138  29.520  27.186  12.069
53773W        W15139  33.612  26.554   3.829
53774W        W15140   3.314   1.974   0.441
53775W        W15141  19.534  37.345  12.035
53776W        W15142  21.590   6.395  12.921
53777W        W15143   9.717  23.168   1.795
53778W        W15144  34.420  27.482   3.195
53779W        W15145   1.842  42.814   5.139
53780W        W15146   1.818  20.245  13.337
53781W        W15147  23.179  26.989   2.843
53782W        W15148   3.833  38.447  13.061
53783W        W15149  28.538  29.933  12.986
53784W        W15150  23.565   8.202   0.324
53785W        W15151   0.907  12.324  11.520
53786W        W15152  24.512  23.987  11.008
53787W        W15153  27.039  24.056  13.994
53788W        W15154  17.757   1.302  13.344
53789W        W15155  11.826   3.289   2.806
53790W        W15156  40.381   3.438   1.219
53791W        W15157  35.964   5.931  13.005
53792W        W15158  24.228   8.812   4.143
53793W        W15159  31.511  36.450  11.584
53794W        W15160  34.599   7.751  11.034
53795W        W15161  14.292  38.873   4.605
53796W        W15162  25.474  14.319   0.920
53797W        W15163  30.646  38.896   3.330
53798W        W15164  30.993  15.801   4.329
53799W        W15165  15.672  30.100   0.414
53800W        W15166  39.516  19.662   0.316
53801W        W15167  18.773  37.082   2.890
53802W        W15168  10.729  41.479  11.894
53803W        W15169   2.733  33.054  10.645
53804W        W15170  30.474  27.995  11.462
53805W        W15171  19.183   4.815  14.433
53806W        W15172  44.421  18.707   1.894
53807W        W15173  14.134  24.064  14.995
53808W        W15174  29.513  24.579   4.777
53809W        W15175  38.981   0.379  13.378
53810W        W15176  42.449  38.021   1.242
53811W        W15177   5.376  12.693  14.475
53812W        W15178  18.237  41.970   3.843
53813W        W15179  34.917   5.906   0.922
53814W        W15180  40.380  31.515   1.924
53815W        W15181  14.338  18.265  14.809
53816W        W15182   8.839  19.613  13.869
53817W        W15183  20.185  42.902  10.895
53818W        W15184   8.179  37.445  11.973
53819W        W15185  42.289   6.272  12.867
53820W        W15186  18.568   3.800  13.347
53821W        W15187  20.594  29.651  13.021
53822W        W15188  38.477   7.783  13.479
53823W        W15189  16.318  36.459   4.139
53824W        W15190   7.293  42.392  14.991
53825W        W15191  19.634   8.841  12.063
53826W        W15192  41.402  33.384  14.895
53827W        W15193  36.499  35.505  11.411
53828W        W15194  37.857   9.235   0.408
53829W        W15195  11.352   6.845  11.512
53830W        W15196  33.898  20.723   4.614
53831W        W15197  41.301  18.734  14.866
53832W        W15198  25.050  36.417  14.763
53833W        W15199  38.517  31.083  14.477
53834W        W15200  29.150  32.085  12.555
53835W        W15201  30.540  33.986  12.026
53836W        W15202  14.663  28.157   2.352
53837W        W15203  14.618  24.993   0.826
53838W        W15204  37.417  42.395  10.507
53839W        W15205  11.859  22.148  12.438
53840W        W15206  44.983  12.661  13.954
53841W        W15207  10.149   1.964   3.221
53842W        W15208  44.929   8.754   0.307
53843W        W15209   0.964  26.144  14.324
53844W        W15210  32.469  35.525   4.308
53845W        W15211  25.548  26.125   3.176
53846W        W15212  42.450   5.927  11.919
53847W        W15213  23.209   7.751   4.248
53848W        W15214   0.487  22.243   2.807
53849W        W15215   2.421  23.732  13.064
53850W        W15216  11.699   9.660   2.824
53851W        W15217  14.592   7.324  10.982
53852W        W15218  32.582   6.875  11.875
53853W        W15219  36.578  37.384  12.382
53854W        W15220  23.649  15.740   2.887
53855W        W15221   3.921  21.735  11.394
53856W        W15222   5.407  26.657   2.340
53857W        W15223  21.161   9.280  12.419
53858W        W15224  12.293  13.342   3.227
53859W        W15225  16.741  24.571  13.872
53860W        W15226  27.490  27.015  14.016
53861W        W15227  16.702  28.593  12.841
53862W        W15228   7.202  40.837  10.479
53863W        W15229   4.448  22.048  13.372
53864W        W15230  43.862  22.028   4.602
53865W        W15231  11.767   8.741  13.835
53866W        W15232  15.805   3.735   4.668
53867W        W15233   0.803   4.291  14.944
53868W        W15234   3.386  22.724   2.768
53869W        W15235  21.704  39.366  14.961
53870W        W15236  30.994  10.175   3.168
53871W        W15237  13.235  29.176  14.307
53872W        W15238  38.408  41.307   4.284
53873W        W15239  33.420  27.633  10.535
53874W        W15240  33.100  44.345  13.031
53875W        W15241  18.607  23.586  14.368
53876W        W15242  40.950  39.319   2.228
53877W        W15243  19.182  39.930   1.810
53878W        W15244  41.476  26.193  14.776
53879W        W15245   7.391  15.784   3.154
53880W        W15246  32.635  13.171   0.440
53881W        W15247  23.120   2.902   1.340
53882W        W15248  30.499  35.526  10.904
53883W        W15249   9.708  42.391   3.218
53884W        W15250  23.732  21.753   0.314
53885W        W15251  44.452  42.358   0.440
53886W        W15252  35.051  29.025  12.912
53887W        W15253   3.814  27.661   0.482
53888W        W15254  30.154  13.133  12.456
53889W        W15255   3.283  21.250  12.965
53890W        W15256   4.859   0.358  14.790
53891W        W15257  28.941  19.665   1.723
53892W        W15258  26.122  24.009   2.199
53893W        W15259  42.396  33.553  11.012
53894W        W15260   2.463  16.137   2.824
53895W        W15261  37.510  28.550  13.044
53896W        W15262  16.171  25.653   3.288
53897W        W15263  16.193   4.781  13.024
53898W        W15264  39.340  14.184  14.414
53899W        W15265   8.326  33.998  12.002
53900W        W15266  20.636   8.264  14.999
53901W        W15267  29.655  26.132  14.789
53902W        W15268   1.283  12.351  12.371
53903W        W15269  12.635  35.524   3.785
53904W        W15270  11.670  33.035  10.438
53905W        W15271  27.156  24.694  11.556
53906W        W15272  12.326   0.396  14.294
53907W        W15273  32.586  44.388   0.278
53908W        W15274   1.968   6.423   4.260
53909W        W15275   1.363   5.291  10.509
53910W        W15276  28.463  14.695   4.162
53911W        W15277  39.837  29.158  11.554
53912W        W15278  13.286  21.134   0.872
53913W        W15279  20.559  18.704   3.742
53914W        W15280  44.411   0.396   0.748
53915W        W15281  17.789  30.441   3.639
53916W        W15282  15.122  40.831  12.465
53917W        W15283  43.393  25.476  13.954
53918W        W15284  44.977  36.577   1.214
53919W        W15285  23.626  27.021  11.507
53920W        W15286  38.068  28.610   2.809
53921W        W15287  14.146  41.379   3.751
53922W        W15288  28.507  20.129   2.199
53923W        W15289  31.929  30.939  10.919
53924W        W15290  24.569  23.173   2.354
53925W        W15291   8.375  18.096  12.080
53926W        W15292  27.080   0.376   1.695
53927W        W15293  12.153  34.110  13.970
53928W        W15294   4.225  42.359   0.948
53929W        W15295  44.919  29.173  13.048
53930W        W15296  41.526  22.040  13.501
53931W        W15297  37.855  38.966  10.405
53932W        W15298  22.028  10.343  11.562
53933W        W15299  12.137  16.273   3.230
53934W        W15300  43.340   1.821   0.361
53935W        W15301  27.455  34.586   3.290
53936W        W15302  28.625  35.562  10.943
53937W        W15303  11.273  23.684   1.874
53938W        W15304  23.189  31.085   3.204
53939W        W15305  30.557  11.629  11.552
53940W        W15306   2.345  12.279   4.146
53941W        W15307  44.339  19.556  10.604
53942W        W15308  33.017  22.721   0.260
53943W        W15309  33.961  29.925  10.977
53944W        W15310  40.881   1.284   3.237
53945W        W15311   6.379   7.357  12.016
53946W        W15312  17.278   3.747   0.825
53947W        W15313  15.224  24.625   1.279
53948W        W15314   9.788  28.501   1.410
53949W        W15315  41.919   6.392   4.278
53950W        W15316  37.918  10.277   3.356
53951W        W15317  28.163  15.779   2.714
53952W        W15318   2.855  26.531  11.412
53953W        W15319  31.961  13.218   4.256
53954W        W15320  21.136  36.902  11.989
53955W        W15321   8.860  31.598  13.029
53956W        W15322  24.229  40.539  14.898
53957W        W15323  40.466  28.955   4.687
53958W        W15324  21.604  32.562  12.903
53959W        W15325  11.258  33.122  14.866
53960W        W15326  19.698  10.354   5.121
53961W        W15327   7.302  43.767   2.799
53962W        W15328  37.057  30.496   4.763
53963W        W15329   6.294  11.275  10.483
53964W        W15330  38.488   9.318  11.957
53965W        W15331   3.853  13.635   1.322
53966W        W15332  42.915  30.154  14.993
53967W        W15333  17.233  17.107   4.157
53968W        W15334  27.136  37.543  13.056
53969W        W15335  34.492  18.277   2.707
53970W        W15336  31.561  35.066   0.473
53971W        W15337  36.050  30.096  12.533
53972W        W15338  28.065  41.465  11.035
53973W        W15339  27.492   1.348   2.268
53974W        W15340  44.491  17.132   4.160
53975W        W15341  28.143  33.033   0.805
53976W        W15342   1.880  23.154   0.426
53977W        W15343  44.401  10.203  12.512
53978W        W15344   8.854  37.955  13.372
53979W        W15345  30.569  10.730  14.315
53980W        W15346  37.504  40.309   4.790
53981W        W15347  43.847  38.889  12.877
53982W        W15348   6.735  23.009  13.453
53983W        W15349  24.124  28.472  10.955
53984W        W15350   9.364   7.190  11.010
53985W        W15351  38.965  12.289  10.604
53986W        W15352   4.849  29.054  13.006
53987W        W15353  42.396   2.336   3.165
53988W        W15354  27.690  17.739   2.338
53989W        W15355  38.546   1.389  12.993
53990W        W15356  42.373   8.393   4.732
53991W        W15357  14.277   2.860  14.434
53992W        W15358  38.328  23.601  13.968
53993W        W15359  35.070  22.064  13.521
53994W        W15360  25.549   4.705   5.745
53995W        W15361  31.433  32.997   0.483
53996W        W15362  37.401  12.131  10.509
53997W        W15363   2.854   5.928  12.823
53998W        W15364  22.618  43.321   1.885
53999W        W15365  26.200  43.825  14.950
54000W        W15366  15.669   7.394  10.034
54001W        W15367  42.863  12.179   1.357
54002W        W15368  33.877  41.937   3.702
54003W        W15369   2.249   6.281  12.368
54004W        W15370   2.290   0.464  12.574
54005W        W15371  42.474   3.892  14.952
54006W        W15372  27.546  12.181  12.085
54007W        W15373  32.122   7.240   2.672
54008W        W15374  21.096  41.005  13.908
54009W        W15375  37.927  29.079  11.942
54010W        W15376  22.074  25.136  14.434
54011W        W15377   1.885  42.800   0.248
54012W        W15378  43.004  35.403   3.760
54013W        W15379   5.327  31.134   9.945
54014W        W15380  36.883  36.015  13.888
54015W        W15381  41.965  15.214  11.921
54016W        W15382   7.317  32.023   0.380
54017W        W15383  19.239  24.219   0.249
54018W        W15384   4.900  27.568   5.246
54019W        W15385  41.471  19.710   2.757
54020W        W15386  29.523  25.545   0.334
54021W        W15387  38.861  40.523   9.928
54022W        W15388  15.598  31.605   1.248
54023W        W15389   8.377  11.865  14.006
54024W        W15390  28.469  33.471   1.807
54025W        W15391  12.295  39.454   3.733
54026W        W15392  33.624   0.900  14.852
54027W        W15393  22.089  44.967  14.024
54028W        W15394  23.031  34.458   3.783
54029W        W15395   3.408   6.715  11.047
54030W        W15396  21.588   4.369  11.078
54031W        W15397   8.751  18.205  12.026
54032W        W15398  30.138  17.184   2.346
54033W        W15399  27.011  39.021  11.379
54034W        W15400  30.555  23.239  10.906
54035W        W15401  40.805  44.818  13.518
54036W        W15402  39.416  29.445  13.470
54037W        W15403  27.528  41.035  14.845
54038W        W15404  11.355   9.863  14.452
54039W        W15405  40.985   1.363   3.748
54040W        W15406  36.422   8.189   1.765
54041W        W15407  40.808  15.239  12.033
54042W        W15408  11.639  19.671   2.862
54043W        W15409  37.960   2.329  12.904
54044W        W15410  38.494  16.713  10.943
54045W        W15411   1.300  12.293  11.083
54046W        W15412  38.486  21.541  10.623
54047W        W15413   0.950  24.120  11.039
54048W        W15414   0.966  10.210   1.408
54049W        W15415  10.719  15.126  13.393
54050W        W15416   1.796   6.769   0.944
54051W        W15417  22.190  15.745   3.729
54052W        W15418   4.387  17.179  11.385
54053W        W15419  27.521   0.772  11.949
54054W        W15420   2.894  39.002  10.448
54055W        W15421  32.998  17.227   4.748
54056W        W15422  22.163  36.920   3.321
54057W        W15423  39.958   5.418   3.716
54058W        W15424  36.053   8.383  10.961
54059W        W15425  26.468  40.502  12.488
54060W        W15426  21.577  44.903   0.736
54061W        W15427  20.193  15.251   3.177
54062W        W15428  43.512   5.737  12.446
54063W        W15429  21.609  32.018  12.949
54064W        W15430  39.971  12.170   2.873
54065W        W15431  16.089  31.996  14.976
54066W        W15432  44.427  33.582   3.657
54067W        W15433  27.186  26.480  11.935
54068W        W15434  38.928  28.600  12.579
54069W        W15435  29.166   1.845  14.366
54070W        W15436  39.905  10.827  12.844
54071W        W15437  22.081  26.054  14.942
54072W        W15438  40.003  37.874   1.789
54073W        W15439  14.701  26.536  12.042
54074W        W15440   6.686   1.436   1.736
54075W        W15441  29.107  26.055   1.212
54076W        W15442   9.174  40.493  14.456
54077W        W15443  14.705  18.137  10.600
54078W        W15444   3.386  29.510  14.505
54079W        W15445  18.669  30.625  11.955
54080W        W15446  14.804  13.297  11.402
54081W        W15447  16.181  17.565  13.951
54082W        W15448   9.356  40.934  14.455
54083W        W15449   1.414  11.301  11.558
54084W        W15450  14.140   3.245   3.731
54085W        W15451  18.658   4.204   3.780
54086W        W15452  20.269  10.291   0.403
54087W        W15453  40.344   6.315  12.375
54088W        W15454  24.567  44.476  10.486
54089W        W15455  27.017   7.680  13.536
54090W        W15456  24.075   5.258   3.317
54091W        W15457  43.304   7.700   1.417
54092W        W15458  15.160  14.663  11.574
54093W        W15459   4.820  33.595  11.441
54094W        W15460  36.844  23.604  11.523
54095W        W15461   9.301  18.658  10.901
54096W        W15462  23.090  27.656  11.955
54097W        W15463  43.503  43.819  12.347
54098W        W15464   9.753  22.638  11.078
54099W        W15465  30.958  34.495  14.431
54100W        W15466  27.955  33.962   0.418
54101W        W15467  34.594  21.664  14.925
54102W        W15468  11.643  34.102   3.380
54103W        W15469  32.968  26.660   3.236
54104W        W15470  15.682  29.946   1.388
54105W        W15471  15.165  34.002  13.312
54106W        W15472  10.154  16.091  12.459
54107W        W15473  18.677  18.605  14.392
54108W        W15474   2.811   6.677   2.665
54109W        W15475  28.011  32.395   0.946
54110W        W15476  14.150  41.903  12.550
54111W        W15477  15.105  39.503  12.557
54112W        W15478  12.629  15.266   3.278
54113W        W15479   4.320  41.014  12.506
54114W        W15480  39.418   6.774   4.302
54115W        W15481  20.075  35.949   4.325
54116W        W15482   9.805   1.859  11.069
54117W        W15483  43.910  40.540  14.762
54118W        W15484   0.967  27.615  14.838
54119W        W15485  18.120  22.695  11.454
54120W        W15486   0.359   2.861  11.600
54121W        W15487  24.635  16.251   2.750
54122W        W15488   4.930  20.730   0.854
54123W        W15489  10.291  18.138  10.492
54124W        W15490  35.985  25.678   5.145
54125W        W15491  19.748   5.354   3.348
54126W        W15492  34.422  40.347   0.397
54127W        W15493   9.669  15.198   2.330
54128W        W15494  38.836  31.017  11.035
54129W        W15495  17.778  15.804  13.402
54130W        W15496  26.088  10.780   1.705
54131W        W15497  37.472  37.077  10.529
54132W        W15498  32.412  14.819  12.434
54133W        W15499   4.320  27.147  14.967
54134W        W15500  37.433  36.529  14.020
54135W        W15501  42.478  14.715   2.369
54136W        W15502  21.699   5.872   0.777
54137W        W15503  23.076  41.532  14.480
54138W        W15504  21.747  43.276  12.025
54139W        W15505  27.059  22.538   3.145
54140W        W15506  37.946  24.618   4.158
54141W        W15507  36.561  11.188  14.778
54142W        W15508  13.708  23.671  11.371
54143W        W15509  38.027  41.826   1.381
54144W        W15510  29.105  44.831  12.009
54145W        W15511   7.184   8.314  11.113
54146W        W15512  34.518  29.116   4.761
54147W        W15513  32.557  29.614   4.137
54148W        W15514  14.633   3.271   0.892
54149W        W15515  22.099  36.063  12.825
54150W        W15516  40.431  39.476  13.825
54151W        W15517  25.519  19.689   2.185
54152W        W15518  17.565   8.681  11.420
54153W        W15519  40.546  30.429   3.649
54154W        W15520  26.487  39.046  10.607
54155W        W15521  31.919  26.654  14.360
54156W        W15522  38.856  26.065  12.071
54157W        W15523  22.547   6.280   4.201
54158W        W15524  41.345  20.174   3.176
54159W        W15525  22.075  14.731  14.386
54160W        W15526   5.267  44.288  12.885
54161W        W15527  39.815   9.691  13.793
54162W        W15528  37.412  13.683  12.091
54163W        W15529  43.484  29.660   1.823
54164W        W15530  26.623   2.352  14.406
54165W        W15531  30.549  40.836  13.917
54166W        W15532  13.198  26.603   2.318
54167W        W15533   0.325  41.815  12.989
54168W        W15534  26.115   8.247   1.260
54169W        W15535  23.220   5.861  11.479
54170W        W15536  12.314   0.396   2.393
54171W        W15537  20.662  10.729   4.114
54172W        W15538  37.929  20.115   1.321
54173W        W15539  41.451  38.937  13.945
54174W        W15540  26.466   4.726   4.155
54175W        W15541   7.249  38.006   5.314
54176W        W15542  37.515  43.285  11.596
54177W        W15543   5.886   1.888   2.313
54178W        W15544  42.420  22.103  10.959
54179W        W15545  12.667   5.300   4.785
54180W        W15546   3.723  30.053  12.090
54181W        W15547  40.905   3.282   3.327
54182W        W15548  26.028  36.989   0.337
54183W        W15549   3.869  14.598  14.962
54184W        W15550  44.262  41.300   1.262
54185W        W15551  32.909  44.400  11.090
54186W        W15552  29.624  18.154  13.402
54187W        W15553  28.669  18.707  11.376
54188W        W15554  39.492  38.052  14.423
54189W        W15555  29.942  37.351  13.062
54190W        W15556  22.116   9.835  10.990
54191W        W15557  34.114  24.551  14.898
54192W        W15558  33.908  10.196   1.341
54193W        W15559  34.027  14.278   0.884
54194W        W15560   7.184  44.311   2.663
54195W        W15561  42.509  17.632  14.283
54196W        W15562  24.194  35.967   3.386
54197W        W15563  10.703   5.379  13.930
54198W        W15564  33.414   2.765  14.422
54199W        W15565  38.019  20.546   0.242
54200W        W15566  40.896  39.358  13.535
54201W        W15567  18.117   6.391   4.226
54202W        W15568  25.070  27.535   0.447
54203W        W15569  42.880  37.403   4.636
54204W        W15570  11.743  22.720  11.938
54205W        W15571   5.273  22.112  12.902
54206W        W15572   0.325  36.093  12.053
54207W        W15573  23.175  24.091  12.058
54208W        W15574  33.565   8.749  13.897
54209W        W15575  37.085  24.105  10.537
54210W        W15576  32.489  36.963  13.523
54211W        W15577  15.808  18.572   2.734
54212W        W15578  38.035  16.569   2.396
54213W        W15579  25.501  33.050  10.573
54214W        W15580  13.219   2.414  14.349
54215W        W15581   1.449  11.259   3.318
54216W        W15582   1.346  28.677   3.200
54217W        W15583  13.800   7.793  11.025
54218W        W15584  18.767  14.619   9.454
54219W        W15585  24.087  32.576   2.772
54220W        W15586  12.652   0.383   4.147
54221W        W15587  38.383  27.058  13.373
54222W        W15588  13.284  19.549   3.363
54223W        W15589  39.321   3.838  13.057
54224W        W15590  21.236  20.034   0.827
54225W        W15591  41.419  18.578   4.266
54226W        W15592  32.034  31.059  13.507
54227W        W15593  20.590   3.324   1.324
54228W        W15594  23.710   5.431  14.786
54229W        W15595  21.561   6.848  11.438
54230W        W15596  41.995  12.815   1.930
54231W        W15597  15.222   8.753  12.919
54232W        W15598  40.373  14.311   3.685
54233W        W15599  20.235   5.850   3.661
54234W        W15600  24.076  29.142   2.790
54235W        W15601  18.171   5.265  14.438
54236W        W15602  37.498  35.864   0.341
54237W        W15603  35.880  13.312  11.081
54238W        W15604  44.336  40.323   4.826
54239W        W15605  18.664  26.628   3.243
54240W        W15606  29.459  44.911  14.774
54241W        W15607  24.130  36.516  14.346
54242W        W15608  18.239  31.629   1.796
54243W        W15609   1.313  25.059   9.984
54244W        W15610  29.484  13.738   4.211
54245W        W15611  10.849  31.972  12.351
54246W        W15612  41.379   6.770   2.206
54247W        W15613  24.588  39.989  14.785
54248W        W15614  22.583   0.361   9.971
54249W        W15615   8.733  32.915  10.977
54250W        W15616   9.219  19.709   3.274
54251W        W15617  11.193  14.327   0.918
54252W        W15618  37.843  37.007  11.016
54253W        W15619  30.977  12.351  12.507
54254W        W15620  35.007  27.063   1.256
54255W        W15621  41.949   4.261   3.748
54256W        W15622  16.098   7.894  10.414
54257W        W15623  11.304  37.883  12.058
54258W        W15624  22.156  37.007  13.979
54259W        W15625  22.722  33.380   3.203
54260W        W15626   7.306  33.079  13.547
54261W        W15627   3.336  20.688   3.346
54262W        W15628  44.984  33.906   4.706
54263W        W15629  13.275  26.139   1.821
54264W        W15630  36.016  23.693   3.806
54265W        W15631  36.936  38.918  10.628
54266W        W15632   4.324  18.731  12.562
54267W        W15633  37.536  37.548  12.052
54268W        W15634  38.421  36.553   1.327
54269W        W15635  36.441  21.034   3.824
54270W        W15636  26.091  40.544   2.280
54271W        W15637   8.226  35.055  11.520
54272W        W15638  26.634  38.351   4.183
54273W        W15639  20.228  34.463   3.734
54274W        W15640  31.917   5.827  12.864
54275W        W15641  10.693  17.678   2.710
54276W        W15642   9.712  40.025   2.217
54277W        W15643  26.482   9.291  11.483
54278W        W15644  31.967  41.495  11.521
54279W        W15645   3.741  16.294  11.493
54280W        W15646  15.579  12.291   3.370
54281W        W15647  32.011   7.860  10.938
54282W        W15648   2.322   3.796  11.071
54283W        W15649  27.960  23.036  12.456
54284W        W15650  33.603  14.698   3.866
54285W        W15651   4.910  24.515  12.530
54286W        W15652  17.133   6.284  13.894
54287W        W15653  13.142   8.733  11.398
54288W        W15654  44.914  19.772  13.954
54289W        W15655  31.131  17.569  13.364
54290W        W15656  17.225   5.214  12.416
54291W        W15657   0.357   8.824   3.675
54292W        W15658   6.413  14.125   4.821
54293W        W15659  36.392  25.633  12.839
54294W        W15660  21.156  12.763  13.487
54295W        W15661  30.642  23.619  14.309
54296W        W15662   8.246  24.566  11.415
54297W        W15663  11.242  18.276  13.468
54298W        W15664  43.327  33.103   1.805
54299W        W15665   5.416  32.474   2.890
54300W        W15666   4.285   3.917  12.937
54301W        W15667   2.928  30.609   4.295
54302W        W15668  12.238   8.708  12.902
54303W        W15669  12.358   1.409   3.386
54304W        W15670  18.565  24.187  13.894
54305W        W15671  21.154   8.202  12.401
54306W        W15672  28.088  19.052  13.977
54307W        W15673  22.649  15.783  10.450
54308W        W15674  41.881  37.939  11.090
54309W        W15675  17.637  35.054  10.532
54310W        W15676   6.773  17.751  13.909
54311W        W15677  17.201  22.080  14.929
54312W        W15678   8.821  18.790  14.008
54313W        W15679   7.375  24.601  11.064
54314W        W15680  44.320  32.421   4.318
54315W        W15681  28.987  28.588   4.210
54316W        W15682  34.593  41.940   0.322
54317W        W15683   3.244  11.829  13.814
54318W        W15684  19.050   5.850   0.744
54319W        W15685  19.216  36.060   3.746
54320W        W15686  10.809  12.639  13.003
54321W        W15687   4.371  11.793   4.268
54322W        W15688  38.365   2.232   3.315
54323W        W15689   1.852  41.897   4.686
54324W        W15690  11.842  24.080   1.828
54325W        W15691  44.810  17.587  11.474
54326W        W15692  35.855  40.928   5.790
54327W        W15693  44.275  20.630   1.367
54328W        W15694  15.652  12.764   3.260
54329W        W15695  32.491  24.608   2.672
54330W        W15696  42.964  33.626  10.466
54331W        W15697  10.865  20.565   2.677
54332W        W15698  13.342  43.390   4.793
54333W        W15699  19.065   9.758  11.916
54334W        W15700   7.317  23.718  13.406
54335W        W15701  24.207  32.909   3.245
54336W        W15702  16.119  40.403  14.368
54337W        W15703  33.875   5.296  11.909
54338W        W15704  43.008  23.503   3.168
54339W        W15705  41.003  14.156  11.580
54340W        W15706  32.959  42.975  11.481
54341W        W15707   7.245  19.224   3.770
54342W        W15708  43.870   6.843  14.359
54343W        W15709  19.241  17.228   0.772
54344W        W15710  10.637  38.506  14.791
54345W        W15711  37.554   4.756  12.062
54346W        W15712   4.359  33.418   4.274
54347W        W15713  30.974  19.546  14.421
54348W        W15714  21.161   1.821  10.109
54349W        W15715   7.281  24.657   0.731
54350W        W15716  11.253  39.537   3.258
54351W        W15717  34.937   3.904   3.742
54352W        W15718  16.682  36.087  12.408
54353W        W15719  23.668  25.617  11.401
54354W        W15720  44.994  16.775   4.691
54355W        W15721  18.725  28.664  11.046
54356W        W15722  15.759   1.397  12.496
54357W        W15723  13.785  16.739   1.768
54358W        W15724  40.437   7.697   3.313
54359W        W15725  23.584   0.765  14.348
54360W        W15726  15.714  28.119  11.913
54361W        W15727  32.547  38.440  12.432
54362W        W15728  38.057  38.469   0.414
54363W        W15729  27.567   2.928  11.478
54364W        W15730  13.154  20.611   0.754
54365W        W15731  22.098  25.693   3.847
54366W        W15732   3.879  16.124  12.082
54367W        W15733  11.202  37.025   1.342
54368W        W15734  22.108  29.173  13.338
54369W        W15735   4.876  35.906   4.236
54370W        W15736   9.156  44.473   9.979
54371W        W15737   3.755  24.089  14.397
54372W        W15738  40.468  29.997   2.761
54373W        W15739  23.601   9.872  11.106
54374W        W15740  19.536  41.515   4.789
54375W        W15741  36.418  29.928  10.952
54376W        W15742  21.732  29.958  13.046
54377W        W15743   2.827  17.777   1.869
54378W        W15744  33.388  20.697   9.517
54379W        W15745   1.290  35.102  11.064
54380W        W15746  22.743  36.360   1.854
54381W        W15747  38.369  40.881   0.354
54382W        W15748  29.028  15.195  12.032
54383W        W15749   1.336  11.802  14.029
54384W        W15750   2.931  22.126   4.773
54385W        W15751  39.455  27.601  12.957
54386W        W15752  27.462   4.896  14.394
54387W        W15753  39.946   1.240   1.297
54388W        W15754   6.237  29.578  11.541
54389W        W15755  23.583  37.849   1.795
54390W        W15756   5.206  23.613   4.349
54391W        W15757   9.366   1.434  12.504
54392W        W15758   8.277  42.452  14.972
54393W        W15759   6.814  36.869   1.896
54394W        W15760  42.897  30.498  12.416
54395W        W15761  42.324   9.390  12.346
54396W        W15762  22.069  38.933  12.510
54397W        W15763   6.250  14.283   1.283
54398W        W15764   5.427  14.689  11.430
54399W        W15765  12.686  35.078  11.604
54400W        W15766  16.194  18.252   2.199
54401W        W15767  33.034  43.305   3.163
54402W        W15768  16.752  33.542   3.812
54403W        W15769  36.985  24.584   1.800
54404W        W15770   9.269   3.787   2.792
54405W        W15771  32.563  18.155  11.962
54406W        W15772  15.667   6.270  11.372
54407W        W15773  30.020  18.121   9.921
54408W        W15774   6.788  38.556   1.805
54409W        W15775  33.390  41.952  11.406
54410W        W15776  19.205  24.980  10.994
54411W        W15777  11.729  21.039   3.719
54412W        W15778   4.431  32.889  11.604
54413W        W15779  40.514  39.050   2.252
54414W        W15780  23.644  29.449  14.853
54415W        W15781  10.859  24.136  13.498
54416W        W15782  20.630  25.541   0.791
54417W        W15783  33.051  41.489   3.739
54418W        W15784  11.639  34.588  14.810
54419W        W15785  38.386  22.209  14.912
54420W        W15786   5.437   8.275  11.023
54421W        W15787   6.203  21.729   3.768
54422W        W15788  25.020  40.392   2.258
54423W        W15789   2.371  17.079  11.385
54424W        W15790  16.218  19.187   3.147
54425W        W15791  23.685  34.010  10.472
54426W        W15792  42.898   1.274  11.071
54427W        W15793  39.856  37.558   0.323
54428W        W15794   1.747  16.612  11.116
54429W        W15795  36.533  21.190   0.285
54430W        W15796  31.139  12.818  12.856
54431W        W15797  17.205   5.429   0.385
54432W        W15798  39.326  12.647   3.685
54433W        W15799  12.806  11.221   4.354
54434W        W15800   7.187   6.805   1.389
54435W        W15801  14.126  42.908   4.602
54436W        W15802  33.979  10.143  12.879
54437W        W15803  36.359   4.237  12.858
54438W        W15804  20.554   0.290  12.509
54439W        W15805  26.010  44.796   4.620
54440W        W15806   5.777  39.514  11.442
54441W        W15807  27.629   7.806  13.528
54442W        W15808  33.898  43.806  12.946
54443W        W15809  17.181  15.601   5.605
54444W        W15810  29.932  28.543  12.853
54445W        W15811   1.888  41.906   3.686
54446W        W15812  19.732   6.878   3.655
54447W        W15813  10.811  38.442   4.326
54448W        W15814  26.151  23.579   4.234
54449W        W15815  39.823  24.666  11.101
54450W        W15816  39.870   5.836  13.534
54451W        W15817   1.922   8.193  14.291
54452W        W15818  44.904  27.660   0.792
54453W        W15819   2.321  30.017   3.681
54454W        W15820  41.795  27.659   2.200
54455W        W15821  31.574  33.992   0.935
54456W        W15822  41.816   0.333  13.318
54457W        W15823  36.062  24.620   1.390
54458W        W15824  28.639  38.470  14.023
54459W        W15825  22.108   3.764  13.308
54460W        W15826   4.284  23.034  11.856
54461W        W15827  25.122  36.465  12.905
54462W        W15828  13.618  37.921  11.014
54463W        W15829   1.301  22.634   1.275
54464W        W15830  13.781  12.319  13.851
54465W        W15831  20.039  15.727   3.256
54466W        W15832  10.632   9.834   2.323
54467W        W15833  34.050  36.543   1.410
54468W        W15834  16.736   9.858   4.637
54469W        W15835   5.263   2.950  14.979
54470W        W15836  12.731  21.544   1.278
54471W        W15837  10.729  19.121   2.284
54472W        W15838  35.466  15.267  10.495
54473W        W15839  14.311  24.138   1.728
54474W        W15840  28.097   2.377  12.534
54475W        W15841   4.311  28.449   2.707
54476W        W15842   8.742  22.677   4.250
54477W        W15843  38.899  28.960  13.496
54478W        W15844  22.228  40.438   4.811
54479W        W15845  25.194  14.208  13.491
54480W        W15846  14.697   5.201   1.313
54481W        W15847   7.297  38.532  12.445
54482W        W15848  27.458   7.236   1.835
54483W        W15849   5.327  43.408  10.552
54484W        W15850  25.078  18.076   2.205
54485W        W15851   7.690  33.939   3.201
54486W        W15852  16.811   0.960   2.182
54487W        W15853   8.257  16.597  13.446
54488W        W15854  28.947  16.076   2.696
54489W        W15855  31.417  18.063  11.514
54490W        W15856   6.687  14.261  14.837
54491W        W15857  34.368  22.532   2.179
54492W        W15858  33.966  10.853   4.751
54493W        W15859  21.257   4.718   3.647
54494W        W15860  30.010   2.371  13.032
54495W        W15861  18.050  15.151  14.443
54496W        W15862  31.920  41.856  13.831
54497W        W15863  16.671  21.239  13.963
54498W        W15864   6.339  44.359   4.617
54499W        W15865   9.724  29.940  10.426
54500W        W15866  29.621  37.545   5.206
54501W        W15867  44.955   1.445   3.190
54502W        W15868   2.363   1.940   2.887
54503W        W15869   9.214  27.109  13.829
54504W        W15870   4.354  14.740  10.476
54505W        W15871  34.444  24.546  14.414
54506W        W15872   6.804  36.845  14.304
54507W        W15873   4.883   7.404   5.260
54508W        W15874  37.438  20.224  10.989
54509W        W15875   5.721   9.730  14.367
54510W        W15876  14.795   5.897   3.738
54511W        W15877   9.848  37.518   0.871
54512W        W15878  30.912  44.373  10.984
54513W        W15879  37.506  21.122  12.878
54514W        W15880  43.302   8.205   1.779
54515W        W15881   8.389  16.082   4.348
54516W        W15882  13.211  12.720   3.699
54517W        W15883   6.858  31.003   4.172
54518W        W15884   7.730  30.589   2.383
54519W        W15885  15.212  20.235  13.865
54520W        W15886   2.750   6.711   1.748
54521W        W15887  26.079  29.025  13.479
54522W        W15888  29.661  31.564   0.481
54523W        W15889  32.927  36.949  12.849
54524W        W15890  11.672  15.728   3.185
54525W        W15891  31.465  36.894  14.936
54526W        W15892  29.154  10.700   0.326
54527W        W15893   9.210  11.797  12.864
54528W        W15894  36.589   4.434  10.567
54529W        W15895  41.322  17.662   0.850
54530W        W15896  33.905  34.566   0.858
54531W        W15897  29.146   1.780   4.748
54532W        W15898  20.173  29.546   4.148
54533W        W15899  18.211  22.093  13.441
54534W        W15900  17.142  40.368   0.778
54535W        W15901  18.737   1.439   2.684
54536W        W15902  41.326  20.107  14.970
54537W        W15903  28.121  15.237  12.926
54538W        W15904   9.361  44.922  14.009
54539W        W15905  37.981  13.333   1.450
54540W        W15906  40.470  30.639   4.256
54541W        W15907  32.396  41.344   3.635
54542W        W15908  30.415  25.492  10.568
54543W        W15909  10.280   8.784   0.466
54544W        W15910  10.651   7.761  14.821
54545W        W15911  37.362  29.528  11.529
54546W        W15912   5.240  24.624  10.611
54547W        W15913   3.216  33.022   2.767
54548W        W15914  21.078  32.923   4.276
54549W        W15915  20.756  33.559   5.106
54550W        W15916  44.859  34.393   1.911
54551W        W15917  36.487  10.864   2.812
54552W        W15918  39.326  32.526   4.197
54553W        W15919   7.208  34.566  12.509
54554W        W15920  27.124   4.432   1.211
54555W        W15921   6.404  23.174   2.382
54556W        W15922  13.707  38.979   3.695
54557W        W15923  24.985  36.452  13.398
54558W        W15924  12.724  19.186   1.785
54559W        W15925  13.337   5.287   3.814
54560W        W15926   6.786  35.901  14.459
54561W        W15927  26.063  20.217  10.555
54562W        W15928   1.447   0.887  14.323
54563W        W15929  15.739  23.000  13.452
54564W        W15930  11.310   6.700  10.447
54565W        W15931  13.273  37.578   5.249
54566W        W15932  18.215  17.122   0.276
54567W        W15933  28.071  40.883   2.674
54568W        W15934   9.782   5.699   0.844
54569W        W15935  22.072  16.590   4.617
54570W        W15936  20.541  23.662   2.863
54571W        W15937   4.349  36.942  14.460
54572W        W15938  26.078   6.298  10.551
54573W        W15939  44.335   8.333  12.561
54574W        W15940  16.581   9.174   2.180
54575W        W15941  41.311   2.850  12.946
54576W        W15942  42.805  13.132  13.512
54577W        W15943  36.388  16.645   0.830
54578W        W15944  32.925  39.025   4.170
54579W        W15945  16.219  32.081  11.587
54580W        W15946  30.142  43.896  13.329
54581W        W15947  31.429  17.736   2.219
54582W        W15948  42.298  41.391  13.804
54583W        W15949  25.974  37.526   4.331
54584W        W15950  44.312  36.458   2.395
54585W        W15951  20.203  28.938   2.896
54586W        W15952  22.578  31.035   0.899
54587W        W15953  40.342  13.171  11.992
54588W        W15954   1.337  16.808   4.602
54589W        W15955  13.778  33.076   2.696
54590W        W15956   6.825  13.334  13.886
54591W        W15957   2.839   9.841   0.365
54592W        W15958  26.467   9.754  12.406
54593W        W15959  11.662  14.096  13.422
54594W        W15960  27.941  44.285   0.890
54595W        W15961  42.014  26.592  14.981
54596W        W15962   6.759   0.981  13.492
54597W        W15963  15.294  35.894   5.597
54598W        W15964   9.373  15.235   0.785
54599W        W15965  23.597  28.560   4.129
54600W        W15966  19.079  31.517   2.874
54601W        W15967   0.271  34.886   0.335
54602W        W15968  22.607  38.899   4.333
54603W        W15969  11.336  26.500   2.667
54604W        W15970  32.135  22.596   0.382
54605W        W15971   7.770  26.122  13.537
54606W        W15972  33.000   0.825   0.785
54607W        W15973  17.081  37.929   3.318
54608W        W15974  35.467  39.978   3.829
54609W        W15975   6.900  36.512  10.538
54610W        W15976  23.087   0.838  11.947
54611W        W15977  23.025  40.885  12.427
54612W        W15978  38.416   6.688   3.792
54613W        W15979  26.546  24.048  13.366
54614W        W15980  39.396  35.518   1.332
54615W        W15981  12.167   7.382  10.997
54616W        W15982  39.474  16.235   4.304
54617W        W15983   0.312  16.214  11.928
54618W        W15984  11.181  30.417  13.926
54619W        W15985  44.286   4.711   2.331
54620W        W15986   6.182   4.326  14.394
54621W        W15987  35.001   2.383   3.219
54622W        W15988  15.673   4.817   3.799
54623W        W15989  31.099  31.594   1.285
54624W        W15990  30.000   3.891   2.315
54625W        W15991  30.134   7.184  13.804
54626W        W15992  23.222  38.927  11.556
54627W        W15993  23.653  26.515   2.664
54628W        W15994  24.669  44.387  12.501
54629W        W15995  14.109  14.606   0.280
54630W        W15996  24.054  36.582   4.204
54631W        W15997  38.060  10.725  10.462
54632W        W15998  18.085  42.397  14.885
54633W        W15999  18.271  17.091  14.387
54634W        W16000  32.580  10.203   0.471
54635W        W16001  36.049  12.247  13.836
54636W        W16002  12.645   7.401   1.350
54637W        W16003  43.380  25.557   1.878
54638W        W16004   8.382  23.993  14.351
54639W        W16005  35.985  26.120  10.952
54640W        W16006  41.306  13.652  11.876
54641W        W16007   1.475  22.080  11.907
54642W        W16008   3.770  13.171  13.524
54643W        W16009  20.568  21.238   1.378
54644W        W16010  40.494   8.838   4.275
54645W        W16011   9.811  35.463  13.372
54646W        W16012  18.072  30.497  11.041
54647W        W16013   5.220  10.211  11.985
54648W        W16014  30.445  15.222   2.207
54649W        W16015   3.767  41.817   3.234
54650W        W16016   8.875  11.261  12.865
54651W        W16017  26.680   9.678  14.316
54652W        W16018  20.160  21.621   3.827
54653W        W16019   6.762  29.032   1.216
54654W        W16020  27.503  16.796  11.117
54655W        W16021   7.809   1.420   4.668
54656W        W16022  32.892  29.610  13.415
54657W        W16023  36.901  10.856  14.434
54658W        W16024  38.429  11.859   0.442
54659W        W16025  14.121  26.960   3.245
54660W        W16026  17.614  10.352   1.445
54661W        W16027  36.497  32.627   3.213
54662W        W16028  14.303  30.991   3.648
54663W        W16029  25.526  27.606  13.440
54664W        W16030  22.103   9.209   4.791
54665W        W16031  38.065  12.831   2.348
54666W        W16032   0.368  36.394   4.837
54667W        W16033  21.571  35.496  14.316
54668W        W16034  30.928   0.920  10.088
54669W        W16035  12.144   9.172   2.386
54670W        W16036   1.763  25.707   1.861
54671W        W16037  24.592  44.847  13.965
54672W        W16038  36.381  12.306  13.897
54673W        W16039  16.806  36.566   1.904
54674W        W16040  24.562   4.341  12.906
54675W        W16041   6.347  25.156   3.774
54676W        W16042  43.969  15.714  12.015
54677W        W16043  44.786  30.954   3.386
54678W        W16044  36.357  12.816  11.956
54679W        W16045   1.403  40.799   1.834
54680W        W16046  14.304  22.686  14.449
54681W        W16047  36.375  23.039  12.494
54682W        W16048  42.988  29.560  14.022
54683W        W16049  37.555  41.427   0.368
54684W        W16050  21.727   8.715   1.211
54685W        W16051  29.046  43.381  14.393
54686W        W16052  10.679  14.740  12.459
54687W        W16053   7.908  37.555   2.763
54688W        W16054  41.866  28.581   1.230
54689W        W16055  33.981  24.220  11.863
54690W        W16056  29.487   4.432   2.246
54691W        W16057  20.079  12.298   0.732
54692W        W16058  24.497   1.337  13.823
54693W        W16059  40.513  32.528  12.508
54694W        W16060   5.929  23.196   4.254
54695W        W16061   1.303  32.995   2.297
54696W        W16062  13.240   3.768  11.962
54697W        W16063  37.844  20.657   4.214
54698W        W16064   6.813  18.697  13.958
54699W        W16065  43.323  12.758  12.064
54700W        W16066  29.077  35.487   1.314
54701W        W16067  41.843  18.114   2.349
54702W        W16068   4.397   0.800  14.001
54703W        W16069  41.428  40.386   4.830
54704W        W16070   3.788  17.723   1.390
54705W        W16071  17.203  13.107   4.199
54706W        W16072  11.263  21.045  14.489
54707W        W16073  12.631  24.098  12.829
54708W        W16074  30.417  40.905   3.848
54709W        W16075  38.531  29.025   2.790
54710W        W16076  41.410  35.546   1.396
54711W        W16077  34.046  16.120   1.305
54712W        W16078  23.591  42.282  10.940
54713W        W16079  18.089  34.954   3.798
54714W        W16080  20.678  26.032   4.828
54715W        W16081  10.144  34.421   4.169
54716W        W16082  23.152  34.010   3.231
54717W        W16083  15.656  38.838  14.985
54718W        W16084  21.046  17.782   3.825
54719W        W16085   8.682  17.584  13.468
54720W        W16086  18.243   3.408   5.258
54721W        W16087  12.614  28.992  10.998
54722W        W16088  16.139  18.603   5.280
54723W        W16089  10.801  44.297  11.543
54724W        W16090  26.489  11.365   3.166
54725W        W16091  40.338  38.361   2.263
54726W        W16092   9.339  11.235   0.875
54727W        W16093  24.658   8.839   4.620
54728W        W16094  27.100   6.396   3.639
54729W        W16095   8.346  42.506   0.845
54730W        W16096  15.615  13.309   3.797
54731W        W16097  36.554   2.870   2.832
54732W        W16098  35.962   9.376   2.190
54733W        W16099  10.867  26.145  12.896
54734W        W16100  25.475  20.051   2.282
54735W        W16101  29.591  21.250  12.017
54736W        W16102  24.497  43.885  14.476
54737W        W16103  31.148  23.526  13.355
54738W        W16104   3.237  44.356   0.907
54739W        W16105   2.233   0.363   1.795
54740W        W16106  33.461  31.522  11.524
54741W        W16107  43.937   8.861  10.626
54742W        W16108  30.047  15.799  10.456
54743W        W16109   3.369   1.931  13.430
54744W        W16110   4.291  13.317  10.571
54745W        W16111  17.069  22.212  13.395
54746W        W16112  20.636   8.346  11.562
54747W        W16113   4.797  19.252  14.289
54748W        W16114  12.711   7.222  12.094
54749W        W16115  31.990  20.147   0.796
54750W        W16116  26.474  42.491   3.658
54751W        W16117  38.016  39.871  12.452
54752W        W16118  23.076  27.455  13.965
54753W        W16119   2.373   0.912  10.915
54754W        W16120  19.151   5.921   0.469
54755W        W16121  44.470  30.936  10.595
54756W        W16122   2.305   0.376   2.302
54757W        W16123  35.904  22.024   4.802
54758W        W16124  24.568  43.981  12.368
54759W        W16125  28.478  19.642  13.988
54760W        W16126  35.106  18.222   4.756
54761W        W16127  42.418  12.781   4.321
54762W        W16128  17.663   5.379   4.677
54763W        W16129  11.260  22.241   1.819
54764W        W16130  44.837  44.475  14.391
54765W        W16131  25.629  35.471   0.291
54766W        W16132  41.997  10.360  11.993
54767W        W16133  30.971  34.375  13.874
54768W        W16134   9.651   8.300   0.384
54769W        W16135   5.434  35.025   4.656
54770W        W16136  34.460  24.665  11.995
54771W        W16137  31.577  24.544   3.870
54772W        W16138   0.959  39.038  12.423
54773W        W16139  14.673  15.175  13.909
54774W        W16140  41.399   8.866  12.382
54775W        W16141   8.294  24.099   0.242
54776W        W16142  10.661   8.346  14.460
54777W        W16143   7.748  22.512  10.545
54778W        W16144   1.930  17.747   2.728
54779W        W16145  21.613  19.713  11.569
54780W        W16146   5.296  16.100  13.475
54781W        W16147  21.574  19.278  12.398
54782W        W16148   0.297  41.869   0.746
54783W        W16149   1.443  17.269   3.708
54784W        W16150  36.428  39.898   0.896
54785W        W16151  20.186  21.738   0.441
54786W        W16152  38.008  12.701  12.090
54787W        W16153  25.648  23.188   1.842
54788W        W16154  35.905  40.474   1.339
54789W        W16155  14.161  44.458  10.432
54790W        W16156  34.924  27.054  13.525
54791W        W16157   1.455  40.382   1.293
54792W        W16158   8.698  37.387  13.882
54793W        W16159  11.137  31.534   4.237
54794W        W16160  34.079  41.863  10.094
54795W        W16161  17.696   2.280   3.324
54796W        W16162  11.646  11.817   2.747
54797W        W16163   1.801  30.950  13.372
54798W        W16164  20.686  14.213  13.472
54799W        W16165   3.304  12.191   1.398
54800W        W16166  38.462  31.517   1.913
54801W        W16167  28.138   8.294  14.781
54802W        W16168   4.861  35.046   2.415
54803W        W16169  35.365  20.243  11.931
54804W        W16170  34.107  19.687   1.322
54805W        W16171  30.638  42.300   2.676
54806W        W16172  12.215  40.430  14.360
54807W        W16173  36.003  25.516  11.099
54808W        W16174  24.646  20.729  13.477
54809W        W16175   5.715  39.343   0.828
54810W        W16176   2.269  12.265  14.934
54811W        W16177  22.608  14.255  13.810
54812W        W16178  27.022  15.249  12.921
54813W        W16179  36.867  44.928  14.769
54814W        W16180  28.639  17.774  11.598
54815W        W16181  37.994  41.372  10.890
54816W        W16182   1.427  10.796   4.780
54817W        W16183  23.003  42.942  14.394
54818W        W16184  18.160  43.938  13.950
54819W        W16185   5.796  13.675  11.005
54820W        W16186  22.652  39.515   3.337
54821W        W16187  13.645  32.084  10.576
54822W        W16188  42.028   1.420  14.817
54823W        W16189  42.451  14.588  12.353
54824W        W16190  29.057  23.122  10.443
54825W        W16191  16.317  25.962   0.284
54826W        W16192  23.562  37.548  12.426
54827W        W16193  27.004  31.086  10.958
54828W        W16194  12.779   8.863   1.445
54829W        W16195  12.733  16.796  10.992
54830W        W16196  30.521  35.571   3.292
54831W        W16197  10.338   5.740  13.518
54832W        W16198  25.131  20.190  14.870
54833W        W16199  36.576  43.472  14.905
54834W        W16200  10.244   4.818  11.909
54835W        W16201  31.038   9.326   4.196
54836W        W16202  14.332  10.651  10.929
54837W        W16203  43.279   0.950  13.843
54838W        W16204  16.218  31.051   3.204
54839W        W16205  19.656  29.478  12.079
54840W        W16206   1.370  34.581  11.893
54841W        W16207  17.782   4.372   3.667
54842W        W16208  37.501  33.056   2.251
54843W        W16209  17.598  40.437  14.876
54844W        W16210  29.462  39.558   4.698
54845W        W16211  21.542  37.409  10.409
54846W        W16212  14.637  14.605  12.997
54847W        W16213   0.752   7.290   1.798
54848W        W16214  21.567  32.557   4.668
54849W        W16215  17.752   1.938   1.910
54850W        W16216  30.483  13.828   4.725
54851W        W16217  23.029  41.982  14.825
54852W        W16218  35.903  43.821   3.742
54853W        W16219   2.232  22.653   3.357
54854W        W16220  27.984   6.386   3.768
54855W        W16221  42.874  44.288  11.011
54856W        W16222  36.575  35.559  12.442
54857W        W16223  23.226  31.557   0.856
54858W        W16224  14.258  34.914  11.972
54859W        W16225  29.010  41.025   3.276
54860W        W16226  36.512  15.740  14.494
54861W        W16227  32.401  41.424  14.344
54862W        W16228  43.490  20.137  13.920
54863W        W16229  27.979   7.316  13.990
54864W        W16230   6.224  25.655  12.022
54865W        W16231  38.375  38.832   4.274
54866W        W16232  33.510  33.034  11.858
54867W        W16233  25.707  24.076  14.981
54868W        W16234   3.806  40.988   2.403
54869W        W16235   1.240  28.544  11.464
54870W        W16236   5.763  38.021  12.385
54871W        W16237  11.623  27.536   4.169
54872W        W16238  10.645   3.256   0.436
54873W        W16239   4.244  29.514   4.832
54874W        W16240  38.964   0.350  12.451
54875W        W16241  18.757  36.482   2.804
54876W        W16242   6.273  22.244  13.975
54877W        W16243  31.967  19.130   3.733
54878W        W16244  33.436  44.898  13.357
54879W        W16245   2.296  22.642   9.923
54880W        W16246   3.232  15.790   4.186
54881W        W16247  17.735  38.055   0.320
54882W        W16248  21.620  29.986   1.711
54883W        W16249  21.047  17.304   3.667
54884W        W16250  38.538  13.110  11.929
54885W        W16251  37.446  22.063   3.682
54886W        W16252  32.468  37.051  14.797
54887W        W16253  35.080  16.629  11.051
54888W        W16254  40.888  18.557   1.260
54889W        W16255  41.483   2.771   2.805
54890W        W16256  22.086  35.091   2.372
54891W        W16257  16.111  38.379  13.064
54892W        W16258   7.719  37.844  12.901
54893W        W16259  26.130   6.756   4.157
54894W        W16260  10.340  18.206   3.339
54895W        W16261  25.471   9.148   2.773
54896W        W16262  37.472  42.925  12.475
54897W        W16263  36.089  43.925  11.112
54898W        W16264  22.170  44.758   1.813
54899W        W16265  28.943  11.727   2.867
54900W        W16266  40.816  19.617   3.651
54901W        W16267  18.615  26.989   4.816
54902W        W16268  31.563  41.942   5.641
54903W        W16269  41.786  34.915   5.267
54904W        W16270  36.349   2.452  13.347
54905W        W16271  12.695  25.059   3.162
54906W        W16272  11.268  36.084  10.579
54907W        W16273  35.054  11.791   5.106
54908W        W16274  32.592  36.901   0.732
54909W        W16275  25.613   6.393  14.983
54910W        W16276  14.699  30.557   1.848
54911W        W16277   7.788  37.976   1.841
54912W        W16278  16.117  20.579  11.864
54913W        W16279   8.864  29.924   0.454
54914W        W16280  32.607   2.230   2.203
54915W        W16281  12.659  26.075   0.287
54916W        W16282   8.688  39.994   4.185
54917W        W16283  20.547  19.778  12.039
54918W        W16284  37.448  36.536   1.775
54919W        W16285  41.975  15.763  13.985
54920W        W16286   6.817  10.289  11.402
54921W        W16287  42.798  34.098   0.463
54922W        W16288  44.904  36.967  11.031
54923W        W16289   9.771  13.691  12.856
54924W        W16290   6.710  30.450  12.962
54925W        W16291   7.887  42.949   4.722
54926W        W16292  29.938  21.173  12.343
54927W        W16293  32.523  38.979   4.267
54928W        W16294  37.535   2.241  12.869
54929W        W16295  39.943  39.015  13.829
54930W        W16296   1.272  35.898   1.416
54931W        W16297   8.402  15.094  11.892
54932W        W16298  28.085  11.351   0.732
54933W        W16299  28.959  22.019  14.489
54934W        W16300  28.563  24.078  12.922
54935W        W16301   8.893  31.968  10.474
54936W        W16302  32.580  33.956  13.447
54937W        W16303   7.371  41.918  11.595
54938W        W16304  12.845   9.840  13.356
54939W        W16305   7.790  10.264  14.413
54940W        W16306  21.067   4.449   5.216
54941W        W16307  36.513  26.664   1.288
54942W        W16308  30.535   3.861  11.035
54943W        W16309  33.489  32.415   2.214
54944W        W16310  44.981  39.061  11.037
54945W        W16311  25.110  26.987  12.858
54946W        W16312  19.636  13.764  12.016
54947W        W16313   0.298   6.763   4.293
54948W        W16314  36.364  24.230   0.733
54949W        W16315  11.813  35.477   2.247
54950W        W16316   6.420  13.739   3.148
54951W        W16317   9.743  26.176  11.874
54952W        W16318  13.121  39.866  10.551
54953W        W16319  43.958  32.578   0.742
54954W        W16320  40.853  34.911  11.043
54955W        W16321   8.381  17.110   2.183
54956W        W16322  37.858  36.419  13.536
54957W        W16323  12.165  12.216  12.351
54958W        W16324   0.862  35.583  10.913
54959W        W16325  27.551  22.050   3.215
54960W        W16326  28.512  34.401  10.408
54961W        W16327   1.858  24.093  11.964
54962W        W16328  21.706  14.832   2.813
54963W        W16329  28.499  36.449  13.793
54964W        W16330  32.984  38.444   1.924
54965W        W16331  22.631   5.391   4.117
54966W        W16332  41.357  41.450  13.359
54967W        W16333  37.942   7.713   4.143
54968W        W16334   6.408   9.273  11.014
54969W        W16335   2.937  26.520  12.402
54970W        W16336  36.565  15.313  12.878
54971W        W16337  12.791  26.182   1.904
54972W        W16338  16.633   2.301  10.555
54973W        W16339   8.200  10.650   1.853
54974W        W16340  41.323  11.251  10.968
54975W        W16341  36.859  41.349   1.852
54976W        W16342  29.606   3.789  13.846
54977W        W16343   4.755  40.813  14.963
54978W        W16344   2.327  40.330   2.706
54979W        W16345  10.153  34.049  13.798
54980W        W16346  15.657  14.214   0.794
54981W        W16347  34.103  30.421  14.442
54982W        W16348   4.341  22.139  14.845
54983W        W16349   7.838   0.933   3.213
54984W        W16350  11.369   9.164   1.342
54985W        W16351  10.290  15.734   0.767
54986W        W16352   6.798  32.021  13.545
54987W        W16353   8.683  15.324  14.381
54988W        W16354  30.584   8.854  11.976
54989W        W16355  10.349  10.262   3.173
54990W        W16356  44.983  41.982   0.445
54991W        W16357  35.910   6.779  12.553
54992W        W16358  24.083  32.494   1.765
54993W        W16359   8.352  31.541   0.314
54994W        W16360  29.040  39.968   4.787
54995W        W16361  29.928  31.982   4.812
54996W        W16362  29.653   8.756  10.931
54997W        W16363   1.948  15.584   4.298
54998W        W16364  14.222  31.910   4.181
54999W        W16365   7.694  31.558   0.300
55000W        W16366  26.571  14.154   5.096
55001W        W16367  10.646  30.944  12.468
55002W        W16368  19.568  39.854  10.621
55003W        W16369   3.324  39.959  14.916
55004W        W16370  41.789  39.898  10.613
55005W        W16371  22.659   3.316   0.797
55006W        W16372  41.515  33.483  14.379
55007W        W16373  11.333  26.178  14.333
55008W        W16374  18.227   8.832  10.948
55009W        W16375  38.013  40.864   4.246
55010W        W16376  30.911  18.552   1.330
55011W        W16377  36.932  36.451  13.329
55012W        W16378  24.190   6.794   4.338
55013W        W16379  37.506  34.019  13.401
55014W        W16380  26.553  30.646   1.878
55015W        W16381   1.377  19.772   1.805
55016W        W16382  21.142  31.044   1.779
55017W        W16383  33.080   8.664   4.652
55018W        W16384   1.964  31.569  11.021
55019W        W16385  36.050   0.862  12.913
55020W        W16386   5.236  36.997   1.432
55021W        W16387  24.983  12.670   0.963
55022W        W16388  32.593  32.012  13.510
55023W        W16389   8.342  21.168   1.404
55024W        W16390  16.760  11.190  10.480
55025W        W16391  37.833  30.473  12.027
55026W        W16392  23.193  35.432   0.777
55027W        W16393  22.710  19.683   1.336
55028W        W16394  32.406  18.080  12.538
55029W        W16395  43.863   1.238  10.531
55030W        W16396   6.261  18.785   0.863
55031W        W16397  24.643  34.419  14.802
55032W        W16398   8.215  16.271  11.072
55033W        W16399  18.776  17.136   1.323
55034W        W16400  34.910  24.659  13.341
55035W        W16401  30.641  42.506  12.850
55036W        W16402  26.073   2.345  11.476
55037W        W16403  17.152  29.491   5.238
55038W        W16404  11.142  10.166  10.433
55039W        W16405  26.502  23.094  11.948
55040W        W16406  16.701  25.643  11.965
55041W        W16407   8.818  39.437   0.244
55042W        W16408  39.394  38.491  12.063
55043W        W16409   1.387  40.362   0.822
55044W        W16410  10.172  24.974   0.806
55045W        W16411  44.898  31.053  13.349
55046W        W16412   8.207  39.559  14.388
55047W        W16413  27.498  34.537  12.487
55048W        W16414  29.168  25.172  13.498
55049W        W16415  41.350  12.234   1.723
55050W        W16416   6.736  21.574   4.690
55051W        W16417   3.235   4.205   1.311
55052W        W16418  19.643  11.288   3.741
55053W        W16419  34.429   3.389  13.826
55054W        W16420  23.594  31.073   2.366
55055W        W16421   6.398  14.191   0.821
55056W        W16422  24.011  28.563  12.860
55057W        W16423  14.336  27.513   1.349
55058W        W16424  30.162  20.749   3.285
55059W        W16425   0.367   5.208  10.917
55060W        W16426  34.089  11.802   2.882
55061W        W16427  22.652  12.292   0.339
55062W        W16428  17.271  24.148   4.323
55063W        W16429  37.938  41.531   5.229
55064W        W16430  31.097  20.087   4.129
55065W        W16431   6.267  20.722  14.840
55066W        W16432   4.838  25.154   1.321
55067W        W16433  10.719  22.564   2.668
55068W        W16434   2.809   8.841   0.326
55069W        W16435  11.813  11.174  14.495
55070W        W16436  18.253  42.292   2.387
55071W        W16437  37.858  34.044   0.310
55072W        W16438   3.791  44.789  14.767
55073W        W16439  44.344  39.929   3.730
55074W        W16440  20.627  42.832  13.895
55075W        W16441  30.951  37.347   4.673
55076W        W16442  10.664  13.680   1.797
55077W        W16443  39.860  30.445  11.488
55078W        W16444   5.272  44.782   1.888
55079W        W16445  43.832   6.271   2.411
55080W        W16446   2.295   2.370  12.415
55081W        W16447  44.871  19.684  14.884
55082W        W16448  43.857  33.934   3.370
55083W        W16449   3.786  14.094   0.258
55084W        W16450  25.503  17.567   4.791
55085W        W16451   4.730  18.148  14.974
55086W        W16452  29.604  10.754  14.802
55087W        W16453  33.509  27.641  13.340
55088W        W16454  19.260   6.376  14.297
55089W        W16455  30.533  24.061  12.548
55090W        W16456  39.532  35.957  10.951
55091W        W16457  14.277   7.410   4.219
55092W        W16458  29.078  16.658  11.006
55093W        W16459  35.536  38.915   1.791
55094W        W16460  39.818  42.013  13.416
55095W        W16461   9.277  25.479   2.680
55096W        W16462  19.070  18.220   1.269
55097W        W16463  22.564  12.817  11.447
55098W        W16464  13.705   4.304  11.459
55099W        W16465   5.820  43.844  14.398
55100W        W16466  22.656   3.230   2.260
55101W        W16467  11.688  36.543  14.802
55102W        W16468  27.168  42.425   3.758
55103W        W16469   6.346  34.918  13.505
55104W        W16470  19.272  22.100  11.944
55105W        W16471  38.936  21.078   1.364
55106W        W16472  21.234   5.355  12.050
55107W        W16473  22.191  36.364   1.405
55108W        W16474  33.930  37.004  14.914
55109W        W16475  13.629   3.244   0.406
55110W        W16476  26.105  14.591  14.458
55111W        W16477  18.210  14.803   1.894
55112W        W16478  44.938   7.203  12.985
55113W        W16479  28.486  37.383   2.398
55114W        W16480  25.569   3.893  14.865
55115W        W16481  21.587  20.539  10.975
55116W        W16482   6.883  40.897   1.362
55117W        W16483  40.313   2.234  11.019
55118W        W16484   6.747  39.944  12.940
55119W        W16485  42.480  31.086   2.879
55120W        W16486  41.359  22.530  14.426
55121W        W16487   1.826   8.309  13.970
55122W        W16488  11.733  16.277  10.630
55123W        W16489  34.891  30.458  12.069
55124W        W16490  11.771  33.928   1.817
55125W        W16491  33.937   5.883  13.447
55126W        W16492  13.274  22.103  13.532
55127W        W16493   2.879   0.254   4.687
55128W        W16494   3.340   2.967  12.449
55129W        W16495  31.551   0.278  12.380
55130W        W16496   7.860   4.876  10.938
55131W        W16497  14.257  28.549   2.853
55132W        W16498  21.533  14.129   4.777
55133W        W16499  27.545   0.805   4.838
55134W        W16500  12.783  24.055   3.149
55135W        W16501   7.274   1.279  14.862
55136W        W16502   7.282  44.475  13.969
55137W        W16503  44.880   4.232  13.915
55138W        W16504  19.087  12.279  10.559
55139W        W16505  33.589  37.954  11.858
55140W        W16506   4.226  29.546  12.864
55141W        W16507  30.033  32.591  12.905
55142W        W16508  22.659   9.269   1.721
55143W        W16509   9.859  41.526  13.355
55144W        W16510   1.243  30.537   0.461
55145W        W16511  41.794  34.018  10.557
55146W        W16512  18.647  16.694   0.433
55147W        W16513  36.424  34.025  14.020
55148W        W16514  34.551  17.151  13.334
55149W        W16515   2.777  33.879   3.194
55150W        W16516   5.350   0.252  10.561
55151W        W16517  35.001  20.047  10.584
55152W        W16518  40.407  32.617  14.780
55153W        W16519  44.393  37.497  14.851
55154W        W16520   5.928   3.374   3.770
55155W        W16521  30.552  18.226  10.992
55156W        W16522  43.884  32.453   2.899
55157W        W16523   8.774   0.865  10.633
55158W        W16524  22.537  10.805   1.417
55159W        W16525  36.020  19.724   2.316
55160W        W16526  35.085  27.948   5.168
55161W        W16527   9.339   7.222  13.322
55162W        W16528   2.853  11.733  14.471
55163W        W16529  20.237  38.376  11.550
55164W        W16530  21.136  39.837   0.930
55165W        W16531  42.018   0.276  11.027
55166W        W16532  31.933  11.217  13.477
55167W        W16533  17.099  32.418   2.339
55168W        W16534   2.414  40.369   0.378
55169W        W16535  42.486  29.098   2.359
55170W        W16536  21.755  41.456  13.439
55171W        W16537  35.898  18.691  12.882
55172W        W16538  14.275  36.943   0.271
55173W        W16539  21.156  31.906   0.417
55174W        W16540  34.095  33.998  12.047
55175W        W16541  39.439  22.085  14.867
55176W        W16542  10.221  37.530  10.426
55177W        W16543  21.126   7.754   4.147
55178W        W16544   9.661  24.147   1.817
55179W        W16545   4.409   0.375  14.493
55180W        W16546  17.160  10.193  13.944
55181W        W16547   4.783  35.527   3.658
55182W        W16548  41.882  43.884   4.792
55183W        W16549  44.269   6.836   1.749
55184W        W16550  42.497  28.640  11.873
55185W        W16551  28.079  26.466  11.505
55186W        W16552   8.833  24.094  10.428
55187W        W16553  30.466   2.771  10.907
55188W        W16554  32.608   2.260  11.028
55189W        W16555  27.025  16.662  10.403
55190W        W16556   7.755   1.892  13.389
55191W        W16557  38.461  28.594  13.965
55192W        W16558  44.376  29.029   0.294
55193W        W16559  31.507  33.903  12.931
55194W        W16560  16.308  28.554  10.958
55195W        W16561  22.683   1.275  12.061
55196W        W16562  18.614  20.545   4.222
55197W        W16563  20.246  40.051  13.440
55198W        W16564  13.271  29.585   3.729
55199W        W16565  19.153  37.340   0.967
55200W        W16566   0.372   7.780   0.878
55201W        W16567   5.707  25.653  11.871
55202W        W16568  23.525  32.983  14.992
55203W        W16569  13.267  27.197  14.303
55204W        W16570  31.137  44.972  10.530
55205W        W16571  26.046  43.404   2.900
55206W        W16572   0.948  11.185   2.766
55207W        W16573  11.776  14.802   2.277
55208W        W16574  23.552  24.157  10.506
55209W        W16575  28.130  13.791   2.863
55210W        W16576  10.315   5.924  14.314
55211W        W16577  18.267   2.305  14.506
55212W        W16578  29.451  14.260   0.465
55213W        W16579  20.603   9.727   2.283
55214W        W16580  24.508  39.371  13.423
55215W        W16581   8.236   7.400   2.830
55216W        W16582  33.957  37.474  14.413
55217W        W16583  44.990   4.283  14.398
55218W        W16584  10.761  14.160  14.016
55219W        W16585  10.835   4.826   2.692
55220W        W16586   5.764  10.671   2.367
55221W        W16587  39.924   9.877   2.795
55222W        W16588  34.385  28.621  10.421
55223W        W16589   6.299   6.812  11.863
55224W        W16590  10.149   8.767   1.235
55225W        W16591  33.596  12.760  13.840
55226W        W16592  40.944  12.145  10.920
55227W        W16593   5.271  28.950   0.315
55228W        W16594  21.715  22.721  10.956
55229W        W16595  22.176  19.147   0.292
55230W        W16596  15.623  19.603  12.956
55231W        W16597  20.136  10.743   0.744
55232W        W16598  31.089  10.243  11.379
55233W        W16599  12.843  43.800  13.423
55234W        W16600  42.832  11.173  12.988
55235W        W16601  20.258   7.788  11.911
55236W        W16602  30.642  42.921   3.824
55237W        W16603  36.091  37.965   0.894
55238W        W16604   7.701   6.783  13.947
55239W        W16605  37.061  22.251  14.789
55240W        W16606  36.590  17.224   5.300
55241W        W16607   0.789  14.260   4.231
55242W        W16608  13.106   0.401   3.718
55243W        W16609  20.104   2.357  14.398
55244W        W16610  36.869  24.642   3.280
55245W        W16611  35.459   2.226   1.242
55246W        W16612  21.628   5.695   3.867
55247W        W16613  17.161  31.515  13.323
55248W        W16614  17.064  40.980   2.745
55249W        W16615   4.804   6.287   1.842
55250W        W16616  43.951   6.392   3.756
55251W        W16617   8.725   3.238   1.439
55252W        W16618  19.217  23.577  14.774
55253W        W16619   8.732  24.148  14.010
55254W        W16620  42.824  14.153   0.268
55255W        W16621   2.965  36.497   4.644
55256W        W16622  21.036  28.036  14.970
55257W        W16623  13.343  21.022  13.950
55258W        W16624  28.069  37.893   3.767
55259W        W16625  12.708  32.631   5.193
55260W        W16626  28.129  26.137  14.907
55261W        W16627  38.336  19.284   2.404
55262W        W16628  18.232  25.025  14.856
55263W        W16629  12.240   6.855  14.799
55264W        W16630  36.590   5.420   1.294
55265W        W16631  31.981   7.335   0.940
55266W        W16632   5.295   1.242  12.041
55267W        W16633  30.587   6.773   4.138
55268W        W16634  32.890   1.260   1.729
55269W        W16635  36.896  14.763  14.956
55270W        W16636  10.653  35.955  14.299
55271W        W16637  29.469  25.051  11.049
55272W        W16638   9.767  41.526   0.762
55273W        W16639  39.374  16.160  12.489
55274W        W16640  27.125   6.346  13.346
55275W        W16641  29.071   1.291  12.969
55276W        W16642  32.955   6.299   0.367
55277W        W16643  25.684  38.056   3.638
55278W        W16644  21.170  11.673  10.419
55279W        W16645   2.378   3.321  13.539
55280W        W16646  30.071   4.872   3.859
55281W        W16647  16.719   5.696  13.051
55282W        W16648  40.446  24.024  12.417
55283W        W16649  24.718  32.017  12.078
55284W        W16650  24.688  31.146  14.825
55285W        W16651  32.605  19.117   2.297
55286W        W16652  30.946  29.101   3.754
55287W        W16653  33.622   7.771  12.363
55288W        W16654  25.125  42.895  12.430
55289W        W16655  39.996  23.547  10.471
55290W        W16656  14.119  15.805   4.186
55291W        W16657  15.749  40.901  14.772
55292W        W16658  12.305  19.613   2.195
55293W        W16659  24.204  43.440  13.347
55294W        W16660  24.483  38.416  12.928
55295W        W16661   6.409   8.669   4.620
55296W        W16662   8.682   1.262  13.375
55297W        W16663  23.208  27.960   4.316
55298W        W16664  17.292  31.935   4.207
55299W        W16665   2.259  40.501  11.905
55300W        W16666  12.672  25.520  13.997
55301W        W16667   8.353  26.645   2.231
55302W        W16668  15.261   5.841   1.887
55303W        W16669  12.701  27.676   2.770
55304W        W16670  20.261  42.887  13.432
55305W        W16671   9.249  10.860   2.177
55306W        W16672  44.899  28.643  14.364
55307W        W16673  15.194  35.470  11.123
55308W        W16674  19.655  12.232  12.391
55309W        W16675  31.141   3.408   2.704
55310W        W16676  28.931   6.801   4.218
55311W        W16677   0.314  28.056  13.904
55312W        W16678   8.864  27.527  14.893
55313W        W16679  30.518  21.629  11.963
55314W        W16680  37.576   9.245  10.888
55315W        W16681  35.014   9.687   2.279
55316W        W16682   7.803  40.345  12.490
55317W        W16683  29.118  12.762   3.647
55318W        W16684  12.674  40.494   0.870
55319W        W16685  21.040  11.314   2.879
55320W        W16686   3.300  30.476   0.899
55321W        W16687   4.913  42.523  11.550
55322W        W16688  38.517   9.890   3.652
55323W        W16689  26.492  16.278  12.057
55324W        W16690  41.371  18.227  13.987
55325W        W16691  27.988  11.358  14.960
55326W        W16692  38.940  39.476   4.193
55327W        W16693  24.660   1.468  10.963
55328W        W16694  23.198  41.409  10.971
55329W        W16695  25.182  23.650   4.201
55330W        W16696  16.604  36.578  13.842
55331W        W16697  40.328   5.811  11.961
55332W        W16698  12.628  44.996  13.447
55333W        W16699   1.927  27.168   1.933
55334W        W16700  25.028   9.158   4.783
55335W        W16701  12.787  38.390  12.829
55336W        W16702  30.443  21.655  14.432
55337W        W16703  14.189  30.608  12.927
55338W        W16704  39.003  29.447   5.228
55339W        W16705  24.615  10.704   3.201
55340W        W16706  37.896  29.931   0.355
55341W        W16707   9.889  17.260   0.394
55342W        W16708  12.800  10.731  13.836
55343W        W16709  27.185  23.649  12.033
55344W        W16710  24.064  17.081   1.254
55345W        W16711   2.340  34.576   3.203
55346W        W16712  17.068   7.814  11.470
55347W        W16713  29.933   8.312   0.755
55348W        W16714  12.249   6.306   3.645
55349W        W16715  27.630  37.363  11.559
55350W        W16716   0.830   4.257   2.739
55351W        W16717  25.093   7.799   5.221
55352W        W16718  37.942  26.630  14.882
55353W        W16719  20.206   8.845   5.120
55354W        W16720  32.617  17.637  11.466
55355W        W16721  31.626  27.189  11.913
55356W        W16722  39.473  20.071   4.725
55357W        W16723  22.200  24.027  14.391
55358W        W16724  25.539  11.700   1.784
55359W        W16725  43.806   7.903   4.272
55360W        W16726  27.478  15.626   2.789
55361W        W16727  27.532   7.710  14.464
55362W        W16728  31.137  19.690  12.435
55363W        W16729  23.152  22.614   2.786
55364W        W16730  38.873  21.199   2.753
55365W        W16731   4.447  23.620   2.220
55366W        W16732  41.516  36.078   1.895
55367W        W16733  33.932   8.877   1.230
55368W        W16734  33.409  25.970  13.838
55369W        W16735   7.873  38.046  10.903
55370W        W16736  26.461  40.910  13.406
55371W        W16737  33.079  14.107   0.329
55372W        W16738  26.151  40.399  12.955
55373W        W16739   9.327  30.085  14.761
55374W        W16740  15.677  44.857  13.395
55375W        W16741   5.777  35.914   1.763
55376W        W16742  41.941  24.479  11.007
55377W        W16743   0.843  33.478   1.383
55378W        W16744  22.191  18.115   2.754
55379W        W16745  12.267  44.797   1.256
55380W        W16746  44.468  42.366   3.322
55381W        W16747   7.414  24.062  13.002
55382W        W16748  14.659   9.249   2.781
55383W        W16749  42.411   4.737  14.299
55384W        W16750  13.816  35.063  11.029
55385W        W16751  39.406  41.942   0.956
55386W        W16752  37.525  19.095   2.307
55387W        W16753  15.765  26.687   1.747
55388W        W16754  30.938  28.620  11.496
55389W        W16755  10.206  26.544   2.695
55390W        W16756  39.554  18.241  12.532
55391W        W16757  38.998  35.509   0.949
55392W        W16758  43.975   3.803   2.791
55393W        W16759  38.426   3.891  11.930
55394W        W16760   7.213  42.013   1.882
55395W        W16761  10.718  25.551  11.859
55396W        W16762  23.057  43.483   4.683
55397W        W16763  38.566  36.429   0.349
55398W        W16764   5.358   7.331  14.005
55399W        W16765  15.700   9.837   3.826
55400W        W16766   2.909  41.425   2.764
55401W        W16767  28.946   6.216   3.222
55402W        W16768   7.806  35.005  12.868
55403W        W16769   6.788   7.878   1.358
55404W        W16770  33.927  17.092   3.688
55405W        W16771  32.516   0.764  13.527
55406W        W16772  15.234  29.949  12.559
55407W        W16773   4.913   6.397  13.874
55408W        W16774   1.412  44.320   0.322
55409W        W16775  11.683  12.732   2.276
55410W        W16776   2.238  15.286  13.924
55411W        W16777  10.717   3.747   4.645
55412W        W16778  16.666  10.647  13.530
55413W        W16779  42.372  38.946   4.218
55414W        W16780  42.427  22.645   2.214
55415W        W16781  33.997  44.454  12.082
55416W        W16782  12.704  26.157  12.064
55417W        W16783  41.822  42.339   4.759
55418W        W16784  21.257  36.472   0.479
55419W        W16785  40.040  22.133  12.096
55420W        W16786  14.255  35.021  12.488
55421W        W16787  16.587   8.895   3.667
55422W        W16788  24.687   0.895  14.920
55423W        W16789  22.645   9.867   9.957
55424W        W16790   5.292  18.096  12.922
55425W        W16791  29.663  23.637  13.858
55426W        W16792  27.492  29.070  14.452
55427W        W16793  34.011  41.336  13.325
55428W        W16794  43.858  28.047   3.209
55429W        W16795  15.120  29.563  12.914
55430W        W16796   6.318   4.394   9.614
55431W        W16797  10.260  36.352  12.527
55432W        W16798  29.121  26.602   4.120
55433W        W16799  10.166  38.896   3.146
55434W        W16800  12.797   4.725  12.951
55435W        W16801  19.640  15.124  12.016
55436W        W16802  42.402  18.247   1.787
55437W        W16803  22.157  41.320  13.477
55438W        W16804  34.052  42.006  13.051
55439W        W16805  40.884  24.608   4.229
55440W        W16806  38.444   0.988  11.894
55441W        W16807  33.990   6.913   2.699
55442W        W16808  25.481  15.158   3.245
55443W        W16809  40.346  38.029  13.451
55444W        W16810  28.506  33.951  10.939
55445W        W16811  28.477  20.121  13.373
55446W        W16812  16.589  37.368   4.251
55447W        W16813  21.754  33.559   5.263
55448W        W16814   6.382  29.012  13.527
55449W        W16815  22.086  44.462  14.851
55450W        W16816   7.699  20.636   4.792
55451W        W16817  38.846   9.385  14.438
55452W        W16818  36.430  17.187  14.296
55453W        W16819   5.379   7.738   0.373
55454W        W16820  27.620  18.051  13.994
55455W        W16821   1.757  20.270   2.864
55456W        W16822   0.410  18.681  12.499
55457W        W16823  41.861  26.575   9.934
55458W        W16824  41.868  30.417   5.288
55459W        W16825  21.093  16.634  14.332
55460W        W16826  34.592  24.127   0.754
55461W        W16827  44.977  44.837  13.485
55462W        W16828  27.018  15.761  14.938
55463W        W16829  40.364  31.896  10.016
55464W        W16830  33.381  29.059   4.315
55465W        W16831  19.582  17.729  12.024
55466W        W16832  26.655   3.351   1.801
55467W        W16833  26.951  34.087   1.222
55468W        W16834   3.340  44.396  14.304
55469W        W16835  12.257  39.335  12.383
55470W        W16836  38.893  28.980  11.095
55471W        W16837  43.486   4.334  13.058
55472W        W16838   3.861   6.761   2.873
55473W        W16839   5.829  26.982  12.875
55474W        W16840  33.104  44.964  10.462
55475W        W16841  10.333   5.700  13.819
55476W        W16842  15.204  28.590  12.567
55477W        W16843  35.901   1.258  12.913
55478W        W16844  13.234  40.944   1.917
55479W        W16845  35.363  43.386  10.991
55480W        W16846  15.707  19.765  13.443
55481W        W16847  43.957   9.849  12.353
55482W        W16848  37.947  10.831  13.988
55483W        W16849  15.197  15.225  14.999
55484W        W16850  22.057   1.436  14.299
55485W        W16851  34.886  32.065   0.913
55486W        W16852  18.228  24.988  13.018
55487W        W16853  14.149  44.844   4.195
55488W        W16854  20.098  35.052   0.301
55489W        W16855   8.871  38.384   0.940
55490W        W16856  42.487  26.619   1.244
55491W        W16857  13.197   0.895   1.255
55492W        W16858  16.192   3.331  12.082
55493W        W16859  26.169  33.617  11.047
55494W        W16860  30.128  41.011   3.640
55495W        W16861  43.769  25.213   0.432
55496W        W16862  17.723  22.661   1.812
55497W        W16863  30.657  10.638  12.563
55498W        W16864  12.685   2.822   2.859
55499W        W16865   4.800   2.244   2.691
55500W        W16866  10.248  18.578  13.853
55501W        W16867   5.756  15.102   5.196
55502W        W16868   7.721  17.198   5.299
55503W        W16869  17.686   3.452  13.816
55504W        W16870  29.483  25.117   2.410
55505W        W16871   8.709   3.429   4.670
55506W        W16872  43.792  28.167   0.906
55507W        W16873  15.760   8.788   2.252
55508W        W16874  33.913  39.850   2.802
55509W        W16875  36.862  18.276  12.409
55510W        W16876  40.347  10.362   4.279
55511W        W16877   1.239  23.229   0.431
55512W        W16878   6.363  42.392  13.903
55513W        W16879  35.435  19.285  11.429
55514W        W16880  41.436  25.163  12.443
55515W        W16881  24.996   4.354  14.839
55516W        W16882   4.812   7.384   2.236
55517W        W16883  24.635   4.212   0.959
55518W        W16884  25.512  11.347   2.339
55519W        W16885  43.512  37.900   3.234
55520W        W16886  40.414   4.902  12.879
55521W        W16887  41.376  17.631  12.039
55522W        W16888  21.171  13.625   4.801
55523W        W16889   4.880  30.598  10.586
55524W        W16890  11.136  21.122   4.693
55525W        W16891  36.582  19.229  12.086
55526W        W16892  40.488  38.445   4.184
55527W        W16893   7.839  28.591  11.375
55528W        W16894  18.273   9.225  13.445
55529W        W16895  23.657  43.883   1.285
55530W        W16896  39.013  42.785   3.855
55531W        W16897  34.041  37.543  10.428
55532W        W16898  36.577   4.398  13.520
55533W        W16899  21.667  17.801   2.680
55534W        W16900   7.689  30.459   1.281
55535W        W16901   4.935  42.477  14.894
55536W        W16902  44.962  33.569   1.254
55537W        W16903  33.039  15.663  11.868
55538W        W16904  41.412  15.731   1.826
55539W        W16905   3.271   4.242  13.308
55540W        W16906   1.315  42.483  11.908
55541W        W16907  34.573  39.885  12.094
55542W        W16908  25.161  35.446  14.362
55543W        W16909  27.100  23.574   1.933
55544W        W16910   1.364  14.227  12.865
55545W        W16911  29.643  21.037   3.172
55546W        W16912  30.627   1.741  10.491
55547W        W16913  27.014  41.921   0.377
55548W        W16914  27.557  21.164   4.131
55549W        W16915   9.646  36.058   4.334
55550W        W16916   9.721   0.492  11.466
55551W        W16917   5.907  18.558  13.909
55552W        W16918  38.962  11.780   0.787
55553W        W16919  31.406  15.115  13.543
55554W        W16920  28.544  17.222   0.791
55555W        W16921  10.379  10.312  13.974
55556W        W16922  17.294  37.887   0.812
55557W        W16923   6.217  44.780  10.407
55558W        W16924  37.930   8.346  12.041
55559W        W16925  14.179   3.219   0.768
55560W        W16926   2.843  21.262  12.856
55561W        W16927  21.066  15.321   0.924
55562W        W16928  27.943  25.709   1.781
55563W        W16929  30.623   3.358   2.378
55564W        W16930  10.261  34.900   2.812
55565W        W16931  34.046  41.473  12.385
55566W        W16932  10.633   3.874   1.416
55567W        W16933   1.413  25.104   1.391
55568W        W16934   5.329  13.804   5.579
55569W        W16935  11.734   6.919   2.211
55570W        W16936  38.991   2.284   2.365
55571W        W16937  28.581  28.523  12.420
55572W        W16938  39.439  28.522  11.063
55573W        W16939  17.193   6.723   2.828
55574W        W16940  34.044  11.150   3.170
55575W        W16941   3.795   4.249   3.709
55576W        W16942   7.382  37.937  13.833
55577W        W16943   6.688  35.881  11.448
55578W        W16944  18.108  25.587  12.849
55579W        W16945   0.916  32.519  14.974
55580W        W16946   9.646  30.144   0.799
55581W        W16947  34.978  34.446  14.870
55582W        W16948  24.078  11.180   3.206
55583W        W16949  39.064  27.465   3.302
55584W        W16950   6.190  40.382  14.990
55585W        W16951  35.496  33.576   0.480
55586W        W16952  38.852  12.612   2.233
55587W        W16953  22.543  32.416   3.640
55588W        W16954   1.465  25.666  11.857
55589W        W16955  44.292  34.529  14.826
55590W        W16956   5.289  28.540   2.693
55591W        W16957  19.538   2.779  14.410
55592W        W16958  22.738  22.524   5.164
55593W        W16959  38.955  32.974  10.496
55594W        W16960  19.060  16.592  14.438
55595W        W16961  14.656  19.625   0.448
55596W        W16962  33.069  26.208   2.693
55597W        W16963  44.000  44.328  12.439
55598W        W16964  25.664   4.853   1.862
55599W        W16965  40.011   6.192  11.125
55600W        W16966  13.671   9.286  14.770
55601W        W16967  28.558  32.572  13.792
55602W        W16968  18.597  33.937   4.644
55603W        W16969  10.698  14.732   2.881
55604W        W16970   3.406   3.352   4.647
55605W        W16971  18.579  39.923   1.753
55606W        W16972   0.264  11.338  11.501
55607W        W16973   7.253  37.480  12.877
55608W        W16974   2.286   7.677   4.706
55609W        W16975  41.973  11.262   4.618
55610W        W16976  12.763  30.504  13.328
55611W        W16977  18.228  15.161   9.929
55612W        W16978  12.682  29.114   2.231
55613W        W16979   4.258  41.948  14.377
55614W        W16980   4.244  21.754   2.701
55615W        W16981  24.186  19.639  12.096
55616W        W16982  22.177   6.794   1.773
55617W        W16983  10.757  40.867  11.372
55618W        W16984  31.451  36.482   1.338
55619W        W16985  19.128  40.970  11.499
55620W        W16986  36.959  42.799  10.467
55621W        W16987  13.329  31.473  10.147
55622W        W16988  38.430  17.212   3.187
55623W        W16989  25.054  16.742  12.487
55624W        W16990  20.246  17.676   0.244
55625W        W16991   7.213  35.509  14.851
55626W        W16992  19.188  27.062   4.776
55627W        W16993  37.499  16.169  12.429
55628W        W16994  20.068  25.968  13.329
55629W        W16995  14.128   2.288  11.443
55630W        W16996  44.777  25.978  12.034
55631W        W16997  32.443  30.513  11.538
55632W        W16998  34.568   8.288  14.398
55633W        W16999  32.497  19.151   1.724
55634W        W17000  21.558   4.325   0.443
55635W        W17001   0.747   8.190   2.336
55636W        W17002  30.970  21.157  10.987
55637W        W17003   7.761  11.758  11.524
55638W        W17004  14.234  35.582  14.370
55639W        W17005  44.940  25.708   4.778
55640W        W17006  16.627  36.010  10.562
55641W        W17007  40.412   5.832   4.125
55642W        W17008   3.266  35.479  10.940
55643W        W17009   7.414  10.302  14.818
55644W        W17010  12.215  34.903  12.381
55645W        W17011  21.625  43.838   0.355
55646W        W17012  33.458  32.087   3.191
55647W        W17013   0.461  27.028   0.822
55648W        W17014  16.299   6.393  11.545
55649W        W17015   0.414  25.029  11.459
55650W        W17016   2.741  30.555   1.860
55651W        W17017  21.027  15.580   4.737
55652W        W17018  42.321  43.832  13.320
55653W        W17019   8.782  42.985   4.263
55654W        W17020  36.983  41.501  10.588
55655W        W17021  23.051  14.629  12.465
55656W        W17022  21.622  15.181   0.895
55657W        W17023  16.674  18.687  14.342
55658W        W17024   4.204  21.673  13.018
55659W        W17025   7.376  36.406   0.320
55660W        W17026  43.864   7.401   2.358
55661W        W17027   3.729  26.461  11.063
55662W        W17028   3.755   6.780   0.428
55663W        W17029  12.170  14.639  11.592
55664W        W17030  42.978  35.081   3.203
55665W        W17031  40.542   1.245   4.199
55666W        W17032  11.835   6.704  12.910
55667W        W17033  21.694  16.580  11.938
55668W        W17034   9.353  18.672   4.708
55669W        W17035  36.032  30.560   2.318
55670W        W17036  13.607  21.747  14.323
55671W        W17037  17.664  39.314  11.012
55672W        W17038  34.870  34.507   4.231
55673W        W17039  42.478  37.371  10.574
55674W        W17040   8.715   6.922  14.365
55675W        W17041  33.586   8.201   2.701
55676W        W17042  30.044  41.848   0.913
55677W        W17043  22.042  30.654  14.459
55678W        W17044  43.869  18.659  10.548
55679W        W17045  12.750   3.245   1.788
55680W        W17046  19.537  31.011   2.771
55681W        W17047  40.368  25.014   3.704
55682W        W17048  22.624  38.873  11.920
55683W        W17049  27.576   8.196  14.939
55684W        W17050   3.270  42.887   3.173
55685W        W17051   0.850  43.010  10.477
55686W        W17052  35.032  20.740   0.245
55687W        W17053  41.791  13.819   0.329
55688W        W17054  15.237  26.000   3.161
55689W        W17055  29.977  39.887  11.870
55690W        W17056   6.405  23.119   1.750
55691W        W17057   3.416  16.164   2.275
55692W        W17058  18.244  35.003  11.419
55693W        W17059  32.929  42.427  14.835
55694W        W17060   8.776  36.055   4.814
55695W        W17061  22.241   0.482   0.258
55696W        W17062  14.605   7.361   1.835
55697W        W17063   1.253   5.252   4.329
55698W        W17064  31.492   7.673   0.257
55699W        W17065   1.840   8.342   4.227
55700W        W17066  23.022   2.451   5.224
55701W        W17067  17.267  23.194  10.948
55702W        W17068  34.098   7.684   2.827
55703W        W17069   4.866  40.981  14.316
55704W        W17070  33.024   8.849  13.468
55705W        W17071   6.199  18.243   4.635
55706W        W17072  25.524  38.335   1.798
55707W        W17073  11.284   5.231   1.295
55708W        W17074  11.843  28.508  12.082
55709W        W17075  35.036  33.884   0.244
55710W        W17076  41.481  25.486   2.275
55711W        W17077  33.436  19.646  11.077
55712W        W17078  26.062   7.405   2.303
55713W        W17079  41.330  27.093  14.310
55714W        W17080  20.070  28.001   1.443
55715W        W17081   5.718  40.316   1.403
55716W        W17082  12.840  43.953   4.183
55717W        W17083  11.292   7.857  11.889
55718W        W17084  43.015   4.819  13.480
55719W        W17085  43.333  18.625  13.933
55720W        W17086  35.999   9.869  13.307
55721W        W17087  42.483   1.857  12.554
55722W        W17088   0.836  23.180  13.960
55723W        W17089  40.505  28.536  11.509
55724W        W17090   1.917  14.131  10.404
55725W        W17091  17.767  39.977   2.331
55726W        W17092   3.830  27.527   4.268
55727W        W17093  20.208   2.469   4.624
55728W        W17094  34.079   3.235  11.563
55729W        W17095  38.862  37.539  14.309
55730W        W17096  37.580  25.036   2.811
55731W        W17097  11.699   0.767  14.497
55732W        W17098   2.721  36.983   1.770
55733W        W17099   2.834  26.055   0.939
55734W        W17100  24.584  37.979  14.412
55735W        W17101  19.583  38.031  12.497
55736W        W17102  18.188  40.524  12.452
55737W        W17103  22.231   2.424   4.283
55738W        W17104   5.252  28.542  14.467
55739W        W17105   1.482   1.313   4.829
55740W        W17106   8.209  23.723  12.357
55741W        W17107  43.280   4.735  11.580
55742W        W17108  11.258   6.799   4.741
55743W        W17109   1.859  15.783  11.865
55744W        W17110  22.023  37.974  11.386
55745W        W17111  44.475  30.567  11.878
55746W        W17112  23.521  42.329   4.210
55747W        W17113  13.161  19.226   2.856
55748W        W17114   5.202  39.964   3.290
55749W        W17115  44.470  33.523  12.904
55750W        W17116  25.528  35.991   5.274
55751W        W17117  39.384   3.818   1.355
55752W        W17118  30.925  43.814   3.219
55753W        W17119  34.057   6.191   2.280
55754W        W17120  32.957  40.813  12.424
55755W        W17121   1.467  14.781  13.883
55756W        W17122  34.042  40.940   0.787
55757W        W17123  12.673  30.066   3.337
55758W        W17124   7.228   2.353   3.313
55759W        W17125  41.520  35.398   1.781
55760W        W17126   6.355  16.677  14.791
55761W        W17127   6.315  39.947  13.943
55762W        W17128   5.854  18.678  10.940
55763W        W17129   8.227  22.037   1.232
55764W        W17130  40.798   9.195   3.767
55765W        W17131  34.434  19.066   3.190
55766W        W17132  23.614  29.512   3.841
55767W        W17133  30.602  39.834  12.579
55768W        W17134  39.966  35.569  11.391
55769W        W17135  28.007  13.637  10.441
55770W        W17136  35.030  32.958   4.137
55771W        W17137  30.538  22.626   5.650
55772W        W17138  38.027  23.685   0.821
55773W        W17139  36.526  41.940   0.860
55774W        W17140  12.159  30.135   2.283
55775W        W17141  34.918  29.471   2.332
55776W        W17142  38.981  19.109   1.856
55777W        W17143  26.177  28.010   1.439
55778W        W17144  11.316  32.600  12.957
55779W        W17145  19.656  16.791   0.772
55780W        W17146  18.779  41.818  12.382
55781W        W17147  31.497   5.719   3.186
55782W        W17148  27.002  25.692   4.667
55783W        W17149  42.318  19.148  13.007
55784W        W17150   8.268  12.301   4.308
55785W        W17151   2.761  39.965  14.895
55786W        W17152  24.103  16.114  13.507
55787W        W17153   6.758  35.546   4.697
55788W        W17154   5.311   3.955   3.849
55789W        W17155  30.488  22.747   3.866
55790W        W17156  29.455  22.678  11.953
55791W        W17157  27.593  13.660  11.526
55792W        W17158  42.920  16.752  12.557
55793W        W17159   3.352  13.716  11.032
55794W        W17160   9.778  10.258  11.502
55795W        W17161  18.273  25.526  11.460
55796W        W17162  43.816  32.046   3.644
55797W        W17163   3.291   5.836  14.992
55798W        W17164   1.848  34.001  11.909
55799W        W17165  35.079  19.649  10.549
55800W        W17166   0.745  10.291   3.238
55801W        W17167  39.049  14.265  14.854
55802W        W17168  32.595  30.521  12.061
55803W        W17169  18.073   8.366  14.428
55804W        W17170  28.140  44.972   3.821
55805W        W17171  25.145  36.411  11.517
55806W        W17172  41.900   7.748   0.899
55807W        W17173  39.528   4.934  12.943
55808W        W17174  23.577   5.407   1.835
55809W        W17175  21.684   9.242   1.328
55810W        W17176  31.966  13.763  11.534
55811W        W17177  35.047   6.778   4.114
55812W        W17178  35.986  28.070  14.850
55813W        W17179  10.344  18.228  13.426
55814W        W17180  32.129  19.117  10.417
55815W        W17181   5.832  37.939   3.269
55816W        W17182  34.062  36.402   4.346
55817W        W17183  18.607   4.811  10.547
55818W        W17184   7.892  36.480  10.454
55819W        W17185   7.787  40.496  11.430
55820W        W17186  23.100  26.559   1.281
55821W        W17187  28.086  18.667   1.279
55822W        W17188  40.838   5.395  13.032
55823W        W17189  19.148  32.403  13.474
55824W        W17190  26.556  12.669   2.356
55825W        W17191  43.356  27.177  11.419
55826W        W17192  39.933  19.205   2.854
55827W        W17193  29.584  33.887  11.028
55828W        W17194  20.077   9.178  12.046
55829W        W17195  13.779   6.813  11.500
55830W        W17196   9.886  30.467   3.645
55831W        W17197  22.521  37.472  13.310
55832W        W17198  21.665  43.961   2.357
55833W        W17199  16.095  10.348   3.778
55834W        W17200  12.261  16.226   4.167
55835W        W17201  39.843  14.120  14.987
55836W        W17202  29.931   7.230   4.610
55837W        W17203  19.236  21.081   0.927
55838W        W17204   5.738  27.033  10.937
55839W        W17205  43.765  24.163   2.328
55840W        W17206  33.399   8.304  13.365
55841W        W17207  24.668  32.414  12.493
55842W        W17208  33.931  36.383  14.997
55843W        W17209   1.303  38.334   4.170
55844W        W17210  17.628  32.090  13.499
55845W        W17211  18.691  35.474   2.793
55846W        W17212  44.476   7.681  11.545
55847W        W17213  42.889  34.523  14.839
55848W        W17214  42.817   0.446   1.929
55849W        W17215   0.742  28.063   1.920
55850W        W17216  14.308  34.963   5.704
55851W        W17217  18.094  44.287   4.167
55852W        W17218   5.359  42.352  11.376
55853W        W17219  31.526  13.763  13.445
55854W        W17220  19.554  29.951   1.374
55855W        W17221   7.216  31.523  12.465
55856W        W17222   1.943   2.254  14.846
55857W        W17223  41.831  14.789  14.362
55858W        W17224   4.407  34.560  12.913
55859W        W17225  24.044   2.231  13.799
55860W        W17226  38.875  24.196  10.980
55861W        W17227  13.709  29.951   4.142
55862W        W17228  17.128   3.251   0.847
55863W        W17229  12.692  23.634   1.233
55864W        W17230  18.646  37.402   4.695
55865W        W17231  37.578  26.510   2.865
55866W        W17232   3.345   9.874  12.574
55867W        W17233  44.370  37.009   0.728
55868W        W17234   5.340  16.617   2.790
55869W        W17235   1.896  19.100  13.477
55870W        W17236  39.885   8.382   2.773
55871W        W17237  31.511   2.834  14.864
55872W        W17238   7.666   8.238  10.960
55873W        W17239  21.724  40.304   4.264
55874W        W17240   6.332  15.800   3.840
55875W        W17241   4.751  28.123  13.797
55876W        W17242  33.398  21.225  14.819
55877W        W17243   1.759  31.962  11.506
55878W        W17244  41.997  29.594  12.417
55879W        W17245  35.581   3.294   0.735
55880W        W17246   7.719  21.187  10.091
55881W        W17247  29.429  39.899  12.875
55882W        W17248   7.680  22.996   3.776
55883W        W17249  29.653   9.360  11.867
55884W        W17250  20.160  15.310   4.300
55885W        W17251   9.186  39.968   0.952
55886W        W17252  33.499  24.015   0.244
55887W        W17253  35.372  21.544   2.259
55888W        W17254  25.619  11.351   0.935
55889W        W17255   3.933  20.749   3.215
55890W        W17256  19.127  41.935   3.845
55891W        W17257   6.391  16.227   0.255
55892W        W17258  17.248  37.983   4.239
55893W        W17259  26.633  43.803   0.825
55894W        W17260  19.049  14.266  10.554
55895W        W17261   1.761   7.321  13.328
55896W        W17262   1.287  35.930  11.375
55897W        W17263  39.896   9.797  13.385
55898W        W17264   9.203  21.723  14.482
55899W        W17265   1.411  19.198   2.396
55900W        W17266   5.695  27.081  11.506
55901W        W17267   7.260  41.422  14.987
55902W        W17268  20.676   4.861   3.249
55903W        W17269  39.435   3.872   3.336
55904W        W17270   5.330  15.756  14.454
55905W        W17271  17.584  30.087  14.404
55906W        W17272  41.970  20.538   4.835
55907W        W17273   8.306  16.735  14.441
55908W        W17274  11.135  28.521  14.345
55909W        W17275  22.186  37.084  14.291
55910W        W17276  17.781  42.892   0.437
55911W        W17277   0.418   9.887   3.682
55912W        W17278   6.712  21.723  11.990
55913W        W17279  32.490  34.990   9.972
55914W        W17280  26.491  18.551  12.891
55915W        W17281  36.024  26.038   3.265
55916W        W17282  41.981  32.142  13.826
55917W        W17283  28.463  44.970   4.250
55918W        W17284  11.260  44.275   2.662
55919W        W17285  42.994   3.380   1.429
55920W        W17286  11.732  42.469   3.702
55921W        W17287  17.132  13.833  14.032
55922W        W17288  39.477  39.391   1.779
55923W        W17289   5.769   5.387  14.450
55924W        W17290   4.420  23.207   1.810
55925W        W17291   4.863  18.077   3.846
55926W        W17292  34.591  31.097  11.937
55927W        W17293   7.792  26.638   0.863
55928W        W17294  32.114  33.515  10.627
55929W        W17295  23.190  44.323  12.860
55930W        W17296   3.896   9.290  14.959
55931W        W17297   6.275   1.800  11.452
55932W        W17298   6.699   5.708  11.406
55933W        W17299  23.697   5.689  11.395
55934W        W17300  19.645  15.783  12.058
55935W        W17301  40.910  42.322   3.291
55936W        W17302  29.437  27.136   0.256
55937W        W17303  18.664  39.016  14.275
55938W        W17304  30.542   1.253  14.797
55939W        W17305  25.574   5.732  10.892
55940W        W17306  21.553   3.949  13.370
55941W        W17307  29.989   5.688   2.265
55942W        W17308  18.642  44.337  11.501
55943W        W17309  17.560  12.151   4.143
55944W        W17310  38.996  12.123  14.388
55945W        W17311  34.541  11.212  13.540
55946W        W17312   2.436   1.844  13.907
55947W        W17313   4.231   4.748  13.948
55948W        W17314  11.747  39.827  11.558
55949W        W17315  31.073   5.258   3.320
55950W        W17316   9.799   7.293   1.858
55951W        W17317  19.706  32.398  13.992
55952W        W17318  33.574  35.374   1.255
55953W        W17319  43.941   0.275  11.473
55954W        W17320  19.232  42.418   0.318
55955W        W17321   8.309  14.818  11.031
55956W        W17322  44.387  22.648  12.080
55957W        W17323  42.309   0.784  12.579
55958W        W17324  19.571   6.238   0.295
55959W        W17325   4.836   1.248  14.436
55960W        W17326   5.916   6.197  13.489
55961W        W17327   0.377  32.960   0.926
55962W        W17328  37.987  21.542   2.262
55963W        W17329  15.723  35.509  14.504
55964W        W17330  38.499  20.162  10.466
55965W        W17331  10.808  13.159  14.968
55966W        W17332  31.003  42.957  10.480
55967W        W17333   3.440  29.450   1.699
55968W        W17334  28.077  15.296   1.788
55969W        W17335   6.261  28.617  12.346
55970W        W17336  44.490  29.612   1.227
55971W        W17337   4.923   3.333  11.543
55972W        W17338  23.575  22.148   2.290
55973W        W17339  10.326  43.892  12.946
55974W        W17340  44.352  34.876  11.080
55975W        W17341  14.139  24.524   4.150
55976W        W17342  34.038  19.641  14.308
55977W        W17343  22.665  32.607  11.592
55978W        W17344  14.825  42.008   1.427
55979W        W17345  11.834  23.667  12.895
55980W        W17346  11.261  29.036   1.882
55981W        W17347  36.900  43.367   2.822
55982W        W17348  20.617  19.685  11.393
55983W        W17349  42.927  28.623   2.248
55984W        W17350  14.150  26.133   1.249
55985W        W17351  44.379  25.602  13.415
55986W        W17352  19.218   1.929   4.301
55987W        W17353  13.216  38.340  11.933
55988W        W17354   7.690  26.066  11.084
55989W        W17355  41.293  27.043  13.328
55990W        W17356  40.549   4.772   5.243
55991W        W17357  44.258  28.947  13.009
55992W        W17358   8.382  24.162  12.558
55993W        W17359  42.776  16.318  12.371
55994W        W17360  18.557  41.514   0.736
55995W        W17361   2.874  33.386   0.434
55996W        W17362  30.486  36.430   2.822
55997W        W17363  16.198  17.062   0.343
55998W        W17364  35.019   8.888   1.857
55999W        W17365   3.412  23.152  14.030
56000W        W17366  18.254  15.214  13.798
56001W        W17367  19.130  39.494  11.392
56002W        W17368  17.656  14.727   9.454
56003W        W17369  34.432  28.439  14.489
56004W        W17370   3.779  28.170   3.349
56005W        W17371  37.037  11.309  13.405
56006W        W17372  40.478   7.292   0.804
56007W        W17373  34.373  41.424   0.272
56008W        W17374  44.315  11.687   0.259
56009W        W17375  20.202  43.919   1.375
56010W        W17376  37.487  17.594   3.363
56011W        W17377  42.364   3.416   2.260
56012W        W17378   5.807  27.613  10.569
56013W        W17379  28.028  28.121   2.390
56014W        W17380   0.249  21.249  10.492
56015W        W17381  42.815  16.770   4.630
56016W        W17382  30.050  28.121  13.036
56017W        W17383  43.966  10.660   4.308
56018W        W17384  35.026  33.395  13.868
56019W        W17385  40.309  22.108  14.391
56020W        W17386  34.061  32.035  11.059
56021W        W17387  23.177  35.943   0.420
56022W        W17388  41.832  11.268  11.558
56023W        W17389   6.237   2.230   5.307
56024W        W17390   6.298   1.771  13.840
56025W        W17391  30.018   0.331   3.220
56026W        W17392  36.520  27.503   2.774
56027W        W17393  27.475   3.862  13.896
56028W        W17394   4.797   2.240   5.241
56029W        W17395  31.027  38.981  12.066
56030W        W17396   9.705  36.402  13.489
56031W        W17397  36.475  34.931  12.492
56032W        W17398  26.004  30.954  14.340
56033W        W17399   3.714  24.600  11.416
56034W        W17400   3.438  39.381   3.642
56035W        W17401  41.371  33.079   3.221
56036W        W17402   7.811  34.386   2.315
56037W        W17403   9.776   6.269  14.495
56038W        W17404   5.904  22.116   0.477
56039W        W17405  35.433  27.657  10.917
56040W        W17406  36.968  24.981  14.974
56041W        W17407  10.704  43.495  12.407
56042W        W17408  43.291  42.381   4.157
56043W        W17409  18.746  12.214  10.601
56044W        W17410  40.473  24.193  13.420
56045W        W17411  15.283  24.123  11.900
56046W        W17412  33.606  26.543   4.128
56047W        W17413  36.954  39.878   5.309
56048W        W17414  24.080   1.249   4.309
56049W        W17415  11.861  26.474   4.649
56050W        W17416  40.515  43.300   3.650
56051W        W17417  12.221   8.197  11.990
56052W        W17418  24.696  11.325   4.246
56053W        W17419  24.724  13.321  13.477
56054W        W17420   1.779  17.121   4.327
56055W        W17421  12.629  30.515   1.247
56056W        W17422  14.705   2.748  14.803
56057W        W17423   6.896  40.801   4.118
56058W        W17424  24.130  32.064   9.945
56059W        W17425  12.218   3.941   1.782
56060W        W17426  11.856  27.467  13.926
56061W        W17427  29.014  27.034  14.440
56062W        W17428  13.105   7.266  14.865
56063W        W17429  41.455  11.840   2.343
56064W        W17430  35.051  25.702   2.813
56065W        W17431  29.971   7.836   3.686
56066W        W17432  32.535  33.493  12.526
56067W        W17433  38.901  13.286  11.438
56068W        W17434  21.693  35.936  11.555
56069W        W17435  13.204  41.364  13.928
56070W        W17436  15.106   2.785   4.801
56071W        W17437   3.382   8.836  11.074
56072W        W17438  26.038   6.862  13.050
56073W        W17439  13.752  24.002   0.424
56074W        W17440  38.503  29.085   4.348
56075W        W17441  34.009   1.774  13.830
56076W        W17442  32.917   0.425  12.891
56077W        W17443  29.550   9.356   4.196
56078W        W17444  29.434  41.956  10.609
56079W        W17445  14.616  23.081  13.824
56080W        W17446  30.929  40.422  10.997
56081W        W17447  44.409  21.658   0.829
56082W        W17448  20.734  35.449   9.975
56083W        W17449  18.221  36.863   3.227
56084W        W17450   9.785  26.567  13.878
56085W        W17451  25.062  24.609   3.805
56086W        W17452  33.382  39.034  10.033
56087W        W17453  26.965  17.229  11.065
56088W        W17454  11.735   6.700   3.323
56089W        W17455   1.336   0.345   2.417
56090W        W17456  18.113  14.750   2.814
56091W        W17457  35.590  27.161  14.773
56092W        W17458  23.118  34.965  12.580
56093W        W17459   5.375  39.967   1.313
56094W        W17460  10.188   9.230  12.040
56095W        W17461   6.396   9.798  11.980
56096W        W17462  31.908   7.822   5.319
56097W        W17463  32.951  23.155   3.367
56098W        W17464   6.827   6.273  12.963
56099W        W17465  21.570  40.931  12.080
56100W        W17466  10.692  11.792   2.377
56101W        W17467  19.552  25.679  12.058
56102W        W17468  32.988  37.423   0.355
56103W        W17469  23.572  37.549  12.827
56104W        W17470  29.580  15.170   2.810
56105W        W17471  10.762  26.959   0.348
56106W        W17472  34.892  31.507  11.101
56107W        W17473  38.948  22.121   3.680
56108W        W17474   7.224  31.902  14.382
56109W        W17475  35.018  20.687  13.047
56110W        W17476  41.829  27.616  13.867
56111W        W17477  37.839  23.132  11.439
56112W        W17478  44.996  23.030   1.442
56113W        W17479  34.938  44.981   1.372
56114W        W17480   1.393  29.474   2.698
56115W        W17481   0.419  10.291   3.679
56116W        W17482  12.773  29.997   3.765
56117W        W17483  12.662  26.671   2.224
56118W        W17484  12.761  13.807  13.395
56119W        W17485  38.419   0.846   4.250
56120W        W17486  26.006  29.509   0.821
56121W        W17487  28.521  35.360   1.798
56122W        W17488   4.210   5.898  12.403
56123W        W17489  40.820   0.776   2.796
56124W        W17490  37.359  20.207  13.792
56125W        W17491  25.023  40.984  12.059
56126W        W17492  28.176   9.269   1.849
56127W        W17493  23.214  29.501  10.537
56128W        W17494  42.995  37.336   1.759
56129W        W17495  44.812  43.848  11.567
56130W        W17496  13.289  18.746   2.854
56131W        W17497  34.388  17.238   4.627
56132W        W17498  37.558  21.181   0.384
56133W        W17499   7.380  38.484  13.327
56134W        W17500  17.658   2.799  13.439
56135W        W17501   1.396  44.282   0.864
56136W        W17502   1.944  34.913  11.003
56137W        W17503   2.250  39.859  13.885
56138W        W17504  19.548  16.210   1.386
56139W        W17505  30.599  14.649  11.112
56140W        W17506   0.786  28.514  13.503
56141W        W17507  27.465  43.847   1.728
56142W        W17508  43.010  32.444   3.846
56143W        W17509  24.225  13.139   1.901
56144W        W17510   0.914  14.694  12.991
56145W        W17511  23.077  36.913  13.034
56146W        W17512  26.506  40.349  11.596
56147W        W17513  42.340   6.816  11.918
56148W        W17514  30.460  22.526   2.344
56149W        W17515   0.843  18.273   4.647
56150W        W17516  40.939   7.181   1.257
56151W        W17517  41.359  23.671  10.417
56152W        W17518   6.202   7.894   0.768
56153W        W17519  10.721  31.121  14.282
56154W        W17520  23.640  17.149   4.166
56155W        W17521  25.024  44.468   5.317
56156W        W17522  25.203  36.988  12.947
56157W        W17523   9.875   8.171   4.149
56158W        W17524   8.816  24.680  12.827
56159W        W17525  25.105  13.298   4.706
56160W        W17526  39.944  25.970   3.338
56161W        W17527  22.180  11.221  14.760
56162W        W17528  17.216  42.946  14.286
56163W        W17529  36.925  30.614   1.237
56164W        W17530  43.786  33.998  11.087
56165W        W17531  10.743   2.790   3.364
56166W        W17532  35.382  38.932   1.252
56167W        W17533  27.544   5.914  10.570
56168W        W17534   4.731  27.667   9.531
56169W        W17535  44.758  23.535  11.529
56170W        W17536  41.473  43.336   2.755
56171W        W17537  25.542  22.636  11.037
56172W        W17538  42.883  39.323  10.979
56173W        W17539  15.739  13.256   1.717
56174W        W17540   4.711   9.177   2.702
56175W        W17541  17.735  24.645  12.845
56176W        W17542  23.171  32.473   3.211
56177W        W17543  13.119   1.838  14.026
56178W        W17544  28.503  26.499  12.068
56179W        W17545  14.213  12.624   4.329
56180W        W17546  10.634  37.842  12.910
56181W        W17547  39.903  29.013   2.805
56182W        W17548  29.596   7.829  11.607
56183W        W17549  16.585  18.748   1.843
56184W        W17550  42.298   1.329  10.480
56185W        W17551   1.916  12.630   3.375
56186W        W17552   4.714  19.097  14.853
56187W        W17553  22.132  14.678  11.116
56188W        W17554   4.717  32.579   1.711
56189W        W17555  11.250  37.355   4.811
56190W        W17556  16.771  25.013   0.318
56191W        W17557  25.180   7.880   4.627
56192W        W17558  33.432  15.765   1.698
56193W        W17559  34.008   8.353   2.685
56194W        W17560   0.408   2.296   0.800
56195W        W17561  43.777  18.096   2.877
56196W        W17562  13.645  20.089  14.799
56197W        W17563  28.590  23.111   0.919
56198W        W17564   6.267  37.485  12.529
56199W        W17565   4.330  28.138  14.310
56200W        W17566  34.882  16.745  11.570
56201W        W17567   2.403   5.845   4.746
56202W        W17568  42.891  22.687   3.760
56203W        W17569  22.537  25.485   4.832
56204W        W17570  32.514  14.148   0.853
56205W        W17571  15.180  41.872   2.323
56206W        W17572  11.716  38.430  12.439
56207W        W17573  43.382  17.164   3.853
56208W        W17574  23.054  24.615   1.905
56209W        W17575   0.475  27.601   2.229
56210W        W17576  18.767  27.558  13.960
56211W        W17577  30.101  18.167  10.563
56212W        W17578  35.869  24.546  14.804
56213W        W17579  43.890  11.692  11.482
56214W        W17580  31.493  39.947   2.355
56215W        W17581  10.222  15.721   2.380
56216W        W17582  27.980   4.863   1.285
56217W        W17583  12.818  41.824  10.588
56218W        W17584   1.907   2.403   2.301
56219W        W17585   2.229  21.217  11.477
56220W        W17586  10.660  31.049   3.303
56221W        W17587  14.698  33.435  14.443
56222W        W17588   9.781  33.102   3.720
56223W        W17589  17.170  44.292  14.404
56224W        W17590  35.394  28.658   3.645
56225W        W17591  22.536   4.396  14.416
56226W        W17592  24.151  19.089   4.222
56227W        W17593  25.694  23.131   4.273
56228W        W17594   1.410  30.436   3.798
56229W        W17595  10.759  31.035   4.604
56230W        W17596  44.280  12.685  10.585
56231W        W17597  38.871  34.499   2.864
56232W        W17598  35.574  16.775   4.259
56233W        W17599  44.807   4.388   4.125
56234W        W17600  18.070  19.284  12.945
56235W        W17601  41.809  34.116  11.997
56236W        W17602  38.913   1.884   0.245
56237W        W17603  43.425  24.577   4.263
56238W        W17604  30.006  31.558   1.837
56239W        W17605   4.864  31.429  10.552
56240W        W17606  34.111  31.605   4.152
56241W        W17607   0.344   5.784  11.400
56242W        W17608   4.441  34.101   1.263
56243W        W17609  41.477  10.263   1.289
56244W        W17610  22.093   9.394  11.066
56245W        W17611  33.060  43.984  12.352
56246W        W17612  15.686  19.146  14.421
56247W        W17613   9.202  42.786  11.919
56248W        W17614  17.561  27.162   2.807
56249W        W17615   7.885   8.836   4.704
56250W        W17616  15.225  36.476   0.418
56251W        W17617  43.955   0.754   1.439
56252W        W17618  27.681  26.185   4.168
56253W        W17619  35.960  38.420   1.911
56254W        W17620  27.659  12.230  13.990
56255W        W17621  41.297  39.450  13.024
56256W        W17622  14.780  10.799   0.899
56257W        W17623  38.942  36.403   0.859
56258W        W17624   1.852  23.493   3.749
56259W        W17625  11.164  14.226   0.390
56260W        W17626   1.248  17.591  12.506
56261W        W17627  13.681   4.234  12.844
56262W        W17628  43.358  20.125   1.808
56263W        W17629  28.026   1.959  11.087
56264W        W17630  11.284  12.266  10.539
56265W        W17631   3.894   3.939   1.296
56266W        W17632  43.410  44.442   3.646
56267W        W17633  19.680  18.695  11.040
56268W        W17634  13.661  13.247   0.866
56269W        W17635  12.720   0.452  14.875
56270W        W17636   0.953  37.493   4.192
56271W        W17637  22.118   7.887  13.853
56272W        W17638  20.115  14.641  14.461
56273W        W17639  23.637  44.276   2.201
56274W        W17640  32.120  34.911  10.958
56275W        W17641   3.236  22.143   0.946
56276W        W17642  32.530  33.411   2.868
56277W        W17643  12.631   8.781  11.609
56278W        W17644   2.908  41.912  12.972
56279W        W17645  41.967  14.831  12.406
56280W        W17646  17.674   5.344  14.453
56281W        W17647   2.349   4.913   3.327
56282W        W17648  31.104   4.235   4.732
56283W        W17649  44.268  21.715  13.454
56284W        W17650   2.271  41.402  11.927
56285W        W17651  43.424   8.207  12.910
56286W        W17652  10.721  28.470   3.657
56287W        W17653  12.179  32.109  14.815
56288W        W17654  44.756  36.527   3.707
56289W        W17655  38.475  35.415   4.133
56290W        W17656   8.861  16.600  12.040
56291W        W17657  42.838  24.606  12.950
56292W        W17658   1.463   1.849  10.543
56293W        W17659  28.007  28.070  13.961
56294W        W17660  18.675  34.393   1.924
56295W        W17661  25.046   9.772  11.019
56296W        W17662  43.987  44.290  10.538
56297W        W17663  40.356  29.960  13.012
56298W        W17664  42.984  19.735  11.594
56299W        W17665   3.343  27.167  12.505
56300W        W17666  35.009  33.944  11.400
56301W        W17667  11.195  37.552  14.917
56302W        W17668   4.842  12.349  14.391
56303W        W17669   2.861  34.397   2.823
56304W        W17670  21.059  27.456  10.549
56305W        W17671  17.799   7.259  13.861
56306W        W17672  30.429  32.632  14.427
56307W        W17673  28.124  42.854  14.995
56308W        W17674  43.363  44.363  14.289
56309W        W17675  30.028  40.010  13.353
56310W        W17676  12.704  15.632   2.767
56311W        W17677  23.524  25.998   4.747
56312W        W17678  32.030  16.236   0.280
56313W        W17679  38.021  31.630  12.938
56314W        W17680  22.682  10.327   3.198
56315W        W17681  32.481   6.813  13.813
56316W        W17682   7.906  21.567  11.959
56317W        W17683  15.305  40.432   2.286
56318W        W17684   0.294  16.682  12.046
56319W        W17685  26.040  33.977  10.490
56320W        W17686   8.230  43.872  12.419
56321W        W17687   7.337   3.357  13.522
56322W        W17688  27.145   9.783   2.219
56323W        W17689  21.153  44.946  12.895
56324W        W17690  26.556  21.698   3.319
56325W        W17691  19.709   7.849  11.377
56326W        W17692  27.995  17.243   5.253
56327W        W17693  14.299  31.411   3.644
56328W        W17694  14.671  19.196  11.998
56329W        W17695  41.985   8.770   2.760
56330W        W17696  12.653  34.873   4.726
56331W        W17697  33.508   2.878   3.826
56332W        W17698  36.504  39.811  10.556
56333W        W17699  23.713   5.299   2.366
56334W        W17700  24.694   7.753  10.528
56335W        W17701  18.101  35.884  13.900
56336W        W17702  23.572  16.590   4.308
56337W        W17703  28.101  35.106  14.427
56338W        W17704  33.553   9.720   0.419
56339W        W17705  25.508   5.227   3.228
56340W        W17706  26.027  12.679   3.734
56341W        W17707  29.941  40.354   2.804
56342W        W17708  35.919  15.654  14.321
56343W        W17709  36.916  39.486  13.898
56344W        W17710  44.279   0.785  11.120
56345W        W17711  26.522  30.423   3.767
56346W        W17712  15.160  24.008   4.838
56347W        W17713  32.027  20.628  11.481
56348W        W17714  10.784  35.106   4.130
56349W        W17715  16.699   4.746   4.632
56350W        W17716  15.724  25.031  11.024
56351W        W17717   2.407   3.772   3.217
56352W        W17718   5.339  17.130  14.907
56353W        W17719  12.148  16.307   1.762
56354W        W17720  41.502  24.599  12.825
56355W        W17721  25.670  12.768   2.870
56356W        W17722  36.074  32.531  13.535
56357W        W17723  28.141  33.473   4.685
56358W        W17724  25.602   5.896  14.763
56359W        W17725  33.591  10.283  11.431
56360W        W17726  38.944  33.477  10.578
56361W        W17727  31.621  22.010   3.797
56362W        W17728   5.691  23.502   1.441
56363W        W17729  39.864  11.234   2.355
56364W        W17730  38.429  11.185  11.913
56365W        W17731   5.876  13.823   2.841
56366W        W17732   3.838  10.153   2.887
56367W        W17733  40.531  30.145   1.902
56368W        W17734  12.744   1.829   1.350
56369W        W17735  39.048  12.136   0.290
56370W        W17736  36.020  14.707  14.298
56371W        W17737  16.742  41.918   2.663
56372W        W17738  37.015  17.686  14.813
56373W        W17739  16.158  22.573  13.904
56374W        W17740  10.259  18.192  11.098
56375W        W17741  37.451  44.464   4.632
56376W        W17742  44.962  39.036   0.287
56377W        W17743  20.551   8.735   2.306
56378W        W17744   8.868  22.640   3.242
56379W        W17745  18.780  27.654   1.347
56380W        W17746  44.341  41.481   4.264
56381W        W17747  36.524  24.601  10.894
56382W        W17748   2.319  25.090  14.967
56383W        W17749  21.676   2.888  14.362
56384W        W17750  16.287  44.473  10.921
56385W        W17751  17.658  44.916   2.315
56386W        W17752  14.151   8.725  13.490
56387W        W17753  28.681  13.683  11.542
56388W        W17754  41.037  38.908   2.190
56389W        W17755  42.934  32.070   1.888
56390W        W17756  34.081  21.238  12.462
56391W        W17757  11.702  35.511   1.337
56392W        W17758   0.885  19.628   0.358
56393W        W17759   7.402  13.247   0.789
56394W        W17760  44.405  14.110   0.830
56395W        W17761  35.361   9.869  11.496
56396W        W17762  11.306  10.203  13.330
56397W        W17763  32.470  11.678   3.173
56398W        W17764  42.457  33.448   4.198
56399W        W17765   5.850  39.957  11.956
56400W        W17766   1.793  39.328  14.311
56401W        W17767  14.106  24.213   0.751
56402W        W17768  32.100  28.990  10.431
56403W        W17769  10.315   7.227   2.808
56404W        W17770   3.380  11.705   0.772
56405W        W17771  41.875  28.957  12.900
56406W        W17772  19.665  24.979   9.926
56407W        W17773  40.817  17.260  13.528
56408W        W17774  35.872  29.508  10.453
56409W        W17775  22.700   1.435  10.518
56410W        W17776  20.694  39.316   4.624
56411W        W17777  31.036  32.412   0.424
56412W        W17778  39.351  21.191  13.349
56413W        W17779  21.260  39.978  10.425
56414W        W17780  42.870   1.247   0.829
56415W        W17781  37.524  28.574  13.847
56416W        W17782  34.408  22.142  13.312
56417W        W17783  27.511  14.681  11.999
56418W        W17784  25.182  33.413  13.994
56419W        W17785  44.923  25.052   1.266
56420W        W17786  22.206  20.685   3.231
56421W        W17787  36.365  21.097  14.947
56422W        W17788  20.596  29.434   3.773
56423W        W17789   3.736  26.589  10.494
56424W        W17790  38.857   5.318   1.877
56425W        W17791  10.298  27.067   0.286
56426W        W17792  12.221  33.898   4.344
56427W        W17793  41.393  44.987  11.095
56428W        W17794   6.295  20.206   4.709
56429W        W17795  36.429  13.632  14.290
56430W        W17796  22.012   4.414   1.432
56431W        W17797  29.601  30.990  13.466
56432W        W17798  41.354  20.763  11.447
56433W        W17799  16.145  20.131   0.405
56434W        W17800  19.684  41.404  12.060
56435W        W17801  29.598   8.709  14.334
56436W        W17802  39.014   6.904  11.503
56437W        W17803   2.411  31.924   0.264
56438W        W17804   7.377  35.030  13.963
56439W        W17805   4.326  28.502  11.100
56440W        W17806  17.654  35.475   1.392
56441W        W17807  40.315   0.292   0.945
56442W        W17808  22.570  30.461  13.813
56443W        W17809  10.666   2.831   3.646
56444W        W17810  10.169  15.200  12.533
56445W        W17811   3.833  32.415   2.245
56446W        W17812  42.962  27.564   2.317
56447W        W17813  27.122  14.269   1.391
56448W        W17814   7.245  40.338  10.522
56449W        W17815  36.896  40.448   3.228
56450W        W17816  32.466  29.531  11.954
56451W        W17817  12.746  34.066  14.027
56452W        W17818   7.205  34.418  12.942
56453W        W17819  22.698  13.241   4.713
56454W        W17820  36.930  34.410   1.385
56455W        W17821   2.401  14.119  11.085
56456W        W17822   8.390  37.067  12.921
56457W        W17823  21.622  33.933  11.910
56458W        W17824  15.699  25.992   4.634
56459W        W17825  18.763  27.997   1.277
56460W        W17826  38.916  41.039   2.671
56461W        W17827  25.205  41.445   4.265
56462W        W17828  13.622  44.785   1.736
56463W        W17829  36.530  27.965   4.810
56464W        W17830   4.248  28.523   1.829
56465W        W17831  30.995  37.940  12.430
56466W        W17832  37.470   0.372   4.154
56467W        W17833  28.952   5.231   0.966
56468W        W17834  25.665  14.245   5.162
56469W        W17835  29.161  30.611   1.786
56470W        W17836   5.769   0.755   4.666
56471W        W17837  40.946   0.354   3.815
56472W        W17838  28.962  36.546   2.786
56473W        W17839  21.601  34.416   3.838
56474W        W17840  42.330   4.815  14.777
56475W        W17841   9.703  20.211   0.393
56476W        W17842  18.258  13.181  13.892
56477W        W17843   2.226  16.769   4.795
56478W        W17844  27.188  28.440   2.827
56479W        W17845  13.201  15.121  11.598
56480W        W17846  19.072  42.417  13.016
56481W        W17847  35.512   2.457   0.433
56482W        W17848  18.139  13.107  10.921
56483W        W17849  14.816  35.985   3.744
56484W        W17850  38.332  35.403  12.358
56485W        W17851   8.852  22.067   2.287
56486W        W17852  34.582  29.935   4.618
56487W        W17853  17.211  25.516  14.369
56488W        W17854  43.440  24.174   1.386
56489W        W17855   8.189  15.305   3.821
56490W        W17856  33.527  10.827  12.542
56491W        W17857  29.534  30.919   0.457
56492W        W17858   2.386  32.995   0.377
56493W        W17859   1.241  26.516  11.015
56494W        W17860  15.685  40.844   1.278
56495W        W17861  32.500   9.183  12.406
56496W        W17862  28.563  31.571   2.758
56497W        W17863  23.139  17.668  11.004
56498W        W17864  16.145  18.724  14.409
56499W        W17865  42.014  24.625  13.463
56500W        W17866  35.881   2.463  13.973
56501W        W17867  25.644  34.869  10.958
56502W        W17868   1.731   5.303   0.730
56503W        W17869  18.577  41.462  14.390
56504W        W17870  16.604   3.231  13.495
56505W        W17871  20.696  44.922  14.892
56506W        W17872  23.119  25.638  13.855
56507W        W17873   6.267   0.464  11.857
56508W        W17874  25.977  20.592   0.753
56509W        W17875  11.786   0.292  10.056
56510W        W17876  23.563  32.115   2.348
56511W        W17877   7.762   1.321   0.250
56512W        W17878   0.887   3.360   2.214
56513W        W17879  33.040   9.807   1.845
56514W        W17880  30.135  35.918   2.333
56515W        W17881   1.406  31.988   0.910
56516W        W17882  29.599  25.078  12.428
56517W        W17883  28.453  21.138  13.991
56518W        W17884  30.576  22.501   4.630
56519W        W17885   6.689  37.349   1.880
56520W        W17886  35.553  14.649  10.418
56521W        W17887  42.818   2.397  13.911
56522W        W17888   3.278  26.988  13.917
56523W        W17889   0.416  11.366   2.816
56524W        W17890   2.963   2.852  12.916
56525W        W17891   6.404  25.201   0.459
56526W        W17892  35.480  25.560   3.318
56527W        W17893  27.997  12.724  12.439
56528W        W17894   1.261  38.862   0.455
56529W        W17895   6.322  42.822  14.969
56530W        W17896  38.411  35.527   4.813
56531W        W17897  11.213  20.143  14.332
56532W        W17898   3.341   7.792   5.205
56533W        W17899  43.412  37.497  11.463
56534W        W17900  33.031  28.134  14.284
56535W        W17901  38.018  26.084  13.487
56536W        W17902   7.697  15.675   9.490
56537W        W17903  19.127  30.060   3.375
56538W        W17904   7.890  38.381  13.900
56539W        W17905  30.136   5.391  10.968
56540W        W17906  43.872  20.245   1.796
56541W        W17907  43.893  29.616   4.256
56542W        W17908  26.975   4.805   0.820
56543W        W17909  17.716  30.486   1.823
56544W        W17910  24.636  22.684  11.384
56545W        W17911   9.684  38.984  14.838
56546W        W17912  11.691  23.535  10.145
56547W        W17913  41.902  15.167  14.943
56548W        W17914  11.277  36.845  11.394
56549W        W17915   3.804  43.915  13.009
56550W        W17916  23.599  11.812   3.768
56551W        W17917  37.846  27.525  13.397
56552W        W17918  32.902  38.999  10.496
56553W        W17919  37.980  25.663  10.566
56554W        W17920  20.107  15.695   3.722
56555W        W17921  22.560  27.667  10.422
56556W        W17922  21.222  13.237  14.886
56557W        W17923  26.531  41.300   0.304
56558W        W17924  29.490   3.366  11.886
56559W        W17925  25.631  40.851  13.397
56560W        W17926  37.371  17.258   2.210
56561W        W17927  19.569  38.029  14.015
56562W        W17928  39.533  24.655  11.555
56563W        W17929  25.478  11.632   2.827
56564W        W17930  28.082  24.022  11.462
56565W        W17931  34.500   2.806  12.082
56566W        W17932   8.228  20.242   0.950
56567W        W17933  19.748  36.912   1.211
56568W        W17934  36.404  12.138  13.362
56569W        W17935   3.832  34.074   3.263
56570W        W17936   9.168  23.712  13.803
56571W        W17937  44.490  42.804   5.282
56572W        W17938  37.345  35.490  10.517
56573W        W17939  25.632  41.356   0.901
56574W        W17940  13.317   6.385   4.680
56575W        W17941  33.417  27.972   4.285
56576W        W17942   5.435  21.035   2.821
56577W        W17943  14.815  39.035   4.226
56578W        W17944  38.501  21.738   1.789
56579W        W17945  31.924   0.950   3.287
56580W        W17946  34.380  22.529  12.373
56581W        W17947  33.997  15.659   2.332
56582W        W17948   6.285  34.984   4.805
56583W        W17949  19.735  29.150   4.116
56584W        W17950   9.272  41.927   4.211
56585W        W17951  22.743  11.752  12.398
56586W        W17952  39.852  29.133   3.864
56587W        W17953   9.774  21.096  14.895
56588W        W17954  31.407  44.923   1.831
56589W        W17955  42.348  11.709   1.278
56590W        W17956  37.854  38.863   2.773
56591W        W17957  11.361   5.870  12.458
56592W        W17958  43.443   8.191   2.207
56593W        W17959  42.491  27.065  11.519
56594W        W17960  32.401  41.031   9.657
56595W        W17961  27.658  10.295  10.896
56596W        W17962  26.694  23.034   4.139
56597W        W17963  10.636  42.783  12.544
56598W        W17964   5.784   2.770   9.563
56599W        W17965  38.076   3.243  14.426
56600W        W17966  27.110  44.924   1.785
56601W        W17967  16.240  15.684  12.506
56602W        W17968  15.577   2.381   4.258
56603W        W17969  37.838   7.393  14.961
56604W        W17970   9.708  29.609   4.708
56605W        W17971  10.794  33.568  10.156
56606W        W17972  13.235   4.889  14.417
56607W        W17973  38.005  41.964  10.438
56608W        W17974  22.150  10.849   3.372
56609W        W17975  43.005  33.966   1.914
56610W        W17976  11.806   1.439  10.433
56611W        W17977  24.036  32.637   5.212
56612W        W17978  31.950  16.685   1.451
56613W        W17979  20.743  26.539   2.184
56614W        W17980  11.139   0.783  12.086
56615W        W17981  12.850  10.333   3.676
56616W        W17982  37.830  33.940   0.905
56617W        W17983  17.260   4.908  11.909
56618W        W17984  12.179  10.144  14.776
56619W        W17985  17.066   8.334   1.889
56620W        W17986  10.275  34.950  14.835
56621W        W17987   5.907  21.182   0.867
56622W        W17988  42.376   0.826  13.456
56623W        W17989  42.403  21.060  13.441
56624W        W17990   7.844   8.808   3.278
56625W        W17991  12.669   3.325   2.870
56626W        W17992   8.763  39.395  11.568
56627W        W17993  10.152  37.406   0.439
56628W        W17994   5.193  32.571   3.217
56629W        W17995  34.588  31.927   3.251
56630W        W17996  14.814   4.836  12.474
56631W        W17997  27.946  20.057  11.449
56632W        W17998  29.491  27.529   4.809
56633W        W17999  39.437  44.281   1.822
56634W        W18000  16.235  39.865  11.578
56635W        W18001  11.193   6.365   1.773
56636W        W18002  10.706  17.733   2.384
56637W        W18003  22.125  20.612   1.861
56638W        W18004  19.605  21.614   2.749
56639W        W18005  31.503  41.469   5.200
56640W        W18006  15.321  43.419  12.363
56641W        W18007  43.349  33.574  11.398
56642W        W18008  11.804   7.176  12.918
56643W        W18009  35.561  25.129  14.482
56644W        W18010  22.108  38.331  14.374
56645W        W18011  28.080   7.315  12.050
56646W        W18012  38.034  27.159   4.181
56647W        W18013   6.918  39.334   1.446
56648W        W18014   9.734   2.260   1.416
56649W        W18015  41.421  35.483   3.830
56650W        W18016   8.756   9.763   2.303
56651W        W18017  41.338  13.661  10.565
56652W        W18018   7.331  27.466  13.951
56653W        W18019  27.692  32.434   0.835
56654W        W18020  31.585  24.079  10.621
56655W        W18021  37.883  16.174  14.507
56656W        W18022   7.293   7.255   1.221
56657W        W18023  39.558  40.831   3.848
56658W        W18024  37.969   3.912   3.353
56659W        W18025  37.043  24.683  13.927
56660W        W18026  42.328   3.442   2.879
56661W        W18027  23.143   0.282  14.889
56662W        W18028  28.531  18.673   3.183
56663W        W18029  37.493  24.583   0.831
56664W        W18030  16.737  10.869  14.994
56665W        W18031   2.776  17.642  14.946
56666W        W18032  15.749  11.732   2.330
56667W        W18033  33.001  43.924  14.770
56668W        W18034  23.598  40.455   2.254
56669W        W18035  10.299  25.115   0.392
56670W        W18036  13.159  18.611   1.443
56671W        W18037  33.555   8.793   4.245
56672W        W18038  34.957  28.578  13.325
56673W        W18039  35.449  37.373  14.806
56674W        W18040   6.322  29.925  13.456
56675W        W18041   3.894  22.519  10.942
56676W        W18042  17.096   2.462  12.969
56677W        W18043  11.727  27.548  14.952
56678W        W18044  12.770  32.093   4.354
56679W        W18045   3.852   0.383  13.917
56680W        W18046   5.868  37.578   2.725
56681W        W18047   9.313   5.843  14.028
56682W        W18048  43.335  36.891   3.345
56683W        W18049  27.591  34.450   1.774
56684W        W18050  14.166  18.572  14.319
56685W        W18051   7.331  23.651  14.964
56686W        W18052  10.250  41.337   1.807
56687W        W18053  38.462  11.866  11.991
56688W        W18054  34.046  28.144   3.319
56689W        W18055   0.446   7.233   4.170
56690W        W18056  28.947  24.157   2.835
56691W        W18057  20.667  29.497  11.525
56692W        W18058  23.063   4.438   1.444
56693W        W18059  11.217   8.765   5.240
56694W        W18060  24.193   0.844  14.885
56695W        W18061  42.029  37.421  13.325
56696W        W18062  43.306  27.482   1.213
56697W        W18063  39.060  23.584  13.362
56698W        W18064  28.053  16.220   2.278
56699W        W18065  29.071   4.340   4.732
56700W        W18066  41.419  32.485  12.894
56701W        W18067  11.155   5.705   1.385
56702W        W18068   5.821  44.322  11.920
56703W        W18069  24.038   1.901   4.271
56704W        W18070  37.567   7.229   0.386
56705W        W18071  20.654  41.521  12.431
56706W        W18072  30.461  31.593  12.571
56707W        W18073  32.486  41.442  12.849
56708W        W18074   2.942  20.085   2.220
56709W        W18075  41.913  21.095   1.382
56710W        W18076  34.382  17.242   3.230
56711W        W18077  29.523  20.029  12.013
56712W        W18078  21.093  15.225   5.081
56713W        W18079  26.020  19.663  10.538
56714W        W18080  30.957  13.832   0.318
56715W        W18081   2.790  22.628  12.366
56716W        W18082  26.516  30.047  11.918
56717W        W18083  36.981  22.131   1.838
56718W        W18084  24.159   5.876   2.269
56719W        W18085  36.451  12.765  12.489
56720W        W18086   6.400  33.992   4.154
56721W        W18087  20.047  41.416  12.434
56722W        W18088   3.251  14.635   1.429
56723W        W18089  27.460  22.747   3.242
56724W        W18090  19.183  19.102   0.898
56725W        W18091  16.618   5.853   4.692
56726W        W18092  13.844  21.703   2.327
56727W        W18093  32.922  17.180  11.457
56728W        W18094  20.653  43.322   3.836
56729W        W18095  17.693  38.915   2.411
56730W        W18096  31.906   4.373   3.362
56731W        W18097  17.206  20.221  14.025
56732W        W18098  44.361  13.802  14.359
56733W        W18099  24.025  38.420   3.313
56734W        W18100  22.638   3.882  14.951
56735W        W18101  44.806   8.684  13.436
56736W        W18102  22.678  42.443  11.987
56737W        W18103  43.351  18.256  12.924
56738W        W18104  15.682  10.791   0.392
56739W        W18105  18.594  18.723   3.836
56740W        W18106  40.902  34.396  13.997
56741W        W18107  22.630  17.071  13.315
56742W        W18108  26.098  10.678   4.126
56743W        W18109  14.250  20.638   4.324
56744W        W18110  28.953  12.196   2.276
56745W        W18111  26.535  30.451   0.832
56746W        W18112  29.438  22.076   2.698
56747W        W18113  25.116  37.012   4.795
56748W        W18114  15.784  34.425   4.779
56749W        W18115   3.405  36.872  14.023
56750W        W18116  23.686  15.129   0.944
56751W        W18117   3.220  14.601   4.166
56752W        W18118  35.103  11.346   4.793
56753W        W18119   7.248  42.355  13.407
56754W        W18120  31.968   0.458  11.068
56755W        W18121  25.606  19.069  14.800
56756W        W18122  36.540  31.404  13.825
56757W        W18123   4.819  33.486   2.407
56758W        W18124  41.948  38.926   1.261
56759W        W18125  35.978  43.986   0.326
56760W        W18126  20.560  14.308  14.829
56761W        W18127  28.615  27.117  14.968
56762W        W18128  44.270  40.837  14.406
56763W        W18129  26.079   9.777  13.483
56764W        W18130  42.462  25.476   4.253
56765W        W18131  19.686   8.759   2.333
56766W        W18132  27.995  39.886   3.354
56767W        W18133   8.405  17.169   4.764
56768W        W18134  21.652   0.477   3.235
56769W        W18135  21.736   5.229  11.594
56770W        W18136  17.234  19.711   0.298
56771W        W18137  21.692  13.839   3.864
56772W        W18138  25.599  25.183  14.932
56773W        W18139  39.009   3.278   3.306
56774W        W18140  10.801   4.363  10.942
56775W        W18141  20.527   8.808  13.920
56776W        W18142  16.267  35.991  14.350
56777W        W18143  31.611  31.040  14.339
56778W        W18144   5.263  27.616  13.474
56779W        W18145  36.447  13.688   3.201
56780W        W18146  19.137  27.544  11.955
56781W        W18147   9.816  27.467   3.214
56782W        W18148  39.035  40.865  11.450
56783W        W18149  20.163   1.302   4.146
56784W        W18150  19.575  27.664   1.920
56785W        W18151  42.296  24.137  13.876
56786W        W18152  28.141   6.915   0.870
56787W        W18153   6.235   6.199   4.336
56788W        W18154  38.361  32.109   0.967
56789W        W18155  33.993  20.696   2.851
56790W        W18156  15.102  34.493  13.992
56791W        W18157  30.998   4.708  12.503
56792W        W18158  43.349  36.098  12.486
56793W        W18159  34.060  24.532  12.458
56794W        W18160  22.233  26.083  12.850
56795W        W18161  30.622   9.230   2.247
56796W        W18162  37.389   7.863  11.974
56797W        W18163  29.925  18.106   0.802
56798W        W18164   3.920  30.506   2.362
56799W        W18165   9.667  42.802  14.404
56800W        W18166  32.571  13.610  12.531
56801W        W18167  18.785  41.361   9.983
56802W        W18168  30.129   7.767  10.488
56803W        W18169   7.298  18.702  13.935
56804W        W18170   5.337  11.159   4.729
56805W        W18171  15.796   7.737   3.337
56806W        W18172  14.287  43.810  13.911
56807W        W18173   9.882  35.393  11.855
56808W        W18174  24.986   6.693   1.220
56809W        W18175  30.990  40.458   4.611
56810W        W18176   8.219  24.007  11.105
56811W        W18177   3.820   5.250   1.781
56812W        W18178  25.154  34.571  12.897
56813W        W18179   0.265  39.529   2.222
56814W        W18180  20.643  16.709   3.174
56815W        W18181  32.140   3.280   5.173
56816W        W18182  30.659  39.396  14.795
56817W        W18183  36.052  16.812  11.010
56818W        W18184   5.296   6.754   1.256
56819W        W18185   7.858  40.956   1.266
56820W        W18186  41.362  31.612  12.943
56821W        W18187   6.838  24.634  11.397
56822W        W18188  38.500  20.243   4.348
56823W        W18189  42.436  35.422  11.461
56824W        W18190  18.113  36.894   4.689
56825W        W18191  19.650  10.230   3.651
56826W        W18192   9.390   5.923  12.414
56827W        W18193  23.062  34.492  12.393
56828W        W18194   5.290  25.210  14.358
56829W        W18195  17.134  25.545  12.839
56830W        W18196   1.902  22.572   3.645
56831W        W18197  12.162  12.358  14.954
56832W        W18198   6.428  28.055   3.333
56833W        W18199  14.646  15.273  11.910
56834W        W18200  30.607  34.046   1.366
56835W        W18201  41.306  41.319  14.383
56836W        W18202  18.630  24.532   3.295
56837W        W18203  41.293  37.503  12.879
56838W        W18204   3.404   1.856  14.436
56839W        W18205  43.838  43.890   3.631
56840W        W18206   4.292  34.609   3.243
56841W        W18207  17.255  14.323  13.510
56842W        W18208   8.885  17.215   2.744
56843W        W18209  11.314  21.575  14.025
56844W        W18210  17.078  37.986  11.085
56845W        W18211   8.872  38.991   0.934
56846W        W18212  27.572   9.226  12.553
56847W        W18213  28.443  39.019  10.450
56848W        W18214  37.387  42.812   1.214
56849W        W18215  16.107  28.592   3.630
56850W        W18216  31.961  26.067  11.443
56851W        W18217  28.117  38.901   1.795
56852W        W18218  25.091  24.519   4.273
56853W        W18219  41.815  16.248  13.972
56854W        W18220  44.320  23.098   3.191
56855W        W18221  35.461   3.269   4.348
56856W        W18222  22.249  34.077   2.801
56857W        W18223  16.271  10.852   3.329
56858W        W18224   9.224   9.292   3.735
56859W        W18225  24.005   5.438  12.008
56860W        W18226  40.477  23.604  13.052
56861W        W18227   8.700  37.535   2.900
56862W        W18228  14.294  22.688   4.700
56863W        W18229  19.567  23.621  10.629
56864W        W18230   5.730  21.731  13.420
56865W        W18231  21.545   0.311  13.378
56866W        W18232   8.177  18.572   4.214
56867W        W18233  22.577  13.772  12.824
56868W        W18234  13.326  34.114  14.009
56869W        W18235  12.226  23.628  12.341
56870W        W18236   7.386  22.626  12.989
56871W        W18237  22.708  23.618   2.318
56872W        W18238  38.518  14.253  14.017
56873W        W18239  24.566  30.101   4.168
56874W        W18240   1.277  38.441   1.881
56875W        W18241   3.867  26.682   3.157
56876W        W18242  42.027   8.748  10.944
56877W        W18243  12.644  40.028  11.410
56878W        W18244   2.465  13.639   0.479
56879W        W18245  26.484  14.214   2.825
56880W        W18246  19.598  13.697  14.918
56881W        W18247  32.939  19.717  13.334
56882W        W18248  41.372  38.927   0.885
56883W        W18249  11.340  40.370  12.054
56884W        W18250  33.525  21.257   1.393
56885W        W18251  23.168   5.858   2.708
56886W        W18252  34.002  31.632   4.781
56887W        W18253   7.694   7.798   3.677
56888W        W18254   7.743   0.288  12.845
56889W        W18255  10.266  43.306  14.384
56890W        W18256  30.017   1.308  11.103
56891W        W18257  24.575  33.551   2.317
56892W        W18258  29.968  30.452  11.981
56893W        W18259  40.369  23.153  14.376
56894W        W18260  35.920   3.937   3.831
56895W        W18261  35.948   6.403  10.520
56896W        W18262  10.721  20.087  13.522
56897W        W18263  44.354  11.230   2.671
56898W        W18264  10.205  10.725   2.816
56899W        W18265   3.345   3.736   1.923
56900W        W18266   5.217  32.415  11.610
56901W        W18267  10.200  27.548  11.969
56902W        W18268  20.765  22.075  13.808
56903W        W18269  18.173  23.988  11.516
56904W        W18270   4.856  41.333  14.922
56905W        W18271  30.469  30.535   4.754
56906W        W18272  20.133   0.865   5.194
56907W        W18273  22.223  36.538   3.809
56908W        W18274  30.596   8.385  14.850
56909W        W18275  31.585  10.242  13.525
56910W        W18276  30.523  10.686  10.418
56911W        W18277  11.351   0.433   1.451
56912W        W18278  39.349   1.456  11.950
56913W        W18279  13.127  15.091   3.281
56914W        W18280  30.434  17.068  14.886
56915W        W18281  24.139  14.736   1.715
56916W        W18282  16.225  34.027   2.665
56917W        W18283   1.247  32.964  11.083
56918W        W18284  31.019  43.863   1.296
56919W        W18285  12.348  28.464   3.169
56920W        W18286   1.862  23.010  13.058
56921W        W18287  18.243  42.873  14.379
56922W        W18288  21.088  19.703  14.809
56923W        W18289  16.748   9.292  13.380
56924W        W18290  35.957  40.032   3.346
56925W        W18291  23.214  41.505   1.760
56926W        W18292  41.827  20.156   3.840
56927W        W18293  27.582  25.048   2.739
56928W        W18294  43.494  40.933  12.450
56929W        W18295   0.355   7.909   1.906
56930W        W18296  29.552  37.420   0.947
56931W        W18297  13.160  29.464   2.232
56932W        W18298  16.743  21.628   0.849
56933W        W18299  23.017  33.578  13.880
56934W        W18300  44.446  29.424   4.693
56935W        W18301  43.889  31.469  12.881
56936W        W18302  39.915   1.265  14.014
56937W        W18303  21.084  24.600   1.712
56938W        W18304  13.211  32.442  11.899
56939W        W18305  44.495   5.286   3.224
56940W        W18306  15.724   3.800   2.862
56941W        W18307  31.150   0.331  12.555
56942W        W18308  41.827  31.577   2.415
56943W        W18309  14.623  30.973   1.367
56944W        W18310  15.172  30.479  13.427
56945W        W18311  32.927  23.700  14.798
56946W        W18312  36.385  24.990   2.815
56947W        W18313  28.678  19.564  12.071
56948W        W18314  42.002  13.283   3.804
56949W        W18315  42.807   3.342   3.361
56950W        W18316  14.266  32.909   1.766
56951W        W18317  37.969  44.484   3.335
56952W        W18318   9.646   2.821  11.372
56953W        W18319  21.219  33.618   0.893
56954W        W18320  20.747   1.830  11.418
56955W        W18321  43.813  42.350  13.911
56956W        W18322  36.364  36.969  14.912
56957W        W18323  11.340  18.058   3.280
56958W        W18324  40.421  41.366  11.572
56959W        W18325  44.832   1.397  11.957
56960W        W18326  32.566  29.581   4.638
56961W        W18327  36.427  20.235   3.227
56962W        W18328  42.443  26.033   3.644
56963W        W18329  42.289  43.921  14.966
56964W        W18330  43.853  40.809  12.358
56965W        W18331  30.986  37.076   2.774
56966W        W18332  19.175  19.636  11.483
56967W        W18333  14.229  32.084  11.934
56968W        W18334  23.157  11.687  14.961
56969W        W18335  17.610  10.870  11.980
56970W        W18336  10.167  23.036  14.414
56971W        W18337  20.568  22.701   4.224
56972W        W18338  20.275   1.383  13.971
56973W        W18339  36.553   0.814   9.950
56974W        W18340  43.279   8.381  11.008
56975W        W18341  26.080  12.277  13.509
56976W        W18342   5.325   2.444  10.470
56977W        W18343   6.350  41.531   2.379
56978W        W18344   7.251   4.329  13.317
56979W        W18345  36.560  34.477   1.803
56980W        W18346  38.857   8.677   0.364
56981W        W18347   2.405  33.548  13.064
56982W        W18348  14.341  29.104   0.388
56983W        W18349  11.851  22.065  14.303
56984W        W18350   3.360  43.277   2.879
56985W        W18351   4.315  35.593   1.705
56986W        W18352  32.137  17.604  14.845
56987W        W18353  19.168  36.536   2.844
56988W        W18354   2.921  35.422  14.398
56989W        W18355  40.005  12.116   1.211
56990W        W18356   1.941  24.131   1.904
56991W        W18357   4.941  43.945  13.326
56992W        W18358  18.208  19.210  11.431
56993W        W18359  42.948   1.806  12.390
56994W        W18360  42.878   8.219  14.787
56995W        W18361  34.099  13.610   3.229
56996W        W18362  37.968  11.726  10.458
56997W        W18363  16.208  24.724  14.436
56998W        W18364  11.356  33.065  11.886
56999W        W18365  25.046  44.455   0.881
57000W        W18366  35.434  44.442  13.472
57001W        W18367  38.018  41.828   3.163
57002W        W18368   6.223   6.858  11.057
57003W        W18369  23.142   2.940  10.127
57004W        W18370  22.514  22.193  12.876
57005W        W18371  23.655   6.328  10.640
57006W        W18372  20.739  34.945   5.239
57007W        W18373  35.028   0.924   1.819
57008W        W18374   0.271  26.562  13.958
57009W        W18375  43.358   0.425   2.379
57010W        W18376  27.986  19.251   0.956
57011W        W18377  11.764  30.527   0.357
57012W        W18378  14.231   2.309  11.036
57013W        W18379   5.917  31.506  11.540
57014W        W18380  27.527  15.620  14.871
57015W        W18381  44.265   8.319  12.857
57016W        W18382  44.858   4.747   0.477
57017W        W18383  44.912  34.955   2.219
57018W        W18384  26.462  18.607   2.751
57019W        W18385  19.675  11.713   4.737
57020W        W18386   9.305  11.288   2.342
57021W        W18387  38.326  41.386  10.962
57022W        W18388  23.063   6.787   2.376
57023W        W18389   8.711   7.183  12.539
57024W        W18390  35.381  33.611   4.223
57025W        W18391  39.860  14.293   4.602
57026W        W18392  19.682  30.922  14.965
57027W        W18393  25.618  31.011  12.861
57028W        W18394  33.527   4.750  14.363
57029W        W18395   8.751  38.397  12.064
57030W        W18396  19.100  33.531  14.826
57031W        W18397  35.514  18.778  13.892
57032W        W18398  12.805  21.094  11.896
57033W        W18399  22.715  42.349  11.037
57034W        W18400  42.944   8.267  11.907
57035W        W18401  41.437  37.884   3.235
57036W        W18402  27.112  22.139  13.461
57037W        W18403  24.529  21.582  13.919
57038W        W18404   3.275   3.215   2.854
57039W        W18405  16.803  13.273   0.959
57040W        W18406  42.498  28.066   3.177
57041W        W18407  10.310  17.721  10.414
57042W        W18408  17.739  14.320  10.446
57043W        W18409  26.596   1.392   0.737
57044W        W18410  25.650  11.358  12.883
57045W        W18411  35.928  23.519   2.229
57046W        W18412  30.081   8.319  10.615
57047W        W18413  36.354   5.776   4.211
57048W        W18414   9.728  17.128   4.648
57049W        W18415  36.077  24.083   3.254
57050W        W18416  40.891  30.513  11.573
57051W        W18417  13.610  44.336   1.352
57052W        W18418  21.199   4.320  12.552
57053W        W18419  28.953   3.237  14.017
57054W        W18420  10.186  35.877   1.737
57055W        W18421  14.319   2.839   3.194
57056W        W18422  12.283   4.376   4.353
57057W        W18423   1.270  14.190   3.810
57058W        W18424  32.494  37.974  13.466
57059W        W18425  43.830  37.551   2.707
57060W        W18426   2.931  22.717   0.842
57061W        W18427  21.182  38.840   0.889
57062W        W18428  34.595  32.580   2.366
57063W        W18429   6.276   9.805   0.754
57064W        W18430  27.940  31.446   0.464
57065W        W18431  38.558  11.162  11.115
57066W        W18432  30.650  34.937   2.677
57067W        W18433  12.714  33.585  11.599
57068W        W18434   4.398  14.164  10.560
57069W        W18435  29.670   8.218   2.254
57070W        W18436   3.395  24.147   4.202
57071W        W18437  20.662  23.606  14.442
57072W        W18438  22.218   0.880   3.759
57073W        W18439  24.534  31.530  14.978
57074W        W18440  42.912  36.593   3.184
57075W        W18441  44.921  11.317   0.867
57076W        W18442  36.528   1.349   0.406
57077W        W18443  36.073  33.610  12.356
57078W        W18444  30.007  19.716   0.884
57079W        W18445  29.567   4.808  10.479
57080W        W18446  12.666  36.484   4.814
57081W        W18447  41.965  37.008  14.957
57082W        W18448  12.720  24.137   4.237
57083W        W18449  17.278  29.544   4.612
57084W        W18450   4.873  32.997   2.191
57085W        W18451  17.704   6.377  12.512
57086W        W18452   9.856  26.597  10.994
57087W        W18453   8.256   1.767  10.481
57088W        W18454  29.019  41.943   0.782
57089W        W18455  26.549  24.685  11.436
57090W        W18456  33.433  33.947  14.353
57091W        W18457  28.092  38.337   3.205
57092W        W18458  22.194  35.876  10.910
57093W        W18459   2.790  40.857  13.973
57094W        W18460  25.518   5.295  11.502
57095W        W18461  26.160  15.718   0.726
57096W        W18462  34.518  42.436  14.828
57097W        W18463  42.787  38.940  13.948
57098W        W18464  39.847   0.808  11.969
57099W        W18465  12.117  17.283   4.658
57100W        W18466  36.874  20.138  10.597
57101W        W18467   9.266  42.319   4.311
57102W        W18468  35.427  18.606   2.254
57103W        W18469  31.998  17.627   1.772
57104W        W18470   4.419  37.944   2.705
57105W        W18471  12.138  24.195  10.584
57106W        W18472  28.668  14.689   3.372
57107W        W18473  26.019  17.224  11.545
57108W        W18474  19.115  18.066   4.292
57109W        W18475  26.073  17.670   2.772
57110W        W18476  22.544  27.010  14.480
57111W        W18477  24.525  41.344   1.419
57112W        W18478  15.655   5.778   4.682
57113W        W18479  16.297   1.324  12.565
57114W        W18480  28.088  10.375   1.820
57115W        W18481  44.338  29.652  12.011
57116W        W18482  14.176  19.198  13.854
57117W        W18483  16.269   1.902  14.777
57118W        W18484  31.633   9.882   4.604
57119W        W18485  41.429  17.225   1.876
57120W        W18486  39.489  16.578  11.076
57121W        W18487   8.271  32.964  14.306
57122W        W18488   2.925  35.385   3.761
57123W        W18489   5.766  21.588  13.047
57124W        W18490  29.058  18.090   1.762
57125W        W18491   9.709   4.911   3.664
57126W        W18492  43.001  17.125  10.598
57127W        W18493  32.392  15.711  13.444
57128W        W18494  15.753  22.597  10.597
57129W        W18495  23.667  43.874   4.660
57130W        W18496  18.741  28.023   4.768
57131W        W18497  34.998  32.969  13.977
57132W        W18498  19.695  12.161   2.270
57133W        W18499  37.961  18.775  10.133
57134W        W18500  19.712  30.585   1.313
57135W        W18501  34.090  41.471  13.922
57136W        W18502  40.929  37.350   4.777
57137W        W18503  35.397  15.627   4.625
57138W        W18504   4.853  27.128  14.804
57139W        W18505   2.893   1.317   4.615
57140W        W18506  23.524  20.577   3.782
57141W        W18507   0.336  14.651   0.288
57142W        W18508  33.931  35.983   2.248
57143W        W18509   7.231   5.331  11.874
57144W        W18510  38.864  33.913   0.792
57145W        W18511  20.724  15.746  10.511
57146W        W18512   9.866  44.906   1.387
57147W        W18513  11.857  44.412  13.355
57148W        W18514  31.496  44.807   3.326
57149W        W18515   2.788  26.669  14.949
57150W        W18516   7.188  22.659  12.536
57151W        W18517  30.143   8.749  14.477
57152W        W18518  10.277   0.454  10.950
57153W        W18519  18.057  26.492   0.425
57154W        W18520  12.238  29.042  12.844
57155W        W18521  16.628  44.476  12.405
57156W        W18522  26.058  31.464   1.759
57157W        W18523  11.637   7.677  12.453
57158W        W18524  14.146  12.763  13.513
57159W        W18525  29.575  28.126  10.950
57160W        W18526  34.994   0.769  14.793
57161W        W18527   8.399  15.683   4.166
57162W        W18528  21.140  38.047   5.203
57163W        W18529  28.650  15.657   1.283
57164W        W18530  32.046  19.692  13.002
57165W        W18531  29.574  41.352  14.841
57166W        W18532  22.541  22.106  14.342
57167W        W18533  22.735   5.287   5.188
57168W        W18534  41.956  19.273   4.263
57169W        W18535   7.806  20.560   1.758
57170W        W18536  42.955  23.603   4.618
57171W        W18537  38.475   3.856   0.735
57172W        W18538   0.946   7.337   4.653
57173W        W18539   7.840   0.452   1.891
57174W        W18540   3.949  37.475  14.816
57175W        W18541   8.709   2.333   1.828
57176W        W18542  13.742   0.862   3.359
57177W        W18543  29.158  16.777   0.860
57178W        W18544  24.028  11.278  14.434
57179W        W18545  32.434  41.792   0.427
57180W        W18546  41.920  24.697   2.362
57181W        W18547  13.798  41.922   3.162
57182W        W18548  17.664  28.669  11.438
57183W        W18549  17.196  44.849  10.616
57184W        W18550  26.532  14.753   2.188
57185W        W18551  18.569  17.066  13.408
57186W        W18552  22.670  23.690  10.005
57187W        W18553  27.090  41.906  10.468
57188W        W18554  22.097  13.196  14.401
57189W        W18555   5.701  24.006   3.337
57190W        W18556  34.116   7.759   4.346
57191W        W18557  36.883   8.395   2.774
57192W        W18558  39.525  27.648   3.223
57193W        W18559  19.595   3.926  13.995
57194W        W18560  33.622  33.897  13.889
57195W        W18561  22.023  36.050  13.895
57196W        W18562  22.622  26.562   3.840
57197W        W18563  24.114  19.213  14.423
57198W        W18564  15.770  17.791  14.777
57199W        W18565  41.950  35.973  10.598
57200W        W18566  33.544   8.894  10.985
57201W        W18567  41.967  44.325   0.858
57202W        W18568  39.405   0.802   0.359
57203W        W18569   4.865  17.290  13.335
57204W        W18570  28.669   0.382  14.869
57205W        W18571  18.597  27.588   3.850
57206W        W18572  18.610  34.887   2.890
57207W        W18573   9.229  20.611   2.725
57208W        W18574  26.049  26.052   0.764
57209W        W18575   4.933   5.356   3.823
57210W        W18576  18.123  30.029   2.828
57211W        W18577  43.383  26.464   0.342
57212W        W18578  40.880  42.440   0.817
57213W        W18579  33.011  10.688   1.893
57214W        W18580  33.564  16.072   0.305
57215W        W18581  38.385  13.657  13.834
57216W        W18582  39.463  30.026   2.277
57217W        W18583  17.141   6.313  13.512
57218W        W18584  42.320  32.969   3.711
57219W        W18585  16.810  40.935   0.373
57220W        W18586  34.933  43.003  14.779
57221W        W18587  10.178  44.980  13.510
57222W        W18588  37.356  13.106   4.666
57223W        W18589  16.754  41.324   0.250
57224W        W18590  13.682  38.478   4.659
57225W        W18591   7.821  42.895   0.364
57226W        W18592   7.182  43.433   3.385
57227W        W18593   0.366   2.834  13.935
57228W        W18594  32.625  34.089   1.281
57229W        W18595   1.925  12.612  14.950
57230W        W18596  31.441   5.725   4.830
57231W        W18597   1.831  34.081   2.864
57232W        W18598  42.797  40.849   3.752
57233W        W18599  42.970  38.532  12.082
57234W        W18600  39.877  41.431  10.551
57235W        W18601  32.394  27.449  14.360
57236W        W18602  29.139  37.915  10.490
57237W        W18603  38.483  24.626   4.164
57238W        W18604  16.780  31.118   3.270
57239W        W18605  44.412  19.760  11.604
57240W        W18606  13.615  20.101   0.911
57241W        W18607  26.516  13.272  14.322
57242W        W18608  31.897  10.161  10.135
57243W        W18609  24.111  28.033   0.726
57244W        W18610  44.459   9.314   0.823
57245W        W18611  32.074  22.717   0.934
57246W        W18612   4.763  11.282  14.490
57247W        W18613  17.228  21.698  12.831
57248W        W18614  23.688   0.448   1.413
57249W        W18615  10.224  20.224  10.461
57250W        W18616  19.645  17.118  14.791
57251W        W18617   0.475  31.923   1.278
57252W        W18618  39.001  17.708   0.869
57253W        W18619   2.805  24.100  12.520
57254W        W18620  43.452  44.982   3.281
57255W        W18621  20.699  11.199  11.950
57256W        W18622   5.782  23.125  14.817
57257W        W18623  33.083  18.056  11.905
57258W        W18624  33.527  32.406   4.605
57259W        W18625  18.581  31.079   4.684
57260W        W18626  19.113   0.910  11.605
57261W        W18627  24.585  39.046  13.882
57262W        W18628  12.841  40.534  13.438
57263W        W18629  41.032  34.028   4.210
57264W        W18630   5.245  19.569  14.004
57265W        W18631  38.359  25.607  13.410
57266W        W18632  43.997  12.637   1.903
57267W        W18633  30.477  38.971   2.779
57268W        W18634  17.071  26.459  10.466
57269W        W18635  34.552   1.462  12.376
57270W        W18636  33.887  25.507  13.832
57271W        W18637  33.592  36.575  13.441
57272W        W18638  38.333  37.562  10.544
57273W        W18639   4.249  38.503  11.531
57274W        W18640   0.773  14.712  14.370
57275W        W18641  15.227  39.325   3.371
57276W        W18642  27.027  37.850  12.412
57277W        W18643  23.106   1.310  10.039
57278W        W18644   8.405  36.395   0.333
57279W        W18645   6.320  27.997   4.601
57280W        W18646   4.378  41.823   2.405
57281W        W18647  22.083  11.331   1.922
57282W        W18648  33.563  12.792   0.426
57283W        W18649  27.584   5.252  10.483
57284W        W18650  13.666  41.911   1.731
57285W        W18651  20.618  39.453   0.309
57286W        W18652   3.955  15.593   3.307
57287W        W18653  33.120  14.810   4.190
57288W        W18654  36.095  31.406  12.511
57289W        W18655   0.256  12.719   0.831
57290W        W18656   3.933  41.307   4.350
57291W        W18657   2.901   7.707   3.802
57292W        W18658  34.546  28.936   2.695
57293W        W18659   3.341  33.004  14.015
57294W        W18660  34.498  41.321   1.383
57295W        W18661  21.697  23.074  12.012
57296W        W18662  28.484  21.049  12.389
57297W        W18663  32.434  21.158  14.977
57298W        W18664  14.632  43.466   4.328
57299W        W18665  20.645  23.714   3.766
57300W        W18666  11.345  12.356  13.522
57301W        W18667   1.332  19.536  13.494
57302W        W18668  10.803  27.180   2.295
57303W        W18669   1.953   9.220  12.892
57304W        W18670  32.449   0.875   0.389
57305W        W18671  43.989  36.034   1.832
57306W        W18672  36.409  28.435  13.345
57307W        W18673  20.558  32.962  12.825
57308W        W18674  44.899  15.268   4.244
57309W        W18675  32.084  40.884  12.039
57310W        W18676  40.031  15.317   2.185
57311W        W18677  34.419  12.813  10.565
57312W        W18678  30.587  28.045   1.429
57313W        W18679  42.403   7.283   2.213
57314W        W18680  12.294  43.924   3.760
57315W        W18681  28.043  25.518  14.945
57316W        W18682  40.894  17.647  10.989
57317W        W18683  25.641  32.921   2.869
57318W        W18684   7.704  23.728  14.002
57319W        W18685  34.599  23.213   4.692
57320W        W18686  22.510  25.492   0.948
57321W        W18687  44.920  30.946   0.446
57322W        W18688  12.766   5.295   0.396
57323W        W18689  22.228   6.398   3.270
57324W        W18690  28.487  30.014  10.541
57325W        W18691  19.194  44.972   1.216
57326W        W18692   3.917  39.821  14.475
57327W        W18693  23.240   2.767  11.127
57328W        W18694  27.086   3.293   9.552
57329W        W18695  44.450  29.918  11.531
57330W        W18696  24.191  39.969   1.731
57331W        W18697  27.089   1.753   1.443
57332W        W18698   5.432   3.363  12.421
57333W        W18699  44.897  28.992  11.069
57334W        W18700  17.076  20.076   1.432
57335W        W18701  23.026  36.567   3.771
57336W        W18702  30.502  43.894  11.115
57337W        W18703  26.207   6.375   0.365
57338W        W18704  21.539  30.116  12.025
57339W        W18705  17.672  19.268  10.425
57340W        W18706   2.807  41.964   4.219
57341W        W18707  36.516  34.028   0.248
57342W        W18708  37.423  28.010  14.760
57343W        W18709  11.371  22.663   4.785
57344W        W18710  39.484   9.257   3.800
57345W        W18711  27.598  42.887   0.960
57346W        W18712  33.516  13.146   0.441
57347W        W18713   9.330  13.713   3.808
57348W        W18714  30.140  33.968   1.214
57349W        W18715  12.856  12.837  12.513
57350W        W18716  28.615  23.171  12.868
57351W        W18717  34.479  10.812  12.390
57352W        W18718   2.724   5.795  12.576
57353W        W18719  19.740  36.477  11.881
57354W        W18720  10.776  19.183  11.071
57355W        W18721  13.349  25.092   3.713
57356W        W18722  26.189  25.022   3.238
57357W        W18723  40.019   3.812  11.388
57358W        W18724  33.609  11.308  12.878
57359W        W18725  12.295   1.799  12.553
57360W        W18726  16.083  12.763   5.169
57361W        W18727  38.326  37.921  10.891
57362W        W18728  32.122  25.565  10.944
57363W        W18729  29.996  26.520   2.230
57364W        W18730  33.029  14.806  14.890
57365W        W18731  32.434  17.596   4.287
57366W        W18732  40.408  23.191  10.457
57367W        W18733  17.163  17.583  11.416
57368W        W18734   8.216  12.703  11.506
57369W        W18735   2.871  16.661  10.076
57370W        W18736   6.425  42.950   9.978
57371W        W18737  29.645  33.603  13.993
57372W        W18738  16.690  25.542   2.692
57373W        W18739  32.451  39.810   1.258
57374W        W18740  19.116  18.704   2.840
57375W        W18741  42.991  17.249  11.107
57376W        W18742   2.238   9.288  10.490
57377W        W18743  15.169  24.027   2.222
57378W        W18744   9.869  13.343   0.249
57379W        W18745  24.722  26.575   3.351
57380W        W18746   3.377  29.630  14.892
57381W        W18747  16.204   9.209   2.878
57382W        W18748   1.783  26.588   9.482
57383W        W18749  27.056   6.905   0.865
57384W        W18750   7.291   5.279  14.785
57385W        W18751  21.086   6.692   3.170
57386W        W18752  31.516  24.180   2.409
57387W        W18753  33.897  40.943   1.912
57388W        W18754   7.858  27.066   2.803
57389W        W18755  12.299  43.393   3.178
57390W        W18756  12.137  28.120   2.730
57391W        W18757   5.394  44.259  11.024
57392W        W18758  27.052  37.063  10.491
57393W        W18759   7.214  21.034  13.393
57394W        W18760  20.092   1.857   4.230
57395W        W18761  16.715  37.508  12.084
57396W        W18762  13.127  10.349  13.943
57397W        W18763  32.485  34.588   5.202
57398W        W18764  42.012   8.195  14.306
57399W        W18765  23.069   4.825   1.742
57400W        W18766  30.927   8.235  14.985
57401W        W18767  19.725  39.829  12.880
57402W        W18768   2.356  15.244   2.354
57403W        W18769  17.130  18.608  10.923
57404W        W18770   6.913  21.685   2.791
57405W        W18771  13.805  34.584   4.791
57406W        W18772  23.010  32.520  12.855
57407W        W18773   1.807  13.725  13.510
57408W        W18774  26.117   5.710  14.879
57409W        W18775  10.148  39.894   1.429
57410W        W18776  26.554   8.360   2.309
57411W        W18777  11.280  26.644  13.838
57412W        W18778  19.264  21.572   2.327
57413W        W18779   1.777  24.172  11.502
57414W        W18780  19.081  43.344   3.386
57415W        W18781  33.614  10.232  12.504
57416W        W18782  35.364  27.576   1.710
57417W        W18783  39.893  25.665  11.505
57418W        W18784  10.337  26.490  13.960
57419W        W18785  22.205  43.938   0.273
57420W        W18786   4.942  36.026   2.246
57421W        W18787   5.250  24.559   0.362
57422W        W18788  41.444  18.131  13.405
57423W        W18789  21.062  15.294  14.280
57424W        W18790  25.578   4.922  11.899
57425W        W18791   4.224   0.336  12.422
57426W        W18792  26.665   8.799  12.467
57427W        W18793  11.308  39.385   0.395
57428W        W18794  19.052  15.747  11.574
57429W        W18795  38.877  10.837  13.825
57430W        W18796  25.657  16.604  12.857
57431W        W18797  12.335  15.208  13.815
57432W        W18798  37.389   0.860   5.195
57433W        W18799  42.873  30.045  10.495
57434W        W18800  44.380  41.789  12.494
57435W        W18801   4.399  42.507  12.434
57436W        W18802  43.825  18.628   0.432
57437W        W18803  27.631  22.692  12.367
57438W        W18804  16.225  22.627   3.629
57439W        W18805  26.082  10.725   2.745
57440W        W18806   6.780  39.020   3.213
57441W        W18807  12.613  31.054  13.369
57442W        W18808   3.827  15.269   3.301
57443W        W18809  13.694  32.426  11.509
57444W        W18810   0.925  33.112  12.872
57445W        W18811   2.773  44.804   3.306
57446W        W18812  20.079   3.781   3.193
57447W        W18813   5.717  44.961  13.892
57448W        W18814  21.025  11.308  12.538
57449W        W18815  13.634  32.620  14.935
57450W        W18816   2.242  43.301  13.401
57451W        W18817  40.831  17.746   0.938
57452W        W18818  32.584   8.718  11.515
57453W        W18819  37.563  20.736   2.813
57454W        W18820  26.126  44.775  14.820
57455W        W18821  24.981  26.994   9.593
57456W        W18822   0.478   7.819  12.538
57457W        W18823  11.232  21.522  14.342
57458W        W18824   7.774   9.169   2.387
57459W        W18825   4.416  24.695   0.747
57460W        W18826   9.184  25.633   0.362
57461W        W18827  40.011  44.383  10.440
57462W        W18828  30.607  13.703   3.199
57463W        W18829  38.375   2.373  13.397
57464W        W18830  34.598   3.427   4.667
57465W        W18831  39.841  37.881   2.800
57466W        W18832  13.752  28.027   2.189
57467W        W18833  42.826  35.445  12.018
57468W        W18834  14.710  42.861  14.347
57469W        W18835  18.652  20.636  11.954
57470W        W18836  20.713  38.429   2.747
57471W        W18837  38.993  14.271   0.960
57472W        W18838  35.412  23.564   0.871
57473W        W18839  18.707  22.995  14.415
57474W        W18840  44.322  22.118   1.415
57475W        W18841  42.362  12.725   2.809
57476W        W18842  39.523  14.633   3.695
57477W        W18843  30.542   9.843   1.396
57478W        W18844  27.677  21.049   2.681
57479W        W18845   2.385  33.565  10.541
57480W        W18846  12.291  28.471  12.977
57481W        W18847  14.773  26.504   2.892
57482W        W18848   1.731  32.631   4.242
57483W        W18849   8.739  14.294  11.097
57484W        W18850  31.916  38.530  12.980
57485W        W18851  16.272  42.882  11.451
57486W        W18852  19.186  40.512   3.677
57487W        W18853  38.378  42.858   4.325
57488W        W18854  31.521  36.382  12.568
57489W        W18855  25.710  15.228   4.809
57490W        W18856   1.402  44.332   4.148
57491W        W18857  42.821  10.345   5.085
57492W        W18858   0.261  32.908   2.184
57493W        W18859  16.187  16.588  14.276
57494W        W18860   8.847  42.960   1.725
57495W        W18861  44.384  41.528  13.428
57496W        W18862  38.961   9.293   3.183
57497W        W18863   7.676  37.419  13.011
57498W        W18864  43.941  35.891  13.919
57499W        W18865  44.906  11.301   2.245
57500W        W18866   2.843  42.309   2.316
57501W        W18867  33.060  39.065   2.881
57502W        W18868  13.339  40.385  14.911
57503W        W18869  32.435  36.049  13.404
57504W        W18870  33.094  27.539   4.789
57505W        W18871  31.114   6.303   0.273
57506W        W18872  22.631  39.810   4.735
57507W        W18873  26.532  39.355   3.862
57508W        W18874  13.744  14.829  14.898
57509W        W18875   6.345  29.636   1.283
57510W        W18876  16.734  41.925   3.723
57511W        W18877  24.105  30.475   0.467
57512W        W18878  39.839  31.018  13.430
57513W        W18879   0.968  23.613  11.912
57514W        W18880   2.796   6.866  14.780
57515W        W18881  23.626   7.377  13.462
57516W        W18882  24.650  33.383  14.027
57517W        W18883   8.830  12.149  10.618
57518W        W18884  27.953  36.976  13.980
57519W        W18885  33.574   3.833  14.432
57520W        W18886   5.806  31.536  12.056
57521W        W18887  11.631  24.527  13.963
57522W        W18888   0.966  14.795   0.750
57523W        W18889  27.560   7.275  11.547
57524W        W18890  23.039  11.358   0.865
57525W        W18891  26.082  23.709  11.104
57526W        W18892  36.373  22.605   0.295
57527W        W18893  32.013   0.434  11.571
57528W        W18894  37.482  27.574   0.397
57529W        W18895  33.063   9.741  12.055
57530W        W18896  32.139  26.054   3.262
57531W        W18897  15.136  16.734  11.411
57532W        W18898  13.215  33.609   0.393
57533W        W18899   7.830  29.021  12.855
57534W        W18900  36.917   4.731   2.209
57535W        W18901  38.913  36.360  13.355
57536W        W18902  35.498  24.013   0.891
57537W        W18903  28.035  24.044  14.476
57538W        W18904  17.145   2.929   1.376
57539W        W18905  14.625  13.615   4.211
57540W        W18906  31.426  27.464  10.444
57541W        W18907  35.950  39.972   1.276
57542W        W18908  26.678  23.037  12.904
57543W        W18909  13.603  10.650   0.944
57544W        W18910  19.712   1.426   0.291
57545W        W18911  22.186  16.124   3.708
57546W        W18912  37.834   5.291   3.346
57547W        W18913  37.396   7.825  12.369
57548W        W18914  32.488   0.415  12.493
57549W        W18915  10.245   9.890  12.451
57550W        W18916  33.509  35.034   1.224
57551W        W18917  39.000  39.504   3.714
57552W        W18918  15.196  36.446  10.099
57553W        W18919  25.682  14.591  10.442
57554W        W18920   5.793  17.715  14.009
57555W        W18921  23.054  42.446   2.893
57556W        W18922  36.462  36.564   1.234
57557W        W18923   1.440   2.924  13.546
57558W        W18924  20.712  11.813  13.892
57559W        W18925   7.341  32.963   0.869
57560W        W18926  30.144  22.503   1.326
57561W        W18927  10.381  37.867  10.461
57562W        W18928  44.828  33.983  10.421
57563W        W18929  22.062  30.919  14.997
57564W        W18930  41.460  29.066   3.727
57565W        W18931  43.891  34.403  12.395
57566W        W18932  42.794  17.715   2.902
57567W        W18933  19.751  28.483   1.916
57568W        W18934  30.941  12.204   0.383
57569W        W18935  31.098  18.781   0.755
57570W        W18936  33.592  12.323   4.729
57571W        W18937   5.229  29.535  13.477
57572W        W18938   4.736  10.286   5.260
57573W        W18939  23.000  20.090   3.330
57574W        W18940   5.814  12.695   0.341
57575W        W18941   3.382  27.686   9.596
57576W        W18942  12.351  13.259  12.571
57577W        W18943   2.939  16.640   9.651
57578W        W18944  12.785   4.736  11.532
57579W        W18945  35.532   5.427   3.684
57580W        W18946  10.658  37.547   3.640
57581W        W18947  43.953  41.803   0.840
57582W        W18948  19.666  28.155  14.973
57583W        W18949  36.474  22.157   1.894
57584W        W18950   6.824  25.001   3.356
57585W        W18951  20.063  31.897  10.071
57586W        W18952  27.130  35.892  11.598
57587W        W18953  18.616  23.045  10.627
57588W        W18954  35.860  27.530   0.915
57589W        W18955  12.674  19.212  11.925
57590W        W18956  24.041   9.299  12.563
57591W        W18957  24.008  27.531   2.181
57592W        W18958  35.030   9.732   0.483
57593W        W18959   5.375   5.248  12.884
57594W        W18960  21.567  22.997  13.343
57595W        W18961  29.950  24.631  12.520
57596W        W18962  42.526   3.264  13.495
57597W        W18963   6.276  13.209   0.839
57598W        W18964  36.981   7.387  10.414
57599W        W18965  35.597   1.870  14.774
57600W        W18966   6.722  27.076  10.644
57601W        W18967  28.526  42.959   2.885
57602W        W18968  12.333   3.378   4.799
57603W        W18969  11.837   8.852  12.990
57604W        W18970   6.338  26.956  14.988
57605W        W18971  13.809  25.997   4.131
57606W        W18972  32.395  15.159   4.351
57607W        W18973  20.042  29.053  10.006
57608W        W18974  27.059  16.772  14.335
57609W        W18975  40.378   5.371   3.798
57610W        W18976  17.726  39.326  12.462
57611W        W18977  40.981  35.015  12.828
57612W        W18978  22.740  31.110   2.843
57613W        W18979   0.754  33.030  11.865
57614W        W18980   5.398  26.095   2.251
57615W        W18981  17.212  20.650  11.599
57616W        W18982   5.258  35.437  13.998
57617W        W18983  30.587  43.336   1.306
57618W        W18984  25.547  34.455   1.838
57619W        W18985  39.369  25.588   0.919
57620W        W18986  33.944  24.071   0.328
57621W        W18987  29.599   7.378  14.483
57622W        W18988  14.291  44.458   3.791
57623W        W18989  39.935  30.578   3.158
57624W        W18990  26.188   4.432   2.351
57625W        W18991  20.639  16.314  11.088
57626W        W18992  23.705   5.760  13.939
57627W        W18993  26.993  32.523   2.690
57628W        W18994  31.455  41.037  12.920
57629W        W18995  27.675  40.892  11.983
57630W        W18996  35.439  40.448  11.990
57631W        W18997   2.965  43.883  13.012
57632W        W18998  20.715  18.266   3.231
57633W        W18999  23.984  37.355  11.588
57634W        W19000  39.823   5.929   4.161
57635W        W19001  15.151  44.261  12.032
57636W        W19002  33.965   4.272  12.429
57637W        W19003  35.387  39.986  12.924
57638W        W19004  36.046  18.258   4.236
57639W        W19005  18.633  44.937   0.847
57640W        W19006  27.456  10.299  14.025
57641W        W19007   8.774  35.601  14.448
57642W        W19008  30.073  18.226   3.867
57643W        W19009  15.201  38.063  13.952
57644W        W19010   8.334  29.086   4.812
57645W        W19011   5.292  41.802   3.792
57646W        W19012   4.818  21.755   3.817
57647W        W19013  15.592  25.002  13.439
57648W        W19014  32.482   4.261  11.515
57649W        W19015   2.872   4.774   4.821
57650W        W19016  11.287  17.631   0.957
57651W        W19017  26.201  13.314   2.273
57652W        W19018  40.335  39.866  14.985
57653W        W19019  43.274  18.207   4.744
57654W        W19020   4.352  10.804  13.358
57655W        W19021  18.151  36.362  13.544
57656W        W19022  34.023  44.329  10.484
57657W        W19023   5.881   0.980  12.975
57658W        W19024   8.383  21.528   2.687
57659W        W19025  13.318  31.919  13.008
57660W        W19026  18.680   0.455   2.751
57661W        W19027  44.269  12.693  13.006
57662W        W19028  12.634   6.203   3.363
57663W        W19029  24.665  17.689  12.403
57664W        W19030  14.274  12.261   0.395
57665W        W19031   3.737  25.161   0.922
57666W        W19032  14.795  44.951   3.723
57667W        W19033  28.485   7.881  12.884
57668W        W19034  37.844   1.976  13.973
57669W        W19035  29.481  33.507   4.171
57670W        W19036  18.743  22.029   3.222
57671W        W19037  40.394  40.969   2.694
57672W        W19038   2.371   9.860  11.403
57673W        W19039  24.191  41.444  10.474
57674W        W19040  41.904   8.369  12.028
57675W        W19041   5.410  15.301  14.987
57676W        W19042  38.052  35.995  14.914
57677W        W19043  37.484  39.017  11.372
57678W        W19044  19.101  16.780  11.494
57679W        W19045  23.596  13.744   2.901
57680W        W19046   6.846  18.090   5.142
57681W        W19047  40.050   9.644   3.712
57682W        W19048  31.005   4.790  12.980
57683W        W19049  37.579  34.420  14.820
57684W        W19050   0.923  22.210   3.382
57685W        W19051   1.360  28.944   2.781
57686W        W19052  32.442  11.697  11.901
57687W        W19053  37.511  32.575   4.198
57688W        W19054  19.534  22.622   2.293
57689W        W19055  25.580  18.697  10.959
57690W        W19056   1.362  26.668   5.785
57691W        W19057  44.777   3.297   1.450
57692W        W19058  23.573  17.695  14.890
57693W        W19059  40.916  26.699   3.198
57694W        W19060  26.583  12.195  13.893
57695W        W19061  35.450  33.109  14.291
57696W        W19062  37.003  32.128   4.607
57697W        W19063  12.724  29.041   4.142
57698W        W19064   2.776  28.624  13.491
57699W        W19065  35.990  26.538  11.590
57700W        W19066  44.764  19.572   3.709
57701W        W19067   5.422  13.222   9.988
57702W        W19068  29.603  21.047   0.788
57703W        W19069  10.737  38.987   4.296
57704W        W19070  16.262  21.095   2.760
57705W        W19071  10.684  38.352  14.366
57706W        W19072  38.528   7.706   1.711
57707W        W19073  29.621  13.213   2.768
57708W        W19074  23.198  38.032  14.449
57709W        W19075  22.601  31.931   3.273
57710W        W19076  20.614  40.011  13.406
57711W        W19077   8.229  35.442   0.258
57712W        W19078  14.273  29.478   1.925
57713W        W19079  26.552  43.949  11.971
57714W        W19080  36.982  14.255  13.398
57715W        W19081   8.261  28.680  13.851
57716W        W19082  20.232  11.217  14.407
57717W        W19083  39.843   0.911  10.888
57718W        W19084  14.178   6.330   0.365
57719W        W19085  17.564  24.166  12.509
57720W        W19086  20.077  11.313   1.343
57721W        W19087  15.153  39.383  12.984
57722W        W19088  31.498   7.210  11.029
57723W        W19089  31.518   7.750  14.444
57724W        W19090  35.437  41.834   0.819
57725W        W19091   2.818   8.189  14.787
57726W        W19092  43.371  24.591  11.870
57727W        W19093  14.677  32.457  14.451
57728W        W19094  41.855  39.483   1.805
57729W        W19095  44.413  13.117   1.808
57730W        W19096  42.442  22.527  13.984
57731W        W19097  20.191  26.101  10.424
57732W        W19098  27.588  43.291   1.320
57733W        W19099  38.455  18.220   0.251
57734W        W19100  13.762  28.681  14.300
57735W        W19101  37.515  44.766  13.339
57736W        W19102   2.419  36.053   2.850
57737W        W19103   9.863  19.563  13.856
57738W        W19104   0.314  26.187  13.990
57739W        W19105  18.788   1.263  12.044
57740W        W19106   5.327  27.468  14.849
57741W        W19107  27.964  37.407  14.018
57742W        W19108   2.434   9.323   1.293
57743W        W19109   8.686  19.707   9.934
57744W        W19110  14.734  36.999  10.973
57745W        W19111  32.516  28.969  12.364
57746W        W19112  44.876   0.789  10.129
57747W        W19113  34.610  42.328  14.439
57748W        W19114  22.671  21.606  13.312
57749W        W19115  36.461  42.320   4.613
57750W        W19116   2.936  36.924  14.880
57751W        W19117  19.755  35.390   5.101
57752W        W19118  24.065  35.855  14.764
57753W        W19119   3.754  31.458  14.302
57754W        W19120   4.843  34.536  11.599
57755W        W19121  23.113  41.450   1.384
57756W        W19122   5.225   6.404   3.762
57757W        W19123  12.362  33.468  12.429
57758W        W19124   6.823  27.122   0.810
57759W        W19125  41.846  25.115   4.212
57760W        W19126  28.935  14.234  10.469
57761W        W19127   5.363  33.014   3.788
57762W        W19128   3.903  39.833   4.244
57763W        W19129   7.346  33.625  13.064
57764W        W19130  42.785  44.926   1.762
57765W        W19131  16.220  14.183  13.035
57766W        W19132  23.990  41.410  12.448
57767W        W19133   0.768  42.305  14.808
57768W        W19134  10.265  39.515   2.895
57769W        W19135  14.703  28.178   0.901
57770W        W19136  23.701  43.929  14.027
57771W        W19137   9.748  18.708  13.523
57772W        W19138  12.695  30.656   3.379
57773W        W19139  35.533  40.990   0.788
57774W        W19140  42.009  33.534  10.560
57775W        W19141   7.671  32.475  14.864
57776W        W19142  31.044  29.599  14.902
57777W        W19143   2.259  39.947  10.600
57778W        W19144  17.795  21.525   2.709
57779W        W19145  16.311  41.953  10.627
57780W        W19146  19.659  16.248  11.599
57781W        W19147  27.178  43.513  10.502
57782W        W19148  14.751  25.663   1.863
57783W        W19149  24.596  32.508   0.875
57784W        W19150  27.527  44.332   0.443
57785W        W19151  28.679  10.167  14.349
57786W        W19152   3.263   3.280   1.753
57787W        W19153  20.604  17.569  13.385
57788W        W19154  41.034  11.357   0.393
57789W        W19155  13.146  38.835  14.869
57790W        W19156   8.786  16.770   5.146
57791W        W19157  40.016  44.773  12.418
57792W        W19158  35.057  33.422  12.046
57793W        W19159  40.827  44.762   0.888
57794W        W19160   0.802  33.044   3.723
57795W        W19161  17.235  34.611   0.835
57796W        W19162   4.734  36.501  11.068
57797W        W19163  28.515  32.630  11.547
57798W        W19164  10.143   8.833  14.496
57799W        W19165  35.054  19.140   2.334
57800W        W19166  19.742  17.270   2.689
57801W        W19167   2.255  18.265   3.744
57802W        W19168  32.123  17.172  11.411
57803W        W19169  10.311  36.584   2.744
57804W        W19170   6.349  31.997  12.023
57805W        W19171  34.430   3.866   3.765
57806W        W19172  25.537  30.533   5.793
57807W        W19173  27.563  35.465   3.202
57808W        W19174  35.527  38.835  12.865
57809W        W19175  32.021  40.303  11.394
57810W        W19176  18.100  14.132   4.276
57811W        W19177  35.362  11.828  13.385
57812W        W19178  32.029  32.100  13.340
57813W        W19179   8.717   8.779   0.401
57814W        W19180  19.682   0.956   2.189
57815W        W19181  22.718  37.375  11.432
57816W        W19182   1.441  44.988  12.520
57817W        W19183   8.713  42.519  10.500
57818W        W19184  35.456  19.151  14.026
57819W        W19185   6.889  34.518   4.673
57820W        W19186  42.360  17.786   3.329
57821W        W19187  23.679  28.025   2.321
57822W        W19188   7.752  14.727   2.203
57823W        W19189  32.058  34.381   4.821
57824W        W19190  32.528   9.755  13.814
57825W        W19191  11.211  44.312  10.504
57826W        W19192  17.296  42.410   4.177
57827W        W19193  20.630  28.618  14.026
57828W        W19194   3.409  40.349  12.081
57829W        W19195  24.156  17.651  12.351
57830W        W19196  17.288   2.408   3.661
57831W        W19197  42.380  41.807   2.275
57832W        W19198  40.910  31.082   1.908
57833W        W19199  34.893  30.964  11.560
57834W        W19200  24.200  41.908  12.922
57835W        W19201  11.155  30.944  13.884
57836W        W19202  17.184  33.433  11.442
57837W        W19203  11.242  14.120  11.423
57838W        W19204   7.806   4.745   4.608
57839W        W19205  19.093  21.109   2.687
57840W        W19206  44.445  15.617  12.340
57841W        W19207  15.663  34.065  14.961
57842W        W19208  21.711  44.421   0.363
57843W        W19209  23.242  19.112  13.478
57844W        W19210  17.749  15.744  14.876
57845W        W19211  44.300   4.422  13.904
57846W        W19212  24.672  38.828  10.496
57847W        W19213  24.660   0.879   2.804
57848W        W19214  13.291   5.867  13.351
57849W        W19215  28.513  35.987  11.924
57850W        W19216  12.227  20.530  13.958
57851W        W19217  42.479   9.227   0.895
57852W        W19218  15.729   1.365  14.865
57853W        W19219  26.132   7.670  12.984
57854W        W19220  32.926   8.262   3.707
57855W        W19221  33.546  41.981   0.945
57856W        W19222  30.968  42.435   1.761
57857W        W19223  42.796  30.419   1.341
57858W        W19224  15.813  37.075  12.438
57859W        W19225   4.305  12.325  12.345
57860W        W19226  40.324  21.730  12.456
57861W        W19227  41.882  10.690   3.252
57862W        W19228  39.374   4.844  14.320
57863W        W19229   4.367  32.619   2.390
57864W        W19230  36.038   8.672   3.730
57865W        W19231  12.204  37.489   1.913
57866W        W19232  28.630   9.229   4.662
57867W        W19233  42.956  13.277  11.962
57868W        W19234  13.600  13.297  11.041
57869W        W19235  14.590  38.395  10.423
57870W        W19236  22.134  15.706   1.264
57871W        W19237   8.334  28.990  14.879
57872W        W19238  38.956  32.627  14.949
57873W        W19239   7.884  12.676   0.730
57874W        W19240  35.957  10.215   2.821
57875W        W19241  12.732   1.911  11.545
57876W        W19242  20.678   4.352   0.479
57877W        W19243  41.864  23.496   4.262
57878W        W19244  29.609  12.675   1.700
57879W        W19245  17.066   2.380  10.510
57880W        W19246   5.369  30.143   0.841
57881W        W19247  39.939   7.849   3.773
57882W        W19248   5.392   6.292   5.264
57883W        W19249   6.736  21.080  13.900
57884W        W19250   5.308  19.179   0.337
57885W        W19251  16.622  16.134   1.381
57886W        W19252   2.756  27.119  10.423
57887W        W19253  19.565   1.855   4.665
57888W        W19254  20.119   9.150   0.401
57889W        W19255  18.655  35.901  11.081
57890W        W19256  15.240  30.140  13.350
57891W        W19257  15.196   7.819   4.778
57892W        W19258   5.830  21.088  14.023
57893W        W19259  35.964  42.814  14.802
57894W        W19260  28.619  43.852   2.726
57895W        W19261  33.443  20.563   0.909
57896W        W19262  11.230  29.041   0.399
57897W        W19263   7.404   1.257   1.835
57898W        W19264   8.294  13.117   3.761
57899W        W19265   3.346  24.189  11.010
57900W        W19266  41.875  17.716   2.377
57901W        W19267  38.892  27.450   2.745
57902W        W19268  16.786   0.795   0.293
57903W        W19269  19.749  29.481  10.408
57904W        W19270  28.667   2.832  11.471
57905W        W19271  27.077   2.805   3.284
57906W        W19272  24.202   1.787   3.857
57907W        W19273  43.290  21.527  11.528
57908W        W19274  34.486  23.523   1.337
57909W        W19275  15.192  22.031  11.546
57910W        W19276  17.105  39.039   3.184
57911W        W19277  20.703  10.710  12.900
57912W        W19278  11.722   2.360  11.502
57913W        W19279  26.642  14.096   1.704
57914W        W19280  16.629  39.062   0.883
57915W        W19281   6.706  43.431   3.849
57916W        W19282  13.599   7.726   1.300
57917W        W19283  34.037  20.159  12.854
57918W        W19284  33.621  40.020  11.394
57919W        W19285  14.781  36.467   2.825
57920W        W19286   1.408  23.588   1.433
57921W        W19287  14.767  34.977  13.959
57922W        W19288  32.473  20.590   5.611
57923W        W19289  27.002   7.829  10.577
57924W        W19290   1.761   6.869   1.741
57925W        W19291  41.327   4.300  13.489
57926W        W19292  18.730  38.496   2.201
57927W        W19293  14.777  31.902   4.216
57928W        W19294  33.088   3.239   1.870
57929W        W19295   1.482  20.233  11.453
57930W        W19296  31.648  28.440   3.355
57931W        W19297  29.618  13.710  12.489
57932W        W19298  37.908  44.338  14.457
57933W        W19299  29.101   7.362   0.453
57934W        W19300  31.497  29.134  13.801
57935W        W19301  17.210  34.466   2.682
57936W        W19302   0.254  39.043  11.533
57937W        W19303   1.348  39.325  13.476
57938W        W19304  22.725  36.987   1.703
57939W        W19305  30.135  40.030  14.893
57940W        W19306  30.436   2.238  11.505
57941W        W19307  21.652  26.683   4.218
57942W        W19308  37.336  28.537  12.517
57943W        W19309  17.721  38.838  14.480
57944W        W19310  23.696  25.662  12.371
57945W        W19311   7.195  37.851  13.046
57946W        W19312   3.224  24.052   3.702
57947W        W19313  14.758  20.718   4.296
57948W        W19314  13.665  41.987   3.825
57949W        W19315   8.258  35.455   4.834
57950W        W19316   0.292   8.262   3.290
57951W        W19317  14.676  20.702  11.485
57952W        W19318   9.741   9.372  10.549
57953W        W19319  30.048  27.534  12.376
57954W        W19320   6.779  31.567   1.876
57955W        W19321  26.570  32.495   0.746
57956W        W19322   6.715   9.729   3.243
57957W        W19323  44.980  42.473   2.252
57958W        W19324   6.353   1.869   1.241
57959W        W19325  15.187   8.271  12.564
57960W        W19326  35.003  42.372  11.020
57961W        W19327  36.008  17.579  12.441
57962W        W19328  19.095  28.095  12.373
57963W        W19329  28.101   1.476  13.038
57964W        W19330   4.776  11.341  10.620
57965W        W19331  39.506  20.225   2.856
57966W        W19332  30.074  14.598  12.381
57967W        W19333  27.999   8.852  11.860
57968W        W19334  20.668  25.634  12.463
57969W        W19335  42.394  14.726   0.941
57970W        W19336  40.863  19.594   1.315
57971W        W19337  27.038  35.925  10.621
57972W        W19338  23.217  34.034   2.205
57973W        W19339   3.342  34.949  12.997
57974W        W19340   7.869  44.470  14.452
57975W        W19341  23.230  28.577  14.472
57976W        W19342  27.171  30.629  12.868
57977W        W19343  35.360  19.646  12.932
57978W        W19344  42.861  40.939  13.996
57979W        W19345  27.612   5.243   1.741
57980W        W19346   2.410  40.797  12.453
57981W        W19347  13.684   9.671   3.703
57982W        W19348  32.117   4.817   3.384
57983W        W19349  15.579  44.408   0.277
57984W        W19350  25.486  14.789   2.331
57985W        W19351  19.742  10.206   0.359
57986W        W19352  25.551  43.419   3.249
57987W        W19353  44.853  40.328   4.319
57988W        W19354   3.399  31.472   3.809
57989W        W19355  36.964   3.357   3.319
57990W        W19356  27.559  24.103   0.879
57991W        W19357   4.334   5.875  14.370
57992W        W19358  24.597  13.637  11.591
57993W        W19359   5.196  18.725   0.429
57994W        W19360  43.020   8.673   1.217
57995W        W19361  37.007  14.589  13.322
57996W        W19362  43.853  21.216  11.534
57997W        W19363   1.852  33.413   0.305
57998W        W19364  23.215  16.167   2.830
57999W        W19365  17.577  28.172  14.765
58000W        W19366  13.609  29.612  11.609
58001W        W19367  15.107   0.414   2.204
58002W        W19368   6.373   2.239   1.918
58003W        W19369   4.797  15.130  13.835
58004W        W19370   3.938  38.368  11.902
58005W        W19371  26.520  44.438   3.797
58006W        W19372  13.834  31.995  13.364
58007W        W19373   1.732   7.345  14.797
58008W        W19374  38.510  39.920  14.025
58009W        W19375   0.760  12.722   2.200
58010W        W19376   0.277   2.745   2.296
58011W        W19377   9.293  39.058  13.063
58012W        W19378  28.055  36.871   3.859
58013W        W19379  38.427  24.631  11.549
58014W        W19380   2.361  36.089  13.362
58015W        W19381  13.609  31.416   2.793
58016W        W19382  32.003  23.649   4.125
58017W        W19383  34.924   6.789   3.181
58018W        W19384  35.896  40.457   0.422
58019W        W19385   0.398  11.167   1.931
58020W        W19386  44.915  41.530  13.960
58021W        W19387  14.716   6.858   0.752
58022W        W19388  44.410  43.839   0.814
58023W        W19389  38.870  13.818  11.526
58024W        W19390  12.251  11.178  14.999
58025W        W19391  31.576  13.825   0.753
58026W        W19392  36.966  18.631  14.846
58027W        W19393  20.563  22.662  10.592
58028W        W19394  25.207  16.310   1.317
58029W        W19395   0.839  16.316  11.543
58030W        W19396   8.299  32.911  11.577
58031W        W19397  19.214   3.846   0.805
58032W        W19398  30.444  13.281   3.352
58033W        W19399  34.863  15.724   3.666
58034W        W19400   7.738  41.865  11.606
58035W        W19401   9.857  18.595  12.937
58036W        W19402  17.197  22.635   1.715
58037W        W19403  40.037  30.648  11.916
58038W        W19404  18.146  14.815  14.929
58039W        W19405  44.951   2.318  12.538
58040W        W19406   2.286  30.511   2.874
58041W        W19407  40.354  13.159  14.424
58042W        W19408  32.905  21.737  12.956
58043W        W19409  35.521  41.408   0.374
58044W        W19410  18.576  21.620   2.416
58045W        W19411  34.010  17.802  10.438
58046W        W19412   3.357  27.462  10.984
58047W        W19413   7.908  33.405   0.776
58048W        W19414   4.714   3.823  14.415
58049W        W19415  40.994   6.214  13.425
58050W        W19416  15.788  15.165  10.588
58051W        W19417  10.783   1.254   0.416
58052W        W19418  27.606   8.867   2.662
58053W        W19419  12.210  44.424   0.780
58054W        W19420  30.451   8.354   4.167
58055W        W19421  39.444  28.943  14.385
58056W        W19422   4.865  35.891   3.327
58057W        W19423  10.306   7.276   0.964
58058W        W19424   8.833  17.085  10.619
58059W        W19425  17.664  25.685   2.672
58060W        W19426  25.004  18.764   0.440
58061W        W19427   7.874  11.648  12.077
58062W        W19428  31.489  25.021  14.845
58063W        W19429  22.224   7.734   2.386
58064W        W19430  34.611  28.525  11.428
58065W        W19431  26.627   0.854  13.409
58066W        W19432  32.914  34.395  13.874
58067W        W19433  13.794  27.525   3.657
58068W        W19434  12.718   3.317   1.313
58069W        W19435  35.505  23.063  12.088
58070W        W19436  42.463  29.970  14.858
58071W        W19437  12.206  33.405  14.464
58072W        W19438   2.959  17.092   5.254
58073W        W19439  16.167  10.857   1.892
58074W        W19440  13.331  24.042   3.295
58075W        W19441   1.817  10.155   1.284
58076W        W19442  44.809  14.801   1.210
58077W        W19443  10.314  12.140   4.126
58078W        W19444  31.593   7.184  12.077
58079W        W19445  31.435  42.444  13.922
58080W        W19446  17.718  42.882   5.306
58081W        W19447  35.588   1.801   2.378
58082W        W19448  22.557   5.239  12.441
58083W        W19449  38.910  22.013  14.427
58084W        W19450  34.120  16.728   1.242
58085W        W19451  29.543  15.297   0.310
58086W        W19452   0.798  16.754   1.748
58087W        W19453   6.719  11.274  14.858
58088W        W19454  38.466  18.216   1.368
58089W        W19455  15.312  18.078  13.850
58090W        W19456   7.677   7.177  14.488
58091W        W19457   1.290  14.214   1.817
58092W        W19458  37.009  44.914   3.165
58093W        W19459  42.421   3.906   0.293
58094W        W19460  27.557  28.483   1.735
58095W        W19461  16.149  44.961  10.504
58096W        W19462  14.314  34.089   2.691
58097W        W19463   0.846  36.559  11.501
58098W        W19464  23.189  30.593  11.910
58099W        W19465   0.262  30.140  11.078
58100W        W19466   6.690  32.135  12.871
58101W        W19467  12.132   3.918  13.852
58102W        W19468  31.451  19.254   5.126
58103W        W19469   9.773  10.757   4.614
58104W        W19470  12.192  39.533   4.142
58105W        W19471  32.122  36.532  14.493
58106W        W19472  31.053  23.190   3.766
58107W        W19473  20.610   6.337  11.422
58108W        W19474  31.441  27.628   4.315
58109W        W19475  37.362  25.129  11.452
58110W        W19476  24.481  19.722  14.765
58111W        W19477  42.921   5.868  14.962
58112W        W19478  20.621  42.875   1.445
58113W        W19479   5.729  42.960   2.853
58114W        W19480  21.077  36.082   4.129
58115W        W19481   7.876  12.279   4.137
58116W        W19482   9.763  33.443   1.904
58117W        W19483   2.851  42.349  12.968
58118W        W19484   2.819  41.886  11.393
58119W        W19485  20.553  29.649  12.532
58120W        W19486  11.153  42.366  13.514
58121W        W19487  22.642  31.646   0.919
58122W        W19488  31.046  34.083  10.957
58123W        W19489  31.118  35.516  11.980
58124W        W19490  35.555  39.919  14.987
58125W        W19491   6.191  18.780  12.076
58126W        W19492  41.358   5.410  11.600
58127W        W19493  32.897  19.126  12.892
58128W        W19494  32.103  17.155   1.280
58129W        W19495  21.057  31.509   0.823
58130W        W19496  28.548  38.958  12.893
58131W        W19497  17.682  37.972   3.779
58132W        W19498   9.168  33.955  11.408
58133W        W19499  15.714  39.933   0.396
58134W        W19500  26.083  44.300   4.708
58135W        W19501  35.092   6.186   3.340
58136W        W19502  43.965  40.884   3.216
58137W        W19503  20.709  22.552   0.278
58138W        W19504  15.256  27.061  10.529
58139W        W19505  39.393  33.899  14.510
58140W        W19506  16.155   4.705  11.946
58141W        W19507  44.365  26.017  12.413
58142W        W19508  31.080  32.507  14.360
58143W        W19509  33.521  21.757   2.890
58144W        W19510  16.613   3.812   0.323
58145W        W19511  19.682   9.763   3.680
58146W        W19512  21.523  24.548   0.242
58147W        W19513  23.557  24.605   1.739
58148W        W19514  42.324  23.657  12.026
58149W        W19515  20.098  31.094   2.758
58150W        W19516   6.365   9.169   1.271
58151W        W19517   4.370  20.727  13.517
58152W        W19518  29.032  38.521  10.977
58153W        W19519  15.124  20.268  10.487
58154W        W19520  36.048  33.429  12.907
58155W        W19521  18.051  27.547  14.484
58156W        W19522   2.420  43.988   0.346
58157W        W19523  14.622  11.356   2.193
58158W        W19524  13.822  30.987   2.771
58159W        W19525  23.716   0.461  12.992
58160W        W19526  23.006  31.483   3.681
58161W        W19527  41.485  10.671  14.500
58162W        W19528  21.059  10.740   2.891
58163W        W19529  12.743   9.168   4.135
58164W        W19530  24.166  42.874  13.056
58165W        W19531   7.813   5.865   4.333
58166W        W19532   5.379  12.243  11.004
58167W        W19533  27.010  17.277  13.349
58168W        W19534  10.213   9.872   3.321
58169W        W19535  27.171  29.606   5.570
58170W        W19536  38.338  29.130   3.147
58171W        W19537  12.622   5.740   2.323
58172W        W19538  36.926  34.374  14.771
58173W        W19539  29.614  15.194   1.323
58174W        W19540  30.568   7.871   0.411
58175W        W19541  27.560  40.050   3.238
58176W        W19542  38.962  32.961   5.094
58177W        W19543  30.444   8.752   0.297
58178W        W19544  16.309  26.545  14.887
58179W        W19545  34.502  31.493   0.745
58180W        W19546   0.428   3.820   0.366
58181W        W19547  12.276  14.107   5.157
58182W        W19548  11.664  20.637   1.737
58183W        W19549  27.464  44.789   3.230
58184W        W19550   3.888  15.308   2.869
58185W        W19551   9.677   9.247  12.548
58186W        W19552  19.061   3.736   1.829
58187W        W19553  10.251  24.988  10.611
58188W        W19554  25.530  10.291   4.781
58189W        W19555   4.348  35.916   1.286
58190W        W19556   5.428   4.252  13.374
58191W        W19557   8.261   3.890  14.015
58192W        W19558  10.737  25.710  14.829
58193W        W19559   1.779   2.934   4.159
58194W        W19560  18.740   4.934   4.821
58195W        W19561  22.735   8.356  10.601
58196W        W19562   1.286  36.018  13.860
58197W        W19563  18.548  27.527  12.069
58198W        W19564  29.152  28.556  14.377
58199W        W19565  30.591  19.041   4.317
58200W        W19566  44.857   0.972   1.888
58201W        W19567   5.423  33.597   1.735
58202W        W19568  27.063  36.063  12.375
58203W        W19569  33.425  40.499  13.332
58204W        W19570  33.606  16.784   0.369
58205W        W19571  44.295  12.238   4.752
58206W        W19572  44.784  26.690  11.472
58207W        W19573  31.952   9.385   2.861
58208W        W19574  40.303  43.425  12.988
58209W        W19575  28.972   6.902  13.887
58210W        W19576  19.710  18.704  12.484
58211W        W19577  29.668  35.457  12.867
58212W        W19578  14.626  30.655  13.510
58213W        W19579   7.345  35.868   3.341
58214W        W19580   4.873  44.011   2.725
58215W        W19581  41.352  40.302  14.014
58216W        W19582   3.262  29.954   0.423
58217W        W19583   6.783  40.858  12.044
58218W        W19584  22.625  42.303   4.221
58219W        W19585  41.903   0.458   0.809
58220W        W19586  39.355  42.975  13.491
58221W        W19587  33.945  22.232   9.541
58222W        W19588   3.258  28.641  13.539
58223W        W19589  25.707  11.862   2.395
58224W        W19590  36.445   0.774  11.393
58225W        W19591  22.532   2.244  14.294
58226W        W19592  33.626  17.658  10.439
58227W        W19593   2.226  29.992  14.424
58228W        W19594  34.996  21.057  13.928
58229W        W19595   2.423  40.975  10.522
58230W        W19596  22.650  42.446   1.449
58231W        W19597  30.023  33.589   1.848
58232W        W19598  19.685   9.734   0.757
58233W        W19599  12.177  42.014  10.939
58234W        W19600  33.038  25.166  12.979
58235W        W19601   5.888  41.943   4.260
58236W        W19602  36.515   5.799  10.953
58237W        W19603  42.007  21.752   2.668
58238W        W19604  27.614   7.682  11.946
58239W        W19605  43.903  38.001  13.063
58240W        W19606  35.101  22.633   0.447
58241W        W19607   2.264   1.867   1.711
58242W        W19608   3.873  27.111  14.370
58243W        W19609  30.983  32.570   4.792
58244W        W19610  15.675   8.254  14.302
58245W        W19611   4.703  33.623   4.319
58246W        W19612  25.686  39.533   0.443
58247W        W19613  16.235  13.233  10.982
58248W        W19614  15.711  29.984  14.794
58249W        W19615  42.874  16.318   0.903
58250W        W19616  23.080   9.287   2.204
58251W        W19617   9.807  40.932   3.300
58252W        W19618  17.063  24.108   4.603
58253W        W19619   3.809  36.956   1.822
58254W        W19620  20.647  44.849   3.680
58255W        W19621   0.781  34.054  12.093
58256W        W19622  20.634  35.363   3.238
58257W        W19623   3.243  30.923   1.305
58258W        W19624  33.481  43.387  10.588
58259W        W19625   5.196  41.031  13.529
58260W        W19626  34.475  20.188  13.981
58261W        W19627  16.790   2.938  12.484
58262W        W19628  16.777  26.665  11.013
58263W        W19629  10.674  27.083  14.812
58264W        W19630  37.471  25.079  14.880
58265W        W19631  37.554  27.648   2.326
58266W        W19632  41.935  28.061   0.855
58267W        W19633  11.850   5.738  12.096
58268W        W19634  31.971  23.144   2.344
58269W        W19635   3.382   3.255   2.312
58270W        W19636  17.210  36.407  13.950
58271W        W19637  19.566  27.578  12.444
58272W        W19638   2.334   3.814  11.600
58273W        W19639  38.858   0.913  14.286
58274W        W19640  10.731   3.363  12.520
58275W        W19641  15.302  27.686  13.834
58276W        W19642  25.593  41.853  10.529
58277W        W19643  39.039   1.798   1.781
58278W        W19644   2.291  44.296   2.210
58279W        W19645   0.361  26.100  11.102
58280W        W19646  44.409  39.030  14.812
58281W        W19647  10.791  20.713   0.948
58282W        W19648  18.059  16.724  12.942
58283W        W19649  43.461   2.750  11.457
58284W        W19650  37.956  14.612   1.266
58285W        W19651  33.485  25.606  14.326
58286W        W19652  44.355  18.269   4.265
58287W        W19653  11.786  32.632   4.119
58288W        W19654  36.505   1.397   2.887
58289W        W19655   5.898  36.868  11.426
58290W        W19656   4.943  11.238   3.154
58291W        W19657  37.403  39.517  12.861
58292W        W19658   4.718  18.776  14.459
58293W        W19659  22.562  41.946   0.391
58294W        W19660  18.595  15.301  14.871
58295W        W19661  24.649  15.763  14.974
58296W        W19662  14.788  27.628   4.141
58297W        W19663   2.410  16.123  14.780
58298W        W19664   1.414   6.243  14.920
58299W        W19665  25.173  22.678   1.933
58300W        W19666  38.072   2.258  10.955
58301W        W19667   3.263  17.779  11.974
58302W        W19668  39.324  20.610   3.680
58303W        W19669   9.281  31.482  13.450
58304W        W19670   9.742   5.236  11.498
58305W        W19671  36.036   8.715  13.547
58306W        W19672  14.773  36.048   3.216
58307W        W19673   8.788   9.341   0.252
58308W        W19674   6.732  10.774  12.871
58309W        W19675  42.810   2.316   1.769
58310W        W19676  39.363  30.437   2.317
58311W        W19677   1.889  36.558   3.303
58312W        W19678   4.908  34.915  13.965
58313W        W19679  11.201  38.896  11.920
58314W        W19680   9.178  14.639   0.746
58315W        W19681  38.051   8.798   2.231
58316W        W19682  38.019   6.248  13.826
58317W        W19683  29.165   2.776   2.294
58318W        W19684  36.024  27.659  14.932
58319W        W19685  27.658  12.342  11.611
58320W        W19686  23.575   8.209   4.185
58321W        W19687  30.482   0.492   3.285
58322W        W19688  14.648  12.754   3.283
58323W        W19689  18.214  26.522  14.484
58324W        W19690  30.469  12.256  14.838
58325W        W19691  40.027  16.631   4.341
58326W        W19692  33.387  43.953  12.540
58327W        W19693   9.280  30.526  14.360
58328W        W19694  12.126  28.669  11.044
58329W        W19695  41.967  26.089  11.462
58330W        W19696  40.882  10.712   3.353
58331W        W19697  22.047  40.009   3.256
58332W        W19698  25.625  20.561   1.769
58333W        W19699  35.988  11.736  10.617
58334W        W19700   5.833  22.088  14.284
58335W        W19701  41.850  11.862  12.084
58336W        W19702  27.944  44.918  14.395
58337W        W19703  15.178  27.129  11.920
58338W        W19704  22.145  42.311  10.445
58339W        W19705  38.424  16.799   1.352
58340W        W19706  32.053   1.325   3.221
58341W        W19707  14.174  26.459   2.857
58342W        W19708   3.291  17.235  11.077
58343W        W19709  20.079   8.666   0.757
58344W        W19710  32.086  21.250  12.027
58345W        W19711  39.494   4.935  12.047
58346W        W19712  35.992  36.369   3.178
58347W        W19713  21.673  27.598  10.924
58348W        W19714  11.755  33.883   1.261
58349W        W19715   4.763  20.578  14.771
58350W        W19716  17.242  26.468  11.043
58351W        W19717  25.014  28.069  14.276
58352W        W19718  29.451  10.865   2.179
58353W        W19719  37.986  43.391  11.985
58354W        W19720  29.991  44.345  10.936
58355W        W19721   0.361  28.992  13.855
58356W        W19722  31.093  18.607   5.669
58357W        W19723  22.633  10.742   2.866
58358W        W19724  43.782  38.425   2.808
58359W        W19725   9.869   0.362  13.862
58360W        W19726  32.547  32.141  14.289
58361W        W19727   1.312  20.566   3.863
58362W        W19728  28.536  30.042   2.717
58363W        W19729  28.156  33.113  13.046
58364W        W19730  38.436  17.071  10.530
58365W        W19731  13.313  13.291  11.883
58366W        W19732   1.292  38.950   9.953
58367W        W19733   7.802  38.571  12.096
58368W        W19734  33.403  15.122   4.167
58369W        W19735   5.932  31.405   4.823
58370W        W19736  14.101  18.184   0.955
58371W        W19737  27.613  39.814   4.260
58372W        W19738   1.450   7.739   4.326
58373W        W19739   8.832  31.454  10.959
58374W        W19740  12.804   7.769  13.463
58375W        W19741  20.246  40.344   4.762
58376W        W19742   5.765  16.756   3.307
58377W        W19743   6.320  36.843   0.268
58378W        W19744  41.955  43.353  11.127
58379W        W19745  32.022  16.258  14.820
58380W        W19746   7.300  32.076  13.851
58381W        W19747  17.582  12.844   3.792
58382W        W19748   0.353  27.457   3.225
58383W        W19749   0.940  16.649   3.770
58384W        W19750  12.222  28.128  11.378
58385W        W19751  39.531  17.173   0.433
58386W        W19752  36.351  44.263   0.465
58387W        W19753  42.453   8.159  10.509
58388W        W19754  28.591  42.912   1.764
58389W        W19755  37.927  11.134   2.681
58390W        W19756  44.769  29.566   4.618
58391W        W19757   3.261  39.910   0.941
58392W        W19758   0.939  18.725  12.431
58393W        W19759  35.913   0.826  10.469
58394W        W19760  25.704  18.635  11.539
58395W        W19761   7.292  39.851   0.385
58396W        W19762  11.177  33.411   9.941
58397W        W19763  41.379  13.328   0.757
58398W        W19764  15.742  28.603  12.366
58399W        W19765  10.872  34.525   3.362
58400W        W19766   3.254  14.593  12.051
58401W        W19767  40.816  10.232   3.725
58402W        W19768  22.645   0.475  11.551
58403W        W19769  21.713  16.264  13.512
58404W        W19770  18.149  39.811  14.291
58405W        W19771   5.367  30.156   2.671
58406W        W19772  15.179  20.041  14.502
58407W        W19773  38.362   8.220   1.450
58408W        W19774  20.109  31.063   4.127
58409W        W19775  21.626  23.649   3.217
58410W        W19776  24.624  30.556   2.332
58411W        W19777  25.097  11.286  13.908
58412W        W19778   0.411  30.032   1.214
58413W        W19779  22.207  27.490   1.315
58414W        W19780  34.596   9.347  13.511
58415W        W19781  15.162   3.843   4.614
58416W        W19782  27.592  38.963  12.577
58417W        W19783   0.277  23.028  12.081
58418W        W19784  30.474  21.690   1.717
58419W        W19785  19.269  16.124  13.812
58420W        W19786   8.297   1.401  14.347
58421W        W19787  27.558  42.904  10.963
58422W        W19788  18.748  31.906   3.232
58423W        W19789   5.314  39.536  13.969
58424W        W19790   6.341  26.498  13.890
58425W        W19791  35.530  35.905  14.362
58426W        W19792  16.699  31.506   2.369
58427W        W19793  11.800   0.858   3.177
58428W        W19794  35.422  17.135  12.422
58429W        W19795  43.289  39.542   1.322
58430W        W19796   8.857   3.770   1.867
58431W        W19797   6.875  17.244   4.803
58432W        W19798  35.973  11.151  14.021
58433W        W19799  28.558  37.035   3.636
58434W        W19800  27.673   7.195   3.725
58435W        W19801   1.795   1.310   2.874
58436W        W19802  34.529   4.326   0.871
58437W        W19803  17.220  24.701   2.416
58438W        W19804   1.312  14.700  14.341
58439W        W19805  25.993  28.124  11.897
58440W        W19806  14.286   7.197   1.918
58441W        W19807   8.876  37.859  11.867
58442W        W19808   3.286  23.627   0.774
58443W        W19809   1.796  37.447  14.418
58444W        W19810  11.139  39.341  11.969
58445W        W19811  42.416  26.516   2.833
58446W        W19812  42.363  15.655  11.059
58447W        W19813  27.623   2.799   4.134
58448W        W19814   6.765  15.699  13.973
58449W        W19815  19.200  24.605   4.651
58450W        W19816  22.706  42.340   4.779
58451W        W19817  37.560  37.499   3.738
58452W        W19818  28.583  43.947   1.769
58453W        W19819   4.790  43.357  11.381
58454W        W19820   3.835  14.105  13.419
58455W        W19821  31.013  34.423   4.293
58456W        W19822  33.994   2.364  14.353
58457W        W19823  18.195  20.049   2.323
58458W        W19824  33.511   7.200  14.475
58459W        W19825  30.941  26.010   4.600
58460W        W19826  42.326  33.968  11.897
58461W        W19827   2.436  20.705   2.779
58462W        W19828   0.940  35.553  10.638
58463W        W19829  14.172   6.733  11.554
58464W        W19830  30.961  24.039  11.129
58465W        W19831   6.362   0.455   2.720
58466W        W19832  38.347  41.890   0.464
58467W        W19833  44.439  28.568  11.451
58468W        W19834  11.262  36.843  13.404
58469W        W19835  23.046  43.297   3.707
58470W        W19836   3.400  32.940  14.884
58471W        W19837  23.672  25.065  14.283
58472W        W19838  28.075   3.782   4.826
58473W        W19839  37.463  38.425   4.788
58474W        W19840  31.945   1.827  14.783
58475W        W19841   9.673   6.409  13.852
58476W        W19842   8.196  35.477  12.942
58477W        W19843  21.695  33.890   4.201
58478W        W19844  10.313  36.468   2.293
58479W        W19845   4.699  19.743  11.446
58480W        W19846   6.911  13.139   2.743
58481W        W19847  37.911  43.005  13.919
58482W        W19848  11.678  30.563  12.485
58483W        W19849  11.645  44.913   1.316
58484W        W19850   0.447  40.427   0.837
58485W        W19851   1.355  29.580   2.240
58486W        W19852   1.323  21.062   0.917
58487W        W19853  25.601  31.448   4.609
58488W        W19854  29.667   7.754   3.715
58489W        W19855  29.952  13.114   3.288
58490W        W19856  35.494  32.101  11.099
58491W        W19857   8.176   3.453  11.984
58492W        W19858  26.456  38.447  14.793
58493W        W19859  25.519  32.438   4.742
58494W        W19860   4.436  33.529  12.493
58495W        W19861  37.554   9.361   4.821
58496W        W19862  38.999  18.602   9.980
58497W        W19863  25.136  35.885  13.973
58498W        W19864  32.622  31.131   4.747
58499W        W19865  17.160  20.718  13.342
58500W        W19866  16.710  35.109   0.872
58501W        W19867   6.863  25.472   2.663
58502W        W19868  32.108   4.826  13.495
58503W        W19869  35.361  14.725   4.294
58504W        W19870  28.442  32.469  11.103
58505W        W19871  30.443   7.813  12.542
58506W        W19872  30.074   0.969  11.519
58507W        W19873  13.744  30.586   4.281
58508W        W19874   9.837  19.256   1.765
58509W        W19875  44.985  21.727   2.235
58510W        W19876  37.434  36.849   1.703
58511W        W19877  16.678  28.628   1.407
58512W        W19878  35.103  26.594   2.277
58513W        W19879  15.725  36.468   3.380
58514W        W19880  14.132  22.156  11.935
58515W        W19881  27.058  16.646   2.745
58516W        W19882   7.824  37.375  13.341
58517W        W19883  34.457  37.925   2.795
58518W        W19884  38.976   0.917   0.423
58519W        W19885  43.411  27.577  14.783
58520W        W19886  14.111  21.264  14.423
58521W        W19887  15.774  34.488  12.892
58522W        W19888   7.328  34.016  11.944
58523W        W19889  35.373   9.292  12.043
58524W        W19890  35.029  36.377   2.251
58525W        W19891  18.559  30.645   1.902
58526W        W19892   9.328  15.281  14.424
58527W        W19893  12.318  27.650  12.403
58528W        W19894  39.910  42.289  12.986
58529W        W19895  19.591  14.322   3.193
58530W        W19896  11.708   5.216   4.334
58531W        W19897  29.933  35.564  12.421
58532W        W19898  34.990   9.341  10.520
58533W        W19899   1.453   6.360  10.621
58534W        W19900  24.723   6.914  11.056
58535W        W19901  18.612  37.542   9.981
58536W        W19902  11.717   3.265  11.433
58537W        W19903  28.561  24.553  14.953
58538W        W19904  40.503  19.183  13.539
58539W        W19905   1.269   4.751  13.307
58540W        W19906  31.457   7.729   2.859
58541W        W19907   9.706   0.396  10.630
58542W        W19908   5.227  10.199  10.965
58543W        W19909  11.675  26.168  14.376
58544W        W19910  13.763   6.861   4.771
58545W        W19911  36.970  34.096  14.980
58546W        W19912  38.957  36.988   2.811
58547W        W19913  21.210  38.562   1.424
58548W        W19914  29.134  31.006  13.327
58549W        W19915   4.337   9.301  10.945
58550W        W19916   4.763  13.335  10.460
58551W        W19917  43.866  18.093  14.868
58552W        W19918  18.601  14.605  11.103
58553W        W19919  11.830  36.094   1.371
58554W        W19920  19.659  39.847  12.095
58555W        W19921  33.385  30.084  13.941
58556W        W19922  26.982   0.786  12.979
58557W        W19923  24.026   8.401  12.091
58558W        W19924   6.721   9.344  12.375
58559W        W19925   2.386  40.984  12.875
58560W        W19926  37.007   7.680  12.375
58561W        W19927  11.362   5.198   2.724
58562W        W19928  22.006  41.919   1.293
58563W        W19929  35.554  42.817   1.784
58564W        W19930  41.816  19.629  14.290
58565W        W19931  21.191   9.715  13.390
58566W        W19932  41.023   7.199   4.811
58567W        W19933  15.198  13.680   3.815
58568W        W19934  37.015   6.316   2.416
58569W        W19935  28.949  43.814   4.137
58570W        W19936  12.630  40.910   4.294
58571W        W19937   2.914  18.603  11.927
58572W        W19938   9.672  24.690  13.984
58573W        W19939  16.593   0.355  14.480
58574W        W19940  22.521   5.324  12.884
58575W        W19941  12.270   8.827   4.778
58576W        W19942  33.408  29.947   0.741
58577W        W19943  39.324  21.663   3.630
58578W        W19944  10.336  36.521   0.327
58579W        W19945  27.602  20.199  10.515
58580W        W19946  19.286  11.176   0.346
58581W        W19947  11.715  19.718  14.763
58582W        W19948  20.151  41.837   3.788
58583W        W19949   6.362  15.131   3.676
58584W        W19950   5.344  36.020  12.034
58585W        W19951  24.603  39.432   4.172
58586W        W19952  28.945  35.592  13.331
58587W        W19953  23.190  28.597  12.426
58588W        W19954  26.499  20.096   1.747
58589W        W19955  43.765   2.274   2.188
58590W        W19956  11.372  30.620   2.666
58591W        W19957  36.566   5.800  10.476
58592W        W19958   7.870   7.903  10.975
58593W        W19959  40.456   8.232   1.435
58594W        W19960  40.858   9.322   3.261
58595W        W19961   1.768  32.479  12.339
58596W        W19962  15.219  13.250  12.344
58597W        W19963  36.938  30.522   4.278
58598W        W19964  39.036  42.947   4.768
58599W        W19965  30.539  24.001   3.172
58600W        W19966  12.754  39.926   1.751
58601W        W19967  27.587  38.466  14.480
58602W        W19968  42.956   0.386  11.601
58603W        W19969  27.961  19.639  11.486
58604W        W19970   7.867  15.280   0.265
58605W        W19971  24.705  34.940   4.803
58606W        W19972   8.268  12.267  12.928
58607W        W19973   0.937  30.543  14.913
58608W        W19974  26.537  22.210   5.185
58609W        W19975   8.214  42.343  12.396
58610W        W19976  24.158  24.510  13.456
58611W        W19977  16.636  41.963  14.809
58612W        W19978   6.238  10.311  12.860
58613W        W19979  15.185  13.161   1.860
58614W        W19980   5.399  38.063   1.284
58615W        W19981  25.665  36.864  11.899
58616W        W19982  27.506  30.998  12.012
58617W        W19983  34.118   0.870  14.475
58618W        W19984  28.942  40.402  13.033
58619W        W19985   2.833  31.543   2.392
58620W        W19986  21.578  34.509  14.790
58621W        W19987  27.541  34.526   2.298
58622W        W19988  18.700  25.971   4.826
58623W        W19989   8.324   2.903   0.453
58624W        W19990  13.264   2.759  13.485
58625W        W19991  42.310  26.956  10.604
58626W        W19992  43.336  28.017   0.277
58627W        W19993  18.594  23.540  12.579
58628W        W19994  18.050   9.345  12.830
58629W        W19995  10.378  29.945  13.476
58630W        W19996  24.640  19.579  13.349
58631W        W19997  38.827  33.918   1.860
58632W        W19998  17.772  32.609   2.735
58633W        W19999   7.771   8.655   5.210
58634W        W20000  21.710   1.934   1.263
58635W        W20001  25.556  36.055  12.539
58636W        W20002  28.513  32.965  13.858
58637W        W20003  21.076  42.465   0.257
58638W        W20004  42.350  34.598  13.806
58639W        W20005  15.656  29.519   3.362
58640W        W20006  18.106  40.819   1.921
58641W        W20007  27.129  33.010   2.665
58642W        W20008  12.130  15.646   2.777
58643W        W20009  44.980  23.583   3.372
58644W        W20010  15.100   8.250   1.800
58645W        W20011  37.065  31.974  10.915
58646W        W20012  15.682  36.558  13.880
58647W        W20013  22.065  25.134  13.440
58648W        W20014  15.093  25.084   3.239
58649W        W20015  13.233   1.895   3.820
58650W        W20016  40.321  19.246   3.275
58651W        W20017  41.488  31.091   3.305
58652W        W20018  13.752  37.991  14.907
58653W        W20019  42.355   5.919   4.246
58654W        W20020  22.636  14.297   4.645
58655W        W20021   7.791  32.631  12.844
58656W        W20022  10.721  40.517  12.012
58657W        W20023  17.695  21.679   1.743
58658W        W20024  34.098  12.341  13.356
58659W        W20025  31.616  35.450  11.937
58660W        W20026  35.418  37.830   3.680
58661W        W20027  37.041  27.601   3.834
58662W        W20028  25.668   4.775   3.274
58663W        W20029  20.726  19.147  13.875
58664W        W20030  28.622  41.488   4.132
58665W        W20031  41.937  11.372   4.340
58666W        W20032  12.257  43.019  11.861
58667W        W20033  17.078  37.569  14.408
58668W        W20034   7.310  33.925  10.574
58669W        W20035  29.537  11.733  12.550
58670W        W20036  36.972  37.446  14.868
58671W        W20037  43.369  22.694  13.504
58672W        W20038   2.298  43.827  14.800
58673W        W20039  26.182  38.058  14.477
58674W        W20040  20.656  21.243   2.893
58675W        W20041  42.825   8.179  13.971
58676W        W20042  29.153  39.371   3.305
58677W        W20043   1.342   7.818   3.702
58678W        W20044  41.866  24.527  14.891
58679W        W20045  10.658  29.005   4.246
58680W        W20046  24.570   3.814   2.245
58681W        W20047  19.657  28.473  14.954
58682W        W20048  24.981  30.996   1.796
58683W        W20049   4.418  15.165   4.173
58684W        W20050  14.804  39.062  14.351
58685W        W20051   9.747  14.688   0.334
58686W        W20052  18.220  11.241   0.297
58687W        W20053   2.424  33.126   1.875
58688W        W20054   5.263  28.102  10.914
58689W        W20055  23.552  22.182   4.719
58690W        W20056   7.683   2.256   2.332
58691W        W20057  14.270  30.006  12.481
58692W        W20058   3.882  16.273  12.457
58693W        W20059  10.735   1.404  14.897
58694W        W20060  12.745   3.310  13.853
58695W        W20061   2.828   1.795   4.658
58696W        W20062  27.159  39.009   3.723
58697W        W20063  41.872  38.838  10.056
58698W        W20064  29.628  19.087  11.513
58699W        W20065  28.488   9.222  12.094
58700W        W20066   8.799   8.852   2.238
58701W        W20067  10.684  12.138  11.570
58702W        W20068  16.237  42.421  12.375
58703W        W20069  30.961  18.604  11.421
58704W        W20070   3.434  42.417   2.815
58705W        W20071  43.396  39.884  12.480
58706W        W20072  13.269   9.227   4.773
58707W        W20073  44.773   1.283   2.728
58708W        W20074   7.338   4.255  13.912
58709W        W20075  12.245   5.276  10.513
58710W        W20076   6.889  22.226   2.794
58711W        W20077   6.421   4.702  13.928
58712W        W20078   3.455  13.145   2.232
58713W        W20079  19.712  18.687   5.302
58714W        W20080   7.813   3.239   2.316
58715W        W20081  35.049  17.289   4.189
58716W        W20082  16.651  38.870   0.436
58717W        W20083  28.144  17.574   4.316
58718W        W20084  14.327  22.066   0.415
58719W        W20085  43.513  14.156   2.297
58720W        W20086   9.244  14.754  10.437
58721W        W20087  26.162  42.428   1.876
58722W        W20088  33.501  41.332   0.735
58723W        W20089   2.440  37.483   0.391
58724W        W20090   1.807  36.970  14.310
58725W        W20091  34.120   9.835   4.353
58726W        W20092   8.247  34.538  12.837
58727W        W20093  10.342  41.874   2.384
58728W        W20094   0.352   4.917   3.653
58729W        W20095  36.951   8.677  11.469
58730W        W20096  44.995  14.177  10.897
58731W        W20097  10.854  22.011   0.738
58732W        W20098  26.187  32.892   1.220
58733W        W20099  13.330  41.319   3.696
58734W        W20100  41.860   0.970  13.944
58735W        W20101  25.129  33.505   3.796
58736W        W20102   9.298  19.164  13.527
58737W        W20103  33.443  36.008   4.739
58738W        W20104   5.295  33.975  13.455
58739W        W20105  43.349  44.405   4.336
58740W        W20106  37.564  35.521   0.777
58741W        W20107  18.127  35.396  14.386
58742W        W20108  37.535  26.115   3.258
58743W        W20109  41.920   4.825  13.912
58744W        W20110   0.816   7.373  14.825
58745W        W20111  21.194   5.778  13.887
58746W        W20112   8.838   0.907   5.096
58747W        W20113  38.516   1.957   1.309
58748W        W20114   3.365  21.227   0.850
58749W        W20115  13.792  36.868  13.354
58750W        W20116  21.737  42.002  11.069
58751W        W20117  43.317   3.367  11.019
58752W        W20118  42.322  19.619   1.849
58753W        W20119  37.508  41.005  12.505
58754W        W20120  33.580  16.083  12.844
58755W        W20121  22.747  31.402   5.146
58756W        W20122  27.625  23.693   4.196
58757W        W20123  19.606  12.276   3.372
58758W        W20124  14.805  22.600  13.054
58759W        W20125   9.693  11.215  10.532
58760W        W20126  37.357   9.854   4.270
58761W        W20127  29.545   8.868   5.277
58762W        W20128  32.969   9.332   2.416
58763W        W20129  14.697   3.273   3.713
58764W        W20130   5.208  13.160   4.340
58765W        W20131   2.884  44.445  11.984
58766W        W20132  29.136  32.456   1.711
58767W        W20133  15.691  42.321  11.966
58768W        W20134   2.868  40.934   0.899
58769W        W20135   2.404  41.940   0.918
58770W        W20136  43.450  42.005  11.017
58771W        W20137  36.451  17.260  12.836
58772W        W20138  21.691  35.060  12.085
58773W        W20139   1.347  15.227  12.053
58774W        W20140  24.639  28.995  14.847
58775W        W20141  44.505  37.973   3.700
58776W        W20142  29.490  24.985  14.326
58777W        W20143  19.260  44.006   1.928
58778W        W20144  14.298  29.616   4.145
58779W        W20145  31.545   6.322  13.869
58780W        W20146  43.324  27.626  13.345
58781W        W20147  36.093   1.256  11.959
58782W        W20148  34.602  38.892   1.313
58783W        W20149  40.501  36.937   0.362
58784W        W20150  11.657   2.442   0.386
58785W        W20151  26.493   4.840   3.763
58786W        W20152  35.595  10.729   0.434
58787W        W20153   7.782  18.579   2.357
58788W        W20154  38.976  38.555   1.705
58789W        W20155  33.593  34.054  11.510
58790W        W20156  30.486  17.787   0.292
58791W        W20157  16.570   1.844   0.300
58792W        W20158  43.884   3.758  10.562
58793W        W20159  22.681  34.910   1.923
58794W        W20160  34.929  23.574   3.854
58795W        W20161  21.102   8.287   1.711
58796W        W20162  43.507  29.078   0.762
58797W        W20163  22.668   8.352  11.924
58798W        W20164   9.772   5.397  13.802
58799W        W20165  35.575  24.625  14.357
58800W        W20166  28.159  40.868  13.994
58801W        W20167  18.193  35.558  11.507
58802W        W20168  20.763   2.369  11.602
58803W        W20169  29.557  32.896   1.264
58804W        W20170  38.958   7.860  14.388
58805W        W20171  32.632   5.765   3.651
58806W        W20172   0.936  17.189   0.832
58807W        W20173   2.932  42.820  14.485
58808W        W20174  22.051  33.457   0.912
58809W        W20175   6.191  26.514  11.492
58810W        W20176  33.058   4.787  14.340
58811W        W20177  35.448  11.305   2.840
58812W        W20178   0.857  29.036   0.745
58813W        W20179  25.032   7.412  11.437
58814W        W20180  22.040  27.023   2.884
58815W        W20181  31.052  19.137   1.929
58816W        W20182  38.340  23.635   4.676
58817W        W20183   7.789   8.785   4.200
58818W        W20184   9.855  40.342  12.043
58819W        W20185  39.315  24.115   1.323
58820W        W20186  37.837  10.324  12.975
58821W        W20187  27.638   4.207   1.883
58822W        W20188  31.938  15.153   2.232
58823W        W20189  27.107  35.895   2.374
58824W        W20190  23.995  23.510  14.366
58825W        W20191   4.879  41.370  10.962
58826W        W20192  24.016  37.386  10.616
58827W        W20193  19.629  32.043   1.450
58828W        W20194  11.848  22.510  12.516
58829W        W20195   1.374  16.625  11.386
58830W        W20196  43.976  36.941   1.754
58831W        W20197  34.582  29.127   1.892
58832W        W20198  43.386  14.786   4.725
58833W        W20199  20.222  15.634  12.836
58834W        W20200  26.052  11.234  13.831
58835W        W20201  32.580  22.030  13.342
58836W        W20202  40.450   7.296   1.397
58837W        W20203   3.323  10.827  11.378
58838W        W20204  10.262   3.896   0.827
58839W        W20205   6.389  37.991  11.018
58840W        W20206   5.864   5.877  13.012
58841W        W20207   5.740   1.313  10.532
58842W        W20208  26.166  31.911   4.710
58843W        W20209  24.638  10.194  12.978
58844W        W20210  29.598  24.162   3.852
58845W        W20211  42.854  10.682   3.853
58846W        W20212  25.001   5.358   3.150
58847W        W20213  21.105  10.281  11.377
58848W        W20214  27.501  38.534   2.807
58849W        W20215  23.549  42.891   0.441
58850W        W20216  20.267   9.841   3.235
58851W        W20217  16.705  16.709  14.384
58852W        W20218  28.996   7.795  14.015
58853W        W20219  28.507   9.260  11.574
58854W        W20220  18.232   4.449  13.008
58855W        W20221   8.775  27.473   4.114
58856W        W20222  33.968  43.396   3.799
58857W        W20223  36.074  19.761   1.885
58858W        W20224  27.480  31.486  10.921
58859W        W20225  35.537  37.427   4.131
58860W        W20226  27.487  15.728  14.492
58861W        W20227  27.570  25.117   1.913
58862W        W20228  22.080   9.174   1.730
58863W        W20229  18.715   3.342   4.203
58864W        W20230  16.788  34.080  10.404
58865W        W20231  44.354  12.696   0.749
58866W        W20232   5.237  44.912  12.012
58867W        W20233  30.945  36.528   2.789
58868W        W20234  15.313  26.088   3.638
58869W        W20235   3.436  11.709  13.036
58870W        W20236   3.402   1.798  10.425
58871W        W20237  18.226  32.008   1.419
58872W        W20238  17.281  32.898  11.861
58873W        W20239  34.053  23.674  14.763
58874W        W20240  26.161   2.249  12.090
58875W        W20241  37.382  25.588   4.748
58876W        W20242   6.342  29.446   0.421
58877W        W20243  30.490  14.649   1.878
58878W        W20244  39.920  12.675   1.375
58879W        W20245  29.626  29.607   2.786
58880W        W20246  14.763  29.010  14.810
58881W        W20247  34.553  16.077  10.974
58882W        W20248  16.771  35.871   4.820
58883W        W20249  30.434   6.366   4.244
58884W        W20250  28.516   3.808   0.788
58885W        W20251   0.296   6.725   0.294
58886W        W20252  29.942  41.500  13.473
58887W        W20253   5.329  15.604   2.279
58888W        W20254  42.860  22.696  13.329
58889W        W20255  36.971  13.325   0.321
58890W        W20256  18.102  15.639  11.002
58891W        W20257  20.135   1.425  11.538
58892W        W20258  15.109   5.931   2.403
58893W        W20259  44.897   0.293  14.302
58894W        W20260  30.466  39.337  12.884
58895W        W20261  44.999  24.043  14.309
58896W        W20262  30.152  42.360   1.367
58897W        W20263   5.850  39.421  14.441
58898W        W20264   8.167  16.649   5.174
58899W        W20265  37.080  26.187  10.949
58900W        W20266  31.514   5.195  14.326
58901W        W20267  11.741  26.183   4.638
58902W        W20268  15.674   2.304  11.588
58903W        W20269  14.701  37.396  12.002
58904W        W20270  18.604  39.947  10.964
58905W        W20271  44.371   2.939  13.946
58906W        W20272   4.301  23.221   4.643
58907W        W20273  20.175  26.521  12.522
58908W        W20274   6.255  39.869   2.696
58909W        W20275  36.542   7.223  11.495
58910W        W20276  29.157   7.408   3.772
58911W        W20277  14.766   6.711   3.351
58912W        W20278  26.477  38.925   0.894
58913W        W20279  41.823  43.419   2.828
58914W        W20280  28.980  32.069  10.519
58915W        W20281  16.135  41.906  14.793
58916W        W20282  13.602   3.871   2.194
58917W        W20283  32.090  39.867   1.778
58918W        W20284  26.143  18.196  12.339
58919W        W20285  35.923  20.159   1.416
58920W        W20286  11.825  10.173  12.957
58921W        W20287   2.912  17.570  14.282
58922W        W20288   4.382  42.512  10.907
58923W        W20289  29.662  28.446  10.975
58924W        W20290   9.742  39.353   2.685
58925W        W20291  36.083  25.666   2.894
58926W        W20292   5.742  13.715   4.289
58927W        W20293   8.210  40.876  13.547
58928W        W20294   2.452  16.186   0.933
58929W        W20295  31.545  28.039  13.003
58930W        W20296   6.398   1.419  13.972
58931W        W20297   4.277   4.403  13.420
58932W        W20298  33.385   1.376   4.227
58933W        W20299   2.355  39.513   3.353
58934W        W20300  20.118  33.555   4.804
58935W        W20301  13.725  19.094  13.415
58936W        W20302  43.983  17.607   3.816
58937W        W20303  44.918   1.859  10.545
58938W        W20304  44.753  28.655  13.458
58939W        W20305  34.406  44.966   3.701
58940W        W20306   2.792  14.774  13.439
58941W        W20307  20.071  10.687   2.372
58942W        W20308  21.232  38.028  12.004
58943W        W20309  31.504  26.477  14.307
58944W        W20310   2.956  22.627   3.149
58945W        W20311  32.106  15.209  12.869
58946W        W20312  27.573  31.484  10.091
58947W        W20313   2.279  26.080  13.951
58948W        W20314  11.322  36.477   3.318
58949W        W20315   2.469  15.773  14.802
58950W        W20316  15.745  29.510   0.906
58951W        W20317  21.654  21.225  12.956
58952W        W20318  37.063  35.510   3.159
58953W        W20319   7.893  17.581  14.938
58954W        W20320  24.685   7.358   0.355
58955W        W20321  31.646   2.917  14.442
58956W        W20322  26.621  23.735   4.785
58957W        W20323  35.443  43.859   3.284
58958W        W20324  22.178  33.576  12.942
58959W        W20325   3.269  41.031  13.968
58960W        W20326  43.332  14.213   1.800
58961W        W20327   5.762  40.529  14.304
58962W        W20328  22.594  23.588  12.491
58963W        W20329  14.678  41.522   4.793
58964W        W20330  43.941  18.733  10.961
58965W        W20331   9.174  32.104  10.427
58966W        W20332  17.557   3.235   2.705
58967W        W20333  29.552   3.242   4.189
58968W        W20334  41.004  39.421  12.903
58969W        W20335  29.985  27.993  10.991
58970W        W20336  37.862  22.580   4.766
58971W        W20337  32.502   1.907   0.845
58972W        W20338   8.812   7.777  14.387
58973W        W20339  23.152   5.810   1.422
58974W        W20340  21.018  21.751  14.819
58975W        W20341  28.530  29.432  13.332
58976W        W20342  35.927  29.579  12.857
58977W        W20343  33.414   8.770   5.161
58978W        W20344  20.160   0.744   0.868
58979W        W20345  38.963   4.219  14.437
58980W        W20346   9.269  32.417  10.483
58981W        W20347  14.731   3.271  11.986
58982W        W20348  41.993  11.849   4.233
58983W        W20349  39.898  28.625   4.746
58984W        W20350  20.153  33.063   1.889
58985W        W20351  30.599  19.280   9.443
58986W        W20352  33.021  42.291   2.292
58987W        W20353  14.697   6.695   1.343
58988W        W20354  33.117   3.236  14.337
58989W        W20355  13.341  26.117  11.522
58990W        W20356   3.812  15.095   3.693
58991W        W20357  40.808  10.835  11.105
58992W        W20358  12.712  26.678   0.343
58993W        W20359  26.615   7.333   3.696
58994W        W20360  39.382  15.186   2.413
58995W        W20361  33.573   6.868  11.611
58996W        W20362  37.420   3.802   3.226
58997W        W20363  30.998  15.584   5.096
58998W        W20364   2.916  14.209  11.061
58999W        W20365  30.165  25.652  13.044
59000W        W20366  39.833  28.094   4.778
59001W        W20367  20.632  10.858  12.493
59002W        W20368  30.005  17.566   2.187
59003W        W20369  31.633  43.018   4.117
59004W        W20370  34.063  40.322   0.449
59005W        W20371  43.344   7.339   0.386
59006W        W20372  18.783  33.515  10.536
59007W        W20373  16.154  36.912  11.000
59008W        W20374  38.513  31.148  10.486
59009W        W20375  41.901  10.780  10.918
59010W        W20376  29.151  44.442   0.831
59011W        W20377  29.616  18.716  12.440
59012W        W20378  43.905  41.963   3.334
59013W        W20379  40.972   8.261  11.436
59014W        W20380   8.805  43.797   0.347
59015W        W20381  30.632  40.835  12.969
59016W        W20382  19.567  13.311   3.266
59017W        W20383  44.910  40.486  10.473
59018W        W20384   1.448  13.826   2.668
59019W        W20385  29.125  32.066  13.023
59020W        W20386  30.090  42.877   4.652
59021W        W20387  31.607  36.878  14.508
59022W        W20388  43.938  43.367  13.497
59023W        W20389  28.435  40.832   1.348
59024W        W20390  39.414  12.279  13.311
59025W        W20391  31.929  24.094   1.368
59026W        W20392  33.432  13.751  10.624
59027W        W20393  25.468   7.301  14.503
59028W        W20394   8.202  11.638  11.523
59029W        W20395  15.680   4.763  10.511
59030W        W20396  15.090  21.102  11.127
59031W        W20397  21.747   4.785  10.009
59032W        W20398  16.278   9.157  11.433
59033W        W20399  30.958   4.347  12.839
59034W        W20400  34.120  44.003  11.987
59035W        W20401  30.572  35.861  10.612
59036W        W20402  31.934  29.440   3.858
59037W        W20403  40.816  44.382  13.353
59038W        W20404  21.044  22.637   1.866
59039W        W20405  19.742  11.261   2.306
59040W        W20406   6.836  42.333   0.753
59041W        W20407   3.728  30.038   2.832
59042W        W20408  33.041  10.216   9.967
59043W        W20409   7.894  42.821   1.401
59044W        W20410  18.135  24.605  11.063
59045W        W20411  30.515   5.917  13.852
59046W        W20412  28.069  30.976   0.460
59047W        W20413  20.245  44.004   2.695
59048W        W20414  38.357  23.001   4.786
59049W        W20415  43.347   5.848  10.159
59050W        W20416  27.643  24.010  10.952
59051W        W20417  37.379   5.865   0.339
59052W        W20418  31.987   1.893  12.077
59053W        W20419  24.592  44.893   3.151
59054W        W20420   8.802  34.371  11.997
59055W        W20421   2.835  22.566  11.949
59056W        W20422  21.074   4.218   0.798
59057W        W20423  33.403  17.792   1.396
59058W        W20424  32.438   8.384  14.887
59059W        W20425   0.750  11.731  13.490
59060W        W20426  40.798  18.086  10.936
59061W        W20427  18.229  10.857   4.274
59062W        W20428  38.000  11.734  10.896
59063W        W20429  27.672   9.349  11.929
59064W        W20430  12.611  15.782  14.959
59065W        W20431  19.286  30.908  12.568
59066W        W20432  29.028  20.047  13.915
59067W        W20433  35.867   1.286   0.248
59068W        W20434  25.662  36.882   2.312
59069W        W20435  31.986  27.070  13.061
59070W        W20436  21.142  43.793  13.512
59071W        W20437   8.826  17.206  11.129
59072W        W20438   4.307  43.348  14.419
59073W        W20439  15.328  10.668   2.841
59074W        W20440  19.721   9.253   0.367
59075W        W20441  22.501  43.414  12.869
59076W        W20442   8.204  26.561  13.852
59077W        W20443  21.710  42.388   1.725
59078W        W20444  40.969   5.921  12.027
59079W        W20445  35.396  44.931  11.905
59080W        W20446  33.603  29.940   4.674
59081W        W20447  35.971  12.742   3.747
59082W        W20448  43.380  10.654  12.401
59083W        W20449  27.979  11.711   2.272
59084W        W20450  10.229  29.462   4.737
59085W        W20451  25.664  38.440  11.603
59086W        W20452  28.975   6.764  12.557
59087W        W20453  25.575  21.525  11.592
59088W        W20454  20.616   1.357  12.525
59089W        W20455  32.505   5.249   2.355
59090W        W20456  23.128   2.805   4.130
59091W        W20457  28.013  34.517  13.397
59092W        W20458  29.144  32.023   2.410
59093W        W20459  40.017  44.310   2.711
59094W        W20460  23.172  13.738   4.296
59095W        W20461   1.837  14.629   4.282
59096W        W20462  29.566  36.873  11.560
59097W        W20463  29.598  12.328  13.344
59098W        W20464  37.505  28.465   2.832
59099W        W20465   9.828  32.062  14.784
59100W        W20466  21.253  32.901   0.853
59101W        W20467  20.578  15.250   0.914
59102W        W20468   9.662  35.096  13.880
59103W        W20469  15.083  12.315   0.362
59104W        W20470   6.223  13.716  14.474
59105W        W20471  29.062  23.220   3.171
59106W        W20472  18.163   7.811  10.981
59107W        W20473  23.522  39.903  11.511
59108W        W20474   8.287  37.857   0.291
59109W        W20475  22.138  16.677   2.690
59110W        W20476   0.466  35.530   3.654
59111W        W20477  25.625  35.869  13.383
59112W        W20478  29.035  33.616  11.508
59113W        W20479  26.561  20.638  10.947
59114W        W20480  41.913   8.187  13.513
59115W        W20481  39.013   6.827   4.237
59116W        W20482  14.600  31.459  12.018
59117W        W20483   5.720  14.615   3.753
59118W        W20484   4.892  17.080  11.064
59119W        W20485   0.942  40.868  13.372
59120W        W20486  14.703  26.664   3.810
59121W        W20487  28.155   4.914   3.355
59122W        W20488   8.284  28.026  14.032
59123W        W20489  22.619  11.272   3.788
59124W        W20490  36.588   6.193  12.426
59125W        W20491  28.632  33.513   2.792
59126W        W20492   5.831   6.222  12.012
59127W        W20493  24.669  22.639   4.701
59128W        W20494  12.804   1.770   2.789
59129W        W20495  44.982  44.865   2.837
59130W        W20496  28.499  12.301   1.845
59131W        W20497  17.210  23.619  13.059
59132W        W20498  42.787  33.065   4.712
59133W        W20499  28.524  42.521  14.397
59134W        W20500  38.546  10.816  12.470
59135W        W20501   5.415   3.287   1.394
59136W        W20502   3.350  10.705   1.377
59137W        W20503  43.862  28.101   1.890
59138W        W20504  22.103  10.836  12.437
59139W        W20505  11.371  35.878  14.992
59140W        W20506  24.060   3.770   3.834
59141W        W20507  34.983  36.097   0.894
59142W        W20508  11.713  28.072   3.192
59143W        W20509  22.041  40.907   2.377
59144W        W20510   7.249  19.574  14.930
59145W        W20511  38.035  41.295  11.492
59146W        W20512  18.569   5.808   0.460
59147W        W20513  23.502  43.476   4.240
59148W        W20514  27.676  38.934   3.275
59149W        W20515  30.933  23.701  12.069
59150W        W20516   0.974  42.427  11.099
59151W        W20517  16.673  40.412   4.741
59152W        W20518  44.315   2.235   2.787
59153W        W20519  19.061  24.588   0.422
59154W        W20520  21.156  44.452  10.404
59155W        W20521   9.290  17.636  13.435
59156W        W20522  30.038  38.959   0.855
59157W        W20523  38.553  18.187   3.864
59158W        W20524  30.164   7.361   4.215
59159W        W20525   5.786  15.250  10.990
59160W        W20526   8.862  22.662   5.257
59161W        W20527  20.121  15.641   0.404
59162W        W20528  14.240  23.577   4.767
59163W        W20529  24.132  19.075  12.399
59164W        W20530  10.750   7.386   2.889
59165W        W20531   9.676  42.450  12.537
59166W        W20532  26.591  24.627   4.601
59167W        W20533   2.789   7.356  13.488
59168W        W20534  36.955   0.259   2.821
59169W        W20535  39.457  15.589   0.280
59170W        W20536  32.557  43.815   2.680
59171W        W20537   4.251  37.426   2.248
59172W        W20538  32.623   6.190  14.323
59173W        W20539  15.583   6.915   0.852
59174W        W20540   2.794  12.274   0.918
59175W        W20541  24.010  19.218   4.827
59176W        W20542   1.972   3.800   4.190
59177W        W20543  40.896  23.650  14.959
59178W        W20544  18.578  15.798  11.453
59179W        W20545   5.883   0.849   2.332
59180W        W20546   9.335  30.567   3.716
59181W        W20547  29.652   3.362   0.258
59182W        W20548  24.071  10.841   4.824
59183W        W20549  22.574  35.524   2.770
59184W        W20550  28.470  25.530  12.569
59185W        W20551  36.457  36.851  10.965
59186W        W20552  40.377  11.178  12.936
59187W        W20553  25.143   2.372   2.395
59188W        W20554   7.699  24.980  13.543
59189W        W20555  43.917  36.447   1.932
59190W        W20556   8.753  15.193   1.728
59191W        W20557  22.656  31.465   2.707
59192W        W20558  18.555  29.955  14.438
59193W        W20559  11.748   9.644  14.452
59194W        W20560  13.773  22.216  10.900
59195W        W20561  22.735  39.815   0.424
59196W        W20562  18.054  15.320   5.119
59197W        W20563  25.640   5.310  12.915
59198W        W20564  36.053  26.460  10.458
59199W        W20565   5.812  10.189   0.892
59200W        W20566  18.786  18.283  11.381
59201W        W20567  26.489  41.508  14.424
59202W        W20568  27.631  31.511  14.863
59203W        W20569  14.314  17.270  11.051
59204W        W20570  21.528  20.574   2.777
59205W        W20571   9.656   4.339  14.454
59206W        W20572  20.111  26.649  12.023
59207W        W20573  34.872  43.817   3.797
59208W        W20574   2.457   5.238  12.030
59209W        W20575  20.609  22.999  14.995
59210W        W20576  24.065  25.139  10.015
59211W        W20577  21.206  25.100  12.437
59212W        W20578  41.848   6.293   5.153
59213W        W20579   9.726  36.861  12.014
59214W        W20580  14.185  32.888  11.875
59215W        W20581  10.174  20.116  14.997
59216W        W20582  17.085   3.461  11.943
59217W        W20583  34.503   7.751  11.537
59218W        W20584  37.991   9.760  10.419
59219W        W20585   7.323  37.396   0.377
59220W        W20586  10.792  20.200  14.384
59221W        W20587  18.665   9.383  13.825
59222W        W20588  15.210  36.530  13.943
59223W        W20589  43.876   2.424  11.109
59224W        W20590   6.185  37.412   1.723
59225W        W20591  12.824  40.978  13.995
59226W        W20592  20.066  12.653  13.970
59227W        W20593   0.953  18.123   1.837
59228W        W20594  13.643  27.141   3.160
59229W        W20595   2.799  27.611   3.853
59230W        W20596  33.999  21.737   2.179
59231W        W20597  39.047  40.494  11.880
59232W        W20598  15.734  30.638   0.435
59233W        W20599   6.230  20.094  13.949
59234W        W20600  36.045  24.139   4.629
59235W        W20601   8.767  29.981   1.895
59236W        W20602  42.902  10.797  13.912
59237W        W20603  19.691   1.915  13.027
59238W        W20604  23.710  36.485   3.217
59239W        W20605   7.248  39.991   2.813
59240W        W20606  40.890   8.234  14.991
59241W        W20607  20.592  21.187  14.011
59242W        W20608  31.642  31.450  14.939
59243W        W20609  28.125  31.502  14.445
59244W        W20610  37.991  22.530  13.512
59245W        W20611   0.761  36.449   1.283
59246W        W20612  29.508  16.220   0.303
59247W        W20613  15.218   2.234  12.421
59248W        W20614  41.024  10.202   2.200
59249W        W20615  26.542   0.252  13.924
59250W        W20616  15.088  15.228  13.321
59251W        W20617  21.130  39.496   4.300
59252W        W20618  24.677   7.214  13.507
59253W        W20619  30.959  15.716  10.574
59254W        W20620  44.791  31.478  12.443
59255W        W20621   2.269  42.386   2.270
59256W        W20622  26.493  10.383   4.833
59257W        W20623  25.179  21.689  12.559
59258W        W20624   9.277  37.918   0.342
59259W        W20625  11.359  11.854  12.918
59260W        W20626  34.899  12.711  10.469
59261W        W20627  19.545  26.960   0.397
59262W        W20628  44.488  27.081  13.921
59263W        W20629  14.638   4.700  13.438
59264W        W20630   7.304   1.260  14.329
59265W        W20631  26.023  27.127  11.385
59266W        W20632  31.928   1.456  12.036
59267W        W20633  13.645  37.894   4.815
59268W        W20634  31.970  25.662   3.267
59269W        W20635  11.818  42.981  10.063
59270W        W20636  15.768  36.474  11.517
59271W        W20637   8.680  41.958   2.793
59272W        W20638  22.064  34.117   1.797
59273W        W20639   4.333  25.041   3.237
59274W        W20640  19.109   0.322  14.900
59275W        W20641  23.653  18.264   4.809
59276W        W20642   5.365   8.690   0.378
59277W        W20643  33.382  25.097  10.600
59278W        W20644  17.077  40.046   4.277
59279W        W20645  15.261  10.636  14.778
59280W        W20646  25.045  41.451  14.312
59281W        W20647  40.872  34.422   3.679
59282W        W20648   8.858  14.661   0.924
59283W        W20649  38.879   0.389   4.221
59284W        W20650  12.194  24.555   1.369
59285W        W20651  11.361   8.370   3.179
59286W        W20652  17.150  11.756   1.240
59287W        W20653  26.185  10.299   4.678
59288W        W20654   8.875  24.513   4.730
59289W        W20655   2.309   2.895  13.548
59290W        W20656   7.685  18.770   5.250
59291W        W20657  17.580   1.428   3.810
59292W        W20658  25.557  36.543   2.769
59293W        W20659   5.751  10.846  14.335
59294W        W20660   7.346   0.861  10.894
59295W        W20661  33.522  18.577  13.032
59296W        W20662  37.569  27.172   4.155
59297W        W20663   8.191  18.079  14.928
59298W        W20664  29.924  32.944   2.266
59299W        W20665   1.783  34.949   1.742
59300W        W20666  17.701  24.609   4.677
59301W        W20667  11.182  15.816  14.983
59302W        W20668  14.323  34.067   3.866
59303W        W20669  19.758  27.139  14.920
59304W        W20670  32.924  15.747   2.871
59305W        W20671  38.961   1.736  13.332
59306W        W20672  34.482  28.580   4.156
59307W        W20673  34.382  20.715  13.855
59308W        W20674  18.196  26.061  14.925
59309W        W20675   6.403   3.936   3.237
59310W        W20676  25.502  40.808  14.470
59311W        W20677  11.639  30.414  10.151
59312W        W20678  19.080   8.302  14.827
59313W        W20679   0.273  21.047  12.857
59314W        W20680  43.832   1.407  12.364
59315W        W20681   6.827  35.881  12.096
59316W        W20682  41.854  42.885   9.927
59317W        W20683  32.575  13.664  13.884
59318W        W20684  38.834  24.150   2.416
59319W        W20685   8.898  17.773  14.817
59320W        W20686   8.819  20.702  13.481
59321W        W20687   8.801  29.161   3.269
59322W        W20688  24.104  18.268   0.342
59323W        W20689  28.559   0.781   0.398
59324W        W20690  20.586  33.083  13.883
59325W        W20691  22.668  30.641   9.949
59326W        W20692  15.709  44.843   1.904
59327W        W20693   6.835  24.501  13.058
59328W        W20694   7.834  28.660   3.272
59329W        W20695   8.244   1.853   4.818
59330W        W20696  13.246   6.380   0.452
59331W        W20697  10.299  33.116  14.442
59332W        W20698  43.008   4.389  12.401
59333W        W20699  36.485   9.302   0.423
59334W        W20700   8.252  29.430  13.810
59335W        W20701   7.757   2.885   4.739
59336W        W20702  18.669  43.331   0.471
59337W        W20703  38.344   6.379  13.490
59338W        W20704   4.771  44.376  13.002
59339W        W20705  39.005   9.765   2.192
59340W        W20706   0.950  20.722  13.028
59341W        W20707  34.058   5.811   2.371
59342W        W20708  23.189  19.641   3.658
59343W        W20709  30.004  31.050   4.696
59344W        W20710  38.411  39.410  14.970
59345W        W20711   2.229   4.265   4.234
59346W        W20712  44.755   0.763   3.806
59347W        W20713   6.761  10.821   1.289
59348W        W20714  28.610  41.482  12.983
59349W        W20715  44.293   8.829  14.462
59350W        W20716   8.794  41.453   0.428
59351W        W20717   9.669  19.136   2.684
59352W        W20718  28.938  11.712   4.211
59353W        W20719   4.831  42.869  13.316
59354W        W20720  14.781  24.620   4.718
59355W        W20721  14.671  25.493   0.440
59356W        W20722  13.171   0.456   1.438
59357W        W20723  16.269  19.163  12.836
59358W        W20724  22.995  21.739   4.238
59359W        W20725   5.918  15.101  14.931
59360W        W20726  37.830  11.672   1.227
59361W        W20727  23.153  16.805  14.401
59362W        W20728  27.580  33.507  12.543
59363W        W20729  31.565  13.820   2.889
59364W        W20730   0.362  38.822   4.620
59365W        W20731  43.508  10.640   4.185
59366W        W20732  29.161   6.723   1.268
59367W        W20733  20.138  19.114   1.237
59368W        W20734  30.573  40.917  13.369
59369W        W20735  24.048  33.440  13.981
59370W        W20736  25.035   7.716  14.783
59371W        W20737  11.144  19.173   1.271
59372W        W20738  21.245   1.963  14.470
59373W        W20739  20.569  34.425  13.043
59374W        W20740  21.635  24.696   4.828
59375W        W20741  15.685   7.374  10.418
59376W        W20742  20.240  10.160   3.291
59377W        W20743  20.107  29.585  11.052
59378W        W20744  40.019  11.231  14.994
59379W        W20745  19.645  16.693  14.825
59380W        W20746  19.111  11.645   0.440
59381W        W20747  33.472  40.482  12.053
59382W        W20748   2.959  17.581  10.913
59383W        W20749  35.478  28.468   1.821
59384W        W20750  21.069  18.192   0.887
59385W        W20751  32.045  43.346  14.399
59386W        W20752  12.241  16.294   1.382
59387W        W20753  19.204  29.642  12.482
59388W        W20754  23.489  23.651  11.565
59389W        W20755  11.825   2.876   0.435
59390W        W20756  41.812  42.518  13.492
59391W        W20757  10.180  20.104   4.802
59392W        W20758   5.208   7.330  14.974
59393W        W20759  20.683  17.697  12.907
59394W        W20760  15.729  37.471  12.448
59395W        W20761  22.634  42.436  13.963
59396W        W20762  19.610   8.324   4.645
59397W        W20763  41.948  11.623   0.396
59398W        W20764  39.450  11.666   2.377
59399W        W20765  10.294  34.588   4.835
59400W        W20766  41.799  25.652  13.801
59401W        W20767   6.880  34.592   2.391
59402W        W20768  41.856  31.513  12.350
59403W        W20769  33.534  27.128  14.346
59404W        W20770  29.586   3.785  11.598
59405W        W20771  27.537  20.216  12.095
59406W        W20772  23.194  28.095  10.060
59407W        W20773  23.133  19.627   1.282
59408W        W20774   6.697  29.146   0.378
59409W        W20775   2.945  18.115  11.463
59410W        W20776   6.917  22.650   1.792
59411W        W20777  41.495   9.371   1.415
59412W        W20778  11.645  41.467   2.403
59413W        W20779  15.604   4.429  13.427
59414W        W20780   8.306  31.560   0.882
59415W        W20781   6.889  42.793   2.740
59416W        W20782   1.382  33.616  14.396
59417W        W20783  11.283  33.979  13.340
59418W        W20784  14.802  28.675   2.331
59419W        W20785   8.195   5.749  13.880
59420W        W20786  36.484   7.255   4.690
59421W        W20787  16.243  26.689   2.719
59422W        W20788   1.374  38.023   0.750
59423W        W20789  42.484  23.194  12.883
59424W        W20790  18.600  18.296   4.727
59425W        W20791  14.264  17.601  13.952
59426W        W20792   1.426  17.135  10.492
59427W        W20793  38.472  41.415  13.392
59428W        W20794  38.476  22.173  11.983
59429W        W20795  27.597   2.408  13.881
59430W        W20796   4.262  37.994  14.350
59431W        W20797  34.532  17.185   2.312
59432W        W20798  10.679  29.120   0.457
59433W        W20799  18.142   0.985   0.361
59434W        W20800  22.536   9.195  12.003
59435W        W20801  41.844  10.738   0.897
59436W        W20802  32.931  26.490   4.647
59437W        W20803  29.519  25.625  14.316
59438W        W20804  20.588   1.318   3.378
59439W        W20805  16.722  36.479  12.053
59440W        W20806  29.092  25.009   3.643
59441W        W20807   9.871  17.133  10.629
59442W        W20808   5.420  34.866   0.309
59443W        W20809  37.011  11.850   3.242
59444W        W20810  21.124  25.194  13.928
59445W        W20811  34.006  34.418   4.640
59446W        W20812   1.411  31.054   1.909
59447W        W20813  41.800  16.268   4.140
59448W        W20814  12.334   9.168   1.919
59449W        W20815   5.846   8.271  13.421
59450W        W20816  20.057  11.174   3.188
59451W        W20817  39.469   9.720  14.477
59452W        W20818  33.531  12.739   0.942
59453W        W20819   8.800  21.646   1.709
59454W        W20820  29.998  32.436  12.474
59455W        W20821  42.809  12.722  11.462
59456W        W20822  27.130  42.022  12.031
59457W        W20823  10.343  14.792  13.366
59458W        W20824  18.739  23.516  10.550
59459W        W20825  40.905  24.717  12.454
59460W        W20826   7.203  30.011  14.841
59461W        W20827  26.968  35.510   0.813
59462W        W20828  31.142   0.338  10.997
59463W        W20829   8.298  15.157  11.460
59464W        W20830  15.312   1.332   4.750
59465W        W20831  12.134  17.174   2.215
59466W        W20832  24.016  22.641  13.477
59467W        W20833  32.458   6.834   2.668
59468W        W20834  43.801  10.309   1.804
59469W        W20835   4.423   9.831   1.832
59470W        W20836  32.112  36.090   4.786
59471W        W20837   1.838  26.553  12.426
59472W        W20838  23.221   1.871  11.891
59473W        W20839  15.820  37.517  13.037
59474W        W20840  28.162  33.912   4.144
59475W        W20841   4.293  17.661   3.331
59476W        W20842  12.316  33.982  11.916
59477W        W20843  29.435  32.635   1.841
59478W        W20844  41.891  16.784  12.892
59479W        W20845  37.381   1.956   1.914
59480W        W20846  21.097   6.893  11.543
59481W        W20847  19.054  21.132   1.421
59482W        W20848  32.483   8.229  12.501
59483W        W20849  22.219  22.695   4.810
59484W        W20850  32.566  20.651   3.836
59485W        W20851  31.439   1.311  13.504
59486W        W20852  17.085  15.110   3.317
59487W        W20853   3.856  13.727   2.812
59488W        W20854  31.956  18.120   4.698
59489W        W20855  26.499  36.034   2.324
59490W        W20856  13.834  16.614   3.178
59491W        W20857   7.677   0.935  14.939
59492W        W20858  31.440  11.809   4.734
59493W        W20859  37.556  12.355   3.699
59494W        W20860  36.494  23.226  11.434
59495W        W20861  37.046   1.892  12.855
59496W        W20862  42.371   1.302   3.380
59497W        W20863  20.227  30.423  14.909
59498W        W20864   4.372  12.824  12.423
59499W        W20865  13.122  31.081  12.343
59500W        W20866  17.578  29.490   4.689
59501W        W20867   8.826  17.276  13.938
59502W        W20868  13.622  38.478   0.840
59503W        W20869   0.789  21.082   4.753
59504W        W20870  22.642  33.927   3.767
59505W        W20871   6.331  17.641   0.291
59506W        W20872   7.375  22.184   1.447
59507W        W20873  10.174   6.714  12.383
59508W        W20874  34.432  43.344  14.791
59509W        W20875  25.535  30.154  13.946
59510W        W20876  37.487   7.736  10.481
59511W        W20877  35.440  17.273  10.991
59512W        W20878   7.379  28.655   4.609
59513W        W20879   5.411  16.193   3.802
59514W        W20880   3.398  26.562   4.725
59515W        W20881  32.023  35.081   3.646
59516W        W20882  26.654  31.946  14.437
59517W        W20883  32.093  40.478  14.866
59518W        W20884  25.590  37.436  13.453
59519W        W20885  23.691  15.160  11.007
59520W        W20886  28.665  20.225  11.465
59521W        W20887   4.739   9.784   3.636
59522W        W20888   8.166  35.360   2.344
59523W        W20889  24.980  27.008  10.023
59524W        W20890  27.465  39.861  13.891
59525W        W20891  35.063   5.705  11.486
59526W        W20892  17.252  23.720   3.765
59527W        W20893   7.911   1.276   3.848
59528W        W20894  20.172  24.513   0.321
59529W        W20895   1.298  36.045   2.770
59530W        W20896   6.262  31.913   2.734
59531W        W20897  41.351  40.462  14.441
59532W        W20898   2.783  20.131  10.424
59533W        W20899  13.209  28.667   2.228
59534W        W20900  41.831  33.942  13.395
59535W        W20901  40.377  40.916   3.187
59536W        W20902   1.866  17.214  10.560
59537W        W20903  23.990  29.954   3.315
59538W        W20904  30.488  40.914   4.126
59539W        W20905  34.540  18.240  12.043
59540W        W20906  28.452  13.687   4.621
59541W        W20907  27.040   6.741  10.523
59542W        W20908  44.491   1.330   0.338
59543W        W20909  10.853  31.067  11.895
59544W        W20910   2.299  16.567  13.331
59545W        W20911  15.157  29.136  13.960
59546W        W20912   1.852  18.096   2.239
59547W        W20913  11.737  30.910  10.961
59548W        W20914  22.541  17.558   3.260
59549W        W20915  31.900  10.153  14.352
59550W        W20916  23.996  42.469  11.934
59551W        W20917  34.114  28.941  14.989
59552W        W20918  16.647  35.925   0.908
59553W        W20919  34.448  42.003  14.867
59554W        W20920   5.848   7.237  12.505
59555W        W20921   9.351  34.429  10.117
59556W        W20922  12.672  29.595  11.042
59557W        W20923  25.144  32.920   3.169
59558W        W20924  29.443  28.616  13.844
59559W        W20925  25.126  10.147  14.011
59560W        W20926  38.826  11.297   3.704
59561W        W20927  10.706  26.516   4.792
59562W        W20928  13.351   5.325   2.215
59563W        W20929   5.263  23.209   2.768
59564W        W20930  44.306   4.750  12.350
59565W        W20931  12.700  25.060  14.285
59566W        W20932  10.811  42.514   4.333
59567W        W20933   2.464   4.702   1.283
59568W        W20934  27.691  10.378  13.487
59569W        W20935  41.303  26.476   3.347
59570W        W20936  23.725   9.736  14.884
59571W        W20937   5.222  22.603  10.963
59572W        W20938  27.588   0.956   1.266
59573W        W20939  22.592  35.923  14.359
59574W        W20940  43.981  25.162   1.385
59575W        W20941   6.423  18.243   3.254
59576W        W20942  44.326  29.631   4.305
59577W        W20943  31.020  30.118  10.499
59578W        W20944  28.572   8.379  14.859
59579W        W20945  43.869  30.562  11.881
59580W        W20946  16.245  37.481  13.399
59581W        W20947  10.182   4.277  13.470
59582W        W20948  42.286  14.144  10.598
59583W        W20949  43.802  42.792   0.831
59584W        W20950  27.971   2.412   0.882
59585W        W20951  15.705   1.768   2.691
59586W        W20952  13.703  42.390   2.678
59587W        W20953  15.591  16.707  14.429
59588W        W20954  40.029  17.710   1.924
59589W        W20955   6.896  18.202  11.416
59590W        W20956  13.709  10.767  10.587
59591W        W20957   1.477  20.666  10.405
59592W        W20958  18.134  12.758  11.419
59593W        W20959  21.748  30.941   3.340
59594W        W20960  11.855  20.716   0.374
59595W        W20961  38.914  31.485  12.531
59596W        W20962   3.396  31.934   1.369
59597W        W20963   6.836   3.876   1.833
59598W        W20964   6.356  31.086   1.810
59599W        W20965  26.193  40.979   0.945
59600W        W20966   8.676   3.879   4.629
59601W        W20967  40.906  21.075   3.667
59602W        W20968   4.932  23.662   3.688
59603W        W20969   1.898  24.189  10.972
59604W        W20970  41.292  21.180   1.237
59605W        W20971  36.924  31.580   1.318
59606W        W20972  38.990  18.247   1.246
59607W        W20973  28.659  19.152   1.446
59608W        W20974  31.036   7.249   3.776
59609W        W20975  32.023  32.039   0.953
59610W        W20976  23.110  44.315  14.486
59611W        W20977  40.410  10.316   5.099
59612W        W20978  40.875  15.726   4.766
59613W        W20979  34.525   3.796   0.387
59614W        W20980   3.767  26.692   4.314
59615W        W20981  20.122  11.855  12.005
59616W        W20982  44.821  10.639   1.245
59617W        W20983  32.971   1.390   2.194
59618W        W20984  12.626  16.310   5.629
59619W        W20985  17.246  15.309  12.881
59620W        W20986  12.762   0.400  10.935
59621W        W20987  42.819  31.117  12.036
59622W        W20988   5.823  22.102   3.229
59623W        W20989   8.333   2.242  10.618
59624W        W20990  29.447  37.474  12.442
59625W        W20991  18.275  19.543  14.954
59626W        W20992  20.127  27.653  11.985
59627W        W20993  41.818  35.029   9.988
59628W        W20994   6.301   9.836  10.498
59629W        W20995  33.937  18.283   3.847
59630W        W20996  11.296  11.249   3.633
59631W        W20997  31.988  43.344  11.585
59632W        W20998  35.454  13.318  14.859
59633W        W20999  14.679  23.074   0.383
59634W        W21000  13.717   7.353  13.337
59635W        W21001   4.868   0.765   1.746
59636W        W21002  22.524  15.235  14.459
59637W        W21003  12.731  27.070  13.000
59638W        W21004  22.573  26.566   4.761
59639W        W21005   0.893  17.075   5.241
59640W        W21006   6.763  20.108   1.803
59641W        W21007  41.323  39.493  14.864
59642W        W21008   5.924  20.174  13.447
59643W        W21009  16.141  17.710   1.741
59644W        W21010  15.322   9.795  10.618
59645W        W21011  30.035   1.281   1.310
59646W        W21012  25.564  38.941  10.584
59647W        W21013   7.673  42.483  14.004
59648W        W21014   0.954  29.059  14.819
59649W        W21015  18.786   2.811  14.462
59650W        W21016  41.897   3.235   1.349
59651W        W21017  40.450  22.240   2.336
59652W        W21018  31.532   3.732   0.840
59653W        W21019  14.252  11.753  10.579
59654W        W21020  35.505  33.980  13.445
59655W        W21021  29.468  33.508   3.762
59656W        W21022  27.455   3.388   3.204
59657W        W21023  42.999  12.753  12.531
59658W        W21024   2.388  33.948   0.831
59659W        W21025  20.194   9.733  13.472
59660W        W21026  14.682  12.706  13.350
59661W        W21027  17.762  32.044  12.989
59662W        W21028  26.988  38.042  13.379
59663W        W21029  33.395  43.450   4.164
59664W        W21030   9.339  33.037  10.597
59665W        W21031  19.690  25.057   4.726
59666W        W21032   1.812  29.947  14.405
59667W        W21033  39.377  28.055   4.341
59668W        W21034   4.787  30.137   2.210
59669W        W21035  25.067  10.653  10.427
59670W        W21036  11.706   2.418   4.748
59671W        W21037  24.559   7.874   2.837
59672W        W21038  23.699  31.454   2.276
59673W        W21039   0.836  41.407   3.237
59674W        W21040  22.076  19.745  12.892
59675W        W21041  27.094  30.152  13.014
59676W        W21042  21.682   9.751  11.089
59677W        W21043   1.252  36.376  12.542
59678W        W21044  16.628  33.591  13.327
59679W        W21045  15.237  35.516   3.719
59680W        W21046  13.309   1.307   1.413
59681W        W21047  10.757  27.614   2.213
59682W        W21048  11.626  34.090  11.511
59683W        W21049   0.262  39.386   1.417
59684W        W21050  27.577  28.533  13.510
59685W        W21051  38.549  22.196   2.749
59686W        W21052  40.353  35.391  11.597
59687W        W21053  41.810  22.070  11.940
59688W        W21054  44.972  34.901   3.255
59689W        W21055   9.375  38.961   3.264
59690W        W21056  24.696   0.831   3.351
59691W        W21057  28.184  26.122  13.895
59692W        W21058  30.141  21.165  13.477
59693W        W21059  21.636  36.383   5.142
59694W        W21060   0.351  37.474  13.543
59695W        W21061  16.753   9.359   2.731
59696W        W21062  29.020   0.390   2.249
59697W        W21063  28.620   6.240   0.406
59698W        W21064   6.791   8.182  13.828
59699W        W21065   9.291  26.179   3.381
59700W        W21066  24.722  10.697  13.432
59701W        W21067   2.867  35.459   0.256
59702W        W21068  33.625   1.808  14.837
59703W        W21069  31.637  36.052   4.690
59704W        W21070  37.851  26.496  11.425
59705W        W21071   3.429  24.496  13.449
59706W        W21072  17.614   5.701  14.870
59707W        W21073  20.245   4.412   1.839
59708W        W21074  35.987  37.045  11.897
59709W        W21075  30.436  41.467   4.646
59710W        W21076   2.397  32.105   2.187
59711W        W21077  26.167  33.560   1.866
59712W        W21078  28.436  16.705  11.928
59713W        W21079  33.050  38.926  14.890
59714W        W21080  12.661  39.912   3.188
59715W        W21081  17.773  38.336  12.470
59716W        W21082  28.642  32.410  11.867
59717W        W21083  41.394   1.310   3.191
59718W        W21084   7.851   4.336  14.883
59719W        W21085  23.067  17.082  11.095
59720W        W21086   1.836  29.593   3.245
59721W        W21087  21.651  37.919   1.793
59722W        W21088  22.204  37.933  12.487
59723W        W21089  24.106  37.017  14.445
59724W        W21090  27.615  23.582   3.165
59725W        W21091  37.423  22.207   3.266
59726W        W21092  19.263  14.654  14.986
59727W        W21093  22.220  30.416  13.836
59728W        W21094  42.451  29.040   2.799
59729W        W21095  35.962  39.832  11.399
59730W        W21096  13.201  37.376  14.450
59731W        W21097  25.988  18.551  13.020
59732W        W21098  13.351  17.565  14.022
59733W        W21099  22.691  17.603  10.533
59734W        W21100  25.217   7.324  10.904
59735W        W21101  27.083  22.071  14.962
59736W        W21102  23.211  12.147  14.887
59737W        W21103  25.600  16.805  12.570
59738W        W21104   9.855  28.930   1.264
59739W        W21105  14.673  41.908   0.876
59740W        W21106   3.748  34.419   0.798
59741W        W21107  43.464  19.149   1.796
59742W        W21108   0.286  30.036  13.900
59743W        W21109  40.505  28.530  12.549
59744W        W21110  21.695  38.850  14.373
59745W        W21111  22.737  23.721  11.520
59746W        W21112  43.371  11.637   9.935
59747W        W21113  11.363  24.512   1.405
59748W        W21114   1.815  30.614   3.283
59749W        W21115  27.635  22.044   1.416
59750W        W21116   1.461  31.049   4.310
59751W        W21117  16.281  12.688   1.713
59752W        W21118  20.720   1.271  13.393
59753W        W21119   7.381  34.106  13.448
59754W        W21120  17.238  18.564   1.726
59755W        W21121  15.223  22.565   1.282
59756W        W21122  14.648   6.348   9.984
59757W        W21123  18.762   8.261  11.416
59758W        W21124  22.123  12.761   3.157
59759W        W21125   5.908  34.984  14.913
59760W        W21126  21.204  17.222  14.931
59761W        W21127   4.291  26.521   1.703
59762W        W21128   2.355   4.308   2.677
59763W        W21129  24.051  33.043  13.379
59764W        W21130  28.964  29.543   4.334
59765W        W21131  43.283  34.580   3.690
59766W        W21132   4.321   5.930   3.218
59767W        W21133  24.513   2.875  13.500
59768W        W21134  25.564  18.135  12.941
59769W        W21135   5.439  42.902   3.246
59770W        W21136  21.227  22.617  13.981
59771W        W21137  44.479  36.899  14.922
59772W        W21138  30.907  11.847  14.461
59773W        W21139  27.618  17.772  11.077
59774W        W21140   6.364   3.751   1.361
59775W        W21141  12.266  21.085   4.642
59776W        W21142  18.194  40.880  11.875
59777W        W21143  41.804  40.545   2.396
59778W        W21144  17.739  24.082  10.545
59779W        W21145  26.117   5.231  14.945
59780W        W21146  15.784  13.188  13.389
59781W        W21147   9.711   8.164  11.478
59782W        W21148  43.331   6.221  13.905
59783W        W21149  37.500  43.824  11.479
59784W        W21150  11.313  44.893  10.588
59785W        W21151  17.747   2.304   0.895
59786W        W21152  43.988   9.204  13.815
59787W        W21153  13.683  28.178   0.397
59788W        W21154   5.331  13.678  12.349
59789W        W21155  36.534  22.080   4.746
59790W        W21156  36.975  23.233   0.786
59791W        W21157  10.834  19.720   4.631
59792W        W21158  28.594  12.289   3.214
59793W        W21159  29.525  14.744  12.428
59794W        W21160  14.239  37.549   3.202
59795W        W21161  30.603   7.409   2.732
59796W        W21162  18.255  27.483   1.282
59797W        W21163   9.315  19.044   1.798
59798W        W21164   4.320   4.783   0.289
59799W        W21165  30.527  24.037  13.539
59800W        W21166  26.147  24.102   3.824
59801W        W21167  28.566   9.859   3.259
59802W        W21168  41.447  25.195  11.906
59803W        W21169  21.079   1.379  13.980
59804W        W21170  27.643   0.800   2.185
59805W        W21171   8.382  43.840  12.873
59806W        W21172   9.319  17.271  11.611
59807W        W21173   8.799  14.121  11.588
59808W        W21174   0.775   6.244  14.805
59809W        W21175   1.472  33.102  14.855
59810W        W21176  39.437  36.928   4.247
59811W        W21177  11.152  20.624  13.343
59812W        W21178  10.663  20.588  13.412
59813W        W21179  19.589   0.359  12.037
59814W        W21180  39.903  33.000  13.020
59815W        W21181  25.015  30.065   1.268
59816W        W21182  36.495   9.175  14.858
59817W        W21183  43.477  41.808  10.509
59818W        W21184  18.284  33.414   0.292
59819W        W21185  13.712  19.078  13.837
59820W        W21186  25.540  42.949  14.419
59821W        W21187   5.284  20.620   2.888
59822W        W21188   1.917  43.801  10.977
59823W        W21189  25.582  39.044   1.252
59824W        W21190  33.467  20.759  12.909
59825W        W21191  16.804  43.419   3.359
59826W        W21192   4.730  10.368   0.949
59827W        W21193   2.803  24.583   4.826
59828W        W21194   8.895  41.894   0.788
59829W        W21195  23.715  21.233   3.775
59830W        W21196  11.789  18.138  11.084
59831W        W21197  41.343  13.113   0.277
59832W        W21198  19.055  14.684   4.789
59833W        W21199  31.067  17.087  14.299
59834W        W21200  35.461  34.492   2.343
59835W        W21201   0.901  31.954   1.229
59836W        W21202  37.578  34.083  14.424
59837W        W21203  24.585  35.426  10.513
59838W        W21204   9.810  17.605   0.326
59839W        W21205  30.445  44.952   2.402
59840W        W21206  11.753  42.852  11.570
59841W        W21207  27.988   4.324   4.722
59842W        W21208  12.688  37.557  12.840
59843W        W21209  39.857  42.865  14.836
59844W        W21210  36.538  14.300  11.416
59845W        W21211   5.842  22.060   1.760
59846W        W21212  12.637  13.132   3.653
59847W        W21213  23.692  38.837   0.774
59848W        W21214  11.672   5.426   1.319
59849W        W21215  15.152  33.948  14.773
59850W        W21216   4.938  35.384   4.274
59851W        W21217  26.987   0.304  12.026
59852W        W21218  29.564  21.207   1.740
59853W        W21219  29.498  36.385  11.376
59854W        W21220  31.605  20.534   2.865
59855W        W21221   7.395   9.201  11.459
59856W        W21222  13.830  20.607   4.166
59857W        W21223  38.429  37.458  14.789
59858W        W21224  22.097  31.080  10.894
59859W        W21225  41.438   8.730  11.535
59860W        W21226  40.014  38.373  12.938
59861W        W21227  34.453  41.918   1.732
59862W        W21228  10.358  44.401  11.032
59863W        W21229  29.107   5.901  12.574
59864W        W21230  24.106  23.590  14.804
59865W        W21231  32.923  44.835   1.338
59866W        W21232   8.861  43.979   3.207
59867W        W21233  22.665   2.455   0.451
59868W        W21234  42.851  39.426  13.451
59869W        W21235  37.509  13.640   1.239
59870W        W21236   5.284   5.859  13.537
59871W        W21237  10.686  41.490  11.393
59872W        W21238   3.901  39.508   4.188
59873W        W21239  25.047  41.389  11.121
59874W        W21240  41.412   2.317  13.364
59875W        W21241  30.568  35.051  11.111
59876W        W21242   1.441  25.083   4.785
59877W        W21243  32.993  29.131  12.407
59878W        W21244   8.881  37.375  10.461
59879W        W21245  42.897  14.198  13.486
59880W        W21246  43.832   3.803   2.379
59881W        W21247  32.490  24.657   4.663
59882W        W21248  43.433  12.737   4.190
59883W        W21249  26.057  44.456  12.536
59884W        W21250  39.032  26.052  14.445
59885W        W21251  14.806  29.119   0.962
59886W        W21252  22.590   3.321  10.438
59887W        W21253   4.234   0.922   3.193
59888W        W21254  12.132  24.131   4.338
59889W        W21255  31.985  40.530  11.970
59890W        W21256  14.637   9.728   0.287
59891W        W21257  16.787  12.632   2.345
59892W        W21258  18.700  20.108  13.969
59893W        W21259  12.206  33.953   3.850
59894W        W21260   2.262  43.431   4.255
59895W        W21261  13.230  28.107  10.142
59896W        W21262  33.049  17.659   4.330
59897W        W21263  10.265  13.758  12.873
59898W        W21264  28.993  30.634   0.452
59899W        W21265  42.303  14.224   4.186
59900W        W21266   2.798  30.003  11.984
59901W        W21267  12.837  18.573  11.587
59902W        W21268  24.599  16.186  13.505
59903W        W21269  19.748  10.751   0.476
59904W        W21270  28.093  27.986   4.220
59905W        W21271  30.958  17.753   2.415
59906W        W21272  21.726  36.947  12.939
59907W        W21273  37.577  35.922   2.405
59908W        W21274   2.847  32.024   9.656
59909W        W21275  40.015  24.651  14.427
59910W        W21276   2.736  33.388   4.239
59911W        W21277  36.478   7.730  13.052
59912W        W21278  34.050   8.833  14.012
59913W        W21279  27.039  14.687  11.935
59914W        W21280  20.534   3.303  12.558
59915W        W21281  26.155   1.338  13.942
59916W        W21282  37.045   5.784   3.685
59917W        W21283   7.721  38.997   0.314
59918W        W21284   5.800  41.441   3.310
59919W        W21285  36.885  19.651   3.656
59920W        W21286  42.473   6.368   0.895
59921W        W21287  44.367  16.728   0.767
59922W        W21288  42.464  27.082  10.909
59923W        W21289  43.441  23.686  10.958
59924W        W21290   1.785  43.954   3.149
59925W        W21291  13.183  35.587   3.773
59926W        W21292  36.889  42.964   2.883
59927W        W21293  33.015  32.495   0.355
59928W        W21294  15.630  42.806  13.373
59929W        W21295  20.158   2.422   3.342
59930W        W21296   2.921  30.630  11.908
59931W        W21297  33.433  16.112  11.490
59932W        W21298  36.427  19.255  14.445
59933W        W21299  29.521  27.142  10.060
59934W        W21300  11.626  19.096  12.372
59935W        W21301   4.437  11.130   1.747
59936W        W21302   6.881  35.934   4.201
59937W        W21303  20.528  41.487   3.652
59938W        W21304  34.595  37.940  10.892
59939W        W21305   6.361  18.296  13.460
59940W        W21306   5.691   2.875  11.597
59941W        W21307  42.997   0.427  10.912
59942W        W21308  41.517   3.725   2.409
59943W        W21309  15.816  10.157   0.393
59944W        W21310   6.717   1.366  11.985
59945W        W21311  16.804  20.162  13.958
59946W        W21312  20.706  18.590  11.988
59947W        W21313   4.709  38.367  10.446
59948W        W21314  34.058  36.072  10.546
59949W        W21315   4.325  34.389  10.911
59950W        W21316   8.275   0.884   4.653
59951W        W21317  42.852  12.259  12.388
59952W        W21318  20.722  10.269  13.363
59953W        W21319  16.178   0.333   4.133
59954W        W21320   4.450  20.675   1.229
59955W        W21321   0.470   8.816   0.866
59956W        W21322  36.056   0.861   1.433
59957W        W21323  11.798   8.370  10.946
59958W        W21324   7.390   6.814  13.967
59959W        W21325  10.725  11.669  14.494
59960W        W21326  36.033  31.097   5.242
59961W        W21327  14.636  19.160   2.697
59962W        W21328  34.978  37.339   5.321
59963W        W21329  31.419  10.853  13.487
59964W        W21330  18.591  27.171   1.892
59965W        W21331  41.528  33.483   1.782
59966W        W21332  10.333  39.521   1.847
59967W        W21333  37.473   5.700  14.490
59968W        W21334  21.529  21.649  11.125
59969W        W21335  27.525  16.283  11.980
59970W        W21336   4.247  13.751  13.507
59971W        W21337  14.280  37.464  12.048
59972W        W21338  36.398  16.161  14.029
59973W        W21339   6.765  30.475   2.310
59974W        W21340  34.096  44.381  10.103
59975W        W21341  38.875  23.518  12.570
59976W        W21342  14.229  15.716   2.180
59977W        W21343  22.651  14.190   3.831
59978W        W21344  39.381  10.807  14.332
59979W        W21345  10.668  10.179   1.380
59980W        W21346   3.234  26.178   1.806
59981W        W21347  22.502  42.019   2.293
59982W        W21348  20.242  35.978  11.414
59983W        W21349  39.876  15.583   3.366
59984W        W21350  11.622  39.871  13.413
59985W        W21351  33.885  29.605  11.553
59986W        W21352  39.065  11.630   2.357
59987W        W21353  37.946  35.973   3.186
59988W        W21354  11.700  15.590   2.233
59989W        W21355  14.196  25.586  11.911
59990W        W21356  27.011  37.018   4.336
59991W        W21357   0.786  12.634  12.391
59992W        W21358  31.020   2.339   2.838
59993W        W21359   7.187  17.586   3.741
59994W        W21360  42.392   3.291  11.975
59995W        W21361  17.792  29.988   1.756
59996W        W21362  22.746  44.795  12.043
59997W        W21363   8.764  18.563  12.498
59998W        W21364  19.161  31.989   3.367
59999W        W21365  24.996  20.547   4.834
60000W        W21366  11.156  34.509  12.065
60001W        W21367  15.729   1.476   0.801
60002W        W21368  43.307  24.614   4.796
60003W        W21369  29.061  28.649  11.455
60004W        W21370  33.123  13.175   4.736
60005W        W21371  13.683  44.907   3.215
60006W        W21372  37.918  38.408  14.855
60007W        W21373  24.712  26.545   3.736
60008W        W21374  18.762  29.114  10.927
60009W        W21375  34.437  26.999  14.928
60010W        W21376  23.050  37.905  13.873
60011W        W21377  28.022  30.051  12.847
60012W        W21378   3.382  10.193  14.805
60013W        W21379   0.988  39.558  14.763
60014W        W21380  16.092  35.586   0.820
60015W        W21381   2.837  25.217   3.184
60016W        W21382  28.944  38.409   3.155
60017W        W21383  12.351  36.451   4.716
60018W        W21384  13.242  14.717   2.298
60019W        W21385  18.097  39.844  13.821
60020W        W21386  13.630  37.881   1.733
60021W        W21387   6.825  33.529   3.736
60022W        W21388  37.017  38.549  11.972
60023W        W21389  41.856  41.341  14.922
60024W        W21390   6.760  39.821  10.943
60025W        W21391  41.369  20.164   1.744
60026W        W21392  11.214  13.676   3.198
60027W        W21393  34.615  16.706  11.049
60028W        W21394   4.316   0.306  13.311
60029W        W21395  25.546  14.663   4.643
60030W        W21396  27.680  21.610  14.394
60031W        W21397  25.126  37.935  11.505
60032W        W21398  32.925  31.481   1.903
60033W        W21399  31.493   1.881  14.996
60034W        W21400  36.375  31.527  11.102
60035W        W21401  31.919  15.630   2.309
60036W        W21402   9.391  26.678   3.678
60037W        W21403  33.429  25.650  12.492
60038W        W21404   7.292  22.122  12.913
60039W        W21405  16.216   2.291   1.407
60040W        W21406  38.038  33.469  11.387
60041W        W21407   0.343  43.990   4.760
60042W        W21408  35.996  27.068  14.432
60043W        W21409   5.324   5.429   3.747
60044W        W21410   7.899  20.525  10.611
60045W        W21411  44.473  27.618   2.287
60046W        W21412  20.222  32.086   2.238
60047W        W21413   7.395  10.692  12.366
60048W        W21414  13.728  32.105   2.897
60049W        W21415  18.584  29.071   1.423
60050W        W21416   9.708  42.372  10.456
60051W        W21417  12.688  32.630  12.516
60052W        W21418  13.328  30.480   5.174
60053W        W21419  21.156  30.570  11.552
60054W        W21420  41.294   0.387  11.517
60055W        W21421  41.402   0.842  11.085
60056W        W21422  32.588  33.570  12.945
60057W        W21423  24.525   3.226  13.529
60058W        W21424  28.178  22.716   2.822
60059W        W21425  42.517   5.415  13.398
60060W        W21426  26.520  28.107   4.801
60061W        W21427  30.968  35.015   0.876
60062W        W21428   2.338  11.663  11.424
60063W        W21429  12.339  25.091   3.365
60064W        W21430  42.911   3.894   0.916
60065W        W21431  18.068  14.673   4.690
60066W        W21432  42.298   6.418  11.011
60067W        W21433  10.746  23.626  14.354
60068W        W21434  28.470  20.691  11.390
60069W        W21435  43.396  32.046   0.896
60070W        W21436  37.015  39.812   0.954
60071W        W21437   4.722  38.054  11.532
60072W        W21438  18.743  35.871  13.394
60073W        W21439  34.397  42.940  11.111
60074W        W21440   3.461  20.162   4.188
60075W        W21441  13.645  29.517   1.383
60076W        W21442  28.599  10.381  11.946
60077W        W21443  31.040  28.466   2.320
60078W        W21444  42.937  38.020  11.941
60079W        W21445  11.147  29.149  12.865
60080W        W21446  15.129  19.723  12.388
60081W        W21447   2.350   8.210  10.459
60082W        W21448  25.979  36.097  13.362
60083W        W21449  33.479   1.315   1.451
60084W        W21450   9.355  27.180   4.686
60085W        W21451   0.414  16.680  11.010
60086W        W21452   4.429  18.227  13.973
60087W        W21453  27.526  31.963   2.833
60088W        W21454  36.086  43.349   1.853
60089W        W21455   8.329  36.012  11.902
60090W        W21456   6.706  27.544   0.373
60091W        W21457  27.580   8.346   3.733
60092W        W21458  30.982  28.644  12.072
60093W        W21459  14.676  14.639  14.918
60094W        W21460  20.048  12.756  11.099
60095W        W21461  13.314  42.804  14.877
60096W        W21462  23.637  27.575   5.694
60097W        W21463  14.154  22.043   3.372
60098W        W21464  34.417  34.984  10.577
60099W        W21465  11.251  17.174   0.368
60100W        W21466   8.773  19.612   2.311
60101W        W21467  35.864   1.443   0.928
60102W        W21468  29.975  12.681  13.542
60103W        W21469  30.945   9.819   4.652
60104W        W21470   8.329  43.826   2.290
60105W        W21471  25.150  12.810  14.372
60106W        W21472  19.696  35.408   1.873
60107W        W21473  37.418  13.678  14.451
60108W        W21474  44.313  15.085  14.367
60109W        W21475  19.089  10.825   2.287
60110W        W21476  31.568   0.425  12.936
60111W        W21477   7.716   6.402  13.840
60112W        W21478  41.944  11.769   2.662
60113W        W21479  14.729   0.867  14.299
60114W        W21480  22.620  35.464   3.378
60115W        W21481   6.215  35.875  12.028
60116W        W21482  16.622  14.124   0.375
60117W        W21483   6.225  32.113   5.187
60118W        W21484   4.349   5.425   0.372
60119W        W21485  23.056  36.950  13.943
60120W        W21486   5.367   2.742   4.132
60121W        W21487   3.789  27.602  12.439
60122W        W21488   1.805  19.763   4.746
60123W        W21489  31.415  25.645  10.599
60124W        W21490   8.170  38.344  14.762
60125W        W21491  20.566  12.757  14.030
60126W        W21492   2.929   9.222  13.873
60127W        W21493   2.782  38.946  14.396
60128W        W21494  15.793  23.164   1.724
60129W        W21495   5.245  10.779   1.776
60130W        W21496   6.309   4.941   2.746
60131W        W21497  11.635   1.794   0.469
60132W        W21498  42.891   7.773  12.421
60133W        W21499  36.867   9.263   3.222
60134W        W21500  11.293  25.168   0.267
60135W        W21501  37.404   8.304  10.630
60136W        W21502   3.896  41.480  12.056
60137W        W21503  39.835  30.051  13.387
60138W        W21504  34.106  24.504   4.677
60139W        W21505  11.306  16.290   0.411
60140W        W21506  30.968  27.589   3.294
60141W        W21507   7.810  19.274  14.347
60142W        W21508   7.753  12.651   1.448
60143W        W21509   1.969  24.536   1.270
60144W        W21510  34.066  30.935  11.568
60145W        W21511   0.348  26.168   0.729
60146W        W21512  31.145  32.466  11.389
60147W        W21513  41.311  11.182  14.347
60148W        W21514  23.538  43.406   0.304
60149W        W21515  14.610  24.621  11.000
60150W        W21516   3.323  16.261   4.773
60151W        W21517   5.348  36.916  11.094
60152W        W21518  16.229  27.162   1.832
60153W        W21519  19.076  41.815  12.376
60154W        W21520  29.608  35.896   4.277
60155W        W21521  23.180   3.718   0.746
60156W        W21522  23.021  37.070   2.292
60157W        W21523  11.130  40.444  13.038
60158W        W21524  14.246  32.570   4.205
60159W        W21525  43.947  26.171  12.368
60160W        W21526  35.542  19.760   1.802
60161W        W21527  12.125  13.820   1.343
60162W        W21528  41.468   3.825   3.734
60163W        W21529  19.735  24.086   2.201
60164W        W21530  42.922  40.892  14.903
60165W        W21531  32.015  16.107  12.537
60166W        W21532   2.821  30.091  13.391
60167W        W21533  12.175   9.812  11.545
60168W        W21534  27.041  32.437   4.697
60169W        W21535  41.895   6.819  10.543
60170W        W21536  42.895  42.815   1.737
60171W        W21537  29.052  24.188   1.919
60172W        W21538  20.068  15.701   1.890
60173W        W21539  44.760  19.108  13.925
60174W        W21540  21.579  29.626   1.387
60175W        W21541  29.152  19.087   9.938
60176W        W21542  31.117  33.391  10.116
60177W        W21543  34.607  33.604   2.743
60178W        W21544  18.125  16.630   0.285
60179W        W21545  42.938  28.519   1.725
60180W        W21546   3.359   2.897   3.730
60181W        W21547  43.893  19.661   4.214
60182W        W21548  31.542   8.235  12.437
60183W        W21549  29.043  27.691  14.284
60184W        W21550  16.198  26.505  13.440
60185W        W21551   0.302  32.533  12.450
60186W        W21552  24.650  10.773   4.329
60187W        W21553  36.030  13.141   1.314
60188W        W21554   1.248  42.416  14.452
60189W        W21555  26.696   5.743  12.061
60190W        W21556  37.852   2.720  10.579
60191W        W21557  20.212  34.396   3.211
60192W        W21558   0.422  41.033  12.058
60193W        W21559   3.901  38.524   1.886
60194W        W21560  15.113  35.863  12.526
60195W        W21561  32.520  25.093  10.956
60196W        W21562  19.071  30.964   1.448
60197W        W21563  17.125  24.072  12.062
60198W        W21564  15.779  40.337   5.250
60199W        W21565  19.123  14.622   1.853
60200W        W21566  30.616  16.258  10.981
60201W        W21567  19.569  20.070  11.908
60202W        W21568  15.814  42.298  14.332
60203W        W21569  41.943  15.094   1.299
60204W        W21570  19.713  42.883   2.793
60205W        W21571  10.301  23.015   2.320
60206W        W21572  23.515  15.207   3.852
60207W        W21573  28.676  21.216  11.919
60208W        W21574  37.844  29.598  14.443
60209W        W21575   7.253  28.582   1.738
60210W        W21576   9.778  24.201  11.054
60211W        W21577  14.183  12.155  12.540
60212W        W21578  29.163  44.367   3.234
60213W        W21579  30.932  32.635   1.789
60214W        W21580   5.889  13.316  14.483
60215W        W21581   9.270  35.361   3.298
60216W        W21582  24.525  41.827  10.639
60217W        W21583  17.141   5.899   2.193
60218W        W21584  34.896  20.257  12.068
60219W        W21585  35.973  31.971   3.262
60220W        W21586  31.935  25.530   2.259
60221W        W21587  44.913  44.931  10.457
60222W        W21588  22.153  32.617   0.270
60223W        W21589  20.058  44.344  13.870
60224W        W21590   1.303   0.367  10.993
60225W        W21591  10.633   6.920   2.383
60226W        W21592  11.341  21.722  10.604
60227W        W21593  44.455  29.604  13.506
60228W        W21594  19.155   1.360   0.398
60229W        W21595  37.469  28.522   4.183
60230W        W21596  32.443  16.703  14.385
60231W        W21597   2.857  10.705   1.436
60232W        W21598  43.002  42.794  12.900
60233W        W21599  25.177   6.200  14.941
60234W        W21600   7.402  14.832   1.764
60235W        W21601  38.391  27.612  13.985
60236W        W21602  23.229  30.625  14.023
60237W        W21603   4.373   3.744  13.866
60238W        W21604  40.883   0.977   1.235
60239W        W21605  34.479   3.283   2.294
60240W        W21606   7.710   9.367  13.445
60241W        W21607   1.763  14.115   4.635
60242W        W21608   3.437  31.559   4.180
60243W        W21609  35.532  37.348  13.505
60244W        W21610  39.461  28.985   0.831
60245W        W21611  20.247   1.813   4.650
60246W        W21612  39.053  39.851   4.159
60247W        W21613   9.702   9.826   4.354
60248W        W21614   7.851   7.843   0.302
60249W        W21615  39.001   3.331  11.936
60250W        W21616  27.072  30.480  10.071
60251W        W21617  31.052  33.595   4.320
60252W        W21618  20.546  14.603  10.508
60253W        W21619  29.492  13.844  11.531
60254W        W21620  11.711   4.231  12.913
60255W        W21621  35.078  39.541  10.129
60256W        W21622  33.962  23.129   3.282
60257W        W21623   7.191  31.003  14.505
60258W        W21624  35.035   8.661   4.338
60259W        W21625  36.894  31.138  13.484
60260W        W21626  17.129  36.922  14.464
60261W        W21627  24.215  12.664   3.322
60262W        W21628  14.660  21.052  11.077
60263W        W21629   7.727  39.954   9.968
60264W        W21630   6.735  34.006   4.170
60265W        W21631  34.985  41.451  12.470
60266W        W21632   7.782  21.181   1.851
60267W        W21633  10.669  39.446  13.058
60268W        W21634  24.581  34.568  13.801
60269W        W21635  28.115   0.864   1.925
60270W        W21636  15.168  23.229   1.399
60271W        W21637  39.371  10.681  10.449
60272W        W21638  16.189  10.305   2.395
60273W        W21639  29.004  15.149  14.866
60274W        W21640  35.857  29.637   0.730
60275W        W21641  16.669  38.517   4.327
60276W        W21642   7.707  21.626  13.894
60277W        W21643  21.541  11.698  14.901
60278W        W21644  29.920  35.012   1.384
60279W        W21645  22.232  30.545  14.966
60280W        W21646  24.053  14.209   2.183
60281W        W21647   8.217   1.784  13.377
60282W        W21648  27.067   6.359   4.214
60283W        W21649  41.352   2.786   0.769
60284W        W21650  21.588  12.812   1.320
60285W        W21651  32.573  25.673   2.301
60286W        W21652  12.296   5.890  11.471
60287W        W21653  27.576  37.072  10.588
60288W        W21654  37.544  38.838  12.461
60289W        W21655  25.696   1.356   3.710
60290W        W21656  11.789  24.686  14.858
60291W        W21657  14.288  21.026   1.747
60292W        W21658  14.813   0.937   1.856
60293W        W21659   5.832  21.210  14.492
60294W        W21660  41.341  39.424   0.820
60295W        W21661  24.482  35.870   0.389
60296W        W21662  40.846  24.038   1.854
60297W        W21663  37.465  14.229  10.888
60298W        W21664  42.363  34.530   1.399
60299W        W21665  11.164  15.767   2.246
60300W        W21666  39.984  33.957   1.838
60301W        W21667  12.637  30.921  11.474
60302W        W21668  15.156  14.198  13.425
60303W        W21669  18.106   3.441   4.182
60304W        W21670  33.902  20.065   0.833
60305W        W21671  41.466  21.648  14.373
60306W        W21672  38.352  17.190   3.864
60307W        W21673  15.299   7.191  12.477
60308W        W21674  35.484  16.588  11.972
60309W        W21675   4.775   1.939   0.913
60310W        W21676  26.954  38.936  10.110
60311W        W21677  39.966  36.865   0.295
60312W        W21678   1.833  41.420   3.175
60313W        W21679  30.157  39.421   0.869
60314W        W21680  12.136  43.401   4.201
60315W        W21681  30.937   7.312  11.118
60316W        W21682  34.945   2.325  12.397
60317W        W21683   5.865  11.234  11.066
60318W        W21684   2.461   6.778  10.527
60319W        W21685  32.088   6.274  14.331
60320W        W21686   8.329  12.621  13.325
60321W        W21687  37.023  28.165   0.467
60322W        W21688  17.596  15.592   1.765
60323W        W21689  31.042   8.320   2.274
60324W        W21690  26.017  38.457   4.242
60325W        W21691  28.091  15.689   1.782
60326W        W21692  19.101   4.440  12.499
60327W        W21693  22.657   7.873   3.697
60328W        W21694  42.294  18.279  12.374
60329W        W21695  44.428  41.905   2.784
60330W        W21696  29.462  27.019   1.350
60331W        W21697  31.150  38.432   1.354
60332W        W21698  14.160  26.512  10.053
60333W        W21699  34.929  21.238  10.081
60334W        W21700   3.937  31.565  11.952
60335W        W21701  21.728  25.120   1.449
60336W        W21702  32.040  32.474  13.054
60337W        W21703  40.829  16.806  14.310
60338W        W21704   1.466  14.786   1.401
60339W        W21705  34.083  10.818   0.347
60340W        W21706  39.527   8.186  14.777
60341W        W21707   3.259  21.544   4.277
60342W        W21708   4.375  41.314   1.414
60343W        W21709  13.821  38.911  11.102
60344W        W21710  41.496  22.102  14.834
60345W        W21711  19.723  44.346  14.913
60346W        W21712  39.367  44.405   2.291
60347W        W21713  13.620  22.237  13.447
60348W        W21714  17.793  32.078   9.966
60349W        W21715  25.004   6.885   4.789
60350W        W21716  44.367  26.478  14.873
60351W        W21717  32.457  33.932  13.927
60352W        W21718  14.330  20.646  10.584
60353W        W21719  44.262   5.233  11.506
60354W        W21720  20.258  20.592  12.553
60355W        W21721   3.905  15.802   0.385
60356W        W21722  35.514  22.744   4.254
60357W        W21723  16.613  20.031  11.127
60358W        W21724   0.839  41.826  13.527
60359W        W21725  19.742  16.194   2.297
60360W        W21726  20.082  41.328  10.116
60361W        W21727  31.903  44.504  13.802
60362W        W21728  33.485   2.737  12.442
60363W        W21729  27.685  18.079  12.348
60364W        W21730  29.459  38.938  11.389
60365W        W21731   0.284   8.777   3.227
60366W        W21732  13.797  39.815   0.930
60367W        W21733  42.505  16.696   0.369
60368W        W21734  30.518  21.031  12.388
60369W        W21735   6.402  12.130   4.747
60370W        W21736  17.155  21.161  11.375
60371W        W21737  17.244  40.927   0.852
60372W        W21738  14.174  11.775   2.288
60373W        W21739   1.768  19.224   4.274
60374W        W21740  26.009  15.587  11.946
60375W        W21741  36.358  38.498  14.785
60376W        W21742  17.266  39.417   2.232
60377W        W21743  26.676   9.239   3.351
60378W        W21744  22.241  35.484  12.542
60379W        W21745  22.644  15.750  10.050
60380W        W21746  35.888  12.808  10.587
60381W        W21747  19.105  14.666  11.432
60382W        W21748  26.183  35.494   2.272
60383W        W21749  35.558  32.599   3.344
60384W        W21750  27.988  42.468  12.551
60385W        W21751  19.626  11.228  12.887
60386W        W21752  40.927  12.137   2.792
60387W        W21753   1.304   4.413  13.992
60388W        W21754   5.367  27.642   0.266
60389W        W21755  34.440  30.111  13.934
60390W        W21756  35.462  23.630  13.488
60391W        W21757  44.444   9.879  14.497
60392W        W21758  21.732   2.226   0.931
60393W        W21759   1.288   0.362  14.871
60394W        W21760   1.838  41.941  12.038
60395W        W21761   3.742  25.117   3.647
60396W        W21762  38.971  43.335  11.983
60397W        W21763  35.497  43.361  11.918
60398W        W21764  41.878  32.092  14.450
60399W        W21765  41.921   2.721   4.294
60400W        W21766  42.980   1.934  10.641
60401W        W21767  16.273  43.941  12.823
60402W        W21768  35.062  24.596  12.887
60403W        W21769  14.656  13.809   1.390
60404W        W21770  11.841  33.988   4.827
60405W        W21771   7.171  13.134  14.283
60406W        W21772   4.917   2.886  12.868
60407W        W21773  24.212  43.949   4.689
60408W        W21774  21.594   2.444  11.575
60409W        W21775  11.851  18.256   2.347
60410W        W21776  30.644  29.578   0.474
60411W        W21777  37.989  34.910   0.791
60412W        W21778   3.316   9.657   0.479
60413W        W21779   4.369  37.070  11.449
60414W        W21780  13.771  28.529  10.526
60415W        W21781  38.510  31.634  13.821
60416W        W21782  44.489  16.782   4.777
60417W        W21783  14.296   3.744  11.017
60418W        W21784  15.111  15.719   0.348
60419W        W21785  31.146  41.798   2.700
60420W        W21786  13.810  40.878   1.449
60421W        W21787  38.333  28.018   1.929
60422W        W21788   3.895   5.871  11.470
60423W        W21789  25.989   5.709   0.945
60424W        W21790  25.515  33.911   4.621
60425W        W21791  36.391   8.739   1.916
60426W        W21792  28.677   8.222   0.966
60427W        W21793  24.134  30.614  14.318
60428W        W21794   8.771  12.782  12.076
60429W        W21795  22.523  36.506  13.430
60430W        W21796  31.609  18.657   4.143
60431W        W21797  21.134  27.464  12.430
60432W        W21798  38.366  35.457   2.272
60433W        W21799  42.945  29.584  11.432
60434W        W21800  44.322   1.935   2.831
60435W        W21801   3.349  37.026  14.277
60436W        W21802  30.499  21.075   2.328
60437W        W21803  31.421  42.501  14.893
60438W        W21804  12.281  13.717   3.179
60439W        W21805   8.317  30.135  12.879
60440W        W21806  28.089  37.900  11.044
60441W        W21807  43.328  24.129  14.967
60442W        W21808  31.056  24.015   1.396
60443W        W21809  39.330   2.346  13.902
60444W        W21810  39.945   2.756  11.372
60445W        W21811  36.080  40.424  11.960
60446W        W21812  30.973  37.526  14.441
60447W        W21813  24.976  15.728   4.726
60448W        W21814   7.261  14.181  13.961
60449W        W21815  27.152  11.126  11.953
60450W        W21816  44.886  18.688   1.275
60451W        W21817  41.836   7.890  10.949
60452W        W21818  19.130   2.446  11.103
60453W        W21819  26.089   3.895   5.095
60454W        W21820  21.729  35.423  13.510
60455W        W21821  27.093  20.114  11.937
60456W        W21822  27.534  29.562   2.229
60457W        W21823  29.105  39.397   0.927
60458W        W21824  11.155   6.780   2.683
60459W        W21825  39.851  19.660  13.932
60460W        W21826  38.355   9.710   0.868
60461W        W21827  31.928   4.216  11.086
60462W        W21828  10.385  17.716   1.840
60463W        W21829  26.558  43.359   4.174
60464W        W21830  16.223   7.898  13.325
60465W        W21831  16.304   4.436   0.897
60466W        W21832   6.276  14.822   3.178
60467W        W21833  40.426  19.762  12.428
60468W        W21834  21.553  21.539  13.797
60469W        W21835  34.895   8.815   4.645
60470W        W21836  10.216  18.647  13.321
60471W        W21837  42.810  16.298   0.469
60472W        W21838  12.347  32.901  11.528
60473W        W21839   9.713  40.497   0.780
60474W        W21840  29.121  15.640  11.501
60475W        W21841  18.280  43.863   2.394
60476W        W21842  10.805  29.918   1.210
60477W        W21843  18.681  17.598   4.765
60478W        W21844  14.251  42.866   2.276
60479W        W21845  44.330  40.489   2.774
60480W        W21846   8.292   8.194   4.272
60481W        W21847   6.390  16.748   2.769
60482W        W21848   8.367  15.755   5.307
60483W        W21849  24.179  33.883   0.934
60484W        W21850  10.751   1.893  11.530
60485W        W21851   0.436  38.447  12.887
60486W        W21852  33.450   5.908   0.462
60487W        W21853  31.579  24.057   0.359
60488W        W21854  16.587  39.315  12.510
60489W        W21855  32.983  41.401   1.843
60490W        W21856  12.227  30.648  10.558
60491W        W21857  14.768   1.428   1.388
60492W        W21858   6.914  29.067   2.731
60493W        W21859  40.998  11.664   3.176
60494W        W21860  10.829  17.682  13.328
60495W        W21861  15.731  36.385   0.263
60496W        W21862  40.808  39.918  13.497
60497W        W21863  35.854  42.437   2.376
60498W        W21864  34.103  21.081  12.831
60499W        W21865   4.744  27.042  11.523
60500W        W21866  30.998   9.801  12.970
60501W        W21867  41.508  35.573   2.229
60502W        W21868   1.285  35.034   4.195
60503W        W21869  32.595  41.312  10.078
60504W        W21870  24.059  16.710   4.675
60505W        W21871  14.643  14.238   2.875
60506W        W21872  14.335   9.160  14.502
60507W        W21873  15.699   3.449   2.812
60508W        W21874  23.993   3.883  11.027
60509W        W21875  27.183  31.937  11.077
60510W        W21876   1.283  12.245  11.462
60511W        W21877  44.921  28.161   2.215
60512W        W21878  18.189  12.693  11.123
60513W        W21879  40.893   5.695   3.246
60514W        W21880  22.170  15.089  13.392
60515W        W21881  28.019   1.324  12.080
60516W        W21882  19.154  19.176   3.863
60517W        W21883  42.301  38.510   0.332
60518W        W21884  21.134  30.631   3.183
60519W        W21885  15.586  44.377  14.343
60520W        W21886  10.779  16.654  12.916
60521W        W21887  43.019  43.440   1.864
60522W        W21888  32.626   4.916   4.820
60523W        W21889  19.131  25.048   4.206
60524W        W21890  44.891   6.256   3.266
60525W        W21891  24.712  25.013   0.350
60526W        W21892   1.836  11.803   3.787
60527W        W21893   9.331   4.340   4.344
60528W        W21894   1.927  11.283  11.928
60529W        W21895   9.316   8.259   2.353
60530W        W21896   3.224  31.908  12.071
60531W        W21897   7.318  35.966  10.453
60532W        W21898  21.121  22.647  14.450
60533W        W21899  29.539  30.950   4.654
60534W        W21900   3.286  25.544  10.515
60535W        W21901  29.107   8.229  13.335
60536W        W21902  19.250  43.951  12.071
60537W        W21903  39.480  35.914  11.400
60538W        W21904   5.421  22.510   9.985
60539W        W21905  20.626   0.284   3.768
60540W        W21906   7.341  14.641   3.783
60541W        W21907   3.248   2.858  11.487
60542W        W21908   3.242  29.927  11.464
60543W        W21909  41.438  43.851   1.211
60544W        W21910  43.006  27.484  10.425
60545W        W21911  33.117  34.952  11.996
60546W        W21912   7.262   2.381   2.390
60547W        W21913  17.177  41.878   1.811
60548W        W21914  14.109  15.614   1.398
60549W        W21915  39.376  10.186  12.369
60550W        W21916  36.449  20.595  12.379
60551W        W21917  41.343  22.541   2.349
60552W        W21918  43.306   8.405   0.384
60553W        W21919  40.933   5.277  10.924
60554W        W21920  25.132  33.383   4.265
60555W        W21921  33.960   5.861   4.306
60556W        W21922  14.760  10.775  11.036
60557W        W21923  29.011  10.240   0.424
60558W        W21924   6.724  11.634  13.360
60559W        W21925  15.705  19.257  13.400
60560W        W21926  35.403  24.211   4.607
60561W        W21927  33.105  34.487   2.326
60562W        W21928  16.130  11.697   0.278
60563W        W21929  28.120  30.961   4.648
60564W        W21930  35.108  19.677  14.878
60565W        W21931   0.923   1.833   9.968
60566W        W21932  31.055  36.078   2.867
60567W        W21933  40.900   2.844  10.494
60568W        W21934  12.321   6.903   0.847
60569W        W21935  25.619  27.042   2.401
60570W        W21936  27.959  17.129   0.887
60571W        W21937  37.388  38.920   5.319
60572W        W21938  38.030   2.323   3.779
60573W        W21939   9.699   3.749  14.315
60574W        W21940   9.373  16.265  13.052
60575W        W21941  37.480  19.563  13.939
60576W        W21942   6.805  28.520   2.714
60577W        W21943  22.617  15.304  13.329
60578W        W21944  15.585  18.629  13.943
60579W        W21945  39.363  25.143   4.119
60580W        W21946  27.195   0.918  14.872
60581W        W21947  35.859  25.106  12.398
60582W        W21948   3.738  26.071   4.780
60583W        W21949  33.540  17.167   4.347
60584W        W21950  22.571  27.538   2.334
60585W        W21951  16.581  20.742   1.292
60586W        W21952  18.602  40.846   2.699
60587W        W21953  24.548  13.713   4.724
60588W        W21954  34.570  24.014   3.313
60589W        W21955  16.283  24.639  10.925
60590W        W21956  18.260  40.424   2.873
60591W        W21957  44.331  13.330   0.313
60592W        W21958  42.029  18.690  14.502
60593W        W21959  39.887   5.842  10.487
60594W        W21960   8.345  31.990   0.798
60595W        W21961  15.678  13.335  11.563
60596W        W21962  22.078  29.638  10.507
60597W        W21963  42.948  35.566  11.500
60598W        W21964   6.708  40.851   1.832
60599W        W21965  11.219  30.618  12.030
60600W        W21966  16.659  36.989  10.430
60601W        W21967  41.299  32.465  13.333
60602W        W21968  36.544  34.490  13.882
60603W        W21969   9.179  15.137   3.302
60604W        W21970   3.453  33.055  10.127
60605W        W21971  35.963   8.395   2.180
60606W        W21972  27.032  31.593  11.446
60607W        W21973   0.254  10.680   2.202
60608W        W21974  33.938   0.921  11.888
60609W        W21975  11.301  18.253   4.730
60610W        W21976  22.744  42.521   1.719
60611W        W21977  37.351  21.127  11.492
60612W        W21978   2.443   7.689   5.284
60613W        W21979  30.484  13.215   0.883
60614W        W21980  42.482  13.607  12.932
60615W        W21981  21.031  10.156  13.993
60616W        W21982   3.215  37.444   1.803
60617W        W21983  21.029  41.907   3.148
60618W        W21984   9.865  16.135  10.636
60619W        W21985  29.119  23.080   4.670
60620W        W21986  15.306  38.505   2.206
60621W        W21987   8.787  43.814   2.219
60622W        W21988  43.768  13.643  11.943
60623W        W21989  33.539   4.917   0.959
60624W        W21990  32.418  26.117  12.084
60625W        W21991  36.518   5.212  11.563
60626W        W21992  44.310  18.129   0.459
60627W        W21993  28.671  23.636   3.724
60628W        W21994  24.096  19.593  12.494
60629W        W21995  10.864   7.339  12.831
60630W        W21996  37.056  23.651   0.729
60631W        W21997   0.262  15.171   3.234
60632W        W21998  32.448   9.362   2.327
60633W        W21999  38.885  23.081   2.878
60634W        W22000  17.218  42.860  13.315
60635W        W22001   4.789   8.170   4.211
60636W        W22002  15.711  38.551  10.098
60637W        W22003  21.093  16.763   0.778
60638W        W22004  11.853  25.562   2.181
60639W        W22005  23.655  27.475   3.752
60640W        W22006  25.691  44.369   3.179
60641W        W22007  32.104  22.145  13.948
60642W        W22008   8.767  42.312   1.412
60643W        W22009  11.760  18.276  12.972
60644W        W22010  36.881  11.759  11.581
60645W        W22011   8.255  42.924   1.281
60646W        W22012  26.691  22.617  14.760
60647W        W22013  26.092  20.589  11.577
60648W        W22014  33.085  41.790   2.397
60649W        W22015  27.502  39.882  10.624
60650W        W22016  19.247  33.986  13.941
60651W        W22017  12.786  23.095  10.422
60652W        W22018  39.512  39.971   2.766
60653W        W22019  32.625  17.175   1.908
60654W        W22020  40.848  19.095  11.052
60655W        W22021  23.705  28.109  11.044
60656W        W22022  19.763  24.669  10.567
60657W        W22023  16.247   3.768  12.413
60658W        W22024  44.455   3.836  11.419
60659W        W22025  21.144   2.292   1.286
60660W        W22026   2.425  17.239  12.399
60661W        W22027  25.699  33.567  10.460
60662W        W22028  36.518  11.229   2.776
60663W        W22029  22.634  38.462   2.754
60664W        W22030   1.280  12.735   2.777
60665W        W22031  10.319  13.136  13.316
60666W        W22032  33.015  42.880   0.896
60667W        W22033   7.753   4.701   5.194
60668W        W22034   9.212  44.343   0.947
60669W        W22035   3.364   0.421  13.476
60670W        W22036  32.606  31.517  11.580
60671W        W22037  44.861  13.755  14.505
60672W        W22038   2.922  16.582   5.694
60673W        W22039  22.124   2.426  11.123
60674W        W22040  10.666  14.114   3.691
60675W        W22041  41.987  13.273   1.340
60676W        W22042  29.070  17.706   4.717
60677W        W22043   4.834  38.004   0.373
60678W        W22044  27.966  15.800  12.501
60679W        W22045  16.604   3.767   3.173
60680W        W22046  19.682  28.528  11.019
60681W        W22047   2.310  38.537   4.687
60682W        W22048   5.247   3.346   4.283
60683W        W22049  40.893  37.437   2.702
60684W        W22050  18.713  30.648   1.347
60685W        W22051   1.956  29.992  10.411
60686W        W22052   7.186   1.456   4.245
60687W        W22053  18.236  34.488  11.516
60688W        W22054   8.253  22.995   1.705
60689W        W22055   9.763  27.979   1.267
60690W        W22056  18.652  11.753  13.399
60691W        W22057  34.429  37.390  11.027
60692W        W22058   7.740   7.293  11.855
60693W        W22059  37.864  31.480   0.343
60694W        W22060  34.017  39.376  13.367
60695W        W22061  41.519  32.965   4.230
60696W        W22062  21.136  38.381  11.954
60697W        W22063  27.023  40.961  12.085
60698W        W22064  17.211  28.564   1.829
60699W        W22065  15.109  37.047  11.507
60700W        W22066  23.995   1.320   1.810
60701W        W22067  15.176  22.155   0.372
60702W        W22068  17.747  36.429  12.033
60703W        W22069  31.474  40.369  13.547
60704W        W22070  26.179   4.271   0.802
60705W        W22071  30.974  19.227   3.765
60706W        W22072  30.089  22.576   2.340
60707W        W22073  31.132  28.661  13.510
60708W        W22074  37.905  19.752  10.148
60709W        W22075  29.635  40.970  11.123
60710W        W22076  13.796  27.524   3.252
60711W        W22077   4.442  10.215   3.218
60712W        W22078  31.429   8.399   1.383
60713W        W22079  27.446  23.514   3.662
60714W        W22080   5.762  22.027   4.618
60715W        W22081  26.568   5.688   2.827
60716W        W22082  11.718  14.728  13.879
60717W        W22083  30.137  16.682  13.004
60718W        W22084   0.386  16.750   2.862
60719W        W22085  34.381   6.391  10.452
60720W        W22086  11.306  26.555   2.368
60721W        W22087   6.262   6.205   4.691
60722W        W22088  33.572  20.600  14.968
60723W        W22089  32.545  21.516   4.152
60724W        W22090   3.231  24.120   3.285
60725W        W22091  22.665  13.809  14.298
60726W        W22092  19.624  39.923  14.284
60727W        W22093   0.888   8.808   5.119
60728W        W22094  28.477  30.037   0.381
60729W        W22095  24.230  22.675   3.719
60730W        W22096  33.494   7.710  11.471
60731W        W22097  19.571   2.843   1.341
60732W        W22098  14.713  13.841   0.301
60733W        W22099  10.856  35.860  13.889
60734W        W22100  32.520  38.477   2.807
60735W        W22101   2.885   5.199  11.483
60736W        W22102   3.950   3.850   2.402
60737W        W22103   0.314  28.073  14.437
60738W        W22104  25.083   1.854  10.595
60739W        W22105  39.429  37.050  11.856
60740W        W22106  21.662  22.052   3.309
60741W        W22107  11.766  44.003  13.341
60742W        W22108  40.411  37.363  11.579
60743W        W22109  43.860  42.842   0.432
60744W        W22110  11.790  43.514  12.007
60745W        W22111  39.955  13.280  12.524
60746W        W22112  36.886  37.426   0.318
60747W        W22113  11.655  44.833   0.462
60748W        W22114  40.346  14.330  14.010
60749W        W22115  19.750  14.821   2.854
60750W        W22116  31.930   5.241   0.264
60751W        W22117  11.318  35.976   2.297
60752W        W22118  43.280  32.529  14.451
60753W        W22119  30.652  26.958   2.323
60754W        W22120  29.656  10.189   0.466
60755W        W22121  21.732  15.178   4.750
60756W        W22122  34.023  37.420   0.817
60757W        W22123  19.633   2.365   5.209
60758W        W22124  10.338  40.840   3.287
60759W        W22125   0.818  16.640   3.152
60760W        W22126  34.560   9.755  12.486
60761W        W22127  13.838  19.136   1.709
60762W        W22128  43.449  19.097  11.382
60763W        W22129  36.016  36.942  12.880
60764W        W22130  37.360  39.041  13.545
60765W        W22131  22.151  29.135   1.900
60766W        W22132   7.369   5.760  14.886
60767W        W22133  14.286   8.873   3.166
60768W        W22134   3.750  11.134  10.558
60769W        W22135  40.458  12.273  10.612
60770W        W22136  29.456   9.345  11.519
60771W        W22137  38.068  36.998   1.852
60772W        W22138   3.918  33.958   4.252
60773W        W22139  19.699  16.091  10.467
60774W        W22140   9.335  16.104  14.930
60775W        W22141  38.900  35.476  13.915
60776W        W22142  17.748   1.757   4.218
60777W        W22143  15.635  34.539  10.930
60778W        W22144  23.491  16.795   3.748
60779W        W22145  14.606  27.195   1.715
60780W        W22146  19.047  28.993   1.737
60781W        W22147  14.333  44.297   2.812
60782W        W22148  14.317   5.720  11.607
60783W        W22149  17.558   5.853  12.504
60784W        W22150  12.722  12.682  14.282
60785W        W22151  13.150  30.609  14.760
60786W        W22152  13.220   4.772  13.452
60787W        W22153  10.315  40.867  14.793
60788W        W22154  42.838  33.115   1.918
60789W        W22155  12.209  22.611  10.980
60790W        W22156  31.001  24.686   2.288
60791W        W22157  11.672  40.925   0.870
60792W        W22158  32.502  14.178  13.990
60793W        W22159  41.861  33.894   4.659
60794W        W22160  11.636   4.380   4.258
60795W        W22161  33.939   5.382  12.935
60796W        W22162  30.930  35.095  10.989
60797W        W22163  22.177   5.730  11.504
60798W        W22164  40.544  40.841  11.454
60799W        W22165   2.729  32.079  13.804
60800W        W22166   8.372  28.538  14.356
60801W        W22167   7.416   6.884  12.518
60802W        W22168  28.060  14.187  14.407
60803W        W22169  18.561  19.246   3.170
60804W        W22170  21.209  37.439  12.857
60805W        W22171  39.530  15.273  10.455
60806W        W22172  25.192  17.303   1.343
60807W        W22173  34.504  20.763   0.284
60808W        W22174  35.378   8.244   0.396
60809W        W22175   7.176  43.985   4.687
60810W        W22176  19.198  31.955  12.373
60811W        W22177  20.125  42.809   0.402
60812W        W22178  23.041  37.951  11.539
60813W        W22179  18.658  43.982   4.333
60814W        W22180   8.394  18.634   0.928
60815W        W22181  30.062  39.499  11.122
60816W        W22182  32.405  10.281   1.799
60817W        W22183   2.844  37.515  10.424
60818W        W22184   9.831   5.787  11.965
60819W        W22185  21.649  28.642   2.215
60820W        W22186  31.079  16.270   0.957
60821W        W22187  18.197  27.678   4.286
60822W        W22188   7.408  29.457  10.442
60823W        W22189   7.732  41.483  14.274
60824W        W22190   6.191  11.729   0.876
60825W        W22191  28.544   0.873   4.658
60826W        W22192  26.172  19.541  11.440
60827W        W22193  22.557  19.250   0.835
60828W        W22194  40.856   3.886   0.833
60829W        W22195  42.284  19.646  11.048
60830W        W22196  40.027  34.432   3.271
60831W        W22197  29.624   8.740   1.433
60832W        W22198  28.983  14.104  12.998
60833W        W22199  32.435  30.560   2.712
60834W        W22200  30.101  34.040   2.194
60835W        W22201   2.308  10.842   3.633
60836W        W22202  29.607  10.309   1.229
60837W        W22203  39.395   2.461   1.424
60838W        W22204  25.126  16.101  11.571
60839W        W22205   1.908  41.900   2.402
60840W        W22206   0.418  41.921   4.802
60841W        W22207   9.395  29.073  13.055
60842W        W22208  20.710  40.394  12.437
60843W        W22209  23.544   7.410   2.194
60844W        W22210   1.836  37.572   1.246
60845W        W22211  40.854   0.753  13.439
60846W        W22212  24.689  36.544   2.398
60847W        W22213  38.906   9.791  14.460
60848W        W22214  32.131   2.373   2.877
60849W        W22215   4.773  38.535   0.922
60850W        W22216  20.616  19.116  14.468
60851W        W22217   4.304  15.280   2.254
60852W        W22218  41.361   1.431   1.759
60853W        W22219  41.347  24.128   0.374
60854W        W22220  38.884  20.210   2.180
60855W        W22221  16.626  21.062  14.432
60856W        W22222  36.084  26.976  13.519
60857W        W22223  11.706  17.111   3.372
60858W        W22224   0.913  19.178  12.543
60859W        W22225   8.879  23.135   1.908
60860W        W22226   0.356   0.454   1.857
60861W        W22227  17.751  36.457  13.994
60862W        W22228  31.526  16.669  12.918
60863W        W22229   9.747  22.653   3.264
60864W        W22230  37.580   0.820  14.322
60865W        W22231  35.401  13.811  13.957
60866W        W22232  17.731  20.724   0.798
60867W        W22233  28.979  19.730   5.322
60868W        W22234  43.504  43.948   0.290
60869W        W22235   3.297  19.632   3.738
60870W        W22236   4.731   4.357   1.892
60871W        W22237  19.164  27.041   4.290
60872W        W22238  36.567   4.381   2.383
60873W        W22239  44.814  37.385   4.688
60874W        W22240  19.136  42.924  11.443
60875W        W22241   4.772  10.231  14.948
60876W        W22242  36.421  30.584   2.816
60877W        W22243  20.714   4.708  13.317
60878W        W22244  31.526  15.629  14.880
60879W        W22245   5.298  37.083   2.740
60880W        W22246  17.291  17.123  13.446
60881W        W22247   9.289  16.212  11.419
60882W        W22248   5.920  13.197  12.855
60883W        W22249  29.576  10.692   4.615
60884W        W22250  30.558  34.079   3.769
60885W        W22251   2.803   7.851   0.935
60886W        W22252  40.306   0.806   4.780
60887W        W22253  19.606   3.817  11.597
60888W        W22254  12.857  29.015   4.770
60889W        W22255  13.308  39.436   4.642
60890W        W22256  29.464  32.995   0.367
60891W        W22257  29.429  19.623   4.637
60892W        W22258  16.620  33.106  14.395
60893W        W22259   5.198   0.443  14.290
60894W        W22260  32.063  39.370  13.048
60895W        W22261  15.164  21.557   1.267
60896W        W22262  39.949  21.098   4.149
60897W        W22263  30.016   1.863  13.871
60898W        W22264  43.499  30.457   2.702
60899W        W22265  37.490   2.864   0.334
60900W        W22266  13.276  35.932   4.147
60901W        W22267  13.343   7.248  11.417
60902W        W22268  31.507  13.604  13.983
60903W        W22269  17.283  35.985  12.056
60904W        W22270  29.458   8.211  13.858
60905W        W22271  22.092  18.790   2.897
60906W        W22272  14.627  16.748  13.376
60907W        W22273   8.850  34.466   4.288
60908W        W22274  31.974  36.553   5.301
60909W        W22275   9.345  42.918  14.950
60910W        W22276  11.199   9.679   1.720
60911W        W22277  18.692  14.277  10.998
60912W        W22278   5.365  35.034   3.852
60913W        W22279   8.677  23.180   4.821
60914W        W22280  39.937  40.883  13.984
60915W        W22281  35.878   1.873  10.566
60916W        W22282   4.318  13.153  12.918
60917W        W22283   9.820  24.720  12.952
60918W        W22284   7.401   0.328   4.288
60919W        W22285  12.647  32.430   4.292
60920W        W22286  24.560  24.070  13.838
60921W        W22287  20.206  18.144  10.123
60922W        W22288  23.577  32.100  11.908
60923W        W22289  10.684  30.018   3.827
60924W        W22290  14.754  30.050  10.503
60925W        W22291  13.633  25.041   1.213
60926W        W22292  23.012  19.553  11.990
60927W        W22293  35.929  34.940   0.915
60928W        W22294  19.164  24.585  13.512
60929W        W22295  33.046   1.425  12.419
60930W        W22296  43.272   3.253   3.776
60931W        W22297   4.823  12.230   0.295
60932W        W22298  13.151  40.352  10.935
60933W        W22299  34.513  32.526  13.381
60934W        W22300  43.496  30.980  13.307
60935W        W22301  19.618   5.727   0.737
60936W        W22302  12.211  44.268  14.410
60937W        W22303  18.759   4.812   1.218
60938W        W22304   9.280  17.303   3.355
60939W        W22305  37.520  32.403   3.266
60940W        W22306  35.919  30.616  10.932
60941W        W22307  39.832   3.801   0.247
60942W        W22308  44.845  40.867  13.932
60943W        W22309  16.115  15.274   1.368
60944W        W22310  20.050  42.396   4.314
60945W        W22311  13.780   0.746  11.494
60946W        W22312   3.360  23.130   4.312
60947W        W22313  13.842   1.964  12.557
60948W        W22314   9.350  41.915  13.852
60949W        W22315   8.275  24.542   4.282
60950W        W22316  27.042  27.125   4.242
60951W        W22317  30.914  11.718  13.343
60952W        W22318  14.159  41.376  11.122
60953W        W22319  10.686  21.191   1.318
60954W        W22320  12.669  24.617  12.490
60955W        W22321  29.119  19.718   4.684
60956W        W22322   0.980  33.115   3.365
60957W        W22323  14.684  31.564  10.999
60958W        W22324  21.194  38.430  10.570
60959W        W22325   9.681  17.673   4.246
60960W        W22326   2.951  26.648   0.868
60961W        W22327  24.562  26.685  12.851
60962W        W22328  13.649  19.764   1.846
60963W        W22329  18.710  44.858   1.775
60964W        W22330   9.180   5.735   9.452
60965W        W22331   0.848  32.594  11.544
60966W        W22332  29.616  34.942  13.479
60967W        W22333  13.303   7.790   0.926
60968W        W22334  25.524  21.153  12.488
60969W        W22335  27.592  14.292  11.069
60970W        W22336  35.361  42.407   1.359
60971W        W22337  14.117  19.658  14.406
60972W        W22338  28.032  22.594   4.817
60973W        W22339  43.975  14.262  12.451
60974W        W22340  43.417  27.082  13.028
60975W        W22341  21.685   6.840  13.835
60976W        W22342  15.774  26.075  11.975
60977W        W22343  17.793  22.229   1.322
60978W        W22344   7.414  23.573  10.969
60979W        W22345  20.760   1.385  12.849
60980W        W22346  19.050  28.598   3.656
60981W        W22347  23.665   0.759  10.610
60982W        W22348   8.297   9.299   3.369
60983W        W22349  35.974  13.148   2.876
60984W        W22350   2.260  42.962   4.746
60985W        W22351  34.547   9.819  13.437
60986W        W22352   4.809  37.402  14.511
60987W        W22353  23.682   3.301  12.445
60988W        W22354  19.762  38.003  10.994
60989W        W22355  11.718  21.695  11.391
60990W        W22356  13.285  34.609  14.880
60991W        W22357  26.196  19.284  11.374
60992W        W22358   2.940   5.196  10.557
60993W        W22359  30.631  41.998   4.190
60994W        W22360  34.568  21.621  12.357
60995W        W22361  12.303  18.554  14.490
60996W        W22362   3.425  41.966   5.261
60997W        W22363  43.342   8.275   4.176
60998W        W22364  12.695  14.308  14.359
60999W        W22365  16.233  22.190   0.370
61000W        W22366  40.416  33.058   3.259
61001W        W22367   1.933  30.465  12.904
61002W        W22368  27.973  21.237  12.842
61003W        W22369  32.543  14.135   1.883
61004W        W22370  14.771  37.982  14.428
61005W        W22371  44.367  34.387   1.366
61006W        W22372  36.076   7.297  12.874
61007W        W22373  26.052  13.284  14.444
61008W        W22374  30.086  21.538  12.088
61009W        W22375  40.028  34.553  10.988
61010W        W22376  19.118  36.949   4.193
61011W        W22377  42.355  30.976   4.754
61012W        W22378  44.009  43.857   4.752
61013W        W22379  27.045  22.586  12.374
61014W        W22380  42.452  21.051   4.269
61015W        W22381   9.767  33.383   2.692
61016W        W22382  22.244  37.438   0.952
61017W        W22383  19.079  23.571  10.489
61018W        W22384  11.291  35.470  12.017
61019W        W22385   8.798  13.232  13.509
61020W        W22386  41.436   8.713  13.495
61021W        W22387  24.486  18.580  14.470
61022W        W22388  10.729   5.894   3.186
61023W        W22389  11.306  33.577   3.709
61024W        W22390  35.594  34.890  13.001
61025W        W22391  32.136  13.825  14.826
61026W        W22392   6.862  35.505  11.857
61027W        W22393   5.200  18.745  13.911
61028W        W22394  12.147   7.788   3.261
61029W        W22395  38.985  43.859  13.850
61030W        W22396  18.119  31.036  11.009
61031W        W22397  41.307  14.806  12.362
61032W        W22398   8.318  44.779   0.252
61033W        W22399  31.449   3.937  14.928
61034W        W22400  39.810  16.180   1.415
61035W        W22401   5.875   4.802   0.901
61036W        W22402   4.349  16.144  12.531
61037W        W22403  16.237  18.729  10.089
61038W        W22404   9.852   4.297   4.228
61039W        W22405   7.385  28.593   2.189
61040W        W22406  35.053  25.001  14.436
61041W        W22407  21.243   9.313  12.854
61042W        W22408  37.002   4.443   1.890
61043W        W22409   7.307  38.473   0.899
61044W        W22410  26.141  26.051   4.252
61045W        W22411  21.130  15.212   4.636
61046W        W22412  41.028  17.737  14.406
61047W        W22413  12.658  42.498  12.554
61048W        W22414  28.151  40.503  13.344
61049W        W22415  11.738  11.222  12.536
61050W        W22416  12.844   3.256  12.462
61051W        W22417   9.787  36.362   2.771
61052W        W22418   4.741  24.192  12.518
61053W        W22419  37.359  41.900   0.254
61054W        W22420  16.099  35.888  11.043
61055W        W22421  30.934  16.306  12.938
61056W        W22422  32.015  41.850   3.742
61057W        W22423   4.739   4.802   2.814
61058W        W22424  14.742  15.150   0.858
61059W        W22425   8.174  23.230  10.598
61060W        W22426  34.996  35.882  11.413
61061W        W22427  36.857  25.668   0.786
61062W        W22428  18.550  43.387   4.264
61063W        W22429   0.287  21.733   1.247
61064W        W22430  21.241   6.891   1.432
61065W        W22431   0.868   5.758  12.985
61066W        W22432  14.812   6.717   3.670
61067W        W22433  30.926  13.255  12.444
61068W        W22434  39.870  37.347   0.877
61069W        W22435  15.206  28.557   2.758
61070W        W22436  31.022  25.044   0.350
61071W        W22437   2.938  10.647   1.699
61072W        W22438  36.901   9.875   2.184
61073W        W22439  34.983  35.060  11.912
61074W        W22440  15.702  29.171   4.312
61075W        W22441  22.147  23.157   3.717
61076W        W22442  40.402  21.226  13.042
61077W        W22443  15.317  44.971  14.442
61078W        W22444  41.812  42.788  11.002
61079W        W22445  19.676  26.664   0.952
61080W        W22446  18.552  15.806  14.805
61081W        W22447  43.999  33.943   0.938
61082W        W22448  30.140  28.042   2.389
61083W        W22449  25.534   2.233  10.981
61084W        W22450   5.741  11.657  11.109
61085W        W22451  35.066  37.519  11.534
61086W        W22452   6.776  41.369  11.064
61087W        W22453  24.501   2.294   3.382
61088W        W22454  15.613  11.237   0.965
61089W        W22455  19.134   8.232   3.195
61090W        W22456  43.499  41.027  14.349
61091W        W22457  26.045  25.559  12.538
61092W        W22458  26.963  43.887   1.750
61093W        W22459  28.469  23.575   0.376
61094W        W22460  30.442   1.277   2.356
61095W        W22461  32.059  29.003  14.787
61096W        W22462  41.017  31.415   0.915
61097W        W22463  25.998  43.953  12.922
61098W        W22464  38.467  36.087  13.506
61099W        W22465  44.953  27.620   1.292
61100W        W22466  16.800  11.731  14.446
61101W        W22467  34.432  10.370   1.841
61102W        W22468   1.785  41.365   1.873
61103W        W22469  28.975   0.318   1.239
61104W        W22470  16.243  34.937   3.176
61105W        W22471  42.877   0.966   0.435
61106W        W22472  40.901  22.575  12.991
61107W        W22473   3.354  17.268  13.882
61108W        W22474  12.685  25.087   3.843
61109W        W22475  18.571  41.987  12.886
61110W        W22476  27.583  29.091   2.704
61111W        W22477  12.242  27.582  11.561
61112W        W22478  19.266  10.353   4.835
61113W        W22479   2.256  21.602  13.320
61114W        W22480  44.005   8.700   3.821
61115W        W22481  25.004   3.369  13.811
61116W        W22482  34.379  25.561   4.227
61117W        W22483  31.918  40.968   1.279
61118W        W22484   1.865  19.059   1.885
61119W        W22485   7.701  16.161   3.386
61120W        W22486  31.091  29.048   0.456
61121W        W22487  27.103  33.512   9.974
61122W        W22488  26.062  30.542   2.884
61123W        W22489  13.210  11.287  14.894
61124W        W22490  28.961  22.568  10.952
61125W        W22491   5.709   1.941  14.825
61126W        W22492  10.304  44.895  12.078
61127W        W22493  18.709  40.954  13.003
61128W        W22494  14.811   2.939   1.267
61129W        W22495  20.049  24.550  14.022
61130W        W22496   2.421  36.412   4.309
61131W        W22497   4.857   2.826  13.953
61132W        W22498  11.182   7.379   2.250
61133W        W22499  35.416  39.335   4.324
61134W        W22500  15.660   5.250  11.017
61135W        W22501  32.108  25.963  13.946
61136W        W22502   8.801  21.237   3.669
61137W        W22503  30.550  33.127   4.307
61138W        W22504   6.913  26.065  11.606
61139W        W22505  30.473  15.133   3.758
61140W        W22506  22.677  11.318   1.232
61141W        W22507  40.358   0.955  13.914
61142W        W22508  41.322   5.781   0.393
61143W        W22509  36.898  26.679   4.312
61144W        W22510  15.111  37.835   4.119
61145W        W22511   0.881   7.230  12.014
61146W        W22512  22.199   9.361  11.921
61147W        W22513  28.495  36.014   0.257
61148W        W22514  11.800  42.523  14.816
61149W        W22515   2.726  31.973  10.580
61150W        W22516  42.487   4.248  14.500
61151W        W22517   2.764  32.588  13.316
61152W        W22518  35.465   1.309   4.672
61153W        W22519  43.283  40.343  12.412
61154W        W22520  20.685  30.549  14.503
61155W        W22521   2.249  42.393  11.449
61156W        W22522  37.956  17.289   4.136
61157W        W22523  43.011  35.872   1.357
61158W        W22524  10.212  31.079  11.477
61159W        W22525  10.332  27.505   0.851
61160W        W22526  18.746  36.087  14.927
61161W        W22527  30.422  18.773  10.061
61162W        W22528  42.776  42.787  10.114
61163W        W22529  36.394  11.234  11.450
61164W        W22530  28.098  18.765   2.238
61165W        W22531   9.703   4.773  14.399
61166W        W22532  16.193  30.928   1.847
61167W        W22533  13.802   9.678  14.859
61168W        W22534  42.403   0.872   1.793
61169W        W22535   0.392  27.015  12.968
61170W        W22536  35.530  27.100  12.362
61171W        W22537  22.112   2.794  10.609
61172W        W22538  43.979   2.846  14.766
61173W        W22539   6.357   0.876   2.353
61174W        W22540   2.748  37.510  13.879
61175W        W22541   9.872   7.752   1.425
61176W        W22542  14.314  11.254   1.213
61177W        W22543   7.852   3.437   3.843
61178W        W22544  29.493   4.844   0.259
61179W        W22545   1.418  13.817  11.124
61180W        W22546  20.588  29.467  14.808
61181W        W22547  40.503  19.278   4.732
61182W        W22548  18.565  15.768  11.900
61183W        W22549  12.260  43.968   3.211
61184W        W22550  17.062   0.863   2.758
61185W        W22551  15.634  15.824  10.537
61186W        W22552  24.208  12.198  13.812
61187W        W22553  37.878  37.361   0.469
61188W        W22554  25.509  39.437  12.062
61189W        W22555  34.608   8.252   4.123
61190W        W22556   3.832  18.695  11.025
61191W        W22557  42.794   4.387  13.541
61192W        W22558  14.712  32.118  14.002
61193W        W22559   5.747  26.473   4.811
61194W        W22560  14.790  36.004   4.708
61195W        W22561  16.629  25.066   0.919
61196W        W22562   6.857  17.590   1.760
61197W        W22563  11.801   7.834   1.826
61198W        W22564  16.169   7.842  10.918
61199W        W22565  37.557   7.385   2.192
61200W        W22566  34.871  13.176   1.214
61201W        W22567  38.861  10.376   1.822
61202W        W22568  17.286  37.456   4.167
61203W        W22569  24.606  24.503  12.827
61204W        W22570  42.823  27.613   0.820
61205W        W22571  14.700   5.905  12.354
61206W        W22572  18.106  31.937  12.842
61207W        W22573  22.241  29.660  10.904
61208W        W22574  41.492   9.839  12.497
61209W        W22575  23.006  38.375  11.593
61210W        W22576  34.023   7.761  14.277
61211W        W22577  24.004  43.907   3.340
61212W        W22578  20.231  41.402   2.349
61213W        W22579  12.737  14.630  11.918
61214W        W22580  23.612   4.886   1.723
61215W        W22581  14.138   1.285  13.027
61216W        W22582   1.917  16.608  14.026
61217W        W22583  10.798  21.147  12.367
61218W        W22584   6.354  16.271   2.231
61219W        W22585  15.271   8.725  10.640
61220W        W22586  15.667   2.788   4.780
61221W        W22587   7.380  20.094  11.945
61222W        W22588  26.100   7.679   1.811
61223W        W22589   9.253  15.212   2.708
61224W        W22590  40.917   5.413   4.717
61225W        W22591  21.089   5.864   1.725
61226W        W22592  31.410  38.934   2.310
61227W        W22593  16.229  38.057   4.302
61228W        W22594  16.257   7.336   2.231
61229W        W22595  19.576  44.880   3.195
61230W        W22596  44.905  23.569  13.501
61231W        W22597  39.015  23.576   5.251
61232W        W22598  36.375  34.046  12.511
61233W        W22599  22.123  44.871  10.565
61234W        W22600  27.460  29.439  11.884
61235W        W22601  18.071   3.709  10.499
61236W        W22602  27.176  10.341  13.999
61237W        W22603  30.929  39.869   5.291
61238W        W22604  39.823  21.584   4.696
61239W        W22605  24.207   8.736  10.465
61240W        W22606  39.881  15.760  12.038
61241W        W22607   2.722  39.427  13.488
61242W        W22608   8.224  44.924   4.335
61243W        W22609   1.814  40.425  13.352
61244W        W22610  32.546  15.780  14.287
61245W        W22611   2.816  37.554   3.271
61246W        W22612   9.833  43.494  10.962
61247W        W22613   8.331  29.540   1.313
61248W        W22614   7.735  40.028   1.809
61249W        W22615  33.509  30.614  11.958
61250W        W22616  29.995  35.399  13.490
61251W        W22617  12.843  14.598  10.631
61252W        W22618   1.261   3.936   1.772
61253W        W22619  38.980  25.026   4.343
61254W        W22620  34.881   1.371  13.509
61255W        W22621  24.711  27.537  11.025
61256W        W22622  36.955  12.612   0.873
61257W        W22623  34.451  18.096  11.391
61258W        W22624   7.770  35.567   1.747
61259W        W22625  16.318   8.303  10.583
61260W        W22626  29.994  20.555  14.996
61261W        W22627   0.858  21.072  12.407
61262W        W22628  13.340  36.847  12.990
61263W        W22629   9.778  36.989   3.223
61264W        W22630  38.381  18.245  12.889
61265W        W22631  34.936  11.754  13.815
61266W        W22632  26.496  34.420  11.082
61267W        W22633  16.614  42.815  12.503
61268W        W22634  28.504   5.257  14.296
61269W        W22635  31.939   6.721   3.718
61270W        W22636  11.834  21.211   0.753
61271W        W22637  21.656   4.324   3.722
61272W        W22638  21.197   7.178  11.472
61273W        W22639  11.166  10.248   1.308
61274W        W22640  35.991  38.568  13.970
61275W        W22641  24.148  22.011  11.008
61276W        W22642  39.367   6.335  13.905
61277W        W22643  11.243  19.178   2.194
61278W        W22644  38.938  11.323  13.989
61279W        W22645  18.064  38.346  13.848
61280W        W22646  17.706  35.975   1.739
61281W        W22647  15.731   0.380  12.404
61282W        W22648  39.855  24.080   1.758
61283W        W22649  30.912  27.626  12.559
61284W        W22650  23.195  11.347   1.323
61285W        W22651   8.668  44.371  12.563
61286W        W22652  28.001   2.356   0.330
61287W        W22653   8.699  13.727  11.012
61288W        W22654  39.345   5.688  12.536
61289W        W22655  12.698  43.398  13.999
61290W        W22656  38.837  36.984  13.499
61291W        W22657  14.597  27.509   2.261
61292W        W22658  20.070  16.740  14.990
61293W        W22659   0.288   8.289   0.407
61294W        W22660  21.541  28.109  13.309
61295W        W22661  31.513   2.371  11.982
61296W        W22662  17.285  39.968   1.287
61297W        W22663  44.379  31.579  11.523
61298W        W22664   7.290  39.394   0.394
61299W        W22665  33.975  32.567  11.890
61300W        W22666  41.526  34.602  12.996
61301W        W22667  31.147  11.126   4.742
61302W        W22668  32.068   9.759  12.045
61303W        W22669  41.898  22.563   2.336
61304W        W22670  11.701  13.113   0.324
61305W        W22671  42.826  10.265   3.676
61306W        W22672  19.684  17.114   4.171
61307W        W22673  31.071  29.594  12.957
61308W        W22674  10.718  41.427  14.759
61309W        W22675  17.773  26.090  12.049
61310W        W22676  43.888   8.360  10.629
61311W        W22677  39.947  20.719   2.730
61312W        W22678  12.795  27.058   4.755
61313W        W22679  33.886   2.731   0.325
61314W        W22680   2.346  13.216  11.924
61315W        W22681  35.105  27.043  14.506
61316W        W22682  36.090  13.790   3.190
61317W        W22683  17.180   8.366  14.002
61318W        W22684  34.453  14.130  10.950
61319W        W22685  28.575  22.171  13.854
61320W        W22686  35.893  23.057   1.821
61321W        W22687  23.209  10.677   2.287
61322W        W22688  34.480  42.496  12.045
61323W        W22689  29.467  19.072   5.085
61324W        W22690   9.358  20.722   0.251
61325W        W22691   5.844  22.107   2.296
61326W        W22692  43.289   5.878  11.451
61327W        W22693   5.713  32.100   1.276
61328W        W22694  35.430   3.810   4.272
61329W        W22695  31.946  19.689   2.370
61330W        W22696  37.408   6.765  13.024
61331W        W22697  31.935  13.185   4.604
61332W        W22698  20.721  18.220   1.226
61333W        W22699  35.073  44.389   3.253
61334W        W22700  38.969  41.488  12.848
61335W        W22701  13.121  39.532   1.787
61336W        W22702  20.647   5.742  12.547
61337W        W22703  27.993  15.660  11.526
61338W        W22704  22.504  43.338  11.062
61339W        W22705  16.796  31.919   1.450
61340W        W22706  37.533  11.209   9.971
61341W        W22707  40.473  28.513  14.874
61342W        W22708  43.427  36.078  12.077
61343W        W22709  32.948  43.515   3.830
61344W        W22710  28.435  28.939   3.636
61345W        W22711   7.207  10.702   2.729
61346W        W22712  35.957  21.727   1.404
61347W        W22713   0.335  38.339   3.154
61348W        W22714  24.600  16.310   1.439
61349W        W22715   3.858  44.951  13.344
61350W        W22716  23.525  13.348  12.523
61351W        W22717  10.758  13.716  12.492
61352W        W22718  34.946  15.804   5.095
61353W        W22719  12.755  37.997   2.799
61354W        W22720  21.234  10.309  14.327
61355W        W22721  39.909   7.872  13.507
61356W        W22722  40.840  28.991  11.461
61357W        W22723   0.453  20.054   3.672
61358W        W22724  36.038  30.133   2.685
61359W        W22725  23.676  18.170  13.432
61360W        W22726  10.197   0.363   0.350
61361W        W22727  22.615  28.081  11.452
61362W        W22728  10.638  24.046   1.892
61363W        W22729  28.087   2.266   3.214
61364W        W22730  28.597  10.299  10.406
61365W        W22731  23.579  24.062   0.405
61366W        W22732  25.113   9.803   0.387
61367W        W22733  38.909  21.569   0.478
61368W        W22734   5.899  19.637   3.257
61369W        W22735  24.038  12.618  14.326
61370W        W22736  32.990   8.388  14.992
61371W        W22737  24.133  40.370   3.241
61372W        W22738  19.725  19.132  10.973
61373W        W22739  22.661  42.959  11.374
61374W        W22740  21.568  35.068  10.589
61375W        W22741  17.773  15.096  13.926
61376W        W22742  36.044  10.838  10.458
61377W        W22743  30.636  37.863   1.806
61378W        W22744  44.766  23.523  14.774
61379W        W22745  40.333   6.895  11.422
61380W        W22746  20.033  37.379  11.588
61381W        W22747  35.431  16.760  12.512
61382W        W22748   0.295  28.450  11.595
61383W        W22749  34.951   3.774   1.909
61384W        W22750  35.556  15.731  10.405
61385W        W22751  14.695  38.010  11.527
61386W        W22752  27.500  26.573   2.415
61387W        W22753  38.515  17.647  13.832
61388W        W22754  36.999  44.371   3.720
61389W        W22755  44.760  31.609  11.430
61390W        W22756  22.612  15.802   4.766
61391W        W22757  29.043  22.081   3.806
61392W        W22758  13.243  35.002   3.835
61393W        W22759  19.555   6.838  10.592
61394W        W22760   8.211  14.609  13.834
61395W        W22761  17.253  15.606  13.366
61396W        W22762  42.314  31.142  11.914
61397W        W22763  24.649   8.311   1.427
61398W        W22764  27.516   6.295   2.279
61399W        W22765  23.662  16.713   2.736
61400W        W22766  40.491   0.252  11.398
61401W        W22767  29.493  44.807   4.597
61402W        W22768  12.257  28.678  11.529
61403W        W22769  22.523   7.784   4.666
61404W        W22770  33.546   3.859   3.294
61405W        W22771  16.215  37.562  11.034
61406W        W22772  44.410  39.325   2.845
61407W        W22773   5.390  13.267   4.598
61408W        W22774  10.830  40.466  13.456
61409W        W22775   4.736  12.748  11.407
61410W        W22776   1.302  29.471  12.867
61411W        W22777  23.023   5.834  14.363
61412W        W22778  29.426  30.441   3.336
61413W        W22779  18.255  43.352  12.078
61414W        W22780  41.526  43.437   0.765
61415W        W22781  38.976  13.334   0.464
61416W        W22782  37.854   3.412  12.069
61417W        W22783  23.495  39.426   3.710
61418W        W22784  31.102  28.182  14.337
61419W        W22785  21.079  44.276   1.758
61420W        W22786  43.854   4.290  12.436
61421W        W22787  18.579  43.987  12.480
61422W        W22788  38.071   4.855   2.799
61423W        W22789  20.661  11.152  12.350
61424W        W22790  24.203  25.648  11.602
61425W        W22791  37.994  28.552   3.766
61426W        W22792  40.548  23.066   4.703
61427W        W22793  30.057  13.667   3.207
61428W        W22794  25.524  17.231   1.387
61429W        W22795  17.208  40.525  14.997
61430W        W22796  18.569  42.960  12.829
61431W        W22797  41.897  10.198  14.918
61432W        W22798  10.249  29.457   1.285
61433W        W22799  30.049  39.323   1.354
61434W        W22800   0.350  19.638  10.456
61435W        W22801  16.595   0.893  10.920
61436W        W22802  42.944  21.666   0.362
61437W        W22803   7.245  18.661  13.023
61438W        W22804  33.401  30.091  12.389
61439W        W22805  37.970  31.947  13.861
61440W        W22806  42.354  13.228   0.282
61441W        W22807  38.491  11.726   2.867
61442W        W22808  31.974  40.997   5.245
61443W        W22809  18.615  14.623   5.216
61444W        W22810  26.509   1.355   0.311
61445W        W22811  32.114   0.360   3.227
61446W        W22812   4.741   5.368   4.141
61447W        W22813   9.656   1.292   4.167
61448W        W22814  31.128  12.738   4.773
61449W        W22815   7.826  38.911  14.019
61450W        W22816  44.823  24.054   4.646
61451W        W22817  37.442  10.302  12.509
61452W        W22818  34.074  36.024  13.880
61453W        W22819  37.966  40.039  11.955
61454W        W22820  27.611  15.131   3.798
61455W        W22821  35.466   4.250   0.905
61456W        W22822  34.968  14.734   3.665
61457W        W22823   5.386  22.099   2.399
61458W        W22824  22.006   5.705   3.801
61459W        W22825  41.934  42.374   2.740
61460W        W22826  21.120   1.810  11.945
61461W        W22827  31.478  44.923   2.319
61462W        W22828  19.608   4.875   3.299
61463W        W22829  21.688  35.419  13.969
61464W        W22830  27.072  21.035   0.460
61465W        W22831  35.580  27.960  12.467
61466W        W22832   7.395  40.851   4.277
61467W        W22833  43.383   3.379  14.998
61468W        W22834   3.840  33.905  13.863
61469W        W22835  21.631  28.445   0.923
61470W        W22836  10.833  23.724  14.975
61471W        W22837  11.694  28.444   1.359
61472W        W22838  28.671  21.250  13.388
61473W        W22839  14.633  42.907  10.143
61474W        W22840  13.218  18.122  10.924
61475W        W22841  37.982  19.630   4.788
61476W        W22842   8.387  30.467  11.078
61477W        W22843  38.967   5.221   0.890
61478W        W22844  40.879  24.049   2.847
61479W        W22845  44.427  23.992  14.984
61480W        W22846  22.570  25.521   2.239
61481W        W22847  19.648  17.279   0.832
61482W        W22848  39.401   0.947  13.897
61483W        W22849   3.927  40.969   2.794
61484W        W22850  15.767  38.555   0.277
61485W        W22851  28.940  34.976  14.428
61486W        W22852  11.670  12.803   4.728
61487W        W22853  21.718  34.547   2.735
61488W        W22854  12.207  18.650  13.348
61489W        W22855  10.140  40.327  13.944
61490W        W22856  41.876  19.133  11.456
61491W        W22857  15.131  42.935   1.809
61492W        W22858  42.490  26.656  14.421
61493W        W22859  11.282  44.317   4.637
61494W        W22860  13.250  41.923   1.280
61495W        W22861  13.175   9.167  11.936
61496W        W22862  37.435  17.210   3.351
61497W        W22863  26.606  32.916   1.712
61498W        W22864  17.778  33.442  12.501
61499W        W22865   2.730  36.407  13.504
61500W        W22866  33.527  33.937   2.903
61501W        W22867  20.663   4.825   2.406
61502W        W22868   0.750   9.324   2.332
61503W        W22869  41.807  41.345  12.573
61504W        W22870  23.986  42.998  11.081
61505W        W22871   7.837  17.215   4.752
61506W        W22872   7.366  29.624   2.360
61507W        W22873  19.159  14.117   4.701
61508W        W22874  33.071  37.877  11.007
61509W        W22875  21.057  11.339  10.435
61510W        W22876   3.877  35.493  14.781
61511W        W22877  32.578   2.240  12.942
61512W        W22878  44.394   3.339  12.902
61513W        W22879  38.900  34.087  10.638
61514W        W22880  41.432  11.144  13.021
61515W        W22881  39.043  10.299  10.418
61516W        W22882  15.742  40.903   1.821
61517W        W22883  17.788  13.283  14.301
61518W        W22884  39.359  26.967  12.575
61519W        W22885  14.650  37.421  13.502
61520W        W22886   0.404  41.369   2.333
61521W        W22887  34.940  22.694   4.634
61522W        W22888  43.769   8.321   0.427
61523W        W22889  28.471  40.400  14.360
61524W        W22890  36.351  16.636  14.974
61525W        W22891  36.086  21.634   2.296
61526W        W22892  30.559  27.528   1.889
61527W        W22893  43.767   2.345   4.771
61528W        W22894   5.266  11.829  13.026
61529W        W22895  21.233  12.697  10.532
61530W        W22896  27.500  16.215   1.889
61531W        W22897  11.758  26.137   4.263
61532W        W22898  32.475   0.397   0.910
61533W        W22899  35.060   7.714   4.125
61534W        W22900  42.962  41.320   1.237
61535W        W22901   3.720  29.447  10.471
61536W        W22902  44.438  37.461  14.423
61537W        W22903   9.244  30.112  13.513
61538W        W22904   0.371  19.545   4.158
61539W        W22905  44.817  35.021   0.795
61540W        W22906   2.232  31.416   3.750
61541W        W22907  31.910   1.322   0.242
61542W        W22908   4.875  13.800  12.505
61543W        W22909  42.906  31.615  14.502
61544W        W22910  43.940  12.317  12.002
61545W        W22911  16.219  25.524  11.515
61546W        W22912   3.431   4.853  14.839
61547W        W22913   9.838  37.853   2.399
61548W        W22914  16.246  44.981   1.395
61549W        W22915  16.589  40.901  13.345
61550W        W22916  12.681  24.702  14.491
61551W        W22917  37.968  21.036   4.114
61552W        W22918  31.128  20.233   0.322
61553W        W22919  38.439  40.047   0.251
61554W        W22920   4.775  42.854  10.930
61555W        W22921  17.624  17.773   3.191
61556W        W22922  25.139  43.414   0.779
61557W        W22923  16.696  39.904  14.401
61558W        W22924  44.852   6.741  14.278
61559W        W22925   7.689  32.923  11.942
61560W        W22926  22.068  20.638  11.594
61561W        W22927  14.805  31.105   1.804
61562W        W22928  14.237  28.458  14.412
61563W        W22929  42.292  20.681  10.557
61564W        W22930   0.744  28.983  12.416
61565W        W22931  33.071  11.331  11.855
61566W        W22932  37.378   9.872  12.958
61567W        W22933  24.082  25.162   1.709
61568W        W22934  23.615  40.537  11.019
61569W        W22935  44.322  41.921   2.296
61570W        W22936  20.560  38.535   2.240
61571W        W22937  21.601  34.927  13.898
61572W        W22938  41.907  11.299  13.791
61573W        W22939  24.692   6.273  10.448
61574W        W22940  43.829  44.795  13.385
61575W        W22941   0.433   2.446  11.089
61576W        W22942  10.371  21.617  11.405
61577W        W22943  30.560  15.088  14.360
61578W        W22944  30.635  22.027  11.463
61579W        W22945  24.701  14.640  13.416
61580W        W22946  17.784   0.447   1.832
61581W        W22947   3.387  20.213   3.765
61582W        W22948  22.506  30.135   3.241
61583W        W22949  21.249  16.687  10.596
61584W        W22950  28.099  17.147   2.195
61585W        W22951   0.308  10.661   3.292
61586W        W22952  32.590  42.972   3.295
61587W        W22953  35.900  43.950   3.224
61588W        W22954  37.847   0.262  10.412
61589W        W22955  30.924   0.937   3.656
61590W        W22956  34.096  33.411   1.276
61591W        W22957   2.293  29.642  12.904
61592W        W22958  35.906  14.153   2.364
61593W        W22959  24.618  35.422  14.375
61594W        W22960  24.509  32.950   4.131
61595W        W22961  37.496  35.475   4.281
61596W        W22962   0.890  21.207   1.331
61597W        W22963  43.785  25.982  10.933
61598W        W22964   7.395   8.176  12.392
61599W        W22965   8.366  32.927   2.758
61600W        W22966  35.009  39.458   2.408
61601W        W22967  22.606  39.887   0.826
61602W        W22968  31.586  15.109  11.480
61603W        W22969   4.351  10.165   0.385
61604W        W22970  42.893   6.854  11.505
61605W        W22971  23.100  38.510  13.805
61606W        W22972   1.376  17.260   2.323
61607W        W22973  38.476  21.163  12.089
61608W        W22974  19.577  24.998  11.453
61609W        W22975  35.948  20.617  14.984
61610W        W22976  30.495  19.711   1.814
61611W        W22977  29.635   6.711  11.379
61612W        W22978  44.931  40.494  11.094
61613W        W22979  30.536  26.019   0.803
61614W        W22980  41.024  11.184  12.002
61615W        W22981  35.533  26.138   0.792
61616W        W22982   8.367  22.555  14.913
61617W        W22983  20.031   2.795  12.077
61618W        W22984  25.493  30.577  13.867
61619W        W22985  37.970  43.840   1.271
61620W        W22986  24.548  15.594   4.777
61621W        W22987  23.057  27.466  14.447
61622W        W22988  27.626   0.330   2.191
61623W        W22989   6.773  42.417  12.944
61624W        W22990  15.738  40.995  14.453
61625W        W22991  22.006  34.043  11.395
61626W        W22992  30.055  27.013  10.043
61627W        W22993   6.338  13.317  10.422
61628W        W22994   7.372  21.248  13.900
61629W        W22995  25.145   4.927  12.469
61630W        W22996  36.842  23.102  14.508
61631W        W22997   6.269   6.913   0.842
61632W        W22998  23.670  19.641   3.214
61633W        W22999  27.104  34.498  11.961
61634W        W23000   3.719  28.116   0.354
61635W        W23001  34.931  13.257  12.545
61636W        W23002  23.629  21.028  11.094
61637W        W23003   2.370  31.531   0.456
61638W        W23004   9.179   3.229   5.303
61639W        W23005  20.579   6.742  12.842
61640W        W23006   0.983  36.867  14.441
61641W        W23007  29.430  40.040  12.010
61642W        W23008  22.537   6.371  11.052
61643W        W23009  36.367  22.103   0.851
61644W        W23010   2.865  29.539   1.270
61645W        W23011  12.327  42.796  13.389
61646W        W23012  33.128  37.557   1.306
61647W        W23013   2.231   6.252   2.852
61648W        W23014  19.762   4.783   2.236
61649W        W23015   9.732  40.901   4.724
61650W        W23016  37.928  22.237   3.330
61651W        W23017  23.153  21.091   3.823
61652W        W23018  38.984  42.021  13.533
61653W        W23019  31.023  11.139   4.317
61654W        W23020  12.246  12.248  13.398
61655W        W23021  23.661   0.958   1.231
61656W        W23022  31.621  42.970   3.359
61657W        W23023  35.531  34.377   3.683
61658W        W23024  37.010  30.591   1.885
61659W        W23025  14.231  37.486  13.340
61660W        W23026  15.191  38.543   4.273
61661W        W23027  31.992  26.569   4.140
61662W        W23028   5.413  10.353   2.748
61663W        W23029  25.096  10.792   0.840
61664W        W23030   1.245  19.286  13.951
61665W        W23031  27.614  36.903  11.091
61666W        W23032  15.688  12.346  14.481
61667W        W23033  16.635   9.889   4.330
61668W        W23034  38.914   9.195  11.596
61669W        W23035  33.930  27.519  13.844
61670W        W23036  40.447  26.118  11.982
61671W        W23037  42.837  34.108  14.910
61672W        W23038   9.310  24.174  13.854
61673W        W23039  25.023  33.511  14.295
61674W        W23040   8.739   4.914  11.575
61675W        W23041   8.277   2.254  10.900
61676W        W23042  15.180  30.551  11.405
61677W        W23043   6.368  10.300  13.438
61678W        W23044  41.306   5.281  14.877
61679W        W23045  26.182  30.141  13.830
61680W        W23046  43.442  20.629   1.314
61681W        W23047   6.202  23.129  14.970
61682W        W23048   8.275   9.782  13.003
61683W        W23049  41.952  31.572   4.603
61684W        W23050  26.109   3.222   0.325
61685W        W23051  23.184   8.238  12.435
61686W        W23052   8.373  12.265  10.440
61687W        W23053  38.957  34.522   0.269
61688W        W23054  32.095   7.831  10.536
61689W        W23055  14.589  19.128   4.727
61690W        W23056  10.650  10.737   1.412
61691W        W23057  24.522   1.303   5.583
61692W        W23058  29.104   3.218  12.413
61693W        W23059  23.071  40.851   1.804
61694W        W23060  17.082  23.596  14.480
61695W        W23061  22.625  22.047   1.223
61696W        W23062  40.883  22.731  12.487
61697W        W23063  10.725   0.921  10.947
61698W        W23064  41.920  20.715   3.649
61699W        W23065   5.834  44.502  10.027
61700W        W23066  31.610   4.898   2.739
61701W        W23067  36.430   8.234  13.995
61702W        W23068  43.379   1.416  13.864
61703W        W23069  11.243   2.296   4.632
61704W        W23070  44.873   1.749   0.413
61705W        W23071   4.436  23.628  12.096
61706W        W23072   0.443  29.923   2.232
61707W        W23073  41.411  41.496  12.026
61708W        W23074  19.264  27.088  11.557
61709W        W23075  40.001   2.252  10.640
61710W        W23076  11.263   0.862   1.703
61711W        W23077  15.681   7.789  11.023
61712W        W23078  41.446  27.560  11.087
61713W        W23079  17.109  27.000   2.720
61714W        W23080  38.500  12.193  10.489
61715W        W23081  14.629  26.524  14.906
61716W        W23082  27.468  14.161   4.345
61717W        W23083  19.050  19.186   4.349
61718W        W23084  26.662  17.068   3.676
61719W        W23085   4.347   3.451  13.395
61720W        W23086  13.710  28.516  12.851
61721W        W23087  25.584  32.079  13.312
61722W        W23088  17.616  25.672  11.486
61723W        W23089   1.443  31.957   2.298
61724W        W23090  28.571  36.988  12.957
61725W        W23091  21.658  41.027  10.568
61726W        W23092   4.807  28.637  14.487
61727W        W23093   7.878  11.180  13.892
61728W        W23094  22.689  35.533   1.771
61729W        W23095  19.104   1.461  11.439
61730W        W23096  39.551  22.585   2.370
61731W        W23097  31.128  39.975  12.991
61732W        W23098  38.510   4.331   3.785
61733W        W23099  23.582  16.628   2.261
61734W        W23100  23.541   9.810   4.627
61735W        W23101  20.600  35.106   0.917
61736W        W23102   8.211  17.268  12.930
61737W        W23103  33.411   4.757  12.038
61738W        W23104  35.441  23.234  12.488
61739W        W23105  40.356  17.571  11.024
61740W        W23106  29.554  24.539  12.435
61741W        W23107  12.699  10.298   4.630
61742W        W23108  17.794  11.185   3.784
61743W        W23109  16.238  29.041   4.677
61744W        W23110  39.425  40.008   1.734
61745W        W23111   1.880  32.575   1.380
61746W        W23112  23.189  35.955  13.799
61747W        W23113  35.367  11.794  12.497
61748W        W23114  27.985  44.831  11.569
61749W        W23115  32.589   0.921   1.377
61750W        W23116  23.049  12.131   2.290
61751W        W23117  19.630   5.430  11.904
61752W        W23118  37.551  41.323  12.434
61753W        W23119  15.235  29.564  10.470
61754W        W23120   2.774  41.987   2.761
61755W        W23121   4.781  14.790   2.295
61756W        W23122  18.670  28.979   4.652
61757W        W23123   2.335  19.696  10.025
61758W        W23124  16.254  37.857  14.921
61759W        W23125  40.946   8.223  13.031
61760W        W23126  25.083  27.159   4.786
61761W        W23127  37.533   8.780  13.448
61762W        W23128  34.896  37.994   1.805
61763W        W23129  32.473  43.503   1.747
61764W        W23130   5.713  43.828  11.459
61765W        W23131   0.774   7.721   4.778
61766W        W23132  16.627   7.732  13.027
61767W        W23133  23.679  27.662   1.731
61768W        W23134   8.894  21.215  11.039
61769W        W23135  24.546  24.171   4.236
61770W        W23136  29.602  42.980  10.586
61771W        W23137  15.741  11.223  14.451
61772W        W23138  30.001  13.106   2.816
61773W        W23139  10.748  22.239   3.290
61774W        W23140   7.804  28.442   4.311
61775W        W23141  28.652  29.174   1.309
61776W        W23142  36.974   3.301  14.016
61777W        W23143   5.703   3.793   0.376
61778W        W23144  36.517   6.920   3.805
61779W        W23145  19.244  32.451  10.422
61780W        W23146   6.222  37.948   3.320
61781W        W23147  34.965  18.070  12.042
61782W        W23148  10.335  24.534   1.243
61783W        W23149   6.344  14.307  14.780
61784W        W23150  43.994  22.164   0.774
61785W        W23151  28.012  41.302  12.359
61786W        W23152  13.276  30.425   2.208
61787W        W23153  17.579  39.835   0.452
61788W        W23154  29.551  36.586  13.899
61789W        W23155  10.321   9.712  10.056
61790W        W23156  11.330   7.337   3.241
61791W        W23157  22.242  41.977  14.369
61792W        W23158  28.055  28.166  12.370
61793W        W23159  33.456  20.667   4.640
61794W        W23160  22.042  22.200  13.310
61795W        W23161  10.794   6.278   2.732
61796W        W23162  12.814  16.093  11.123
61797W        W23163   5.219   5.739   4.777
61798W        W23164  19.580  40.433  11.492
61799W        W23165  27.486  12.838  14.364
61800W        W23166  22.565  12.794   3.287
61801W        W23167   5.418  21.684   1.406
61802W        W23168  41.917  25.580  14.839
61803W        W23169   6.391  31.142  13.317
61804W        W23170  42.802  29.547   2.248
61805W        W23171   6.288   8.744  11.571
61806W        W23172  19.578  30.620  13.928
61807W        W23173  11.312  21.700   3.648
61808W        W23174  14.101   5.372   3.761
61809W        W23175  41.020  10.873   1.335
61810W        W23176  39.322  36.444   4.121
61811W        W23177  27.583  22.597   0.269
61812W        W23178  15.123  19.632  14.956
61813W        W23179  24.061  32.064  10.418
61814W        W23180  12.174  37.075  11.564
61815W        W23181  35.374  10.876   3.862
61816W        W23182  11.274  41.790   3.840
61817W        W23183   5.770  44.911  13.017
61818W        W23184   0.864  33.107  11.472
61819W        W23185  21.643  14.798   0.899
61820W        W23186  33.482   4.943  13.987
61821W        W23187  43.794  20.748  10.444
61822W        W23188  38.472  24.507  14.389
61823W        W23189  19.069  22.627   4.655
61824W        W23190   2.275  34.925  10.988
61825W        W23191   1.297  28.441  13.948
61826W        W23192   0.965  38.546  11.914
61827W        W23193  34.078  43.470  13.036
61828W        W23194  11.220   9.747   0.306
61829W        W23195  22.058   8.401  13.003
61830W        W23196  14.797  37.518   3.306
61831W        W23197   6.391  34.863   3.325
61832W        W23198  37.905  40.986   3.340
61833W        W23199  10.711  16.600   3.343
61834W        W23200   7.366  23.017   2.898
61835W        W23201   9.799  18.190   2.215
61836W        W23202  20.034  35.901  13.034
61837W        W23203  24.203   7.211  14.505
61838W        W23204   9.677  20.636  13.893
61839W        W23205  43.973  30.463   3.322
61840W        W23206  30.947  13.657   4.712
61841W        W23207   8.848   5.910   9.975
61842W        W23208   7.316  29.649  12.473
61843W        W23209  34.977  20.183   0.933
61844W        W23210  19.214  14.735   5.189
61845W        W23211   3.811  10.220   0.457
61846W        W23212  19.181   1.368   2.737
61847W        W23213  29.006  21.630  11.057
61848W        W23214  20.126   7.411  11.890
61849W        W23215   7.257   6.760  11.391
61850W        W23216  16.183  38.899  13.475
61851W        W23217  43.949  39.875   1.923
61852W        W23218  27.637  26.659  11.556
61853W        W23219   4.290   4.779  14.814
61854W        W23220  26.197  14.287   1.349
61855W        W23221  18.706   8.899   2.302
61856W        W23222   6.401  10.860   0.854
61857W        W23223  17.111  26.613   2.273
61858W        W23224   1.429   4.266  12.966
61859W        W23225  27.973  43.798   3.253
61860W        W23226  34.053  27.567  11.598
61861W        W23227   1.354   5.301   2.238
61862W        W23228  42.938  22.704  12.988
61863W        W23229  35.046  25.648  11.875
61864W        W23230  41.915  24.673  14.436
61865W        W23231  41.867  39.953  13.922
61866W        W23232   7.875  43.312   1.886
61867W        W23233  33.411  33.602  13.926
61868W        W23234  39.328   2.402  13.380
61869W        W23235  10.254  20.127  14.418
61870W        W23236  37.508  19.103  10.406
61871W        W23237  18.059  18.586  10.518
61872W        W23238  42.776   5.844   3.746
61873W        W23239  11.823  18.560   3.328
61874W        W23240  36.908  39.418   3.721
61875W        W23241  31.022  39.865   1.843
61876W        W23242  35.930  24.067  11.457
61877W        W23243   8.242  34.115  14.879
61878W        W23244  20.556  22.094  12.051
61879W        W23245  34.033  15.211  12.997
61880W        W23246  40.498  10.668  11.063
61881W        W23247   8.321  15.107  11.128
61882W        W23248  14.825  10.260   2.258
61883W        W23249  36.565  22.161   4.246
61884W        W23250  25.570  42.333   0.478
61885W        W23251  10.220  29.451   2.351
61886W        W23252  11.320  26.698  14.799
61887W        W23253  14.096  19.039  12.068
61888W        W23254  18.070  25.574  11.009
61889W        W23255  40.531  34.946   4.766
61890W        W23256   9.644  22.053  12.492
61891W        W23257  22.070  42.497   4.190
61892W        W23258  14.801  28.091   3.281
61893W        W23259  10.696   7.826  13.429
61894W        W23260  29.153  10.657   4.230
61895W        W23261  42.869   8.678   0.735
61896W        W23262  41.385  10.282  11.914
61897W        W23263  43.929  28.999   2.764
61898W        W23264  35.473  20.700   1.719
61899W        W23265  23.025   7.280  12.059
61900W        W23266  36.082  25.539  12.927
61901W        W23267  26.095  14.796  10.484
61902W        W23268  42.350  21.714  10.893
61903W        W23269  12.226  44.834  11.376
61904W        W23270  19.188  15.602  11.000
61905W        W23271   4.804  39.867   2.223
61906W        W23272  36.921   0.770   0.287
61907W        W23273  13.755   0.918   0.387
61908W        W23274  14.595  23.567   2.875
61909W        W23275   8.221  35.001   2.814
61910W        W23276   0.393   3.321  14.423
61911W        W23277  21.074  22.222  14.379
61912W        W23278  28.059  28.014  11.385
61913W        W23279  41.921  40.363   3.653
61914W        W23280  44.376  40.495  10.503
61915W        W23281  30.954  41.794   1.894
61916W        W23282  27.499  16.142   4.706
61917W        W23283  10.871  22.509   4.186
61918W        W23284  21.054  15.088  13.321
61919W        W23285   3.374  25.158  13.447
61920W        W23286  37.543  11.263  12.918
61921W        W23287  43.986   9.306  13.510
61922W        W23288  29.144  19.208  10.637
61923W        W23289  24.612  16.216   4.790
61924W        W23290  41.505  38.000  14.300
61925W        W23291  40.310  22.146   1.848
61926W        W23292   6.740  36.396   3.832
61927W        W23293  31.009  22.084   0.481
61928W        W23294  10.156  20.125   2.786
61929W        W23295  30.514  35.855   4.793
61930W        W23296   4.753  20.045  11.506
61931W        W23297  44.819  25.988   9.464
61932W        W23298  22.671  39.990  13.893
61933W        W23299  17.790  43.856  13.390
61934W        W23300  25.564  15.797  12.562
61935W        W23301  18.274  35.055   3.227
61936W        W23302  36.582  12.675   0.916
61937W        W23303  16.643  27.118   2.678
61938W        W23304  22.246  21.755   0.742
61939W        W23305  27.185  25.002   0.289
61940W        W23306  28.127   8.655  11.492
61941W        W23307  29.476   8.845   0.296
61942W        W23308   5.340  28.107   3.726
61943W        W23309  44.460  12.775   3.691
61944W        W23310  24.073  29.049  10.478
61945W        W23311  26.642  39.891   4.322
61946W        W23312  20.129   5.228   4.230
61947W        W23313  44.362  44.370  12.059
61948W        W23314   3.767  42.298   1.343
61949W        W23315   6.295  36.370   3.318
61950W        W23316  21.540  35.926   2.854
61951W        W23317  24.492  23.591  14.891
61952W        W23318  28.489   9.252   0.354
61953W        W23319  44.997  28.532   5.805
61954W        W23320  35.930  17.301  11.489
61955W        W23321  34.457  21.092  12.369
61956W        W23322  27.945  32.944  11.000
61957W        W23323  24.640  22.659   3.788
61958W        W23324  30.558  35.452  14.340
61959W        W23325  18.685  28.030  11.938
61960W        W23326  17.598   5.218  11.488
61961W        W23327  41.801  44.437   2.847
61962W        W23328  11.644  20.578  12.512
61963W        W23329   5.387  16.659   0.872
61964W        W23330  12.277  44.973  10.926
61965W        W23331  15.129  20.612   1.449
61966W        W23332  38.390  40.436   0.861
61967W        W23333  13.654  34.933   2.374
61968W        W23334  29.052   8.366   1.928
61969W        W23335  33.093  23.511   1.743
61970W        W23336  40.347  38.453  12.846
61971W        W23337  39.527  36.473   3.867
61972W        W23338  24.569  42.471  12.452
61973W        W23339  32.100  23.500   3.200
61974W        W23340   5.784   2.788   2.782
61975W        W23341  36.991  23.491   3.777
61976W        W23342  13.741  43.336   0.242
61977W        W23343   0.274  22.569   2.335
61978W        W23344   1.434  37.051   4.289
61979W        W23345   4.256  19.539   0.778
61980W        W23346   2.951  16.110  13.531
61981W        W23347  21.585  24.522  10.562
61982W        W23348  41.401  32.963  11.595
61983W        W23349   9.671  32.067   1.228
61984W        W23350  11.179  29.670   1.317
61985W        W23351   6.304  37.873   1.324
61986W        W23352  33.508  31.005  12.547
61987W        W23353  11.198  28.945  11.496
61988W        W23354  31.437  15.757  12.891
61989W        W23355  26.681  23.097  12.534
61990W        W23356  42.358  15.267  14.793
61991W        W23357  26.194   8.688   0.808
61992W        W23358   8.669   2.775  10.524
61993W        W23359  34.512  35.974   1.773
61994W        W23360   4.360  13.113   2.851
61995W        W23361  17.304  23.551  10.928
61996W        W23362   5.903  27.134  14.906
61997W        W23363  44.779  40.946  12.878
61998W        W23364  30.523  20.606   1.716
61999W        W23365  44.326  16.304   0.422
62000W        W23366  33.898  27.648   4.670
62001W        W23367  22.613  40.033  12.889
62002W        W23368  41.896  33.595  12.855
62003W        W23369  40.526  44.456   2.305
62004W        W23370   7.799  42.806  12.341
62005W        W23371  19.578  15.787   0.949
62006W        W23372  34.928  43.295   3.714
62007W        W23373  30.423  15.132  13.493
62008W        W23374  44.899  25.184  13.874
62009W        W23375  28.481  32.393   1.223
62010W        W23376  41.375  25.043  13.018
62011W        W23377   5.907  38.019  11.374
62012W        W23378  42.826  27.104  14.330
62013W        W23379  43.299  12.731   3.306
62014W        W23380   4.864  16.131   2.327
62015W        W23381  42.858  41.894   4.708
62016W        W23382  12.697  37.046   0.253
62017W        W23383  32.446  34.981   0.399
62018W        W23384  36.545  30.136   4.693
62019W        W23385  31.053  24.990  10.979
62020W        W23386  14.125  35.904   0.937
62021W        W23387  13.207   3.711  12.532
62022W        W23388  24.063  39.048  11.905
62023W        W23389   4.422  27.498   2.736
62024W        W23390  25.213  36.591  14.376
62025W        W23391   2.379  19.581   2.772
62026W        W23392   3.797  18.776   2.759
62027W        W23393  32.586   1.796  12.369
62028W        W23394   9.339  19.542   4.330
62029W        W23395  35.399  17.715   2.260
62030W        W23396   4.740  16.282  13.052
62031W        W23397  24.023   4.214   1.370
62032W        W23398  16.643  31.431   0.849
62033W        W23399  14.125  34.602   1.353
62034W        W23400  40.919  43.392   1.275
62035W        W23401  24.130  44.497  14.848
62036W        W23402   8.394  12.257   1.450
62037W        W23403  37.369  12.143   4.307
62038W        W23404  33.024  20.235   2.825
62039W        W23405  29.652  31.428   4.832
62040W        W23406   9.187  24.218   3.195
62041W        W23407   0.329  23.060   4.664
62042W        W23408   6.233   2.341   3.259
62043W        W23409  22.099   9.201  13.874
62044W        W23410  29.005  12.734   4.610
62045W        W23411  27.484   4.430  12.084
62046W        W23412  22.052  42.427   2.834
62047W        W23413  18.254  24.694   0.276
62048W        W23414  41.407  39.543   1.332
62049W        W23415  28.662  11.700  13.500
62050W        W23416  32.041  28.458   1.718
62051W        W23417  30.147  38.037   0.882
62052W        W23418  40.454  42.913  10.934
62053W        W23419   1.838  23.168  13.927
62054W        W23420  33.441  18.280   1.762
62055W        W23421  21.169  27.967  12.011
62056W        W23422  42.466  15.803   1.409
62057W        W23423  19.216  22.111   2.803
62058W        W23424  36.513   3.788  13.030
62059W        W23425  40.987  16.203  14.920
62060W        W23426  42.867  37.570  11.585
62061W        W23427  25.687  20.576  11.449
62062W        W23428   2.446  38.541  12.986
62063W        W23429  32.046   2.280  12.068
62064W        W23430  25.626  13.195  11.911
62065W        W23431   7.890  30.469  12.462
62066W        W23432  21.177  37.897   1.444
62067W        W23433  31.937  10.288  11.412
62068W        W23434   3.396  41.012   2.236
62069W        W23435  18.174   2.939   3.820
62070W        W23436   6.400  18.186   1.901
62071W        W23437  20.737  15.715  11.936
62072W        W23438  42.785   6.901   0.301
62073W        W23439  33.971  39.432   4.124
62074W        W23440  15.238  16.207  11.408
62075W        W23441  32.526  20.767   4.119
62076W        W23442   6.844  41.906   3.243
62077W        W23443  33.485  33.046  14.768
62078W        W23444  26.087   4.717   2.831
62079W        W23445  40.932  33.384   0.788
62080W        W23446  31.471  40.355  10.032
62081W        W23447  33.487   4.272  13.320
62082W        W23448  11.760  12.249  14.934
62083W        W23449  44.483  31.408   3.158
62084W        W23450   9.198   1.467   2.711
62085W        W23451  16.213  29.024  12.882
62086W        W23452  20.646  20.231  13.932
62087W        W23453  11.367  32.567  14.393
62088W        W23454   8.402  43.791   0.876
62089W        W23455  24.184   0.801  10.408
62090W        W23456   4.793  10.268  11.401
62091W        W23457  10.804  42.350  13.849
62092W        W23458  35.555  43.486   1.895
62093W        W23459  10.792  15.793  14.435
62094W        W23460  25.062  35.864  11.977
62095W        W23461  13.700  24.511   0.320
62096W        W23462  28.010  11.840  10.549
62097W        W23463   3.304  38.030   0.247
62098W        W23464  14.660  31.152   5.153
62099W        W23465  18.670  35.405  11.518
62100W        W23466  23.619   5.887   3.366
62101W        W23467  12.160  28.154  10.421
62102W        W23468  17.700   0.318   1.451
62103W        W23469   0.387   4.370  10.511
62104W        W23470  23.694  23.035  14.014
62105W        W23471  20.093  27.526  11.460
62106W        W23472   1.458  19.715  12.950
62107W        W23473  11.808  33.951   4.198
62108W        W23474  19.225  36.011   2.416
62109W        W23475   3.861  43.464   1.740
62110W        W23476  43.364  35.426  10.410
62111W        W23477  37.503  31.036   4.836
62112W        W23478  25.125  19.200   0.914
62113W        W23479  29.506  34.467   1.813
62114W        W23480   1.764   1.966  11.078
62115W        W23481  27.583  15.630   0.275
62116W        W23482   9.835  28.186   4.632
62117W        W23483  23.994  30.470   4.700
62118W        W23484  38.014   2.422   0.308
62119W        W23485   2.410  26.492  14.342
62120W        W23486   4.437   2.884  12.985
62121W        W23487   8.201  23.599  14.369
62122W        W23488  42.375   4.749   4.770
62123W        W23489  12.632  34.609  12.935
62124W        W23490  11.198  14.646   2.283
62125W        W23491  12.813  37.991  13.924
62126W        W23492  30.425   6.885  14.966
62127W        W23493  39.008  42.328  11.857
62128W        W23494   2.770  19.534   2.195
62129W        W23495  30.080  11.719  12.520
62130W        W23496  10.160  32.418  14.505
62131W        W23497  33.577   1.814  10.109
62132W        W23498  14.739  26.087  13.387
62133W        W23499  27.544  27.636  12.444
62134W        W23500  19.091  18.150   2.773
62135W        W23501   6.407  28.950  14.940
62136W        W23502  21.697   5.930  11.978
62137W        W23503  31.014  39.845   2.854
62138W        W23504  30.452  17.157  13.528
62139W        W23505  14.718  22.163   1.780
62140W        W23506  21.103  26.058  13.514
62141W        W23507   8.172  36.962  12.011
62142W        W23508  38.403  25.046   4.816
62143W        W23509  14.728  31.085  12.090
62144W        W23510  39.907  32.405  11.015
62145W        W23511   5.202  28.650  10.899
62146W        W23512  29.975  27.620  13.047
62147W        W23513  19.074   9.259   1.902
62148W        W23514  35.944  33.905   4.656
62149W        W23515  30.627  19.165   5.586
62150W        W23516  10.164  23.615  12.384
62151W        W23517  18.096  25.566   4.156
62152W        W23518  28.562  40.358   0.460
62153W        W23519   4.341  21.729  14.416
62154W        W23520  29.428  41.398  13.915
62155W        W23521  20.747  41.459   0.761
62156W        W23522   7.280  31.444  14.926
62157W        W23523   3.368  38.848   1.400
62158W        W23524  30.500   9.201  13.352
62159W        W23525  18.248  37.969   2.872
62160W        W23526  43.830  24.149  10.524
62161W        W23527  10.255   3.239  14.820
62162W        W23528  10.251  14.759  12.408
62163W        W23529  22.997   8.207   3.782
62164W        W23530  17.661  13.317   3.246
62165W        W23531  22.533  22.212   1.790
62166W        W23532  16.804  29.438  13.868
62167W        W23533   0.791  10.255  11.933
62168W        W23534  27.673  10.838   2.242
62169W        W23535  28.930  15.717   1.354
62170W        W23536  28.457  11.626   2.754
62171W        W23537  33.397  39.967  14.353
62172W        W23538  33.047  39.525   3.372
62173W        W23539   3.431  14.119  13.346
62174W        W23540  32.441  28.187  11.407
62175W        W23541   3.902  18.702   3.210
62176W        W23542   4.243  11.292   1.347
62177W        W23543  33.981  20.758   5.637
62178W        W23544   8.711   7.780   4.236
62179W        W23545   9.867  40.412  14.931
62180W        W23546  36.521  20.105   0.889
62181W        W23547  10.227   9.161   1.729
62182W        W23548  28.014  15.800  11.118
62183W        W23549  24.576  10.804   2.777
62184W        W23550  20.710  22.040   3.740
62185W        W23551  23.515  42.023   3.205
62186W        W23552  13.691  27.633   4.288
62187W        W23553  36.427   0.935  12.050
62188W        W23554  35.430  27.036  10.537
62189W        W23555  33.535  14.817  12.073
62190W        W23556  37.405  33.485   2.708
62191W        W23557  41.945  35.529   1.898
62192W        W23558  19.684   2.396   4.776
62193W        W23559  10.833  40.963  12.870
62194W        W23560  30.045  22.242  11.522
62195W        W23561   2.469  15.158   0.463
62196W        W23562  10.247   8.199   0.800
62197W        W23563  28.643  15.312   2.881
62198W        W23564  36.982   2.383  12.557
62199W        W23565  32.957   3.777   1.285
62200W        W23566   4.385  13.346  11.985
62201W        W23567  11.240  23.635   2.366
62202W        W23568   2.252  16.647  12.505
62203W        W23569  26.147  25.138   3.772
62204W        W23570   0.441  17.704  11.375
62205W        W23571   9.649  20.743   2.288
62206W        W23572  28.077  14.108  13.997
62207W        W23573  27.989  32.064  12.515
62208W        W23574   7.377  12.735  13.511
62209W        W23575  25.055  34.601   3.636
62210W        W23576  43.828  30.966  13.521
62211W        W23577  26.037  17.710  13.016
62212W        W23578  30.480   0.819   2.414
62213W        W23579   2.855  14.183   4.659
62214W        W23580  26.118  22.085  11.599
62215W        W23581  20.559  42.515  13.061
62216W        W23582  30.655  17.284  11.499
62217W        W23583  39.031  13.314   3.214
62218W        W23584   2.308  20.088  11.986
62219W        W23585  41.994   8.807   0.849
62220W        W23586  22.652  18.176  14.817
62221W        W23587   1.765  44.869  13.966
62222W        W23588  38.535  22.561   2.208
62223W        W23589  31.591  15.808   3.375
62224W        W23590   7.204  23.133  13.416
62225W        W23591   1.482   9.741   0.355
62226W        W23592  12.626   1.293   2.344
62227W        W23593   6.808   2.751   5.293
62228W        W23594  27.567  40.004   2.682
62229W        W23595  38.956  20.635   2.739
62230W        W23596  20.622   9.778   4.711
62231W        W23597  30.108  32.559  13.372
62232W        W23598  42.428  23.105   2.812
62233W        W23599  34.088  44.766   2.195
62234W        W23600   5.282   7.177   3.287
62235W        W23601   0.329  39.022   1.824
62236W        W23602  18.118  13.634   0.872
62237W        W23603  21.067  16.709   1.422
62238W        W23604  15.645   7.890   2.834
62239W        W23605  38.048  13.346   0.415
62240W        W23606  41.936  30.948   3.818
62241W        W23607  12.360  19.570   2.759
62242W        W23608  31.513  14.238   2.695
62243W        W23609  25.195  41.946   4.801
62244W        W23610  36.015   3.436   2.360
62245W        W23611  17.625   2.362   2.752
62246W        W23612  44.339   7.884   5.086
62247W        W23613   8.263  15.725   0.366
62248W        W23614  19.775   8.684   3.847
62249W        W23615  13.349   9.286   4.333
62250W        W23616  33.409  26.548   0.803
62251W        W23617  28.442  16.658   0.818
62252W        W23618  38.929  22.705   0.247
62253W        W23619  20.547  19.222  12.976
62254W        W23620  36.072  32.602  14.968
62255W        W23621  13.228  37.837   1.432
62256W        W23622  29.013  24.651   0.928
62257W        W23623  26.175   7.786  12.432
62258W        W23624  44.284  37.945   4.343
62259W        W23625   0.806   8.728   2.230
62260W        W23626   4.271  43.876   1.781
62261W        W23627  28.104  20.098   2.279
62262W        W23628  32.068   8.217   2.346
62263W        W23629  26.137  38.929   2.791
62264W        W23630   7.874  26.503   0.244
62265W        W23631  32.487  19.600   1.849
62266W        W23632  28.510  21.576  12.571
62267W        W23633  21.591  33.075  10.132
62268W        W23634  19.083  35.594   4.214
62269W        W23635  15.580   0.875  13.454
62270W        W23636   1.936   9.851  14.426
62271W        W23637  10.842  39.982   1.425
62272W        W23638  42.446   3.724   3.752
62273W        W23639   6.830  35.545   4.132
62274W        W23640   6.404   7.344  10.912
62275W        W23641  27.067  11.175  13.496
62276W        W23642  22.571   3.367  12.852
62277W        W23643  44.433  18.570   2.678
62278W        W23644  13.819  22.107  11.413
62279W        W23645  24.033  44.782   0.960
62280W        W23646  23.720   5.362  11.406
62281W        W23647   3.834  44.433   4.803
62282W        W23648  21.619   9.826  13.928
62283W        W23649  44.456  36.080   2.229
62284W        W23650  16.167  24.524  12.470
62285W        W23651   3.311  35.097   4.616
62286W        W23652  28.029  11.649   0.289
62287W        W23653   9.213  18.659  13.923
62288W        W23654  18.100  27.003   2.838
62289W        W23655   1.308  13.171   0.939
62290W        W23656   0.947  44.484   3.317
62291W        W23657  22.626  31.481   3.303
62292W        W23658   1.815  21.193  13.498
62293W        W23659   7.770  44.396   4.723
62294W        W23660  37.893  31.452   2.662
62295W        W23661  16.615  10.695  13.793
62296W        W23662  39.467  21.186   2.766
62297W        W23663   9.184  27.142   0.356
62298W        W23664   9.252   3.762  10.912
62299W        W23665  23.070  17.241   3.788
62300W        W23666  31.059  19.176   3.305
62301W        W23667  15.204  27.534  14.498
62302W        W23668   6.282  13.722  10.434
62303W        W23669   5.199   8.759   4.687
62304W        W23670  24.163  21.055   0.457
62305W        W23671   1.878   8.848   2.876
62306W        W23672  44.961  30.516   2.391
62307W        W23673  15.139  13.613  11.934
62308W        W23674  22.645  21.714  13.996
62309W        W23675  32.084   2.384   4.337
62310W        W23676  13.305  37.494  12.516
62311W        W23677   7.691  31.423  14.471
62312W        W23678  12.197  30.153  12.406
62313W        W23679  13.779  32.062   1.746
62314W        W23680  41.995  39.525  10.483
62315W        W23681  17.109  25.533  10.474
62316W        W23682  12.749  28.492  13.348
62317W        W23683  25.563   8.808   0.731
62318W        W23684  23.592  25.614   4.262
62319W        W23685  22.585  31.544   1.935
62320W        W23686  20.559  31.983  12.924
62321W        W23687  34.964  38.994  14.324
62322W        W23688  13.185  35.070  11.523
62323W        W23689  12.204  19.199   4.317
62324W        W23690  24.581  38.878  10.906
62325W        W23691  10.189   3.252   2.228
62326W        W23692  38.829  18.277  13.928
62327W        W23693  14.667  31.529   0.734
62328W        W23694   1.919  17.250  13.874
62329W        W23695  31.002   4.366  12.488
62330W        W23696   9.715  15.320   3.259
62331W        W23697   9.215  16.786   4.802
62332W        W23698  15.213   3.754  12.919
62333W        W23699  37.021  25.006  12.552
62334W        W23700  10.671  37.963   3.867
62335W        W23701  19.110  29.446  11.017
62336W        W23702  28.522  37.397   3.809
62337W        W23703  22.183   9.258  12.516
62338W        W23704  31.612  19.198   2.884
62339W        W23705   2.901   6.257   2.275
62340W        W23706   3.749  36.912   0.822
62341W        W23707   4.415  27.639  11.065
62342W        W23708  25.673   8.356  11.383
62343W        W23709  34.928   8.349   4.810
62344W        W23710  23.733  17.755   4.735
62345W        W23711  41.902  24.020  13.924
62346W        W23712  30.067  33.064  10.500
62347W        W23713  10.745   0.820  12.083
62348W        W23714  35.466  40.394  14.953
62349W        W23715  12.273  30.966  12.398
62350W        W23716   5.318  20.249  11.072
62351W        W23717  12.150  11.851   1.411
62352W        W23718  26.117  13.698  12.974
62353W        W23719  17.671  37.552  12.361
62354W        W23720  31.903   6.349  12.864
62355W        W23721   2.385  32.140   2.846
62356W        W23722  18.075  26.656   2.664
62357W        W23723  37.925   7.178  12.911
62358W        W23724  16.631  26.638  13.341
62359W        W23725  36.920  20.199   1.300
62360W        W23726  13.319  13.779   4.338
62361W        W23727  38.327  44.263   4.687
62362W        W23728   3.242  13.276  10.524
62363W        W23729   9.243  13.802   4.688
62364W        W23730  43.909  28.607   4.352
62365W        W23731   6.708  42.479   2.787
62366W        W23732  42.847   6.184   1.859
62367W        W23733  19.737   7.274  11.029
62368W        W23734  35.020  44.009  10.057
62369W        W23735  13.228  22.170  12.978
62370W        W23736  30.643  16.206  12.502
62371W        W23737  32.047  18.094  13.374
62372W        W23738  27.631  28.977  12.554
62373W        W23739  27.685  27.563  12.875
62374W        W23740  16.735  44.377  13.464
62375W        W23741  18.054  11.280  14.484
62376W        W23742  43.389   9.314   0.437
62377W        W23743  25.579  38.428   1.222
62378W        W23744  40.943  14.734  13.485
62379W        W23745   8.347  41.788   0.267
62380W        W23746  26.172   0.891  11.376
62381W        W23747  30.150  30.082   3.773
62382W        W23748   5.743  27.131  10.571
62383W        W23749  33.487   1.254  14.509
62384W        W23750  19.170  13.200   0.388
62385W        W23751   6.770  26.154   2.286
62386W        W23752  36.411  42.336  13.433
62387W        W23753  32.905  28.593  13.027
62388W        W23754  24.617  18.615  12.511
62389W        W23755   5.792  18.551  14.428
62390W        W23756  26.521  32.108   2.384
62391W        W23757  29.547  17.308  13.425
62392W        W23758   0.848  20.535   2.212
62393W        W23759  37.495   9.154  10.551
62394W        W23760   8.290  40.362   2.357
62395W        W23761  27.096  27.056  11.568
62396W        W23762  38.929  36.503   2.215
62397W        W23763  41.333  13.210  10.576
62398W        W23764  34.891  35.955  13.340
62399W        W23765  32.926   4.828   1.785
62400W        W23766  42.978  33.947  12.014
62401W        W23767  13.205  14.103   2.383
62402W        W23768  15.725  10.274  14.453
62403W        W23769  40.855  30.924  12.959
62404W        W23770  43.891  19.614   3.668
62405W        W23771  43.330  18.262   2.398
62406W        W23772   2.857  11.293  13.379
62407W        W23773  44.340  37.356   3.658
62408W        W23774  23.189  25.091   0.246
62409W        W23775   9.372  30.013   3.847
62410W        W23776   0.361  35.570  11.551
62411W        W23777  13.215   8.736  13.518
62412W        W23778  17.140  28.056  11.513
62413W        W23779  15.713  13.322   5.776
62414W        W23780  31.417  34.576   3.855
62415W        W23781  17.201  12.160   3.770
62416W        W23782  32.109  35.914  13.851
62417W        W23783   1.314  34.467   2.737
62418W        W23784  30.151  40.044   2.826
62419W        W23785  44.498  28.149   3.310
62420W        W23786  39.949   1.298   0.924
62421W        W23787  28.047  32.926  11.902
62422W        W23788   3.347  11.638  11.975
62423W        W23789  25.203  33.526   2.751
62424W        W23790  23.046  38.019   0.367
62425W        W23791  14.136  33.089  11.085
62426W        W23792  30.609  44.454  14.291
62427W        W23793   5.931  40.821  10.579
62428W        W23794  10.313  12.774  14.845
62429W        W23795   8.685   8.741  12.447
62430W        W23796  18.685  26.107   4.242
62431W        W23797  18.202   4.411  14.960
62432W        W23798  32.568  41.341   4.163
62433W        W23799   0.912  13.611  10.633
62434W        W23800  33.911  35.455  14.385
62435W        W23801   9.813  12.302  14.381
62436W        W23802  19.630   3.889   2.185
62437W        W23803  24.634  26.701   4.216
62438W        W23804  41.028  38.423  14.981
62439W        W23805  42.421   3.317  10.111
62440W        W23806  22.745  31.026  14.349
62441W        W23807  38.980  17.699  10.625
62442W        W23808  26.041  28.675  13.823
62443W        W23809   3.263  38.952  14.784
62444W        W23810  31.032  35.441   2.899
62445W        W23811  37.837  41.482  10.450
62446W        W23812  41.519   0.341   2.313
62447W        W23813   8.262  37.939  14.867
62448W        W23814  41.877  19.779  12.457
62449W        W23815   6.272  38.975   0.390
62450W        W23816  31.533  44.293  12.403
62451W        W23817  43.927  17.212  14.365
62452W        W23818  11.364  33.394   4.299
62453W        W23819  16.677  37.533   9.933
62454W        W23820   2.802  23.579  11.923
62455W        W23821  21.142  29.485  12.351
62456W        W23822   7.173  40.449   3.715
62457W        W23823  42.997  34.392   0.796
62458W        W23824  34.438   5.846  11.405
62459W        W23825  40.866  36.374   4.751
62460W        W23826  17.140   3.749  13.793
62461W        W23827  22.600   1.759  12.066
62462W        W23828  13.779  20.148   2.746
62463W        W23829  16.230  32.952  14.842
62464W        W23830  13.321  40.956  14.776
62465W        W23831  10.163  15.242  13.322
62466W        W23832  29.955  36.493   1.862
62467W        W23833  39.051  27.469   1.935
62468W        W23834   1.252  14.263   0.828
62469W        W23835  11.791  23.667   2.880
62470W        W23836  25.048  13.310  11.602
62471W        W23837  22.175  40.033  12.433
62472W        W23838  42.841  23.527  13.009
62473W        W23839   3.352   0.252   4.159
62474W        W23840  18.112  30.562   3.327
62475W        W23841  31.949  24.656  10.566
62476W        W23842  29.661   0.867  10.560
62477W        W23843  41.379   2.366   1.356
62478W        W23844  17.685  12.245  12.948
62479W        W23845  27.162  39.010  10.464
62480W        W23846  15.684  37.057   1.303
62481W        W23847  15.588   7.831  12.484
62482W        W23848  43.439  41.905   1.418
62483W        W23849  16.682  21.222   0.926
62484W        W23850   3.735   3.885   0.786
62485W        W23851  28.605  27.018   5.147
62486W        W23852  13.110  19.694   0.292
62487W        W23853  38.428  39.916  14.398
62488W        W23854  30.968  39.920  11.486
62489W        W23855   3.805  26.037  13.347
62490W        W23856   3.268  12.282  14.434
62491W        W23857   1.460  15.238  10.525
62492W        W23858  15.785  20.116   2.397
62493W        W23859  25.105  34.864   5.258
62494W        W23860  36.512  40.051   1.347
62495W        W23861  28.126  37.582   1.804
62496W        W23862  19.728  37.427   2.901
62497W        W23863  42.497  36.455   1.867
62498W        W23864   2.309  18.743   2.895
62499W        W23865   2.895  32.573   4.649
62500W        W23866  42.956  15.318   1.252
62501W        W23867  11.764  13.806   4.772
62502W        W23868   0.840   9.806  10.998
62503W        W23869  34.085   3.800   3.826
62504W        W23870  26.088  31.546  10.988
62505W        W23871   8.656  39.526  10.637
62506W        W23872   3.342  25.663  13.431
62507W        W23873  15.688  16.266   4.731
62508W        W23874   2.284  42.921  11.970
62509W        W23875  41.464  15.300  11.406
62510W        W23876  17.697  23.715   4.344
62511W        W23877  27.569  34.537   1.331
62512W        W23878  29.615  44.880  14.352
62513W        W23879  20.097  39.370  14.427
62514W        W23880  37.836  16.297  11.571
62515W        W23881  10.265  10.226  11.006
62516W        W23882  26.461  24.063  12.566
62517W        W23883   5.338  12.729   2.886
62518W        W23884   2.721  13.143   2.869
62519W        W23885   6.210  43.832  12.979
62520W        W23886  41.330  12.823  13.954
62521W        W23887  40.441  13.309   4.640
62522W        W23888  30.622  25.474   1.902
62523W        W23889  12.189  17.648   0.288
62524W        W23890  21.223   7.401   4.669
62525W        W23891  37.021   4.387   2.298
62526W        W23892  43.896  34.590   2.193
62527W        W23893  10.775  12.617  14.361
62528W        W23894  32.019  20.639  12.415
62529W        W23895  12.303   4.783   4.630
62530W        W23896  43.825   3.776   4.152
62531W        W23897   5.263  10.678   2.247
62532W        W23898  26.481   4.838   5.248
62533W        W23899  33.024   7.758  14.789
62534W        W23900  21.648  34.873   0.848
62535W        W23901  29.610  16.579  14.462
62536W        W23902  18.777   8.316   3.196
62537W        W23903   8.696   6.420  14.010
62538W        W23904  38.946  24.071  14.320
62539W        W23905   8.667  20.608  10.633
62540W        W23906  12.682  22.541   3.637
62541W        W23907  22.155  24.064   2.402
62542W        W23908  20.584  33.977   0.842
62543W        W23909  39.825   6.718  10.999
62544W        W23910  29.038  19.131   2.339
62545W        W23911  22.682  32.913  11.124
62546W        W23912   7.254  17.214   3.656
62547W        W23913   6.740  24.526   2.233
62548W        W23914   5.912   2.796   5.259
62549W        W23915  14.303   8.344   0.754
62550W        W23916  28.641   9.320  12.884
62551W        W23917  37.507   5.432  12.560
62552W        W23918   8.252  37.473  12.573
62553W        W23919  43.511  32.002   5.233
62554W        W23920   5.924  14.290   4.770
62555W        W23921  12.226   5.928  14.331
62556W        W23922  36.453   7.704  10.962
62557W        W23923   9.267  19.774   2.380
62558W        W23924  25.167  17.239   4.770
62559W        W23925  28.622   5.704  13.034
62560W        W23926  25.070   7.737   4.265
62561W        W23927  34.510  27.194  11.884
62562W        W23928  30.121  41.817  12.845
62563W        W23929  19.244  25.608   4.342
62564W        W23930  26.065   1.973   1.802
62565W        W23931  42.340  16.581   2.210
62566W        W23932  17.572  16.645   4.611
62567W        W23933  12.226  11.802   1.773
62568W        W23934  31.041  35.593   0.389
62569W        W23935  34.942  37.544   0.363
62570W        W23936  30.952  26.046  10.558
62571W        W23937  29.053   0.886   4.667
62572W        W23938   9.791  14.629   4.353
62573W        W23939  30.131   4.771  11.958
62574W        W23940  28.543  25.560  12.934
62575W        W23941  10.160   5.868  11.494
62576W        W23942  27.033   4.824  10.087
62577W        W23943  37.494  12.194  11.586
62578W        W23944   4.901   1.280  14.844
62579W        W23945  14.751  19.564  13.458
62580W        W23946   4.823   5.355   0.829
62581W        W23947  25.622   5.820  13.460
62582W        W23948  18.692  24.533  14.425
62583W        W23949  18.287   4.926   1.784
62584W        W23950   2.251  13.287   4.237
62585W        W23951  33.396  40.541  14.368
62586W        W23952  27.475   8.774   4.198
62587W        W23953  18.135  17.072   2.279
62588W        W23954  27.545  28.633   2.178
62589W        W23955  20.102  19.178  14.356
62590W        W23956  44.386  21.612   2.396
62591W        W23957  36.848  40.356   3.820
62592W        W23958  22.025  32.002  12.382
62593W        W23959  23.141  38.471   3.174
62594W        W23960   7.737  19.050  13.968
62595W        W23961  38.878  43.854  12.356
62596W        W23962  35.506  12.263   4.304
62597W        W23963  42.445  38.982   2.409
62598W        W23964  26.533   5.404   2.897
62599W        W23965  31.637   5.751   0.830
62600W        W23966  21.254  29.572   0.365
62601W        W23967  27.586  30.561   9.527
62602W        W23968   9.353  39.051   0.847
62603W        W23969   0.803  16.262  10.580
62604W        W23970  37.345  26.018  10.419
62605W        W23971  24.606  17.259   2.727
62606W        W23972   1.277  32.061  12.958
62607W        W23973  17.591   4.856  12.088
62608W        W23974  18.151  12.278  14.924
62609W        W23975  11.817  15.231   4.260
62610W        W23976  22.100  33.467   2.771
62611W        W23977   6.190   5.799  12.566
62612W        W23978  35.035  32.114   3.246
62613W        W23979  45.000  22.681   3.811
62614W        W23980  15.676   6.807  10.950
62615W        W23981  28.172   0.985  11.095
62616W        W23982  34.601  42.428  12.457
62617W        W23983  20.239   8.725  12.005
62618W        W23984  36.870  10.331   1.293
62619W        W23985   8.365  20.163   2.673
62620W        W23986   4.880  15.159  14.853
62621W        W23987  33.399  31.545  11.890
62622W        W23988   2.777  10.866   4.597
62623W        W23989  28.135   9.710  14.340
62624W        W23990  15.615  14.712  14.429
62625W        W23991  38.870  33.505  10.041
62626W        W23992  44.465  23.558   4.617
62627W        W23993  28.547  16.105   4.814
62628W        W23994  21.136   3.782   0.331
62629W        W23995  19.575   4.727  14.439
62630W        W23996  17.290  26.027  14.388
62631W        W23997  35.365  19.629   4.134
62632W        W23998  24.004  38.389   1.864
62633W        W23999  24.020  44.753   3.344
62634W        W24000  13.239   3.232  11.383
62635W        W24001  36.514   6.834   2.359
62636W        W24002  35.958  30.007  12.018
62637W        W24003  39.970   2.867   1.316
62638W        W24004  26.105   9.675  13.978
62639W        W24005  31.449   0.378   0.827
62640W        W24006  18.171  38.334  14.897
62641W        W24007  18.672   9.249   0.728
62642W        W24008  32.095  32.434  14.417
62643W        W24009  23.725  28.161  10.592
62644W        W24010  26.012  31.597  13.441
62645W        W24011   8.231  27.051   1.750
62646W        W24012  32.457  39.810  12.021
62647W        W24013  24.045  12.835   4.805
62648W        W24014   5.272  11.239  14.760
62649W        W24015   2.462  28.152  13.939
62650W        W24016  36.848   2.384   3.365
62651W        W24017  15.801  21.752  10.603
62652W        W24018   4.232   1.834   1.810
62653W        W24019  43.460  33.071   2.301
62654W        W24020  23.567   8.250   2.203
62655W        W24021  34.593  21.663   4.608
62656W        W24022  26.539  29.922   5.746
62657W        W24023  28.158  37.409   2.203
62658W        W24024  16.811  12.685   0.892
62659W        W24025  40.495  24.555  14.973
62660W        W24026   7.186   1.911   3.252
62661W        W24027  26.978   9.859   0.814
62662W        W24028  27.600  37.950  14.507
62663W        W24029   3.787  30.095  14.306
62664W        W24030   9.304  23.528  12.412
62665W        W24031  41.815   9.643   0.342
62666W        W24032  22.102  21.126  13.903
62667W        W24033  36.504   9.296   2.230
62668W        W24034  33.106  41.794   2.753
62669W        W24035  38.553  37.532   3.727
62670W        W24036  12.780   3.868  13.542
62671W        W24037   7.721  16.129   1.274
62672W        W24038  37.952  13.810  11.014
62673W        W24039   5.796  31.593   1.312
62674W        W24040   7.695  31.065  12.852
62675W        W24041  21.546  43.301   3.289
62676W        W24042   8.776  34.933   0.318
62677W        W24043  17.256   2.802   2.312
62678W        W24044  43.909   0.852   3.257
62679W        W24045  19.627  42.016  14.902
62680W        W24046   2.313   8.258  10.948
62681W        W24047  20.637   2.955  13.971
62682W        W24048  27.582  35.087   4.602
62683W        W24049  11.849   1.794   1.232
62684W        W24050  39.996  25.145   0.761
62685W        W24051  19.211  12.342   4.123
62686W        W24052   3.280   1.412   1.785
62687W        W24053   5.313  31.021   1.791
62688W        W24054  42.388  23.729  14.841
62689W        W24055  34.978  15.586  14.801
62690W        W24056  35.562  29.498   3.345
62691W        W24057  31.084  42.326  14.376
62692W        W24058  30.434  41.380  10.068
62693W        W24059  21.676  15.748  10.427
62694W        W24060   4.398  37.350   0.735
62695W        W24061  29.484  16.730  12.072
62696W        W24062  42.967  23.643   0.416
62697W        W24063  44.850   4.761  13.021
62698W        W24064  40.025  44.905  12.934
62699W        W24065  31.111   0.349   2.682
62700W        W24066  11.155   9.701  10.966
62701W        W24067  22.145  17.161   0.302
62702W        W24068  42.975   5.884   0.356
62703W        W24069  23.707  14.642  11.929
62704W        W24070  24.153  23.153   0.320
62705W        W24071  12.851  35.888  13.025
62706W        W24072  42.876  42.502  14.783
62707W        W24073  14.117  24.142   4.718
62708W        W24074  35.063  44.856  11.092
62709W        W24075  38.455  36.969   0.315
62710W        W24076   4.427  16.267   3.193
62711W        W24077  11.233  27.108   1.871
62712W        W24078  37.355  43.929   4.691
62713W        W24079   7.291  10.753   3.326
62714W        W24080  13.275  30.498   3.156
62715W        W24081   7.676  18.631  10.407
62716W        W24082  32.457  27.482   1.713
62717W        W24083  18.626  12.331   3.286
62718W        W24084  36.578   6.261  11.980
62719W        W24085  42.779  40.482  10.427
62720W        W24086   6.876  42.003   1.306
62721W        W24087  32.090  29.428  13.339
62722W        W24088   6.895  19.112   4.307
62723W        W24089  19.566  21.758   2.279
62724W        W24090  29.085  38.875   2.742
62725W        W24091  39.937   0.792   3.284
62726W        W24092  37.858   7.731   4.647
62727W        W24093  11.726   6.730  14.000
62728W        W24094   6.428  30.425   2.357
62729W        W24095  30.624   2.402   1.876
62730W        W24096  14.229  12.666  11.468
62731W        W24097  11.163  30.947  11.527
62732W        W24098   3.228   9.332   4.655
62733W        W24099  20.531   2.909   9.649
62734W        W24100  10.686   6.314  11.484
62735W        W24101   5.433   8.666   1.264
62736W        W24102   5.338  39.063  12.889
62737W        W24103  24.640   8.255  11.929
62738W        W24104  32.625  26.470  14.924
62739W        W24105  34.935  40.390  11.921
62740W        W24106  18.217  19.660   1.744
62741W        W24107  39.515  39.954  10.621
62742W        W24108  39.421   0.753   4.663
62743W        W24109  25.086  40.519  14.021
62744W        W24110  16.196  31.901   3.762
62745W        W24111   6.220   8.390  11.102
62746W        W24112   6.804   7.825  13.496
62747W        W24113   3.842  24.691  11.018
62748W        W24114  32.911  44.971   4.730
62749W        W24115  14.169  36.520   4.145
62750W        W24116  41.888  17.712  12.502
62751W        W24117  37.944  41.795   1.700
62752W        W24118   1.443   2.886  13.926
62753W        W24119  16.083  22.569   1.302
62754W        W24120  42.016  31.489  11.441
62755W        W24121   0.332  40.451   1.322
62756W        W24122   7.725  20.655   3.323
62757W        W24123  27.991  11.736  14.947
62758W        W24124  11.176  12.298  14.987
62759W        W24125   5.437  34.963  11.865
62760W        W24126  12.294  42.789  14.989
62761W        W24127   1.962  41.903  12.339
62762W        W24128   6.794  44.388  11.933
62763W        W24129  41.020  39.992   2.236
62764W        W24130  30.632  26.487  12.086
62765W        W24131  23.546  26.011  11.416
62766W        W24132  21.596  12.745   3.822
62767W        W24133   3.940  20.543   4.837
62768W        W24134  20.162  27.672  12.486
62769W        W24135  17.075  24.977   5.094
62770W        W24136  38.538  41.022   0.796
62771W        W24137  32.078   2.263   5.108
62772W        W24138  13.776  11.820   4.253
62773W        W24139  13.205   8.266   4.734
62774W        W24140   9.269  10.785   0.927
62775W        W24141  36.510   8.238   0.444
62776W        W24142  33.455  26.046  10.588
62777W        W24143  32.446  21.128   0.745
62778W        W24144  25.089  11.361  10.408
62779W        W24145  14.228  36.862   4.774
62780W        W24146  22.587  13.819   1.704
62781W        W24147   3.460   4.734  13.854
62782W        W24148  41.397  20.113  13.483
62783W        W24149  17.627   7.874   4.691
62784W        W24150   8.238  44.282  11.416
62785W        W24151  18.686  18.629  14.922
62786W        W24152  36.399   0.365   1.217
62787W        W24153  12.695  34.009   1.216
62788W        W24154   6.807  22.579  14.941
62789W        W24155   3.953  38.455   1.412
62790W        W24156  37.998   9.709   0.307
62791W        W24157  29.968   7.823   0.856
62792W        W24158  44.498  31.093  13.441
62793W        W24159  27.581  23.576   2.259
62794W        W24160  12.285  11.701  11.520
62795W        W24161  20.161   6.342   3.760
62796W        W24162  17.558  24.060  14.436
62797W        W24163  36.420  16.083  11.038
62798W        W24164  31.081   7.877   4.754
62799W        W24165  23.733  30.947   3.717
62800W        W24166  15.156  19.171  14.485
62801W        W24167   6.336  40.385   1.375
62802W        W24168  32.033  33.988   4.243
62803W        W24169  29.483  27.137  14.396
62804W        W24170  38.562  19.260  11.591
62805W        W24171   1.811   0.839   0.843
62806W        W24172  37.924  30.063   3.174
62807W        W24173  38.433  33.494   2.201
62808W        W24174  39.927  19.681   4.297
62809W        W24175   8.681  24.531   2.749
62810W        W24176  20.715  24.078   2.749
62811W        W24177  29.467  21.101   4.735
62812W        W24178  21.102   5.838  11.090
62813W        W24179  44.997  28.164   3.319
62814W        W24180  11.850  42.940   4.349
62815W        W24181   9.176  12.331  12.924
62816W        W24182  22.560  35.868   4.199
62817W        W24183  32.035  15.819  11.499
62818W        W24184  16.259  25.609  14.760
62819W        W24185   3.723   0.445   0.882
62820W        W24186  26.994  20.632  13.852
62821W        W24187  11.682  29.563   2.786
62822W        W24188  39.448  44.423  13.926
62823W        W24189  27.452  44.477  13.945
62824W        W24190  26.603  25.962  12.363
62825W        W24191  13.310  26.495  13.040
62826W        W24192  42.880  28.994  10.472
62827W        W24193  42.958  41.986  12.015
62828W        W24194  12.313  33.125   2.691
62829W        W24195  33.459  40.042   3.796
62830W        W24196  37.973  31.471  14.471
62831W        W24197  27.465  12.852  10.950
62832W        W24198  44.377  17.141   4.832
62833W        W24199  27.532  11.853   2.791
62834W        W24200  31.139  40.511   0.928
62835W        W24201  14.263  34.988  14.442
62836W        W24202  36.948  26.489  10.931
62837W        W24203  36.522   6.355   1.708
62838W        W24204  20.030  31.113   0.404
62839W        W24205   8.177  32.042  14.393
62840W        W24206  20.037  14.177  13.454
62841W        W24207   0.421   1.904   3.820
62842W        W24208  12.627  27.122   2.852
62843W        W24209  41.421  19.281  11.034
62844W        W24210  25.117  27.053   1.750
62845W        W24211  25.986  13.291   2.748
62846W        W24212   0.891  36.000   4.741
62847W        W24213  34.040  16.636  12.567
62848W        W24214   9.188   4.448   2.830
62849W        W24215   3.445  23.579  14.322
62850W        W24216  27.988  29.062  10.010
62851W        W24217  29.103  23.045  13.361
62852W        W24218  14.709   3.945   1.300
62853W        W24219  27.068  17.139   3.290
62854W        W24220   3.813  38.495   2.278
62855W        W24221  22.017   8.331  10.602
62856W        W24222  43.850  13.312   2.894
62857W        W24223  16.315  10.802   0.903
62858W        W24224   4.374  21.249  10.484
62859W        W24225  39.898  44.899  12.000
62860W        W24226  14.721  38.426   4.830
62861W        W24227   2.255  29.163   0.322
62862W        W24228  31.953   1.772  13.010
62863W        W24229  23.001   1.457  12.037
62864W        W24230  36.847  40.026   2.880
62865W        W24231  11.837  31.982  11.456
62866W        W24232   2.768   2.926   2.884
62867W        W24233  23.026  17.229  14.469
62868W        W24234   6.769  24.535   3.766
62869W        W24235  39.846  33.382   4.828
62870W        W24236  10.369  39.349   0.823
62871W        W24237   4.385   8.317  14.988
62872W        W24238   2.259   8.799   2.759
62873W        W24239  43.308   1.373  14.854
62874W        W24240  20.233  31.907   4.823
62875W        W24241  19.567  20.066  14.400
62876W        W24242   9.211  15.725  12.012
62877W        W24243  16.661  18.078  13.447
62878W        W24244  42.799  13.792   0.264
62879W        W24245  30.556  44.847  12.480
62880W        W24246  15.262   8.815  12.510
62881W        W24247   1.334  35.497   2.757
62882W        W24248  27.175   3.742   1.890
62883W        W24249   9.850   5.924  14.973
62884W        W24250   5.266  37.480  14.868
62885W        W24251  22.075  35.464   5.713
62886W        W24252  44.834  39.462   3.735
62887W        W24253  28.606  20.648   2.899
62888W        W24254  28.618  40.995  11.493
62889W        W24255  17.186   6.872  11.592
62890W        W24256  39.459   6.677  13.962
62891W        W24257  17.256  38.458  11.390
62892W        W24258  26.112  11.674  14.475
62893W        W24259   9.853  11.312  13.887
62894W        W24260  33.562  36.494   1.826
62895W        W24261  12.122  12.123   4.728
62896W        W24262  10.730  28.160  12.501
62897W        W24263  30.449   0.857   1.893
62898W        W24264  17.087  35.920  10.009
62899W        W24265  13.703   5.697   3.212
62900W        W24266  10.793  30.502   2.381
62901W        W24267  43.450   0.775  12.974
62902W        W24268  19.085  38.982  14.991
62903W        W24269   7.704  40.807  12.344
62904W        W24270  29.002   2.264   3.861
62905W        W24271  40.505  26.548   3.822
62906W        W24272   8.826   4.883  11.976
62907W        W24273  43.316  15.732   2.256
62908W        W24274  23.996  24.059  11.578
62909W        W24275   9.263   9.671  12.352
62910W        W24276  21.668  41.333   0.947
62911W        W24277  19.623  21.101   0.925
62912W        W24278  42.424  26.995   4.761
62913W        W24279  26.622   6.352  10.611
62914W        W24280  17.213  17.114  12.348
62915W        W24281   5.860   4.878   1.799
62916W        W24282  36.071  21.173   4.825
62917W        W24283  43.969   9.733  13.846
62918W        W24284  33.975  25.210   1.709
62919W        W24285  21.699  41.009  10.964
62920W        W24286  14.599   2.327  11.524
62921W        W24287  21.073  29.542  12.861
62922W        W24288  25.672  25.574   2.739
62923W        W24289  16.073  25.704   4.198
62924W        W24290  40.443   9.803  13.366
62925W        W24291  16.092  29.439  14.480
62926W        W24292  29.598  15.148  14.010
62927W        W24293  41.943  17.290  11.465
62928W        W24294  43.307  20.149   0.798
62929W        W24295   9.290   4.767   1.288
62930W        W24296  44.779  34.109  13.314
62931W        W24297  20.731  43.851   3.754
62932W        W24298  27.635  16.670  14.026
62933W        W24299  35.090  25.621  10.580
62934W        W24300   5.692  33.421  10.616
62935W        W24301  10.823   5.230  14.364
62936W        W24302  43.874  15.174   0.899
62937W        W24303  35.965  32.531  11.476
62938W        W24304   6.831  14.647   5.148
62939W        W24305  18.618   7.853  14.836
62940W        W24306  39.008  44.301   1.400
62941W        W24307  16.577  14.762   3.276
62942W        W24308  25.011   5.244   1.210
62943W        W24309  22.035  18.571  13.849
62944W        W24310  10.248  44.970  11.546
62945W        W24311  28.538   0.297   4.285
62946W        W24312  22.086  10.726  14.411
62947W        W24313  23.060  35.094  11.014
62948W        W24314  14.205  41.908   0.292
62949W        W24315  43.878  13.174  10.423
62950W        W24316  33.478  34.610  13.543
62951W        W24317  30.120   4.940  13.498
62952W        W24318   2.753  32.022   5.252
62953W        W24319  11.277   4.298  10.644
62954W        W24320  32.903  10.156  13.317
62955W        W24321   8.827  34.448   4.650
62956W        W24322  13.631  43.818   4.739
62957W        W24323  35.998  31.972   4.264
62958W        W24324  33.939  24.599   1.846
62959W        W24325  40.936   7.179   0.903
62960W        W24326  26.117  42.981  13.977
62961W        W24327   4.793  11.332   2.826
62962W        W24328  31.994  25.055  13.312
62963W        W24329  40.414  43.425  13.396
62964W        W24330  37.029  23.537   4.288
62965W        W24331   6.381  14.101   1.807
62966W        W24332  38.400  42.857  13.876
62967W        W24333   6.264  23.656   2.722
62968W        W24334  35.089  33.962   2.414
62969W        W24335  38.824  11.780  12.834
62970W        W24336  26.098   6.732   0.767
62971W        W24337  13.180  12.803   1.914
62972W        W24338   4.796  28.105  14.360
62973W        W24339   6.413  39.419   4.756
62974W        W24340  32.584  10.816  13.828
62975W        W24341  34.475   6.341  11.015
62976W        W24342  37.026  34.429  13.376
62977W        W24343  42.313  39.473   4.658
62978W        W24344  43.303  23.005  10.951
62979W        W24345  44.464  31.539   0.375
62980W        W24346  28.526   8.203   2.346
62981W        W24347   7.337   3.922   1.889
62982W        W24348  29.487  34.923   9.990
62983W        W24349   2.406  19.756  11.922
62984W        W24350  30.055  19.271   2.338
62985W        W24351   2.925   6.734  13.023
62986W        W24352  28.157  31.515  11.483
62987W        W24353  26.012   8.220   1.895
62988W        W24354  32.896  24.589   3.156
62989W        W24355  34.488  21.182  11.565
62990W        W24356  17.797  22.629  10.931
62991W        W24357  33.526  31.963  10.961
62992W        W24358  42.819   1.783   0.439
62993W        W24359  21.557  29.980  10.626
62994W        W24360  21.180  12.289   1.329
62995W        W24361   4.819  38.049  13.520
62996W        W24362  19.150  13.631   1.882
62997W        W24363  23.626  32.419   4.689
62998W        W24364   9.759  19.740   1.712
62999W        W24365  34.515  23.111  11.573
63000W        W24366  29.478  15.181  12.854
63001W        W24367  12.147  17.165  10.902
63002W        W24368  26.530  12.822   1.289
63003W        W24369  26.072  26.620   4.601
63004W        W24370  18.185  44.778  14.397
63005W        W24371   4.713  23.191  10.891
63006W        W24372  26.014  25.008   1.318
63007W        W24373  13.204   9.790   4.271
63008W        W24374   0.779  18.167   2.813
63009W        W24375  24.723  28.969   1.311
63010W        W24376  20.584  16.792  13.395
63011W        W24377  42.803  35.100   2.729
63012W        W24378  12.637  34.399   4.223
63013W        W24379  44.491  43.336  13.897
63014W        W24380  37.880  32.099   2.249
63015W        W24381   4.824  13.293  12.879
63016W        W24382   0.291  30.976   1.429
63017W        W24383  19.548   4.720  11.556
63018W        W24384  15.188  35.944   3.670
63019W        W24385  36.858  38.538   3.305
63020W        W24386  23.723   5.863   4.352
63021W        W24387  20.100  25.208   4.600
63022W        W24388  39.922   4.944  14.472
63023W        W24389  16.682  24.595   3.852
63024W        W24390   4.777  40.380   3.328
63025W        W24391  27.579  35.518   3.651
63026W        W24392  31.986   9.389  12.376
63027W        W24393  35.931  15.093   1.922
63028W        W24394  37.422  15.227   0.460
63029W        W24395  36.494  15.300  13.506
63030W        W24396   6.887  22.217   3.224
63031W        W24397  32.634  23.215  13.461
63032W        W24398  25.680  31.033  14.873
63033W        W24399  15.098  37.851  10.437
63034W        W24400  36.956   6.294  12.036
63035W        W24401  25.506  40.884   3.797
63036W        W24402   2.446   2.880  14.765
63037W        W24403  12.732  20.600   4.136
63038W        W24404   3.918  23.013   4.733
63039W        W24405  29.065  29.036  12.517
63040W        W24406  41.036  23.168  14.936
63041W        W24407  16.285  35.537   1.259
63042W        W24408  19.561  15.301  14.411
63043W        W24409  41.923  14.730   0.896
63044W        W24410  20.703   7.779  13.890
63045W        W24411  12.799  21.518   1.830
63046W        W24412  42.006  14.332  12.996
63047W        W24413   8.326  11.862   0.875
63048W        W24414   7.813  25.180   4.637
63049W        W24415   0.490  37.997   0.831
63050W        W24416   5.776  41.502   4.164
63051W        W24417  36.553  21.581   3.826
63052W        W24418  11.800  28.575   3.164
63053W        W24419  20.745   5.228   0.307
63054W        W24420  27.056  20.069   3.328
63055W        W24421  30.999  17.193   4.832
63056W        W24422  42.418  18.231  10.485
63057W        W24423  36.929  18.204   4.611
63058W        W24424  43.780  20.057   3.194
63059W        W24425  27.132  13.742  10.431
63060W        W24426  34.458  26.955   2.787
63061W        W24427  28.492  35.982  13.542
63062W        W24428   1.278  40.353   3.380
63063W        W24429  23.492  13.162   2.722
63064W        W24430  34.909  32.403   2.705
63065W        W24431   3.740   4.699   0.874
63066W        W24432   5.266  15.605  11.451
63067W        W24433   5.302  13.758  14.440
63068W        W24434   5.321  36.021   3.702
63069W        W24435  42.326  24.562  11.039
63070W        W24436  36.850  28.064  11.436
63071W        W24437  24.010   2.762  12.346
63072W        W24438  37.472  23.039   1.258
63073W        W24439  37.870  44.403   2.849
63074W        W24440  35.526  30.517   2.688
63075W        W24441  33.012  25.660   4.329
63076W        W24442  28.574  29.153   0.319
63077W        W24443   0.918   0.833  13.007
63078W        W24444  22.025   7.372  11.986
63079W        W24445   8.723  20.736   4.163
63080W        W24446  43.408  19.753   4.686
63081W        W24447   8.662   8.875  11.937
63082W        W24448  13.257  24.105  13.833
63083W        W24449  34.867  35.474   0.746
63084W        W24450  32.081  34.072  12.479
63085W        W24451  27.951  35.365   0.893
63086W        W24452   3.885  10.805   1.344
63087W        W24453   2.728  11.191  12.523
63088W        W24454  16.072  17.743   5.207
63089W        W24455  35.526  36.016   1.810
63090W        W24456  10.214   5.811   9.928
63091W        W24457   4.836  28.117   0.376
63092W        W24458   7.709  17.290   2.882
63093W        W24459  39.505   3.842  12.088
63094W        W24460  31.076  37.016  11.579
63095W        W24461  29.940  30.937  14.961
63096W        W24462  27.154  10.182   4.802
63097W        W24463   2.330   5.784  13.421
63098W        W24464  36.985  44.909  11.913
63099W        W24465  27.040   5.689  14.770
63100W        W24466  21.597  44.463   4.631
63101W        W24467   7.880   6.229  11.572
63102W        W24468  27.669   6.903   3.725
63103W        W24469  19.217   1.770  11.015
63104W        W24470   4.344   7.224  11.954
63105W        W24471  26.473  37.907  10.569
63106W        W24472  41.429  20.626   3.793
63107W        W24473   7.280  44.787   2.365
63108W        W24474  42.909   4.753  10.602
63109W        W24475  20.759  33.898   0.323
63110W        W24476  21.050  16.294  13.919
63111W        W24477  25.508  36.955   4.272
63112W        W24478   1.905  24.053   1.279
63113W        W24479  19.731   4.391  14.936
63114W        W24480  15.811  10.199   2.342
63115W        W24481  40.365  31.509  10.894
63116W        W24482  15.804  34.107   0.886
63117W        W24483   6.306  15.230   2.789
63118W        W24484   4.781  10.378  10.554
63119W        W24485  13.672  27.537  14.871
63120W        W24486   4.721   4.331  13.019
63121W        W24487  13.176  17.274   0.369
63122W        W24488  28.088  26.636   2.708
63123W        W24489   2.326  27.079   2.336
63124W        W24490  38.077  20.101  14.347
63125W        W24491  44.935  27.613  13.922
63126W        W24492  28.565  38.570   0.798
63127W        W24493  31.070  16.268  12.012
63128W        W24494  16.721  17.249   2.325
63129W        W24495  17.615   7.702   4.348
63130W        W24496  35.470   0.815   2.387
63131W        W24497   5.773  44.860   3.288
63132W        W24498  34.872  43.306  12.424
63133W        W24499  33.895  33.026   4.627
63134W        W24500  15.610  14.722  12.916
63135W        W24501  27.107  38.923   4.140
63136W        W24502  13.111  29.929   4.204
63137W        W24503  43.866  42.012   1.848
63138W        W24504  34.603   5.811   2.769
63139W        W24505  28.115  44.890   1.270
63140W        W24506   7.233  11.360   2.227
63141W        W24507  14.620   1.786   3.241
63142W        W24508  33.576  13.695  12.472
63143W        W24509  10.359  29.967   2.726
63144W        W24510   2.868  44.774  14.904
63145W        W24511  34.371  18.603  12.928
63146W        W24512  31.933  30.991   4.298
63147W        W24513  19.696   4.393   0.336
63148W        W24514  26.970  44.357   9.937
63149W        W24515  34.585  32.062  13.511
63150W        W24516  44.332  29.662   3.742
63151W        W24517  18.219  26.199   3.691
63152W        W24518  39.064  23.068   3.233
63153W        W24519   1.411  22.179   1.696
63154W        W24520  15.137  42.019  14.006
63155W        W24521   3.414  39.468   2.321
63156W        W24522   5.841  31.570   0.886
63157W        W24523  42.504  42.286  14.954
63158W        W24524  22.734  14.173  12.971
63159W        W24525  12.831  33.394   2.277
63160W        W24526  41.895  38.394   2.665
63161W        W24527   0.784  28.491   1.703
63162W        W24528   9.311  28.460   4.216
63163W        W24529  19.071  14.616  12.523
63164W        W24530  22.117  44.764  14.792
63165W        W24531   5.311  30.654   0.895
63166W        W24532  36.061  31.578   0.280
63167W        W24533  11.196  30.614   1.796
63168W        W24534  41.854  29.635  11.860
63169W        W24535  16.145  35.458   4.294
63170W        W24536  40.535  30.945  12.467
63171W        W24537  31.613   1.322  12.828
63172W        W24538  16.221  34.379   3.788
63173W        W24539  42.288  14.823  10.433
63174W        W24540  14.673   0.779   3.807
63175W        W24541  43.363  14.319   1.252
63176W        W24542  20.564   0.440  14.010
63177W        W24543  40.917  31.557   1.315
63178W        W24544  32.544  21.665  11.407
63179W        W24545  43.433   7.321   0.765
63180W        W24546  12.161  28.552   0.246
63181W        W24547  37.521  19.109   3.311
63182W        W24548   3.925  36.007   1.915
63183W        W24549  10.659  42.508   0.274
63184W        W24550   9.649  32.889  13.337
63185W        W24551  23.098  19.583  10.981
63186W        W24552  13.604   7.267   2.256
63187W        W24553  32.453  35.104  12.571
63188W        W24554  31.517  36.544   0.434
63189W        W24555  15.273  34.438   0.297
63190W        W24556   5.902  32.920  13.913
63191W        W24557  21.661  20.246   1.256
63192W        W24558  33.091  36.470   4.683
63193W        W24559  12.851  11.213   2.305
63194W        W24560  37.073  39.978   9.522
63195W        W24561  27.959  40.852  13.484
63196W        W24562   6.729   0.468   0.325
63197W        W24563  17.218  43.366   2.772
63198W        W24564  39.060  25.081  11.422
63199W        W24565  31.632   7.760   4.134
63200W        W24566  44.300   1.762   1.881
63201W        W24567  27.196   5.706   4.214
63202W        W24568  35.046  17.176  12.073
63203W        W24569  17.791  24.614   2.216
63204W        W24570  37.571  19.602   3.266
63205W        W24571  39.015  19.265   0.952
63206W        W24572   7.800  23.658  14.511
63207W        W24573  16.811  29.485  10.470
63208W        W24574  32.618   2.441  11.977
63209W        W24575  25.047  42.335  14.376
63210W        W24576  17.594   3.867  10.917
63211W        W24577  10.271  16.648   3.687
63212W        W24578   1.738  13.346  14.383
63213W        W24579  35.035   7.347  13.443
63214W        W24580  36.480  20.703  14.004
63215W        W24581  30.122  29.143   1.286
63216W        W24582  27.006  39.848  12.376
63217W        W24583  27.077  41.312   4.757
63218W        W24584   3.769  39.852  13.489
63219W        W24585  14.808  14.214   3.204
63220W        W24586   8.719  15.629   4.116
63221W        W24587   1.934  43.388   1.837
63222W        W24588  43.296  16.129   4.647
63223W        W24589  30.422  23.997  12.994
63224W        W24590  29.664  13.113  13.361
63225W        W24591  33.129  28.520  11.913
63226W        W24592   8.189  44.301  14.778
63227W        W24593   5.768  22.549  11.897
63228W        W24594  43.950  43.322  11.042
63229W        W24595  18.225  35.598  13.408
63230W        W24596  31.411  25.498   1.214
63231W        W24597  16.764  42.880  12.888
63232W        W24598  26.578  30.941   3.309
63233W        W24599  23.576  10.359   3.362
63234W        W24600   0.829  31.541  14.985
63235W        W24601  14.254  23.501   0.840
63236W        W24602  31.144  33.898   1.218
63237W        W24603  11.795   0.841  12.380
63238W        W24604  34.938  29.999  10.630
63239W        W24605  30.129  12.782   4.312
63240W        W24606  10.383   0.915   3.265
63241W        W24607   6.298  31.067  14.961
63242W        W24608  13.187  27.008  14.816
63243W        W24609  12.736  14.729   2.305
63244W        W24610  34.964  25.973  10.623
63245W        W24611   3.754   5.236   4.697
63246W        W24612  11.251  36.565   3.776
63247W        W24613  16.278  19.147   2.772
63248W        W24614  39.539   9.390  13.017
63249W        W24615  17.758  21.076  11.045
63250W        W24616  42.869   7.715   0.889
63251W        W24617  34.555   3.894  12.537
63252W        W24618  18.267  14.256   1.410
63253W        W24619  33.596  20.227   1.880
63254W        W24620  18.103  14.642   2.334
63255W        W24621  40.374   9.251  11.013
63256W        W24622   7.849  17.639  12.979
63257W        W24623  11.145  27.623   0.895
63258W        W24624  31.529  43.287  11.560
63259W        W24625  41.871  40.354  14.025
63260W        W24626   9.839  38.829   0.835
63261W        W24627  35.475   4.287  11.888
63262W        W24628   6.188  41.028   0.850
63263W        W24629  28.520  40.445  10.409
63264W        W24630  24.513  25.975  11.608
63265W        W24631  10.258  11.701   3.250
63266W        W24632   5.879  12.753   4.335
63267W        W24633  14.790   0.330   3.749
63268W        W24634  27.142  33.015   4.163
63269W        W24635   3.726  32.596  13.927
63270W        W24636  24.130  40.797  14.770
63271W        W24637  29.467  27.179   5.142
63272W        W24638   0.395  40.466   3.716
63273W        W24639  40.315  17.716  10.444
63274W        W24640  44.792   3.241  10.560
63275W        W24641  31.129  30.106   1.805
63276W        W24642  10.228  14.107   4.681
63277W        W24643  37.002  37.366   1.229
63278W        W24644  16.193   1.857   1.344
63279W        W24645  27.091  35.578   1.792
63280W        W24646  24.134  35.961  14.345
63281W        W24647  27.081  43.805  12.838
63282W        W24648  35.531  10.796  11.582
63283W        W24649  31.996  24.703   1.361
63284W        W24650  35.073   8.836  12.488
63285W        W24651   7.749  36.903  12.575
63286W        W24652  33.114  37.447  13.465
63287W        W24653  38.073  24.524  14.392
63288W        W24654   9.275  28.626   2.357
63289W        W24655  30.155   9.249  14.282
63290W        W24656  31.014  10.208  12.904
63291W        W24657  18.715   9.253   1.274
63292W        W24658  34.441  28.173   2.760
63293W        W24659  38.983   7.838  11.116
63294W        W24660   5.394  39.975   2.770
63295W        W24661  13.247   5.350   0.462
63296W        W24662   8.406  16.658   1.213
63297W        W24663  31.567  26.616  13.515
63298W        W24664  15.581  33.917  14.447
63299W        W24665  33.892  17.661   0.320
63300W        W24666  33.454   9.870  12.993
63301W        W24667  28.167  29.947  10.967
63302W        W24668  20.075  30.611  12.526
63303W        W24669  11.360  10.266   0.295
63304W        W24670  26.109  12.826  10.428
63305W        W24671  24.535  30.493  12.035
63306W        W24672  29.656  27.023   2.827
63307W        W24673  11.643  31.914  11.988
63308W        W24674  28.678  19.250  10.608
63309W        W24675  33.454  12.693   2.261
63310W        W24676  42.007  39.465  12.444
63311W        W24677  28.540  37.396  10.406
63312W        W24678  20.263  29.153   1.322
63313W        W24679   2.886  40.361  12.027
63314W        W24680   6.192  13.805  10.155
63315W        W24681   8.287   5.805  10.479
63316W        W24682  11.283  39.333  11.092
63317W        W24683  18.082  33.008   4.300
63318W        W24684  12.158  10.696   1.360
63319W        W24685  14.617   3.399   2.741
63320W        W24686  24.719  35.443   0.776
63321W        W24687  35.491  31.010  11.938
63322W        W24688  15.100  15.811   1.734
63323W        W24689  14.213   8.844   0.406
63324W        W24690  27.975  24.109  12.538
63325W        W24691  23.095  20.087  12.030
63326W        W24692  10.320   2.463  12.913
63327W        W24693  13.711   1.931   2.318
63328W        W24694   8.211   4.876   9.502
63329W        W24695  28.032  40.977  14.797
63330W        W24696  38.993   9.742  10.593
63331W        W24697  22.093  27.089  10.921
63332W        W24698  29.536   8.815   2.860
63333W        W24699  34.576   5.745   3.697
63334W        W24700  12.644  29.548   3.274
63335W        W24701  28.079  20.118  11.033
63336W        W24702  39.816  21.146  14.997
63337W        W24703  21.606  43.381  12.987
63338W        W24704   8.739  35.880  14.835
63339W        W24705   4.237  39.906   4.758
63340W        W24706  19.268  39.941  10.628
63341W        W24707  24.105  40.033   9.925
63342W        W24708  17.200  11.749  11.889
63343W        W24709   2.869  20.179   1.333
63344W        W24710   8.390  41.878   2.200
63345W        W24711  32.064  28.981  11.521
63346W        W24712  38.886   9.157   5.279
63347W        W24713  17.301  24.195   5.240
63348W        W24714  35.860  26.074   2.897
63349W        W24715  23.168  16.155   1.387
63350W        W24716   0.940  40.970  11.129
63351W        W24717  44.470   1.973   9.983
63352W        W24718  17.715  44.320  14.294
63353W        W24719  39.014  10.246   4.734
63354W        W24720  27.970  21.621   2.790
63355W        W24721  39.532  34.424   3.727
63356W        W24722  18.748  29.966   2.798
63357W        W24723   1.794   2.383   0.808
63358W        W24724   5.334  34.006   2.705
63359W        W24725  17.719  37.972  11.589
63360W        W24726  34.601  37.989   0.322
63361W        W24727  43.021  36.516   3.721
63362W        W24728  36.464  33.594  13.062
63363W        W24729  43.893  43.310  12.832
63364W        W24730   4.719  13.612   0.375
63365W        W24731  24.205  12.721   4.230
63366W        W24732  35.489  24.609  14.963
63367W        W24733  10.834  25.523  10.980
63368W        W24734  36.071  22.030  12.515
63369W        W24735  15.092   4.723   3.657
63370W        W24736  35.019  19.779  12.012
63371W        W24737  14.291  21.532  10.409
63372W        W24738  43.962  15.170  14.314
63373W        W24739  19.125  40.465   0.470
63374W        W24740  40.889  10.846  13.003
63375W        W24741  35.485  32.938   2.742
63376W        W24742  18.652  15.668  13.854
63377W        W24743  14.173  23.024   3.710
63378W        W24744  23.152  20.128  14.427
63379W        W24745  21.156  35.082   0.963
63380W        W24746  40.420   4.336  12.004
63381W        W24747  40.842  14.769   2.295
63382W        W24748  27.530  36.087   0.859
63383W        W24749  17.620  38.888  13.492
63384W        W24750   4.717  26.579   1.909
63385W        W24751  11.177   5.813  12.987
63386W        W24752  27.574  42.996  14.968
63387W        W24753  19.266   1.443  14.919
63388W        W24754  33.934  42.508   1.814
63389W        W24755  44.992  42.884  11.965
63390W        W24756  28.567  28.173  11.588
63391W        W24757  34.950   6.245   5.154
63392W        W24758  43.870  33.418  12.090
63393W        W24759  21.530  24.637   3.339
63394W        W24760  26.971  23.736   5.121
63395W        W24761  11.172  26.689  14.484
63396W        W24762  24.635  27.050   3.824
63397W        W24763  44.452  29.067   4.607
63398W        W24764  28.502  38.432  10.477
63399W        W24765  11.791  44.426   1.821
63400W        W24766  44.328  32.609   1.352
63401W        W24767  41.912  44.304  13.052
63402W        W24768  32.402   1.466  10.479
63403W        W24769  41.425  14.298  13.797
63404W        W24770  16.590  35.996  11.110
63405W        W24771  38.360  24.984  11.941
63406W        W24772  42.920  37.999  10.971
63407W        W24773  44.928  23.715   1.448
63408W        W24774  39.493   0.409   2.816
63409W        W24775  27.945  21.597   1.386
63410W        W24776  11.237  27.950  14.304
63411W        W24777  44.300   1.749  12.551
63412W        W24778  34.922  20.761   4.717
63413W        W24779  25.507   3.274   0.367
63414W        W24780  14.176  39.531   2.834
63415W        W24781  32.031  37.489   4.323
63416W        W24782  14.250  21.207  12.042
63417W        W24783  40.013  18.637  11.120
63418W        W24784  23.987  38.354   0.376
63419W        W24785   3.439  11.739   3.373
63420W        W24786  28.457  41.877  13.409
63421W        W24787  16.302   4.888   3.351
63422W        W24788   5.826   5.206  13.355
63423W        W24789  41.401  14.810  13.449
63424W        W24790  33.887  37.340   1.229
63425W        W24791   3.397   2.806  13.947
63426W        W24792  26.680   6.207   4.787
63427W        W24793  18.133  41.855   0.864
63428W        W24794  29.918  14.306   2.230
63429W        W24795  30.947   4.211   0.732
63430W        W24796  35.381  17.072  11.992
63431W        W24797  35.403  13.297   4.299
63432W        W24798  33.006  19.251  12.409
63433W        W24799  23.052  38.828  12.063
63434W        W24800   7.764  16.601   4.206
63435W        W24801   2.444  28.456  11.404
63436W        W24802  40.406  22.241   2.879
63437W        W24803   3.372  43.920   0.280
63438W        W24804  44.359  17.699   3.771
63439W        W24805  17.778  36.937   1.384
63440W        W24806  17.786  39.858   0.812
63441W        W24807  38.460   0.785  13.961
63442W        W24808  32.120  38.403  13.442
63443W        W24809  41.899  43.808  10.640
63444W        W24810   9.178  17.622  10.570
63445W        W24811  16.072   8.245   1.841
63446W        W24812  24.215  32.933  12.095
63447W        W24813  26.654  34.608  10.587
63448W        W24814  37.366  30.012  12.393
63449W        W24815  25.551  36.376   4.215
63450W        W24816  34.568  20.203   2.878
63451W        W24817   1.331  10.712  13.058
63452W        W24818  35.974  42.358  13.886
63453W        W24819  13.346  29.998  14.285
63454W        W24820   9.840   2.867  12.509
63455W        W24821   3.882  21.025  14.441
63456W        W24822   6.862  34.921   1.744
63457W        W24823  34.991  15.758   1.915
63458W        W24824   8.780  15.645  12.403
63459W        W24825   8.275  42.992  12.863
63460W        W24826  25.554  33.992   9.620
63461W        W24827  31.007  29.656   4.163
63462W        W24828   3.952  33.920   1.898
63463W        W24829  32.079  23.120  13.462
63464W        W24830  42.851  33.008  12.480
63465W        W24831  38.468  13.347  13.864
63466W        W24832  23.536  14.769   2.403
63467W        W24833  43.902   6.803  13.422
63468W        W24834  12.160  41.480  14.026
63469W        W24835   8.209  36.501   3.770
63470W        W24836  38.359  12.212   0.380
63471W        W24837   2.812  33.932   2.285
63472W        W24838   4.233  29.504  13.354
63473W        W24839  29.599   0.276  13.362
63474W        W24840  30.466  35.020   0.379
63475W        W24841  15.175   1.946   1.722
63476W        W24842  18.190  33.602  11.887
63477W        W24843  33.575  19.161   1.856
63478W        W24844   5.756  35.872  13.033
63479W        W24845  26.624  37.504  10.593
63480W        W24846   3.747  15.174  11.608
63481W        W24847  18.782   0.302  13.854
63482W        W24848  15.121  26.000   0.829
63483W        W24849  25.516  24.563  14.785
63484W        W24850  15.791  36.396   4.216
63485W        W24851  38.471   8.316   0.932
63486W        W24852  19.611   2.423  11.590
63487W        W24853   4.891  12.826  11.014
63488W        W24854   1.242  34.457   0.853
63489W        W24855   2.438  24.056   0.423
63490W        W24856   4.204   9.289  10.510
63491W        W24857   2.908  31.972  11.414
63492W        W24858   1.813  13.120   4.685
63493W        W24859  40.908   5.236   2.298
63494W        W24860  37.043  42.412   0.314
63495W        W24861  12.807  18.061   3.771
63496W        W24862  29.629  40.529   2.245
63497W        W24863   7.376  34.049   1.701
63498W        W24864  32.421  40.821   2.708
63499W        W24865  15.768  36.400   0.825
63500W        W24866  32.485  40.820  14.406
63501W        W24867  27.185  21.643   4.330
63502W        W24868  22.069   1.415  14.986
63503W        W24869  12.201  34.510   0.256
63504W        W24870  40.324  17.751   3.269
63505W        W24871  19.706   0.325  10.497
63506W        W24872  27.012  16.587   3.385
63507W        W24873  21.168  26.156  14.021
63508W        W24874   1.751  28.096  14.424
63509W        W24875   0.350   1.469  14.392
63510W        W24876  24.220  28.593   4.202
63511W        W24877  32.093  43.392   9.924
63512W        W24878   6.905   7.317   1.226
63513W        W24879  17.616  16.595   2.891
63514W        W24880   6.882  43.324   2.831
63515W        W24881  31.509  28.523   2.782
63516W        W24882  34.987  11.791  10.012
63517W        W24883  14.812   7.803  10.489
63518W        W24884  31.629  23.642   5.151
63519W        W24885  38.403  40.928   1.408
63520W        W24886  38.956  38.881  10.930
63521W        W24887  25.128  35.985   0.337
63522W        W24888  25.518  42.427   3.759
63523W        W24889  16.271  11.850   2.384
63524W        W24890  40.852  38.521  12.943
63525W        W24891  40.003  17.069  10.558
63526W        W24892  13.692  17.116   5.741
63527W        W24893  39.339  31.934  11.569
63528W        W24894  11.767  22.736   2.407
63529W        W24895   7.716   6.717   5.119
63530W        W24896  24.052  20.195  12.542
63531W        W24897  41.452  10.175   2.332
63532W        W24898  27.098  25.061  13.469
63533W        W24899  16.794  34.593   3.178
63534W        W24900  16.173  19.069   1.820
63535W        W24901  32.555   4.743  12.896
63536W        W24902  35.479  14.591   4.664
63537W        W24903  21.107  14.192   4.637
63538W        W24904  28.645  39.825  10.581
63539W        W24905  12.314  32.139   1.730
63540W        W24906  44.999  35.444   1.227
63541W        W24907  31.083  41.913   4.148
63542W        W24908   1.808  14.333  12.882
63543W        W24909  13.284  14.133   1.377
63544W        W24910  14.237   7.309   4.631
63545W        W24911   2.769  21.666   4.605
63546W        W24912  37.388  25.117  13.376
63547W        W24913  32.426   3.245  11.105
63548W        W24914  28.002  25.709   3.742
63549W        W24915   6.353  18.638  10.592
63550W        W24916  40.924   7.185  13.832
63551W        W24917  15.222   9.811   4.290
63552W        W24918   7.252   7.819   1.383
63553W        W24919  28.132  23.554   2.835
63554W        W24920  29.013  31.522   4.167
63555W        W24921  24.044  24.630  12.959
63556W        W24922  23.166  42.474  12.083
63557W        W24923  30.126  25.183  12.990
63558W        W24924   6.425   9.354   0.315
63559W        W24925   6.293   8.322  12.563
63560W        W24926  16.704  11.208   3.852
63561W        W24927  13.641  23.049   1.371
63562W        W24928  21.584  44.349  14.979
63563W        W24929  30.567  43.961   1.377
63564W        W24930  37.458  24.710   4.159
63565W        W24931  19.644   8.681  11.605
63566W        W24932  20.685  36.919  12.095
63567W        W24933  38.932  44.374  13.986
63568W        W24934   8.714  16.720   1.784
63569W        W24935  43.779  28.947  13.824
63570W        W24936  29.966  44.804   3.805
63571W        W24937  12.736  21.567   2.263
63572W        W24938  23.207   1.862   3.662
63573W        W24939  13.215  15.607   3.307
63574W        W24940   1.268  26.150   4.140
63575W        W24941  15.292  24.610   3.212
63576W        W24942  15.246  20.629  11.034
63577W        W24943   3.367  41.911  10.435
63578W        W24944  20.187  13.711   2.896
63579W        W24945  16.302  16.246   2.299
63580W        W24946   6.337   3.411   0.739
63581W        W24947  20.574  27.153  13.887
63582W        W24948  34.559   8.866  12.036
63583W        W24949  22.715  32.626   1.290
63584W        W24950   9.223  30.567   0.290
63585W        W24951   5.301  28.579  13.369
63586W        W24952  25.525  16.734  14.957
63587W        W24953  43.472  23.118   0.357
63588W        W24954  23.040  13.809   2.868
63589W        W24955  20.641  33.619   3.363
63590W        W24956  10.836  22.147   4.332
63591W        W24957   0.908   6.838   1.312
63592W        W24958   8.273  28.098  11.128
63593W        W24959  39.465  10.708  11.430
63594W        W24960  38.904  27.187  13.547
63595W        W24961  26.117  43.779   0.251
63596W        W24962  41.326  37.397  14.972
63597W        W24963  37.085   3.261   0.368
63598W        W24964  17.666   0.796  14.303
63599W        W24965  35.556  18.783  13.046
63600W        W24966  11.683   8.227  14.775
63601W        W24967  29.938  43.506   4.791
63602W        W24968   5.707  38.879   0.372
63603W        W24969  17.221  30.978   3.695
63604W        W24970  35.367   6.831   1.850
63605W        W24971  28.476  28.637   3.297
63606W        W24972  22.570  37.427  11.867
63607W        W24973  26.494   2.258  14.809
63608W        W24974  24.721  36.941  13.012
63609W        W24975  12.801   3.775  11.516
63610W        W24976  22.649  38.329   4.597
63611W        W24977  38.865  19.589  13.904
63612W        W24978  31.067   0.980   1.439
63613W        W24979  12.263   5.386   0.797
63614W        W24980  16.767   6.286  10.552
63615W        W24981   8.677  21.040  10.506
63616W        W24982  41.006  22.739   2.363
63617W        W24983  34.936  17.706  11.501
63618W        W24984  14.772   9.883  12.046
63619W        W24985  32.943  18.071  11.385
63620W        W24986  26.966  40.523   4.273
63621W        W24987  38.402  35.994   0.775
63622W        W24988   6.844  35.923  11.083
63623W        W24989  15.761  14.304   1.915
63624W        W24990  22.171  42.801  14.423
63625W        W24991  14.230  21.525  11.033
63626W        W24992  14.332  17.796   3.371
63627W        W24993  42.292  22.156  12.966
63628W        W24994   4.447  30.475  14.817
63629W        W24995   9.798  37.940  14.892
63630W        W24996  25.473   1.741   1.317
63631W        W24997   1.272   7.212   1.889
63632W        W24998   5.383  41.027   3.345
63633W        W24999  37.490  12.746  12.832
63634W        W25000  17.148  31.950  10.583
63635W        W25001  32.598  36.441  13.848
63636W        W25002  44.387  34.434  11.567
63637W        W25003   2.732  19.763   0.757
63638W        W25004  26.987  20.151  13.470
63639W        W25005   5.835  17.655   3.669
63640W        W25006   2.358   0.901   2.763
63641W        W25007  17.186   1.798   1.714
63642W        W25008  33.944  20.527  12.380
63643W        W25009  11.655  14.240  11.092
63644W        W25010   8.243  14.170   0.319
63645W        W25011   1.867   4.221   2.354
63646W        W25012   0.413   9.789  14.431
63647W        W25013  32.039  23.196  11.407
63648W        W25014  11.643  35.602  11.374
63649W        W25015  40.406  16.602  14.496
63650W        W25016  17.679  41.409  12.865
63651W        W25017  39.445  17.705   0.894
63652W        W25018  20.759  22.587   4.835
63653W        W25019  21.742  38.844   3.630
63654W        W25020   9.659  33.066   4.764
63655W        W25021  30.489   1.943   1.244
63656W        W25022  34.603   3.939   2.393
63657W        W25023  28.015  20.664   0.318
63658W        W25024  21.140  38.914   2.243
63659W        W25025  15.161  28.936  12.916
63660W        W25026   3.740  18.251  13.953
63661W        W25027  17.728   8.254  13.353
63662W        W25028  23.540  22.534   2.283
63663W        W25029  24.490  43.335   2.305
63664W        W25030  35.474   3.237   5.306
63665W        W25031  33.508  35.524  10.507
63666W        W25032  12.151  26.175  14.848
63667W        W25033  18.210  16.193  12.443
63668W        W25034  39.406  32.970  12.493
63669W        W25035   8.225  14.663   0.785
63670W        W25036  26.032  19.217  10.449
63671W        W25037  23.582  36.961   1.930
63672W        W25038   1.906   8.693  13.500
63673W        W25039  34.880  37.370   3.217
63674W        W25040  27.643  37.998  11.986
63675W        W25041  20.628  12.202  11.487
63676W        W25042   8.231  40.316  13.316
63677W        W25043  15.580  42.822   3.750
63678W        W25044  40.455  23.039   4.196
63679W        W25045  42.015  20.149   2.306
63680W        W25046  18.159   2.313  13.929
63681W        W25047  37.967  16.766   2.764
63682W        W25048  35.857  10.176  11.433
63683W        W25049  14.782  39.496  12.006
63684W        W25050   9.153  43.922   2.347
63685W        W25051   0.840  39.344   0.801
63686W        W25052   4.340  29.631   3.235
63687W        W25053  12.843   0.936   0.964
63688W        W25054  24.148  10.789   2.409
63689W        W25055  23.658  19.101  13.938
63690W        W25056  11.139  12.794   2.335
63691W        W25057  16.724   1.419  11.008
63692W        W25058  18.285   0.916   1.297
63693W        W25059  34.997  22.563  14.839
63694W        W25060  14.303  15.128   1.293
63695W        W25061  28.146  23.150   4.165
63696W        W25062  27.635  21.688   0.454
63697W        W25063  39.010   0.862   5.135
63698W        W25064   9.198  33.517   0.734
63699W        W25065  33.878  42.009  13.443
63700W        W25066  26.492  17.635  11.943
63701W        W25067  35.566   3.892  14.012
63702W        W25068  25.188  22.685  11.102
63703W        W25069   6.211  21.704  14.851
63704W        W25070   9.867  43.381  12.839
63705W        W25071  32.433  36.579   3.712
63706W        W25072  13.623   9.818  13.813
63707W        W25073  16.246  18.075  14.437
63708W        W25074  17.680  12.189  10.890
63709W        W25075  25.083  41.396   4.660
63710W        W25076  35.523  29.948  10.602
63711W        W25077   2.246   3.400  12.085
63712W        W25078  18.142  19.044   0.364
63713W        W25079   6.923  35.496   3.742
63714W        W25080  22.017  20.576   0.818
63715W        W25081  39.464  17.782  10.478
63716W        W25082  36.895  11.720   0.457
63717W        W25083  28.518  38.382   1.812
63718W        W25084  13.640  19.563   4.120
63719W        W25085  18.058   2.340  12.346
63720W        W25086  29.959   4.814   0.802
63721W        W25087  27.452  22.032   2.266
63722W        W25088  29.646  35.478   0.455
63723W        W25089  31.140  15.172   1.258
63724W        W25090  26.963  25.002   1.296
63725W        W25091  44.266  38.859  12.388
63726W        W25092  44.952  18.721  11.964
63727W        W25093  22.662  27.686  14.907
63728W        W25094   8.873  33.439   3.692
63729W        W25095  11.655  23.734  10.608
63730W        W25096  39.530  26.479   4.209
63731W        W25097  22.183  19.774   2.335
63732W        W25098  41.959   8.310   2.780
63733W        W25099  16.711  29.544   2.725
63734W        W25100  36.507   5.840  13.995
63735W        W25101  33.082  27.541   1.351
63736W        W25102  43.433   0.460  14.886
63737W        W25103  11.307  26.960  11.080
63738W        W25104   8.683  19.233   2.336
63739W        W25105  22.020  20.267   2.232
63740W        W25106  13.627   5.826  14.505
63741W        W25107  37.957  17.260   0.253
63742W        W25108  10.206   1.805   1.392
63743W        W25109   6.254  27.639  11.973
63744W        W25110  41.355  39.386   3.342
63745W        W25111  43.423  37.438  13.993
63746W        W25112   6.258   6.343  14.398
63747W        W25113  24.662   5.716  12.345
63748W        W25114  36.486   1.396  13.521
63749W        W25115  14.168  36.353   1.401
63750W        W25116  16.088   4.761  10.493
63751W        W25117  17.307  32.549   5.629
63752W        W25118   7.861  38.361  10.475
63753W        W25119  10.720  29.161  10.901
63754W        W25120  29.547  16.097  13.364
63755W        W25121  33.887  21.553   2.876
63756W        W25122  33.005  10.661   2.745
63757W        W25123  16.108  39.527  12.345
63758W        W25124  14.206  35.940   3.236
63759W        W25125   0.883   3.256  10.075
63760W        W25126  32.450  30.424   4.724
63761W        W25127  37.891   4.856  14.928
63762W        W25128  34.544  12.728   3.737
63763W        W25129  40.413   9.684   2.310
63764W        W25130   3.896  16.675   5.726
63765W        W25131  19.574  21.214  12.394
63766W        W25132  11.698   9.165  12.507
63767W        W25133  41.331   3.461  12.461
63768W        W25134  41.294  26.521   1.757
63769W        W25135  14.719  11.727   1.341
63770W        W25136   1.752  24.680  11.899
63771W        W25137  35.081  38.898   1.285
63772W        W25138  35.538  24.600  13.367
63773W        W25139  18.238  30.013  12.929
63774W        W25140  24.066  35.852  10.953
63775W        W25141  34.556  16.647   2.715
63776W        W25142  30.494  13.728   1.830
63777W        W25143  20.586  13.612   0.436
63778W        W25144  23.541   9.259   1.317
63779W        W25145  14.799  15.232  12.876
63780W        W25146  16.658   8.807  10.453
63781W        W25147  42.509   4.440  10.420
63782W        W25148   0.348  33.530  12.958
63783W        W25149  34.523  20.691   3.261
63784W        W25150   0.427   0.834  12.959
63785W        W25151  17.603  37.500   0.804
63786W        W25152   8.823  33.474   2.720
63787W        W25153  35.880   9.258   0.406
63788W        W25154  24.619  29.645   3.680
63789W        W25155  42.372  23.657  14.330
63790W        W25156  38.359  16.243   0.740
63791W        W25157  11.771  26.971  12.410
63792W        W25158  10.876  15.578   0.917
63793W        W25159  26.535  24.533  12.088
63794W        W25160  10.302  24.570   1.709
63795W        W25161  38.522  12.127  12.032
63796W        W25162  29.107  12.326   1.329
63797W        W25163  17.759  28.089  10.466
63798W        W25164  23.568  28.114  11.857
63799W        W25165  36.009  35.063   3.304
63800W        W25166  23.191   8.244   0.420
63801W        W25167  23.637  29.445  14.357
63802W        W25168  37.539  33.081   3.658
63803W        W25169   1.241  17.129   2.820
63804W        W25170   0.278  44.919  13.418
63805W        W25171   6.758  44.279   0.366
63806W        W25172  18.206  40.892  11.378
63807W        W25173  12.234  21.581  11.602
63808W        W25174  29.499  22.633  11.420
63809W        W25175  15.127  43.348  11.071
63810W        W25176   3.256  43.912  14.986
63811W        W25177  21.165  29.510   1.810
63812W        W25178  31.481  18.125  14.010
63813W        W25179  41.465  42.491  14.873
63814W        W25180  25.588  33.576   0.298
63815W        W25181   3.290  18.153   3.823
63816W        W25182  19.713  36.546  13.422
63817W        W25183  24.543  15.268   4.227
63818W        W25184  16.119   2.918   2.824
63819W        W25185  21.538  35.021   4.640
63820W        W25186  36.586  34.987  11.426
63821W        W25187  31.969  43.957  13.509
63822W        W25188  32.057  34.475   2.807
63823W        W25189  21.736   6.357   3.251
63824W        W25190  17.167  25.217  14.407
63825W        W25191  42.418  18.672  12.376
63826W        W25192  10.814   9.208  12.360
63827W        W25193  31.421  28.540  14.396
63828W        W25194   6.755  10.296   4.149
63829W        W25195   1.432  16.596  14.416
63830W        W25196  40.009  44.770  14.864
63831W        W25197  15.285  36.389   1.421
63832W        W25198  14.687   4.356  14.949
63833W        W25199  12.122  25.684   2.409
63834W        W25200  19.105   2.390   0.835
63835W        W25201  29.428  42.789  11.887
63836W        W25202  13.600  41.369  11.440
63837W        W25203  21.040  25.157  14.956
63838W        W25204  30.964  23.011   5.094
63839W        W25205  40.910  36.934  12.451
63840W        W25206   6.203  30.482   3.722
63841W        W25207  44.452   6.187  12.938
63842W        W25208  10.868   6.244  13.308
63843W        W25209  13.783  11.694  11.953
63844W        W25210  16.311   7.672   4.679
63845W        W25211  18.251  39.937  12.850
63846W        W25212  19.173  33.618  12.518
63847W        W25213  26.630  40.994   4.824
63848W        W25214  18.625  41.325   4.143
63849W        W25215   6.353  14.236  11.107
63850W        W25216  35.878  22.112  14.776
63851W        W25217  43.930  30.569  13.333
63852W        W25218  10.875  19.091   1.736
63853W        W25219  21.538  17.681  14.330
63854W        W25220  23.510  12.253   3.637
63855W        W25221  21.628   5.865  13.516
63856W        W25222  25.666   0.876   3.342
63857W        W25223  26.104  23.620  12.896
63858W        W25224  32.422  41.925  14.907
63859W        W25225  24.624  39.559   4.756
63860W        W25226  31.628  32.010  13.348
63861W        W25227  34.610  30.476  14.973
63862W        W25228  33.955  18.710  14.002
63863W        W25229   9.809  43.770  11.925
63864W        W25230   9.781   6.726   2.729
63865W        W25231  12.765  10.238   0.343
63866W        W25232  39.433  31.113  10.414
63867W        W25233  42.893  11.764   2.333
63868W        W25234   8.815  41.906  12.867
63869W        W25235  43.488   1.382   0.386
63870W        W25236  34.975   8.812   3.274
63871W        W25237  39.823  13.829   0.381
63872W        W25238  27.068  34.997   0.437
63873W        W25239  27.459  42.333  13.415
63874W        W25240  11.826  22.139   0.341
63875W        W25241  44.900  10.815   2.183
63876W        W25242  25.202   8.824  10.509
63877W        W25243  38.417  39.974  10.625
63878W        W25244  21.154  28.507  14.326
63879W        W25245  13.252  24.569  10.587
63880W        W25246  41.488  12.331   1.298
63881W        W25247  11.155  14.643  12.408
63882W        W25248  35.392  28.097  11.916
63883W        W25249  35.427   7.689   0.344
63884W        W25250  43.511   9.299  10.595
63885W        W25251  41.983  15.605   4.680
63886W        W25252  24.647  41.810  11.605
63887W        W25253  29.623  24.551   2.801
63888W        W25254  39.999   5.401   1.442
63889W        W25255  38.329  29.582   4.667
63890W        W25256  42.023  40.025   4.697
63891W        W25257  15.815  30.135  12.933
63892W        W25258  23.218  20.730  13.437
63893W        W25259  38.503  29.516   3.300
63894W        W25260   7.846   9.171  11.944
63895W        W25261  33.498  24.552   3.205
63896W        W25262  20.218   3.737   4.178
63897W        W25263  23.551  35.973   0.777
63898W        W25264  14.340   0.353  14.478
63899W        W25265  38.541  22.093  11.577
63900W        W25266  26.108  33.428  11.581
63901W        W25267  22.510  25.168   0.292
63902W        W25268  36.542  21.551   4.676
63903W        W25269  12.276   5.357  14.937
63904W        W25270  43.874  28.070  13.965
63905W        W25271  21.225  12.672   1.914
63906W        W25272  18.732  33.081   1.419
63907W        W25273  16.778  15.803  14.770
63908W        W25274  37.086   2.369  11.883
63909W        W25275  26.165  10.801  14.486
63910W        W25276  11.178  28.567  13.055
63911W        W25277  19.252  33.991   2.212
63912W        W25278  37.552  25.567   3.195
63913W        W25279   6.229   6.750  14.498
63914W        W25280   7.907  21.174  11.413
63915W        W25281  16.604  35.931   3.819
63916W        W25282  21.601  21.750  12.844
63917W        W25283  28.958  32.970  12.480
63918W        W25284  44.293  37.349   4.240
63919W        W25285  42.292   6.424  14.835
63920W        W25286  21.107  32.913  11.605
63921W        W25287  28.034  37.431   9.921
63922W        W25288  27.673  19.243   1.878
63923W        W25289   1.352  39.950   4.620
63924W        W25290   8.672  26.139  13.814
63925W        W25291  34.066  44.424   4.113
63926W        W25292   3.920  26.572  11.999
63927W        W25293  22.737  26.679   0.465
63928W        W25294   5.717  29.430   1.852
63929W        W25295  15.225  37.902   0.944
63930W        W25296  41.323  27.465   4.630
63931W        W25297  25.971   8.237   3.350
63932W        W25298   3.790  12.692   0.392
63933W        W25299   0.944   5.781  12.415
63934W        W25300  19.546  16.801  11.044
63935W        W25301   1.466   7.282   3.315
63936W        W25302  28.064   9.811   1.846
63937W        W25303  18.295  35.486   2.821
63938W        W25304  37.349  12.136   2.883
63939W        W25305   1.922  32.401  14.446
63940W        W25306   8.322  31.610   2.671
63941W        W25307   8.204   2.948  13.902
63942W        W25308  32.569  12.632   5.286
63943W        W25309  42.440  13.645   2.819
63944W        W25310  22.540  10.350  14.891
63945W        W25311   2.416  28.178   3.810
63946W        W25312  21.594  28.613  14.023
63947W        W25313  29.437  44.271  13.821
63948W        W25314  27.980   9.692   2.818
63949W        W25315  44.854  39.933   2.884
63950W        W25316  25.096  30.160   4.194
63951W        W25317  43.319  24.043   0.343
63952W        W25318  14.621  14.705   2.864
63953W        W25319  14.750  41.824  12.500
63954W        W25320  36.841  17.776   0.752
63955W        W25321  17.591  40.844   4.350
63956W        W25322  17.268  41.511   5.237
63957W        W25323  17.711   8.654  10.483
63958W        W25324  30.615  21.048  13.381
63959W        W25325   8.347  25.053   0.906
63960W        W25326   6.237  21.752   0.423
63961W        W25327   2.314  38.567  13.512
63962W        W25328  13.710  16.685  11.558
63963W        W25329   7.207   9.773   4.826
63964W        W25330  39.962  28.644   4.156
63965W        W25331  12.239  25.558  12.995
63966W        W25332  43.288  25.662   2.225
63967W        W25333  30.479  16.239   1.350
63968W        W25334  18.603   9.280  13.527
63969W        W25335  22.547  40.799   3.165
63970W        W25336  25.150  17.084  12.367
63971W        W25337  32.891  22.110  12.917
63972W        W25338  44.904  28.170   1.883
63973W        W25339  26.660  33.519   0.782
63974W        W25340  33.597  29.559  14.475
63975W        W25341  17.089  30.582   2.337
63976W        W25342  41.486  23.025   3.379
63977W        W25343   6.329  26.469   3.176
63978W        W25344  13.703  42.960   4.322
63979W        W25345  39.043  39.889   5.157
63980W        W25346  34.013  37.977   4.280
63981W        W25347  23.119  35.000   2.329
63982W        W25348  43.270  17.639   4.819
63983W        W25349  36.017  30.072   1.273
63984W        W25350  19.208  20.263   0.388
63985W        W25351  22.575  12.246  14.314
63986W        W25352  18.110  18.611   1.917
63987W        W25353  16.623  22.650  12.502
63988W        W25354  39.967   0.905   4.753
63989W        W25355  21.539  23.132  11.518
63990W        W25356   8.839  13.110  14.467
63991W        W25357  42.495  35.960  12.541
63992W        W25358  36.545   7.292  10.634
63993W        W25359   4.215  10.719   0.290
63994W        W25360  41.000   6.690   2.683
63995W        W25361  29.519  43.311   4.189
63996W        W25362   0.318  30.929   3.679
63997W        W25363  11.845  12.726  13.886
63998W        W25364   0.819  14.285  12.871
63999W        W25365  37.366  34.546   0.310
64000W        W25366  39.852  28.954   0.887
64001W        W25367  33.092  19.551  14.457
64002W        W25368  30.929   0.775  12.354
64003W        W25369  21.537  40.411   3.680
64004W        W25370  20.538  29.605   0.459
64005W        W25371   1.401   3.950  10.464
64006W        W25372  32.426  11.814   3.783
64007W        W25373   8.710  16.587   2.682
64008W        W25374   1.806   7.680   3.152
64009W        W25375  14.823  17.678   4.786
64010W        W25376  43.845  18.580  12.919
64011W        W25377  41.816  21.593   3.328
64012W        W25378  14.245  17.601   1.710
64013W        W25379  11.230  35.524   1.240
64014W        W25380  31.995   5.747  12.358
64015W        W25381  24.976  21.081   1.857
64016W        W25382  39.065  42.836   1.337
64017W        W25383   5.818  32.967  10.417
64018W        W25384  32.096  16.698  13.323
64019W        W25385   9.157   8.402   2.701
64020W        W25386  42.338  17.231   4.246
64021W        W25387   9.382  30.416   1.915
64022W        W25388  22.687   9.336   3.356
64023W        W25389  30.562  27.030   4.348
64024W        W25390  44.963  35.012  12.872
64025W        W25391  37.896  12.741   1.769
64026W        W25392  15.619  24.212   1.890
64027W        W25393   9.699  29.169  12.030
64028W        W25394  29.156  25.188   2.264
64029W        W25395  42.524  41.942  10.946
64030W        W25396  41.957  11.672  13.520
64031W        W25397  38.057  18.286   4.786
64032W        W25398  23.508   6.294  11.127
64033W        W25399  25.632  38.331  12.487
64034W        W25400  15.287  26.661   4.836
64035W        W25401  23.209  33.593  11.002
64036W        W25402  18.168  27.002   3.653
64037W        W25403  19.279  17.152  14.363
64038W        W25404  33.948  25.647   1.228
64039W        W25405  29.993  31.988   1.734
64040W        W25406  32.033  30.531  10.609
64041W        W25407  12.753  22.610  14.954
64042W        W25408  18.642  23.635   0.857
64043W        W25409  21.526  24.058  11.555
64044W        W25410   5.350  22.642   1.729
64045W        W25411  38.457  39.529  11.610
64046W        W25412  40.314   0.327   2.234
64047W        W25413  44.767  44.409   2.822
64048W        W25414  12.758  20.767   1.725
64049W        W25415   2.720  32.488   5.295
64050W        W25416  44.879  31.571  11.058
64051W        W25417   4.318  13.842   2.695
64052W        W25418  31.432  30.463   4.152
64053W        W25419  36.524   3.765  13.983
64054W        W25420  42.860  36.016   4.760
64055W        W25421  24.484  36.966  14.371
64056W        W25422   3.251  15.644  12.020
64057W        W25423  32.547  14.752   0.947
64058W        W25424  11.714  22.614   5.165
64059W        W25425   0.298  20.558   4.838
64060W        W25426  30.436  15.771   0.328
64061W        W25427  24.120  29.147   5.636
64062W        W25428  31.960  10.717  10.931
64063W        W25429   2.751  34.479  13.429
64064W        W25430  19.667  42.023   5.133
64065W        W25431  33.963  25.011  13.392
64066W        W25432  36.397  39.948  11.481
64067W        W25433  25.082   2.812  12.543
64068W        W25434  30.516  17.662  12.009
64069W        W25435   1.288  33.948  13.467
64070W        W25436  28.510  19.571   1.805
64071W        W25437  29.043  38.032  12.842
64072W        W25438  25.172  23.732  14.406
64073W        W25439  13.115   2.255  13.468
64074W        W25440  32.458  14.264   3.791
64075W        W25441  17.249   7.310   2.238
64076W        W25442  42.019  40.511   1.833
64077W        W25443  19.622  34.041   5.675
64078W        W25444   6.752  32.502   0.882
64079W        W25445  34.381   2.761  12.396
64080W        W25446  10.707  30.641  10.904
64081W        W25447   5.837   9.237  13.931
64082W        W25448  27.526  28.113   0.463
64083W        W25449  21.692  36.064  11.056
64084W        W25450  21.080  18.584   4.128
64085W        W25451  21.243  19.153  14.870
64086W        W25452   2.921  15.755   4.620
64087W        W25453  18.155  25.608   0.427
64088W        W25454  33.006  30.030  14.793
64089W        W25455  34.084  14.209  11.407
64090W        W25456  16.794  32.575   9.996
64091W        W25457   8.878  25.025   1.758
64092W        W25458   1.908  30.054  12.410
64093W        W25459  21.530   4.337  14.476
64094W        W25460  32.022  14.729  13.502
64095W        W25461  11.743  30.136  14.507
64096W        W25462  35.922   2.841  14.297
64097W        W25463   6.202  36.398  11.444
64098W        W25464   5.238  21.021  13.521
64099W        W25465   9.708   6.339  11.414
64100W        W25466  24.501  23.556  13.524
64101W        W25467   5.905  26.998   2.303
64102W        W25468  27.141   1.878  14.357
64103W        W25469   9.829  38.570  14.339
64104W        W25470  42.441  10.296  12.503
64105W        W25471  39.492   1.890   0.920
64106W        W25472  15.702  32.018   4.319
64107W        W25473   7.679  16.648  11.117
64108W        W25474  20.754  35.946   1.792
64109W        W25475  14.149  16.664   4.296
64110W        W25476  27.942   3.416  12.386
64111W        W25477   2.297  43.841   0.731
64112W        W25478  12.812  27.531   0.953
64113W        W25479  23.013   0.471   0.964
64114W        W25480  20.225  40.548   2.699
64115W        W25481  43.363  20.207   1.314
64116W        W25482  12.276  19.051   0.464
64117W        W25483  19.098  10.325   2.746
64118W        W25484  13.604  37.846   0.847
64119W        W25485  34.975  16.796   1.706
64120W        W25486  37.492  16.810   4.609
64121W        W25487  34.966  16.574   3.157
64122W        W25488  43.292  27.670   2.749
64123W        W25489  22.704  14.325   1.387
64124W        W25490  36.090  31.563   3.153
64125W        W25491  27.606  23.003   4.330
64126W        W25492  28.012  32.132   0.940
64127W        W25493  19.727  19.558   1.440
64128W        W25494  42.357   3.263  14.445
64129W        W25495  38.956   0.326   0.728
64130W        W25496  44.917  39.988   1.818
64131W        W25497   8.286   1.316   2.214
64132W        W25498  21.047  21.194   0.874
64133W        W25499  21.239  29.956   0.270
64134W        W25500  35.108  21.736   5.139
64135W        W25501  18.167   6.912  14.315
64136W        W25502  36.512   6.850   4.786
64137W        W25503  26.625   9.690   4.333
64138W        W25504  15.179  21.127   3.768
64139W        W25505  10.234   6.896  10.892
64140W        W25506  42.999  44.353  14.031
64141W        W25507  29.157  18.761   1.395
64142W        W25508   2.342  22.102   2.220
64143W        W25509  21.226  22.595   0.280
64144W        W25510  32.543  19.760   0.356
64145W        W25511   7.258  38.513   4.299
64146W        W25512  30.449  21.699   2.394
64147W        W25513  19.192  18.126  10.585
64148W        W25514  10.308   9.713  13.893
64149W        W25515  39.404  15.615  12.065
64150W        W25516  38.340  42.391  10.579
64151W        W25517   9.254   2.289   2.409
64152W        W25518   7.724  19.641  14.300
64153W        W25519  22.017  26.537   0.750
64154W        W25520  17.710  44.788   1.451
64155W        W25521  39.810  21.679  13.344
64156W        W25522   2.344   1.751  14.869
64157W        W25523  28.963  20.728  14.344
64158W        W25524  11.809   2.368  12.828
64159W        W25525  40.424  34.062   0.906
64160W        W25526  17.263  32.920  12.361
64161W        W25527  38.363   3.331  11.941
64162W        W25528  36.427   2.448   4.716
64163W        W25529  32.576  41.856  14.500
64164W        W25530  23.143  43.928  11.872
64165W        W25531  23.494   0.937  13.795
64166W        W25532  41.308   0.386  11.957
64167W        W25533  34.039  38.999  12.844
64168W        W25534  35.472   6.914   3.308
64169W        W25535  11.350  13.666   3.861
64170W        W25536  27.491  33.445   4.120
64171W        W25537  36.511  33.972   3.836
64172W        W25538   1.247  16.099   0.813
64173W        W25539  26.552  34.499   4.675
64174W        W25540  18.710  20.268   1.706
64175W        W25541  18.192   8.729   4.312
64176W        W25542  39.517  28.156   4.690
64177W        W25543   2.889  38.336  10.564
64178W        W25544  17.142  38.389  14.373
64179W        W25545  18.129   4.310   0.264
64180W        W25546  44.865   6.345   1.763
64181W        W25547  20.585   2.753  14.504
64182W        W25548  39.855  11.307   0.399
64183W        W25549  26.181  15.175  11.387
64184W        W25550  28.509  26.559   4.684
64185W        W25551  26.678  20.584  10.579
64186W        W25552  36.568  32.040  13.933
64187W        W25553  19.764  28.178   3.170
64188W        W25554  23.622   5.201  13.404
64189W        W25555  21.732  12.330   1.891
64190W        W25556  19.075  26.476  13.027
64191W        W25557  27.105  22.699  12.073
64192W        W25558   8.738  26.187  11.599
64193W        W25559  35.571  14.811   0.756
64194W        W25560  32.056   2.961   1.805
64195W        W25561  19.054   3.746   3.323
64196W        W25562  34.555  26.193   0.264
64197W        W25563  32.017  29.618  14.010
64198W        W25564  11.366  25.020   1.401
64199W        W25565  26.181  19.553   0.298
64200W        W25566  21.041   5.424   9.494
64201W        W25567  15.230  36.871   3.162
64202W        W25568  21.602  39.985   4.349
64203W        W25569  38.827  17.300  11.072
64204W        W25570  17.124  44.389  11.486
64205W        W25571   7.737   1.789   1.349
64206W        W25572  40.051  32.442   0.386
64207W        W25573   1.437  13.235  10.643
64208W        W25574  35.583   9.363  14.771
64209W        W25575  43.995  42.376   0.480
64210W        W25576  33.545  28.477   1.349
64211W        W25577  25.659  12.331  11.942
64212W        W25578  40.492  38.973  13.047
64213W        W25579   8.231   9.812  12.037
64214W        W25580  36.507  29.931   1.432
64215W        W25581   3.229  38.426   3.233
64216W        W25582   9.785  36.891   0.806
64217W        W25583  39.832  40.930  11.925
64218W        W25584  18.739  15.776   5.567
64219W        W25585  37.852  41.343   1.286
64220W        W25586  14.223  30.514   0.368
64221W        W25587   2.230  34.039  14.980
64222W        W25588  25.700  14.290   2.373
64223W        W25589  11.748   6.811  11.592
64224W        W25590  29.067  35.021   1.399
64225W        W25591  16.101  18.567   1.909
64226W        W25592  34.032   6.341  10.927
64227W        W25593  39.041  43.944   3.163
64228W        W25594  20.064   0.777  13.971
64229W        W25595  42.991   6.184  14.938
64230W        W25596  26.032  41.816   0.771
64231W        W25597   8.875  36.387   2.189
64232W        W25598  34.444  18.595  10.627
64233W        W25599  11.161  25.192  14.351
64234W        W25600  11.319  40.933  12.860
64235W        W25601  32.945  28.524   3.819
64236W        W25602  43.485  41.954  14.832
64237W        W25603  14.744  20.060   2.846
64238W        W25604  29.636  18.229  14.296
64239W        W25605   6.203   4.747  12.525
64240W        W25606  34.421  26.655  14.358
64241W        W25607  23.075  27.526   0.850
64242W        W25608  30.564  19.165  11.586
64243W        W25609  42.857  44.847   3.153
64244W        W25610  25.206  32.902  10.604
64245W        W25611  36.494  22.742   3.823
64246W        W25612  43.411  26.635  11.570
64247W        W25613  41.032  14.813  14.482
64248W        W25614  30.017  31.447  13.489
64249W        W25615  20.182  24.021   3.841
64250W        W25616   3.414   8.686  12.018
64251W        W25617   5.815  19.684  11.124
64252W        W25618  25.111  40.973   3.255
64253W        W25619  17.612  10.859  12.563
64254W        W25620  25.589   0.484   1.275
64255W        W25621  40.955  12.322   4.708
64256W        W25622  28.568  13.339   3.179
64257W        W25623  37.479  15.578   3.704
64258W        W25624   7.857   3.948   4.268
64259W        W25625  18.751   1.904  10.437
64260W        W25626  42.334  24.106  10.900
64261W        W25627  13.796   7.222   2.755
64262W        W25628   7.790   5.921  10.409
64263W        W25629   4.425   6.725  12.546
64264W        W25630  26.662  42.019  12.433
64265W        W25631  30.637  21.258   0.727
64266W        W25632  20.735  27.644  14.023
64267W        W25633  12.172  11.160   4.721
64268W        W25634   6.282  17.600   3.860
64269W        W25635   7.896  21.252  10.961
64270W        W25636   1.344   1.935  13.468
64271W        W25637   4.731  14.646   1.786
64272W        W25638  36.532  43.505  10.543
64273W        W25639  30.503  26.530   1.298
64274W        W25640   1.733  12.656  10.940
64275W        W25641  35.426   6.769  14.917
64276W        W25642  41.938  34.493  10.469
64277W        W25643  38.039   6.849   4.730
64278W        W25644  36.442   4.295   3.151
64279W        W25645  10.307  29.623   2.757
64280W        W25646  10.740  19.176   2.785
64281W        W25647  10.297  22.545  11.916
64282W        W25648  22.111  31.121   4.326
64283W        W25649  28.485  34.377  14.938
64284W        W25650  30.127  17.665  11.970
64285W        W25651   3.275  15.269   0.386
64286W        W25652  10.361  11.773   4.314
64287W        W25653   9.755  40.327   2.409
64288W        W25654   7.701   6.428   0.933
64289W        W25655   1.761   4.733   1.729
64290W        W25656  20.632  14.337   1.746
64291W        W25657  12.855  10.274  12.905
64292W        W25658  20.569  15.628   4.754
64293W        W25659  24.479  31.091   2.317
64294W        W25660  42.910  21.649   4.784
64295W        W25661  12.197  28.105  11.123
64296W        W25662  15.652   9.184   4.738
64297W        W25663  28.950  24.663  11.081
64298W        W25664  29.554  32.979   3.820
64299W        W25665  27.000  44.006  14.021
64300W        W25666   8.724   2.910  12.939
64301W        W25667  27.660  12.625  14.938
64302W        W25668   6.280   6.910   3.368
64303W        W25669  14.106  39.050  10.436
64304W        W25670  44.989   7.694  12.466
64305W        W25671  10.213  12.671  11.427
64306W        W25672  20.034  21.598  11.371
64307W        W25673  22.649   8.364   0.379
64308W        W25674   2.911   1.347   0.868
64309W        W25675  15.219   8.702  11.950
64310W        W25676   4.208  16.272  11.510
64311W        W25677  34.891  31.407   1.336
64312W        W25678   5.379  21.116   3.870
64313W        W25679  17.699  16.632  13.938
64314W        W25680  10.359  28.147  14.793
64315W        W25681  37.875  20.599   3.779
64316W        W25682   6.291   9.315  14.301
64317W        W25683  15.225  43.398  11.503
64318W        W25684  12.219  37.921   4.832
64319W        W25685  31.987   5.300  14.333
64320W        W25686  34.446  27.997   1.732
64321W        W25687  34.991  22.127  14.818
64322W        W25688  44.327  17.218  13.903
64323W        W25689  32.010  16.276  11.035
64324W        W25690  20.577  18.628  13.980
64325W        W25691  38.490  16.245   4.783
64326W        W25692  33.877  34.999   3.641
64327W        W25693   7.798  18.091   4.327
64328W        W25694  29.452  43.494   0.817
64329W        W25695  17.099  26.530   4.704
64330W        W25696   6.275   7.850   4.209
64331W        W25697  37.985  11.702   0.904
64332W        W25698  16.636   3.302  12.524
64333W        W25699   3.349   6.841   2.746
64334W        W25700  11.723   4.819   1.220
64335W        W25701   3.767  41.889  11.436
64336W        W25702  12.627  35.076  11.952
64337W        W25703  40.927  22.158   2.328
64338W        W25704  22.668  32.477  11.090
64339W        W25705  31.139  15.099   4.606
64340W        W25706  43.432  14.686  13.910
64341W        W25707   8.347  12.274   0.776
64342W        W25708  45.000  37.871  13.018
64343W        W25709  30.454  27.500  11.011
64344W        W25710  15.097   3.297  10.545
64345W        W25711  42.499  44.901   4.779
64346W        W25712   9.216  37.579   4.796
64347W        W25713  34.980   7.785  12.880
64348W        W25714  26.635  35.897  14.793
64349W        W25715  11.815  25.680  14.852
64350W        W25716  39.551  39.028  11.856
64351W        W25717   2.751  22.150  12.846
64352W        W25718   7.407   2.280  11.452
64353W        W25719  18.278   0.330   4.682
64354W        W25720  11.338  28.676  12.343
64355W        W25721  28.998   3.832  11.600
64356W        W25722  35.504  27.624  13.404
64357W        W25723  31.961   3.349   2.366
64358W        W25724  41.959  37.424  12.016
64359W        W25725  21.577  40.514   0.821
64360W        W25726  32.433  31.083  12.449
64361W        W25727   9.724  39.405  11.447
64362W        W25728   4.944  10.271  11.051
64363W        W25729  44.356  28.599   0.944
64364W        W25730  30.541  16.639   0.480
64365W        W25731  15.100   7.267   2.330
64366W        W25732  29.048   7.899  12.443
64367W        W25733  44.938  36.591  12.972
64368W        W25734   0.744  35.595   4.238
64369W        W25735   3.725  21.145   1.868
64370W        W25736  32.422  12.280  10.567
64371W        W25737  28.033  24.085  14.903
64372W        W25738  19.592  17.592   0.884
64373W        W25739   5.920   6.232   5.210
64374W        W25740  23.053  12.800  11.934
64375W        W25741   1.273  27.602   1.394
64376W        W25742  12.183   5.755   0.479
64377W        W25743  12.218  12.173   0.351
64378W        W25744   7.863  15.121   4.153
64379W        W25745  18.147  17.748  13.791
64380W        W25746  13.672  23.119  13.457
64381W        W25747   5.395  17.562   4.117
64382W        W25748  14.732  40.028  11.925
64383W        W25749  17.188  15.781   9.443
64384W        W25750  42.472  16.114  10.617
64385W        W25751  28.625  31.518   3.271
64386W        W25752  18.557  30.139  13.874
64387W        W25753  36.367   7.366   3.271
64388W        W25754  29.986  33.605  13.879
64389W        W25755  22.247   7.784   3.861
64390W        W25756   1.280  42.391   2.331
64391W        W25757  17.081  23.724  10.023
64392W        W25758  18.561  29.927  11.596
64393W        W25759  38.917  18.148   2.388
64394W        W25760  17.194  38.421  13.321
64395W        W25761   8.321  34.528   3.797
64396W        W25762  24.212  12.660  11.410
64397W        W25763  19.770  38.941   5.148
64398W        W25764   7.900  44.288   0.808
64399W        W25765  33.414  37.525   1.874
64400W        W25766  32.087  36.498  10.920
64401W        W25767  17.734  34.980   4.262
64402W        W25768  23.673   0.339   0.800
64403W        W25769  21.035  34.948  11.875
64404W        W25770  32.038  17.589   1.397
64405W        W25771  22.228  26.687  12.003
64406W        W25772  37.377   3.813   1.753
64407W        W25773  37.503   3.248  13.980
64408W        W25774  33.953  26.160   0.872
64409W        W25775  37.469  22.105  13.314
64410W        W25776  33.880  29.945   0.822
64411W        W25777  39.993  13.276   0.351
64412W        W25778   0.857  27.969  12.083
64413W        W25779  30.477  29.930  11.905
64414W        W25780   9.277  31.479   0.419
64415W        W25781  20.701   2.830   1.404
64416W        W25782  16.643  32.958   0.464
64417W        W25783   5.933  22.021   3.726
64418W        W25784  30.992  18.247  14.926
64419W        W25785  20.260  43.449  14.318
64420W        W25786  36.407  36.438   2.749
64421W        W25787  26.691  28.610  14.775
64422W        W25788  22.008  10.250   1.295
64423W        W25789  31.930  12.779   1.760
64424W        W25790  12.805  28.111  13.499
64425W        W25791  11.857  18.151  10.108
64426W        W25792   1.307  15.293   3.714
64427W        W25793  40.892  38.351  12.506
64428W        W25794  24.543   7.413   4.246
64429W        W25795  26.696  23.495   1.398
64430W        W25796  16.271  23.128  10.548
64431W        W25797  15.779  26.172  11.402
64432W        W25798  34.021  24.527  10.577
64433W        W25799   6.894  42.897   3.663
64434W        W25800  19.108  14.281   2.394
64435W        W25801  27.534  31.517   5.124
64436W        W25802  35.871  20.164   0.410
64437W        W25803  29.560   8.838   0.903
64438W        W25804   5.799  44.488  10.948
64439W        W25805   1.441  26.550   4.780
64440W        W25806   7.726  38.842  11.870
64441W        W25807  44.000  44.343  11.899
64442W        W25808  32.478  43.015  10.532
64443W        W25809   8.806   8.874   0.738
64444W        W25810  15.243   4.223  10.549
64445W        W25811  42.317  32.439   2.415
64446W        W25812  39.051  39.843   2.397
64447W        W25813  36.015  22.684  14.275
64448W        W25814   9.872   9.825  10.520
64449W        W25815  10.288  29.501   5.204
64450W        W25816  31.049  29.144  14.486
64451W        W25817  17.076  31.928   2.663
64452W        W25818   5.237  13.306  13.525
64453W        W25819  14.305  14.311  13.905
64454W        W25820  19.133  32.620   0.256
64455W        W25821  19.759  31.622  10.949
64456W        W25822  39.526  12.131  12.446
64457W        W25823  17.677   0.287  13.892
64458W        W25824  21.244  33.553  13.387
64459W        W25825  34.504  27.165   3.177
64460W        W25826   6.707   9.778  14.902
64461W        W25827  39.925  44.325  12.501
64462W        W25828  15.170   4.934  13.319
64463W        W25829  43.503  36.508  12.053
64464W        W25830  26.052  30.026   2.265
64465W        W25831  20.747   4.816  11.490
64466W        W25832   6.361  26.130  13.438
64467W        W25833  33.875  20.227   4.784
64468W        W25834  27.458  26.025  11.411
64469W        W25835   6.724  25.591  10.984
64470W        W25836   7.365  11.196   3.193
64471W        W25837  26.613  43.410   3.787
64472W        W25838  27.658  36.578   4.122
64473W        W25839  13.184  41.859  13.929
64474W        W25840  10.760   0.301  13.898
64475W        W25841   2.873  25.058   3.752
64476W        W25842   6.333   2.779   3.631
64477W        W25843  22.032  10.272   4.788
64478W        W25844  29.014  28.537  10.141
64479W        W25845  14.326  36.426  10.517
64480W        W25846  31.637  14.236   0.803
64481W        W25847  35.089   1.923   4.820
64482W        W25848  31.945  19.194   3.317
64483W        W25849  37.070   9.217   2.377
64484W        W25850  44.985  37.970   1.883
64485W        W25851  33.014  26.652  12.509
64486W        W25852  10.309  10.815  11.963
64487W        W25853  20.154   5.785  11.108
64488W        W25854   6.830  12.121   3.722
64489W        W25855   5.283  25.173   1.284
64490W        W25856  25.539  12.292   2.367
64491W        W25857  43.363  31.112  12.480
64492W        W25858  15.777  32.562   2.731
64493W        W25859  17.640   5.293   4.193
64494W        W25860   7.814  38.040  14.818
64495W        W25861  15.654  18.647   4.318
64496W        W25862  24.683  10.874  14.498
64497W        W25863  20.165  27.650  13.018
64498W        W25864  22.066  17.752  13.432
64499W        W25865   9.867  24.195   3.746
64500W        W25866  12.734  31.476  14.848
64501W        W25867  37.451  20.095   1.918
64502W        W25868   2.302   2.242   3.204
64503W        W25869  24.976  25.541  13.798
64504W        W25870  23.215  16.677  12.078
64505W        W25871  17.169  27.148   4.258
64506W        W25872  44.948  16.628   2.201
64507W        W25873   2.423  27.076  10.147
64508W        W25874  31.547  38.524   1.889
64509W        W25875  44.419  31.450  12.398
64510W        W25876   1.256  20.189  10.536
64511W        W25877  24.183   2.780  14.430
64512W        W25878   1.845  20.657  12.485
64513W        W25879  33.977  32.409   0.474
64514W        W25880  16.709  23.162  12.076
64515W        W25881  23.546  23.232   3.375
64516W        W25882  29.489  43.867  12.081
64517W        W25883   6.737  41.988  13.034
64518W        W25884  41.502  26.469   4.331
64519W        W25885  18.762  24.159   3.268
64520W        W25886  15.736   2.923  13.940
64521W        W25887  29.541   7.227  10.408
64522W        W25888  21.073   7.867   0.848
64523W        W25889  20.082  18.123   4.118
64524W        W25890   6.424  28.490  12.071
64525W        W25891  17.723  19.267  12.999
64526W        W25892  14.819  38.982   9.970
64527W        W25893   1.829   1.854   3.680
64528W        W25894   5.919  41.526  12.000
64529W        W25895  24.547  26.007  12.466
64530W        W25896  37.840  29.662   3.802
64531W        W25897  27.490  24.053  14.461
64532W        W25898  22.067   2.383  10.558
64533W        W25899  42.521  13.764   3.326
64534W        W25900   6.902  37.933   4.787
64535W        W25901  33.542   5.913  12.511
64536W        W25902  13.752  38.504  11.521
64537W        W25903  19.250  11.230   3.854
64538W        W25904  26.966  30.416   2.844
64539W        W25905  20.133  41.394  14.338
64540W        W25906  34.102  21.182  14.450
64541W        W25907  12.123  43.897  13.315
64542W        W25908  13.191  17.655  14.904
64543W        W25909  38.831  26.081  14.767
64544W        W25910  27.557  14.141   1.233
64545W        W25911  21.187  35.498  11.935
64546W        W25912   9.351  28.494  10.610
64547W        W25913  11.300  27.539   2.817
64548W        W25914  23.566  20.690  14.937
64549W        W25915  21.724  28.971   1.710
64550W        W25916  19.239   8.788  14.423
64551W        W25917  19.225   9.158  11.523
64552W        W25918  22.715  40.843   2.771
64553W        W25919   6.249  33.032  14.926
64554W        W25920  40.355  29.662  12.955
64555W        W25921  30.516  17.278   1.715
64556W        W25922  44.980  12.341  11.880
64557W        W25923   7.682  11.741  14.317
64558W        W25924   4.394  15.268   1.754
64559W        W25925   3.335  39.473  13.499
64560W        W25926   2.871  21.025   0.347
64561W        W25927   8.784  18.727  11.882
64562W        W25928  26.099  33.016  14.866
64563W        W25929  41.884  28.462  12.903
64564W        W25930  36.911   0.411  14.975
64565W        W25931  30.628  37.888   4.745
64566W        W25932  12.612  44.901  13.878
64567W        W25933  25.544   4.811  14.999
64568W        W25934   7.807  26.018  12.953
64569W        W25935   9.693  20.152  14.285
64570W        W25936  43.381  39.815   3.783
64571W        W25937  22.649  37.063   1.311
64572W        W25938  42.009  34.419   1.803
64573W        W25939  42.844   7.701   2.248
64574W        W25940  29.516   6.368  12.991
64575W        W25941  44.903  15.301   0.295
64576W        W25942  33.580  18.602   4.346
64577W        W25943  32.136   4.376   1.390
64578W        W25944   0.459   7.414   4.713
64579W        W25945  31.022   2.741   3.791
64580W        W25946  26.135  22.703   4.253
64581W        W25947   5.757  13.118  10.630
64582W        W25948  29.571  40.358  10.426
64583W        W25949  15.148  22.637  10.506
64584W        W25950  24.083   3.811  12.026
64585W        W25951  20.165   5.246   0.274
64586W        W25952   7.409  29.920  13.847
64587W        W25953  23.135  42.001  10.486
64588W        W25954  19.557  22.581   2.822
64589W        W25955   6.677  39.511  13.370
64590W        W25956  30.450  19.682   2.760
64591W        W25957  33.114  16.626   3.276
64592W        W25958   7.676  18.111   1.701
64593W        W25959  35.400  21.548   4.341
64594W        W25960  25.985  30.577  10.517
64595W        W25961  22.088   3.760  13.986
64596W        W25962  42.841   5.194   0.880
64597W        W25963  35.953  43.370   3.733
64598W        W25964  39.829   7.175  10.606
64599W        W25965  15.626  41.867  12.961
64600W        W25966  17.105  37.450   5.087
64601W        W25967   5.897  43.943  13.987
64602W        W25968  38.915  34.027   2.190
64603W        W25969  30.030  39.520   3.685
64604W        W25970  33.106   4.399   2.817
64605W        W25971  13.662  12.286  12.960
64606W        W25972  16.159  34.541  14.500
64607W        W25973   1.918  34.109   2.271
64608W        W25974  38.859  27.691  13.528
64609W        W25975  38.555  44.394   2.394
64610W        W25976  14.269   6.683   0.303
64611W        W25977  30.636  43.791   3.829
64612W        W25978  31.538  30.650  13.339
64613W        W25979  32.031   6.401  13.973
64614W        W25980   3.415  19.104  13.335
64615W        W25981  38.888  16.790  10.905
64616W        W25982   2.335  43.493  12.557
64617W        W25983  10.753  25.012  14.421
64618W        W25984  37.417   6.851   3.763
64619W        W25985  10.751   1.380  11.117
64620W        W25986  43.907  25.524   4.242
64621W        W25987  35.067  13.219   0.325
64622W        W25988  42.518   4.357  12.502
64623W        W25989  13.738   5.258  11.860
64624W        W25990   6.773  12.293   0.746
64625W        W25991  24.550  10.285  14.865
64626W        W25992  42.389  32.055  12.854
64627W        W25993  44.475  15.604   0.913
64628W        W25994   3.848   4.791  10.136
64629W        W25995  12.696  20.633  14.935
64630W        W25996   1.865  28.565   4.188
64631W        W25997  30.498   7.694   2.834
64632W        W25998  39.967   0.494   3.638
64633W        W25999  18.078  23.111  10.929
64634W        W26000  22.542  24.008   4.169
64635W        W26001   5.434  40.973  12.362
64636W        W26002   9.656  26.189   0.348
64637W        W26003  42.441  25.051   4.833
64638W        W26004  20.168  29.450   3.232
64639W        W26005  38.552  38.534   2.271
64640W        W26006  11.693  43.316  12.962
64641W        W26007   0.821   9.777   4.333
64642W        W26008  31.110  42.860  13.505
64643W        W26009  11.185  38.973  14.794
64644W        W26010  12.779   8.177  11.420
64645W        W26011   5.437  23.150  12.052
64646W        W26012  39.015  37.536  13.827
64647W        W26013  12.191  24.647  10.622
64648W        W26014  23.118  18.226  13.458
64649W        W26015  20.631  17.081   0.927
64650W        W26016  13.225  33.382   1.216
64651W        W26017   8.176  10.200   3.247
64652W        W26018  20.649  15.738   2.888
64653W        W26019   2.346  31.028   1.890
64654W        W26020  18.707  30.448  12.841
64655W        W26021  35.542   9.314   2.290
64656W        W26022  41.794  34.370   4.639
64657W        W26023   6.816  18.275   9.659
64658W        W26024  31.995   0.907  14.454
64659W        W26025  41.328   6.846   1.796
64660W        W26026   3.847  19.121  12.520
64661W        W26027  36.021  28.529   1.396
64662W        W26028  43.379  26.073   2.215
64663W        W26029  37.833  44.392   1.210
64664W        W26030  39.814   7.716  14.335
64665W        W26031  14.213  18.769  12.436
64666W        W26032  18.548  38.512  13.459
64667W        W26033  23.098  10.805  12.403
64668W        W26034  34.915  43.856   5.309
64669W        W26035  33.041   3.741   2.352
64670W        W26036  20.231  36.416   2.334
64671W        W26037  27.122  13.840   0.262
64672W        W26038  13.153  21.230   1.433
64673W        W26039  18.269  37.854   4.711
64674W        W26040  24.060  40.914   2.411
64675W        W26041  44.843   1.746  11.592
64676W        W26042  41.006  30.139   0.928
64677W        W26043  21.601  36.495   2.881
64678W        W26044  15.774  15.160   3.300
64679W        W26045  29.626   2.822   0.363
64680W        W26046  23.123  34.873  11.374
64681W        W26047  24.163  16.203  11.096
64682W        W26048  28.021  31.057   2.195
64683W        W26049  35.536  43.978  12.536
64684W        W26050   0.949  42.469  14.399
64685W        W26051  23.131  34.448  11.536
64686W        W26052  20.766  42.947  11.120
64687W        W26053  25.704   7.260  11.074
64688W        W26054  11.772  23.494  13.450
64689W        W26055   8.689  28.158   1.721
64690W        W26056  10.718  27.470   2.766
64691W        W26057  16.721  30.981   4.289
64692W        W26058  23.139  25.019   3.866
64693W        W26059  20.051   5.227   3.768
64694W        W26060   4.706   4.301   3.642
64695W        W26061   2.927   6.218   1.799
64696W        W26062  36.032  44.849   4.601
64697W        W26063  44.812  28.986  11.488
64698W        W26064  33.125  12.263   2.819
64699W        W26065  15.239   2.246   0.391
64700W        W26066  30.018  31.621   4.354
64701W        W26067   5.383  14.627  12.921
64702W        W26068   8.900  39.916  10.053
64703W        W26069  16.218   3.847   0.385
64704W        W26070  43.936   1.479  11.488
64705W        W26071  34.056  16.300  12.853
64706W        W26072   2.440  10.340  13.347
64707W        W26073  37.413   8.341   2.844
64708W        W26074  30.013   1.757   0.344
64709W        W26075  11.133  25.203  11.897
64710W        W26076   3.770  16.286  13.313
64711W        W26077  20.568  29.538   3.188
64712W        W26078  32.492  30.119   3.782
64713W        W26079  16.738  10.767   0.377
64714W        W26080   0.756  24.079  13.953
64715W        W26081  29.613  43.448  13.513
64716W        W26082  34.533  19.637   3.178
64717W        W26083  14.635  21.657   2.265
64718W        W26084  17.117  24.991   4.330
64719W        W26085  39.520  42.463   3.302
64720W        W26086  23.597  22.206   0.252
64721W        W26087  43.296  24.203   2.774
64722W        W26088  43.925  20.203  10.564
64723W        W26089  12.244  20.136   2.742
64724W        W26090  43.287  10.854   4.800
64725W        W26091  28.080  31.986  12.016
64726W        W26092  32.461   1.732  14.924
64727W        W26093  27.670  28.588  11.463
64728W        W26094  37.473  34.382  12.519
64729W        W26095  16.093  31.470   4.300
64730W        W26096  20.230  30.084   3.652
64731W        W26097  31.479   1.351   1.817
64732W        W26098  44.905  38.834   4.829
64733W        W26099  41.038  23.041  12.508
64734W        W26100  28.051   0.481  13.458
64735W        W26101  26.457  20.188  13.526
64736W        W26102  36.524  13.714   1.727
64737W        W26103  14.656  17.186  12.045
64738W        W26104  41.889  23.142   3.656
64739W        W26105  26.641  21.180  13.490
64740W        W26106  18.182  39.897  10.472
64741W        W26107  17.139  14.204   3.722
64742W        W26108  39.456   2.783  11.053
64743W        W26109  22.569  18.136   0.743
64744W        W26110  10.685  10.721  10.968
64745W        W26111  29.587  11.815   4.304
64746W        W26112  34.056  36.571   3.223
64747W        W26113  24.205   7.804   0.282
64748W        W26114  37.918   8.826   2.807
64749W        W26115  20.765  13.729  13.377
64750W        W26116  38.455  35.529  12.848
64751W        W26117  31.416  22.115   0.795
64752W        W26118  32.055  27.945  12.400
64753W        W26119  28.658  10.270   0.896
64754W        W26120  35.905  32.010  12.561
64755W        W26121  25.647   8.202  12.976
64756W        W26122  42.287  40.541  13.016
64757W        W26123   5.390  43.921  11.100
64758W        W26124   5.888  13.323   0.785
64759W        W26125  19.171  11.644  12.020
64760W        W26126   7.249  24.223  11.521
64761W        W26127   9.375   3.730   0.756
64762W        W26128   1.340  44.366  14.486
64763W        W26129   8.672  25.005   2.275
64764W        W26130   1.928  26.964  12.985
64765W        W26131  27.195  19.245  10.958
64766W        W26132  15.212  39.860  12.367
64767W        W26133  13.811   6.310  14.418
64768W        W26134  30.476  39.501  14.316
64769W        W26135  30.518  28.183   5.272
64770W        W26136  14.629   8.181  14.906
64771W        W26137  29.508   7.769  11.093
64772W        W26138  20.647  10.276   1.254
64773W        W26139  28.957  19.650   5.565
64774W        W26140   9.847   4.337  12.894
64775W        W26141  18.062  32.120  11.521
64776W        W26142  36.507  42.930   0.386
64777W        W26143  37.553  36.440  14.905
64778W        W26144  37.516  11.824  12.852
64779W        W26145  11.146   5.403  11.554
64780W        W26146  13.839  35.878  14.804
64781W        W26147  32.976  36.027  11.111
64782W        W26148  22.651  27.044  11.576
64783W        W26149  28.469  25.998  12.457
64784W        W26150  20.268  18.634  13.930
64785W        W26151  23.590   0.747  14.765
64786W        W26152  28.937  34.468  12.868
64787W        W26153   2.432  22.652  14.455
64788W        W26154  36.379   0.352  13.988
64789W        W26155  31.127  30.508  11.412
64790W        W26156  14.670  21.751   3.149
64791W        W26157  16.149  14.795   0.745
64792W        W26158  44.769  15.192  12.358
64793W        W26159   7.884   4.309   0.314
64794W        W26160  39.486  16.682   2.852
64795W        W26161   2.375  12.635   4.284
64796W        W26162   2.895  34.387  11.586
64797W        W26163  15.688  32.635   2.347
64798W        W26164  37.343  12.613   0.454
64799W        W26165  18.172   6.860   3.633
64800W        W26166  39.022  13.110  14.428
64801W        W26167  23.681  22.161  11.061
64802W        W26168  40.899  34.396   0.923
64803W        W26169  26.142  26.494   0.854
64804W        W26170  11.755  30.651  12.010
64805W        W26171  42.804   3.335   4.271
64806W        W26172  24.172   0.438  14.441
64807W        W26173  28.680  44.277  13.821
64808W        W26174  44.382  16.153   1.743
64809W        W26175  15.225  31.049  11.870
64810W        W26176   3.953  36.848   0.384
64811W        W26177  31.073   7.377  14.892
64812W        W26178   8.788  36.532   0.803
64813W        W26179  39.398  38.833  12.529
64814W        W26180   1.745  37.862  11.607
64815W        W26181  16.152  11.147  13.458
64816W        W26182  36.523   0.338  11.868
64817W        W26183  36.461  22.249   2.792
64818W        W26184  13.733  28.027   3.815
64819W        W26185   3.778  39.413  11.003
64820W        W26186  43.445  35.066  12.827
64821W        W26187  43.919   9.237  14.352
64822W        W26188  34.459   6.208   1.284
64823W        W26189   3.725   0.884   3.205
64824W        W26190   5.901  31.061   3.818
64825W        W26191  40.458   2.318   4.239
64826W        W26192   3.438  40.888   4.167
64827W        W26193  44.348  43.782  14.996
64828W        W26194  16.741  11.170  14.462
64829W        W26195  11.787  14.317  12.045
64830W        W26196  41.854  24.575   2.793
64831W        W26197  19.054  33.875   2.668
64832W        W26198  26.692  16.582   1.865
64833W        W26199  22.507   7.248   0.482
64834W        W26200  23.011  17.261   2.796
64835W        W26201  43.438  24.514  13.309
64836W        W26202  33.491  21.728  10.889
64837W        W26203  27.092   3.235   5.099
64838W        W26204  28.494  32.906   0.961
64839W        W26205  30.017  28.003  10.501
64840W        W26206  16.233  21.219  12.903
64841W        W26207   6.316  39.529   3.344
64842W        W26208  34.967  32.885  14.920
64843W        W26209   9.644  19.146   1.293
64844W        W26210  31.073  26.618  11.527
64845W        W26211  40.028  21.691  11.873
64846W        W26212  33.596  20.736  10.490
64847W        W26213  21.069  21.728   4.264
64848W        W26214  27.087   8.217   3.344
64849W        W26215  25.683  19.626  14.764
64850W        W26216  14.150  33.483   4.295
64851W        W26217  28.546  28.639  14.900
64852W        W26218  29.946  19.149  10.429
64853W        W26219   8.219  17.556   1.264
64854W        W26220  41.889  18.604   4.719
64855W        W26221  22.661  32.131   2.833
64856W        W26222  11.793  17.190   5.291
64857W        W26223  19.063  26.073  10.578
64858W        W26224  29.969  13.830  10.923
64859W        W26225  19.191  33.487  10.085
64860W        W26226   0.821  17.256   2.862
64861W        W26227  35.566   6.866  10.956
64862W        W26228  22.042  10.308   3.795
64863W        W26229  16.627  27.673  13.369
64864W        W26230   3.723  13.768  11.405
64865W        W26231   8.215  42.918  14.329
64866W        W26232   7.807  15.640   0.299
64867W        W26233  13.229  39.505   3.635
64868W        W26234  14.668   7.796   2.325
64869W        W26235   2.947  43.407  14.767
64870W        W26236   3.437  32.055  11.557
64871W        W26237  15.216  37.859  12.505
64872W        W26238   7.794  23.202  12.958
64873W        W26239  12.731  21.652   3.811
64874W        W26240  14.613  30.537  11.971
64875W        W26241  29.554   5.789  14.312
64876W        W26242  18.784  15.146   1.935
64877W        W26243   0.745  32.450   4.127
64878W        W26244  36.949   1.253   1.344
64879W        W26245   1.279  36.440   1.835
64880W        W26246  24.093  36.904   0.931
64881W        W26247  26.516  44.398  11.118
64882W        W26248  29.613  30.498   5.247
64883W        W26249  40.412  42.388  12.986
64884W        W26250   1.870   2.286   4.730
64885W        W26251  13.783   1.239   4.181
64886W        W26252  10.218  38.962  14.508
64887W        W26253  43.276  23.063  11.533
64888W        W26254  31.491   6.383   4.177
64889W        W26255  42.492  42.865  12.548
64890W        W26256  27.171  25.088   0.830
64891W        W26257  38.993  27.590  11.978
64892W        W26258  13.244  41.451   3.192
64893W        W26259   3.391  32.416  13.870
64894W        W26260   0.849  34.920   4.236
64895W        W26261  15.235  33.450   2.234
64896W        W26262  27.665  13.618  14.881
64897W        W26263  30.586   9.752  14.327
64898W        W26264   4.439  43.822  11.479
64899W        W26265  41.015  20.049   0.813
64900W        W26266  12.194  29.537  13.934
64901W        W26267  42.904  17.772   1.396
64902W        W26268  19.555  35.514  10.625
64903W        W26269  35.883  40.317  13.942
64904W        W26270  42.492  18.609   4.766
64905W        W26271  32.954   0.372  11.588
64906W        W26272  31.998  35.530  14.940
64907W        W26273   7.244   9.178   3.865
64908W        W26274  20.661  33.451   5.759
64909W        W26275   6.752  33.039  12.883
64910W        W26276  32.409  24.219  14.405
64911W        W26277  44.935  40.433   1.283
64912W        W26278  23.549   0.889   3.814
64913W        W26279  35.969  34.886  14.793
64914W        W26280  26.535   3.799   5.132
64915W        W26281  40.496  34.916  12.342
64916W        W26282  43.865   5.876  14.769
64917W        W26283   1.422  11.744   2.877
64918W        W26284   3.819  16.810  12.451
64919W        W26285  39.954  42.506   3.287
64920W        W26286  32.527  11.778   1.408
64921W        W26287  21.590  44.962  12.488
64922W        W26288  23.174   3.802  13.829
64923W        W26289  14.128  26.524  13.886
64924W        W26290  34.483   0.902  11.536
64925W        W26291  29.942  39.514  10.507
64926W        W26292   5.289  14.156  10.074
64927W        W26293   0.912  13.144   2.793
64928W        W26294  36.360  25.024   5.094
64929W        W26295  10.253  10.255   4.218
64930W        W26296  28.090   9.653  10.508
64931W        W26297  27.126  16.216   1.323
64932W        W26298  13.328  39.874  14.337
64933W        W26299   4.424  10.231   2.234
64934W        W26300  25.218  18.089   4.161
64935W        W26301  33.957  42.325  12.926
64936W        W26302  39.864  41.989   0.856
64937W        W26303  41.013   5.817   1.860
64938W        W26304  12.332  38.837  11.097
64939W        W26305   8.319  24.054  13.442
64940W        W26306  25.627  13.208  10.639
64941W        W26307  22.129   5.912  12.545
64942W        W26308  16.197  32.005  12.987
64943W        W26309   8.335   8.771   1.248
64944W        W26310  29.156   7.766   1.278
64945W        W26311  27.554  37.907   0.389
64946W        W26312  30.913  32.608  10.614
64947W        W26313  42.460  26.048   1.281
64948W        W26314  38.399  42.299  13.545
64949W        W26315  36.412  30.626   0.861
64950W        W26316  11.308  19.567   0.848
64951W        W26317  19.694   4.211  14.397
64952W        W26318  15.803   3.257  14.962
64953W        W26319  40.519  17.672  14.769
64954W        W26320   4.877  30.137  11.927
64955W        W26321  23.620  26.966   4.626
64956W        W26322  27.555  12.260  13.313
64957W        W26323  29.148  35.939   0.405
64958W        W26324  39.006  14.176   1.740
64959W        W26325  21.157  15.593  10.980
64960W        W26326  22.530  26.995   4.234
64961W        W26327  28.024  10.362   2.366
64962W        W26328  12.629  37.976   0.917
64963W        W26329  26.646  18.620   4.185
64964W        W26330  33.559  20.626  13.435
64965W        W26331   3.271  28.152  12.091
64966W        W26332  43.432  16.612  11.389
64967W        W26333  35.932   1.838   1.443
64968W        W26334  37.919  43.400   0.865
64969W        W26335  38.418  17.185  12.518
64970W        W26336  34.517  14.813  13.835
64971W        W26337  26.499  42.385   1.887
64972W        W26338  38.851   1.399  11.566
64973W        W26339   1.750  17.566   1.449
64974W        W26340   8.401  32.527  13.815
64975W        W26341  30.539  29.992  12.898
64976W        W26342  42.959  41.972  14.445
64977W        W26343  14.199  10.353  10.037
64978W        W26344  41.982   9.375  11.530
64979W        W26345  13.281  24.988   4.686
64980W        W26346  23.584   6.902   2.733
64981W        W26347   1.471   1.935   1.713
64982W        W26348  13.663  28.435  13.931
64983W        W26349  18.719   4.205   2.180
64984W        W26350  40.318  40.398  14.997
64985W        W26351  19.640  41.398   0.889
64986W        W26352  40.532  25.172   5.273
64987W        W26353  42.978  32.565  13.530
64988W        W26354  10.303  30.526   3.806
64989W        W26355   4.291   9.171  13.853
64990W        W26356   4.256   8.670  13.977
64991W        W26357   0.914  21.207  14.339
64992W        W26358  38.460  27.030   2.272
64993W        W26359  18.683  22.703  11.485
64994W        W26360  26.124  21.246  13.454
64995W        W26361  20.213  39.414  12.478
64996W        W26362   9.692  36.498   4.742
64997W        W26363  34.087  29.554  12.861
64998W        W26364  19.283  13.755   1.235
64999W        W26365  39.383  18.239   4.230
65000W        W26366  36.983  32.621   1.210
65001W        W26367   1.912  25.974  11.931
65002W        W26368  24.132  21.664  10.433
65003W        W26369   1.261  44.358  13.461
65004W        W26370  29.129  33.515  13.354
65005W        W26371  15.817   5.886   0.835
65006W        W26372  42.852  43.943   2.394
65007W        W26373   6.770   7.342  13.902
65008W        W26374   8.366  14.118   1.879
65009W        W26375  40.446   1.840   0.420
65010W        W26376   9.245   5.335   5.139
65011W        W26377   6.358  24.705   1.369
65012W        W26378   7.775  42.368   4.731
65013W        W26379  30.559   7.388  13.861
65014W        W26380  40.870  33.087  12.959
65015W        W26381   6.741  25.175  14.963
65016W        W26382  18.083  17.781   3.310
65017W        W26383  20.100  22.712  11.912
65018W        W26384  24.149  28.071  10.536
65019W        W26385   1.289  38.057  14.383
65020W        W26386  13.821  38.014  12.457
65021W        W26387  21.667  35.445   1.794
65022W        W26388   9.223  42.845  12.517
65023W        W26389  13.250   8.661  12.407
65024W        W26390  41.359  35.066  14.415
65025W        W26391  24.980  28.497   0.811
65026W        W26392   9.348  11.770  14.022
65027W        W26393   3.735  18.094   5.133
65028W        W26394   3.321   1.378  12.902
65029W        W26395   1.421  11.625   3.739
65030W        W26396  16.629  37.040  14.825
65031W        W26397  38.400  32.433   0.850
65032W        W26398  14.174  39.505   0.245
65033W        W26399  16.631  13.129  10.637
65034W        W26400  22.015  32.584   4.628
65035W        W26401  20.206  13.717   1.738
65036W        W26402  20.222  10.709  14.505
65037W        W26403  30.607  19.547  14.478
65038W        W26404   5.794  32.031  14.972
65039W        W26405  20.236  28.463   2.198
65040W        W26406   8.699  23.553   1.907
65041W        W26407  17.086  39.956  10.597
65042W        W26408  19.773   4.269  13.829
65043W        W26409  11.247  40.451   3.245
65044W        W26410   6.830  27.522   3.255
65045W        W26411  22.011  11.772  13.485
65046W        W26412  36.404   2.908   0.783
65047W        W26413  44.885  24.679  12.417
65048W        W26414  31.014  17.713  11.016
65049W        W26415   2.743  30.996   0.258
65050W        W26416  27.668   9.758   3.714
65051W        W26417  39.982  30.027  11.971
65052W        W26418   5.396   4.219  11.484
65053W        W26419  28.483  16.269   3.271
65054W        W26420  41.462  35.980   3.751
65055W        W26421  25.023  17.085   2.354
65056W        W26422  24.530  40.879   3.635
65057W        W26423  36.405  41.951   2.385
65058W        W26424  34.934  13.636  10.605
65059W        W26425  21.715   6.205  12.015
65060W        W26426  40.878   8.872  13.918
65061W        W26427  43.364  18.577   2.355
65062W        W26428   9.355  30.489   2.218
65063W        W26429  26.628  18.106   1.316
65064W        W26430  39.332  25.064  10.965
65065W        W26431  43.325  24.133   2.179
65066W        W26432  36.449  42.461   3.717
65067W        W26433  23.066   1.763  13.333
65068W        W26434  29.623  34.059   0.838
65069W        W26435  10.740  14.604   0.375
65070W        W26436  11.341  29.514  11.985
65071W        W26437  42.442   1.802   3.806
65072W        W26438   0.494  14.199  13.352
65073W        W26439  22.539  14.140  10.528
65074W        W26440   1.954   4.345  11.892
65075W        W26441   5.207  13.676  13.927
65076W        W26442   4.348  35.566  12.374
65077W        W26443  37.444  31.579   3.738
65078W        W26444  41.923  44.909   4.178
65079W        W26445  38.061   3.893   1.755
65080W        W26446   7.770   9.707  11.858
65081W        W26447  26.694  15.261  14.443
65082W        W26448  39.536   4.420   3.177
65083W        W26449   6.704   5.415  11.966
65084W        W26450   4.716  23.215   2.394
65085W        W26451  14.655  10.226   3.830
65086W        W26452  29.079  23.062  11.405
65087W        W26453  43.475   2.791  13.519
65088W        W26454  32.587   7.203   5.239
65089W        W26455  39.911  18.250  13.928
65090W        W26456   5.832  26.702  13.857
65091W        W26457  24.657   6.748  11.969
65092W        W26458  33.607  20.633  11.066
65093W        W26459   2.389  28.995   1.902
65094W        W26460  36.484  43.862   4.708
65095W        W26461  38.015   9.645   3.273
65096W        W26462   5.422  32.406   1.424
65097W        W26463   0.454   5.224  13.368
65098W        W26464   2.747   6.276  10.089
65099W        W26465  17.788   6.228  10.979
65100W        W26466   6.786  28.107   3.829
65101W        W26467  40.920  19.724   2.838
65102W        W26468  35.422  11.799   4.740
65103W        W26469   1.757  36.989  12.093
65104W        W26470   4.716  14.749   0.846
65105W        W26471   2.469  30.642   3.853
65106W        W26472  40.825  39.869   0.817
65107W        W26473   6.419  32.965  13.967
65108W        W26474   0.249  20.264   1.245
65109W        W26475  20.549  21.034   4.179
65110W        W26476   9.680  42.418   3.682
65111W        W26477  12.122   3.735  14.934
65112W        W26478  23.693   7.257   2.703
65113W        W26479   5.420  18.296   4.650
65114W        W26480  10.382   2.426   4.332
65115W        W26481  36.005  27.462  12.406
65116W        W26482  44.900  35.077   3.750
65117W        W26483  11.848   0.745  13.342
65118W        W26484  22.702  25.560  12.983
65119W        W26485  24.656  21.101   1.852
65120W        W26486  38.922   6.428   3.837
65121W        W26487   7.414  34.614  11.578
65122W        W26488   1.395  24.139   4.764
65123W        W26489  23.057  12.315  10.454
65124W        W26490  26.182  21.071  10.446
65125W        W26491  17.283  12.706  10.460
65126W        W26492  25.610  11.318  12.402
65127W        W26493  18.555  33.934  12.431
65128W        W26494  20.621  28.499  14.300
65129W        W26495  18.052   3.865   3.300
65130W        W26496  40.393  17.151   1.368
65131W        W26497  17.226  37.408   2.796
65132W        W26498  11.209  41.843   0.944
65133W        W26499  13.186  40.533   3.700
65134W        W26500  37.010   9.246   0.437
65135W        W26501  44.335   8.683  11.550
65136W        W26502  13.155   8.365  12.575
65137W        W26503  26.467   9.664   1.432
65138W        W26504  35.110  18.151   0.378
65139W        W26505  25.469  42.021  11.372
65140W        W26506  20.564  36.082   3.642
65141W        W26507  28.102  42.908   2.194
65142W        W26508  15.125  32.094   0.799
65143W        W26509   2.951  29.483   4.753
65144W        W26510  19.071  37.905  10.595
65145W        W26511  17.164   3.852  12.528
65146W        W26512   4.870  22.551   1.415
65147W        W26513   1.393  31.529  12.975
65148W        W26514   7.685   7.185   4.288
65149W        W26515  29.158  11.714   3.349
65150W        W26516   8.194   4.326   5.088
65151W        W26517  17.095  10.878   1.695
65152W        W26518   8.774  33.034   1.930
65153W        W26519  13.306  26.691   4.347
65154W        W26520  25.016   8.356  11.379
65155W        W26521  40.814  26.962   1.887
65156W        W26522   9.279   3.244   1.771
65157W        W26523  10.271  12.228   5.174
65158W        W26524  36.047   6.365   2.782
65159W        W26525  10.366  38.071  13.399
65160W        W26526  12.717   3.314   2.356
65161W        W26527  41.907  17.100   0.874
65162W        W26528  40.054   0.412  10.543
65163W        W26529  16.317  39.372   3.271
65164W        W26530   3.870   2.337   3.213
65165W        W26531  39.512  33.993   2.215
65166W        W26532  32.032  19.593  12.550
65167W        W26533  31.019  39.340   0.259
65168W        W26534   0.842  39.994  13.891
65169W        W26535  11.287  23.560   4.646
65170W        W26536  19.580   4.794   5.212
65171W        W26537   5.833   5.760   9.530
65172W        W26538  25.189   8.216  14.833
65173W        W26539  17.744  34.502   1.309
65174W        W26540  34.068  36.525   4.608
65175W        W26541  10.722  23.685  12.954
65176W        W26542  19.627  26.155  12.831
65177W        W26543  38.901  24.680  13.361
65178W        W26544  41.974  21.170  11.110
65179W        W26545   9.666   0.763   3.378
65180W        W26546  15.310   9.337   0.243
65181W        W26547  18.125  25.047  13.830
65182W        W26548  12.133  15.170   3.269
65183W        W26549   9.844  24.595  13.420
65184W        W26550  12.670  17.655   4.245
65185W        W26551  20.170  39.012  12.976
65186W        W26552  18.745  36.982  14.993
65187W        W26553  44.801  41.369   0.768
65188W        W26554  43.412  11.356  12.059
65189W        W26555  21.193  15.597  11.536
65190W        W26556  43.321  38.049   2.709
65191W        W26557  21.666   9.236  12.568
65192W        W26558  20.571  30.928  14.421
65193W        W26559  17.609  34.446  11.551
65194W        W26560  41.346  36.972  11.471
65195W        W26561  12.202  31.926   4.773
65196W        W26562  23.647  14.781   4.788
65197W        W26563   0.836   7.240   0.311
65198W        W26564  24.090  30.079   4.640
65199W        W26565  41.326  25.556   3.646
65200W        W26566   7.380  24.145  12.438
65201W        W26567  26.995   3.710  12.935
65202W        W26568  15.766  13.308  12.436
65203W        W26569  27.654   0.290  13.935
65204W        W26570  43.855   9.760  10.988
65205W        W26571   7.778  34.939   4.685
65206W        W26572  12.633  24.013   1.421
65207W        W26573   2.347  26.542   5.320
65208W        W26574  27.057  10.779   0.909
65209W        W26575  18.608  43.315   2.406
65210W        W26576   1.465   4.235  11.551
65211W        W26577  23.656  14.639   1.365
65212W        W26578  17.119  37.494   1.281
65213W        W26579   2.336  43.318  10.990
65214W        W26580   3.256  27.171   4.121
65215W        W26581  10.872  26.644  12.547
65216W        W26582  34.904   0.867  13.410
65217W        W26583   8.748  36.872  11.563
65218W        W26584  16.114  39.050   0.402
65219W        W26585  35.542   5.934  13.316
65220W        W26586  26.524  19.771   4.699
65221W        W26587  32.550  36.920   2.194
65222W        W26588  37.522  35.543   2.715
65223W        W26589  12.265  28.576   2.354
65224W        W26590   2.303  23.522  12.387
65225W        W26591  43.369  13.148  11.543
65226W        W26592   2.395  18.092  11.559
65227W        W26593  40.548   2.879  11.421
65228W        W26594  37.850  29.551   2.724
65229W        W26595   2.770  12.125  12.864
65230W        W26596  27.974   3.269   2.683
65231W        W26597   7.847  21.081  13.988
65232W        W26598   6.321  33.948  14.298
65233W        W26599  12.131  14.749  14.777
65234W        W26600  42.464  26.463   2.213
65235W        W26601  18.291  11.842  11.010
65236W        W26602  20.737  13.717   2.247
65237W        W26603   2.819  31.516  13.848
65238W        W26604  29.125  16.097   3.664
65239W        W26605   2.787  40.035   0.296
65240W        W26606  34.566  10.851   1.854
65241W        W26607  35.425  23.096   1.221
65242W        W26608  10.252  44.470  12.017
65243W        W26609  40.334  24.033  13.012
65244W        W26610  15.141  10.243   3.809
65245W        W26611  26.007  23.651  13.838
65246W        W26612  27.004  26.545  13.374
65247W        W26613  11.287  17.125   3.801
65248W        W26614  38.522   0.434  12.351
65249W        W26615  26.120  31.529   3.742
65250W        W26616  25.610   0.327   0.962
65251W        W26617  17.579   4.871   1.299
65252W        W26618  14.718   2.395  12.531
65253W        W26619  24.222  18.100  11.900
65254W        W26620  38.974   9.372  14.840
65255W        W26621  35.919  11.720   1.875
65256W        W26622  41.892   0.879   3.859
65257W        W26623  39.833  18.165  12.493
65258W        W26624  22.051  24.506  12.022
65259W        W26625  25.690  41.900  12.004
65260W        W26626  34.108  21.574   3.833
65261W        W26627  24.093  38.951   0.907
65262W        W26628  42.387  36.928  10.950
65263W        W26629  39.883   4.746  10.522
65264W        W26630  31.585  13.706   1.429
65265W        W26631  30.073  22.526  14.384
65266W        W26632   4.930  15.772  11.919
65267W        W26633  21.250  10.199   0.784
65268W        W26634  22.529  23.042  12.981
65269W        W26635   8.865  20.535   2.415
65270W        W26636  22.537   3.891   1.251
65271W        W26637  24.983   9.235   1.848
65272W        W26638  33.596   3.831   1.211
65273W        W26639  37.892   0.961  14.784
65274W        W26640   5.929  19.178  12.841
65275W        W26641  29.449   1.331  14.821
65276W        W26642  39.540  12.631   0.764
65277W        W26643   7.239  31.438   1.296
65278W        W26644  15.633  26.068  14.351
65279W        W26645  35.911  17.191  12.092
65280W        W26646  17.751  37.407   2.211
65281W        W26647  41.016  15.577  10.633
65282W        W26648  39.904  22.235  11.396
65283W        W26649  27.117  44.417   0.734
65284W        W26650  40.851  44.771  14.298
65285W        W26651  25.553  23.067   0.460
65286W        W26652   8.740  30.474  14.309
65287W        W26653  31.113   9.847  13.978
65288W        W26654  14.816  36.876  14.992
65289W        W26655  18.563  17.217   3.327
65290W        W26656   3.934  25.539   0.387
65291W        W26657  32.612  13.126  12.949
65292W        W26658  15.628  14.152  10.546
65293W        W26659  16.667   4.780  14.790
65294W        W26660  20.655  30.023   0.264
65295W        W26661  17.290  29.528   4.283
65296W        W26662   4.354  14.775  11.562
65297W        W26663  38.387  19.093   1.834
65298W        W26664  26.204  42.496  11.918
65299W        W26665  44.764  10.332  11.929
65300W        W26666  15.193  35.086   3.836
65301W        W26667  14.648  20.122  12.417
65302W        W26668  39.984  15.633   2.680
65303W        W26669  23.575  16.758   0.359
65304W        W26670  19.137  42.328  13.991
65305W        W26671  12.723  17.081  14.942
65306W        W26672  15.620   9.243   1.383
65307W        W26673  38.423  29.626   4.178
65308W        W26674  24.682  44.264   2.826
65309W        W26675  39.384  32.907   4.744
65310W        W26676  31.628  28.624   1.356
65311W        W26677   2.470   1.929   4.210
65312W        W26678  35.023  16.299  13.454
65313W        W26679  20.641   9.280   4.290
65314W        W26680   8.778   2.835   0.889
65315W        W26681  36.579  26.619   4.627
65316W        W26682  42.937  43.510   3.849
65317W        W26683  41.345  23.572   2.836
65318W        W26684  37.406  41.467   5.130
65319W        W26685   0.918  42.777   4.341
65320W        W26686   5.379  27.187  12.383
65321W        W26687  32.391   2.926   2.896
65322W        W26688  17.252  35.977  11.491
65323W        W26689  25.563  31.986   4.776
65324W        W26690  30.458  22.070  13.055
65325W        W26691   2.925  10.703   4.294
65326W        W26692  32.914   2.414   1.894
65327W        W26693  30.910  20.629  13.485
65328W        W26694   5.414  38.508  10.528
65329W        W26695   0.840   4.883  11.393
65330W        W26696  24.712  15.090  13.963
65331W        W26697  44.995  42.985   2.811
65332W        W26698  16.299   6.218   2.734
65333W        W26699  27.535   2.389   2.321
65334W        W26700  11.634  38.892   3.689
65335W        W26701  38.922  16.207  11.118
65336W        W26702  37.990  25.571   3.200
65337W        W26703  22.688  17.195  14.823
65338W        W26704  14.209  40.460  13.525
65339W        W26705  42.378  31.594  11.880
65340W        W26706  38.351   6.223   3.630
65341W        W26707  37.519  33.979   1.304
65342W        W26708   2.317   9.385   0.856
65343W        W26709   1.409   0.972  14.871
65344W        W26710  31.445  41.337  14.933
65345W        W26711  20.253  38.435   4.176
65346W        W26712  31.134  42.359   0.815
65347W        W26713  41.871  17.636   3.826
65348W        W26714   5.687  15.239   2.727
65349W        W26715  40.982  42.776  13.402
65350W        W26716   1.359  23.093   4.220
65351W        W26717   0.255  30.547  12.856
65352W        W26718  18.200  36.057   0.383
65353W        W26719  10.218  44.402   2.799
65354W        W26720  27.518  20.679   2.829
65355W        W26721  31.082   2.938   3.232
65356W        W26722  25.559   8.696  11.089
65357W        W26723  26.580  37.909  12.559
65358W        W26724  42.959  29.665  14.818
65359W        W26725   3.834   8.221  10.631
65360W        W26726  19.221  21.518  11.523
65361W        W26727  42.023   1.764   4.691
65362W        W26728  29.007  32.404  10.514
65363W        W26729  32.128  36.493  14.867
65364W        W26730  20.638   5.433   3.328
65365W        W26731  25.625   3.953   1.291
65366W        W26732  38.010  21.217   0.268
65367W        W26733  36.915  37.527   1.854
65368W        W26734   5.813  13.689  12.430
65369W        W26735  33.933  40.427  12.914
65370W        W26736  14.100  29.124   3.693
65371W        W26737   7.174  42.934   0.894
65372W        W26738  17.099  23.541   4.802
65373W        W26739  21.574   7.269   3.708
65374W        W26740  38.959  25.214   4.777
65375W        W26741  43.413  34.937  10.955
65376W        W26742   8.862  13.152   3.337
65377W        W26743  18.622  10.363   2.780
65378W        W26744   0.846  27.481  11.881
65379W        W26745  21.255  40.005  12.377
65380W        W26746  39.420  18.754   4.724
65381W        W26747   6.812  19.667  12.087
65382W        W26748  41.897  40.034  14.500
65383W        W26749   3.328  14.254   2.237
65384W        W26750  21.042  22.684   0.893
65385W        W26751  25.579  21.256   9.944
65386W        W26752  39.039  22.241  14.957
65387W        W26753  31.555  34.981   4.296
65388W        W26754   1.467  37.028   2.309
65389W        W26755  23.735  11.321  14.944
65390W        W26756  37.374  38.890   0.447
65391W        W26757  43.788  44.892  13.013
65392W        W26758  28.474  18.779   4.794
65393W        W26759  41.950  33.563  14.798
65394W        W26760  13.645  21.652   2.796
65395W        W26761  40.312  19.630   2.721
65396W        W26762  39.482   5.834   0.858
65397W        W26763  29.444  18.092  14.936
65398W        W26764  17.257  22.728  12.947
65399W        W26765  34.903   8.698   0.913
65400W        W26766  10.295  10.298   0.300
65401W        W26767  33.604  21.258   0.444
65402W        W26768   7.718  38.038   4.189
65403W        W26769  37.491  27.947   1.235
65404W        W26770  32.057  14.134  14.297
65405W        W26771  20.201   6.387   1.903
65406W        W26772  12.616  19.542  14.485
65407W        W26773  17.646  29.469  14.800
65408W        W26774  28.179   0.281   1.900
65409W        W26775   4.832  10.155   4.251
65410W        W26776   5.226  33.966  12.489
65411W        W26777  15.627  36.379  13.474
65412W        W26778   2.861  31.565   0.734
65413W        W26779  44.271   9.732   1.857
65414W        W26780  34.044  32.547  10.952
65415W        W26781  20.176  21.643   3.150
65416W        W26782   9.794  33.547   3.368
65417W        W26783  16.665   7.900  14.015
65418W        W26784  11.216  18.262   2.880
65419W        W26785  13.246  11.785  12.084
65420W        W26786  29.992   4.799  10.474
65421W        W26787   5.913  30.494  12.549
65422W        W26788  28.114  42.793  12.418
65423W        W26789  23.552   6.300  13.902
65424W        W26790   7.179   9.697  11.379
65425W        W26791  28.652  39.051   3.214
65426W        W26792  28.184  42.927   0.282
65427W        W26793  29.478  37.077  13.405
65428W        W26794  29.119  23.499   1.754
65429W        W26795   6.240  37.579  13.467
65430W        W26796  40.939   9.859   1.869
65431W        W26797  34.018   4.921   0.436
65432W        W26798  35.582  41.349  13.839
65433W        W26799   4.910  22.080  14.472
65434W        W26800   5.333  27.535  11.435
65435W        W26801  32.568   2.949   1.803
65436W        W26802   6.200  43.315   3.346
65437W        W26803   3.956  14.726   0.927
65438W        W26804  27.686  32.462   2.732
65439W        W26805  23.563  32.493  12.557
65440W        W26806   6.273  11.210   2.704
65441W        W26807  36.058  30.418   2.712
65442W        W26808   9.175  15.680   4.256
65443W        W26809  25.546  26.497   4.292
65444W        W26810  21.629   5.292   5.127
65445W        W26811  43.493  41.828  11.543
65446W        W26812  18.177  42.309   3.282
65447W        W26813  41.324  43.351   2.284
65448W        W26814  25.976  43.879   2.721
65449W        W26815  35.068  32.886   3.192
65450W        W26816  27.074  16.314   2.201
65451W        W26817   8.888  41.366   3.754
65452W        W26818  16.656  39.314  14.311
65453W        W26819  33.594   6.414  10.486
65454W        W26820  14.144  16.707  12.387
65455W        W26821  35.431  22.159  10.614
65456W        W26822  20.273  16.745   3.669
65457W        W26823  31.995  15.182   3.346
65458W        W26824  27.064  37.350  11.574
65459W        W26825  42.282  23.029   3.664
65460W        W26826  30.595   9.160   4.832
65461W        W26827  13.843  22.173   2.296
65462W        W26828  38.883   1.900  11.427
65463W        W26829  22.196  29.030   4.811
65464W        W26830  26.545   7.270   4.236
65465W        W26831  44.992  37.443   0.728
65466W        W26832   3.394   3.895  12.852
65467W        W26833  21.679  32.894   3.814
65468W        W26834  30.460   9.296   0.889
65469W        W26835  35.870  18.087  14.800
65470W        W26836   0.380  14.321   3.794
65471W        W26837  10.335   4.908   4.157
65472W        W26838  43.397  10.218   2.396
65473W        W26839  32.888  21.566   0.928
65474W        W26840  36.916   5.884   2.310
65475W        W26841   6.809  18.550   3.229
65476W        W26842  33.089  17.079   4.132
65477W        W26843  40.394   3.780   2.750
65478W        W26844  33.916  12.836   3.312
65479W        W26845  20.625  23.158   1.418
65480W        W26846  43.818   1.386   0.767
65481W        W26847  36.406   2.241   3.180
65482W        W26848   8.702  25.076   1.233
65483W        W26849  13.708  13.224   1.734
65484W        W26850  16.160  19.612  10.512
65485W        W26851  35.055  14.327  14.380
65486W        W26852  42.507   1.293  11.038
65487W        W26853   0.402  26.597   2.729
65488W        W26854  40.802  21.137  11.000
65489W        W26855  36.951  44.779   0.881
65490W        W26856   5.790  12.735  11.379
65491W        W26857  35.106  30.949   4.335
65492W        W26858  41.957  26.557   2.223
65493W        W26859  43.433  12.643   2.233
65494W        W26860  29.514  31.142  14.783
65495W        W26861   7.908  23.726  10.004
65496W        W26862   2.355  41.981  11.580
65497W        W26863  40.884  42.296   2.235
65498W        W26864   0.457  29.042   3.755
65499W        W26865  12.280  12.332  14.502
65500W        W26866  13.605  41.807   4.742
65501W        W26867   1.357  17.256   0.442
65502W        W26868  43.776  20.544  13.944
65503W        W26869  35.888  42.392  12.906
65504W        W26870  23.201  20.207   1.889
65505W        W26871  20.694  20.114   3.802
65506W        W26872  21.181  11.768   4.240
65507W        W26873   9.368  41.954  11.977
65508W        W26874  29.075  15.214   3.224
65509W        W26875  35.430  31.077  12.959
65510W        W26876  19.228   8.326  11.531
65511W        W26877  33.518  31.634  10.976
65512W        W26878   6.381  15.693  13.032
65513W        W26879  11.253  42.993  12.847
65514W        W26880  43.854  13.285  13.965
65515W        W26881  26.524  16.642  11.521
65516W        W26882  43.341  33.434  13.337
65517W        W26883  25.527  15.225  11.580
65518W        W26884  35.017   4.841  10.497
65519W        W26885  34.981  29.095   5.237
65520W        W26886   4.747  44.485   4.118
65521W        W26887   6.742  13.763  14.326
65522W        W26888  41.922  28.541  14.814
65523W        W26889   2.754  20.741  14.825
65524W        W26890  42.344   3.904   4.784
65525W        W26891  19.131  38.549   2.322
65526W        W26892  29.468  29.604  10.433
65527W        W26893   9.323  24.117   3.816
65528W        W26894  10.797  18.552  12.506
65529W        W26895   9.319  15.631   3.358
65530W        W26896  38.846  20.273   2.667
65531W        W26897  40.992   5.340  13.867
65532W        W26898  13.692  42.791  13.385
65533W        W26899  30.656  14.279   2.787
65534W        W26900  43.879  18.673  13.920
65535W        W26901  22.567  33.089  14.996
65536W        W26902  42.887   1.790   3.333
65537W        W26903  39.003   9.215   2.225
65538W        W26904  23.093  25.005   0.816
65539W        W26905  10.639  26.528   1.797
65540W        W26906  28.608  12.793   2.216
65541W        W26907  15.670  16.230  11.458
65542W        W26908  34.042  13.150  11.597
65543W        W26909  40.028   4.304  10.405
65544W        W26910  39.012  31.121   0.364
65545W        W26911  37.074  32.541   3.794
65546W        W26912   3.222  37.462  12.833
65547W        W26913   6.384  43.768  11.582
65548W        W26914  25.517   4.760  13.429
65549W        W26915  24.090   5.846  10.494
65550W        W26916  39.522  26.098   3.822
65551W        W26917  33.531  19.273  12.346
65552W        W26918  12.710  44.808  14.452
65553W        W26919  44.407  36.001  11.920
65554W        W26920  20.083  38.034  12.374
65555W        W26921  17.123  20.753  12.008
65556W        W26922   9.709   0.253   3.870
65557W        W26923   4.909  10.185   3.381
65558W        W26924  24.506   3.870   3.808
65559W        W26925   6.334  31.604   2.838
65560W        W26926  14.823  34.561   4.713
65561W        W26927  23.104  39.339  10.990
65562W        W26928  33.486  11.738  11.090
65563W        W26929   9.259   5.367   0.894
65564W        W26930  43.805  31.134  14.806
65565W        W26931  18.078  18.693   2.890
65566W        W26932  27.476  30.089   2.864
65567W        W26933  20.702  31.560   9.970
65568W        W26934  28.088   7.815  10.494
65569W        W26935  14.253   2.303   2.729
65570W        W26936   7.236  27.467  11.419
65571W        W26937  28.948  35.860   1.885
65572W        W26938  32.593  24.609   0.367
65573W        W26939   2.354  36.426  13.474
65574W        W26940  39.907  40.540  12.976
65575W        W26941  24.161  18.288  11.513
65576W        W26942  36.056  42.880  14.278
65577W        W26943   0.338  17.274   3.860
65578W        W26944  36.474  23.091  10.562
65579W        W26945  44.260  37.423  11.094
65580W        W26946  39.044  15.213   2.285
65581W        W26947  17.712  27.187   1.262
65582W        W26948   7.748  38.541   0.265
65583W        W26949  10.755  28.489  12.425
65584W        W26950  11.852  41.513   0.837
65585W        W26951  18.726  22.015  12.976
65586W        W26952  39.922  25.680   0.834
65587W        W26953  24.508  21.196  12.509
65588W        W26954  22.683   8.849  14.927
65589W        W26955  21.154  23.626  10.891
65590W        W26956  23.197   5.738   3.813
65591W        W26957  11.864  36.370   0.471
65592W        W26958   1.758   4.864  12.927
65593W        W26959  30.428   0.969   1.296
65594W        W26960  38.931  28.612  11.470
65595W        W26961  38.557  12.656   2.307
65596W        W26962  18.652  44.408   4.704
65597W        W26963  10.826  11.784   0.402
65598W        W26964   4.384  31.111  12.908
65599W        W26965   6.852  22.511   3.308
65600W        W26966  14.602  44.486  11.523
65601W        W26967   7.400  14.204  14.341
65602W        W26968  37.883  12.129  11.087
65603W        W26969  26.032   6.321   2.229
65604W        W26970  42.901  13.162   2.220
65605W        W26971  23.531  13.633   0.834
65606W        W26972   5.233  24.097  11.954
65607W        W26973  42.922  21.116  12.040
65608W        W26974  25.114  15.194  12.039
65609W        W26975   6.835  30.598  11.028
65610W        W26976  38.821  17.772  14.002
65611W        W26977   4.265   6.286  12.391
65612W        W26978  39.405  36.061   4.612
65613W        W26979  27.595   0.854  10.452
65614W        W26980  15.236  15.591  11.463
65615W        W26981  36.478  28.084  10.411
65616W        W26982   5.736   2.407  10.433
65617W        W26983  16.589  29.987   0.907
65618W        W26984  31.539  38.881   0.897
65619W        W26985  14.628  11.215  12.934
65620W        W26986  26.581  23.563  13.987
65621W        W26987  36.904  10.280  14.494
65622W        W26988   2.862  20.232   4.215
65623W        W26989  40.306  39.385   0.838
65624W        W26990  41.988   0.853   4.348
65625W        W26991   3.458  14.227   3.282
65626W        W26992  40.943  20.646   4.251
65627W        W26993  40.492  12.344   3.347
65628W        W26994  38.524  27.149   2.739
65629W        W26995  24.553  39.880   0.869
65630W        W26996  35.958  15.146  12.538
65631W        W26997   3.409  44.444   1.265
65632W        W26998  16.092  42.297   4.660
65633W        W26999  27.153   5.212  13.430
65634W        W27000  26.598  35.418   4.631
65635W        W27001  18.755  34.961  11.541
65636W        W27002   0.438  21.178   1.329
65637W        W27003  34.541   4.386  11.054
65638W        W27004  39.045  32.005   2.347
65639W        W27005  29.496   9.773   0.885
65640W        W27006  27.576  41.530  10.952
65641W        W27007  41.786  32.136   5.299
65642W        W27008  15.778   4.346   1.896
65643W        W27009  14.204  24.040  13.916
65644W        W27010  16.612   2.884  10.468
65645W        W27011  19.623   7.876   0.429
65646W        W27012  28.476  42.998  14.930
65647W        W27013   0.252  25.557   4.169
65648W        W27014   3.931   6.423   3.294
65649W        W27015  42.418  29.609  11.472
65650W        W27016  13.757   8.854  13.465
65651W        W27017   5.705  19.752  10.406
65652W        W27018   4.448  25.209  12.935
65653W        W27019  42.952   8.716  10.421
65654W        W27020  31.535  21.737   5.797
65655W        W27021  31.633  11.756  12.373
65656W        W27022  41.458  22.225  12.559
65657W        W27023  28.463   0.872  12.528
65658W        W27024  19.552   7.180  13.405
65659W        W27025  16.079  32.533  11.058
65660W        W27026   2.759  31.991  10.075
65661W        W27027  16.194  20.716   0.889
65662W        W27028   7.878  24.521   3.680
65663W        W27029   0.953  39.477   4.325
65664W        W27030  30.136   1.439   2.299
65665W        W27031  22.241  35.072  14.858
65666W        W27032  30.651  24.501   3.374
65667W        W27033   6.918  36.356   1.903
65668W        W27034  10.196  11.702   0.399
65669W        W27035  23.501  19.065   3.205
65670W        W27036  14.798  22.655  11.478
65671W        W27037  20.567  15.736   0.260
65672W        W27038   2.469  18.135  14.488
65673W        W27039   5.257  14.283   2.382
65674W        W27040  13.818  41.444   2.368
65675W        W27041  23.687  25.202   2.668
65676W        W27042   7.294  14.225  11.104
65677W        W27043   7.199  31.555  14.000
65678W        W27044  28.182   8.694  11.090
65679W        W27045   9.723  19.105  12.019
65680W        W27046  35.032  27.966   1.728
65681W        W27047  14.283  38.021   4.605
65682W        W27048   2.749  21.039  11.474
65683W        W27049   3.280   2.350   4.288
65684W        W27050  30.458  13.776   0.460
65685W        W27051  26.207  15.097   2.793
65686W        W27052   7.739   1.918  10.148
65687W        W27053  44.330   9.393  14.942
65688W        W27054  41.300  31.611   0.365
65689W        W27055  24.095  17.262   3.376
65690W        W27056  34.600  25.552   1.835
65691W        W27057   3.894   7.303   4.749
65692W        W27058   7.231  30.425   1.717
65693W        W27059   0.919  21.161  13.916
65694W        W27060  31.897  25.500   0.288
65695W        W27061  14.722  19.147  12.533
65696W        W27062  34.429  42.316   1.828
65697W        W27063  15.800  38.931  13.030
65698W        W27064  31.984   5.341   4.806
65699W        W27065  17.305   1.967   1.437
65700W        W27066  29.154   3.458   1.711
65701W        W27067  39.440  25.489   0.328
65702W        W27068  42.910   5.862   3.378
65703W        W27069  31.558  35.918   3.805
65704W        W27070   5.311   9.258   2.668
65705W        W27071   2.285  27.102  11.000
65706W        W27072   3.320   0.382  14.981
65707W        W27073  42.402  32.103   1.312
65708W        W27074  35.952  35.057  11.992
65709W        W27075  39.487  20.029   2.202
65710W        W27076   2.299   2.755  14.377
65711W        W27077   4.413   5.876   1.378
65712W        W27078   4.753  17.193  10.643
65713W        W27079  28.655   1.976  11.092
65714W        W27080  21.559  32.464  14.456
65715W        W27081  41.868   7.897   1.786
65716W        W27082  21.712  17.293  12.823
65717W        W27083  14.109  18.080  14.490
65718W        W27084  10.164  10.205  10.457
65719W        W27085   9.648  37.363   0.263
65720W        W27086  21.105   8.229  14.436
65721W        W27087  36.379   4.394  12.410
65722W        W27088  21.559   9.854  12.384
65723W        W27089  15.239  22.215   3.373
65724W        W27090  32.120  32.603   4.159
65725W        W27091  16.686  36.841   3.241
65726W        W27092   8.282  10.377  11.892
65727W        W27093   9.689   8.732   1.273
65728W        W27094   2.830  21.255  13.504
65729W        W27095  16.227  23.556   4.180
65730W        W27096  28.947  26.103  12.048
65731W        W27097  36.885  35.052  12.516
65732W        W27098  22.195  17.621   0.314
65733W        W27099   8.185  44.396   1.822
65734W        W27100  27.012   0.754  14.351
65735W        W27101   3.939  32.040  10.543
65736W        W27102  23.591  10.154   4.775
65737W        W27103  39.873  24.541  13.946
65738W        W27104  27.990  21.593   3.700
65739W        W27105  12.130  14.169  10.947
65740W        W27106  18.750  19.622  12.086
65741W        W27107   8.893  42.784  13.524
65742W        W27108  15.199   6.225   2.708
65743W        W27109  32.531   5.736  10.495
65744W        W27110  12.268  41.971  14.774
65745W        W27111  23.710  26.105   1.348
65746W        W27112  28.935  35.445  14.827
65747W        W27113  17.135  38.857  10.904
65748W        W27114   8.691  13.701   0.467
65749W        W27115  17.641  10.724   2.824
65750W        W27116  17.789  11.714  12.881
65751W        W27117  44.814  35.413  14.490
65752W        W27118  40.946  29.005  12.869
65753W        W27119   3.351   4.876   5.283
65754W        W27120  44.366  21.067  14.889
65755W        W27121  40.806  14.233  12.487
65756W        W27122  42.009  27.668   4.688
65757W        W27123  22.553  34.397  11.530
65758W        W27124  35.921  25.556  14.891
65759W        W27125  33.990   8.688  11.610
65760W        W27126   9.674   2.363   2.675
65761W        W27127  30.586  16.762   3.380
65762W        W27128  36.971  34.474  12.893
65763W        W27129  29.119  34.878  13.883
65764W        W27130  18.078  43.006  11.048
65765W        W27131  37.364  26.174   2.213
65766W        W27132  26.179  21.624   3.364
65767W        W27133  18.256  36.560   0.359
65768W        W27134  20.733  31.926  13.486
65769W        W27135  24.031  24.024  14.969
65770W        W27136  42.310  27.114   3.292
65771W        W27137  17.231  32.582   5.162
65772W        W27138   7.893  12.295  12.450
65773W        W27139  19.603  38.965   1.427
65774W        W27140  38.453  24.689  13.883
65775W        W27141  34.008   8.721   4.179
65776W        W27142  18.073  37.948  14.966
65777W        W27143  14.187  17.775  14.993
65778W        W27144   6.726  19.638   1.215
65779W        W27145  20.633  28.600  13.519
65780W        W27146  38.964  43.433  13.892
65781W        W27147  32.537  25.148   4.260
65782W        W27148  25.175  41.874   5.268
65783W        W27149  29.651  30.587  10.932
65784W        W27150   5.413   0.256   4.317
65785W        W27151   6.918   9.824  11.507
65786W        W27152  28.565  14.224   2.816
65787W        W27153  35.969  24.159   2.360
65788W        W27154   8.388  35.953   3.295
65789W        W27155  28.515  12.809  14.488
65790W        W27156  42.797   4.869   0.445
65791W        W27157  33.878  15.745   3.668
65792W        W27158  40.430  16.176  11.514
65793W        W27159  14.168  36.459   3.363
65794W        W27160  25.530   2.235  11.529
65795W        W27161  22.132  24.600  13.462
65796W        W27162  22.702  40.899  13.325
65797W        W27163  16.268  20.061   2.778
65798W        W27164  25.475  43.420   0.318
65799W        W27165  39.845  26.002   4.217
65800W        W27166  38.939   9.262  10.409
65801W        W27167  13.218  36.410   4.815
65802W        W27168  13.197  43.351  14.762
65803W        W27169  39.016  42.393   3.757
65804W        W27170  31.581  13.131  12.012
65805W        W27171  14.214   3.385  10.953
65806W        W27172  34.536  40.461  11.945
65807W        W27173   8.865   6.888   2.789
65808W        W27174  44.332  40.309  13.059
65809W        W27175  28.541  17.279   4.625
65810W        W27176  25.108   6.792  11.598
65811W        W27177  16.236  18.602  11.913
65812W        W27178   4.411  32.063   2.787
65813W        W27179   7.750  39.831  14.786
65814W        W27180  27.980  20.755  13.519
65815W        W27181  15.650  12.122   4.674
65816W        W27182  39.558  43.470   0.941
65817W        W27183  16.735  30.547   4.766
65818W        W27184  20.255   5.791   1.222
65819W        W27185  38.519  41.958   1.257
65820W        W27186   1.757   3.719   2.414
65821W        W27187  35.001   1.322  12.415
65822W        W27188  15.769  41.480   3.865
65823W        W27189   9.694  15.659  13.354
65824W        W27190   9.701  10.764  12.842
65825W        W27191  27.062  44.452   2.341
65826W        W27192  31.557  25.623  14.974
65827W        W27193  38.493  15.199   1.386
65828W        W27194  28.160  25.570  12.514
65829W        W27195  26.993  31.437   3.781
65830W        W27196  19.083  18.141  14.822
65831W        W27197  30.659   5.274   4.798
65832W        W27198   9.793  26.185   1.300
65833W        W27199   9.190  39.485   0.966
65834W        W27200   2.890  36.484  14.465
65835W        W27201  32.976  42.004  11.463
65836W        W27202  40.901  28.586   4.823
65837W        W27203  37.915  43.373  13.840
65838W        W27204  14.659  43.428   1.814
65839W        W27205  10.234  29.535   3.810
65840W        W27206  10.769  34.563   2.214
65841W        W27207  22.027  12.183   2.196
65842W        W27208   7.888   8.172  13.064
65843W        W27209  37.931   7.695   3.739
65844W        W27210  42.458   4.847   2.347
65845W        W27211  25.535  31.412   3.280
65846W        W27212  30.578  33.956  10.440
65847W        W27213  41.484  23.029  12.488
65848W        W27214  11.693   6.201  13.971
65849W        W27215  33.007   1.811  11.056
65850W        W27216   9.315  18.645  14.285
65851W        W27217  28.008  40.038  11.998
65852W        W27218  28.165  33.904  10.925
65853W        W27219  16.775  28.959  11.404
65854W        W27220   0.415  27.475   5.740
65855W        W27221   7.231  31.009   1.293
65856W        W27222  10.865  28.559  13.935
65857W        W27223  18.253  26.645  11.402
65858W        W27224  19.595  35.361  14.774
65859W        W27225  19.696  43.449  14.967
65860W        W27226  25.130  36.385   4.202
65861W        W27227  29.503   3.729  11.897
65862W        W27228  11.149  41.296   4.218
65863W        W27229  20.052  32.402  12.579
65864W        W27230   7.406  33.525   4.689
65865W        W27231  10.382  18.226   2.333
65866W        W27232  11.831  14.688  11.518
65867W        W27233   6.781   1.872   4.191
65868W        W27234  21.730  14.200  12.998
65869W        W27235  23.617  15.650   2.237
65870W        W27236  29.036   0.779   1.890
65871W        W27237   2.961  32.130  11.906
65872W        W27238  29.430  21.601   3.328
65873W        W27239  20.219   1.809  12.378
65874W        W27240  27.471  14.810   0.765
65875W        W27241  34.567  25.061  14.940
65876W        W27242   5.933  18.089   1.694
65877W        W27243  36.057  19.204  13.925
65878W        W27244  19.663  42.398   3.161
65879W        W27245   2.869  23.542   4.641
65880W        W27246   7.272  12.182   3.212
65881W        W27247  14.221  27.048  13.411
65882W        W27248  24.601   3.302  13.929
65883W        W27249  41.348   0.945  13.905
65884W        W27250  26.570  15.267   1.853
65885W        W27251  11.225   2.386  14.760
65886W        W27252   5.404  41.388   2.340
65887W        W27253  39.411  13.124  14.879
65888W        W27254  20.693   7.772  14.950
65889W        W27255   9.230   1.791  13.988
65890W        W27256   7.391  16.718   9.996
65891W        W27257  10.330  35.497   0.383
65892W        W27258  25.075   9.676  11.406
65893W        W27259  11.841  44.850  11.058
65894W        W27260  15.264   8.665   2.750
65895W        W27261  25.584  25.044  12.964
65896W        W27262  31.067  33.035   2.278
65897W        W27263  35.523  20.077   1.400
65898W        W27264  32.901  14.175   2.757
65899W        W27265  30.427  43.928   4.651
65900W        W27266  22.670  17.589  14.759
65901W        W27267  20.123  22.195  14.937
65902W        W27268  22.724  25.133   3.312
65903W        W27269  28.671  44.887   4.612
65904W        W27270   2.228  23.122   0.295
65905W        W27271  29.057  14.821  13.508
65906W        W27272  20.145   6.833   0.287
65907W        W27273   1.324  27.667  12.433
65908W        W27274  38.928  12.788  11.122
65909W        W27275  29.654  33.892  13.332
65910W        W27276   0.793  22.233   2.305
65911W        W27277   9.774  22.605   0.744
65912W        W27278  10.835  24.714  14.778
65913W        W27279  15.276  37.471  10.506
65914W        W27280  44.941   8.314   1.218
65915W        W27281   7.280  28.581   0.411
65916W        W27282  30.160  33.438  11.944
65917W        W27283  25.636  26.006   2.692
65918W        W27284  16.691  36.087  11.953
65919W        W27285  19.738  35.919  13.019
65920W        W27286  39.064  22.633  13.013
65921W        W27287  27.544  21.569  13.546
65922W        W27288  26.126  16.231  10.459
65923W        W27289  29.070  39.509   1.318
65924W        W27290   5.911   7.691  12.503
65925W        W27291  32.633  12.156  11.458
65926W        W27292  23.609  22.218   4.289
65927W        W27293   4.744  19.171  13.988
65928W        W27294  14.729  20.209  13.486
65929W        W27295  31.462  29.663  14.015
65930W        W27296  23.601  36.582  13.510
65931W        W27297  31.012  31.456  10.525
65932W        W27298  19.739  10.784  12.026
65933W        W27299  23.642  43.369  10.482
65934W        W27300  31.580  15.321   0.294
65935W        W27301  13.210  22.630  11.508
65936W        W27302   5.706  42.310  14.827
65937W        W27303  20.588   6.187  14.846
65938W        W27304  32.016   1.417  14.349
65939W        W27305  12.270  22.701  14.460
65940W        W27306  35.582   0.469  13.523
65941W        W27307  13.342  34.983   2.681
65942W        W27308  28.930  11.802   1.751
65943W        W27309  28.625  23.009   4.647
65944W        W27310  28.093  20.701   3.385
65945W        W27311  17.719   5.697   2.761
65946W        W27312  14.638  12.146  14.352
65947W        W27313  12.743  32.633   9.977
65948W        W27314  11.169  42.392   1.852
65949W        W27315   3.778  39.868  12.871
65950W        W27316  13.737  11.138  11.515
65951W        W27317  11.822  42.783   3.731
65952W        W27318   0.887   1.356  14.329
65953W        W27319   0.830  19.731  14.995
65954W        W27320   2.872   2.957  14.991
65955W        W27321  14.812  31.500   2.874
65956W        W27322  13.794  24.723   2.768
65957W        W27323   5.422   0.870  12.533
65958W        W27324  33.584  43.335  14.856
65959W        W27325  43.515  31.118   2.190
65960W        W27326  42.333  31.473   4.733
65961W        W27327   2.466  23.155  14.000
65962W        W27328   3.816   5.867  10.570
65963W        W27329   1.410  17.589   4.266
65964W        W27330   9.395  23.028   3.217
65965W        W27331  38.471  17.231   4.628
65966W        W27332  29.572  43.280  14.397
65967W        W27333   0.439  40.008  11.465
65968W        W27334  24.686  34.999  11.407
65969W        W27335  18.588  27.634   4.637
65970W        W27336  17.562   5.392  13.388
65971W        W27337  22.011   2.779  14.377
65972W        W27338  17.702  10.242  12.446
65973W        W27339  37.365  28.590  11.567
65974W        W27340   2.305  33.580  11.378
65975W        W27341  42.301  23.719  13.350
65976W        W27342  15.776  40.448  12.541
65977W        W27343  19.601  32.032   2.416
65978W        W27344   2.849   3.814   1.349
65979W        W27345  35.558  22.020   0.245
65980W        W27346  27.519  40.944   0.482
65981W        W27347  31.114  25.968   2.273
65982W        W27348   0.248   2.411   0.280
65983W        W27349   3.885  44.856  14.363
65984W        W27350  12.241  36.354   2.700
65985W        W27351   6.769   7.204   3.336
65986W        W27352  23.002  30.082   4.258
65987W        W27353  11.680  42.471  13.451
65988W        W27354   6.247  22.632   1.292
65989W        W27355  42.885  24.601  11.071
65990W        W27356  10.244   1.442   1.854
65991W        W27357  37.459  30.596   1.887
65992W        W27358  21.063   0.974   4.309
65993W        W27359  33.524   2.313   0.904
65994W        W27360  37.443  42.377  11.881
65995W        W27361   6.904   8.342  13.357
65996W        W27362  25.188   9.295  13.022
65997W        W27363  15.650  12.798   0.411
65998W        W27364  13.157  31.079   4.313
65999W        W27365  43.481  22.562   2.238
66000W        W27366   4.232  24.488  13.009
66001W        W27367  41.838   7.891   4.712
66002W        W27368  32.615   6.361  13.543
66003W        W27369  20.533  13.123   4.125
66004W        W27370  23.678  41.853   0.917
66005W        W27371  27.986  31.490   0.943
66006W        W27372  11.187  31.440   2.688
66007W        W27373   5.352  10.286   3.297
66008W        W27374  28.570   1.946   3.842
66009W        W27375  26.963  22.709   1.334
66010W        W27376   0.354  35.081  12.924
66011W        W27377   5.717  10.710  14.802
66012W        W27378   1.812  21.145   2.361
66013W        W27379  40.421  37.060  14.867
66014W        W27380  18.716  26.652   4.767
66015W        W27381  23.490  15.146  13.008
66016W        W27382  26.647  30.479   3.319
66017W        W27383  18.060  16.783  14.302
66018W        W27384  37.491  40.315  12.934
66019W        W27385  11.656   3.451  13.445
66020W        W27386   4.449  17.222   0.406
66021W        W27387   3.216  21.076  14.813
66022W        W27388  23.040  37.049  11.561
66023W        W27389  26.560  21.124   5.273
66024W        W27390   9.798  15.623   1.760
66025W        W27391  42.852  17.717   2.272
66026W        W27392  40.475  24.700  10.477
66027W        W27393  34.983  37.490  13.029
66028W        W27394  26.683  20.041   0.899
66029W        W27395  20.628  37.836  11.600
66030W        W27396  23.126   4.805  14.309
66031W        W27397  30.490  28.965   1.354
66032W        W27398  42.499   2.259  10.510
66033W        W27399  21.580  25.646  14.364
66034W        W27400  22.252  13.638   4.282
66035W        W27401  35.051   7.284  12.413
66036W        W27402  11.828  41.509   0.480
66037W        W27403   8.392  28.145  13.522
66038W        W27404  34.080  18.111   1.234
66039W        W27405   8.238  44.806   2.737
66040W        W27406  40.469  31.004   0.929
66041W        W27407  19.091  39.995  14.815
66042W        W27408  38.427  13.278   1.215
66043W        W27409  10.243  41.424   4.810
66044W        W27410  20.720  20.724  12.031
66045W        W27411  41.318   7.667   2.333
66046W        W27412  12.144   4.838   1.790
66047W        W27413  27.129  39.342  14.004
66048W        W27414  19.565  43.466  13.435
66049W        W27415  26.133   5.900   3.376
66050W        W27416  40.499  43.391  12.442
66051W        W27417  22.251  38.858  14.364
66052W        W27418  24.076  13.759   0.425
66053W        W27419  43.783  28.039   3.802
66054W        W27420   3.923  16.708   3.270
66055W        W27421   9.387   6.768   4.620
66056W        W27422  34.935  12.124  10.555
66057W        W27423  32.960  28.464   4.337
66058W        W27424  33.453  22.137   2.821
66059W        W27425  23.105   4.269   3.324
66060W        W27426  31.625   5.850   3.805
66061W        W27427  11.745  34.078   2.267
66062W        W27428  35.393  30.134   0.270
66063W        W27429  18.667   5.869  10.923
66064W        W27430  30.499  36.992   4.209
66065W        W27431  20.698  18.613   0.349
66066W        W27432  39.930  18.585   1.320
66067W        W27433  13.676  11.675  10.516
66068W        W27434  13.616  25.523  14.483
66069W        W27435  36.937  22.055   3.189
66070W        W27436  43.363  42.377  14.445
66071W        W27437  26.459   4.770   1.350
66072W        W27438  22.705  37.581   3.284
66073W        W27439   6.391  29.654  10.935
66074W        W27440  31.450  26.150   1.798
66075W        W27441   7.227  22.706   3.216
66076W        W27442  25.528  18.622   0.766
66077W        W27443  38.946  21.107  10.444
66078W        W27444   5.859  40.022  12.456
66079W        W27445  40.847  24.074  13.373
66080W        W27446  22.703  39.326   1.306
66081W        W27447  13.333  30.506  12.854
66082W        W27448  43.785  33.456  14.828
66083W        W27449  27.020  30.553   1.808
66084W        W27450  43.328  33.987   0.869
66085W        W27451   8.254  19.231  13.798
66086W        W27452  23.581  28.003   4.131
66087W        W27453  41.382  24.230   2.221
66088W        W27454  24.569  35.415   4.267
66089W        W27455  30.506  34.882   3.247
66090W        W27456  31.994  33.878   0.416
66091W        W27457  36.053  36.582  12.053
66092W        W27458  41.852  25.984   3.675
66093W        W27459  43.768   4.219   2.894
66094W        W27460  34.018  17.631   0.733
66095W        W27461  24.607  16.138  14.932
66096W        W27462  41.461  38.851   3.152
66097W        W27463   7.726  13.637  14.863
66098W        W27464  39.858  31.080  12.469
66099W        W27465   4.223  11.230   3.780
66100W        W27466  29.555  30.492  11.533
66101W        W27467  20.738  36.894  14.343
66102W        W27468  28.583  42.458   2.896
66103W        W27469  37.454   5.831  10.461
66104W        W27470  44.966  22.506   0.372
66105W        W27471   8.354  38.840   0.367
66106W        W27472   8.393  43.475   2.202
66107W        W27473  25.592  21.757   4.670
66108W        W27474  20.581  31.422  10.598
66109W        W27475  18.246  28.034   1.212
66110W        W27476  28.496   3.283   3.770
66111W        W27477  25.025  40.991   1.275
66112W        W27478  42.970  21.088   5.132
66113W        W27479   3.939   9.346   3.714
66114W        W27480  10.306   3.343  12.876
66115W        W27481  23.141   6.687  13.474
66116W        W27482   4.884  40.885  11.066
66117W        W27483  21.073  43.482   3.850
66118W        W27484  40.459  29.639   3.379
66119W        W27485  39.373   3.400  13.902
66120W        W27486  11.861  23.088   3.658
66121W        W27487  37.947  26.000   1.741
66122W        W27488  23.026  35.916  14.964
66123W        W27489  10.845   1.255  11.539
66124W        W27490  19.114  37.852  14.360
66125W        W27491  24.597   1.972   3.770
66126W        W27492  22.526  30.963  12.832
66127W        W27493   2.762  20.117   3.318
66128W        W27494   0.834  17.778  10.448
66129W        W27495  41.808  38.382   4.802
66130W        W27496  44.952  14.108   0.923
66131W        W27497  37.483  20.561  11.947
66132W        W27498  37.027   7.223   4.623
66133W        W27499   5.737   3.288  12.468
66134W        W27500  29.092  29.042  13.440
66135W        W27501  18.568  41.305  12.459
66136W        W27502  35.094  32.561  11.489
66137W        W27503  10.812   6.730  10.543
66138W        W27504  40.545  21.578   1.223
66139W        W27505  21.175  35.361   2.791
66140W        W27506  12.245  28.466  13.989
66141W        W27507  21.705   4.224  13.431
66142W        W27508  27.025   3.262  10.899
66143W        W27509   9.727  17.616  11.884
66144W        W27510  21.520  39.554  13.532
66145W        W27511  23.201  15.675   2.882
66146W        W27512   6.919   7.801  12.049
66147W        W27513   4.890   9.737   2.731
66148W        W27514  43.016   7.791   5.251
66149W        W27515  30.089  38.042   0.475
66150W        W27516  39.926  17.640  10.504
66151W        W27517   1.955  27.983  12.537
66152W        W27518   4.262  37.054  12.393
66153W        W27519  32.136   1.760   0.855
66154W        W27520  28.668  15.785  13.534
66155W        W27521  17.297  17.772   9.503
66156W        W27522  27.192  43.985   4.601
66157W        W27523   5.279  20.164  13.487
66158W        W27524  41.478  32.523   2.379
66159W        W27525  23.625  15.792   4.837
66160W        W27526  15.110   2.408  11.468
66161W        W27527   3.261   6.850  14.788
66162W        W27528  42.380   6.744   2.677
66163W        W27529   3.936  39.493  12.998
66164W        W27530  23.566   9.385   4.315
66165W        W27531  36.538  15.301   3.253
66166W        W27532  37.961  35.925  10.955
66167W        W27533  41.453  35.907  14.905
66168W        W27534   4.398   2.944  12.354
66169W        W27535  32.614  14.230  11.525
66170W        W27536  31.936  38.510  14.764
66171W        W27537  43.913  27.505   5.294
66172W        W27538  40.358   3.251  13.441
66173W        W27539   2.816   7.374   1.380
66174W        W27540   0.791  22.719   2.782
66175W        W27541   1.749  38.898  13.978
66176W        W27542  36.492  25.149  11.981
66177W        W27543  20.545   4.363   1.796
66178W        W27544  14.256   8.351  11.923
66179W        W27545   9.214  44.848   4.208
66180W        W27546   7.291  37.845  10.997
66181W        W27547   4.388  13.274  11.026
66182W        W27548  24.628  31.009  13.984
66183W        W27549  38.993   7.824   2.208
66184W        W27550  42.457  29.654   1.923
66185W        W27551  26.700  24.193   2.707
66186W        W27552  24.229  43.277  11.029
66187W        W27553  14.789   3.808   0.734
66188W        W27554  42.963  37.467   0.745
66189W        W27555   4.892  36.026  13.854
66190W        W27556   4.721   1.413   1.420
66191W        W27557  37.018   5.286  14.896
66192W        W27558   0.396  34.881   1.784
66193W        W27559  34.382  13.277   2.829
66194W        W27560  40.889  24.601   4.602
66195W        W27561  22.663  28.067  14.516
66196W        W27562  14.165  13.195   0.414
66197W        W27563  35.444  15.252  12.882
66198W        W27564  35.376  28.553   4.271
66199W        W27565  15.099  37.379  11.045
66200W        W27566  20.094  22.540  12.846
66201W        W27567  29.926  17.746   5.279
66202W        W27568  39.915  34.892  11.922
66203W        W27569  36.437   1.861  14.907
66204W        W27570  14.602  40.391   0.900
66205W        W27571   9.862   9.695   2.352
66206W        W27572  43.997  42.955  13.796
66207W        W27573  21.056  40.465  11.954
66208W        W27574  11.758  24.027   2.746
66209W        W27575  33.075  16.288   1.347
66210W        W27576  17.727  20.587   2.815
66211W        W27577  17.131  42.314  13.399
66212W        W27578   0.445  34.535   0.925
66213W        W27579  16.631  28.017   3.746
66214W        W27580  30.430  33.431   0.349
66215W        W27581  16.187  44.904  11.411
66216W        W27582   4.704  10.646  12.899
66217W        W27583  28.514  21.233   2.286
66218W        W27584  31.039  43.946   4.177
66219W        W27585  38.924  15.301  14.512
66220W        W27586  21.203  20.252   3.659
66221W        W27587  25.712   0.320  11.429
66222W        W27588   6.310   5.845   1.895
66223W        W27589  29.581  11.347  10.593
66224W        W27590   2.341  36.398  11.938
66225W        W27591  15.125  39.377   0.278
66226W        W27592  15.202  44.305   4.731
66227W        W27593  10.354  42.453  12.070
66228W        W27594  25.084  28.098  12.888
66229W        W27595  28.993   9.767  14.963
66230W        W27596  10.364  23.596  11.033
66231W        W27597  25.009  22.224   2.208
66232W        W27598  17.760   0.305  10.920
66233W        W27599  27.555  21.526   1.373
66234W        W27600  32.103   7.827  13.938
66235W        W27601   2.237  35.386   0.897
66236W        W27602  25.012  20.760  13.393
66237W        W27603   0.757   6.862   1.844
66238W        W27604  15.763  33.594  12.541
66239W        W27605  11.234   9.289   0.333
66240W        W27606  25.065  41.406   0.934
66241W        W27607   5.277  19.549  10.490
66242W        W27608  42.902  23.721   1.808
66243W        W27609  37.897  37.578   3.228
66244W        W27610  20.750  37.954   4.692
66245W        W27611  23.653  34.067  11.046
66246W        W27612  34.389  25.012   4.653
66247W        W27613  39.392  14.220   4.131
66248W        W27614  41.466   7.312   0.894
66249W        W27615  42.521  34.046   1.786
66250W        W27616   4.846  42.510   1.934
66251W        W27617  32.929   2.759   3.333
66252W        W27618   9.828  20.064   1.336
66253W        W27619  24.069  25.639   1.350
66254W        W27620  38.069  13.771   1.761
66255W        W27621  13.199  26.185  11.017
66256W        W27622  13.690  43.986   2.667
66257W        W27623  12.739  20.552  14.408
66258W        W27624  16.620  10.364   3.281
66259W        W27625  33.022  15.307   0.483
66260W        W27626  20.708  41.982   2.306
66261W        W27627  18.762  12.674  10.136
66262W        W27628  19.084  42.475   3.794
66263W        W27629  43.889  42.808   4.682
66264W        W27630  42.501   4.738  13.933
66265W        W27631   1.340   4.427   0.286
66266W        W27632  27.027  37.946   2.387
66267W        W27633  35.958  29.134   4.214
66268W        W27634  32.619  32.030  11.551
66269W        W27635  20.729  38.885  12.006
66270W        W27636  29.504  15.324   0.815
66271W        W27637  16.219  18.577  10.561
66272W        W27638  33.434   6.291  14.923
66273W        W27639   5.203  38.504  12.979
66274W        W27640  32.066  14.833   1.830
66275W        W27641   9.270  41.516  14.337
66276W        W27642   1.872   7.815   0.453
66277W        W27643  32.953  15.750   4.769
66278W        W27644  31.913  27.101   0.415
66279W        W27645  12.288  20.209  14.829
66280W        W27646  31.909  40.489   3.167
66281W        W27647  23.650   6.320   5.667
66282W        W27648  35.933  12.283   3.634
66283W        W27649  25.084  25.679   4.329
66284W        W27650   7.225   9.792  11.955
66285W        W27651  44.761   1.787  13.826
66286W        W27652  34.521   8.900   2.786
66287W        W27653  21.527   6.913  10.016
66288W        W27654  21.534  34.973  14.371
66289W        W27655  17.079  35.891   3.212
66290W        W27656  23.689  33.622  13.927
66291W        W27657  36.545  11.364  14.406
66292W        W27658  36.041  13.765   2.381
66293W        W27659  17.652  14.174  11.580
66294W        W27660  21.756  39.332   1.744
66295W        W27661  31.009  44.297  12.471
66296W        W27662   2.376  27.580   2.886
66297W        W27663  41.940  25.607   4.295
66298W        W27664  29.432  35.374   1.789
66299W        W27665  39.058   7.217   1.418
66300W        W27666  24.078  35.391   2.304
66301W        W27667   5.846  24.702  11.404
66302W        W27668  40.909  29.474   0.297
66303W        W27669  11.308   6.360  13.987
66304W        W27670  17.581  21.074   4.129
66305W        W27671   4.426  44.471   3.238
66306W        W27672   5.203  24.152  12.447
66307W        W27673  36.474   0.428   2.835
66308W        W27674  17.078  39.043   1.868
66309W        W27675   4.323  17.083   3.743
66310W        W27676  25.608  12.274   1.927
66311W        W27677  15.317  30.021  10.419
66312W        W27678  12.840   2.360   1.395
66313W        W27679  13.785  44.911   4.348
66314W        W27680  15.178  40.432   0.364
66315W        W27681  27.973   1.465   0.397
66316W        W27682  32.516  17.290  12.355
66317W        W27683  42.888  20.697  11.538
66318W        W27684  35.043  25.601  14.371
66319W        W27685  28.091  42.960   1.395
66320W        W27686  33.053  41.487   2.369
66321W        W27687  15.603  10.691   4.230
66322W        W27688   8.749  17.750   2.668
66323W        W27689  43.007  40.835  12.067
66324W        W27690  30.994   6.823  14.875
66325W        W27691   1.281  43.876   4.768
66326W        W27692  21.022  14.829   0.350
66327W        W27693   2.879  21.033   1.774
66328W        W27694   1.760   9.376  11.387
66329W        W27695   2.445  13.838  11.472
66330W        W27696   3.425  29.046   0.438
66331W        W27697   8.198  29.134  12.354
66332W        W27698  39.529  36.426  12.491
66333W        W27699  36.020  26.504   0.737
66334W        W27700  42.384  31.557  14.802
66335W        W27701  25.218   0.305   3.728
66336W        W27702  11.802  28.672   0.244
66337W        W27703  42.945  44.994  14.465
66338W        W27704  21.253  27.665   0.951
66339W        W27705   6.190   1.256   1.703
66340W        W27706  34.909  19.638  12.463
66341W        W27707  42.524  39.912  10.404
66342W        W27708   4.876  11.277  13.978
66343W        W27709  43.819   4.894  10.116
66344W        W27710  42.843  34.087   3.762
66345W        W27711  33.400  36.007   5.262
66346W        W27712  15.263   9.855   1.267
66347W        W27713  18.736  39.063  13.376
66348W        W27714  12.165  37.472   3.352
66349W        W27715  41.992  18.232  11.601
66350W        W27716  44.304  39.426   1.816
66351W        W27717   5.412   4.931  13.911
66352W        W27718  43.938  42.986  11.492
66353W        W27719  18.238  19.694   2.801
66354W        W27720  36.884  34.059  13.913
66355W        W27721  23.555  29.635   2.770
66356W        W27722  11.210  32.427  13.357
66357W        W27723   8.865  20.030  12.862
66358W        W27724   6.272   0.941  13.870
66359W        W27725   1.935  28.148  10.565
66360W        W27726   8.682  28.529  12.840
66361W        W27727  27.158  43.321   1.829
66362W        W27728  32.497  33.600  14.368
66363W        W27729  12.267   9.792   4.210
66364W        W27730  15.583  44.931   4.599
66365W        W27731  12.231   1.321  11.493
66366W        W27732  17.717   3.835  13.446
66367W        W27733  11.328  24.219  10.597
66368W        W27734  31.645  44.452  11.127
66369W        W27735  34.948  29.159   0.855
66370W        W27736  23.717  14.819  13.370
66371W        W27737  16.612  25.665   1.917
66372W        W27738  29.164  41.458  12.529
66373W        W27739  31.905  31.017  14.822
66374W        W27740  27.145  40.983   1.779
66375W        W27741   5.374  27.547  12.985
66376W        W27742  30.037  41.964   0.283
66377W        W27743  33.988  36.520   0.854
66378W        W27744  21.075   4.859   1.393
66379W        W27745  21.062  24.053  10.611
66380W        W27746  37.906  34.881  14.895
66381W        W27747  44.827  18.225   1.237
66382W        W27748  33.533  43.484  10.023
66383W        W27749  43.486   2.429  14.378
66384W        W27750  43.779  42.291   3.324
66385W        W27751  22.582  10.176  14.308
66386W        W27752  24.055  14.707   3.205
66387W        W27753  34.494  18.721  11.068
66388W        W27754  40.970  34.989  14.906
66389W        W27755  36.092  20.255  14.870
66390W        W27756  15.240   8.837  14.435
66391W        W27757  41.538  30.931  14.277
66392W        W27758  38.434   4.896   3.229
66393W        W27759   7.324   3.295   2.732
66394W        W27760  25.025  27.507   0.912
66395W        W27761  19.695  15.151  13.031
66396W        W27762   7.675  26.119   0.272
66397W        W27763  40.830  15.730  13.369
66398W        W27764  21.568  35.413   2.695
66399W        W27765  23.690  39.472  12.014
66400W        W27766   5.924  30.547   2.798
66401W        W27767  14.818  21.124  13.396
66402W        W27768  39.864  41.448  14.980
66403W        W27769  19.071   5.345  10.444
66404W        W27770  13.844  15.301   9.473
66405W        W27771  14.144  36.580  12.395
66406W        W27772  43.909  13.679   1.243
66407W        W27773  23.586  38.046  11.593
66408W        W27774  24.607   9.203   2.771
66409W        W27775  18.638   3.420   4.834
66410W        W27776  31.423   8.290   3.293
66411W        W27777  19.759  21.589   0.869
66412W        W27778  15.786  16.697   1.731
66413W        W27779  18.260   7.318  14.984
66414W        W27780   1.756  18.561  11.518
66415W        W27781   2.340  20.551   4.707
66416W        W27782  36.033   4.276   1.741
66417W        W27783   0.422  39.953  11.042
66418W        W27784  28.940  17.165  13.007
66419W        W27785  19.678  37.337  14.500
66420W        W27786  28.551  27.104  11.493
66421W        W27787  28.146  11.280   4.251
66422W        W27788  31.077   8.815   3.309
66423W        W27789  12.285  17.630  11.020
66424W        W27790  21.600   8.345  14.434
66425W        W27791   1.806  14.626   2.266
66426W        W27792  12.773  43.878  11.970
66427W        W27793   2.412  33.425   2.754
66428W        W27794  31.505  44.387  13.006
66429W        W27795  36.989  31.006  13.999
66430W        W27796  20.092  29.098   2.296
66431W        W27797  44.873  31.981  14.433
66432W        W27798  20.573  37.887   0.953
66433W        W27799  20.611  10.706   3.262
66434W        W27800  13.305  26.963   2.244
66435W        W27801  22.733   9.681   1.382
66436W        W27802  19.250  13.303  14.350
66437W        W27803  40.991  41.878  11.465
66438W        W27804  42.800  39.955   3.764
66439W        W27805  24.714  29.644   3.233
66440W        W27806   8.695   6.331  10.923
66441W        W27807  18.096  44.811  13.062
66442W        W27808  39.395  34.997   0.346
66443W        W27809  42.944   1.814  14.971
66444W        W27810  28.546  40.868  10.573
66445W        W27811  30.643  15.682   3.265
66446W        W27812  26.174  39.342  14.394
66447W        W27813  20.682  20.127   2.898
66448W        W27814  16.317   6.792  11.051
66449W        W27815  15.651   0.315   4.129
66450W        W27816   4.231  21.250  12.535
66451W        W27817  42.860  37.470  10.984
66452W        W27818  44.263  19.253   2.728
66453W        W27819  36.952  41.342  12.458
66454W        W27820  14.740  40.002  13.987
66455W        W27821  10.676  22.037   2.849
66456W        W27822  15.173  30.142   2.687
66457W        W27823  27.971  37.354  12.528
66458W        W27824  25.992  17.272  10.424
66459W        W27825  10.140  33.099  10.599
66460W        W27826  19.121  43.830  12.388
66461W        W27827  44.478  18.251  13.873
66462W        W27828  39.942   3.446   4.325
66463W        W27829  31.048  17.184   1.391
66464W        W27830  14.256  38.841  12.088
66465W        W27831  14.106  25.589   1.752
66466W        W27832  21.640  41.320  11.124
66467W        W27833   4.282  33.068   3.762
66468W        W27834  36.893  11.309   2.323
66469W        W27835  34.864  39.054   4.299
66470W        W27836  16.145  24.702  11.427
66471W        W27837  14.105   1.864  11.007
66472W        W27838   5.735  36.354  13.954
66473W        W27839  37.420   3.824  10.570
66474W        W27840   2.341  20.251  14.792
66475W        W27841   8.890  14.590   0.332
66476W        W27842  12.779  11.372   1.256
66477W        W27843   7.411   6.724  10.450
66478W        W27844   0.842  12.316  10.522
66479W        W27845   9.729   9.306  14.805
66480W        W27846  38.877  19.062   2.373
66481W        W27847  22.176   5.379   2.825
66482W        W27848  23.574   8.857   2.897
66483W        W27849   5.311   8.371   3.170
66484W        W27850  33.976  13.314  10.957
66485W        W27851  41.881   3.452   2.878
66486W        W27852  36.959  16.157  11.940
66487W        W27853  32.137  43.409   0.459
66488W        W27854   8.827  20.152   3.818
66489W        W27855   6.877  24.977   4.682
66490W        W27856   1.961  22.668   1.731
66491W        W27857  23.552  27.135   3.650
66492W        W27858  14.261  29.432   0.350
66493W        W27859   2.300   2.429  12.002
66494W        W27860   6.717  18.286   5.590
66495W        W27861   0.946   1.775  10.416
66496W        W27862  42.434  39.347  11.549
66497W        W27863   1.815  41.978   1.316
66498W        W27864  19.055  30.425   4.642
66499W        W27865  13.610  14.786   3.732
66500W        W27866  20.696  39.027  14.967
66501W        W27867  16.730  20.039  13.354
66502W        W27868   3.271   9.199  13.497
66503W        W27869  39.848  25.065  12.373
66504W        W27870  44.428  22.144   3.774
66505W        W27871  39.025   9.779   3.864
66506W        W27872  33.908  23.499  13.309
66507W        W27873  37.982  13.734   3.708
66508W        W27874  22.691   5.821  13.901
66509W        W27875  32.600  14.607  13.796
66510W        W27876  30.543   4.717   3.368
66511W        W27877  36.410   3.898   0.361
66512W        W27878   6.306  44.335   3.347
66513W        W27879  15.785   1.774  10.933
66514W        W27880  30.561  18.688  11.430
66515W        W27881  24.483  36.434   0.802
66516W        W27882  23.132  25.701   2.355
66517W        W27883   3.710  44.399  10.588
66518W        W27884  18.220  16.213   3.341
66519W        W27885   7.675  27.031   0.300
66520W        W27886  40.817   4.280   1.878
66521W        W27887  18.201  42.797  11.901
66522W        W27888  22.120  24.644  14.319
66523W        W27889  29.967  22.570   1.911
66524W        W27890  17.769  43.360   1.916
66525W        W27891  28.570  44.440  14.385
66526W        W27892   6.220  34.877   1.421
66527W        W27893  44.973  16.158   2.313
66528W        W27894   9.799  19.563   0.925
66529W        W27895  40.009  28.516  10.592
66530W        W27896  14.111  15.324  12.545
66531W        W27897   8.197  19.682  12.911
66532W        W27898   4.421   6.283  14.762
66533W        W27899  33.457  34.044   1.856
66534W        W27900   7.221  26.548  13.501
66535W        W27901  35.063  22.693   0.930
66536W        W27902  30.571  41.355  13.497
66537W        W27903  31.914   3.833  11.049
66538W        W27904  42.812  40.895  10.601
66539W        W27905   7.414  29.475  10.944
66540W        W27906  29.522  23.489  12.547
66541W        W27907  26.533  34.583  12.498
66542W        W27908   2.940  31.545   4.645
66543W        W27909  27.122  41.998   1.890
66544W        W27910   3.350  30.418   2.706
66545W        W27911  43.921   8.241   3.798
66546W        W27912  42.935  40.370  11.006
66547W        W27913   9.279   3.798   3.238
66548W        W27914  20.565   2.285  14.894
66549W        W27915   4.808  28.456   2.788
66550W        W27916   5.305  41.421   0.475
66551W        W27917   5.741  16.775  12.028
66552W        W27918  40.930   3.856  13.318
66553W        W27919   0.358  30.932   1.853
66554W        W27920  11.638  40.834  13.816
66555W        W27921  26.679  43.483  13.832
66556W        W27922   7.320  36.582  12.930
66557W        W27923  38.022   1.958   2.350
66558W        W27924  13.839  42.512   4.600
66559W        W27925  10.878  27.611   0.357
66560W        W27926  37.442  34.036   3.380
66561W        W27927   5.924  42.472  13.010
66562W        W27928  34.561  23.994   2.255
66563W        W27929  40.371  14.136   1.904
66564W        W27930   8.834  34.089   4.800
66565W        W27931   7.743  25.140  11.477
66566W        W27932   8.785  13.322  14.990
66567W        W27933  23.601  10.856   4.251
66568W        W27934   9.335  33.109  12.017
66569W        W27935   8.347  43.780  10.971
66570W        W27936  15.266  16.718  14.319
66571W        W27937  30.584   4.441   4.821
66572W        W27938  16.251  35.446   2.317
66573W        W27939  18.222  24.163   4.796
66574W        W27940  35.499  25.079   2.228
66575W        W27941   9.153  24.656   1.819
66576W        W27942  38.391  31.121   2.299
66577W        W27943   2.830  40.319  10.914
66578W        W27944  28.060  31.429   4.331
66579W        W27945   0.958   9.355   0.844
66580W        W27946  20.222   3.229   1.237
66581W        W27947  44.363  31.492   0.948
66582W        W27948  10.185   9.393  12.393
66583W        W27949  18.687  21.528   2.900
66584W        W27950  26.487  22.154   3.773
66585W        W27951   9.737  43.889   4.182
66586W        W27952  20.114  35.041  12.004
66587W        W27953  22.073  15.706  10.067
66588W        W27954   4.421   4.894   2.331
66589W        W27955  18.782  38.551   0.919
66590W        W27956  35.566  35.018  10.471
66591W        W27957  41.035  35.413   0.850
66592W        W27958   2.378  30.953  14.902
66593W        W27959  22.227  28.458   4.746
66594W        W27960  14.097   1.902   0.744
66595W        W27961  18.114   1.293   3.737
66596W        W27962  38.480  18.784  12.440
66597W        W27963   6.855  26.601  10.637
66598W        W27964  31.625  44.826   3.676
66599W        W27965   8.874  39.061   3.814
66600W        W27966  14.793  42.351   2.820
66601W        W27967  36.846  27.585   3.178
66602W        W27968  28.548  34.489  13.507
66603W        W27969  30.121  39.032   2.856
66604W        W27970  13.645  38.409  14.310
66605W        W27971  27.961  23.616  13.002
66606W        W27972  22.996  14.681   3.322
66607W        W27973   3.340  10.328   0.813
66608W        W27974  44.904   2.326  12.886
66609W        W27975  33.991  19.669   0.400
66610W        W27976  19.706  18.075   2.213
66611W        W27977   4.277  36.914   2.370
66612W        W27978  33.905   0.839   3.783
66613W        W27979  41.849  26.636   1.745
66614W        W27980   2.375   9.387   3.822
66615W        W27981  32.975  27.621   4.249
66616W        W27982   6.414  20.693   3.329
66617W        W27983  25.714  32.504   1.908
66618W        W27984  23.710  42.921   0.861
66619W        W27985  44.946  37.835   4.813
66620W        W27986  13.203  19.579  14.989
66621W        W27987  17.796  36.936  13.942
66622W        W27988  44.813  39.497  12.504
66623W        W27989  10.261  21.748   2.829
66624W        W27990   6.856  37.418   3.189
66625W        W27991   1.910  24.989   0.374
66626W        W27992  33.501  34.467   1.832
66627W        W27993  10.673   3.745  13.478
66628W        W27994  10.255   0.856   3.664
66629W        W27995  16.260  10.217   2.663
66630W        W27996  24.226  42.444   0.943
66631W        W27997  27.945  18.667  12.564
66632W        W27998  24.203  25.990   1.824
66633W        W27999  24.223   5.435  12.918
66634W        W28000  11.305  26.650   9.997
66635W        W28001   5.821   3.749   0.754
66636W        W28002  44.925  13.150  10.424
66637W        W28003  19.555  29.452   2.329
66638W        W28004  19.268  30.496  11.025
66639W        W28005  40.805  30.485   1.421
66640W        W28006  22.228  25.469  13.354
66641W        W28007  21.210  15.245   2.828
66642W        W28008  32.614  35.867   3.807
66643W        W28009  21.745  22.092   1.384
66644W        W28010  38.885   4.765  11.068
66645W        W28011  17.676  16.181   0.764
66646W        W28012  20.613   4.710  12.900
66647W        W28013  11.200  23.670  14.809
66648W        W28014   6.812  37.567   0.868
66649W        W28015  34.090   0.429  10.610
66650W        W28016  40.920  28.521   3.206
66651W        W28017  21.681  10.199  10.899
66652W        W28018  33.953   4.716   3.244
66653W        W28019   6.738  15.182   1.805
66654W        W28020  15.802  32.458  14.408
66655W        W28021  40.041  28.437  11.957
66656W        W28022   0.778  40.880  12.908
66657W        W28023   1.801  28.465  13.801
66658W        W28024  33.924   4.829   0.882
66659W        W28025  39.457  26.138  10.572
66660W        W28026   0.888  36.564   0.389
66661W        W28027  43.294   4.731  11.929
66662W        W28028  19.196  17.725  11.578
66663W        W28029  25.648  29.653  11.580
66664W        W28030  32.598  36.035  14.821
66665W        W28031  11.779   4.237  11.879
66666W        W28032  42.966  43.844   4.221
66667W        W28033  23.514  44.385  12.456
66668W        W28034  12.317  13.667   1.918
66669W        W28035  29.051   1.430   2.679
66670W        W28036  23.229  25.475   2.690
66671W        W28037  19.157   3.890  11.540
66672W        W28038  40.942  32.973   4.600
66673W        W28039   5.877  18.710  14.937
66674W        W28040  13.342  25.130  12.473
66675W        W28041  13.315  33.467   2.884
66676W        W28042  40.485  35.418   4.609
66677W        W28043  11.847  19.776  13.357
66678W        W28044  24.196  16.764   3.147
66679W        W28045  11.131  26.500   3.345
66680W        W28046  40.962  13.624   3.170
66681W        W28047  17.650   8.243  13.913
66682W        W28048  23.156  37.394  12.071
66683W        W28049  39.876  25.695  10.502
66684W        W28050   8.823  31.093  14.385
66685W        W28051   7.778  42.413   1.235
66686W        W28052  18.113  29.597   0.830
66687W        W28053   5.406  36.397   2.319
66688W        W28054  18.733  21.220  14.012
66689W        W28055  10.181  21.662  10.404
66690W        W28056  21.166  19.129   2.783
66691W        W28057  26.662   7.288  11.103
66692W        W28058  21.616   4.877  11.113
66693W        W28059  12.771  17.273  12.426
66694W        W28060  28.957  15.659   2.188
66695W        W28061   3.428   4.370   3.774
66696W        W28062  34.405  40.999  13.838
66697W        W28063  41.797   4.248  14.490
66698W        W28064  34.070   1.424  10.506
66699W        W28065  25.703  19.669   4.209
66700W        W28066  18.653  16.804  12.051
66701W        W28067  37.074  39.540  10.491
66702W        W28068  43.893  18.775  13.531
66703W        W28069  22.512  27.146   0.815
66704W        W28070  33.973  34.038   2.181
66705W        W28071  19.707  32.925  11.542
66706W        W28072  33.617  13.663  13.833
66707W        W28073  22.153  41.958  12.033
66708W        W28074   2.861  23.156  11.913
66709W        W28075  13.714  15.822  13.505
66710W        W28076  35.051   6.321   4.614
66711W        W28077  20.758   5.246   2.322
66712W        W28078  33.004  28.521  10.626
66713W        W28079  25.992  32.432   0.922
66714W        W28080   3.772  17.682  10.891
66715W        W28081  41.036  20.112  10.906
66716W        W28082  24.696  41.819  13.466
66717W        W28083  37.946   8.900  13.990
66718W        W28084   1.967  23.733   2.718
66719W        W28085  21.085  24.665   2.188
66720W        W28086  40.039   5.925  12.964
66721W        W28087  44.482   1.392  14.856
66722W        W28088  34.952  36.964  13.937
66723W        W28089   9.319  43.954   2.863
66724W        W28090  19.049  31.640  10.616
66725W        W28091   3.411  27.532  11.543
66726W        W28092  21.064  37.335   2.405
66727W        W28093  19.086  32.588  13.050
66728W        W28094  32.964  42.791   3.161
66729W        W28095   6.316  43.862  10.604
66730W        W28096   3.370  17.212  14.997
66731W        W28097  41.814  33.538   1.302
66732W        W28098  11.205   7.252  12.514
66733W        W28099  44.850  23.588   2.818
66734W        W28100  29.072  26.056  14.853
66735W        W28101  10.221  37.079  11.040
66736W        W28102  20.692   9.241   0.396
66737W        W28103  28.518  18.171  10.472
66738W        W28104   4.320  21.542   2.268
66739W        W28105  40.805   8.740   3.239
66740W        W28106  37.009  16.757   3.777
66741W        W28107  32.024  20.708  13.525
66742W        W28108  10.252  42.375   3.836
66743W        W28109  29.934   7.261  13.007
66744W        W28110  11.656   9.721   4.797
66745W        W28111  11.144  32.017   0.467
66746W        W28112  31.613   6.757   2.329
66747W        W28113   8.384  33.614   1.313
66748W        W28114   8.212   6.289   5.151
66749W        W28115  22.054  32.021  13.454
66750W        W28116   8.217  31.421  12.474
66751W        W28117  21.688  28.979  11.008
66752W        W28118  37.011  39.432  14.370
66753W        W28119  38.929   3.855   0.902
66754W        W28120  21.221  27.522  13.932
66755W        W28121   6.747  36.574  11.044
66756W        W28122  33.937   6.692  11.104
66757W        W28123  10.257   9.245  11.125
66758W        W28124  21.172  27.533   1.760
66759W        W28125  31.058  33.107  12.061
66760W        W28126  33.881  29.090   1.809
66761W        W28127  10.277  25.706   0.949
66762W        W28128  30.974  37.441   3.776
66763W        W28129  30.066   1.397  12.539
66764W        W28130  31.469  31.011   4.168
66765W        W28131   7.348  34.427  13.833
66766W        W28132   5.242  41.850  13.971
66767W        W28133  27.633   1.366  14.835
66768W        W28134   9.367  38.028  14.515
66769W        W28135  19.241  15.250  12.535
66770W        W28136   8.794   5.915  10.444
66771W        W28137  24.572  31.531   4.197
66772W        W28138  42.885   6.414  14.406
66773W        W28139  30.961  40.477  13.039
66774W        W28140  19.187  12.632   1.870
66775W        W28141  30.581  21.537  14.845
66776W        W28142  24.986  35.039   4.833
66777W        W28143  34.465   3.346  14.925
66778W        W28144  13.754  29.951   2.824
66779W        W28145  25.043  43.877  11.959
66780W        W28146  15.807  25.053  12.514
66781W        W28147  43.344  42.512  10.412
66782W        W28148  34.410  17.288   3.842
66783W        W28149   5.845  14.766  10.574
66784W        W28150  18.575  23.207   1.360
66785W        W28151   9.270   3.875   4.326
66786W        W28152  22.067  25.043   3.723
66787W        W28153  35.106   6.691  10.618
66788W        W28154   1.304  42.362  12.371
66789W        W28155  41.466  26.481   4.741
66790W        W28156  15.129  21.204   0.882
66791W        W28157  36.918  40.910  11.487
66792W        W28158  42.506  31.947  14.801
66793W        W28159  43.978   4.841   0.947
66794W        W28160   0.312   2.739   2.722
66795W        W28161   3.379  22.585  14.417
66796W        W28162  33.539  37.887  14.760
66797W        W28163   2.875  38.443   3.645
66798W        W28164  40.034  24.563   4.215
66799W        W28165  12.313  13.279   4.334
66800W        W28166  11.830  23.004   3.334
66801W        W28167  36.075  21.713  10.638
66802W        W28168  21.027  28.174   0.850
66803W        W28169  13.272  24.187   4.740
66804W        W28170  13.247  33.094  13.063
66805W        W28171  10.321   0.919   2.409
66806W        W28172  40.908  38.353  13.913
66807W        W28173  34.870  21.147  10.507
66808W        W28174   1.446  40.939  12.903
66809W        W28175  13.125  14.665  14.383
66810W        W28176  15.103  26.684  10.573
66811W        W28177  23.148  23.627   4.658
66812W        W28178  20.115  28.522   3.656
66813W        W28179  27.524   2.785   0.853
66814W        W28180  32.962   0.434   0.336
66815W        W28181  24.152  43.005   1.214
66816W        W28182  41.835  33.001  12.414
66817W        W28183  37.024  36.034   0.333
66818W        W28184   8.711  26.470  12.876
66819W        W28185  35.086  12.853   2.900
66820W        W28186  14.720   9.670   0.901
66821W        W28187  37.055   3.872  12.526
66822W        W28188  41.459  12.274  13.019
66823W        W28189   4.303  21.157   1.418
66824W        W28190  30.428  43.276   2.758
66825W        W28191  21.611   1.943  10.929
66826W        W28192  39.406  19.607   2.326
66827W        W28193  39.438  26.500  10.466
66828W        W28194   3.328  40.362  13.391
66829W        W28195  10.642  16.167  10.507
66830W        W28196  13.631  29.976   5.104
66831W        W28197  19.650  16.812  11.967
66832W        W28198   2.392   7.689  13.922
66833W        W28199   6.772   2.236   2.314
66834W        W28200  42.941  21.216   1.906
66835W        W28201  31.902  20.557   3.843
66836W        W28202   8.829  20.736   2.876
66837W        W28203  25.684  13.674  14.830
66838W        W28204  37.890  22.181   0.289
66839W        W28205  26.958  29.638   0.354
66840W        W28206  38.350   3.942   1.865
66841W        W28207  42.375  35.079   3.217
66842W        W28208  18.588  16.242  10.538
66843W        W28209  19.274  22.546   1.926
66844W        W28210  42.309   9.814   2.366
66845W        W28211  11.771   2.784  10.524
66846W        W28212  44.455  19.198   0.346
66847W        W28213  12.794  15.107   2.395
66848W        W28214  23.590  16.103   0.729
66849W        W28215   7.397  16.123  12.366
66850W        W28216  38.893  20.536   9.964
66851W        W28217  41.423  29.604   0.311
66852W        W28218  26.531  11.142  13.025
66853W        W28219  14.139  31.496  11.496
66854W        W28220  43.428  26.606  14.022
66855W        W28221  14.718  44.003  14.405
66856W        W28222  15.760  25.472  14.968
66857W        W28223  44.318   8.215  13.375
66858W        W28224   1.481  20.170   0.290
66859W        W28225  17.610  41.503  11.506
66860W        W28226  17.191  27.631  11.997
66861W        W28227  33.452  40.441  14.849
66862W        W28228  35.066  41.996  11.464
66863W        W28229  10.328  40.385   4.169
66864W        W28230  22.559  41.311  10.548
66865W        W28231   8.372   5.234   1.344
66866W        W28232  11.789  25.092   4.135
66867W        W28233  30.582   4.304  13.504
66868W        W28234   0.492  21.528  11.900
66869W        W28235   8.840  14.814  10.986
66870W        W28236   2.260   7.397  12.877
66871W        W28237  41.961  31.032  13.859
66872W        W28238   7.201  21.632  13.351
66873W        W28239   1.359  21.126   3.825
66874W        W28240   7.225  12.762  14.984
66875W        W28241  20.530  34.401  13.999
66876W        W28242  26.491   4.205  14.360
66877W        W28243  27.513  16.229  12.964
66878W        W28244  38.504  32.121  11.473
66879W        W28245  22.199  40.327   2.416
66880W        W28246  32.611  26.119   0.868
66881W        W28247  39.511  27.680   4.342
66882W        W28248  19.725   3.769  12.872
66883W        W28249  26.094  23.198   3.786
66884W        W28250  24.111  16.601   2.901
66885W        W28251   7.217  27.154   4.598
66886W        W28252  19.282  15.800   3.869
66887W        W28253   3.735  19.072  14.030
66888W        W28254  17.592  27.180   1.714
66889W        W28255  11.809   4.891   4.215
66890W        W28256   7.378  18.244  13.849
66891W        W28257  38.445  38.485  10.425
66892W        W28258  35.475  38.472   0.399
66893W        W28259  20.156   9.713  10.888
66894W        W28260  24.517  12.151   4.141
66895W        W28261  35.449  38.534  12.830
66896W        W28262  42.007  42.820   2.203
66897W        W28263  11.282  20.752   4.353
66898W        W28264   0.931  22.598  14.335
66899W        W28265   4.931   5.228  11.454
66900W        W28266  16.076   1.911  13.384
66901W        W28267  33.915  37.010  12.051
66902W        W28268   0.438  30.612  13.935
66903W        W28269   2.924   9.718  14.279
66904W        W28270  39.384   7.729   2.318
66905W        W28271   1.402  31.569  12.516
66906W        W28272   2.339  20.696   0.472
66907W        W28273  15.150   2.883   1.912
66908W        W28274  27.080  25.475   3.380
66909W        W28275  17.742   2.367   2.379
66910W        W28276  23.530  27.508   9.486
66911W        W28277  32.918  21.038   5.305
66912W        W28278  40.337  13.764  12.004
66913W        W28279  38.055  40.456  14.506
66914W        W28280   1.259  21.070  13.413
66915W        W28281  16.790  22.674   2.327
66916W        W28282  14.718  32.592  12.909
66917W        W28283  22.580  30.066  12.515
66918W        W28284  27.081  12.670   4.645
66919W        W28285  32.893  22.175   0.798
66920W        W28286  33.486  22.102   1.917
66921W        W28287  34.030   3.923  13.926
66922W        W28288  40.436  27.972   0.883
66923W        W28289  14.834  29.974  11.867
66924W        W28290   4.829  18.674   2.812
66925W        W28291   9.823  30.020  14.288
66926W        W28292  19.633  31.962  11.418
66927W        W28293  34.889   4.727   1.431
66928W        W28294  25.468  10.645  10.604
66929W        W28295  18.236  36.967  10.539
66930W        W28296  31.438  11.793   1.358
66931W        W28297  11.283   4.793  11.451
66932W        W28298  23.053  43.912  14.944
66933W        W28299  10.360  22.635  14.031
66934W        W28300  11.351  11.193  14.813
66935W        W28301  30.152   8.284   4.791
66936W        W28302  38.369  32.558  11.563
66937W        W28303  39.483  18.057   2.404
66938W        W28304  32.926  31.501   0.291
66939W        W28305  18.064  20.741  13.447
66940W        W28306  21.580  19.243   3.216
66941W        W28307  13.744  24.216  13.965
66942W        W28308   7.720  42.881  14.396
66943W        W28309  39.534   5.194   3.251
66944W        W28310   1.391  23.660   0.937
66945W        W28311  25.642  35.910  13.063
66946W        W28312  40.539  30.639  12.085
66947W        W28313  22.648  12.337  11.564
66948W        W28314  32.524  23.684  10.532
66949W        W28315  22.141  34.415   0.751
66950W        W28316  19.726  21.617  13.802
66951W        W28317  31.995  35.967  12.379
66952W        W28318  43.019  44.366   5.133
66953W        W28319  40.446  35.933   9.936
66954W        W28320   4.841  27.088  13.964
66955W        W28321  42.912  18.706  10.406
66956W        W28322  25.213  23.586   1.417
66957W        W28323  13.126   7.815   4.804
66958W        W28324   7.892  37.374   0.273
66959W        W28325   4.276  34.555  14.375
66960W        W28326  38.058  32.483   4.230
66961W        W28327   6.693  18.656  11.095
66962W        W28328  24.019  10.748  10.504
66963W        W28329  30.147  28.568   3.349
66964W        W28330  26.034  20.759   0.305
66965W        W28331   1.967  38.890  12.468
66966W        W28332   9.717   8.199  14.018
66967W        W28333  34.521  10.168   0.924
66968W        W28334  18.751   8.812   2.735
66969W        W28335  15.251  25.023  12.404
66970W        W28336  11.159   3.395   1.245
66971W        W28337  13.748  39.989  14.018
66972W        W28338   7.873  32.406  13.916
66973W        W28339  10.647  31.042   0.374
66974W        W28340  27.541   5.427   2.684
66975W        W28341  16.807  20.103   2.672
66976W        W28342  42.286  29.613   2.219
66977W        W28343  37.502   3.329   4.208
66978W        W28344  25.067  14.685   1.315
66979W        W28345  32.122  33.486   3.662
66980W        W28346   7.214  17.559   2.775
66981W        W28347  34.382  23.011  13.057
66982W        W28348  26.062  21.055  11.527
66983W        W28349  31.019   7.192  11.384
66984W        W28350  42.464  15.743  12.478
66985W        W28351  24.673   2.838  13.798
66986W        W28352  33.877  22.674   4.780
66987W        W28353  21.564   9.839  11.506
66988W        W28354   7.853  13.686  12.364
66989W        W28355  39.416  33.994  13.446
66990W        W28356   3.885  26.953   1.412
66991W        W28357   9.231  37.581  14.000
66992W        W28358  13.235  38.974  10.110
66993W        W28359  28.162  27.973  10.931
66994W        W28360  14.303  18.156   1.371
66995W        W28361  22.252  26.054   1.375
66996W        W28362   7.282   2.758  13.060
66997W        W28363  18.659  35.990  12.444
66998W        W28364  24.070   7.819   3.352
66999W        W28365  18.223  35.091   2.226
67000W        W28366   2.452  25.571   0.873
67001W        W28367  29.586   4.756   5.254
67002W        W28368   2.387  42.936  11.583
67003W        W28369  36.002  41.399  10.425
67004W        W28370   1.280  42.893  12.843
67005W        W28371  28.140  20.711  14.773
67006W        W28372  22.189  33.006   2.188
67007W        W28373  28.954  39.007  14.857
67008W        W28374  16.079  29.081   1.360
67009W        W28375  16.148  40.908   4.171
67010W        W28376  16.299  12.690   9.975
67011W        W28377  29.521   2.351  14.360
67012W        W28378  13.794  14.658  14.423
67013W        W28379  32.047  35.865   3.177
67014W        W28380  38.392  25.049   1.809
67015W        W28381  22.722   5.209   1.833
67016W        W28382   2.462  33.917   1.906
67017W        W28383   7.330  35.082  14.365
67018W        W28384  14.655  28.654   0.441
67019W        W28385  40.426  23.526  11.579
67020W        W28386  16.121   0.827   4.250
67021W        W28387   4.736  11.188  11.418
67022W        W28388  29.550  35.467  14.392
67023W        W28389  14.813   7.845  11.537
67024W        W28390   4.886  25.045   4.211
67025W        W28391  33.395  42.911  11.992
67026W        W28392   2.358  28.484  14.030
67027W        W28393   2.733  39.474   1.886
67028W        W28394  31.622  18.285   4.127
67029W        W28395  30.437  23.162   1.775
67030W        W28396   6.724  27.963  14.991
67031W        W28397  30.959  43.402  12.825
67032W        W28398   3.788  29.979   3.697
67033W        W28399  33.095  21.238  11.600
67034W        W28400  19.775   7.262   0.327
67035W        W28401   0.883  14.649   2.299
67036W        W28402   4.358  37.893  13.989
67037W        W28403  21.065  43.780  11.404
67038W        W28404  35.502  20.222  12.540
67039W        W28405  22.709  35.001  14.982
67040W        W28406  30.918  13.107   0.955
67041W        W28407  14.326  34.429  12.920
67042W        W28408   7.714  35.541   0.800
67043W        W28409  34.411  32.078   4.803
67044W        W28410  13.750  10.864   3.749
67045W        W28411   9.244  12.708   0.739
67046W        W28412  37.354  17.788  11.891
67047W        W28413  11.684  20.644  10.954
67048W        W28414   9.790  44.397   4.665
67049W        W28415  38.399  41.034  13.515
67050W        W28416   9.733  24.141  13.847
67051W        W28417  30.425   6.807   2.822
67052W        W28418  23.066  22.663   1.409
67053W        W28419  39.487  22.137  11.403
67054W        W28420  36.890   6.818   2.344
67055W        W28421  11.143  27.060   2.727
67056W        W28422  43.432   7.726   3.245
67057W        W28423  35.883  28.496   4.816
67058W        W28424  27.972   6.365  12.380
67059W        W28425   8.247  36.870   0.939
67060W        W28426  27.073  44.402   1.245
67061W        W28427  15.641  27.190  12.913
67062W        W28428  40.502  14.244  14.942
67063W        W28429  18.714  15.821   2.838
67064W        W28430  34.556   5.862   1.434
67065W        W28431  24.092  24.073   3.360
67066W        W28432  44.356   6.231   4.805
67067W        W28433  28.633  21.097   1.293
67068W        W28434  38.960  38.989  10.603
67069W        W28435  37.894   5.820   4.672
67070W        W28436  23.601  23.592   3.767
67071W        W28437  28.163   5.792   1.896
67072W        W28438   3.403  42.526   4.801
67073W        W28439   1.949  21.592  12.469
67074W        W28440   9.156  17.672  10.939
67075W        W28441  23.985   8.397  14.780
67076W        W28442   4.388  38.047  11.038
67077W        W28443  26.525  33.990  11.971
67078W        W28444  23.600  10.249  13.541
67079W        W28445   6.346  34.913  10.914
67080W        W28446   8.361  19.616   3.370
67081W        W28447   9.842  37.948   3.869
67082W        W28448  23.016   6.699   1.706
67083W        W28449  42.366  18.638   4.165
67084W        W28450  18.172   1.869   2.184
67085W        W28451  15.126  20.226  12.912
67086W        W28452  27.500  11.821  11.462
67087W        W28453  33.454  31.481   1.721
67088W        W28454   7.325  20.192  12.409
67089W        W28455  18.165  41.423  13.956
67090W        W28456  36.909  32.469   4.795
67091W        W28457  42.525   9.689  12.549
67092W        W28458  40.362  21.716   4.261
67093W        W28459   3.764  32.580  12.556
67094W        W28460  20.683  22.025   0.749
67095W        W28461  44.369  15.602   0.311
67096W        W28462  10.359  13.726   1.790
67097W        W28463   3.307  18.274   1.917
67098W        W28464  31.538  13.652   3.765
67099W        W28465  44.822   2.391  13.481
67100W        W28466   5.424  38.945   2.178
67101W        W28467   7.705  17.604  11.036
67102W        W28468  31.987   4.894  11.009
67103W        W28469  12.279  11.317   3.707
67104W        W28470   2.832  36.443  14.952
67105W        W28471  29.974  24.019  14.986
67106W        W28472   8.346   4.825   1.395
67107W        W28473  11.857  26.512   0.853
67108W        W28474  30.563  37.490  11.915
67109W        W28475  35.959  41.334  11.540
67110W        W28476   3.446  10.156   2.762
67111W        W28477  41.968  29.955  14.294
67112W        W28478  27.158  41.496  10.989
67113W        W28479   5.437  39.904  11.465
67114W        W28480   1.818  24.685   0.325
67115W        W28481  43.431   3.307  13.828
67116W        W28482  26.983   7.773  14.981
67117W        W28483   3.892  16.759   4.184
67118W        W28484   4.843  14.113   3.734
67119W        W28485   0.484  36.503   4.226
67120W        W28486  40.034   4.786  11.125
67121W        W28487   7.340   4.347  11.401
67122W        W28488  33.958   3.736  10.574
67123W        W28489   0.390  25.076   1.783
67124W        W28490  33.110   8.737   1.924
67125W        W28491  40.999  43.322   1.827
67126W        W28492  11.282   6.687  12.090
67127W        W28493  13.602   6.252  11.074
67128W        W28494   7.711  36.035   3.850
67129W        W28495  17.572  23.570  13.440
67130W        W28496  17.124  41.019  10.560
67131W        W28497  26.160  25.508  12.040
67132W        W28498   6.701  16.195   2.847
67133W        W28499  26.522   8.874   1.425
67134W        W28500  16.134  31.005   2.676
67135W        W28501  13.249  35.482  11.555
67136W        W28502  23.684  44.427  14.421
67137W        W28503  26.501  41.824   3.648
67138W        W28504   7.903  15.698   3.309
67139W        W28505  19.267  33.992  11.092
67140W        W28506  28.042  35.465  13.836
67141W        W28507  40.543  29.170  10.959
67142W        W28508  36.369  41.317   0.330
67143W        W28509  25.668  19.221  13.421
67144W        W28510  33.059   6.771   1.438
67145W        W28511  15.216   1.738  12.873
67146W        W28512  43.905  21.248  12.007
67147W        W28513  29.958  22.726  12.942
67148W        W28514  14.297  41.390  10.644
67149W        W28515  44.821  14.165   1.364
67150W        W28516  24.137   4.906  11.119
67151W        W28517  14.195   8.850   3.760
67152W        W28518  14.278  42.877   0.905
67153W        W28519  38.472  11.303   4.143
67154W        W28520  44.332  14.741   3.278
67155W        W28521  14.708   5.767  14.503
67156W        W28522  13.235  43.003  12.929
67157W        W28523  19.255  20.751  12.868
67158W        W28524  19.200  36.426  10.567
67159W        W28525  23.200  43.314   1.366
67160W        W28526  19.618  29.046  14.300
67161W        W28527  40.804  13.634   2.300
67162W        W28528  24.524  36.502  11.962
67163W        W28529  14.634  40.318   2.785
67164W        W28530  13.703  17.567   1.250
67165W        W28531   5.208  43.349   0.767
67166W        W28532  31.517   9.742  11.886
67167W        W28533  32.986   6.394   3.779
67168W        W28534  44.959   5.863   1.821
67169W        W28535  22.529  35.571   5.248
67170W        W28536   5.430  12.696  12.368
67171W        W28537  42.944  30.916  12.842
67172W        W28538   9.284   1.924  13.001
67173W        W28539   7.244  33.928  12.444
67174W        W28540  19.555  44.414   1.450
67175W        W28541  30.932  32.483  12.929
67176W        W28542  36.390  37.431  12.893
67177W        W28543  11.739  26.132   3.768
67178W        W28544  23.551   7.738   1.903
67179W        W28545   7.407   5.841   0.844
67180W        W28546  20.643  14.810  13.868
67181W        W28547  32.971   4.836  14.820
67182W        W28548  43.946  39.555   0.299
67183W        W28549  41.381  20.543   0.849
67184W        W28550  18.117  31.087  10.599
67185W        W28551   8.324  29.573   2.768
67186W        W28552   8.859  11.838  12.859
67187W        W28553   0.849  38.840   3.646
67188W        W28554  38.883  30.982  12.399
67189W        W28555  40.521  36.388  11.960
67190W        W28556  30.053   7.704  11.899
67191W        W28557   2.752  35.972  12.427
67192W        W28558  43.473   7.316   2.353
67193W        W28559  23.716  21.114   4.803
67194W        W28560  15.676  44.864  10.935
67195W        W28561  16.128  36.989  13.524
67196W        W28562  31.436  17.138   0.478
67197W        W28563  10.769   4.223  12.837
67198W        W28564  38.435   8.733   2.405
67199W        W28565  29.953  13.155  13.314
67200W        W28566   0.349   5.750   1.440
67201W        W28567  25.122  20.625   0.799
67202W        W28568  18.710  36.546   9.920
67203W        W28569  44.770   9.174   2.797
67204W        W28570  16.137  31.557   5.181
67205W        W28571  40.541  15.795   2.284
67206W        W28572  30.997  25.647   4.299
67207W        W28573  30.023  20.172  11.989
67208W        W28574  19.053  37.926   4.808
67209W        W28575  41.898  44.978  13.870
67210W        W28576  30.055  17.118   0.251
67211W        W28577  30.584  28.480  12.563
67212W        W28578   3.875  42.428  12.961
67213W        W28579  11.817  19.249  13.438
67214W        W28580  18.574  32.041   4.250
67215W        W28581  39.055   1.250   2.861
67216W        W28582  10.216  12.220  11.385
67217W        W28583  18.662  36.468   2.218
67218W        W28584  25.199  14.654   1.933
67219W        W28585  27.654  22.133   4.282
67220W        W28586  11.245  17.731  13.484
67221W        W28587  12.162  29.020   1.753
67222W        W28588  30.126  17.612  14.462
67223W        W28589  36.860  39.931  14.425
67224W        W28590   6.769  41.035   4.780
67225W        W28591  21.220  13.225   4.631
67226W        W28592  21.252  30.085  12.826
67227W        W28593  10.223  19.230   3.736
67228W        W28594  27.638  28.135  12.847
67229W        W28595   3.865  44.353  13.893
67230W        W28596  17.233  42.836   5.092
67231W        W28597   9.329  22.716   3.150
67232W        W28598   4.793  39.940  13.515
67233W        W28599  36.464  17.591   3.706
67234W        W28600  40.981  42.364   1.280
67235W        W28601  18.703  26.580   3.747
67236W        W28602  14.797  16.610  14.319
67237W        W28603  13.129  13.232  14.393
67238W        W28604   2.721  38.855  13.060
67239W        W28605  29.978  35.903   4.655
67240W        W28606  15.087   4.306   3.305
67241W        W28607   4.826  43.902  10.088
67242W        W28608  42.803  30.475  11.579
67243W        W28609  38.974  34.013  14.999
67244W        W28610  39.411  26.973   3.374
67245W        W28611  43.778   2.735   2.272
67246W        W28612   5.726  22.014   2.761
67247W        W28613   3.449  10.655  14.009
67248W        W28614  16.098   5.430   0.434
67249W        W28615   2.741  44.408   0.412
67250W        W28616   7.719  37.477  11.895
67251W        W28617  24.036  22.695  11.970
67252W        W28618  26.612  10.661  14.921
67253W        W28619   6.306  39.836   0.856
67254W        W28620  27.637  30.561  12.577
67255W        W28621  14.210  29.975   1.291
67256W        W28622   8.750   3.456  10.968
67257W        W28623  33.539  29.505   3.160
67258W        W28624  29.038  21.558  12.347
67259W        W28625  17.600   5.900   4.191
67260W        W28626   0.388  33.886  10.619
67261W        W28627  25.123  22.745   2.246
67262W        W28628  28.042  40.954  11.018
67263W        W28629  35.025  41.407   1.787
67264W        W28630  24.012  10.335   4.297
67265W        W28631   9.343  10.328  12.082
67266W        W28632  14.705  34.985   5.142
67267W        W28633   9.239  25.022   2.671
67268W        W28634  18.147  37.876  12.508
67269W        W28635  38.824   7.756  12.067
67270W        W28636  34.462   0.426   1.409
67271W        W28637  12.129  12.644  10.970
67272W        W28638  20.266  26.017  12.992
67273W        W28639  34.088   9.354   4.812
67274W        W28640   4.388  30.596   0.959
67275W        W28641  14.657   0.943   2.274
67276W        W28642   1.817  19.197  12.439
67277W        W28643  20.268   3.259   3.362
67278W        W28644  10.827  17.561   4.792
67279W        W28645   3.803  22.215   3.774
67280W        W28646  30.495   3.847   1.874
67281W        W28647  17.299  19.057   3.210
67282W        W28648   0.923  29.081  12.082
67283W        W28649   3.376  10.857  14.494
67284W        W28650   0.493  34.401   4.177
67285W        W28651  39.870  28.143   0.415
67286W        W28652   6.719  44.402   1.748
67287W        W28653  35.055  14.110  11.494
67288W        W28654  43.812  12.334   2.224
67289W        W28655  44.505  39.958  14.465
67290W        W28656   4.389  19.200  11.901
67291W        W28657  10.763  10.242  10.425
67292W        W28658  31.432  30.969   3.290
67293W        W28659  34.533  38.020  11.551
67294W        W28660  19.141  18.199   2.398
67295W        W28661   6.327  44.939   3.350
67296W        W28662  44.259  44.874  14.962
67297W        W28663   0.887  15.329  10.531
67298W        W28664  44.448  26.565   9.925
67299W        W28665  44.377   5.724   3.644
67300W        W28666  14.166  32.534   2.328
67301W        W28667  34.905  44.388  14.459
67302W        W28668   4.355  39.938  14.883
67303W        W28669  20.630   0.320   1.873
67304W        W28670  12.128  37.899  13.818
67305W        W28671  16.756  30.624  12.340
67306W        W28672   4.337   9.214   3.640
67307W        W28673  32.091  28.941  13.963
67308W        W28674  30.963  12.714   0.338
67309W        W28675  10.249  14.105   9.982
67310W        W28676  25.505  40.329  14.470
67311W        W28677  18.574  15.799   3.709
67312W        W28678  12.230  24.215   0.331
67313W        W28679  29.006   4.205  12.012
67314W        W28680   4.869   1.342   0.928
67315W        W28681  29.163  37.404  11.482
67316W        W28682   9.287  42.414  10.590
67317W        W28683  40.434   3.370   4.821
67318W        W28684  39.921  18.186  12.924
67319W        W28685   6.754   2.848  11.561
67320W        W28686   0.320  43.020  12.996
67321W        W28687   7.850  35.479  13.441
67322W        W28688  28.508   4.414  12.054
67323W        W28689   4.923   7.834   4.160
67324W        W28690   0.770   6.191   3.753
67325W        W28691  21.512  36.090  13.368
67326W        W28692  42.932  35.491   0.746
67327W        W28693  41.861  40.855   2.244
67328W        W28694   5.435  10.837   1.434
67329W        W28695  24.086  22.204   0.405
67330W        W28696  31.920  12.783   2.321
67331W        W28697  10.736  44.865   2.358
67332W        W28698  30.600   6.836  14.447
67333W        W28699  12.168  16.256   5.293
67334W        W28700   4.259   6.705   1.891
67335W        W28701  27.557  15.669   3.178
67336W        W28702  15.644   3.341   0.393
67337W        W28703  12.648  16.567  11.948
67338W        W28704   3.805  40.976  13.975
67339W        W28705  31.594  40.517  12.494
67340W        W28706  30.087   9.314  12.477
67341W        W28707  33.389   0.413   9.947
67342W        W28708   9.708   0.926   2.179
67343W        W28709  30.115  34.596   0.744
67344W        W28710  32.573  28.513   4.125
67345W        W28711  44.497  18.068  11.379
67346W        W28712   7.717  37.442  10.572
67347W        W28713   4.923  44.477   1.856
67348W        W28714  40.531  33.000   4.134
67349W        W28715   1.890  11.648  12.410
67350W        W28716  17.242  29.651   0.419
67351W        W28717  44.477  31.422  12.887
67352W        W28718  38.983  29.095   3.697
67353W        W28719  22.059  39.548  12.526
67354W        W28720  33.929  23.163  14.013
67355W        W28721   2.729  33.398   1.879
67356W        W28722  43.473   7.184   4.741
67357W        W28723  32.534  32.390  12.955
67358W        W28724   2.321  26.604  10.437
67359W        W28725   6.374  32.018   4.344
67360W        W28726  35.538  11.335  11.026
67361W        W28727  13.749  12.795   3.649
67362W        W28728  19.225   2.735   2.759
67363W        W28729  30.979   1.361  10.902
67364W        W28730  44.486  20.532  14.817
67365W        W28731  42.368  32.122  11.021
67366W        W28732  36.865  28.103  11.038
67367W        W28733  36.357  33.061   0.463
67368W        W28734  38.530  26.525  12.056
67369W        W28735  25.178  42.920   0.757
67370W        W28736  21.671  26.491   0.744
67371W        W28737  27.552   4.374  11.526
67372W        W28738  17.681  19.248   1.242
67373W        W28739  40.518  43.448   4.152
67374W        W28740   4.371  15.697  13.440
67375W        W28741  29.139   2.927  11.379
67376W        W28742  38.540  32.897  10.573
67377W        W28743  19.669  33.390   4.299
67378W        W28744   4.912  11.317  12.414
67379W        W28745  41.036   8.888  13.046
67380W        W28746  20.265  12.135   0.361
67381W        W28747  38.428  26.463  12.849
67382W        W28748   4.938   1.918   1.434
67383W        W28749  10.878  21.705   3.728
67384W        W28750   7.665  40.534   0.881
67385W        W28751  26.180  35.391  11.031
67386W        W28752  17.237  26.109  13.504
67387W        W28753  25.567  16.760   3.799
67388W        W28754  32.507  26.653   3.682
67389W        W28755  10.781  10.878  10.597
67390W        W28756  27.452   0.862  12.494
67391W        W28757  38.961   6.899   1.741
67392W        W28758  30.081   3.440  14.812
67393W        W28759   2.268  24.188   2.767
67394W        W28760  12.311  26.579   0.892
67395W        W28761  22.713  42.460   0.252
67396W        W28762  26.578  40.823  12.935
67397W        W28763  35.919  27.066  11.057
67398W        W28764  33.525  21.133  12.094
67399W        W28765  16.307  12.670  12.920
67400W        W28766   8.803  16.632  14.305
67401W        W28767  26.125  25.607  13.373
67402W        W28768  43.934  39.830   4.651
67403W        W28769  12.693  18.675  14.418
67404W        W28770  18.290   4.850   2.846
67405W        W28771   8.765  25.197  12.861
67406W        W28772  25.596  21.525  10.469
67407W        W28773  19.052   2.778   0.893
67408W        W28774   0.899  37.913  14.287
67409W        W28775  38.354   7.218  13.984
67410W        W28776  30.510   1.797   3.767
67411W        W28777  32.102   1.473  12.463
67412W        W28778  28.538  25.149  14.506
67413W        W28779  13.831   9.230  13.968
67414W        W28780   4.780  18.234   1.893
67415W        W28781  13.839  43.011   0.777
67416W        W28782  42.917  39.842   0.465
67417W        W28783  39.427  39.886   0.483
67418W        W28784   7.688  25.617   0.294
67419W        W28785  18.652  22.556  10.517
67420W        W28786  40.812   3.323  11.025
67421W        W28787  25.515   2.405  12.567
67422W        W28788  25.002  21.148  12.342
67423W        W28789  20.237  31.594  13.403
67424W        W28790  28.090  15.117   4.809
67425W        W28791  34.483   4.400   4.697
67426W        W28792   0.363  34.497  13.419
67427W        W28793  20.043   9.307   4.646
67428W        W28794  22.153  13.267   2.892
67429W        W28795  37.937  12.784  14.841
67430W        W28796  32.943  30.139   4.611
67431W        W28797  36.058  22.731  13.856
67432W        W28798  18.210   6.204   1.739
67433W        W28799   9.813  20.685  11.123
67434W        W28800  16.318   3.724   2.185
67435W        W28801  27.585  12.715   2.408
67436W        W28802  11.702  12.798  11.468
67437W        W28803  19.162  38.880   4.317
67438W        W28804   0.831  21.605  13.391
67439W        W28805  33.566   0.304  13.030
67440W        W28806  31.989  34.472  11.601
67441W        W28807  10.684  15.760  12.964
67442W        W28808   8.859  11.662   2.696
67443W        W28809  44.368  22.237  11.955
67444W        W28810  43.988  23.540   1.870
67445W        W28811  38.833  39.315  11.897
67446W        W28812  18.580  30.614   4.606
67447W        W28813  39.955   3.939   2.344
67448W        W28814  33.069  22.673  11.116
67449W        W28815  24.483   9.287   4.748
67450W        W28816  40.538  28.141  12.529
67451W        W28817   8.230   3.217   4.323
67452W        W28818   9.833  19.251   4.159
67453W        W28819  25.699  37.419  14.296
67454W        W28820  30.051  31.477  12.384
67455W        W28821  41.828  32.395  13.534
67456W        W28822  36.013  43.385  11.562
67457W        W28823  19.245  27.582  11.504
67458W        W28824  15.801  35.002   4.325
67459W        W28825  29.461  29.144  14.307
67460W        W28826  33.403  31.149   1.259
67461W        W28827  31.543   2.260   0.753
67462W        W28828  29.451  27.133  11.058
67463W        W28829  30.954  12.245   0.765
67464W        W28830  44.903   7.877   0.967
67465W        W28831   5.405  41.421  11.079
67466W        W28832   1.371   9.885  11.595
67467W        W28833  19.748  23.218  14.314
67468W        W28834  39.923  17.193   0.921
67469W        W28835  39.359   6.303  11.947
67470W        W28836  39.058  33.498   2.768
67471W        W28837  41.485  41.343   4.651
67472W        W28838   2.452  39.358  13.861
67473W        W28839  42.794  32.475   2.675
67474W        W28840   4.226  28.139   2.790
67475W        W28841  21.058  21.136  13.953
67476W        W28842  18.708  17.647   3.808
67477W        W28843  29.469  24.706   2.232
67478W        W28844   3.270  23.527   0.360
67479W        W28845  14.139  20.040   3.212
67480W        W28846  41.439   0.326  13.531
67481W        W28847  42.502  19.758  14.867
67482W        W28848  27.501  39.012   0.372
67483W        W28849  15.321  32.911  13.900
67484W        W28850  34.935  29.096  12.563
67485W        W28851   1.476  18.284  13.468
67486W        W28852  44.859  44.944  12.870
67487W        W28853   1.370  15.153  11.456
67488W        W28854   7.693  30.024  11.566
67489W        W28855  12.663  29.589   0.464
67490W        W28856  43.408  38.472   3.779
67491W        W28857  19.260  44.890  14.396
67492W        W28858  12.852  38.968   3.710
67493W        W28859  13.789   6.342  10.568
67494W        W28860  24.717  18.616   0.390
67495W        W28861  10.650  20.641  13.995
67496W        W28862  18.131   3.763   2.738
67497W        W28863  31.934  11.807   1.372
67498W        W28864  12.287  39.506  14.997
67499W        W28865  39.026  38.013   2.250
67500W        W28866  13.225   8.771   1.236
67501W        W28867  44.832  15.650   4.802
67502W        W28868  15.128  44.304  12.873
67503W        W28869  33.038  28.543   1.387
67504W        W28870  13.762  21.627  11.916
67505W        W28871  25.207   4.906  14.374
67506W        W28872  29.040  29.967  13.340
67507W        W28873  43.894  14.795  13.485
67508W        W28874   0.430   7.268   0.769
67509W        W28875   1.292  14.734   0.285
67510W        W28876  31.581  38.426   2.715
67511W        W28877   7.206  27.982   0.900
67512W        W28878  32.987   9.710  10.526
67513W        W28879  16.134  10.276  14.389
67514W        W28880  35.928  40.797   1.421
67515W        W28881  18.758  43.837   0.737
67516W        W28882   2.368  43.005   5.133
67517W        W28883  28.606   7.780  13.334
67518W        W28884  20.642  18.677   0.799
67519W        W28885  43.375  11.275   4.795
67520W        W28886  28.657  18.105  11.538
67521W        W28887   1.826   4.712   3.380
67522W        W28888  43.332  28.093  13.392
67523W        W28889  15.755  19.717   2.685
67524W        W28890  25.664   7.793  13.362
67525W        W28891  11.763   4.887   3.157
67526W        W28892  21.652  16.242   4.325
67527W        W28893  32.125  12.857  11.877
67528W        W28894  30.991  31.051  12.009
67529W        W28895  26.198   6.243  14.871
67530W        W28896   7.354  34.972   4.160
67531W        W28897  27.136  10.698   3.640
67532W        W28898  27.623  27.501  13.478
67533W        W28899  43.892  41.987  13.855
67534W        W28900  28.440  12.822  13.502
67535W        W28901  24.570  41.431   1.708
67536W        W28902  27.640  33.917  13.928
67537W        W28903   2.397  11.632  12.343
67538W        W28904  31.050  12.320   3.746
67539W        W28905  22.659  44.977   1.407
67540W        W28906  43.444  17.185   1.721
67541W        W28907  40.419  24.208  14.460
67542W        W28908  29.634  26.988   0.845
67543W        W28909  25.117  18.775   3.858
67544W        W28910  42.825  23.568   1.363
67545W        W28911  44.989  39.830   4.302
67546W        W28912  13.293  44.928  13.958
67547W        W28913  40.007  25.568   3.778
67548W        W28914  23.710  32.426   0.926
67549W        W28915  19.534  40.938   2.212
67550W        W28916   8.696  25.193   0.747
67551W        W28917   0.421   5.400   1.850
67552W        W28918  15.803   2.745  11.535
67553W        W28919   5.230  22.600  12.015
67554W        W28920  40.040  16.234  14.830
67555W        W28921  36.884  32.924   4.178
67556W        W28922  32.946  29.963   3.797
67557W        W28923  21.244  18.735  12.017
67558W        W28924  42.975  21.227   4.119
67559W        W28925  43.459  34.407  14.848
67560W        W28926   3.291  29.131   3.246
67561W        W28927   4.375  42.840   0.469
67562W        W28928   3.330  27.006  13.434
67563W        W28929   3.720   0.833  12.013
67564W        W28930  44.771  22.052   2.414
67565W        W28931  26.963  26.060   4.760
67566W        W28932  10.157  29.091   3.686
67567W        W28933   9.242  20.057   0.766
67568W        W28934   6.389  35.408  13.003
67569W        W28935   1.742  32.553   4.713
67570W        W28936  22.018  44.966   1.383
67571W        W28937  32.501  11.309   3.649
67572W        W28938  40.837  23.118  12.832
67573W        W28939  13.820   5.923   2.871
67574W        W28940   0.849  14.791  10.425
67575W        W28941  25.186   7.879   1.911
67576W        W28942  41.920  35.030   3.788
67577W        W28943  34.564  35.045   4.779
67578W        W28944   4.847  26.585   3.344
67579W        W28945   4.324  25.204  12.395
67580W        W28946  22.183  17.109   1.854
67581W        W28947  17.105   7.765   3.706
67582W        W28948   7.786   6.242   4.292
67583W        W28949  16.182   1.756   2.799
67584W        W28950  35.574  29.646   4.268
67585W        W28951  12.762  30.980   3.741
67586W        W28952  16.767  26.049  12.477
67587W        W28953  41.398  29.982   2.326
67588W        W28954  35.880  35.921   0.462
67589W        W28955  26.038  26.500   3.226
67590W        W28956  17.556  25.058  10.953
67591W        W28957  43.785  26.056  14.012
67592W        W28958  16.177  36.941  11.982
67593W        W28959   9.266   0.781  12.576
67594W        W28960  19.680   2.960  11.919
67595W        W28961  22.505  26.051  12.930
67596W        W28962  29.078  43.873  14.759
67597W        W28963  14.743  29.623   3.803
67598W        W28964  41.432  44.501   2.694
67599W        W28965  44.939   8.238   0.303
67600W        W28966  42.302   3.844  13.952
67601W        W28967  13.315  18.676  14.781
67602W        W28968  36.888   3.319   3.693
67603W        W28969   4.362  15.123   3.826
67604W        W28970  40.395  32.410  14.356
67605W        W28971  16.640   1.907  13.363
67606W        W28972  27.992  36.069  13.028
67607W        W28973  38.406  11.758  14.344
67608W        W28974   8.812   7.218   3.812
67609W        W28975   8.180  33.495  13.864
67610W        W28976  29.992  43.330   2.795
67611W        W28977  18.165  37.392  10.992
67612W        W28978  35.970  15.309   2.370
67613W        W28979  18.596  20.181  13.408
67614W        W28980   3.937   1.890   2.828
67615W        W28981  20.233  25.070  11.999
67616W        W28982  15.614  42.983   4.235
67617W        W28983  31.917  28.157   4.741
67618W        W28984  38.049  22.099  13.363
67619W        W28985  44.943   3.349   4.315
67620W        W28986  14.832  31.476   0.282
67621W        W28987  19.165   4.279  14.018
67622W        W28988  15.263  37.426   2.683
67623W        W28989  44.997  10.705  11.877
67624W        W28990  32.076  16.092   4.654
67625W        W28991  26.525  27.048  11.520
67626W        W28992  16.636  40.486  14.982
67627W        W28993  26.969  40.845   3.334
67628W        W28994   4.394  30.484   2.358
67629W        W28995  29.939   3.297   0.746
67630W        W28996   6.285  22.189   3.699
67631W        W28997   9.192  35.527  11.567
67632W        W28998  13.219  12.716  14.911
67633W        W28999  25.168  41.879  12.406
67634W        W29000  11.157   3.878  11.962
67635W        W29001  31.136  31.108  12.566
67636W        W29002   7.263  25.119   0.284
67637W        W29003  40.844  34.426  12.368
67638W        W29004  15.718  20.554  14.472
67639W        W29005  18.649  29.998  12.535
67640W        W29006   7.181  28.475  14.798
67641W        W29007  26.673  15.152  11.543
67642W        W29008  39.914  19.192   1.823
67643W        W29009  12.199  37.945  11.071
67644W        W29010   8.687  33.445  14.449
67645W        W29011  11.677  37.447   1.218
67646W        W29012   1.884  12.259  12.352
67647W        W29013  38.408   5.326   0.801
67648W        W29014   2.727  37.992   0.358
67649W        W29015   1.899  38.009  14.281
67650W        W29016  10.157  31.045   4.751
67651W        W29017   9.689  36.483  14.763
67652W        W29018  26.162  26.158   3.236
67653W        W29019  21.095   7.865   1.295
67654W        W29020   9.670  28.677   1.833
67655W        W29021  43.937  41.811   0.478
67656W        W29022   5.364   1.902   5.150
67657W        W29023  12.164  11.326  11.559
67658W        W29024  34.010   6.808   1.915
67659W        W29025   0.934  28.174   2.684
67660W        W29026   8.305  34.019  13.378
67661W        W29027  35.897  22.012   0.772
67662W        W29028  22.590  22.700   2.816
67663W        W29029  13.680   2.357   1.254
67664W        W29030  15.802  18.554  12.530
67665W        W29031  26.551  24.994   2.183
67666W        W29032   6.243   9.880   3.673
67667W        W29033  32.064  33.076  11.958
67668W        W29034  43.776  36.545   4.277
67669W        W29035  25.676  42.914   0.295
67670W        W29036  44.267  26.084   2.710
67671W        W29037  40.506   4.815  14.845
67672W        W29038  36.457  37.447  14.846
67673W        W29039  39.965  14.271   3.247
67674W        W29040   3.727  11.273  12.401
67675W        W29041  41.534  41.426   1.319
67676W        W29042  30.627  10.636  13.061
67677W        W29043  12.346  31.455   3.798
67678W        W29044   4.791  29.111   2.813
67679W        W29045  19.090  35.108   5.144
67680W        W29046  28.665  18.604   5.206
67681W        W29047  39.520  39.838  13.396
67682W        W29048   1.265  34.884  10.567
67683W        W29049  14.094  16.103  10.642
67684W        W29050  26.619  27.045   0.728
67685W        W29051  24.551   7.303   5.300
67686W        W29052  42.502  32.890   1.431
67687W        W29053  39.022  28.601   1.753
67688W        W29054  29.073  20.215   0.862
67689W        W29055   8.324   7.833  11.465
67690W        W29056  22.109  28.668  13.354
67691W        W29057   9.276  14.595   0.441
67692W        W29058  41.333  23.541   2.213
67693W        W29059  38.861  10.824  11.410
67694W        W29060   6.207  43.766   1.755
67695W        W29061  27.025  22.143   3.766
67696W        W29062  28.619  39.375   1.428
67697W        W29063   9.286  13.652   4.312
67698W        W29064  19.169  13.838  10.541
67699W        W29065  22.216   6.855  11.488
67700W        W29066  21.693  18.687   1.825
67701W        W29067  12.355  23.021   4.196
67702W        W29068  33.575   4.782   2.806
67703W        W29069  27.153  39.859   3.867
67704W        W29070  38.380  23.067   3.341
67705W        W29071  26.489  21.051  12.399
67706W        W29072   1.237  31.495  10.503
67707W        W29073   5.769  32.080   4.740
67708W        W29074  40.494   0.402  12.889
67709W        W29075  41.877  14.256  14.333
67710W        W29076  25.025   6.782  13.351
67711W        W29077  42.780  32.079   5.294
67712W        W29078  21.739  35.031   2.204
67713W        W29079  35.881   9.643   1.721
67714W        W29080  26.156  32.899   2.761
67715W        W29081  34.611  42.023   1.402
67716W        W29082  26.997  21.162   4.808
67717W        W29083   1.324  42.836  12.553
67718W        W29084  22.152  10.674  10.635
67719W        W29085   1.955  35.913   4.291
67720W        W29086   4.932  39.862  12.554
67721W        W29087   2.929  25.491   4.671
67722W        W29088  40.018   8.353  11.909
67723W        W29089  34.428   4.443  14.404
67724W        W29090  39.507  25.189  13.899
67725W        W29091  29.543  30.042   4.166
67726W        W29092  36.972  19.205   2.825
67727W        W29093   3.931  35.986  12.971
67728W        W29094   6.741  38.335  13.900
67729W        W29095  21.677  29.495   3.201
67730W        W29096  40.046   1.867  12.904
67731W        W29097  34.532  38.327   0.925
67732W        W29098  17.582  16.640   1.327
67733W        W29099  34.899  14.211  11.868
67734W        W29100  33.399   2.406   4.719
67735W        W29101  23.543  30.521   4.170
67736W        W29102  22.129   3.287  13.346
67737W        W29103  16.771  29.122   3.812
67738W        W29104   8.802  16.601  11.582
67739W        W29105   1.864  12.741   3.750
67740W        W29106   8.746  36.990  14.987
67741W        W29107  35.386  34.972  11.953
67742W        W29108  26.688  42.926   2.729
67743W        W29109  14.629  39.320  13.879
67744W        W29110  36.845  16.762  10.951
67745W        W29111   1.821  15.747  10.428
67746W        W29112  10.815   3.844  12.990
67747W        W29113   3.844  41.369  12.895
67748W        W29114  43.342   5.328  14.393
67749W        W29115  43.010  40.342  14.485
67750W        W29116  11.171   0.893  13.034
67751W        W29117  23.513  39.501  13.331
67752W        W29118  32.062  11.286  13.796
67753W        W29119  15.188  34.954   4.129
67754W        W29120  37.966  32.597   2.392
67755W        W29121   6.881   9.339   0.363
67756W        W29122   6.286  30.511   0.953
67757W        W29123  25.587  31.623  13.525
67758W        W29124  16.254  39.456  10.948
67759W        W29125  20.665  39.987   3.270
67760W        W29126  10.152  34.903  11.464
67761W        W29127   4.774  43.422   1.854
67762W        W29128  23.538  33.482  14.352
67763W        W29129  33.089  33.130  14.919
67764W        W29130  22.586  27.495   4.684
67765W        W29131  39.450   2.433  11.006
67766W        W29132  21.048  44.971  14.011
67767W        W29133  33.921  25.579   2.784
67768W        W29134  16.656  15.682   3.386
67769W        W29135  33.463  20.740   2.886
67770W        W29136  39.452   6.760   3.328
67771W        W29137   8.401  31.572  13.857
67772W        W29138   6.331  24.206   2.766
67773W        W29139  42.791  13.800  14.856
67774W        W29140  37.884  28.069  11.585
67775W        W29141  35.503   5.927   2.767
67776W        W29142  11.299   4.361  14.474
67777W        W29143   7.724  29.469   0.387
67778W        W29144  12.850  14.095  13.502
67779W        W29145  17.696  14.269  13.434
67780W        W29146  30.117  12.638  14.988
67781W        W29147  42.807  22.530   1.745
67782W        W29148  28.526  14.593  11.018
67783W        W29149  34.072  23.718   4.223
67784W        W29150  35.970   8.347  13.396
67785W        W29151  40.936   9.767  13.894
67786W        W29152  23.661  27.634  11.070
67787W        W29153   1.738  28.618   2.780
67788W        W29154  27.017  43.906   2.894
67789W        W29155  31.496   5.877   1.871
67790W        W29156  37.882  15.214  11.505
67791W        W29157  21.137   9.802   3.852
67792W        W29158  27.082  23.661   4.132
67793W        W29159   8.272  39.440   3.282
67794W        W29160  43.455  44.956  14.302
67795W        W29161  18.688  26.539   2.768
67796W        W29162  31.506  27.115   4.320
67797W        W29163   7.839  37.840  14.516
67798W        W29164   2.947   5.847   2.690
67799W        W29165   9.161  27.653   3.254
67800W        W29166   6.247   6.741   1.781
67801W        W29167  25.009   9.293   2.238
67802W        W29168  23.565   3.798   2.180
67803W        W29169  12.732  13.617   0.336
67804W        W29170  41.805  24.656   0.408
67805W        W29171  16.279  38.477  14.417
67806W        W29172  26.974  41.514  13.524
67807W        W29173   7.897  21.682   3.206
67808W        W29174  30.624  37.832   4.118
67809W        W29175  18.141  10.171   1.755
67810W        W29176  23.206  37.873  10.998
67811W        W29177  39.963  39.502   3.303
67812W        W29178  19.173   9.739   0.757
67813W        W29179  33.396  25.572   1.810
67814W        W29180  33.989  32.954  13.878
67815W        W29181   8.680  24.550  11.402
67816W        W29182   8.263  32.999   4.326
67817W        W29183  29.653  35.053  10.492
67818W        W29184   6.406  19.136  11.541
67819W        W29185  25.472   2.300   3.653
67820W        W29186  14.608  21.682   4.220
67821W        W29187  12.219   9.657  13.856
67822W        W29188  19.100   7.241  12.040
67823W        W29189   9.310  23.568   0.400
67824W        W29190   7.758   8.783   1.698
67825W        W29191  14.661   0.878   0.777
67826W        W29192  44.305  21.561   4.767
67827W        W29193  21.025   0.906  11.471
67828W        W29194  42.330  15.681   4.769
67829W        W29195  15.725  42.984  14.816
67830W        W29196  11.753   0.771   4.615
67831W        W29197  13.747  28.973   2.803
67832W        W29198  25.095  11.698  13.055
67833W        W29199  17.750  28.128   3.160
67834W        W29200  30.014  12.139   2.702
67835W        W29201  33.481  34.420   4.682
67836W        W29202  43.515   1.912  12.029
67837W        W29203  22.997  32.141  10.067
67838W        W29204  22.190  32.475   2.405
67839W        W29205  10.287   1.240  12.896
67840W        W29206  36.581  42.965  10.448
67841W        W29207   8.770  15.773  13.987
67842W        W29208  23.086  22.511   1.787
67843W        W29209  23.168  10.328  13.477
67844W        W29210  19.627  20.692   3.822
67845W        W29211  23.667  36.488  10.628
67846W        W29212  23.670  39.923   4.826
67847W        W29213  38.883  33.525  12.071
67848W        W29214  24.515   0.405   3.752
67849W        W29215   9.177  26.463   2.713
67850W        W29216  25.041  27.179  10.991
67851W        W29217  34.901  27.464   4.751
67852W        W29218  34.989  21.561   2.244
67853W        W29219  40.900  17.590  13.981
67854W        W29220  35.471  37.576  12.501
67855W        W29221  39.940  15.096  10.585
67856W        W29222  16.276  29.560   0.408
67857W        W29223  14.167  16.193  14.359
67858W        W29224  35.004   8.352   1.446
67859W        W29225  12.210  12.254  10.479
67860W        W29226  32.404  19.049  13.003
67861W        W29227   7.725  33.998  12.956
67862W        W29228  41.922  30.502   4.199
67863W        W29229  11.183  21.098   3.776
67864W        W29230  19.673  11.788   3.714
67865W        W29231  20.266  42.453  14.785
67866W        W29232  28.533  31.925   4.680
67867W        W29233  11.682   4.789  11.008
67868W        W29234  38.841  14.747   0.452
67869W        W29235  42.922  42.392   3.638
67870W        W29236  32.092   0.479   3.754
67871W        W29237   7.804   8.838   0.330
67872W        W29238  32.618   4.745   2.272
67873W        W29239  22.714  35.057   1.414
67874W        W29240   2.435   6.346   5.277
67875W        W29241  28.503  20.223   1.761
67876W        W29242  23.105   8.374   4.190
67877W        W29243  20.151  12.312   1.225
67878W        W29244  28.447  21.141  14.922
67879W        W29245  39.034   2.415  12.506
67880W        W29246  16.202  21.057   9.932
67881W        W29247  42.289  10.299   0.934
67882W        W29248  15.640  27.626  13.475
67883W        W29249   8.819  39.463  11.043
67884W        W29250  30.489   2.962  11.996
67885W        W29251  34.064  23.637   2.887
67886W        W29252  18.732   2.440   0.411
67887W        W29253  32.530  41.314  11.434
67888W        W29254   0.795   8.708   0.943
67889W        W29255  29.514   3.769   3.338
67890W        W29256  31.461  42.336  12.362
67891W        W29257  26.082  23.534  10.585
67892W        W29258  35.573  12.681   2.880
67893W        W29259   6.229  40.889  14.334
67894W        W29260  43.926  36.351  11.453
67895W        W29261  43.874   8.659  13.324
67896W        W29262  37.010  38.565   4.720
67897W        W29263  24.484  17.716  11.971
67898W        W29264  29.438  19.103   0.740
67899W        W29265  28.040  18.593   4.190
67900W        W29266  29.128  28.158   1.857
67901W        W29267  26.610  40.492  14.991
67902W        W29268  24.193  44.303  12.087
67903W        W29269  22.170  19.195   3.783
67904W        W29270   4.825  32.068   5.181
67905W        W29271  23.618  43.879  13.482
67906W        W29272   0.785  37.517   2.234
67907W        W29273  24.081  18.198  10.132
67908W        W29274  27.113  43.012  10.451
67909W        W29275  40.023  40.882   4.680
67910W        W29276  26.577  27.042   3.315
67911W        W29277  13.327  32.899  11.537
67912W        W29278   3.310   4.834   1.726
67913W        W29279  30.443   7.227   3.152
67914W        W29280  36.989  20.603   3.640
67915W        W29281  10.207   2.420  11.891
67916W        W29282  26.666  23.588   4.288
67917W        W29283  28.532  40.018  12.505
67918W        W29284   3.833  28.465  12.883
67919W        W29285  13.227  19.665   4.667
67920W        W29286  43.011   6.787  14.478
67921W        W29287  10.364   0.859  13.457
67922W        W29288   3.284  43.910  14.424
67923W        W29289  17.287  11.127  14.385
67924W        W29290  18.090  13.725   4.319
67925W        W29291  14.768  20.617  12.390
67926W        W29292  26.008   4.850  12.564
67927W        W29293  34.426  30.049  12.843
67928W        W29294  25.571  38.454   0.359
67929W        W29295  38.553  20.181   1.933
67930W        W29296  41.900  25.012  14.324
67931W        W29297  27.950  11.627   2.675
67932W        W29298  15.707  14.296   2.301
67933W        W29299  16.204  18.258  14.838
67934W        W29300  43.381  18.784   1.895
67935W        W29301   6.909  29.169  13.439
67936W        W29302  18.565  37.025  13.841
67937W        W29303  43.348   8.656   1.900
67938W        W29304  35.469  33.550  12.823
67939W        W29305   0.330  10.665  14.879
67940W        W29306   6.315  19.730   1.346
67941W        W29307  33.050  27.452  12.438
67942W        W29308  40.420  20.582  13.951
67943W        W29309  22.033   4.875  13.940
67944W        W29310  29.525  15.189   4.169
67945W        W29311  23.672  42.424  14.360
67946W        W29312  44.359  16.787  14.370
67947W        W29313   7.742  40.389   4.193
67948W        W29314  32.601  37.532  13.051
67949W        W29315  23.052   5.923  14.797
67950W        W29316  25.055  27.033   4.161
67951W        W29317  29.483  19.185   3.782
67952W        W29318  39.915  41.362  13.502
67953W        W29319  27.530  13.777   2.698
67954W        W29320  38.934  41.508   4.288
67955W        W29321  27.579   5.731  14.472
67956W        W29322  39.542  26.603  11.408
67957W        W29323  29.018  13.629  12.353
67958W        W29324   1.766  15.696   0.429
67959W        W29325  32.008  23.673   2.879
67960W        W29326  32.067  29.501   2.889
67961W        W29327   5.929  22.656  12.359
67962W        W29328  27.547  37.849   2.290
67963W        W29329  13.119  23.507   3.242
67964W        W29330  34.024   9.322  14.364
67965W        W29331  12.848  18.223   1.435
67966W        W29332  33.906  13.215  13.973
67967W        W29333  23.705  30.040   4.244
67968W        W29334  19.579  37.005  11.515
67969W        W29335  32.915  20.139  12.443
67970W        W29336  10.713  33.451  11.025
67971W        W29337  42.380   7.413   4.795
67972W        W29338  39.523  23.725   4.618
67973W        W29339  42.965  39.976   1.262
67974W        W29340  22.705  10.861  11.059
67975W        W29341  27.640  32.416  11.496
67976W        W29342  12.769  15.298  11.015
67977W        W29343  12.696  17.755  12.432
67978W        W29344   1.768  18.060   3.339
67979W        W29345  15.156  20.030   2.749
67980W        W29346  32.078  28.002  12.040
67981W        W29347  25.593  11.842   4.183
67982W        W29348  29.958  10.150   1.212
67983W        W29349  19.053  22.218  11.113
67984W        W29350  40.021   4.234   2.903
67985W        W29351  43.457  36.567  13.923
67986W        W29352  25.026   2.321  13.869
67987W        W29353  12.770   9.714   4.648
67988W        W29354  15.225  17.276   3.162
67989W        W29355  41.858  29.004  10.544
67990W        W29356   6.677  37.353  11.964
67991W        W29357  27.983   1.903   3.807
67992W        W29358  26.021  42.448  14.381
67993W        W29359  19.633  20.161   1.873
67994W        W29360  38.396  28.132   0.956
67995W        W29361  44.952  30.549  12.546
67996W        W29362  16.274  34.987  11.462
67997W        W29363  10.726  25.975   0.791
67998W        W29364  27.447  27.097  11.429
67999W        W29365   6.731   2.332   1.292
68000W        W29366  43.288  18.126  11.517
68001W        W29367  37.447   9.803  14.406
68002W        W29368  27.654  12.622  13.388
68003W        W29369  16.570   4.787  11.120
68004W        W29370  11.743  27.679   2.900
68005W        W29371   4.945   3.730  11.549
68006W        W29372  41.522  20.560   1.734
68007W        W29373   2.338  39.915   2.289
68008W        W29374  16.207  26.593   5.106
68009W        W29375   8.676  14.247   2.248
68010W        W29376  22.023   3.828   5.607
68011W        W29377   9.718   7.711   3.366
68012W        W29378  18.129  31.952   1.830
68013W        W29379  30.614  11.751  12.997
68014W        W29380  26.477   3.291   3.163
68015W        W29381   4.789   9.198  13.507
68016W        W29382  27.107  19.742  14.799
68017W        W29383   8.821  30.008   3.789
68018W        W29384  33.576  34.967  12.906
68019W        W29385  13.133  44.346   1.714
68020W        W29386  23.621   0.928   0.446
68021W        W29387  30.088  37.447   3.301
68022W        W29388   8.247  43.295  12.848
68023W        W29389  20.247   0.353  13.444
68024W        W29390  10.293  22.039  14.914
68025W        W29391  21.657  41.889  13.846
68026W        W29392  37.008  13.254  14.474
68027W        W29393  12.741  40.485   2.691
68028W        W29394  25.512  35.955  10.929
68029W        W29395  12.152  43.994  12.854
68030W        W29396  29.621  36.513   3.663
68031W        W29397  25.545  15.096   4.121
68032W        W29398   7.894  28.650  10.473
68033W        W29399   2.889   2.785  12.468
68034W        W29400  28.552  17.706  13.822
68035W        W29401  32.506   5.364   3.643
68036W        W29402   6.222   4.739   1.781
68037W        W29403  20.762   8.801   2.749
68038W        W29404  27.510   0.455   3.698
68039W        W29405  43.828  35.390   4.728
68040W        W29406  21.212  19.721   3.163
68041W        W29407  37.979   6.337   3.370
68042W        W29408   3.230  15.754  13.818
68043W        W29409  25.525   0.950  14.773
68044W        W29410  32.458  36.480   1.279
68045W        W29411  10.200  16.104   3.768
68046W        W29412  11.660   2.255   2.756
68047W        W29413  23.609   4.367  11.043
68048W        W29414   0.963  15.631  13.000
68049W        W29415  12.309  14.710   4.653
68050W        W29416  23.688  32.550   3.863
68051W        W29417   5.729   2.889  14.813
68052W        W29418  20.072  20.563  11.033
68053W        W29419   4.834   3.314   2.786
68054W        W29420   2.409  41.504   5.159
68055W        W29421   8.885   1.903  10.452
68056W        W29422   5.903  22.630   1.813
68057W        W29423  11.317  30.021   4.119
68058W        W29424  21.095  26.138   0.328
68059W        W29425  23.628  22.095  14.919
68060W        W29426  35.366  15.791  11.859
68061W        W29427  23.047  14.302  13.500
68062W        W29428   3.886  36.849  13.875
68063W        W29429  17.062  16.726  12.470
68064W        W29430  11.760  18.193   5.199
68065W        W29431  40.526   3.316   0.956
68066W        W29432  35.556   0.425  12.949
68067W        W29433  19.139  44.822   3.375
68068W        W29434  21.563   7.898   3.281
68069W        W29435  31.909  24.695   0.402
68070W        W29436   2.266   0.896  10.451
68071W        W29437   9.879  19.649  10.896
68072W        W29438  19.771  15.683   4.344
68073W        W29439  40.837  26.569  10.540
68074W        W29440  42.782  43.501  10.935
68075W        W29441  27.106  11.341   0.837
68076W        W29442  25.613  34.403   4.820
68077W        W29443  15.735  39.865   0.914
68078W        W29444  11.805  30.969   3.843
68079W        W29445   8.266  25.497   1.739
68080W        W29446  20.186   6.898  13.452
68081W        W29447  26.966   2.927   0.917
68082W        W29448  20.661  20.714   3.794
68083W        W29449  29.981  23.203  13.901
68084W        W29450  19.164  21.722   3.839
68085W        W29451  19.619  15.160   2.861
68086W        W29452  22.057  38.905  12.021
68087W        W29453  44.962  23.624  13.897
68088W        W29454  39.977  37.505  14.424
68089W        W29455   9.774  29.978   1.728
68090W        W29456   9.337  37.514  13.006
68091W        W29457  13.746  35.411   1.863
68092W        W29458  13.132  26.025   4.771
68093W        W29459  43.845  35.542  12.444
68094W        W29460  34.529  32.131  11.527
68095W        W29461  38.474  24.074   2.394
68096W        W29462  13.829   4.297   2.192
68097W        W29463  19.629  36.497   0.880
68098W        W29464  29.921  25.033   4.807
68099W        W29465   0.434   4.817  12.068
68100W        W29466  42.834  26.117  14.767
68101W        W29467  38.945  28.971   4.815
68102W        W29468  23.541  40.845  10.950
68103W        W29469  43.275  32.472  10.614
68104W        W29470  18.756   3.770   1.294
68105W        W29471  10.231  33.409   3.147
68106W        W29472  13.192  19.542  11.912
68107W        W29473  38.917  13.716  12.465
68108W        W29474  38.964  18.614  14.406
68109W        W29475  27.497  12.771   3.646
68110W        W29476   6.332   0.967  10.425
68111W        W29477   0.862  29.503   3.811
68112W        W29478  29.164  25.091   0.962
68113W        W29479  34.446  34.925   4.183
68114W        W29480   9.728  32.977   0.831
68115W        W29481   3.445  26.180   4.251
68116W        W29482   6.892  27.646   1.777
68117W        W29483   2.949   8.729  14.474
68118W        W29484  43.271  32.074  12.938
68119W        W29485   1.940   8.181   3.711
68120W        W29486  31.519  39.962   9.554
68121W        W29487  39.414  12.315   3.194
68122W        W29488  44.900  17.606  12.996
68123W        W29489  16.300   5.801   1.303
68124W        W29490  19.220  40.452   2.796
68125W        W29491  39.523  40.321   0.388
68126W        W29492   7.792   1.298  10.459
68127W        W29493  29.116   3.437   0.870
68128W        W29494  16.638   5.347   0.482
68129W        W29495  35.964  39.373  10.907
68130W        W29496  41.406  43.461   1.909
68131W        W29497  17.784  42.872  12.389
68132W        W29498  43.395  44.377   4.632
68133W        W29499  42.877  34.423  10.928
68134W        W29500  12.271  39.816  14.898
68135W        W29501  43.405  15.747   1.314
68136W        W29502  33.948  33.381   4.132
68137W        W29503   0.253  34.611  11.100
68138W        W29504  11.225  21.542   4.617
68139W        W29505  33.414  18.655   0.314
68140W        W29506  13.613  28.962  11.884
68141W        W29507  19.780   5.813  12.011
68142W        W29508  14.703  16.793  12.919
68143W        W29509   6.685  31.638  14.910
68144W        W29510  36.543  11.317   3.285
68145W        W29511  39.874  35.537  14.843
68146W        W29512  21.634  35.993   5.191
68147W        W29513  27.155  43.952  14.916
68148W        W29514   4.324  44.345   3.636
68149W        W29515  42.980  21.566   3.198
68150W        W29516  28.645  44.924   2.212
68151W        W29517  39.353   6.202  12.541
68152W        W29518   4.790  37.353   1.845
68153W        W29519  24.626   1.397  14.840
68154W        W29520  31.570   7.273   3.203
68155W        W29521  29.932  32.049   3.742
68156W        W29522  32.113  31.901  13.909
68157W        W29523   5.421   2.299  14.396
68158W        W29524   5.278   9.758  11.941
68159W        W29525  31.481  11.209   2.393
68160W        W29526  32.972   8.313  10.914
68161W        W29527  17.095  36.412   4.285
68162W        W29528   6.833  39.007  14.963
68163W        W29529  33.082  33.081   0.915
68164W        W29530  23.989  20.602   2.355
68165W        W29531  10.378  21.644  14.764
68166W        W29532  25.138   4.781   5.578
68167W        W29533   0.417  27.147  14.515
68168W        W29534  42.001  27.084   3.164
68169W        W29535   0.303  20.090  14.846
68170W        W29536  37.472   1.944   3.221
68171W        W29537   7.194  20.166   1.295
68172W        W29538  19.241   4.732  10.599
68173W        W29539   4.237   0.953   0.926
68174W        W29540  17.759  10.831  13.960
68175W        W29541  33.883  14.620   1.374
68176W        W29542  44.417  33.999   0.328
68177W        W29543  20.036   0.435  14.937
68178W        W29544  27.624   4.935   1.896
68179W        W29545  41.892  27.682  11.869
68180W        W29546  43.324  23.052   1.918
68181W        W29547   1.944  30.084  12.034
68182W        W29548  23.617  15.187  11.549
68183W        W29549  24.044   8.871  13.861
68184W        W29550  23.167  19.677   4.802
68185W        W29551   6.270   5.390   5.310
68186W        W29552   2.259  14.264  13.328
68187W        W29553  37.081  41.923  14.386
68188W        W29554   9.363   4.734  10.487
68189W        W29555   8.809  40.333   5.267
68190W        W29556  27.688  15.732   2.254
68191W        W29557   2.765  43.001   3.148
68192W        W29558  28.991   6.752   2.889
68193W        W29559  35.581  29.012   4.808
68194W        W29560  33.502  24.493  10.961
68195W        W29561  12.183  29.542  12.531
68196W        W29562  39.985  39.863  14.865
68197W        W29563  21.755   6.909   2.765
68198W        W29564   7.896  17.801  11.510
68199W        W29565   5.400  30.636  10.894
68200W        W29566  23.503  19.668  11.430
68201W        W29567   5.912   8.665   1.413
68202W        W29568   5.798  42.802  11.556
68203W        W29569  40.956  25.548   4.659
68204W        W29570  28.104  13.324  14.866
68205W        W29571   9.763  23.034   2.859
68206W        W29572  40.401  35.038   0.928
68207W        W29573   0.317  12.669   4.198
68208W        W29574  24.553   8.851  14.836
68209W        W29575  19.134  25.599  13.818
68210W        W29576   6.225  35.387   1.435
68211W        W29577  35.582  30.658  12.838
68212W        W29578  17.570  36.543   4.312
68213W        W29579   3.834  33.491   1.916
68214W        W29580  33.399  28.555  14.278
68215W        W29581   9.345  24.603   0.400
68216W        W29582  12.333  44.993  10.521
68217W        W29583  19.680   0.275  12.928
68218W        W29584  29.559  42.846  12.553
68219W        W29585   3.722   3.437   5.617
68220W        W29586  20.256  16.746  11.438
68221W        W29587  15.603  30.078  13.796
68222W        W29588  26.501  25.008   4.810
68223W        W29589  32.960  15.786   0.438
68224W        W29590  23.998   9.698  11.456
68225W        W29591  32.454  21.578   2.899
68226W        W29592  21.703   3.302  12.561
68227W        W29593  37.346  20.179   0.900
68228W        W29594  11.832  15.666   4.786
68229W        W29595  11.234  13.117  12.491
68230W        W29596  33.482  13.730  12.968
68231W        W29597  30.519  27.517  14.510
68232W        W29598  37.021   9.216  14.769
68233W        W29599  21.684  28.469   3.294
68234W        W29600  34.478   0.945   3.176
68235W        W29601   2.344  21.592   4.749
68236W        W29602  42.779  40.902   0.925
68237W        W29603  37.574  17.601   4.801
68238W        W29604  44.298  28.168   3.834
68239W        W29605  25.142  36.908  10.572
68240W        W29606   3.303  42.419  14.482
68241W        W29607  37.504  17.588  12.540
68242W        W29608  29.931  10.877   3.794
68243W        W29609  19.663  14.168   5.289
68244W        W29610  25.605  10.779  12.556
68245W        W29611  19.550  32.412  11.478
68246W        W29612  42.286   8.722   0.391
68247W        W29613  44.343  39.500   4.781
68248W        W29614   7.817  25.131   1.878
68249W        W29615  18.546   8.819   4.764
68250W        W29616  10.244  43.928   0.482
68251W        W29617   3.816  20.243  12.919
68252W        W29618  30.988  30.121  12.868
68253W        W29619  17.638  30.948   2.820
68254W        W29620   6.363  23.490  13.893
68255W        W29621  35.491  23.719  11.017
68256W        W29622  39.843  12.848  11.446
68257W        W29623  27.571  13.777   1.795
68258W        W29624  43.806  19.575   2.208
68259W        W29625  27.953  22.089   1.419
68260W        W29626   3.439  18.053  10.574
68261W        W29627  30.062  34.376  11.992
68262W        W29628  44.497   6.304   2.303
68263W        W29629  12.160  11.150   0.815
68264W        W29630   9.700  26.544   4.797
68265W        W29631  13.673  36.006  14.431
68266W        W29632  37.499  30.441  14.465
68267W        W29633  23.620  25.064   1.389
68268W        W29634  10.316  15.647   3.270
68269W        W29635  22.218  37.458  13.494
68270W        W29636  30.940   9.869  14.858
68271W        W29637   6.342  43.986  12.071
68272W        W29638  38.886   1.339  10.951
68273W        W29639  20.091  18.112  14.441
68274W        W29640  37.347   0.288   0.847
68275W        W29641  41.388  15.136  13.985
68276W        W29642  39.463  25.015   0.840
68277W        W29643  31.550  39.538  10.125
68278W        W29644  27.194  27.959  12.885
68279W        W29645  33.084  11.325  13.406
68280W        W29646  33.010  23.990  13.017
68281W        W29647  14.590  31.057   9.657
68282W        W29648   7.205   1.350  12.985
68283W        W29649   3.342  30.066  13.002
68284W        W29650   1.804  20.580  11.393
68285W        W29651  38.073  44.420  12.031
68286W        W29652  25.198  44.330   3.715
68287W        W29653   2.906   1.435   0.344
68288W        W29654   1.935  34.572   1.748
68289W        W29655  33.388  24.501   0.932
68290W        W29656  22.202  41.979  13.408
68291W        W29657   8.657   6.324  12.990
68292W        W29658  31.605  12.359  12.441
68293W        W29659  36.912   8.397   3.768
68294W        W29660  20.642  14.199   1.292
68295W        W29661  38.853  37.413   1.357
68296W        W29662  29.967  12.623  11.933
68297W        W29663  25.497  21.075   4.234
68298W        W29664  17.671  27.084   2.357
68299W        W29665   7.312  15.706  12.475
68300W        W29666  14.748  42.892  14.013
68301W        W29667   3.951  13.648   4.347
68302W        W29668  43.914  22.597  13.338
68303W        W29669  25.979  17.153  13.473
68304W        W29670  43.945   6.683   1.272
68305W        W29671  12.812  38.932   4.823
68306W        W29672  36.956  34.540   3.860
68307W        W29673  18.080  33.427  13.923
68308W        W29674  13.233  19.753   3.705
68309W        W29675  10.801  15.105  12.874
68310W        W29676  23.069  17.572   3.297
68311W        W29677  16.249  30.432   4.248
68312W        W29678  20.198  29.100  12.016
68313W        W29679  23.665   4.371  13.390
68314W        W29680   5.350  37.412   4.351
68315W        W29681  15.754  30.937   3.696
68316W        W29682  20.539  20.543  12.513
68317W        W29683   6.415   4.369   1.743
68318W        W29684  41.424  16.207   4.734
68319W        W29685   9.791  22.197   3.221
68320W        W29686  14.236   3.747  11.398
68321W        W29687   2.301   8.213   1.370
68322W        W29688  37.482   2.776   4.793
68323W        W29689  26.649  40.938   4.279
68324W        W29690  44.959   9.650  13.536
68325W        W29691   8.363  30.067  12.033
68326W        W29692  33.880  19.232   1.340
68327W        W29693  13.677  23.569  12.433
68328W        W29694  36.077  35.030   3.715
68329W        W29695  15.758  22.647   3.252
68330W        W29696   5.809  26.181   4.775
68331W        W29697  29.058   6.687   0.468
68332W        W29698  29.617   0.296   4.702
68333W        W29699  15.650  30.151   2.903
68334W        W29700  43.375  15.189   2.866
68335W        W29701  18.182  20.068  10.965
68336W        W29702  24.585  17.199  13.339
68337W        W29703  11.725  27.524   3.306
68338W        W29704  21.164  15.756  13.913
68339W        W29705  25.964  22.121  10.447
68340W        W29706  31.922  17.563  11.456
68341W        W29707  42.460  39.409   0.806
68342W        W29708  12.347   3.333  13.540
68343W        W29709  33.515   2.327   2.227
68344W        W29710   1.851   3.294  10.148
68345W        W29711  32.485   3.261  12.089
68346W        W29712  24.980  29.109  12.433
68347W        W29713  35.974  37.830  14.373
68348W        W29714  14.724  11.625   3.180
68349W        W29715   9.169  35.565  12.879
68350W        W29716   8.672  42.389   0.820
68351W        W29717  14.832  30.980  14.303
68352W        W29718  38.875  12.253  12.087
68353W        W29719  10.299  16.779  10.154
68354W        W29720  42.942  13.834   2.835
68355W        W29721  10.648   6.288  10.449
68356W        W29722  37.980   5.258   4.788
68357W        W29723  31.010  33.499   5.224
68358W        W29724   6.228  16.148  12.955
68359W        W29725  44.924   6.824  13.049
68360W        W29726  34.010  24.508   3.715
68361W        W29727  16.282  39.380  13.025
68362W        W29728  26.603  38.988   3.315
68363W        W29729  10.634  42.296   3.301
68364W        W29730   0.972  11.233  13.835
68365W        W29731  15.801  38.824   0.261
68366W        W29732  21.592  19.224  13.062
68367W        W29733  25.539  14.272  13.969
68368W        W29734   1.790  42.432   4.803
68369W        W29735  42.363   8.189  12.469
68370W        W29736  43.301  16.269   3.275
68371W        W29737  18.243  18.283   2.863
68372W        W29738  23.705  13.234  11.494
68373W        W29739  43.769   4.895   1.346
68374W        W29740   0.860  10.696   1.324
68375W        W29741  30.948  41.501   3.312
68376W        W29742   1.967   3.416   0.274
68377W        W29743  43.972  17.150   2.353
68378W        W29744  25.087   7.820   1.381
68379W        W29745  40.942  32.615  11.046
68380W        W29746  41.377  35.533  11.450
68381W        W29747  36.050  22.064  10.559
68382W        W29748   3.437  11.160   4.141
68383W        W29749  32.607   4.335  10.980
68384W        W29750  10.327  15.243   1.833
68385W        W29751  41.957  14.649  10.635
68386W        W29752  22.515   9.784   0.471
68387W        W29753  39.338  13.118  11.013
68388W        W29754  34.412  15.604  10.575
68389W        W29755   8.796   2.853   4.212
68390W        W29756   9.887  36.961   4.716
68391W        W29757  13.769  26.199   2.873
68392W        W29758   0.963  19.234  10.455
68393W        W29759  31.071  30.449   3.272
68394W        W29760   9.328   8.381  12.387
68395W        W29761   1.921   0.792   3.317
68396W        W29762  25.105   3.244   1.775
68397W        W29763   3.302  33.577  13.372
68398W        W29764  37.506  12.846   4.278
68399W        W29765  36.013  17.188   0.857
68400W        W29766  12.306  38.983  11.876
68401W        W29767  15.670  18.580   1.264
68402W        W29768  21.214  38.512   0.287
68403W        W29769  23.105  41.515   2.410
68404W        W29770  11.210  10.878  12.552
68405W        W29771   6.364   1.732   4.667
68406W        W29772  23.686  26.695  14.994
68407W        W29773  41.421  29.633  11.390
68408W        W29774   6.261  22.119   0.920
68409W        W29775   7.174   1.311   4.716
68410W        W29776  35.109  26.543  13.832
68411W        W29777  26.199  16.685   2.381
68412W        W29778  38.566  13.703  13.051
68413W        W29779   2.916  25.041   0.888
68414W        W29780  17.143  40.040  13.853
68415W        W29781  20.694  17.305   2.735
68416W        W29782  41.328  20.732  14.802
68417W        W29783  22.582  22.516   0.246
68418W        W29784  15.098   2.359  13.337
68419W        W29785  10.788  11.679   1.912
68420W        W29786  38.906  14.598   4.787
68421W        W29787  41.357  27.176   1.835
68422W        W29788  28.436  19.568  12.530
68423W        W29789  14.284  40.831   3.822
68424W        W29790  22.046  10.268  14.361
68425W        W29791  30.964  32.953   1.393
68426W        W29792  40.991  28.470  11.085
68427W        W29793  29.555  34.484  10.599
68428W        W29794   8.274  37.889   1.335
68429W        W29795   5.416  10.368  12.540
68430W        W29796  11.641  41.325  14.825
68431W        W29797   4.937  30.631   2.366
68432W        W29798  15.652  24.720  11.591
68433W        W29799  14.819  26.153  10.521
68434W        W29800   0.901  26.996  14.496
68435W        W29801  29.055   7.222   1.280
68436W        W29802  39.362   5.392   2.399
68437W        W29803  16.085  14.813  12.855
68438W        W29804  25.982  42.846   0.299
68439W        W29805  20.126  25.599   2.678
68440W        W29806  31.962  13.269   3.739
68441W        W29807  23.660  43.497   2.884
68442W        W29808  12.857  42.353  14.414
68443W        W29809  27.547  40.419  13.931
68444W        W29810   0.275  39.399  13.535
68445W        W29811  26.461  11.759   0.809
68446W        W29812  13.223  13.720  14.853
68447W        W29813  24.168  17.295   3.761
68448W        W29814  26.114  27.004  10.970
68449W        W29815  17.682  29.043   0.942
68450W        W29816  35.459  24.191   3.814
68451W        W29817   8.785  41.443  10.567
68452W        W29818   0.800  24.583   2.838
68453W        W29819  33.464   5.901   0.739
68454W        W29820  44.825  27.674   2.297
68455W        W29821   1.758  44.997   4.684
68456W        W29822  26.602   2.868   3.775
68457W        W29823  20.702  10.173  12.533
68458W        W29824   9.258  44.868   0.345
68459W        W29825   5.768  33.925   2.274
68460W        W29826  35.073  26.494   1.884
68461W        W29827   4.769  16.727   3.669
68462W        W29828  16.295  38.054  14.397
68463W        W29829  12.360  29.670  14.923
68464W        W29830   7.805  12.310  11.890
68465W        W29831   8.177  19.605  11.933
68466W        W29832   6.310  42.292   0.921
68467W        W29833   0.317  41.462  12.908
68468W        W29834  36.051  41.805   0.292
68469W        W29835   7.713  23.085  13.455
68470W        W29836  34.072  17.800   1.401
68471W        W29837  38.871   1.887  12.859
68472W        W29838  30.616  26.556  13.057
68473W        W29839  27.567  30.555  13.031
68474W        W29840  33.390  13.324  12.867
68475W        W29841   4.936  23.697   1.412
68476W        W29842   6.704  14.711   3.267
68477W        W29843  34.601  22.231   4.612
68478W        W29844   1.352  19.039  12.414
68479W        W29845  34.488  39.066  14.948
68480W        W29846  20.534  18.252   4.661
68481W        W29847   8.766  41.882  13.462
68482W        W29848  18.167  28.483  12.856
68483W        W29849  25.704  28.578  14.816
68484W        W29850  20.069  23.510  11.013
68485W        W29851  12.141  42.962   4.273
68486W        W29852  28.178  11.713   0.741
68487W        W29853  17.280   5.383  11.421
68488W        W29854   9.799  44.772  11.481
68489W        W29855  13.268  25.710   3.384
68490W        W29856  20.124  43.507   4.311
68491W        W29857  33.444  37.388  12.406
68492W        W29858  36.031  14.175  10.404
68493W        W29859  37.483  18.195  10.158
68494W        W29860  10.266  21.237   2.735
68495W        W29861  32.046  41.311   0.349
68496W        W29862  42.295   8.696   4.182
68497W        W29863   0.933   5.749   1.720
68498W        W29864  16.571  40.797   1.211
68499W        W29865   7.393   4.784   2.663
68500W        W29866   8.843   3.408  10.530
68501W        W29867   6.184  20.211   0.363
68502W        W29868   3.847  32.893   2.208
68503W        W29869  39.909  14.133  13.867
68504W        W29870  20.528  36.555   3.222
68505W        W29871  40.333  15.685   0.355
68506W        W29872  41.333  30.034  12.450
68507W        W29873  26.158  13.266  11.475
68508W        W29874  32.014  40.430   4.134
68509W        W29875  17.296  43.453   0.892
68510W        W29876  33.088  35.598   0.749
68511W        W29877  11.758  42.837  10.963
68512W        W29878  25.581  36.439  14.378
68513W        W29879  12.264  37.403  13.454
68514W        W29880  27.083  39.996  13.997
68515W        W29881  36.866  20.220   0.257
68516W        W29882  12.315  35.402   2.357
68517W        W29883  30.086  18.145  13.057
68518W        W29884   4.349  18.177  11.867
68519W        W29885   6.281  43.451  12.560
68520W        W29886  13.715   3.327   0.823
68521W        W29887  22.113   4.376   2.835
68522W        W29888  15.109  32.636  14.309
68523W        W29889   4.815  29.470   2.773
68524W        W29890  19.682  28.165  13.399
68525W        W29891  42.825  12.821  13.019
68526W        W29892  44.391  43.813  10.418
68527W        W29893   3.364  28.612  12.463
68528W        W29894   3.326  25.141  14.436
68529W        W29895   3.803  29.046   2.768
68530W        W29896  13.710  32.530   3.757
68531W        W29897  33.942  21.244   0.830
68532W        W29898  11.661  40.892   3.206
68533W        W29899  33.955  27.090  14.349
68534W        W29900  26.523  21.214   1.359
68535W        W29901  15.610  40.405  12.024
68536W        W29902  44.834   0.310  11.992
68537W        W29903  34.118  18.285   0.312
68538W        W29904   9.311  10.753  12.516
68539W        W29905  19.555  18.095   4.298
68540W        W29906  39.848  44.934   4.737
68541W        W29907  11.284  15.704   4.624
68542W        W29908   3.250  38.525   4.716
68543W        W29909  37.400   8.390  13.959
68544W        W29910  24.648   1.795  12.094
68545W        W29911  13.774  28.933  10.990
68546W        W29912  37.864  37.917   1.887
68547W        W29913   0.947  22.240   3.788
68548W        W29914  26.056   8.783  11.585
68549W        W29915  18.284  24.009  12.849
68550W        W29916  15.637  22.117   1.299
68551W        W29917  38.916  16.751  11.385
68552W        W29918  36.902   5.348   3.372
68553W        W29919  27.599  27.452   1.718
68554W        W29920  19.076  32.449   0.871
68555W        W29921   0.768  23.642   0.361
68556W        W29922  14.668  14.828   3.682
68557W        W29923   7.300  40.941   2.714
68558W        W29924  28.936   8.821  13.059
68559W        W29925   3.809  38.067   2.808
68560W        W29926  10.764  10.275   2.771
68561W        W29927  11.841  10.153  11.445
68562W        W29928  29.166  15.805  13.025
68563W        W29929  29.457  12.739  10.584
68564W        W29930  27.146   9.690   1.293
68565W        W29931   6.767  26.510   0.395
68566W        W29932  22.747  19.740   4.218
68567W        W29933  11.824  13.728  14.935
68568W        W29934  25.592  12.224  10.949
68569W        W29935  16.239  37.995   4.808
68570W        W29936  25.680  17.101   4.658
68571W        W29937   2.404  44.880  13.513
68572W        W29938  42.511   5.898  12.987
68573W        W29939  16.618   6.204   3.782
68574W        W29940  31.487  26.204  13.482
68575W        W29941   8.705  38.973  12.421
68576W        W29942  14.786  41.536   2.197
68577W        W29943  28.001  38.366  13.485
68578W        W29944  43.395  40.507   0.460
68579W        W29945  27.584  37.511   2.805
68580W        W29946  10.741  22.734  12.942
68581W        W29947  39.338   8.714   2.894
68582W        W29948  37.336  30.540   0.965
68583W        W29949  29.575   2.928   3.356
68584W        W29950  44.931  38.822   1.279
68585W        W29951   2.816   5.405   2.310
68586W        W29952  28.947  28.437  11.911
68587W        W29953   5.741  34.571   2.896
68588W        W29954  34.573  28.165   4.338
68589W        W29955  33.459  10.686   0.889
68590W        W29956  23.723  35.599   1.756
68591W        W29957  43.789  18.281  13.869
68592W        W29958  16.787  25.554   3.271
68593W        W29959  37.452  11.755   3.208
68594W        W29960  19.260  17.301  13.333
68595W        W29961  25.203  13.734  14.402
68596W        W29962  23.205   8.733   3.681
68597W        W29963   8.168  34.588  14.380
68598W        W29964  18.647  40.440   2.233
68599W        W29965  18.224  41.514   1.798
68600W        W29966  42.314   8.399  13.996
68601W        W29967   7.364  27.508  11.965
68602W        W29968  30.907  43.019  14.801
68603W        W29969   3.390  14.255  11.979
68604W        W29970  12.827  28.654   2.343
68605W        W29971   1.975  28.575   2.261
68606W        W29972   9.675  22.100   2.273
68607W        W29973  18.214  10.273   1.401
68608W        W29974  14.182   8.723  13.955
68609W        W29975   3.326  32.905   3.328
68610W        W29976   8.894  16.805  10.982
68611W        W29977  21.101  13.728  11.399
68612W        W29978  16.072  11.300  11.471
68613W        W29979  22.598  16.590  14.789
68614W        W29980  29.141  43.417   2.193
68615W        W29981  36.539  38.355   0.274
68616W        W29982   8.884  29.012  12.504
68617W        W29983  14.623  33.470   2.416
68618W        W29984  10.786  19.749   1.229
68619W        W29985  38.860  38.053   2.891
68620W        W29986  24.129  14.681  13.795
68621W        W29987  24.141  28.134   3.736
68622W        W29988  24.224  41.386   1.414
68623W        W29989  42.789  38.999  12.865
68624W        W29990  15.602  26.977  10.534
68625W        W29991  10.768  14.595  10.956
68626W        W29992  40.047  38.438   3.854
68627W        W29993  28.120  16.252   2.784
68628W        W29994   8.740  38.828   0.316
68629W        W29995  28.053  37.511   3.805
68630W        W29996  38.343   7.185  11.394
68631W        W29997   5.335  27.183  10.451
68632W        W29998   6.786   1.901  13.937
68633W        W29999  31.937   4.235  12.950
68634W        W30000  29.566  18.763  13.841
68635W        W30001  19.244  41.794   2.756
68636W        W30002   1.791  18.761   2.416
68637W        W30003  39.371   7.737   3.154
68638W        W30004  42.887  42.468  11.957
68639W        W30005  14.268   3.223  10.495
68640W        W30006  44.768   7.283   1.317
68641W        W30007  35.047  10.845  12.070
68642W        W30008  44.854   5.733   3.697
68643W        W30009  16.312  40.501   1.329
68644W        W30010  13.699  22.557   4.818
68645W        W30011   9.872   4.749   3.292
68646W        W30012  14.832  25.488  12.941
68647W        W30013   9.736  14.752  13.835
68648W        W30014  38.366  33.380  10.608
68649W        W30015  30.593  28.929  10.638
68650W        W30016  34.581  33.390  14.438
68651W        W30017  17.171  15.796   2.740
68652W        W30018  17.799  39.030  10.970
68653W        W30019  11.756  17.153  14.865
68654W        W30020  44.850   0.272   4.214
68655W        W30021   9.729   6.397   0.854
68656W        W30022  14.277  26.161  11.576
68657W        W30023  44.277  26.986  12.459
68658W        W30024  25.590  42.466  12.073
68659W        W30025  11.672  26.519   5.226
68660W        W30026   3.273  11.814  10.468
68661W        W30027  14.604  38.438   3.354
68662W        W30028  29.114  38.842   4.134
68663W        W30029  10.788  26.089  12.426
68664W        W30030  43.378  23.634   2.691
68665W        W30031  34.605  18.089   0.894
68666W        W30032  14.110  11.371   3.813
68667W        W30033  40.993  10.348  11.606
68668W        W30034  19.596   4.314  11.451
68669W        W30035  30.917  24.667   3.162
68670W        W30036  22.550  21.051  14.398
68671W        W30037  18.166  23.635  11.459
68672W        W30038  39.906  25.684   2.284
68673W        W30039  41.923   9.180   2.829
68674W        W30040  38.442  23.647   4.180
68675W        W30041  40.894  11.299  13.938
68676W        W30042   8.691  39.905  10.555
68677W        W30043  43.956  40.872  13.001
68678W        W30044  29.155   5.257   1.424
68679W        W30045  16.175   8.748   2.854
68680W        W30046  25.711  39.868   3.851
68681W        W30047  10.785   9.719   0.922
68682W        W30048   6.207  21.620  13.526
68683W        W30049  14.593  13.301  13.947
68684W        W30050  34.471  38.997  12.012
68685W        W30051  25.182  27.113   0.892
68686W        W30052  18.256   3.253  11.439
68687W        W30053  12.780  24.502   3.380
68688W        W30054   3.249  29.497   0.340
68689W        W30055  35.450   6.797  14.487
68690W        W30056  23.530  40.447  14.900
68691W        W30057  24.057  17.280  14.885
68692W        W30058  33.920   6.233  10.479
68693W        W30059  16.210   3.269   4.686
68694W        W30060  37.515   8.823  11.444
68695W        W30061   9.362  26.558  14.868
68696W        W30062   0.459  12.328  12.395
68697W        W30063  14.173   6.383  13.313
68698W        W30064   9.227  15.622   5.289
68699W        W30065  13.629  37.352  11.051
68700W        W30066  34.555  40.345   1.305
68701W        W30067  20.169   9.780   0.949
68702W        W30068  37.898  26.644   3.785
68703W        W30069  43.772  44.494  11.462
68704W        W30070  35.873  12.815   1.781
68705W        W30071  27.158   1.292  11.444
68706W        W30072  25.218  20.767   1.450
68707W        W30073  34.428  32.972   4.315
68708W        W30074  23.489  30.923   1.349
68709W        W30075  16.072  23.598   4.720
68710W        W30076  38.374  29.952   4.655
68711W        W30077  16.789   8.253  12.867
68712W        W30078  31.072  14.748   3.385
68713W        W30079   7.859  44.327  13.803
68714W        W30080  12.785   7.840  11.030
68715W        W30081  41.320   7.342  14.384
68716W        W30082  30.529   0.314   0.377
68717W        W30083   0.397   0.815   2.245
68718W        W30084   3.913  41.467   1.339
68719W        W30085  36.409  38.454   2.824
68720W        W30086  25.094  23.102  14.979
68721W        W30087  18.250  21.734   1.215
68722W        W30088   1.892  29.060   4.341
68723W        W30089  28.152  16.300  13.984
68724W        W30090  16.667  10.362   2.713
68725W        W30091  21.204  41.996  13.054
68726W        W30092  43.326  29.062   2.849
68727W        W30093   0.764   1.335   0.941
68728W        W30094  32.119   8.371  12.824
68729W        W30095  25.574   1.931   0.453
68730W        W30096  43.499  33.397   1.221
68731W        W30097  33.104   6.385   1.720
68732W        W30098   2.721  33.530  11.558
68733W        W30099  42.846  19.081  11.986
68734W        W30100   8.322  31.079  12.414
68735W        W30101  20.623  35.875   0.822
68736W        W30102  12.693   2.830   3.220
68737W        W30103  42.472  20.696  12.438
68738W        W30104  35.358  20.218   4.298
68739W        W30105  18.261   2.721  11.449
68740W        W30106  29.058  39.900   3.634
68741W        W30107  20.574  19.133  11.450
68742W        W30108  37.532  27.033  12.891
68743W        W30109  30.983  12.766  14.457
68744W        W30110  17.263  34.527  11.392
68745W        W30111  26.137   9.193   3.273
68746W        W30112  28.056  44.442   1.737
68747W        W30113  30.542  22.659  14.334
68748W        W30114  44.487  23.590  11.987
68749W        W30115   0.475  15.120   3.818
68750W        W30116  31.576  35.043   1.386
68751W        W30117  37.509  11.303   4.235
68752W        W30118  40.537  27.566  11.030
68753W        W30119  26.175  20.658   3.173
68754W        W30120  34.538  41.352   0.729
68755W        W30121  17.597  44.499  11.988
68756W        W30122   1.291  28.486   0.419
68757W        W30123  26.152  44.879  11.401
68758W        W30124  38.998  28.138   3.271
68759W        W30125  21.738  16.127  11.521
68760W        W30126  22.643  38.448   0.396
68761W        W30127  19.222  37.393  14.887
68762W        W30128  18.089  44.370   4.631
68763W        W30129  24.543  15.156   1.906
68764W        W30130  43.939   1.372  14.369
68765W        W30131   0.783  34.535  12.956
68766W        W30132  12.760   7.886   2.333
68767W        W30133  42.842  41.986  11.578
68768W        W30134  20.178  30.640   2.419
68769W        W30135  15.652   0.864  13.934
68770W        W30136  15.733  28.459   0.367
68771W        W30137  17.687  16.076   4.754
68772W        W30138  18.703   0.283   3.358
68773W        W30139  42.314  26.043  11.470
68774W        W30140  32.511  38.380   1.210
68775W        W30141  16.148  43.453  10.555
68776W        W30142   9.173   8.691   0.287
68777W        W30143  44.501   7.403  13.055
68778W        W30144  26.703   6.769   1.808
68779W        W30145  19.652  23.641  13.981
68780W        W30146  40.524  26.967   1.909
68781W        W30147   0.755  43.358   2.748
68782W        W30148  33.441  28.679   0.863
68783W        W30149   5.901   2.935  13.978
68784W        W30150   8.258  14.802   1.879
68785W        W30151  23.220  26.579   0.845
68786W        W30152  26.524  13.164  14.870
68787W        W30153  43.490  10.684  14.775
68788W        W30154  18.578  24.192   5.202
68789W        W30155  43.971  20.552   0.328
68790W        W30156   1.238  41.861  10.615
68791W        W30157   3.342  27.504   2.378
68792W        W30158  39.355   4.209  11.018
68793W        W30159   4.292   5.329   1.782
68794W        W30160  12.167  21.172   4.314
68795W        W30161  16.160  39.377   2.759
68796W        W30162  33.593   0.457   4.743
68797W        W30163   0.478  27.552  11.938
68798W        W30164  21.751   0.289   4.202
68799W        W30165  39.317  10.840   1.780
68800W        W30166  40.002  31.428   4.335
68801W        W30167  30.637  25.519   4.354
68802W        W30168   0.279   9.818   3.366
68803W        W30169   3.901  23.513   3.332
68804W        W30170   5.863  44.938  11.861
68805W        W30171  32.965  27.475   3.368
68806W        W30172  15.658  31.954   0.409
68807W        W30173  19.180  11.153  10.517
68808W        W30174  19.764  25.179   0.480
68809W        W30175  19.236  21.048  10.583
68810W        W30176  28.111  38.450   2.214
68811W        W30177  24.193  24.077   5.114
68812W        W30178  27.058   3.328   4.774
68813W        W30179  32.942   0.841   2.236
68814W        W30180  27.018  42.491   4.191
68815W        W30181  39.491  24.532   1.832
68816W        W30182  41.889  43.382   1.854
68817W        W30183   2.453  19.194   1.714
68818W        W30184  16.195  13.765   1.422
68819W        W30185  36.497  37.392   4.818
68820W        W30186  33.568  17.164   0.812
68821W        W30187  16.171  16.086   5.083
68822W        W30188   9.837  15.690   4.642
68823W        W30189  39.980  22.512   1.904
68824W        W30190  41.926   7.310   3.718
68825W        W30191   2.789  39.469  13.982
68826W        W30192   5.819   5.204  10.439
68827W        W30193  25.539  31.059   2.760
68828W        W30194  12.742  30.449  11.473
68829W        W30195  34.920  18.112   1.228
68830W        W30196   2.722  27.167   2.397
68831W        W30197  33.401  28.469  11.986
68832W        W30198  14.224  38.499   1.339
68833W        W30199   6.316   0.312   0.473
68834W        W30200  39.991  44.497   0.835
68835W        W30201  30.016  34.025   4.653
68836W        W30202  15.631  40.401   3.681
68837W        W30203  22.104  37.905  10.622
68838W        W30204   4.849  30.972   1.903
68839W        W30205  32.896  30.978   1.215
68840W        W30206  28.577  43.971  13.333
68841W        W30207  27.067   4.311  11.460
68842W        W30208  39.926   1.902  13.826
68843W        W30209   5.217  39.993  14.276
68844W        W30210   1.953  27.986   4.719
68845W        W30211  43.815  15.238  13.860
68846W        W30212  17.076  39.416  14.943
68847W        W30213  23.612   9.309  11.946
68848W        W30214  16.614  38.018  13.931
68849W        W30215  38.968  28.953  13.063
68850W        W30216  41.531  17.652  14.310
68851W        W30217  44.282   5.227   3.858
68852W        W30218  44.369  35.996   9.929
68853W        W30219  41.030  16.288   2.350
68854W        W30220  39.398  22.504   4.758
68855W        W30221  27.976  21.668  10.536
68856W        W30222  19.187  38.479   0.843
68857W        W30223  17.612  42.385  10.921
68858W        W30224  30.919   5.226  13.052
68859W        W30225  13.714  26.016  14.955
68860W        W30226  38.997  21.125  14.961
68861W        W30227  10.188  34.876   1.727
68862W        W30228  37.069  40.444   4.280
68863W        W30229   8.273  12.798  14.784
68864W        W30230  10.265   4.361  11.967
68865W        W30231  41.876  29.068   1.275
68866W        W30232  43.819   0.248   2.741
68867W        W30233  39.549  25.635  11.010
68868W        W30234  37.472  30.473  11.084
68869W        W30235  23.661  13.616  12.903
68870W        W30236   4.300  27.467  13.850
68871W        W30237  36.569   1.898  14.359
68872W        W30238  44.302  13.632  14.837
68873W        W30239  12.233  15.104  10.486
68874W        W30240  27.063  21.706  12.011
68875W        W30241  24.708   7.807   4.651
68876W        W30242  27.180  35.413  10.896
68877W        W30243  30.628   1.377  12.835
68878W        W30244  39.342   7.680   4.163
68879W        W30245  21.696  41.486   1.448
68880W        W30246   9.886   0.248   1.352
68881W        W30247   5.295  20.614   3.320
68882W        W30248   5.211  36.898  13.544
68883W        W30249  31.015  27.666  13.826
68884W        W30250  14.634  10.674  11.956
68885W        W30251  42.855  41.957  14.007
68886W        W30252   0.409  27.085  11.126
68887W        W30253  13.177  19.268  12.538
68888W        W30254  42.818   4.795  11.045
68889W        W30255  21.529  26.066  13.349
68890W        W30256  17.062   3.724  13.045
68891W        W30257  15.267  29.995   3.736
68892W        W30258  19.649  26.168   3.790
68893W        W30259  10.672  20.673   4.332
68894W        W30260  15.803   3.924   4.259
68895W        W30261   1.406  44.369  10.956
68896W        W30262  25.487  20.632  13.822
68897W        W30263  30.434  40.462   1.718
68898W        W30264   5.265  33.541  11.949
68899W        W30265  42.814  28.109   2.809
68900W        W30266  29.517  37.399  13.981
68901W        W30267   7.823  42.938   5.161
68902W        W30268  41.030  14.598  12.543
68903W        W30269  42.284   9.270   0.269
68904W        W30270  14.245   2.883   2.697
68905W        W30271  31.409  31.552  11.526
68906W        W30272  10.687  18.124  11.429
68907W        W30273  33.481  13.739   1.300
68908W        W30274  35.460  28.121   3.845
68909W        W30275  27.469  32.513  13.036
68910W        W30276   1.731  28.114  11.971
68911W        W30277   4.223  15.195  13.314
68912W        W30278  32.040  25.064   2.673
68913W        W30279   3.353  14.758  13.953
68914W        W30280  12.733  42.969  12.493
68915W        W30281  30.106  43.442   0.846
68916W        W30282  22.192  22.058  13.022
68917W        W30283  13.209  24.569   0.892
68918W        W30284  13.648  37.504   0.885
68919W        W30285  15.171  31.597  11.396
68920W        W30286   0.481  17.780   4.773
68921W        W30287  11.224  40.032  13.895
68922W        W30288  27.181   4.318   3.684
68923W        W30289  18.189  36.052   1.440
68924W        W30290   1.959   2.922  10.491
68925W        W30291  16.282  21.531   2.667
68926W        W30292  36.573  12.635  10.088
68927W        W30293  37.836  35.374  13.317
68928W        W30294  21.178   3.717  13.367
68929W        W30295  41.987  26.587   4.674
68930W        W30296   8.357  18.258   2.350
68931W        W30297   4.780  17.667  14.839
68932W        W30298  29.616  19.634  12.539
68933W        W30299  20.618  17.089  13.979
68934W        W30300  38.344  15.641  13.976
68935W        W30301  14.596  40.353  13.933
68936W        W30302   9.317  14.124  10.064
68937W        W30303  33.955  36.356  10.467
68938W        W30304  15.097  31.978  11.889
68939W        W30305  31.972   8.262   3.822
68940W        W30306  24.003   4.428   3.640
68941W        W30307  36.387  40.905  13.885
68942W        W30308  43.478  37.404  14.889
68943W        W30309  11.368  19.154  14.346
68944W        W30310  35.080   7.394  14.976
68945W        W30311  37.061  16.645  12.010
68946W        W30312  16.314  24.482  10.571
68947W        W30313  27.959  44.420  13.841
68948W        W30314  32.112  34.038   2.208
68949W        W30315  31.138  20.245  12.065
68950W        W30316  28.481  21.211   3.210
68951W        W30317   6.892  18.641  13.320
68952W        W30318  37.525  34.913  11.868
68953W        W30319  24.492   4.302   0.403
68954W        W30320   6.886  39.389   3.176
68955W        W30321  40.932   2.408   3.782
68956W        W30322   5.418  42.427   0.421
68957W        W30323   8.165  33.540   3.184
68958W        W30324  33.018  38.461  10.466
68959W        W30325  26.112  18.617  12.490
68960W        W30326  12.642  19.572   0.360
68961W        W30327  26.603  21.141   0.372
68962W        W30328  29.443   0.448  11.883
68963W        W30329  43.986  33.043   3.200
68964W        W30330  42.899   2.922  12.454
68965W        W30331  11.304  33.556   1.245
68966W        W30332  25.623   4.440  11.881
68967W        W30333  24.136   5.930   1.323
68968W        W30334  39.398  16.174   2.312
68969W        W30335  19.570  31.905  12.967
68970W        W30336  21.582  28.965  14.365
68971W        W30337  27.519  14.334  14.936
68972W        W30338  33.385  25.992   0.927
68973W        W30339  32.424   6.748  12.965
68974W        W30340   0.441  25.218  14.277
68975W        W30341   2.240  25.142  14.343
68976W        W30342   5.218   6.367   1.352
68977W        W30343  20.745  11.279   2.826
68978W        W30344  15.121  25.035  13.913
68979W        W30345  41.357  44.498  12.891
68980W        W30346  35.599  11.693  12.898
68981W        W30347  33.450  15.653   1.387
68982W        W30348  16.583   2.723   0.817
68983W        W30349  27.513  25.027  12.497
68984W        W30350  21.650  20.681  12.884
68985W        W30351   6.387  22.137  12.067
68986W        W30352   6.795  37.991   2.341
68987W        W30353  41.320   6.255   3.306
68988W        W30354  40.306  16.611  10.889
68989W        W30355  29.174   4.215  11.108
68990W        W30356  29.020  22.574   4.736
68991W        W30357  16.246   6.411   4.186
68992W        W30358   9.284  36.435  13.473
68993W        W30359   5.889  28.629  11.472
68994W        W30360  15.808  43.990   3.632
68995W        W30361  22.208  32.970  10.996
68996W        W30362   2.410  10.672   0.771
68997W        W30363  40.315  29.954   4.605
68998W        W30364  29.449   2.311   4.122
68999W        W30365  35.965  35.601  12.376
69000W        W30366  41.391  40.344  12.495
69001W        W30367  37.450   0.414   3.830
69002W        W30368  27.691  10.177   4.778
69003W        W30369  34.486  13.683   2.356
69004W        W30370   0.974  14.134  13.447
69005W        W30371  34.453  31.416  12.883
69006W        W30372  39.926  43.274   3.301
69007W        W30373   2.370  44.884  10.624
69008W        W30374  18.660  18.256   1.755
69009W        W30375  30.466   7.377  13.049
69010W        W30376  19.603  29.027  13.914
69011W        W30377  29.510  28.663   0.383
69012W        W30378  34.574  13.117  11.962
69013W        W30379  13.702  33.877  12.540
69014W        W30380  22.592  29.012   4.201
69015W        W30381   0.493  38.924   4.144
69016W        W30382  15.762  22.227  11.894
69017W        W30383  32.540  30.510   3.661
69018W        W30384   6.408  43.821   1.286
69019W        W30385  19.059   0.443   0.753
69020W        W30386  31.487  37.534   3.635
69021W        W30387   8.218  11.172  14.891
69022W        W30388   2.326   5.897  14.387
69023W        W30389  33.925  38.868   2.826
69024W        W30390  25.137  35.042  12.394
69025W        W30391  33.936  38.935  11.389
69026W        W30392  28.493  36.898  13.958
69027W        W30393  33.975  25.543   0.782
69028W        W30394  13.275  27.692   2.340
69029W        W30395  33.070  38.548   0.264
69030W        W30396  29.002  20.095   0.323
69031W        W30397  44.377  24.534  14.445
69032W        W30398  24.159  26.194   4.810
69033W        W30399  29.426   3.801   4.685
69034W        W30400  43.776  27.647   5.602
69035W        W30401   0.949  43.456  11.958
69036W        W30402  43.954  38.898   1.298
69037W        W30403  44.808   9.258   2.410
69038W        W30404  39.834  20.113   3.767
69039W        W30405  22.094  10.269  10.993
69040W        W30406  17.724  24.509   0.820
69041W        W30407  23.992  15.610   3.375
69042W        W30408  34.081  41.814   4.180
69043W        W30409  40.850   8.405   3.825
69044W        W30410   1.413  20.618  14.962
69045W        W30411  17.205  16.791   1.784
69046W        W30412  35.416  31.481  12.538
69047W        W30413   7.245  14.614  11.508
69048W        W30414   4.926  16.674   2.691
69049W        W30415  38.392   0.418  13.915
69050W        W30416   7.276   6.791   0.764
69051W        W30417  27.506   1.952  11.055
69052W        W30418   3.847  41.403  14.782
69053W        W30419  16.161   5.792  11.974
69054W        W30420   8.283   3.902   0.246
69055W        W30421  29.991   3.234   4.228
69056W        W30422   3.428   0.834  12.061
69057W        W30423   8.215  42.416   3.860
69058W        W30424  44.847  35.594   4.797
69059W        W30425  31.467  13.186  13.399
69060W        W30426   1.892  39.975  10.591
69061W        W30427  20.254  19.592   1.289
69062W        W30428  28.498  23.508   4.747
69063W        W30429  38.948  15.758   4.202
69064W        W30430  34.466  36.943   4.288
69065W        W30431  12.808  13.649   0.731
69066W        W30432  23.595  38.392  14.441
69067W        W30433  44.824  42.421  13.460
69068W        W30434  41.318  21.550   2.182
69069W        W30435  21.724  27.572   3.199
69070W        W30436  22.144   8.337  13.351
69071W        W30437   4.319   2.285   4.352
69072W        W30438  35.397   7.294  11.005
69073W        W30439  26.121  16.192  14.890
69074W        W30440   9.770   1.262  11.076
69075W        W30441  36.924  41.406   3.791
69076W        W30442  18.168  13.771   3.764
69077W        W30443  22.649  36.436   2.901
69078W        W30444  15.096   6.392   0.313
69079W        W30445   8.840  43.330  10.557
69080W        W30446  14.643  44.996   3.248
69081W        W30447  23.502  31.927   2.841
69082W        W30448  29.586  11.653  10.643
69083W        W30449  38.043   3.257   5.196
69084W        W30450  20.213   4.448   0.418
69085W        W30451  15.599  25.505  12.579
69086W        W30452   4.369  38.939   2.668
69087W        W30453  16.692  10.219  14.388
69088W        W30454  11.145  29.591  10.930
69089W        W30455   4.911  36.078  10.573
69090W        W30456  14.806  39.820   4.604
69091W        W30457  24.072   9.365   4.718
69092W        W30458   2.931  22.558  11.506
69093W        W30459   8.326  28.512  10.968
69094W        W30460  35.411   4.780  10.914
69095W        W30461  29.171  26.518   1.878
69096W        W30462  12.174  40.935   2.807
69097W        W30463  38.878  31.075   5.157
69098W        W30464  38.969   9.826  11.996
69099W        W30465  32.929  15.300   0.936
69100W        W30466  29.648  34.373   3.185
69101W        W30467  36.480  21.540  10.899
69102W        W30468  17.589  27.589   2.858
69103W        W30469  44.368  25.154   9.975
69104W        W30470  31.615  31.460   1.226
69105W        W30471   1.290  25.602  14.972
69106W        W30472  29.175  31.984   1.272
69107W        W30473   0.951   9.345  14.466
69108W        W30474  15.085  21.138   1.294
69109W        W30475   9.312  35.585   1.896
69110W        W30476  11.333  15.270   2.289
69111W        W30477  16.199  39.377  12.093
69112W        W30478  15.731  20.646  14.940
69113W        W30479   8.282  10.307   1.762
69114W        W30480  32.464  27.042   0.263
69115W        W30481  30.561   2.809  13.977
69116W        W30482  37.930   6.263  14.380
69117W        W30483   4.318  18.691   4.317
69118W        W30484   9.337  27.602  13.535
69119W        W30485  11.668   7.184  11.400
69120W        W30486  31.460  11.700  13.496
69121W        W30487  24.561  31.919  12.503
69122W        W30488   5.347  33.522   3.361
69123W        W30489  31.005  41.419   2.322
69124W        W30490   9.680  26.592   1.383
69125W        W30491   5.259  21.179  11.043
69126W        W30492  23.205  24.574  12.433
69127W        W30493  17.108  32.405   9.524
69128W        W30494  29.960  16.626   0.821
69129W        W30495  27.481  26.537   4.620
69130W        W30496  14.303   6.834  13.903
69131W        W30497  12.678  21.646   4.272
69132W        W30498  41.891  43.795  11.595
69133W        W30499  29.940  28.169  13.320
69134W        W30500  42.965  24.551   2.347
69135W        W30501  40.458  24.617  12.975
69136W        W30502  26.627  40.491  12.048
69137W        W30503  37.840  15.696  14.390
69138W        W30504   2.273  26.625   2.786
69139W        W30505   6.710  22.058  13.425
69140W        W30506  44.794  15.288  14.815
69141W        W30507   1.462  38.420  12.553
69142W        W30508  41.800  17.252   5.135
69143W        W30509  40.918  41.992   1.727
69144W        W30510   6.917   5.687   3.652
69145W        W30511  12.756  36.517  12.907
69146W        W30512  12.665  22.105  14.808
69147W        W30513  33.930   6.343   0.351
69148W        W30514  35.957  37.903   3.674
69149W        W30515  22.537  38.501   3.791
69150W        W30516  36.861  14.675  11.002
69151W        W30517   3.323  29.637   3.828
69152W        W30518  13.175   7.402   4.308
69153W        W30519  12.318  34.401   3.736
69154W        W30520  34.404  17.592  13.004
69155W        W30521  39.333  10.302   4.257
69156W        W30522  14.667  36.979  12.488
69157W        W30523  31.546   7.201  14.406
69158W        W30524  19.770  42.507  13.826
69159W        W30525  44.827  11.288  12.847
69160W        W30526  30.523  32.926   0.366
69161W        W30527  32.554  19.190  10.529
69162W        W30528  41.475   9.827  14.324
69163W        W30529  19.048  32.578   4.313
69164W        W30530  20.707  20.759   2.833
69165W        W30531  21.128  34.084   1.699
69166W        W30532  34.435  15.189   1.877
69167W        W30533  30.116  25.179  14.895
69168W        W30534  37.031  21.084  14.836
69169W        W30535  36.480  30.413   1.834
69170W        W30536  22.010  23.613   4.209
69171W        W30537  19.649  31.416  10.607
69172W        W30538  11.736   2.397  13.423
69173W        W30539  43.355  41.377  14.401
69174W        W30540  15.787  25.649   2.248
69175W        W30541   6.206  21.240  10.616
69176W        W30542   0.366  41.997   2.182
69177W        W30543  34.552   5.357  13.365
69178W        W30544  33.890   1.894   4.203
69179W        W30545   1.941   5.408  10.917
69180W        W30546   8.284  43.451   1.318
69181W        W30547  19.654  34.915   3.792
69182W        W30548  39.822  27.513   4.340
69183W        W30549  43.875  40.374  11.068
69184W        W30550  10.747  39.023  11.066
69185W        W30551  34.466   6.897   0.256
69186W        W30552  43.490  39.921  13.421
69187W        W30553  10.660  23.620  12.510
69188W        W30554  23.109  38.930  10.965
69189W        W30555  39.913   6.915  12.866
69190W        W30556  33.883  30.061   1.882
69191W        W30557   4.341  14.141  13.894
69192W        W30558  33.041  30.142   3.206
69193W        W30559  18.688  39.822  14.831
69194W        W30560  10.863  20.142  13.924
69195W        W30561  44.872  20.166  10.496
69196W        W30562  35.056  35.996   1.295
69197W        W30563  10.168  25.982  11.549
69198W        W30564   2.913  14.108  13.424
69199W        W30565  29.647  42.303  13.912
69200W        W30566  22.026  14.605  10.455
69201W        W30567  33.547  44.460   1.308
69202W        W30568  32.059  14.331   4.705
69203W        W30569  19.051  30.069  13.052
69204W        W30570  10.674  31.448   2.208
69205W        W30571  14.128  10.731  14.951
69206W        W30572  24.995  37.999  10.562
69207W        W30573  27.523  20.218   4.300
69208W        W30574  39.360  19.046  11.405
69209W        W30575  21.535  41.999   3.167
69210W        W30576  33.410   5.249  12.945
69211W        W30577  31.512  31.109  12.023
69212W        W30578  21.020   1.855  14.927
69213W        W30579  23.501  25.030  10.436
69214W        W30580   9.181  41.516   5.184
69215W        W30581   6.299   9.861   2.882
69216W        W30582  16.256  41.945  13.946
69217W        W30583  13.304  18.728  12.960
69218W        W30584  35.077  39.524  12.373
69219W        W30585  17.148  28.002  12.580
69220W        W30586  11.831   3.865  14.873
69221W        W30587  28.027   0.380   0.856
69222W        W30588  25.000   8.849   3.730
69223W        W30589  42.936   3.871  14.889
69224W        W30590  20.669  32.036  10.131
69225W        W30591  25.623  19.230  14.300
69226W        W30592  13.120  31.561  11.423
69227W        W30593  22.143  25.128  12.398
69228W        W30594  39.998   8.890   3.168
69229W        W30595  37.344  29.497  10.939
69230W        W30596  35.101   2.896  11.068
69231W        W30597  21.605   1.832  11.493
69232W        W30598  28.181  20.210  13.389
69233W        W30599   1.874  13.167   1.887
69234W        W30600   3.355   4.420   2.859
69235W        W30601  35.552  42.852  13.032
69236W        W30602  43.003   6.247   2.832
69237W        W30603  28.974   7.241  13.365
69238W        W30604  12.212  15.758   3.224
69239W        W30605   8.231  26.078  12.965
69240W        W30606   8.685  24.095  14.389
69241W        W30607  40.465  31.582  10.519
69242W        W30608   1.285   3.858  14.427
69243W        W30609  39.513  17.225   2.730
69244W        W30610  17.634   4.801  10.587
69245W        W30611  10.838  15.686   3.828
69246W        W30612  43.353  28.542   3.294
69247W        W30613  22.203   2.417  13.308
69248W        W30614   2.747  23.661   2.767
69249W        W30615  21.584  39.471   1.330
69250W        W30616   8.176  15.283   0.797
69251W        W30617  17.567   7.399  14.976
69252W        W30618  20.237   2.299   1.314
69253W        W30619  35.992   4.787  12.870
69254W        W30620   6.681  38.823  11.887
69255W        W30621  16.718  11.330   4.779
69256W        W30622   5.778   8.183   4.267
69257W        W30623  44.948   8.662  12.543
69258W        W30624  19.701  23.211  11.540
69259W        W30625   2.400  31.111  13.796
69260W        W30626  31.084   5.313   1.288
69261W        W30627  41.505  42.407  11.048
69262W        W30628  18.566   4.267  13.835
69263W        W30629  19.068  27.983   1.420
69264W        W30630  23.185  18.281   3.266
69265W        W30631  37.504   0.754   2.235
69266W        W30632   3.880  37.900  11.919
69267W        W30633  33.004  16.111   0.752
69268W        W30634  38.490  32.424   3.776
69269W        W30635  17.176  17.629   4.147
69270W        W30636  41.924  38.550   3.798
69271W        W30637  11.802  43.906   4.773
69272W        W30638  25.058   0.760   0.253
69273W        W30639  29.583   7.324   2.341
69274W        W30640  32.632   8.816   1.694
69275W        W30641   5.911  24.675  14.341
69276W        W30642   8.330  39.934   0.964
69277W        W30643  17.737  30.589  12.062
69278W        W30644  18.753  27.022   0.329
69279W        W30645  31.093  18.207  14.414
69280W        W30646  23.515   8.243  12.058
69281W        W30647  15.209  36.931   5.121
69282W        W30648  32.441  14.592  13.379
69283W        W30649  14.144   4.357   2.293
69284W        W30650   9.268  36.986  13.042
69285W        W30651  39.526   0.950  12.090
69286W        W30652  17.604  39.462   2.758
69287W        W30653  21.029  33.397  13.907
69288W        W30654  18.129  15.151  12.501
69289W        W30655  32.434   5.215   1.405
69290W        W30656  42.379  21.024  11.041
69291W        W30657  12.753  25.658  12.409
69292W        W30658  37.471  22.550  11.455
69293W        W30659  26.954  19.705  13.831
69294W        W30660  19.181  18.561  11.535
69295W        W30661  23.985  39.916   0.740
69296W        W30662  11.166  10.719  13.004
69297W        W30663  14.629  22.660  14.457
69298W        W30664   1.475  39.923   3.152
69299W        W30665  21.536  33.408   1.846
69300W        W30666  33.038   3.820  14.316
69301W        W30667  43.335  11.366  14.513
69302W        W30668  22.586  41.407   1.305
69303W        W30669  14.595   1.415   2.771
69304W        W30670   1.951  30.162  13.850
69305W        W30671   9.196  37.539  11.868
69306W        W30672   2.796   8.172   3.864
69307W        W30673  42.441   1.879   2.366
69308W        W30674   9.253  17.796  11.889
69309W        W30675  29.434  40.443  13.828
69310W        W30676  17.557   8.748  14.029
69311W        W30677  44.312   3.783  10.894
69312W        W30678  10.373   3.346   2.731
69313W        W30679  18.750   1.326  13.518
69314W        W30680  31.437  38.536  14.369
69315W        W30681  41.310   5.375   0.810
69316W        W30682   4.424   2.357   3.365
69317W        W30683  39.037   1.465   4.312
69318W        W30684   3.736   2.747  13.419
69319W        W30685  19.204  25.128   2.705
69320W        W30686  33.977  11.179  11.547
69321W        W30687  28.085   0.274  10.512
69322W        W30688  21.527  26.610   1.879
69323W        W30689  31.507  35.091   1.716
69324W        W30690  25.603  35.555   5.262
69325W        W30691  23.703  28.982   3.652
69326W        W30692  36.071  19.281  12.036
69327W        W30693  15.107  43.489   1.292
69328W        W30694  41.956  30.956  12.890
69329W        W30695  11.676   1.845   4.205
69330W        W30696  22.608  42.914   2.283
69331W        W30697   7.737  14.829   3.810
69332W        W30698  42.419  28.983   3.859
69333W        W30699  12.611  43.482   1.225
69334W        W30700  36.381  20.055   1.884
69335W        W30701   8.840  27.631   1.903
69336W        W30702  18.772   7.389  12.840
69337W        W30703  29.043   6.894   3.680
69338W        W30704  38.471   0.263   4.269
69339W        W30705  42.522  25.061  14.796
69340W        W30706   2.720  34.891   0.405
69341W        W30707  15.799  37.482   4.744
69342W        W30708   5.917   2.315   1.862
69343W        W30709  25.061  39.536  11.975
69344W        W30710  20.204  36.884  11.513
69345W        W30711  24.197  20.698  11.958
69346W        W30712  32.027  15.746  14.398
69347W        W30713  32.590  37.539   4.675
69348W        W30714  11.165  22.008  14.314
69349W        W30715  41.919  27.111   1.745
69350W        W30716  23.009   8.221   0.737
69351W        W30717  12.797  34.041   0.423
69352W        W30718  16.612  22.742  11.373
69353W        W30719   6.875  15.184   0.914
69354W        W30720  15.608   0.430   3.164
69355W        W30721  16.621  14.708   1.741
69356W        W30722  21.186  41.949  11.108
69357W        W30723   2.281  22.708  13.328
69358W        W30724  12.222  21.145   2.838
69359W        W30725   8.684  13.712   2.216
69360W        W30726  11.838  38.840  10.932
69361W        W30727  29.553   4.342  12.994
69362W        W30728  34.374  36.875   3.683
69363W        W30729  43.384   9.304   4.798
69364W        W30730  11.860   3.944  11.909
69365W        W30731  37.989  16.115   1.395
69366W        W30732  21.206  39.464   1.931
69367W        W30733  28.130  35.854   2.869
69368W        W30734  33.488   9.692  11.989
69369W        W30735  10.361   7.826   1.929
69370W        W30736   4.347  28.444  14.360
69371W        W30737  18.174  10.827   1.769
69372W        W30738  41.871  20.032  11.941
69373W        W30739  31.453  39.905   0.366
69374W        W30740   9.748  35.941  14.411
69375W        W30741  37.894   0.751   4.161
69376W        W30742  17.062   4.291  13.970
69377W        W30743  41.297   7.312  14.861
69378W        W30744  40.011  33.508   2.200
69379W        W30745  37.474  34.385   4.212
69380W        W30746   7.880  23.668  12.847
69381W        W30747   1.304  39.947  13.991
69382W        W30748  27.950  14.729  13.489
69383W        W30749  41.470  29.143  11.399
69384W        W30750   1.750   4.227   1.744
69385W        W30751  17.081  30.935  14.867
69386W        W30752  37.025  16.799   4.192
69387W        W30753   4.222  38.886  14.011
69388W        W30754  11.679   9.796  10.994
69389W        W30755  44.373   8.306   3.731
69390W        W30756  32.909  14.197   3.831
69391W        W30757  21.687  34.092  13.794
69392W        W30758  40.333   7.392   3.384
69393W        W30759  37.888  24.066  12.939
69394W        W30760  17.071  44.815   0.476
69395W        W30761  23.136   6.791   4.790
69396W        W30762  21.179  14.280  13.046
69397W        W30763  40.308   0.388  13.404
69398W        W30764   2.851  23.527  11.575
69399W        W30765  37.530  34.083  14.990
69400W        W30766   5.894  34.384   0.310
69401W        W30767  24.982  13.245  11.887
69402W        W30768  38.022  35.594   4.614
69403W        W30769  25.144  15.310   2.214
69404W        W30770   9.254  13.803  13.331
69405W        W30771  43.323  15.632  11.030
69406W        W30772   9.188  44.753  12.470
69407W        W30773  32.012  24.071  14.822
69408W        W30774  40.477  20.076  14.808
69409W        W30775   0.844  22.006   4.623
69410W        W30776  23.603  24.712   1.298
69411W        W30777   3.380  18.744   9.976
69412W        W30778  17.728   6.921   3.164
69413W        W30779  41.532  26.205  14.417
69414W        W30780  39.889  20.649   1.842
69415W        W30781  43.920  26.024   3.326
69416W        W30782  17.264  35.014   3.718
69417W        W30783  19.165  22.107   1.906
69418W        W30784   0.978  32.596   3.171
69419W        W30785  37.564  15.818  12.922
69420W        W30786   7.372  26.587   4.678
69421W        W30787  20.613   7.190  10.552
69422W        W30788  44.871   3.937   1.317
69423W        W30789  18.559  12.827  11.597
69424W        W30790   3.821  30.426   1.285
69425W        W30791   7.348  15.124  14.910
69426W        W30792   7.208  22.250  12.571
69427W        W30793   0.412   5.725   3.274
69428W        W30794  11.831   6.726   4.795
69429W        W30795  23.528  28.546  11.593
69430W        W30796   6.820   0.471  12.362
69431W        W30797  15.315  32.548   2.282
69432W        W30798  40.307  29.079   4.349
69433W        W30799  41.490  21.139   5.088
69434W        W30800   6.763  40.055  13.841
69435W        W30801   8.726  15.304  11.965
69436W        W30802  36.378  36.428  11.885
69437W        W30803   1.297  23.016  11.481
69438W        W30804  31.420   2.932  12.924
69439W        W30805   1.916  43.969   0.446
69440W        W30806  31.455   0.921  14.949
69441W        W30807  22.067  16.168  12.567
69442W        W30808   8.670   9.204   3.293
69443W        W30809  43.922   5.736   0.892
69444W        W30810  23.205   6.278  12.496
69445W        W30811   8.263  28.106   4.682
69446W        W30812   9.753  40.006  12.058
69447W        W30813  24.530  31.062   4.644
69448W        W30814  20.153   7.390  14.342
69449W        W30815  15.237  43.828  12.037
69450W        W30816   3.283  17.612   0.391
69451W        W30817  13.822   7.382  13.960
69452W        W30818   2.767  17.098   4.684
69453W        W30819  41.373   9.381   3.632
69454W        W30820  21.055  33.891  13.984
69455W        W30821  31.582  34.873  14.440
69456W        W30822  32.075  14.753   1.268
69457W        W30823  24.069  19.595   1.358
69458W        W30824  38.054  44.293  12.973
69459W        W30825  37.832  29.949  11.475
69460W        W30826  43.837  35.539  14.463
69461W        W30827  15.327  10.158   4.601
69462W        W30828  34.409   5.897   4.215
69463W        W30829   1.842  28.063  13.417
69464W        W30830  31.923   5.761   1.811
69465W        W30831  17.689  43.379  12.529
69466W        W30832  28.459  34.497   0.446
69467W        W30833  15.684  33.527  13.910
69468W        W30834  34.988   0.887   3.163
69469W        W30835  43.858  16.655  11.070
69470W        W30836  14.820  40.525  11.549
69471W        W30837  18.588   5.752   9.965
69472W        W30838   3.800   0.417  12.054
69473W        W30839  23.612  22.518   1.265
69474W        W30840  25.073  32.902  11.391
69475W        W30841  30.418  23.602  11.001
69476W        W30842   6.262   1.964   3.165
69477W        W30843  20.642  19.168  10.548
69478W        W30844  20.169  28.561  10.629
69479W        W30845   0.852  19.686  14.485
69480W        W30846  10.200  18.738   1.294
69481W        W30847   1.925  33.917  13.974
69482W        W30848  42.950  41.976   3.765
69483W        W30849  21.710  24.696  13.347
69484W        W30850   5.215  19.273  12.918
69485W        W30851   0.905  24.150   1.753
69486W        W30852  10.762  15.652  10.901
69487W        W30853  25.702  24.689  10.907
69488W        W30854  42.010   9.806   4.785
69489W        W30855  31.932  11.788  14.985
69490W        W30856  42.783  27.144   3.268
69491W        W30857  42.993  28.539   0.396
69492W        W30858  24.154  10.878   4.171
69493W        W30859  44.419  21.702   4.347
69494W        W30860  16.254  28.961  10.574
69495W        W30861  40.809   3.453  12.477
69496W        W30862  27.536  29.583   0.830
69497W        W30863   3.428  33.907  11.859
69498W        W30864  26.552   5.855   1.898
69499W        W30865  22.119   0.941  12.530
69500W        W30866  23.556  24.511   0.290
69501W        W30867  32.132  36.894  14.770
69502W        W30868   3.927   3.852  12.835
69503W        W30869  16.604   4.780  13.927
69504W        W30870  20.741  28.026  11.933
69505W        W30871  40.453  20.138  13.990
69506W        W30872   8.186   8.281   3.736
69507W        W30873  13.714   2.335  11.084
69508W        W30874  10.185   7.896  11.384
69509W        W30875  17.698  20.189   4.803
69510W        W30876  38.530  40.387  11.433
69511W        W30877  25.145  43.985   3.246
69512W        W30878  10.174  15.734  12.025
69513W        W30879  27.135  33.404  10.955
69514W        W30880  29.015   8.837   0.949
69515W        W30881  44.856   4.325  10.531
69516W        W30882  25.538   9.810   0.880
69517W        W30883  18.104  26.617   4.810
69518W        W30884  18.595  33.600   4.141
69519W        W30885  44.427   6.292   1.436
69520W        W30886   7.182  35.104   1.824
69521W        W30887   3.236  22.124  13.921
69522W        W30888  18.285  14.275   1.828
69523W        W30889  42.482   4.744  11.592
69524W        W30890   6.727  42.988   3.154
69525W        W30891   3.769  12.342  10.568
69526W        W30892   3.366  22.698   3.177
69527W        W30893  42.450  18.183   4.667
69528W        W30894  27.532   9.832  10.515
69529W        W30895  40.044  10.775   0.861
69530W        W30896  32.959  38.416   4.322
69531W        W30897   9.213   9.773   2.872
69532W        W30898  43.492  26.582  12.015
69533W        W30899  14.604  10.737   4.182
69534W        W30900  37.535  17.749   4.190
69535W        W30901  25.658  26.505  13.437
69536W        W30902  15.760   3.955  12.411
69537W        W30903   3.743   5.372  13.334
69538W        W30904   8.691  32.604  14.907
69539W        W30905  10.289   1.798   0.896
69540W        W30906  10.701  23.183  11.426
69541W        W30907  25.149  36.987  13.990
69542W        W30908  43.513  30.573   1.862
69543W        W30909  13.675  12.185  14.810
69544W        W30910  26.013  28.158  13.510
69545W        W30911  42.337  44.324   0.306
69546W        W30912  27.953  18.704   4.833
69547W        W30913  26.554   3.770   9.986
69548W        W30914  16.700  38.526  12.896
69549W        W30915  12.785  13.628  14.396
69550W        W30916  32.519  26.491   0.874
69551W        W30917   4.770  38.039   4.117
69552W        W30918  16.569  19.194  14.286
69553W        W30919  16.256  33.573  13.516
69554W        W30920  26.661   8.709   2.786
69555W        W30921  27.096  25.712   3.822
69556W        W30922  43.282  20.685   2.806
69557W        W30923  39.023  41.994  11.513
69558W        W30924   3.828  25.688  11.041
69559W        W30925  28.453  19.650   4.284
69560W        W30926  19.091  42.300   0.918
69561W        W30927  25.033   8.804   1.806
69562W        W30928  36.531  13.303   2.247
69563W        W30929  17.259  26.169   0.423
69564W        W30930   0.841  38.529   2.317
69565W        W30931  43.455  41.498   3.832
69566W        W30932  39.540  42.805   3.255
69567W        W30933   1.298  12.361   4.307
69568W        W30934  23.514  33.397   1.359
69569W        W30935  26.556  11.795   3.681
69570W        W30936  10.865  41.828   4.760
69571W        W30937   7.203   6.209  13.954
69572W        W30938   7.857  14.617   5.257
69573W        W30939   4.789   3.769  14.897
69574W        W30940  20.699  34.430   2.305
69575W        W30941  44.825  32.558  12.362
69576W        W30942  29.656  35.070   1.338
69577W        W30943  28.092  25.601  13.531
69578W        W30944  32.439  21.675  13.007
69579W        W30945  43.780  30.067   5.178
69580W        W30946  41.334  29.485  11.960
69581W        W30947   8.663   4.853   1.708
69582W        W30948  30.982  16.204   1.826
69583W        W30949  15.704   4.298   1.258
69584W        W30950  43.864   2.767  11.903
69585W        W30951   0.376  30.015   3.328
69586W        W30952  44.793  38.470  14.480
69587W        W30953  28.107   8.325   4.815
69588W        W30954  27.448  19.148   3.300
69589W        W30955  32.079  17.620   3.752
69590W        W30956  15.105  22.162  10.640
69591W        W30957   9.846  40.432  13.323
69592W        W30958  19.707  39.938   0.823
69593W        W30959  42.491  34.609   3.255
69594W        W30960  11.851  22.101   3.246
69595W        W30961  11.259   6.871  14.841
69596W        W30962  37.512  18.579  13.035
69597W        W30963  13.637  41.477   2.797
69598W        W30964   6.875  31.069  13.953
69599W        W30965  36.591  31.605  13.023
69600W        W30966   5.847   4.235   3.730
69601W        W30967   9.332  26.123   1.313
69602W        W30968   1.901  30.502   1.784
69603W        W30969  35.974   8.871   1.934
69604W        W30970  23.576  13.154   0.294
69605W        W30971  43.815  40.456  14.343
69606W        W30972   6.850  12.240  13.002
69607W        W30973  20.682  30.516  10.962
69608W        W30974  41.026  18.609  12.972
69609W        W30975  18.156  17.666   0.796
69610W        W30976   9.787   6.862   4.263
69611W        W30977  21.123  23.602   3.636
69612W        W30978  38.934   2.874   0.426
69613W        W30979  42.900  12.265  11.577
69614W        W30980   9.750  44.394  10.984
69615W        W30981  14.297  26.180   4.824
69616W        W30982  37.466  31.979  14.820
69617W        W30983  26.573  32.430  11.077
69618W        W30984   1.844  21.711   2.220
69619W        W30985  41.935  29.556  13.470
69620W        W30986  35.947  25.978   0.330
69621W        W30987   4.731  16.113   0.389
69622W        W30988   9.283  25.504   1.377
69623W        W30989  32.950  32.450   1.363
69624W        W30990  29.000  27.660   0.728
69625W        W30991  38.057   1.976   4.813
69626W        W30992  23.160  16.619   2.313
69627W        W30993  18.637  22.641  14.018
69628W        W30994  29.064  42.474   0.955
69629W        W30995  11.325  17.075  12.485
69630W        W30996  20.240  11.752   1.410
69631W        W30997  22.050  16.761   2.290
69632W        W30998   1.971  17.092   3.805
69633W        W30999  28.471   2.291   3.168
69634W        W31000  44.421   6.297   3.846
69635W        W31001  28.186  44.335   2.760
69636W        W31002  18.689  23.508   2.344
69637W        W31003  44.987  40.961  12.067
69638W        W31004  38.069  36.868   4.242
69639W        W31005   3.813  32.527  11.078
69640W        W31006  38.826  22.013   4.323
69641W        W31007  30.619  25.482   4.690
69642W        W31008   4.348   4.229  11.988
69643W        W31009   9.217  36.077   4.736
69644W        W31010  11.351  32.082  12.946
69645W        W31011  42.844  43.499  11.873
69646W        W31012  30.511  32.479  13.869
69647W        W31013   5.284  18.289   3.707
69648W        W31014  26.055  21.676  10.583
69649W        W31015  19.571  19.097  12.516
69650W        W31016   8.862  17.091  11.935
69651W        W31017  25.707  40.958  10.480
69652W        W31018  37.407  25.064   0.458
69653W        W31019   3.792  19.229   3.349
69654W        W31020   3.228  26.179   3.864
69655W        W31021  30.570  40.005  11.572
69656W        W31022   2.910  43.955  12.535
69657W        W31023  43.963  32.448   4.284
69658W        W31024  20.634   9.184  13.475
69659W        W31025  15.089  33.123   2.368
69660W        W31026   1.468  24.136  14.959
69661W        W31027  16.606  15.733   1.287
69662W        W31028   1.404  32.939   1.720
69663W        W31029  10.314  19.254  11.391
69664W        W31030  33.396  36.482  12.877
69665W        W31031  12.159  13.212   1.432
69666W        W31032   2.845  27.139   4.712
69667W        W31033  27.964  35.925  10.019
69668W        W31034  40.916  30.619  14.820
69669W        W31035  22.246  20.145   2.879
69670W        W31036  25.084  13.784   3.762
69671W        W31037  43.914  41.828   1.320
69672W        W31038  13.305  30.109  12.095
69673W        W31039  32.939  28.052   0.471
69674W        W31040  35.480   3.951   0.756
69675W        W31041  30.639  12.622  13.816
69676W        W31042   1.887  18.746  13.544
69677W        W31043  24.707   9.766   3.277
69678W        W31044   6.726  20.669  12.089
69679W        W31045   5.368  23.594   0.302
69680W        W31046  19.167  14.764  11.010
69681W        W31047  28.546  34.103  11.418
69682W        W31048  22.093   9.683   0.319
69683W        W31049  16.592  24.561   2.688
69684W        W31050  18.092  25.642   4.773
69685W        W31051  28.056  44.485  11.406
69686W        W31052  44.970  26.532   2.749
69687W        W31053  40.404  36.069  13.800
69688W        W31054   5.847  19.283  12.368
69689W        W31055   9.277  44.833   4.649
69690W        W31056   3.945   0.848  10.631
69691W        W31057   8.837  23.080   2.864
69692W        W31058  16.673  35.516  10.969
69693W        W31059  35.411  11.227   1.326
69694W        W31060   6.743   3.884  14.899
69695W        W31061  16.571  25.108  10.436
69696W        W31062  38.478  11.164   4.710
69697W        W31063  41.326   4.416  14.016
69698W        W31064  41.535  18.752  10.539
69699W        W31065  39.381  41.977   1.336
69700W        W31066  29.551  33.555   1.865
69701W        W31067  39.534   0.313  10.983
69702W        W31068  36.083  14.725  12.364
69703W        W31069  28.674  16.634  11.468
69704W        W31070  41.325   8.232   1.336
69705W        W31071  18.597  27.103  12.353
69706W        W31072  30.618  23.163  13.339
69707W        W31073  14.590  32.611   3.695
69708W        W31074  39.845  40.940  12.550
69709W        W31075  20.523  23.072   0.382
69710W        W31076  29.053   8.797   0.282
69711W        W31077   4.831   6.238  12.094
69712W        W31078  14.620   1.810   4.810
69713W        W31079  14.316  22.206   4.203
69714W        W31080  16.264   6.225   2.251
69715W        W31081  36.914  27.038  10.446
69716W        W31082  18.583   4.221   2.822
69717W        W31083  15.182  21.597  14.843
69718W        W31084  13.796  21.253  13.512
69719W        W31085  21.243  39.852  14.806
69720W        W31086  21.110  37.379  10.920
69721W        W31087  25.218  22.114  12.824
69722W        W31088  22.206   3.800  14.393
69723W        W31089  31.579   5.195  12.003
69724W        W31090   1.786  10.263   4.780
69725W        W31091  39.874  27.991  11.497
69726W        W31092  22.625  37.955  12.493
69727W        W31093  44.848   4.365   0.405
69728W        W31094  16.287  39.342  14.813
69729W        W31095  29.547   2.938   4.119
69730W        W31096  41.464  28.446  14.315
69731W        W31097   3.404  43.824   1.309
69732W        W31098   0.471  24.998  13.867
69733W        W31099   9.168  37.006   4.773
69734W        W31100  43.396   9.365   1.231
69735W        W31101  28.174  10.200  10.090
69736W        W31102   8.333  17.692  14.846
69737W        W31103  29.161  37.996   4.722
69738W        W31104   7.808  10.364  14.829
69739W        W31105  24.627  31.436  11.005
69740W        W31106  37.034  27.103  12.868
69741W        W31107  13.251  14.735   9.665
69742W        W31108  19.762  18.667   4.687
69743W        W31109  39.931  24.636   0.852
69744W        W31110   3.875  26.185   4.151
69745W        W31111  10.805  14.121  10.473
69746W        W31112  18.729  39.049   3.779
69747W        W31113  20.130  34.097   4.224
69748W        W31114  32.885   0.431   1.299
69749W        W31115   6.361  40.303   5.313
69750W        W31116  33.389  29.151  12.048
69751W        W31117  38.867  13.311  12.418
69752W        W31118   6.710  14.708   1.342
69753W        W31119  19.765  42.472   2.358
69754W        W31120  32.522  11.761  13.899
69755W        W31121  31.064   3.935   0.345
69756W        W31122  29.928  18.681  11.570
69757W        W31123   7.334  38.950   4.318
69758W        W31124  22.068  37.960  11.993
69759W        W31125  38.019   1.734  12.928
69760W        W31126   3.422  18.296  13.501
69761W        W31127  24.663  12.793   1.913
69762W        W31128  12.679  11.758   1.262
69763W        W31129  32.428  35.947   3.264
69764W        W31130  35.460  21.204   3.225
69765W        W31131  32.062   1.900  12.469
69766W        W31132   4.781   7.768   1.805
69767W        W31133   0.824  34.101   0.848
69768W        W31134  26.610  31.555  10.630
69769W        W31135  28.975  33.519   2.712
69770W        W31136  29.953  31.982  12.498
69771W        W31137   4.936  44.930  12.488
69772W        W31138  27.039   0.388  11.388
69773W        W31139   8.390   8.243  10.428
69774W        W31140  26.525  12.302  12.078
69775W        W31141  21.227  20.706   4.238
69776W        W31142  43.985   3.427   0.865
69777W        W31143  36.569  15.804  12.066
69778W        W31144  22.249  20.205   3.833
69779W        W31145  11.127  26.982   2.310
69780W        W31146  25.656  36.856  12.457
69781W        W31147  25.137   9.665   2.303
69782W        W31148  24.711  35.570  11.864
69783W        W31149   5.788  36.041  13.340
69784W        W31150  21.147  28.468   0.361
69785W        W31151  31.435  16.261   0.945
69786W        W31152  14.225  22.568   5.184
69787W        W31153  22.059  30.042  13.818
69788W        W31154  44.829  43.353   1.753
69789W        W31155  38.847  26.578  13.482
69790W        W31156  36.931  22.517   0.756
69791W        W31157  37.354   6.350  14.309
69792W        W31158  37.927  44.341  11.542
69793W        W31159  32.541  13.794   4.836
69794W        W31160  41.011  31.024  11.549
69795W        W31161  24.022  37.936   4.350
69796W        W31162  12.788  26.473   4.668
69797W        W31163  29.988  17.091  10.540
69798W        W31164   0.984  41.314  13.049
69799W        W31165   4.739   9.238   0.732
69800W        W31166  36.449   2.907   4.347
69801W        W31167   9.860  42.986  11.417
69802W        W31168  20.210  24.014   4.696
69803W        W31169  29.545  36.359  12.073
69804W        W31170  38.341  30.077  13.995
69805W        W31171  13.303  42.869   0.833
69806W        W31172  13.347   0.897  11.388
69807W        W31173  16.797  33.910  12.830
69808W        W31174  11.344  26.112   1.841
69809W        W31175   2.368  43.940   4.330
69810W        W31176  31.005  19.048   4.713
69811W        W31177  34.010  37.470  12.473
69812W        W31178  21.708  17.229   2.900
69813W        W31179  21.518  15.638   2.337
69814W        W31180  26.984  10.857  12.460
69815W        W31181  30.986  10.847   4.314
69816W        W31182  32.536  25.997  11.031
69817W        W31183  38.045  40.911  11.534
69818W        W31184  32.133  38.489   4.114
69819W        W31185  13.350   3.887  13.956
69820W        W31186  21.602   9.665   2.737
69821W        W31187   7.896  11.128   4.713
69822W        W31188   4.730  39.512   2.874
69823W        W31189   7.224  17.737  12.415
69824W        W31190  20.744  39.986   0.858
69825W        W31191  42.030  36.552   4.330
69826W        W31192  24.558  14.722  11.385
69827W        W31193  28.034  43.403  13.000
69828W        W31194  33.463  22.165   3.781
69829W        W31195  44.472   9.773   4.772
69830W        W31196  31.453  19.241   0.881
69831W        W31197  14.814   9.795  10.611
69832W        W31198  10.162  25.698   2.263
69833W        W31199   0.882  19.632   4.209
69834W        W31200   3.414  20.061   0.382
69835W        W31201   5.704  36.873  12.426
69836W        W31202  36.045  31.452  10.548
69837W        W31203  43.508   2.426   3.354
69838W        W31204  14.131  38.335  11.989
69839W        W31205  21.570  41.801  14.285
69840W        W31206  35.438   5.848  13.914
69841W        W31207  24.086  27.471  11.426
69842W        W31208  19.125  30.600  13.011
69843W        W31209   4.310   0.388   4.668
69844W        W31210   2.752  18.192   4.341
69845W        W31211  13.132  34.094  13.420
69846W        W31212  28.174  37.339  13.508
69847W        W31213  13.119  37.913   0.459
69848W        W31214  22.008  36.935  10.929
69849W        W31215  40.414  41.020  12.851
69850W        W31216  24.546   9.732   0.268
69851W        W31217  30.520  27.973  12.865
69852W        W31218  15.264   6.213   3.372
69853W        W31219  20.672  20.206  11.020
69854W        W31220  20.590  19.626   1.725
69855W        W31221  20.032  20.725  12.916
69856W        W31222   9.285   0.816  10.959
69857W        W31223  23.529  17.729   2.203
69858W        W31224   5.811   9.371   0.904
69859W        W31225  29.516  40.436  13.394
69860W        W31226  11.234  43.001   1.323
69861W        W31227  10.333  34.904  12.907
69862W        W31228  15.623  11.207   4.340
69863W        W31229  28.008  20.170  10.155
69864W        W31230  32.571  20.083   1.343
69865W        W31231  42.916  41.302  10.019
69866W        W31232   9.373  37.339  11.466
69867W        W31233  38.365   5.835  12.971
69868W        W31234  39.351  35.505   4.820
69869W        W31235  20.546  23.185   0.909
69870W        W31236  19.179  17.707  12.951
69871W        W31237  12.254  15.790   0.281
69872W        W31238  31.485  23.233   0.302
69873W        W31239  43.767  25.084   0.826
69874W        W31240   6.413  36.384  11.892
69875W        W31241   8.207  42.924  13.528
69876W        W31242  26.101  29.535  10.615
69877W        W31243  28.637  41.908  11.043
69878W        W31244  32.506  26.969  13.476
69879W        W31245  30.018  39.952   3.230
69880W        W31246  18.772  22.075  11.430
69881W        W31247   0.260  38.005  12.362
69882W        W31248  21.527  19.220   1.336
69883W        W31249  39.435  37.926   0.459
69884W        W31250  18.295  44.971  12.500
69885W        W31251   1.805  38.054  14.859
69886W        W31252   5.295  34.921   0.811
69887W        W31253  11.717   8.197   1.275
69888W        W31254   4.868  43.922  13.932
69889W        W31255  14.739  15.289   3.851
69890W        W31256  30.942  13.307   1.920
69891W        W31257  26.085  39.460   1.387
69892W        W31258  14.620  32.106  10.504
69893W        W31259   2.937  24.599  13.941
69894W        W31260  36.528  12.240  11.436
69895W        W31261  43.794  34.088  12.525
69896W        W31262  40.954   9.193  10.939
69897W        W31263   6.779  43.326  14.952
69898W        W31264  26.208   8.277   0.445
69899W        W31265   7.902  34.083   2.271
69900W        W31266  18.643  26.648  14.299
69901W        W31267  38.530  36.483   2.281
69902W        W31268  12.828   8.663   2.839
69903W        W31269  16.174  20.168  14.464
69904W        W31270  44.265   8.849   3.859
69905W        W31271  36.351  39.990   9.505
69906W        W31272  43.291   9.234   2.763
69907W        W31273  33.544  14.136  11.509
69908W        W31274   0.295  42.798  12.002
69909W        W31275  14.327   3.323  13.425
69910W        W31276  39.027  29.465  14.446
69911W        W31277  35.007  23.122  12.949
69912W        W31278  36.021   7.251  12.504
69913W        W31279  14.262  43.883  12.507
69914W        W31280  22.504  23.202  13.453
69915W        W31281  14.715  44.773   0.422
69916W        W31282  34.041  21.254   9.646
69917W        W31283  35.857  42.872   1.300
69918W        W31284  40.851  16.266  14.496
69919W        W31285  29.173  43.882   2.417
69920W        W31286   6.412  26.089   4.306
69921W        W31287  37.959  12.819  10.567
69922W        W31288  38.035  24.023   1.224
69923W        W31289  34.099  15.670   0.964
69924W        W31290  34.049  44.874  11.059
69925W        W31291  18.570  43.934   1.374
69926W        W31292  32.904  16.278  11.425
69927W        W31293  25.162  35.905  14.837
69928W        W31294  30.452   1.795  11.902
69929W        W31295  14.619  21.197  12.083
69930W        W31296   8.754   9.384   4.245
69931W        W31297  20.691  19.133   1.872
69932W        W31298   7.335  15.787   2.807
69933W        W31299  30.143  44.852   1.297
69934W        W31300  43.381  10.196   3.866
69935W        W31301  14.268  15.639   3.228
69936W        W31302  12.131  11.812  11.919
69937W        W31303  18.224  31.953   4.135
69938W        W31304  19.552  18.564   2.243
69939W        W31305  31.081  35.909  14.798
69940W        W31306  20.572   3.380   2.361
69941W        W31307  42.514  23.616  10.571
69942W        W31308  28.163   5.285   3.366
69943W        W31309  38.366  21.160  12.405
69944W        W31310  44.458  35.940  13.444
69945W        W31311  10.760   0.446  12.839
69946W        W31312  24.487   3.234   1.719
69947W        W31313  31.535   2.927   2.718
69948W        W31314  39.536   1.337   3.787
69949W        W31315   3.422  13.810   3.352
69950W        W31316  24.636  32.544   1.400
69951W        W31317  15.700  17.144   2.714
69952W        W31318  38.882   3.448   1.451
69953W        W31319  13.816   0.864   1.748
69954W        W31320  32.417  37.565   0.284
69955W        W31321  39.466  28.478  14.987
69956W        W31322  32.133  12.611   0.956
69957W        W31323   3.230   3.785   2.244
69958W        W31324   8.183   5.714  14.916
69959W        W31325  38.966  11.834  14.354
69960W        W31326  12.855   7.381   4.134
69961W        W31327  41.330  38.523   1.343
69962W        W31328  30.103   9.390   4.714
69963W        W31329   6.328   8.791  11.082
69964W        W31330  24.616  20.559   4.701
69965W        W31331  33.127   2.911   0.301
69966W        W31332  13.218  16.086  11.396
69967W        W31333  41.818  30.595   1.812
69968W        W31334  44.892  23.131  11.987
69969W        W31335   7.246  18.056  14.490
69970W        W31336  13.804  33.057  14.481
69971W        W31337  23.686  37.909  14.968
69972W        W31338  43.995  27.601  13.347
69973W        W31339   3.809  36.864  12.916
69974W        W31340  41.513  21.653  12.039
69975W        W31341   7.388  17.678  11.004
69976W        W31342  23.639   2.882   9.657
69977W        W31343   9.819   4.892   4.198
69978W        W31344  36.587   1.350   3.737
69979W        W31345   4.274  38.391  11.870
69980W        W31346  32.939  15.257   1.902
69981W        W31347  28.116  22.669  12.067
69982W        W31348  14.722  24.036   4.349
69983W        W31349  19.211   9.886  10.597
69984W        W31350  20.656   0.764   0.823
69985W        W31351  12.761  23.179   3.788
69986W        W31352  14.606  12.824   1.343
69987W        W31353  10.682  28.479  14.382
69988W        W31354  37.016  11.355  13.939
69989W        W31355  34.106  26.182   1.723
69990W        W31356   5.828   0.479  14.428
69991W        W31357   5.726  40.922   3.660
69992W        W31358   2.302  14.720  11.004
69993W        W31359  20.241  34.467   2.395
69994W        W31360  19.248  34.391  11.125
69995W        W31361  32.614  26.698   2.206
69996W        W31362  14.734  20.093   1.410
69997W        W31363   0.433  43.454  11.582
69998W        W31364  16.163  27.111   4.152
69999W        W31365  33.414   5.263  11.474
70000W        W31366  19.658  19.698   0.867
70001W        W31367  43.840  30.946   2.798
70002W        W31368   8.162   7.793  10.573
70003W        W31369   9.190   3.410  12.559
70004W        W31370  16.713  40.506   2.277
70005W        W31371   9.867  42.330   2.317
70006W        W31372  40.364  13.752  12.339
70007W        W31373  42.470  17.686  14.976
70008W        W31374  11.159  12.610   4.825
70009W        W31375  36.391  34.935   0.442
70010W        W31376   6.251  24.625   4.145
70011W        W31377   5.861  15.087  10.511
70012W        W31378  19.778  44.491  14.502
70013W        W31379  12.802   2.326  13.536
70014W        W31380  22.669   8.753  10.952
70015W        W31381  23.678  23.687  12.047
70016W        W31382   8.851  30.927   2.245
70017W        W31383  28.003   1.763   1.378
70018W        W31384  14.209   3.878  10.503
70019W        W31385   4.445  14.705  11.124
70020W        W31386  22.076  40.950  13.025
70021W        W31387  38.498  17.666   4.280
70022W        W31388  15.734  14.281   4.640
70023W        W31389  38.496  21.132  10.547
70024W        W31390  20.268  39.442   0.417
70025W        W31391   4.380  24.228   1.826
70026W        W31392  15.731  28.547  14.507
70027W        W31393  37.486   1.303   4.350
70028W        W31394  10.757  40.440   4.181
70029W        W31395  29.545  35.992   2.816
70030W        W31396   1.852  39.016   0.889
70031W        W31397   9.706  10.849  10.610
70032W        W31398  24.723   4.397   3.352
70033W        W31399  44.282  17.066   1.790
70034W        W31400  11.708  41.303  12.559
70035W        W31401  31.920  31.132   3.744
70036W        W31402  18.211  27.667   4.683
70037W        W31403  22.043  23.544  10.549
70038W        W31404  30.949  27.526   1.869
70039W        W31405  28.665   2.394  10.906
70040W        W31406  40.878  36.944   3.647
70041W        W31407  12.637  31.579   1.818
70042W        W31408  19.150  44.374   0.391
70043W        W31409  43.850  41.443  12.551
70044W        W31410   7.682   6.707  14.984
70045W        W31411  21.138  15.688   1.812
70046W        W31412   8.253  41.874   1.240
70047W        W31413  41.355   9.350  14.830
70048W        W31414  27.981  17.260   4.248
70049W        W31415  15.771  13.180  10.133
70050W        W31416  19.113  30.974  10.634
70051W        W31417  22.585  21.219   4.191
70052W        W31418   1.748  35.472   3.823
70053W        W31419  38.064   9.167   0.867
70054W        W31420  21.259   7.862   4.673
70055W        W31421  29.014  20.179  12.893
70056W        W31422  19.129   0.379  11.909
70057W        W31423  10.222   1.772  11.038
70058W        W31424  30.143  34.409  13.958
70059W        W31425  37.377  37.948  11.863
70060W        W31426  11.174   1.281  13.457
70061W        W31427  16.242   8.839   4.791
70062W        W31428   1.857  28.624  10.473
70063W        W31429  33.927  22.013   1.283
70064W        W31430   6.884  31.436  13.507
70065W        W31431  44.382  23.499  14.468
70066W        W31432  18.149  21.017  12.352
70067W        W31433  39.375  40.830   4.218
70068W        W31434  33.465  10.165   5.093
70069W        W31435  44.928  43.320   0.914
70070W        W31436  14.212   4.341   0.412
70071W        W31437  32.405  25.525  13.387
70072W        W31438   5.806  27.947  13.423
70073W        W31439  10.634  26.058  14.294
70074W        W31440  43.274  24.677  11.114
70075W        W31441  21.154   8.826  10.936
70076W        W31442  43.769  35.472   3.793
70077W        W31443  42.513  30.454   3.180
70078W        W31444  35.896   3.888  14.275
70079W        W31445   0.955  30.628   1.790
70080W        W31446   6.915  10.162  11.951
70081W        W31447   1.379  13.128   4.268
70082W        W31448   2.865  19.658  11.932
70083W        W31449  26.089   8.837   4.197
70084W        W31450   7.725  24.661  14.467
70085W        W31451  41.452  22.102   4.673
70086W        W31452  11.331   5.730  11.407
70087W        W31453  21.639   1.293  11.577
70088W        W31454  43.847  33.434   1.242
70089W        W31455  16.627   4.739   1.267
70090W        W31456  34.603  11.664   4.656
70091W        W31457  15.084  16.161  13.820
70092W        W31458  35.088   4.350   4.723
70093W        W31459   7.824  33.429  11.121
70094W        W31460  29.102  15.134  13.951
70095W        W31461  40.964  21.603   1.871
70096W        W31462  44.838  39.316  12.059
70097W        W31463   9.814  18.167   3.217
70098W        W31464  35.385  43.398   2.808
70099W        W31465  14.339  23.513  11.935
70100W        W31466   6.411  17.081  11.935
70101W        W31467  27.600   1.298  12.829
70102W        W31468  16.710  16.076  14.936
70103W        W31469  27.164  15.635   4.224
70104W        W31470  29.578  27.661   1.352
70105W        W31471  29.979  31.539  13.863
70106W        W31472  20.543  32.925   1.839
70107W        W31473  29.613  35.976  11.009
70108W        W31474  37.862  33.502   1.427
70109W        W31475  14.771  16.085  11.986
70110W        W31476  23.547  25.095   2.217
70111W        W31477  12.819  24.066  14.779
70112W        W31478  26.462  27.546   1.410
70113W        W31479   7.893   6.685   1.732
70114W        W31480  32.496   9.183  11.457
70115W        W31481  16.602  39.946  13.508
70116W        W31482  35.047  39.410   4.174
70117W        W31483   5.842  24.666  11.913
70118W        W31484  10.676  28.947  10.411
70119W        W31485   1.472  18.155   0.910
70120W        W31486  11.753   9.739   0.819
70121W        W31487   4.445  34.912   3.158
70122W        W31488   8.166  27.522   2.213
70123W        W31489  29.443  11.830   2.199
70124W        W31490   6.327   2.832   5.156
70125W        W31491  21.534   0.955  10.446
70126W        W31492   0.796   4.714  10.408
70127W        W31493  30.516   1.433   4.288
70128W        W31494  18.762   5.337   2.869
70129W        W31495   2.433  39.012  12.912
70130W        W31496  19.580  36.515   1.442
70131W        W31497   0.975  31.124  14.316
70132W        W31498   4.877   2.359  12.960
70133W        W31499  29.106  35.483   3.721
70134W        W31500   0.766  39.987   0.881
70135W        W31501  41.927  11.642  14.023
70136W        W31502  24.713  43.014   3.180
70137W        W31503  13.605  35.908   4.629
70138W        W31504  24.610  33.893   1.817
70139W        W31505  33.102  17.186   2.355
70140W        W31506  11.318  35.855  11.512
70141W        W31507  40.490  34.456  14.865
70142W        W31508  31.589  38.028   3.329
70143W        W31509   7.378  11.699  13.379
70144W        W31510  15.586   5.216   0.860
70145W        W31511  44.451  11.854  13.383
70146W        W31512  26.104  19.717  13.416
70147W        W31513  22.172  12.798  12.463
70148W        W31514  11.370  16.093   4.192
70149W        W31515  30.141  42.825  12.077
70150W        W31516   2.252  32.435   2.876
70151W        W31517  15.772   4.871   2.334
70152W        W31518   3.727  16.665  13.341
70153W        W31519  10.830  24.513  12.991
70154W        W31520   8.702   5.889   4.152
70155W        W31521  32.538  19.072  13.344
70156W        W31522   5.739   1.371   3.804
70157W        W31523  39.317  26.544  12.848
70158W        W31524  18.081  37.534   2.832
70159W        W31525  16.621   2.374  11.557
70160W        W31526  11.166  26.060   2.897
70161W        W31527  10.729  14.297  14.931
70162W        W31528  19.640  21.595   0.288
70163W        W31529  18.072  12.340   2.284
70164W        W31530  43.945  10.761   3.225
70165W        W31531  39.511  29.918   4.350
70166W        W31532  40.878   8.365  10.488
70167W        W31533   4.392  20.641   0.873
70168W        W31534  34.386  13.637  13.383
70169W        W31535   2.961  42.524   0.474
70170W        W31536   2.956  43.301   0.875
70171W        W31537  39.405  19.600  11.439
70172W        W31538  38.393   8.834   0.876
70173W        W31539  21.666   7.846   3.642
70174W        W31540  31.906  27.547   3.385
70175W        W31541   0.962  33.539   5.269
70176W        W31542  18.101  26.696  12.507
70177W        W31543  25.071  32.959  14.872
70178W        W31544  13.645  35.427  14.978
70179W        W31545  33.976   9.788  10.451
70180W        W31546  16.280  16.673  14.803
70181W        W31547  20.548  32.108  11.422
70182W        W31548  12.841   5.394   2.218
70183W        W31549   2.913  36.562  12.845
70184W        W31550   6.879  10.761   0.460
70185W        W31551   2.299   0.866  13.821
70186W        W31552  44.402  38.886  10.514
70187W        W31553  42.473  22.048   3.772
70188W        W31554  38.018  23.533  13.854
70189W        W31555   7.692  24.148   3.814
70190W        W31556  31.432   9.646   4.190
70191W        W31557   3.227  15.661   0.360
70192W        W31558  33.069  14.715  11.094
70193W        W31559   1.256  30.117   0.318
70194W        W31560  23.643   5.815  12.503
70195W        W31561  42.378  24.576   3.296
70196W        W31562  20.682  25.667  14.894
70197W        W31563  13.315  41.872  12.898
70198W        W31564  26.531  38.535   1.356
70199W        W31565  27.977  43.479   0.330
70200W        W31566  43.872  40.369   0.273
70201W        W31567  33.013  40.989  13.390
70202W        W31568  11.622  17.185  10.589
70203W        W31569  38.024  41.483  12.988
70204W        W31570  22.519  31.912  11.402
70205W        W31571   8.864  24.576   0.785
70206W        W31572  13.270  24.014   0.848
70207W        W31573  40.865   8.875   1.350
70208W        W31574  13.822  33.958   0.806
70209W        W31575  42.894  11.770  14.852
70210W        W31576  34.544  15.778  14.469
70211W        W31577   5.917  14.606   9.511
70212W        W31578   1.463  20.566   4.311
70213W        W31579  36.370  13.642  12.040
70214W        W31580   4.844  27.521  11.518
70215W        W31581   6.413  32.950   0.814
70216W        W31582   5.409  40.835  11.521
70217W        W31583  17.703  29.636   3.705
70218W        W31584  36.515  35.412  11.995
70219W        W31585  12.264  29.093  11.483
70220W        W31586   1.478   6.823   4.746
70221W        W31587  18.565  32.934  10.470
70222W        W31588  23.190  26.532  14.307
70223W        W31589   7.822  25.141  10.938
70224W        W31590  21.736  41.505   3.367
70225W        W31591  43.403  44.787  12.845
70226W        W31592  28.500  23.545  14.840
70227W        W31593  27.667  37.578   0.399
70228W        W31594   3.861  25.167  11.907
70229W        W31595  14.815  25.100   5.133
70230W        W31596  41.999  42.358  11.873
70231W        W31597  11.301  16.593  13.439
70232W        W31598  39.815  19.223  11.570
70233W        W31599  13.827   3.371   2.275
70234W        W31600  24.033  35.468  13.485
70235W        W31601   0.466  24.625  14.901
70236W        W31602  15.235   0.769  10.435
70237W        W31603   2.894  38.331   2.803
70238W        W31604  27.079  35.009   4.229
70239W        W31605  22.539  24.135  10.511
70240W        W31606  17.738   7.819   1.396
70241W        W31607  14.159  11.684  10.982
70242W        W31608  26.559  26.463  14.875
70243W        W31609   8.250  28.026   2.304
70244W        W31610   8.288  39.380   1.826
70245W        W31611  30.016  15.216  12.443
70246W        W31612   7.669  43.989   3.346
70247W        W31613   9.262  36.957   3.258
70248W        W31614  39.949  22.690  11.126
70249W        W31615  15.296   4.245  10.968
70250W        W31616  35.596  32.610  13.012
70251W        W31617  22.567  12.811   5.131
70252W        W31618   0.768  33.916   0.251
70253W        W31619  25.208   7.364   2.289
70254W        W31620   1.462  36.537  11.077
70255W        W31621  13.767  26.652  14.329
70256W        W31622   3.423  23.542  10.437
70257W        W31623   9.709   1.977  12.906
70258W        W31624  38.884  34.443  11.931
70259W        W31625   9.310   5.395  11.102
70260W        W31626  28.021   5.262   1.361
70261W        W31627   5.248  17.612  12.058
70262W        W31628  22.562  39.551  11.008
70263W        W31629  41.970   6.712   2.671
70264W        W31630   0.980  43.490  13.393
70265W        W31631   5.383  16.183  11.500
70266W        W31632  37.575  34.590  13.800
70267W        W31633  28.643   2.827   2.275
70268W        W31634  34.506  33.611  10.928
70269W        W31635  32.106  42.457  11.588
70270W        W31636  30.987  22.162  11.564
70271W        W31637  39.499  35.071  11.489
70272W        W31638  39.022  21.622  13.874
70273W        W31639   2.265  36.473   2.862
70274W        W31640  13.188  34.451  10.618
70275W        W31641   1.469  26.496   9.642
70276W        W31642   1.758  21.618  14.949
70277W        W31643  37.447  41.471  13.391
70278W        W31644  36.016   7.726   0.387
70279W        W31645   1.316   2.450  13.968
70280W        W31646   9.803  32.581   1.932
70281W        W31647  27.161  20.760  11.022
70282W        W31648   3.741  19.560   3.376
70283W        W31649  17.253   1.329  14.892
70284W        W31650  17.777  18.780   2.901
70285W        W31651  28.572  16.723   3.778
70286W        W31652   9.327   5.754  12.826
70287W        W31653  42.468  25.557  11.900
70288W        W31654  23.727  17.664  11.111
70289W        W31655  24.486   5.224   1.442
70290W        W31656  44.479   4.895   0.336
70291W        W31657  17.112  44.927   4.834
70292W        W31658   5.716  15.624   2.688
70293W        W31659  16.744   3.383   1.220
70294W        W31660  44.262  21.095  10.552
70295W        W31661  18.600   2.755   2.782
70296W        W31662  33.049  37.838   2.871
70297W        W31663  27.484  43.426  10.609
70298W        W31664   8.699  44.433   5.319
70299W        W31665  30.993   6.207   0.784
70300W        W31666  29.940  22.033  11.909
70301W        W31667   4.857   6.200  11.478
70302W        W31668  27.471   3.248   0.890
70303W        W31669  25.586  30.083   1.920
70304W        W31670  39.847  19.149  10.437
70305W        W31671  13.667   3.444   1.820
70306W        W31672   5.414  42.789   5.224
70307W        W31673   9.351  42.968   2.718
70308W        W31674  12.281   1.735  13.837
70309W        W31675  40.899   8.762  11.493
70310W        W31676   6.764  10.246   3.280
70311W        W31677  37.552   9.649  12.577
70312W        W31678   3.772  41.333  13.961
70313W        W31679  16.796  15.803   2.890
70314W        W31680  17.115  42.326   1.852
70315W        W31681   9.650  35.392   3.725
70316W        W31682  17.100  10.656  11.935
70317W        W31683  39.484   3.322  14.341
70318W        W31684  20.188  16.649  10.927
70319W        W31685   9.331  12.142  13.996
70320W        W31686   7.911  30.942  14.926
70321W        W31687  21.190  39.009  10.625
70322W        W31688   0.783   7.391  12.833
70323W        W31689   2.754  25.536   1.345
70324W        W31690  32.936   6.911   1.796
70325W        W31691  41.935  35.453  10.613
70326W        W31692  40.427  16.269  10.404
70327W        W31693  12.122  11.804   0.942
70328W        W31694  44.771   2.392   0.861
70329W        W31695  37.498  44.309   4.142
70330W        W31696  23.058  38.914   2.758
70331W        W31697   3.354  28.958  13.437
70332W        W31698   0.862  18.107   3.375
70333W        W31699   3.370  20.706   0.786
70334W        W31700   6.247   5.235   3.848
70335W        W31701  21.067  26.594  14.448
70336W        W31702  18.744  20.046   0.790
70337W        W31703  19.125  23.203  12.934
70338W        W31704  27.550  42.777  12.948
70339W        W31705  38.906  27.541   0.259
70340W        W31706  34.465  13.776  11.613
70341W        W31707   7.273  10.827  13.038
70342W        W31708   0.434  20.263   1.716
70343W        W31709  36.849  24.072   1.932
70344W        W31710  17.101  38.010  14.471
70345W        W31711  43.811  35.473  11.398
70346W        W31712  34.074  14.215   0.371
70347W        W31713  38.471  31.600  14.288
70348W        W31714   8.896  38.348   4.819
70349W        W31715  26.997  27.020   0.890
70350W        W31716  23.207  14.806  14.465
70351W        W31717  17.585  20.165   0.259
70352W        W31718  13.146   8.395  11.466
70353W        W31719  36.064   2.377  12.944
70354W        W31720  43.967  15.632   0.257
70355W        W31721  39.979  20.666  14.359
70356W        W31722  28.047  31.505   2.402
70357W        W31723  38.327  29.486   1.922
70358W        W31724  14.263  12.154  14.488
70359W        W31725  36.515  38.072  14.450
70360W        W31726  42.946  23.061  14.322
70361W        W31727   3.412  44.467  13.519
70362W        W31728  26.592  18.654   1.715
70363W        W31729  10.839  43.828  11.494
70364W        W31730   5.209  32.064  13.863
70365W        W31731   6.749  23.655  13.354
70366W        W31732  23.212  43.483  13.881
70367W        W31733  22.090  29.922   0.355
70368W        W31734  21.225   3.288  14.000
70369W        W31735   9.181  14.636  13.485
70370W        W31736   5.830  44.960   4.205
70371W        W31737  11.707  39.452  14.815
70372W        W31738  11.725  23.184   0.298
70373W        W31739   3.952  44.491  10.964
70374W        W31740  24.205  23.686  11.914
70375W        W31741  39.391   2.876   1.896
70376W        W31742   0.787  24.637  14.887
70377W        W31743  36.538  40.935  11.972
70378W        W31744  35.065  28.130  12.414
70379W        W31745  16.585  40.515   4.141
70380W        W31746  44.877  40.464  13.426
70381W        W31747  11.678  28.109  11.429
70382W        W31748  23.539  15.730  13.968
70383W        W31749  40.869  12.221  12.566
70384W        W31750  30.980   7.212   1.255
70385W        W31751  35.469   4.254  11.411
70386W        W31752  17.260  31.467  10.577
70387W        W31753  10.139  31.558   3.314
70388W        W31754  38.353  26.005  14.968
70389W        W31755  14.240  39.988  10.973
70390W        W31756  35.375  28.964   2.278
70391W        W31757  22.160  13.286   4.694
70392W        W31758  26.680   9.316   3.701
70393W        W31759  25.600  40.330  14.014
70394W        W31760  14.696   3.803   2.361
70395W        W31761  34.067  23.506   4.613
70396W        W31762   0.803  43.007   3.658
70397W        W31763  35.474  22.168  12.927
70398W        W31764  42.788  20.040   1.390
70399W        W31765  44.933  28.030  11.502
70400W        W31766   9.194  17.263  13.044
70401W        W31767  33.885  16.251  13.482
70402W        W31768  31.977   3.738   4.298
70403W        W31769  25.195  18.632   1.226
70404W        W31770  12.316  19.173  12.971
70405W        W31771  37.864  12.248   3.293
70406W        W31772  22.145  26.475   1.358
70407W        W31773   2.952  17.801  12.359
70408W        W31774  16.650   2.964   1.226
70409W        W31775  40.930  37.429   1.782
70410W        W31776   5.248   3.459  14.871
70411W        W31777  28.050  23.106  13.031
70412W        W31778  19.160  24.154  14.849
70413W        W31779  23.565  14.662  11.551
70414W        W31780  36.930  42.513  14.869
70415W        W31781  21.159  44.480  11.120
70416W        W31782   9.785   5.884  13.461
70417W        W31783  14.237  11.658  14.834
70418W        W31784  33.054  11.753   4.767
70419W        W31785  30.477  40.461  10.578
70420W        W31786  37.391  16.709   2.849
70421W        W31787  27.024  12.719   0.365
70422W        W31788  32.961   6.922  11.549
70423W        W31789  34.464  24.029   1.446
70424W        W31790  11.259  23.677  11.114
70425W        W31791  38.994  10.214   2.664
70426W        W31792  40.829  13.222   0.433
70427W        W31793  26.629   7.756   3.314
70428W        W31794  34.043  29.588   0.331
70429W        W31795  21.606  12.682   4.178
70430W        W31796  40.856  16.764  13.941
70431W        W31797  42.439  21.739  11.583
70432W        W31798   7.249  31.408  12.033
70433W        W31799  29.451  43.932  12.981
70434W        W31800  10.228  27.577  12.537
70435W        W31801  23.007  36.001   1.220
70436W        W31802   3.819   6.416   0.253
70437W        W31803  13.683  25.046   3.828
70438W        W31804  17.580  18.110  14.949
70439W        W31805  39.475  19.080   0.286
70440W        W31806  22.061   6.338  13.011
70441W        W31807  35.555  13.758  10.618
70442W        W31808  21.157  14.760  14.967
70443W        W31809  32.132  22.634   1.424
70444W        W31810  15.799  31.052   3.296
70445W        W31811  23.016  18.136  10.603
70446W        W31812   5.833  13.309   3.680
70447W        W31813  31.003  35.408   0.783
70448W        W31814   3.319  30.094  13.982
70449W        W31815   8.231  41.297  12.415
70450W        W31816  15.655  13.737  12.512
70451W        W31817   6.871  35.416   3.193
70452W        W31818  33.110  36.371  14.915
70453W        W31819  28.619  28.498  10.041
70454W        W31820   7.732  31.593   1.364
70455W        W31821  25.472   7.742   1.265
70456W        W31822  24.181  26.687   4.344
70457W        W31823   4.938  27.622   3.631
70458W        W31824  34.605   1.284   2.405
70459W        W31825  27.085  38.967  11.112
70460W        W31826  39.025  34.592  14.807
70461W        W31827  28.143  16.794   0.461
70462W        W31828  43.450  29.495  11.507
70463W        W31829   6.287  16.576   1.291
70464W        W31830   5.311  40.523  11.986
70465W        W31831  26.179  38.073   0.351
70466W        W31832  28.480  29.637   3.322
70467W        W31833  39.424  37.553   3.386
70468W        W31834   9.698  24.182  14.315
70469W        W31835   2.795  19.677   1.358
70470W        W31836  34.567   9.758   4.770
70471W        W31837  13.662   8.273  13.826
70472W        W31838  34.971   5.272   0.897
70473W        W31839  10.726  12.295   3.853
70474W        W31840  12.352  39.048   2.747
70475W        W31841  13.737  30.971  14.458
70476W        W31842  43.361   8.711   5.130
70477W        W31843  34.475  27.533  13.436
70478W        W31844  18.153   0.760  12.996
70479W        W31845  18.630  27.489   4.235
70480W        W31846   7.317  42.431   4.241
70481W        W31847  35.049   9.225   3.196
70482W        W31848  13.315  14.834  10.424
70483W        W31849   2.734   7.750  10.558
70484W        W31850  44.844  16.713   3.341
70485W        W31851  35.550  43.874  10.970
70486W        W31852   4.831  29.630   5.081
70487W        W31853  25.678  24.117  13.889
70488W        W31854  20.702   2.263   3.821
70489W        W31855  43.481  40.823   3.344
70490W        W31856   6.699  27.673  14.883
70491W        W31857  37.914  33.450  11.965
70492W        W31858  11.848   7.853   3.257
70493W        W31859  43.314   4.708   2.207
70494W        W31860   5.705  28.986   3.647
70495W        W31861  41.467  15.692  10.986
70496W        W31862  29.504  32.960   2.383
70497W        W31863   3.260   0.760   4.239
70498W        W31864  33.008  35.486   4.792
70499W        W31865  14.766  14.312   0.821
70500W        W31866  11.201   6.370   4.774
70501W        W31867  41.527  27.082  10.545
70502W        W31868   0.800  44.330  10.511
70503W        W31869  22.196  14.270   0.289
70504W        W31870   0.280  42.027   3.857
70505W        W31871  32.117  18.557   2.394
70506W        W31872  17.174  38.975  12.553
70507W        W31873  40.864  13.245   1.225
70508W        W31874   0.853  32.580  12.501
70509W        W31875  38.866   0.478   1.418
70510W        W31876  42.810   0.931  12.864
70511W        W31877   8.762  43.360   1.258
70512W        W31878  27.027   7.261   3.319
70513W        W31879  43.398  43.488   0.311
70514W        W31880  17.075  10.697  12.515
70515W        W31881   8.764  10.717  12.902
70516W        W31882  20.761  14.669   2.813
70517W        W31883  32.496  31.049   3.234
70518W        W31884  40.028  10.746  12.431
70519W        W31885   8.670  33.967  11.923
70520W        W31886  31.517  25.554   2.203
70521W        W31887   2.742  23.209   4.263
70522W        W31888  34.014  20.668  13.036
70523W        W31889  40.475  27.140   0.921
70524W        W31890  19.586   0.951   4.827
70525W        W31891  21.187  21.714  10.410
70526W        W31892  29.583   4.932   4.628
70527W        W31893  37.026  34.982   1.276
70528W        W31894  39.328  10.794   4.737
70529W        W31895  17.231  20.251   2.695
70530W        W31896  29.979  12.298  14.486
70531W        W31897  21.714  11.700  10.509
70532W        W31898  27.588  39.372  14.983
70533W        W31899   0.826  12.314   4.241
70534W        W31900   6.421  31.935  13.834
70535W        W31901  40.392  10.182  10.607
70536W        W31902   2.251  38.967   0.290
70537W        W31903   5.259  20.104   3.708
70538W        W31904  35.094  43.271  14.908
70539W        W31905   1.760  21.653   4.762
70540W        W31906   3.243  38.505   2.788
70541W        W31907  14.716  26.612  11.604
70542W        W31908  37.011  35.050   3.866
70543W        W31909   9.338  42.823   3.753
70544W        W31910  44.767  42.288   1.309
70545W        W31911   7.890  30.416   3.259
70546W        W31912  26.030  40.321   1.391
70547W        W31913  36.007  20.124   4.684
70548W        W31914  22.638  14.305   2.755
70549W        W31915  36.905  11.733   4.754
70550W        W31916  30.064  23.504   3.676
70551W        W31917  32.989  33.512   2.768
70552W        W31918  20.590  27.046  14.763
70553W        W31919  23.635  31.523   0.925
70554W        W31920  10.801  26.978   2.683
70555W        W31921  16.687  35.501  11.594
70556W        W31922  42.286  26.547  14.773
70557W        W31923  38.969  16.804  13.831
70558W        W31924  24.558  12.211  10.996
70559W        W31925   0.491  18.270  12.578
70560W        W31926  41.038  17.067   2.664
70561W        W31927  21.217  31.951  10.919
70562W        W31928  32.015   6.402  11.084
70563W        W31929  35.446  21.673  12.855
70564W        W31930   0.267  37.483   4.132
70565W        W31931  28.543  40.046   2.832
70566W        W31932   2.250   7.340   0.943
70567W        W31933   4.942  39.041   5.193
70568W        W31934   5.718  14.206  10.892
70569W        W31935  11.186  44.469  12.551
70570W        W31936  40.895  41.538   4.288
70571W        W31937  25.087  19.158   1.706
70572W        W31938  15.237  28.532   1.322
70573W        W31939  22.590  26.472  11.048
70574W        W31940   7.906  44.795  10.516
70575W        W31941   3.747  33.508   3.281
70576W        W31942  42.908  27.596  12.378
70577W        W31943   8.257  38.443  13.881
70578W        W31944  24.002  24.160  11.968
70579W        W31945  19.600  14.220   1.756
70580W        W31946   1.785   0.985  12.826
70581W        W31947  24.582  18.604   4.153
70582W        W31948  36.956  33.528  14.994
70583W        W31949  22.196  22.690  14.931
70584W        W31950  17.710  11.227  14.905
70585W        W31951   2.314  33.079  14.861
70586W        W31952  40.935   6.793   0.290
70587W        W31953  17.695  10.148   0.479
70588W        W31954  16.259  11.693   4.657
70589W        W31955  31.990   1.431  10.508
70590W        W31956  14.324  33.876  12.561
70591W        W31957  16.654  31.925  13.850
70592W        W31958   2.444  19.191   3.152
70593W        W31959  29.067  16.258  13.505
70594W        W31960   9.869  32.628   4.667
70595W        W31961   0.263   0.853   3.689
70596W        W31962  39.926  42.468  13.529
70597W        W31963   1.466  16.210  13.419
70598W        W31964   7.904  30.981  14.280
70599W        W31965  34.469   4.287  11.979
70600W        W31966  16.771  31.925  14.311
70601W        W31967   1.823  10.633   1.792
70602W        W31968  32.128  25.190  14.336
70603W        W31969  11.854   4.769  13.501
70604W        W31970  40.398  35.868   1.246
70605W        W31971  32.514  27.618   0.257
70606W        W31972  31.540   4.844  10.924
70607W        W31973  34.590  41.451  14.449
70608W        W31974  35.984  22.223   3.240
70609W        W31975  30.015  41.529  11.554
70610W        W31976  25.981   9.876  14.480
70611W        W31977  40.521  34.934   4.228
70612W        W31978   8.891  26.554  12.061
70613W        W31979  33.437  37.385   0.247
70614W        W31980  34.514  17.559   1.329
70615W        W31981  24.130  29.485  11.506
70616W        W31982  15.287  16.133   3.209
70617W        W31983  44.761  27.590   2.746
70618W        W31984   2.823  14.614  14.372
70619W        W31985   3.777  41.794  13.545
70620W        W31986  19.044  17.607  14.360
70621W        W31987  16.780  32.494   2.847
70622W        W31988   3.734  41.442   0.947
70623W        W31989  23.696  18.771  14.932
70624W        W31990  44.356  19.683  14.353
70625W        W31991   9.770   0.746  12.344
70626W        W31992   3.795   8.761   3.386
70627W        W31993  14.625  35.946   5.200
70628W        W31994  41.968  23.231  14.391
70629W        W31995  14.721  21.724  10.623
70630W        W31996  35.583  11.168  12.015
70631W        W31997  36.538  18.199   3.722
70632W        W31998  43.448  25.055   4.806
70633W        W31999  44.467   6.898   4.650
70634W        W32000  11.164  37.862  13.405
70635W        W32001   9.666  43.375   2.305
70636W        W32002  38.401  32.939  10.933
70637W        W32003   6.415   8.223   3.206
70638W        W32004  21.641  32.509   2.665
70639W        W32005   9.648  41.352   4.715
70640W        W32006   7.760   5.711   1.831
70641W        W32007  44.855  25.201  11.907
70642W        W32008   6.398  41.319  14.463
70643W        W32009   0.251  37.346  14.903
70644W        W32010  28.011  15.642  14.495
70645W        W32011   4.330  26.136   1.358
70646W        W32012  10.313  12.633  14.349
70647W        W32013   8.863  10.314   5.113
70648W        W32014  43.995  18.254   3.643
70649W        W32015   2.824  19.173  13.532
70650W        W32016  20.029  11.840  10.008
70651W        W32017  33.905  26.135   2.199
70652W        W32018   8.309  44.788   2.212
70653W        W32019  26.609  25.467  11.983
70654W        W32020   2.770  10.808   0.376
70655W        W32021   8.850   4.332   0.894
70656W        W32022   3.228  27.068   3.692
70657W        W32023  32.985  13.340  11.918
70658W        W32024   5.261  38.425   1.861
70659W        W32025  43.314  22.131  14.006
70660W        W32026   2.754   8.343   1.916
70661W        W32027   1.972   6.746   3.255
70662W        W32028  28.043  39.401   2.222
70663W        W32029  40.956  29.524   2.180
70664W        W32030  13.822  43.006  10.637
70665W        W32031  22.127   3.845  11.508
70666W        W32032   2.789  18.066   1.363
70667W        W32033  16.804  24.530  13.480
70668W        W32034  11.673   0.326  13.031
70669W        W32035  26.676  32.466  12.564
70670W        W32036   9.291  23.136   4.735
70671W        W32037   8.678  33.382   0.244
70672W        W32038  17.649  27.060  11.459
70673W        W32039  29.974  26.686   3.745
70674W        W32040  37.568   3.860   3.749
70675W        W32041  28.039   2.844  13.849
70676W        W32042  31.016   7.193  13.534
70677W        W32043  17.764   1.912  11.047
70678W        W32044  40.008   2.366  10.941
70679W        W32045  43.362  15.268   2.371
70680W        W32046  26.488   3.266  14.407
70681W        W32047  26.515  26.184   0.887
70682W        W32048   2.816  30.964  11.937
70683W        W32049   8.754  21.164   0.858
70684W        W32050  44.934  22.099   3.822
70685W        W32051  30.457  14.686   3.631
70686W        W32052  24.506  20.553   0.276
70687W        W32053  22.185  43.812   2.196
70688W        W32054   2.442  38.877   5.155
70689W        W32055  39.836   3.295   0.392
70690W        W32056  16.656  42.425  13.520
70691W        W32057  44.932  13.263  12.969
70692W        W32058  41.915   4.358  12.354
70693W        W32059   5.279  36.447  13.053
70694W        W32060  14.115  36.927  11.582
70695W        W32061   0.271  19.618   3.219
70696W        W32062  22.674  33.003   2.321
70697W        W32063  41.320  10.368  12.844
70698W        W32064  42.395  31.470   1.842
70699W        W32065  13.766   8.312  12.494
70700W        W32066  39.003  26.965  12.551
70701W        W32067   1.849  22.047   0.292
70702W        W32068  15.704  11.660  11.565
70703W        W32069  19.727  30.419  14.979
70704W        W32070  27.549   4.757   0.451
70705W        W32071   0.915   5.263   4.807
70706W        W32072  13.333   1.378  13.318
70707W        W32073  10.239  34.377  13.024
70708W        W32074  27.487  19.769  14.387
70709W        W32075  37.944  14.603  11.871
70710W        W32076  13.216  44.304  13.904
70711W        W32077  28.554  16.763  14.820
70712W        W32078  13.837   6.238  13.903
70713W        W32079   3.835  44.842   4.619
70714W        W32080  14.254   5.228  11.028
70715W        W32081  33.955  21.035   1.872
70716W        W32082  16.575  35.572   4.113
70717W        W32083   2.855  37.898  14.458
70718W        W32084  21.143  22.649  10.507
70719W        W32085  39.810   1.794   0.346
70720W        W32086  41.862  15.112  11.575
70721W        W32087  14.260  23.584  14.875
70722W        W32088  22.134  24.557  12.939
70723W        W32089   7.812  33.548   9.998
70724W        W32090  42.986  26.610  13.888
70725W        W32091  34.522  22.523   1.923
70726W        W32092   7.756  10.261   5.257
70727W        W32093   2.766  35.359   2.896
70728W        W32094  15.182   6.368  14.419
70729W        W32095   4.314  42.479  13.023
70730W        W32096  41.852  44.958  12.040
70731W        W32097  23.132   6.324  10.487
70732W        W32098   5.902   3.233   4.218
70733W        W32099  32.618   1.893  13.325
70734W        W32100  43.276  15.124  13.521
70735W        W32101  33.979  35.857  11.490
70736W        W32102   6.203  35.984  10.481
70737W        W32103  37.994  26.585  11.101
70738W        W32104  11.164  17.071  13.023
70739W        W32105  32.949  28.951  10.957
70740W        W32106  33.043   7.198   3.704
70741W        W32107   0.855  39.812  11.499
70742W        W32108   7.681  20.034  13.437
70743W        W32109   3.819  21.586   1.379
70744W        W32110   8.770  38.550  12.860
70745W        W32111  35.395  30.138  13.809
70746W        W32112   2.310  17.287  10.108
70747W        W32113  32.536  10.191  11.957
70748W        W32114  43.290  20.184  11.607
70749W        W32115  19.677  43.462  11.084
70750W        W32116   0.291   8.236  14.343
70751W        W32117  44.921  43.855   4.793
70752W        W32118  14.807   1.855   9.927
70753W        W32119   4.915  42.397   4.218
70754W        W32120  35.601  22.135   1.357
70755W        W32121   5.863  43.342  12.495
70756W        W32122  39.482  35.558   2.358
70757W        W32123  43.941   3.376  13.405
70758W        W32124   6.248  15.711  11.945
70759W        W32125  11.207  30.979   2.329
70760W        W32126  40.379  20.122  11.122
70761W        W32127  20.240   1.458   0.288
70762W        W32128  10.656  42.338   0.906
70763W        W32129  38.509  23.998   2.772
70764W        W32130  10.206  24.010   3.648
70765W        W32131   0.779  24.500   1.322
70766W        W32132  17.652  20.540  13.873
70767W        W32133  22.532  31.447   4.665
70768W        W32134  39.439  35.387  10.929
70769W        W32135  13.623  27.053   2.720
70770W        W32136   3.446  39.541   1.859
70771W        W32137   3.271  20.627  14.907
70772W        W32138  20.049  15.177   1.883
70773W        W32139  16.194  17.206  14.905
70774W        W32140  30.091  42.292   0.410
70775W        W32141  17.102  29.465   1.745
70776W        W32142   7.245  40.995   3.280
70777W        W32143  38.868   6.768   0.438
70778W        W32144  30.541  24.688   0.357
70779W        W32145  16.218  17.631   3.227
70780W        W32146  10.675  19.566  14.800
70781W        W32147  13.719  24.076   0.808
70782W        W32148  10.378  31.414  12.404
70783W        W32149  17.195  35.519  11.855
70784W        W32150  24.720  42.453  11.512
70785W        W32151  24.508  17.158  11.885
70786W        W32152  44.380  43.832  12.503
70787W        W32153  39.034   1.481   0.957
70788W        W32154  11.694  23.583   2.268
70789W        W32155  39.497  12.206   3.726
70790W        W32156  21.146  33.878   1.251
70791W        W32157   4.352  10.160  14.945
70792W        W32158   7.871   1.808  12.019
70793W        W32159  31.638  14.822   4.625
70794W        W32160  43.849  31.029  10.966
70795W        W32161  26.583  25.656   2.265
70796W        W32162  37.874  16.747  10.456
70797W        W32163  29.149   3.215  11.905
70798W        W32164  31.985  21.687   0.845
70799W        W32165   7.187   5.736  12.534
70800W        W32166  36.370  40.882   3.174
70801W        W32167   1.351  32.438  10.558
70802W        W32168   0.988  34.572   1.890
70803W        W32169  23.234  31.120   4.309
70804W        W32170  10.173  36.875  14.941
70805W        W32171   0.864   2.844   0.784
70806W        W32172   2.947  12.670   3.840
70807W        W32173  16.268  28.148  10.428
70808W        W32174  16.776  25.618   3.656
70809W        W32175  34.559  15.086   0.739
70810W        W32176  22.657  29.528   2.729
70811W        W32177  31.975  34.372   1.711
70812W        W32178  21.546  15.097  11.904
70813W        W32179  14.214  43.274  10.575
70814W        W32180  28.498  10.820  14.367
70815W        W32181  10.646  24.482  12.560
70816W        W32182   5.797  21.736   3.273
70817W        W32183  41.988  16.101  10.894
70818W        W32184  10.732   5.338   0.802
70819W        W32185   8.219  14.621  14.878
70820W        W32186  34.603  20.718  12.490
70821W        W32187  22.044  36.878   3.738
70822W        W32188   8.897   2.318   0.248
70823W        W32189  15.200  38.363  12.543
70824W        W32190   4.285  44.422   0.283
70825W        W32191   7.268   4.219  14.291
70826W        W32192  17.643  36.405   0.902
70827W        W32193  26.127  32.964  13.535
70828W        W32194  10.218  22.052   0.452
70829W        W32195  20.699  30.000   1.799
70830W        W32196  21.669  33.129  13.051
70831W        W32197  28.184  19.141   4.779
70832W        W32198  26.174  31.518  11.527
70833W        W32199  31.506  31.974   4.799
70834W        W32200   3.418   1.973   3.288
70835W        W32201  40.836   2.358   0.422
70836W        W32202  34.889  41.013  14.470
70837W        W32203  38.333  14.625   4.663
70838W        W32204  32.475  24.203   0.743
70839W        W32205  14.292  27.955  13.992
70840W        W32206  32.433   1.239  12.482
70841W        W32207  34.502  44.308  13.505
70842W        W32208  39.952  18.729   3.845
70843W        W32209  28.490  20.671  14.430
70844W        W32210  33.401  17.636  12.477
70845W        W32211  36.849  34.896  14.403
70846W        W32212  42.495  39.366  14.842
70847W        W32213  33.578  28.098  13.436
70848W        W32214   3.449  33.528  12.994
70849W        W32215  25.199  13.665  13.937
70850W        W32216   0.273  18.078   0.750
70851W        W32217  10.710  20.112  14.854
70852W        W32218  19.250  34.585   3.809
70853W        W32219   4.737   0.749  13.019
70854W        W32220  11.170  21.703  10.929
70855W        W32221  31.525  31.647   2.400
70856W        W32222   2.471  40.996   1.418
70857W        W32223  42.369  37.064  13.900
70858W        W32224  11.739  30.466   1.708
70859W        W32225  20.640  27.667   4.616
70860W        W32226   7.764  42.516   3.275
70861W        W32227  36.014  38.351  10.535
70862W        W32228   6.241  44.493  11.045
70863W        W32229   1.282   8.713   1.855
70864W        W32230  32.079  22.028   3.340
70865W        W32231  29.952  11.184   0.406
70866W        W32232   1.443  40.536   1.776
70867W        W32233  36.591  43.879  11.573
70868W        W32234  14.227   0.340  14.807
70869W        W32235  25.714  27.170   3.762
70870W        W32236  27.545  38.949   2.671
70871W        W32237  43.480  17.230   2.844
70872W        W32238   8.326   2.351   1.915
70873W        W32239  21.546   6.205   0.885
70874W        W32240  31.921  20.667   1.782
70875W        W32241   2.828   1.412  11.023
70876W        W32242  31.151  11.696   2.664
70877W        W32243  15.621  16.684   2.749
70878W        W32244  37.441   7.238   1.318
70879W        W32245  15.102  13.228  10.945
70880W        W32246  19.764  13.347   2.764
70881W        W32247  26.983  11.135   4.726
70882W        W32248  15.590  30.078   2.209
70883W        W32249  14.733  23.720   3.833
70884W        W32250   0.743  44.371  10.114
70885W        W32251   2.251  18.606  12.352
70886W        W32252   3.834  19.201   1.421
70887W        W32253  35.466  27.640   2.678
70888W        W32254  21.658  39.021  14.016
70889W        W32255  39.442  11.252  13.377
70890W        W32256   2.769   2.766   4.154
70891W        W32257  14.307  13.210  11.479
70892W        W32258  13.698  16.191   4.214
70893W        W32259  41.003  17.208  10.606
70894W        W32260  16.585  29.062  10.929
70895W        W32261  32.485  16.233   0.409
70896W        W32262  42.304   1.890   1.776
70897W        W32263  30.921  34.000  12.046
70898W        W32264   3.817  27.619   1.886
70899W        W32265   3.420   0.959  12.553
70900W        W32266  12.341  10.646   4.670
70901W        W32267  34.955  35.472   3.246
70902W        W32268  37.904  31.034  14.997
70903W        W32269  22.712  36.558   5.239
70904W        W32270  23.076  12.126  13.943
70905W        W32271  39.877  36.015  13.970
70906W        W32272  40.548  39.979   0.807
70907W        W32273   2.378   7.342   1.833
70908W        W32274  18.164  21.571  11.518
70909W        W32275   7.361  16.723   2.719
70910W        W32276  14.654  22.587  10.053
70911W        W32277  40.926  39.989  14.975
70912W        W32278  12.777   8.336  11.084
70913W        W32279  41.881  22.558  13.512
70914W        W32280  39.063  27.041   2.843
70915W        W32281  31.057  28.511   3.815
70916W        W32282   0.418  28.936  12.092
70917W        W32283   4.259  41.959   1.360
70918W        W32284  16.256  34.589   0.951
70919W        W32285  15.802  32.941  14.391
70920W        W32286  13.775  12.140   0.740
70921W        W32287  11.741  18.210  10.530
70922W        W32288  23.197   9.307  12.859
70923W        W32289  27.445   6.807  14.027
70924W        W32290  31.464  38.434  12.407
70925W        W32291  19.189  39.535   1.332
70926W        W32292   2.471  20.696  11.605
70927W        W32293   4.316  25.132  10.913
70928W        W32294  30.541   0.463  11.613
70929W        W32295  23.019  29.135  14.307
70930W        W32296  26.578  34.575   4.333
70931W        W32297  20.121  19.748  14.765
70932W        W32298  42.792   9.366  12.572
70933W        W32299  29.116  31.515   0.436
70934W        W32300   8.353  35.497   3.775
70935W        W32301  18.058  11.657   0.759
70936W        W32302  10.316   4.253   2.195
70937W        W32303  27.107   7.744   4.645
70938W        W32304  28.069  30.533   4.309
70939W        W32305   7.682  17.790   3.342
70940W        W32306  44.899  11.767   2.321
70941W        W32307  15.771  25.695  13.975
70942W        W32308   0.810   9.731   2.850
70943W        W32309   8.672  42.820   1.386
70944W        W32310   7.863  12.617   2.271
70945W        W32311  35.059  27.514  11.584
70946W        W32312  22.635  16.590   4.313
70947W        W32313  34.442   2.428   2.883
70948W        W32314   8.315   3.294  13.888
70949W        W32315  20.579   2.807  11.525
70950W        W32316   7.761  11.637   4.623
70951W        W32317  32.449   5.300   1.934
70952W        W32318   8.331   9.303  12.463
70953W        W32319  10.673   1.745  12.057
70954W        W32320  40.320  36.373   2.709
70955W        W32321  27.514  24.208   3.245
70956W        W32322  32.457  13.729   3.207
70957W        W32323  21.606  28.649  11.029
70958W        W32324   9.712  29.531   3.343
70959W        W32325  43.789   4.252   1.324
70960W        W32326   4.872   6.680  14.515
70961W        W32327  29.578   4.786  14.770
70962W        W32328  38.017  19.628  12.913
70963W        W32329  14.789  28.616  11.376
70964W        W32330  15.225   3.431  11.613
70965W        W32331  21.052  42.889  13.454
70966W        W32332  24.524   6.355  11.939
70967W        W32333  39.430  14.702  13.861
70968W        W32334  39.968  31.922  10.954
70969W        W32335  16.170  28.937   2.371
70970W        W32336  36.585  31.574  12.055
70971W        W32337   2.367  38.462  10.564
70972W        W32338  37.924   4.207  13.838
70973W        W32339  28.626   1.246   0.834
70974W        W32340  40.020  19.237   2.192
70975W        W32341   5.868  33.491  12.862
70976W        W32342  35.443  25.158  13.902
70977W        W32343  39.449  34.918  10.509
70978W        W32344  37.075  41.331  13.025
70979W        W32345   2.334  24.523  13.959
70980W        W32346  38.483   5.718  12.086
70981W        W32347  30.139  17.699   3.707
70982W        W32348  12.121   7.898  14.767
70983W        W32349   0.973  37.844  12.525
70984W        W32350  39.369  34.519   4.723
70985W        W32351  16.749  14.330   2.831
70986W        W32352   9.178  43.438  10.563
70987W        W32353   5.920  10.277   2.888
70988W        W32354   4.814  23.590   1.856
70989W        W32355   2.867  36.464   4.164
70990W        W32356  30.018   2.919   0.347
70991W        W32357  35.858   2.838  10.639
70992W        W32358  10.873  13.837   1.308
70993W        W32359  38.332   0.940   3.384
70994W        W32360  21.141  15.207   1.763
70995W        W32361   0.947  26.143   3.316
70996W        W32362  27.015  22.675  11.099
70997W        W32363  28.522  41.921   3.214
70998W        W32364  19.748  29.987   2.412
70999W        W32365  27.189  41.368  12.853
71000W        W32366   6.732  19.178   3.280
71001W        W32367  19.056  17.114  12.053
71002W        W32368  12.783  14.231  14.939
71003W        W32369   3.727   4.327   1.249
71004W        W32370   2.838  27.682  14.300
71005W        W32371  29.963  27.637   0.415
71006W        W32372   4.223   9.340   1.739
71007W        W32373   0.770  19.591   3.213
71008W        W32374  25.080   8.888  11.508
71009W        W32375  37.880  34.378   1.914
71010W        W32376   8.780  35.103   5.160
71011W        W32377  10.250  17.212  11.046
71012W        W32378  38.938  34.974   1.870
71013W        W32379   8.665  23.999   4.309
71014W        W32380   6.703  21.134   0.855
71015W        W32381  27.126  35.995  13.457
71016W        W32382  26.476  34.115   3.217
71017W        W32383   6.292  37.538  11.413
71018W        W32384  17.741  24.659   4.203
71019W        W32385  38.412   3.915   2.308
71020W        W32386  26.630  22.640   2.776
71021W        W32387   9.326  42.805   1.814
71022W        W32388  34.954  36.093   2.758
71023W        W32389  20.535  20.752  10.527
71024W        W32390  41.879  17.157  12.879
71025W        W32391  33.451  31.966   5.289
71026W        W32392  14.211  40.976   4.197
71027W        W32393  18.114  22.184   2.242
71028W        W32394  35.585  31.518   3.666
71029W        W32395  17.618   9.246  10.407
71030W        W32396  25.709  43.392   4.167
71031W        W32397  16.292   0.838  14.859
71032W        W32398  12.750   7.366  14.331
71033W        W32399  31.523  39.035   3.168
71034W        W32400  36.867  34.060  11.449
71035W        W32401  10.656  19.137   3.812
71036W        W32402  28.963  36.550  13.035
71037W        W32403  19.702  21.214  10.522
71038W        W32404   2.349  12.137  12.905
71039W        W32405  37.898  20.079  13.352
71040W        W32406  25.010  38.825   1.313
71041W        W32407  34.093   2.928   2.347
71042W        W32408  26.464   1.772  14.337
71043W        W32409  20.671   8.668   1.698
71044W        W32410   0.455  24.016  11.078
71045W        W32411  38.383   3.310  10.619
71046W        W32412   7.173   8.827   1.289
71047W        W32413  22.153  22.668  14.311
71048W        W32414  36.470  18.064  12.997
71049W        W32415  30.631  43.939   4.314
71050W        W32416   2.757  42.527   3.364
71051W        W32417  30.448   2.317   4.150
71052W        W32418  40.801  28.569  14.955
71053W        W32419  15.230  21.110  12.009
71054W        W32420  24.508   6.314  10.949
71055W        W32421   1.350  30.495  12.066
71056W        W32422  43.332  43.469   0.814
71057W        W32423  16.702  22.584  10.587
71058W        W32424  39.317  39.982  14.897
71059W        W32425   0.328  37.451  14.382
71060W        W32426  32.494  26.576   4.323
71061W        W32427  43.401  25.020   4.114
71062W        W32428  17.220  35.065   0.843
71063W        W32429  33.583  37.362   3.317
71064W        W32430  15.784   8.287  12.446
71065W        W32431  37.529  22.565  11.050
71066W        W32432  13.231  19.771  13.904
71067W        W32433  13.658  26.681   1.920
71068W        W32434  22.637   1.256  14.848
71069W        W32435  28.538  27.455   9.476
71070W        W32436  30.031  39.476   4.795
71071W        W32437  15.742  12.292   1.763
71072W        W32438  13.633  12.279  11.058
71073W        W32439  32.447  21.235  13.857
71074W        W32440  10.217  16.291   1.817
71075W        W32441  44.907  17.298  12.899
71076W        W32442   5.256  20.726  10.949
71077W        W32443  41.537  20.619  12.894
71078W        W32444  10.165  26.463   3.841
71079W        W32445   6.715  25.510   3.764
71080W        W32446  28.040  34.569  11.543
71081W        W32447  23.560  16.297   3.287
71082W        W32448  17.221  22.063   0.322
71083W        W32449  28.513  41.299   1.807
71084W        W32450  19.735  31.578   4.711
71085W        W32451  30.153  40.986   4.154
71086W        W32452  43.804  28.179   9.549
71087W        W32453   0.941  41.969  11.098
71088W        W32454  36.058  10.869   3.262
71089W        W32455  33.415   9.274   3.258
71090W        W32456  17.593  32.602  12.535
71091W        W32457   6.290  12.263   0.765
71092W        W32458  35.561  37.384   1.405
71093W        W32459   0.845  10.862  11.529
71094W        W32460  14.274  16.748   2.714
71095W        W32461  11.657  16.291  11.064
71096W        W32462  41.898  25.525  11.554
71097W        W32463  10.192   3.952   3.272
71098W        W32464  17.184  31.111   1.884
71099W        W32465   3.226  20.244  10.487
71100W        W32466  43.978  33.458   3.291
71101W        W32467  14.771  15.325   2.324
71102W        W32468  30.596  37.967   0.442
71103W        W32469  26.618  33.511   3.630
71104W        W32470  39.817  27.187   2.861
71105W        W32471  13.745   5.384  10.590
71106W        W32472  25.713  10.295  10.480
71107W        W32473  21.020  23.651  12.405
71108W        W32474  30.642   8.695   3.195
71109W        W32475   3.433  18.630   1.375
71110W        W32476  40.486  33.522   3.204
71111W        W32477  39.985  15.737   4.815
71112W        W32478  38.483  12.242   3.855
71113W        W32479  34.944  13.611   3.184
71114W        W32480  44.957   3.729   0.404
71115W        W32481  16.570  24.557  14.939
71116W        W32482  30.143   0.928   2.738
71117W        W32483  38.333   2.728  13.936
71118W        W32484   4.803  29.079   0.386
71119W        W32485  28.125  14.711  11.106
71120W        W32486  28.112  26.617  12.367
71121W        W32487   6.744  11.230  11.505
71122W        W32488  22.212  18.662  14.865
71123W        W32489  17.618  35.939  10.965
71124W        W32490  24.543   9.798  14.001
71125W        W32491  11.250   9.776   3.283
71126W        W32492  11.269  39.493  14.982
71127W        W32493  38.972  19.080   0.272
71128W        W32494  22.148  27.065   1.386
71129W        W32495  22.170  17.635  13.806
71130W        W32496  24.986   6.768   3.853
71131W        W32497  14.722  34.437  14.001
71132W        W32498  28.036  30.466   3.147
71133W        W32499  20.129   0.297  11.418
71134W        W32500  12.277   9.760  13.338
71135W        W32501   5.919  17.638   0.474
71136W        W32502  11.321  19.260   3.177
71137W        W32503  34.914   3.925  14.990
71138W        W32504  19.632  11.157  11.039
71139W        W32505   7.379  29.540   0.370
71140W        W32506   7.670  30.420  11.443
71141W        W32507  39.007  12.692  11.886
71142W        W32508  37.528  36.590  13.454
71143W        W32509  43.303   8.228   2.819
71144W        W32510  43.874  34.375   4.147
71145W        W32511  32.451   8.726  14.281
71146W        W32512  43.337  21.193  11.096
71147W        W32513  34.582  42.908   3.649
71148W        W32514  22.520   1.411   1.731
71149W        W32515  38.520  13.654   0.403
71150W        W32516  21.640  30.466   1.382
71151W        W32517  18.759  42.837  13.418
71152W        W32518   6.418  33.589   3.714
71153W        W32519  20.661  12.769  12.537
71154W        W32520  24.699  35.885  12.526
71155W        W32521  13.266  40.527  12.499
71156W        W32522  21.544  33.930   1.303
71157W        W32523  40.469  35.460   1.869
71158W        W32524  30.949  25.048   1.214
71159W        W32525  25.005  14.699   2.266
71160W        W32526  43.987  26.153   4.660
71161W        W32527   3.410  19.162  14.297
71162W        W32528  12.619  36.951  11.052
71163W        W32529  18.565  34.025  13.806
71164W        W32530  31.578  30.109  13.472
71165W        W32531  22.681  36.842   3.746
71166W        W32532  32.393  36.534   2.754
71167W        W32533  16.309  24.055  13.490
71168W        W32534  21.258  44.885   4.655
71169W        W32535   4.347   2.953   5.263
71170W        W32536  22.206  25.497   4.679
71171W        W32537  33.081  41.007  12.012
71172W        W32538  19.263  21.084   0.404
71173W        W32539   7.701  37.421   1.830
71174W        W32540  31.645  39.463   4.194
71175W        W32541  11.746  19.671  13.949
71176W        W32542   9.300  10.293  13.062
71177W        W32543  26.645  30.037   4.267
71178W        W32544   3.330  37.893  12.559
71179W        W32545  23.558  35.976  14.984
71180W        W32546   0.812  37.420  12.937
71181W        W32547  41.813  39.447  13.823
71182W        W32548  28.471  44.758  12.523
71183W        W32549  35.967  30.120   0.408
71184W        W32550  14.243   6.249  14.822
71185W        W32551  31.929  38.876   2.730
71186W        W32552  30.138  33.543   0.766
71187W        W32553  27.527  33.051  12.407
71188W        W32554  16.608  25.124  11.490
71189W        W32555  23.506   8.775   4.806
71190W        W32556  22.584  17.711   1.781
71191W        W32557  35.926  41.954  11.375
71192W        W32558  19.226  34.877   3.159
71193W        W32559  11.224  35.002   0.323
71194W        W32560  39.964  34.540  12.525
71195W        W32561  15.736  13.337   4.211
71196W        W32562   4.703  30.591  11.043
71197W        W32563  10.705  15.329   2.682
71198W        W32564  39.968  39.452  13.479
71199W        W32565  40.478  40.039  14.030
71200W        W32566  12.743   7.835  14.380
71201W        W32567  19.564   2.783   0.473
71202W        W32568  35.102   2.901  12.038
71203W        W32569   7.333  11.754   2.220
71204W        W32570   9.863  26.587  11.490
71205W        W32571   8.207   0.452   3.811
71206W        W32572  36.558  12.350   1.768
71207W        W32573  37.481  33.383   5.084
71208W        W32574  19.055  40.045  14.483
71209W        W32575  23.143  27.565  11.073
71210W        W32576   4.823  30.441   1.443
71211W        W32577  16.289  34.577   1.721
71212W        W32578  33.460  34.956  13.881
71213W        W32579   9.805   3.287   2.765
71214W        W32580  22.503  17.111   0.838
71215W        W32581  32.549  35.448   4.763
71216W        W32582  18.117  17.146  14.767
71217W        W32583  18.277  36.850  13.791
71218W        W32584  35.485  40.454  13.890
71219W        W32585   6.196   4.364   3.350
71220W        W32586  36.391  29.047   3.211
71221W        W32587  20.142  43.380  12.405
71222W        W32588  22.727  43.892  14.285
71223W        W32589  28.066  31.055   5.100
71224W        W32590  18.671  40.365  11.862
71225W        W32591   2.393  12.299  11.000
71226W        W32592  21.174  36.449  13.858
71227W        W32593  37.957   9.277   3.185
71228W        W32594   5.331   9.849  12.826
71229W        W32595  20.599  11.341  13.966
71230W        W32596   7.280  40.962  12.032
71231W        W32597  12.838  26.547   9.979
71232W        W32598  18.201  42.307   4.222
71233W        W32599  23.237  14.124   0.768
71234W        W32600  12.124  17.555   2.678
71235W        W32601  25.204  29.146   1.776
71236W        W32602  17.674  27.072  13.034
71237W        W32603  35.872  37.372   2.729
71238W        W32604  33.620  29.621   4.281
71239W        W32605  14.796  15.125   1.279
71240W        W32606  18.560  15.260   2.718
71241W        W32607  39.821  19.612   3.327
71242W        W32608  16.116  42.327   3.784
71243W        W32609  34.874  26.671  13.044
71244W        W32610  41.445  35.944   4.782
71245W        W32611  26.989  18.102  12.909
71246W        W32612  21.238   8.710  14.764
71247W        W32613  13.802  44.446   4.251
71248W        W32614  21.048  32.018  14.482
71249W        W32615   5.743  20.272  12.006
71250W        W32616  27.546  28.097   1.869
71251W        W32617  26.640  10.246   2.692
71252W        W32618  34.459  23.503  12.883
71253W        W32619  20.085  43.962  14.793
71254W        W32620  23.003   8.363  11.899
71255W        W32621   0.840   8.787  12.534
71256W        W32622   0.856   4.808   4.757
71257W        W32623   7.405  35.099   2.260
71258W        W32624  19.049  33.486   1.299
71259W        W32625  23.058  27.662   5.633
71260W        W32626  27.687   0.278  14.438
71261W        W32627   3.345  10.213   1.814
71262W        W32628  28.635  41.409   4.716
71263W        W32629   1.873  11.682  11.506
71264W        W32630  34.480  29.613   2.288
71265W        W32631  12.782  35.409  11.014
71266W        W32632   5.720   4.931   5.310
71267W        W32633   8.336  33.970   3.185
71268W        W32634  11.320  10.824  13.355
71269W        W32635  30.999   8.291  14.334
71270W        W32636  39.346  13.768   0.331
71271W        W32637   7.830  17.254  10.978
71272W        W32638  21.252  35.961   4.706
71273W        W32639   1.271  23.989  12.836
71274W        W32640  13.106  11.860   3.750
71275W        W32641  12.641  26.602   1.258
71276W        W32642  15.093   4.350   0.741
71277W        W32643   1.304  40.843   2.344
71278W        W32644  22.538  30.149   2.841
71279W        W32645  41.933  36.356   3.661
71280W        W32646  13.120  14.311   2.884
71281W        W32647  43.840  37.451  14.840
71282W        W32648  17.091  41.390  11.004
71283W        W32649  43.444  14.223  11.051
71284W        W32650  36.577   8.765  14.456
71285W        W32651  15.164  32.413  11.602
71286W        W32652  26.569   1.268  14.759
71287W        W32653  38.015  27.130   0.813
71288W        W32654   0.793  31.093  13.999
71289W        W32655  19.239  17.619  13.402
71290W        W32656  40.327  25.169   2.771
71291W        W32657  30.074  19.593  13.317
71292W        W32658  11.330  15.610   0.249
71293W        W32659   0.377   5.262   0.944
71294W        W32660  10.759  27.469  11.484
71295W        W32661  21.541  36.555  11.038
71296W        W32662  15.120  43.325  13.880
71297W        W32663  35.088   4.701   0.922
71298W        W32664  24.588   2.884  14.959
71299W        W32665  34.940  29.069   3.259
71300W        W32666  12.765  17.778   0.466
71301W        W32667  27.621  15.122  11.927
71302W        W32668  23.693  41.533   2.839
71303W        W32669  17.571  34.967  12.061
71304W        W32670  36.844   0.290  14.275
71305W        W32671  44.504  38.326   4.827
71306W        W32672  16.303  19.141  13.461
71307W        W32673  14.297  24.220   0.252
71308W        W32674   7.676  13.165  12.514
71309W        W32675  38.559  27.638  12.535
71310W        W32676  18.124  34.514   3.770
71311W        W32677  22.182  12.705   2.332
71312W        W32678  15.804   6.225  13.859
71313W        W32679  33.610  21.174  13.454
71314W        W32680  30.499  26.185   3.328
71315W        W32681  11.788  20.230  14.389
71316W        W32682  28.933  31.589   2.408
71317W        W32683  35.413  40.046   1.735
71318W        W32684  29.932  40.454   1.925
71319W        W32685  24.697  24.628   2.845
71320W        W32686  20.584  22.617  14.973
71321W        W32687  34.490   6.234  12.560
71322W        W32688  13.686  23.491  13.854
71323W        W32689   8.717  44.813   0.288
71324W        W32690   2.948  12.821   2.890
71325W        W32691  30.954   4.779  11.866
71326W        W32692  12.681  25.212   1.818
71327W        W32693  23.699  31.075  12.827
71328W        W32694   4.910   2.846   1.326
71329W        W32695  21.551   6.917   0.440
71330W        W32696   8.803  41.019   4.690
71331W        W32697  33.120   2.786   4.653
71332W        W32698  30.518  19.070  14.768
71333W        W32699  16.664  13.633   3.187
71334W        W32700   1.255  34.921   2.827
71335W        W32701  27.539  39.489  12.008
71336W        W32702  20.091  19.618  11.527
71337W        W32703  29.458  11.229   2.892
71338W        W32704  38.866  12.177  12.844
71339W        W32705  44.306  31.407   2.325
71340W        W32706  40.472  14.196  10.132
71341W        W32707  42.452  32.901  14.415
71342W        W32708  16.183  22.544   4.284
71343W        W32709  18.613  22.082   2.778
71344W        W32710  38.979   8.690  11.517
71345W        W32711   1.874  23.587  13.844
71346W        W32712  31.402  25.496  11.431
71347W        W32713  18.106  19.093   1.290
71348W        W32714   9.887  15.318  13.918
71349W        W32715  21.121  38.383   2.404
71350W        W32716  24.547  12.203  11.525
71351W        W32717  28.599  18.239   0.449
71352W        W32718  30.993   4.419   3.384
71353W        W32719   7.183  42.900  13.790
71354W        W32720  26.121  10.203   2.215
71355W        W32721  37.937  23.028  10.566
71356W        W32722   9.172  44.496  14.306
71357W        W32723  34.085  37.371   2.827
71358W        W32724  39.905  11.844   0.479
71359W        W32725   1.390  37.383  14.941
71360W        W32726  42.938  22.207   2.716
71361W        W32727  31.963  20.725   1.406
71362W        W32728   3.913  31.037   3.814
71363W        W32729   3.859  25.678  10.582
71364W        W32730  35.048  40.353  11.480
71365W        W32731  41.316  17.691   3.858
71366W        W32732   6.217  31.605  13.960
71367W        W32733  14.782  30.521   3.737
71368W        W32734  27.015  37.929   2.695
71369W        W32735  34.501  38.951   2.864
71370W        W32736  12.184   5.239   1.223
71371W        W32737  39.328  39.922   3.220
71372W        W32738  25.482  40.358   4.228
71373W        W32739  39.454  21.158  14.414
71374W        W32740  28.436  26.610  14.427
71375W        W32741  23.705  30.591  10.990
71376W        W32742  28.933   5.790   2.724
71377W        W32743  40.907  11.865  11.436
71378W        W32744  25.659   7.256   0.325
71379W        W32745  23.546  27.068  10.033
71380W        W32746  31.582  12.148   4.152
71381W        W32747  36.515  10.208  12.859
71382W        W32748  36.519  41.962  12.934
71383W        W32749  30.548  18.765   2.793
71384W        W32750  36.365  26.987   3.266
71385W        W32751   9.780  26.194   0.804
71386W        W32752   2.756   0.920   0.407
71387W        W32753  41.482  11.771  12.968
71388W        W32754  31.444  26.182  10.624
71389W        W32755   4.863  22.211  14.890
71390W        W32756  30.646  13.809  12.457
71391W        W32757  27.557   1.391  13.828
71392W        W32758  31.977  43.914  12.415
71393W        W32759  35.884   0.367   0.789
71394W        W32760   6.240  32.986  12.021
71395W        W32761  12.189  10.827  12.930
71396W        W32762  31.943   9.821  13.366
71397W        W32763   0.418  38.393   4.324
71398W        W32764  35.856  22.077  11.599
71399W        W32765  44.504  35.408  11.480
71400W        W32766  34.383  23.736  12.039
71401W        W32767  11.332   0.753   4.175
71402W        W32768  44.438  21.241  13.377
71403W        W32769   8.391   9.728   1.325
71404W        W32770   3.424  30.976  11.100
71405W        W32771   2.952  32.023   4.229
71406W        W32772  20.557   4.757  12.483
71407W        W32773  16.125   2.915  14.960
71408W        W32774  12.270  44.390   4.113
71409W        W32775  21.068   5.253   0.846
71410W        W32776  42.402  43.854   3.292
71411W        W32777   8.259  39.898   0.274
71412W        W32778  20.555  26.071  11.385
71413W        W32779   8.396  42.845   4.816
71414W        W32780   1.852  15.752   3.329
71415W        W32781  34.956   9.217   4.664
71416W        W32782  44.279  44.461   2.273
71417W        W32783  12.819  21.679  14.356
71418W        W32784   4.264  11.864   2.348
71419W        W32785  24.989  13.291  14.031
71420W        W32786  40.317  21.080  12.358
71421W        W32787  20.099   5.239  12.542
71422W        W32788  17.307  30.452  13.866
71423W        W32789  23.996   1.249   4.803
71424W        W32790  38.001  18.172  11.123
71425W        W32791  39.328   7.246   1.450
71426W        W32792   1.405  28.067  14.359
71427W        W32793  14.130   5.263  10.511
71428W        W32794  20.136   5.386  13.468
71429W        W32795  23.648  17.229  10.514
71430W        W32796  31.028  35.983   2.189
71431W        W32797  23.509  29.656   1.700
71432W        W32798  36.526  12.350  11.981
71433W        W32799  16.246  13.633  10.981
71434W        W32800  10.835   0.427   2.707
71435W        W32801   9.255  43.329   0.810
71436W        W32802  10.636  13.725  11.520
71437W        W32803  27.970  43.767   0.855
71438W        W32804  18.120  22.693  10.550
71439W        W32805   6.854  26.967   2.400
71440W        W32806  31.035  30.052  11.551
71441W        W32807  37.981   0.429   2.371
71442W        W32808  28.986   1.339   3.645
71443W        W32809  42.508  35.412   3.386
71444W        W32810  35.006  16.617  12.342
71445W        W32811   4.298  12.162   1.325
71446W        W32812   9.183  33.584  13.013
71447W        W32813  31.019  11.738  10.577
71448W        W32814   8.240  10.750  10.897
71449W        W32815   9.684  42.445  14.980
71450W        W32816  28.495  29.977   5.722
71451W        W32817   8.703   0.342  13.335
71452W        W32818  21.169  41.461   2.247
71453W        W32819   6.363  10.867   1.399
71454W        W32820  21.548  11.693  13.373
71455W        W32821  29.113  44.492   1.773
71456W        W32822  26.558  36.581   3.358
71457W        W32823  24.222  13.295   3.232
71458W        W32824  30.115  17.163  14.911
71459W        W32825   3.386   5.439   0.375
71460W        W32826  16.768  24.534   0.749
71461W        W32827  44.947  16.317  13.891
71462W        W32828  42.522  18.144  11.514
71463W        W32829   3.327  14.245   1.775
71464W        W32830  34.935  31.104   3.279
71465W        W32831  31.448  38.341  11.019
71466W        W32832  11.831  38.830  11.924
71467W        W32833  13.221  39.440  11.426
71468W        W32834  40.831  21.059  11.604
71469W        W32835  17.785  37.545   4.651
71470W        W32836  11.355  14.276  13.546
71471W        W32837  27.535   4.889  10.097
71472W        W32838  29.477   7.411   4.798
71473W        W32839  11.257  38.040   1.817
71474W        W32840  11.718  26.476   3.713
71475W        W32841  35.899  39.888  10.547
71476W        W32842   7.322  10.725   3.857
71477W        W32843  40.486  30.576   0.942
71478W        W32844  17.658  37.402   3.178
71479W        W32845  30.524   0.374  12.491
71480W        W32846  24.636   3.929  14.863
71481W        W32847  29.942  35.380  11.085
71482W        W32848  40.486  26.687   3.271
71483W        W32849  39.436  20.195  13.356
71484W        W32850   1.856  39.928   4.297
71485W        W32851  30.498  21.593   3.684
71486W        W32852  22.556  23.103   4.174
71487W        W32853  23.615   6.348  12.007
71488W        W32854  24.109  14.196  13.469
71489W        W32855  16.093   5.211   4.722
71490W        W32856  11.693  34.967  10.895
71491W        W32857  19.221  35.025  13.821
71492W        W32858  41.436  41.958   4.747
71493W        W32859  20.218   2.375   1.753
71494W        W32860   2.370  42.489  10.943
71495W        W32861  15.241  35.384  10.576
71496W        W32862  35.397  37.430  12.936
71497W        W32863  12.614  25.985   4.235
71498W        W32864  24.136   5.736  12.000
71499W        W32865   4.867  33.489   1.886
71500W        W32866  41.417  19.665  12.905
71501W        W32867  10.760  38.430   3.821
71502W        W32868   7.756  19.566   3.339
71503W        W32869  11.320  15.120   2.755
71504W        W32870  37.531   0.491   2.773
71505W        W32871   4.409  19.280  13.826
71506W        W32872   0.845  29.651  11.453
71507W        W32873  29.598   4.272   3.856
71508W        W32874  30.129  18.222  11.976
71509W        W32875  36.964  20.133   3.191
71510W        W32876  36.352  36.041  10.093
71511W        W32877  28.621  19.705   5.731
71512W        W32878  31.533  10.681   4.352
71513W        W32879  31.438   0.988  10.469
71514W        W32880  14.335  27.073  11.549
71515W        W32881  40.847   2.393   4.282
71516W        W32882   7.701  44.840  11.394
71517W        W32883  20.643  11.699  11.578
71518W        W32884  10.797   7.343  11.010
71519W        W32885   8.388  30.459   0.427
71520W        W32886  27.081  11.848  12.013
71521W        W32887  22.246  14.150  11.512
71522W        W32888  30.509  28.973  12.517
71523W        W32889   4.884  24.537   0.401
71524W        W32890  16.219  42.372   1.768
71525W        W32891  28.608  19.659   9.672
71526W        W32892  25.014  28.455   2.802
71527W        W32893   9.175   9.373   1.235
71528W        W32894  39.387  24.976   4.829
71529W        W32895  35.063   6.708  11.969
71530W        W32896  31.009   7.882   2.882
71531W        W32897  44.950   0.821  13.844
71532W        W32898  24.563  32.994   3.192
71533W        W32899  30.013  29.166   4.215
71534W        W32900  22.024  16.204  12.844
71535W        W32901  37.359  32.983   1.431
71536W        W32902  36.907  35.028   2.736
71537W        W32903  30.440  42.451   4.142
71538W        W32904   8.372  36.362  11.494
71539W        W32905  44.379  41.865  14.781
71540W        W32906  35.929  36.445   2.281
71541W        W32907   4.417  27.133   3.712
71542W        W32908  22.574  38.955  14.843
71543W        W32909  15.594  44.401   1.869
71544W        W32910  19.734  18.186   3.631
71545W        W32911  29.006  23.060   0.434
71546W        W32912  17.167  21.068   5.158
71547W        W32913  40.890  44.829   1.857
71548W        W32914  10.377  40.918   2.695
71549W        W32915   1.431  21.553  14.302
71550W        W32916  39.455  37.883   0.832
71551W        W32917  35.001  26.101  13.537
71552W        W32918  28.087  34.535  14.275
71553W        W32919  14.318   7.215  11.070
71554W        W32920  38.555  36.027   2.793
71555W        W32921  43.898  24.601  12.888
71556W        W32922  26.552  30.430   4.686
71557W        W32923  12.119  11.222  14.027
71558W        W32924  41.820  25.041   3.760
71559W        W32925  31.063  26.538  14.021
71560W        W32926  25.976  35.534  13.345
71561W        W32927  19.210  27.113  14.283
71562W        W32928  10.714  38.861   1.382
71563W        W32929  37.575  30.600   4.256
71564W        W32930   3.410  29.105  14.401
71565W        W32931  26.063  10.172   3.843
71566W        W32932  43.890  18.640  11.973
71567W        W32933   0.808   2.351  14.903
71568W        W32934  16.601  29.975  10.606
71569W        W32935  11.252  36.432  14.419
71570W        W32936  31.115   4.371   1.328
71571W        W32937  20.190  26.609  12.929
71572W        W32938  15.784  27.491   3.340
71573W        W32939  44.286  17.610   1.742
71574W        W32940  34.431   7.257  11.109
71575W        W32941  13.186  41.443   0.819
71576W        W32942  24.062   5.205   0.475
71577W        W32943  17.285   5.396   2.702
71578W        W32944  22.997  18.610   3.772
71579W        W32945  20.054   2.839  13.524
71580W        W32946  40.418  37.426   0.905
71581W        W32947  30.025  37.544  14.416
71582W        W32948  34.465  34.873  12.394
71583W        W32949  29.487  21.242  13.404
71584W        W32950  19.133  23.176   1.371
71585W        W32951   4.870   0.812   3.326
71586W        W32952  14.201  38.515   3.708
71587W        W32953   7.911  17.670   4.705
71588W        W32954  12.207   4.862   2.395
71589W        W32955  11.192  22.641   1.400
71590W        W32956  13.644  43.378  13.340
71591W        W32957  32.500  38.441  11.593
71592W        W32958  15.085   2.792   0.831
71593W        W32959  10.328  22.735   5.251
71594W        W32960  37.522  11.691   2.761
71595W        W32961  21.591  25.570   3.331
71596W        W32962   1.897  17.644  13.327
71597W        W32963   5.768  19.255   0.295
71598W        W32964  14.311  16.661  14.287
71599W        W32965  24.493  25.107  10.919
71600W        W32966  18.653  28.149   5.295
71601W        W32967  34.470  37.444  12.894
71602W        W32968  42.814  24.558   0.825
71603W        W32969  12.763   9.825   1.262
71604W        W32970  41.912  32.978   2.312
71605W        W32971  15.316   1.743  13.326
71606W        W32972  42.411  20.252   4.216
71607W        W32973  26.620  32.448   5.268
71608W        W32974  24.113   0.328   1.225
71609W        W32975  20.763   3.422  11.553
71610W        W32976  26.654  13.668   2.395
71611W        W32977  39.411  24.714   2.745
71612W        W32978   6.858   0.820   4.242
71613W        W32979  13.187  44.469   4.276
71614W        W32980   8.774  13.312  13.854
71615W        W32981  12.165   1.895  11.541
71616W        W32982  38.371  31.116   1.841
71617W        W32983  26.645   9.826   4.672
71618W        W32984   1.909  41.948  10.890
71619W        W32985   8.767  33.572   2.337
71620W        W32986  37.573   0.813   0.946
71621W        W32987   0.362  24.051  13.836
71622W        W32988  17.569  38.328   4.146
71623W        W32989   2.308   7.720  10.948
71624W        W32990  18.703   3.344   2.830
71625W        W32991  24.142  40.383   1.297
71626W        W32992   0.954  35.987  12.574
71627W        W32993  23.148  33.947  14.320
71628W        W32994  11.265  20.758  11.881
71629W        W32995   2.448  21.614   2.353
71630W        W32996  26.670  44.799  10.980
71631W        W32997  11.196  23.494  13.958
71632W        W32998  19.626  44.288   3.765
71633W        W32999  25.197  26.670   4.271
71634W        W33000   8.896  15.097   4.689
71635W        W33001  22.218   8.775   4.307
71636W        W33002  37.414   2.446   3.193
71637W        W33003   8.656  37.901   4.686
71638W        W33004  35.009  34.018   3.767
71639W        W33005  13.653  30.910  10.016
71640W        W33006  36.426  13.761  10.406
71641W        W33007   8.881  43.455   4.136
71642W        W33008  39.454  34.452   1.761
71643W        W33009  13.148   7.700  14.874
71644W        W33010  23.637  38.545   1.246
71645W        W33011   7.718  32.013   1.774
71646W        W33012  12.138  41.452  10.636
71647W        W33013  31.594  39.445  13.518
71648W        W33014  31.043  21.567   1.886
71649W        W33015  41.936  18.595   3.649
71650W        W33016   1.966  38.470   3.748
71651W        W33017  28.163  15.202  10.511
71652W        W33018  15.740  39.496   2.275
71653W        W33019   4.364  20.754   1.724
71654W        W33020   6.373   6.300  13.970
71655W        W33021   6.358   2.249  13.311
71656W        W33022  33.967   6.256  13.468
71657W        W33023   2.867  16.574  12.873
71658W        W33024   6.298  23.674  10.549
71659W        W33025  29.456  12.204  11.042
71660W        W33026   0.964  35.896   0.331
71661W        W33027  36.906  10.361   4.241
71662W        W33028  21.068  32.627  10.512
71663W        W33029   8.668  25.197  13.527
71664W        W33030  44.800   8.299  14.292
71665W        W33031  11.167   9.647  13.903
71666W        W33032  33.974   0.262   0.864
71667W        W33033  18.728  34.966  10.437
71668W        W33034  25.146  39.399  11.122
71669W        W33035   2.819   1.946  11.586
71670W        W33036  39.328  14.746   0.329
71671W        W33037  14.817   4.309   0.321
71672W        W33038  16.118  23.597  13.861
71673W        W33039  20.273  10.837   0.248
71674W        W33040  30.653  24.512  14.323
71675W        W33041  26.635   8.796  14.943
71676W        W33042  39.537  18.249   0.252
71677W        W33043  36.976  20.622  14.429
71678W        W33044  32.579  34.886  10.611
71679W        W33045  33.006  19.112   3.367
71680W        W33046   1.967  30.512  13.545
71681W        W33047  44.391  40.905  13.926
71682W        W33048  27.136   9.246  11.491
71683W        W33049   6.875  28.580   0.894
71684W        W33050  11.707   5.356  11.098
71685W        W33051  28.104  42.413  11.884
71686W        W33052  14.319  35.921  10.897
71687W        W33053  44.792  23.008  13.932
71688W        W33054  43.444  15.320   0.309
71689W        W33055  40.916  20.175  13.512
71690W        W33056  14.756  44.855  11.119
71691W        W33057  38.499   3.395   4.681
71692W        W33058   9.823  11.836  14.912
71693W        W33059  28.976  28.603   1.870
71694W        W33060  18.235  20.101  13.852
71695W        W33061   1.333  10.334   3.220
71696W        W33062  38.554  38.820   0.406
71697W        W33063  31.562  17.265  11.919
71698W        W33064  43.824  22.606  11.866
71699W        W33065  33.447  15.715   4.286
71700W        W33066  25.649  43.016  11.929
71701W        W33067  16.804  42.945  13.824
71702W        W33068  19.244   4.929  12.906
71703W        W33069   0.336  27.973   1.396
71704W        W33070  24.543  35.380   4.711
71705W        W33071   2.895  33.002  11.582
71706W        W33072  22.206  20.221   4.242
71707W        W33073  38.517   1.272   1.905
71708W        W33074  29.956   1.480  12.826
71709W        W33075  21.583  33.599  13.866
71710W        W33076  25.524  40.004   0.798
71711W        W33077  14.797  31.417   4.269
71712W        W33078  23.146  15.133   1.783
71713W        W33079  42.999  22.695  10.978
71714W        W33080  40.336  12.644  13.952
71715W        W33081  43.939  33.899   0.389
71716W        W33082  25.159  33.593   1.335
71717W        W33083   7.789  22.097   1.733
71718W        W33084  10.798  15.579   0.316
71719W        W33085  40.515  30.909   4.637
71720W        W33086  11.683  37.449  13.547
71721W        W33087  43.459   6.840  14.810
71722W        W33088  40.339  25.657   4.743
71723W        W33089  12.749  20.122   0.343
71724W        W33090  29.626  38.502   1.403
71725W        W33091  22.018  38.891   2.793
71726W        W33092  27.027  41.984   3.148
71727W        W33093  33.000  33.112  13.887
71728W        W33094   9.720  15.121   3.729
71729W        W33095  22.695  39.347  12.936
71730W        W33096  14.642  26.672  10.549
71731W        W33097  13.315  16.642   1.805
71732W        W33098   7.850  36.434  13.022
71733W        W33099  41.811  29.485   4.183
71734W        W33100  39.994  39.852  12.491
71735W        W33101  29.042  29.002   9.968
71736W        W33102  12.814   8.223  14.911
71737W        W33103  21.203  36.888   1.847
71738W        W33104  11.276  19.639  14.505
71739W        W33105   5.843   0.853   0.474
71740W        W33106   2.376  33.519  12.482
71741W        W33107   1.910  27.497   4.249
71742W        W33108  11.650  39.528  11.113
71743W        W33109  15.325   9.331  11.492
71744W        W33110   9.787  30.077  12.421
71745W        W33111   8.292   4.410  13.400
71746W        W33112   9.779  24.001   2.330
71747W        W33113   9.253  27.967  11.514
71748W        W33114  10.334  20.179   2.332
71749W        W33115  29.062  30.496  14.996
71750W        W33116   0.843  20.665   3.749
71751W        W33117  31.967  40.866   0.812
71752W        W33118  29.644  30.080   9.475
71753W        W33119   3.292  15.262   3.218
71754W        W33120   1.443  14.339  12.023
71755W        W33121   0.379  15.735  13.393
71756W        W33122  40.909  20.034   3.253
71757W        W33123   7.270  11.678  14.430
71758W        W33124  41.322   0.399   1.723
71759W        W33125  19.575  36.921  13.848
71760W        W33126  44.917  34.064  12.868
71761W        W33127   4.263  34.412  11.473
71762W        W33128  11.849  37.403   4.761
71763W        W33129  20.036  13.255  12.074
71764W        W33130  39.497  30.949  11.426
71765W        W33131  34.426  31.523  12.569
71766W        W33132  16.755  44.842   3.661
71767W        W33133   1.861  38.428  13.478
71768W        W33134  39.550  37.492  12.345
71769W        W33135  29.102  26.986   3.864
71770W        W33136  16.163   9.346   1.321
71771W        W33137  43.336  19.248  13.063
71772W        W33138  26.558  33.937   4.615
71773W        W33139  12.269  35.002   2.786
71774W        W33140  44.308  18.093   4.643
71775W        W33141  25.692  25.623  13.538
71776W        W33142   1.945  16.728   1.783
71777W        W33143  43.806  18.728  11.460
71778W        W33144   1.842  15.775  12.375
71779W        W33145  32.139   6.246  11.598
71780W        W33146  43.832  39.445   0.903
71781W        W33147  31.137  28.980  12.556
71782W        W33148  17.625  39.014   3.180
71783W        W33149  13.684  23.583   2.241
71784W        W33150  27.485   1.271  11.085
71785W        W33151  17.200  35.888  14.833
71786W        W33152  31.954   6.743  14.887
71787W        W33153  43.979  12.653   1.231
71788W        W33154  28.579  38.014   1.399
71789W        W33155  32.995   7.401   4.759
71790W        W33156  26.137  33.983  14.887
71791W        W33157   9.235   9.828  10.903
71792W        W33158  29.547  20.741  13.856
71793W        W33159  25.142  42.326  13.861
71794W        W33160   8.381  23.665   3.701
71795W        W33161  17.223  30.507   1.695
71796W        W33162  15.208  34.078   1.709
71797W        W33163   5.203  36.578  14.914
71798W        W33164   3.410   6.818  12.075
71799W        W33165   6.856  26.151  10.409
71800W        W33166   0.366  14.711   3.683
71801W        W33167   2.938  28.006  12.831
71802W        W33168  15.095  25.482   4.353
71803W        W33169  34.986  30.604  13.524
71804W        W33170  15.685   7.757   0.476
71805W        W33171   4.794  13.327  12.403
71806W        W33172  37.388  16.093  14.945
71807W        W33173  28.003  30.590   1.870
71808W        W33174  19.041  10.679  13.428
71809W        W33175  29.166   6.330  10.483
71810W        W33176  12.777  24.160   2.789
71811W        W33177   4.739  27.540  14.885
71812W        W33178  39.493  21.043  11.885
71813W        W33179  12.315  37.041   3.208
71814W        W33180  15.174  44.823   3.245
71815W        W33181  31.435  16.104  14.780
71816W        W33182  10.856  30.464   3.738
71817W        W33183  31.920  11.634  12.954
71818W        W33184  42.365  17.248  14.988
71819W        W33185  31.486  17.150  11.004
71820W        W33186  15.647  12.269   3.862
71821W        W33187  33.064  32.028  14.809
71822W        W33188  33.887  11.729   3.325
71823W        W33189  14.234   3.297  14.334
71824W        W33190  14.695  19.268  12.937
71825W        W33191   5.198  34.095  12.996
71826W        W33192  13.110  17.771   2.851
71827W        W33193  14.179   6.194  10.965
71828W        W33194  26.687  30.617   5.110
71829W        W33195  25.481  26.199  14.313
71830W        W33196  40.879  34.516  10.643
71831W        W33197   3.903   2.750  13.840
71832W        W33198   9.306   8.172   3.700
71833W        W33199  30.000  20.593   2.416
71834W        W33200  39.910  17.208  14.857
71835W        W33201   8.336  19.042   1.440
71836W        W33202   6.327  35.521  11.939
71837W        W33203  31.137  43.325  11.516
71838W        W33204  15.777   1.324  11.448
71839W        W33205   3.279  32.395  10.498
71840W        W33206  17.100  35.550  10.551
71841W        W33207  15.714   7.370   4.135
71842W        W33208  28.439  26.022   4.300
71843W        W33209   3.876  26.538   2.281
71844W        W33210  27.100  21.083   0.753
71845W        W33211  15.684   6.746   4.834
71846W        W33212  38.517   3.261   3.147
71847W        W33213  35.360  24.574   4.168
71848W        W33214   4.313  22.092   0.790
71849W        W33215  27.668   0.491  11.503
71850W        W33216  23.014  23.504  13.026
71851W        W33217  33.453  20.274  11.944
71852W        W33218  32.571  35.588  13.797
71853W        W33219  19.696   5.707  14.286
71854W        W33220  37.349  27.684   4.705
71855W        W33221  42.017  16.174  14.945
71856W        W33222  19.572  27.988  12.417
71857W        W33223  37.072  32.125   0.770
71858W        W33224  34.909  35.581   2.751
71859W        W33225  39.431  30.652  14.949
71860W        W33226  41.306  19.143  13.453
71861W        W33227   0.900  20.167  13.829
71862W        W33228   8.804   9.736  11.032
71863W        W33229  27.193   1.796   5.098
71864W        W33230  39.487  44.445   1.256
71865W        W33231  20.523  24.511  10.509
71866W        W33232   6.289  12.162  14.786
71867W        W33233  15.263  41.356   3.253
71868W        W33234  28.937  23.239   5.143
71869W        W33235  11.147   6.842  12.364
71870W        W33236  20.764  22.050  13.416
71871W        W33237  20.094  16.194  11.506
71872W        W33238  37.046  36.845  13.890
71873W        W33239  43.302   2.841   0.916
71874W        W33240  23.651  16.674   1.887
71875W        W33241  40.948   4.773  14.878
71876W        W33242  36.502  31.975  12.556
71877W        W33243   5.425  11.314   1.218
71878W        W33244  12.707  23.143  14.832
71879W        W33245   8.894  37.845   3.680
71880W        W33246  16.573  23.711  10.448
71881W        W33247  12.704  24.140   0.312
71882W        W33248   0.336  23.594   0.446
71883W        W33249  19.228  25.183   3.235
71884W        W33250   3.813   9.342   0.736
71885W        W33251  30.907  42.973   5.304
71886W        W33252  10.241  37.913   2.736
71887W        W33253  42.820  41.516  10.934
71888W        W33254  12.321  41.928   1.763
71889W        W33255  23.636   7.286   1.896
71890W        W33256  35.358  25.544  14.351
71891W        W33257  25.209  41.896  11.089
71892W        W33258  28.488  10.153   0.363
71893W        W33259  11.715   9.392   3.192
71894W        W33260   5.780  11.275   2.868
71895W        W33261  43.378  44.498  12.871
71896W        W33262  38.547  19.559  11.551
71897W        W33263  14.784   6.699  10.562
71898W        W33264  34.876  17.581  12.442
71899W        W33265   6.894   6.701   5.262
71900W        W33266  30.971  35.009   4.717
71901W        W33267  40.053  37.381   1.753
71902W        W33268  14.240  37.999   3.366
71903W        W33269  44.977  17.292  14.845
71904W        W33270  43.406   3.833   2.700
71905W        W33271  28.068  20.704  10.567
71906W        W33272  41.448  22.051  13.891
71907W        W33273   5.833  16.773  10.132
71908W        W33274  19.045  13.195  14.930
71909W        W33275   4.889  21.030   1.708
71910W        W33276  17.241  24.641   3.186
71911W        W33277  30.006   3.220   1.905
71912W        W33278  28.592   0.405  11.016
71913W        W33279  27.033   1.838  13.852
71914W        W33280   8.740  18.706  13.337
71915W        W33281   3.260   6.251  10.916
71916W        W33282  40.442  32.594   1.818
71917W        W33283  30.085   7.855   3.181
71918W        W33284  17.067  25.130   4.613
71919W        W33285   7.851  12.783   5.287
71920W        W33286  25.489  32.584  13.539
71921W        W33287  44.369  33.456   0.391
71922W        W33288  20.157  14.180   0.749
71923W        W33289  25.973   0.391   1.363
71924W        W33290  19.066  16.234   4.665
71925W        W33291   3.244  39.014   0.768
71926W        W33292  24.107  24.723   1.801
71927W        W33293   7.298  26.649  10.591
71928W        W33294   9.711  34.443   1.227
71929W        W33295  29.632  32.131   0.269
71930W        W33296  20.149  36.015   0.279
71931W        W33297   9.871   3.214  12.913
71932W        W33298  27.488  44.859  11.922
71933W        W33299   4.229  40.344  14.306
71934W        W33300   5.307  23.695  14.317
71935W        W33301   3.441  34.931   3.382
71936W        W33302  34.550  21.127   3.653
71937W        W33303  23.115  41.434  13.932
71938W        W33304  35.015  22.567   2.285
71939W        W33305  24.117   1.787   1.414
71940W        W33306  30.010   5.236   2.354
71941W        W33307  33.530  41.309   2.335
71942W        W33308  35.415  39.023  13.998
71943W        W33309   0.453   0.254   0.814
71944W        W33310  27.111  32.991   0.425
71945W        W33311  26.587   8.330   0.903
71946W        W33312  21.085  20.226   0.315
71947W        W33313  26.515   5.776  13.313
71948W        W33314  20.186   5.765   4.290
71949W        W33315   2.852  32.888  12.344
71950W        W33316   0.473  27.011   3.761
71951W        W33317   2.861  10.342  12.888
71952W        W33318  14.611   7.791  11.053
71953W        W33319   8.389  44.938   3.190
71954W        W33320   9.319  40.425   0.471
71955W        W33321  22.617  10.264   1.220
71956W        W33322  28.612  37.009   2.870
71957W        W33323  17.581  27.511  11.572
71958W        W33324  41.984  32.596   3.281
71959W        W33325  14.212  13.137  12.996
71960W        W33326  23.174  44.896   0.391
71961W        W33327   7.235   0.269   1.901
71962W        W33328  18.099  42.966  14.015
71963W        W33329  16.271  24.654  12.837
71964W        W33330  32.037   8.744  10.929
71965W        W33331  26.129  12.325  13.797
71966W        W33332  14.724  38.479   1.275
71967W        W33333  41.006  13.307   2.270
71968W        W33334  18.590  19.082  14.996
71969W        W33335  28.606   4.814   1.709
71970W        W33336   9.749  16.224   3.169
71971W        W33337   4.833   1.351  10.898
71972W        W33338  42.527  14.691  13.015
71973W        W33339  31.078  18.097  10.495
71974W        W33340  32.943  39.836  14.443
71975W        W33341  24.641  35.432   2.261
71976W        W33342  19.232  43.348   3.661
71977W        W33343   9.664   2.961   3.754
71978W        W33344  21.229  13.263  11.496
71979W        W33345  32.532  44.299   1.767
71980W        W33346   1.394   8.207   4.289
71981W        W33347  10.334   4.233  14.856
71982W        W33348  39.539  11.273  10.892
71983W        W33349  36.991  41.413   2.779
71984W        W33350  42.004  15.091  10.592
71985W        W33351   6.735  18.155   4.805
71986W        W33352  42.797  15.161   0.747
71987W        W33353   5.322  34.597  12.507
71988W        W33354  22.066  29.617  14.959
71989W        W33355  26.104   6.349   3.253
71990W        W33356  10.632   2.888   1.775
71991W        W33357   6.915  12.278   2.199
71992W        W33358  39.539  31.079  14.785
71993W        W33359  12.199  16.104   2.223
71994W        W33360  32.097   0.856   3.819
71995W        W33361  26.122  18.088  12.884
71996W        W33362  13.278  40.992   2.291
71997W        W33363   4.778  33.931  12.001
71998W        W33364   1.406  36.033   1.743
71999W        W33365  33.494  27.119  11.124
72000W        W33366  10.848  19.605  10.997
72001W        W33367   2.741  20.075  14.418
72002W        W33368  23.503  42.463   3.777
72003W        W33369  25.591  40.874  11.537
72004W        W33370  10.730  30.564  14.426
72005W        W33371  22.741  31.973  14.930
72006W        W33372  35.452  32.412  14.416
72007W        W33373  36.379  35.471   1.354
72008W        W33374  16.270  35.856   3.241
72009W        W33375  22.598  44.910   2.716
72010W        W33376  31.615  25.983   0.472
72011W        W33377   2.922   3.785  10.141
72012W        W33378  23.509   2.814   5.150
72013W        W33379  15.675  41.907  14.408
72014W        W33380  36.371   4.711  12.900
72015W        W33381   9.377   5.700   2.788
72016W        W33382  24.129   2.859   0.808
72017W        W33383  10.663   2.439  12.377
72018W        W33384  30.026  26.133   2.206
72019W        W33385  11.196  42.370   3.245
72020W        W33386  10.266  11.832   4.739
72021W        W33387  44.951   6.247   2.827
72022W        W33388  23.509  35.475  12.931
72023W        W33389  40.356  12.240   0.794
72024W        W33390  31.484  30.994   2.756
72025W        W33391   4.804  13.148  14.970
72026W        W33392  24.222   4.802   5.136
72027W        W33393  38.042  44.769  13.498
72028W        W33394  10.763  13.183  11.516
72029W        W33395   5.736  37.084   3.807
72030W        W33396  29.170  40.810   0.331
72031W        W33397   3.906   9.352   1.738
72032W        W33398  43.382  24.995  11.083
72033W        W33399  23.541  33.550  11.958
72034W        W33400  20.733  33.537   4.351
72035W        W33401   3.856  30.633   0.847
72036W        W33402  39.846  40.412   2.337
72037W        W33403  16.691  10.816   0.873
72038W        W33404  31.448   4.860   0.745
72039W        W33405   8.341  26.574  12.085
72040W        W33406  28.661   1.471   4.286
72041W        W33407   8.377   7.328   0.836
72042W        W33408  22.602  24.155  11.479
72043W        W33409  13.264  33.889   1.848
72044W        W33410   0.919  31.604   1.369
72045W        W33411   9.712  26.556  14.326
72046W        W33412  39.387   3.864  13.496
72047W        W33413  19.641  33.989   3.169
72048W        W33414   4.770  34.579  12.459
72049W        W33415  22.537  41.907   2.760
72050W        W33416  40.309  41.392  12.975
72051W        W33417  16.745  40.474  11.481
72052W        W33418  20.683  19.135   2.802
72053W        W33419  30.095  25.624  11.048
72054W        W33420  43.295   0.782  14.771
72055W        W33421  30.596   3.908   3.680
72056W        W33422   6.699  44.768   4.223
72057W        W33423  18.610   2.865   3.189
72058W        W33424  12.295  28.627   4.675
72059W        W33425  26.958  26.496  11.382
72060W        W33426  38.926  12.276  11.510
72061W        W33427  29.086   7.404  10.502
72062W        W33428   6.393  41.826   3.190
72063W        W33429  32.088  36.055  12.022
72064W        W33430  39.837  28.031   0.848
72065W        W33431  16.253  27.154   0.786
72066W        W33432   8.803  39.522   4.286
72067W        W33433  43.368  34.410   2.765
72068W        W33434  39.974  19.114   0.365
72069W        W33435  30.575  25.531  11.890
72070W        W33436   9.223  16.791  14.504
72071W        W33437  13.169  39.888   0.823
72072W        W33438  43.914  28.519   2.377
72073W        W33439   1.949  38.470   3.225
72074W        W33440  10.840   8.209   0.431
72075W        W33441  23.729  23.564  14.442
72076W        W33442   8.307  15.596   1.788
72077W        W33443   0.823  36.487  13.480
72078W        W33444  29.137  44.833  13.956
72079W        W33445  43.921  12.845  11.595
72080W        W33446  37.431  39.497   1.444
72081W        W33447   7.291  44.857   4.736
72082W        W33448  11.301   4.369   4.782
72083W        W33449   3.720   5.411   0.961
72084W        W33450  36.585  39.411  14.909
72085W        W33451  23.990  36.517   3.679
72086W        W33452  41.465  31.114   0.264
72087W        W33453  34.080  25.595  13.325
72088W        W33454  27.171  13.202   4.170
72089W        W33455  15.768  42.496   1.721
72090W        W33456  44.915  43.393  14.348
72091W        W33457  34.111  18.062  12.403
72092W        W33458   5.349   2.833  10.096
72093W        W33459   9.884  35.887   2.702
72094W        W33460  30.123   6.834   1.320
72095W        W33461  41.010  33.913  14.843
72096W        W33462   6.367  16.617   4.262
72097W        W33463  17.743  44.814  12.846
72098W        W33464  17.588  19.680  13.936
72099W        W33465  42.340  33.447   4.811
72100W        W33466   6.761  38.880   2.337
72101W        W33467   7.221  38.996  11.576
72102W        W33468  30.033  14.313  12.887
72103W        W33469  24.114  32.953  12.356
72104W        W33470  12.726  43.413  14.298
72105W        W33471   5.806  13.834  13.968
72106W        W33472   1.297   0.358   0.763
72107W        W33473   7.262  20.561  13.010
72108W        W33474  26.961  26.643  13.014
72109W        W33475  32.980  36.964  14.508
72110W        W33476  33.017  24.620  10.445
72111W        W33477   5.429  10.157  10.124
72112W        W33478  17.676   7.177  12.508
72113W        W33479   5.415  10.309  14.384
72114W        W33480  23.019   5.881   3.344
72115W        W33481  37.841  43.354   4.720
72116W        W33482  15.691  22.679  11.464
72117W        W33483  25.993  18.682   3.835
72118W        W33484   9.794  41.343   2.289
72119W        W33485  30.039   0.485  14.954
72120W        W33486  33.572  27.670   0.451
72121W        W33487   4.360  37.030   1.754
72122W        W33488  22.591  43.781  11.548
72123W        W33489   1.852  33.985   0.344
72124W        W33490  20.710  21.586   0.429
72125W        W33491   6.898   0.269  11.520
72126W        W33492  29.464  10.212  14.396
72127W        W33493  17.713  33.060   1.287
72128W        W33494  21.713  37.076  14.001
72129W        W33495  29.516  22.205   1.855
72130W        W33496  10.736  24.192   0.430
72131W        W33497  31.624   7.357   2.253
72132W        W33498  25.693  34.084   5.722
72133W        W33499  31.972  31.560   2.819
72134W        W33500  24.487   7.316   9.926
72135W        W33501  21.050  40.834   3.285
72136W        W33502  10.172  11.785  11.988
72137W        W33503  38.413  10.346  14.977
72138W        W33504   2.335   2.726   2.192
72139W        W33505  30.070   1.447   0.248
72140W        W33506  24.213   1.910  10.626
72141W        W33507  11.310  38.507  13.900
72142W        W33508   5.222  30.467  12.045
72143W        W33509  34.612   1.464   3.150
72144W        W33510  26.164  21.079  12.442
72145W        W33511  19.255   0.371   3.839
72146W        W33512  32.943  19.236   1.410
72147W        W33513   2.819  31.112   4.354
72148W        W33514   6.219  36.006   3.342
72149W        W33515  42.380  24.074  11.932
72150W        W33516   3.847  32.949   2.695
72151W        W33517  34.562  10.305   2.840
72152W        W33518  40.508  25.700  14.992
72153W        W33519  23.658   2.838   5.591
72154W        W33520  23.093  42.945  14.918
72155W        W33521  29.927  36.077   4.296
72156W        W33522  37.534   5.321   3.645
72157W        W33523  16.235  20.760   4.344
72158W        W33524  11.711  13.211   2.399
72159W        W33525   1.748  33.533   2.330
72160W        W33526  40.423   5.251   2.219
72161W        W33527  43.890  21.253   0.289
72162W        W33528  27.495  30.011   4.674
72163W        W33529   7.342  20.532   1.293
72164W        W33530  33.979  39.537  14.848
72165W        W33531  11.363  38.378  11.930
72166W        W33532  35.940  40.043  12.071
72167W        W33533  30.565   7.733  10.551
72168W        W33534   2.445  11.625  13.045
72169W        W33535  12.231   6.858  13.853
72170W        W33536   7.890  10.154   4.293
72171W        W33537  43.354  39.835   2.688
72172W        W33538   7.832  36.538  12.429
72173W        W33539  28.990  31.473  10.990
72174W        W33540  17.718  23.153  12.999
72175W        W33541  13.804  13.799  14.802
72176W        W33542  34.080  31.648  12.936
72177W        W33543  43.810   8.693   3.305
72178W        W33544  37.837  11.729   0.452
72179W        W33545  19.049  18.595   4.338
72180W        W33546  23.133  21.045  11.930
72181W        W33547   4.702  16.199   3.630
72182W        W33548  17.066  18.700   0.773
72183W        W33549   6.851  25.134   3.711
72184W        W33550  37.919  18.158  13.834
72185W        W33551  39.402  35.555  11.392
72186W        W33552  41.511   2.332  10.580
72187W        W33553  15.784  31.483   4.667
72188W        W33554  24.591   1.308   9.934
72189W        W33555  32.582  26.682  11.575
72190W        W33556  35.953  12.774  14.861
72191W        W33557  39.423   5.813   3.216
72192W        W33558   0.276  17.599  12.554
72193W        W33559   6.413  19.273  10.580
72194W        W33560  39.343  27.106   3.687
72195W        W33561  34.097  39.497  13.826
72196W        W33562  19.773   9.790   4.223
72197W        W33563  36.020  13.767   2.816
72198W        W33564  41.364  10.665  11.856
72199W        W33565  41.967  43.933   0.414
72200W        W33566  24.024  28.149   2.399
72201W        W33567   3.733  13.108   1.864
72202W        W33568  38.896  20.691  14.434
72203W        W33569  17.243   2.927   3.286
72204W        W33570   1.806  13.744   4.312
72205W        W33571  18.269   1.431   3.172
72206W        W33572   5.417  31.901   1.426
72207W        W33573   5.808   2.331   4.322
72208W        W33574  20.561  44.913   4.323
72209W        W33575  29.540  17.627  12.366
72210W        W33576   2.796   8.869  12.543
72211W        W33577  41.533   7.264   1.326
72212W        W33578  21.606  17.274   1.252
72213W        W33579  28.062  21.630   0.265
72214W        W33580   6.344  21.077  14.985
72215W        W33581  28.666  35.477  12.562
72216W        W33582  26.070   5.416   2.281
72217W        W33583  32.404   1.342   0.779
72218W        W33584   0.909   5.379  12.537
72219W        W33585  30.432  31.130   4.662
72220W        W33586  16.108  25.675  13.963
72221W        W33587  33.590   4.434   4.275
72222W        W33588  19.734   3.807   1.308
72223W        W33589  33.473  14.310  11.986
72224W        W33590   9.273  40.955   2.260
72225W        W33591  27.044  21.115   2.384
72226W        W33592  36.082  24.678  12.428
72227W        W33593  21.059  33.451   3.714
72228W        W33594  42.340   4.893  10.909
72229W        W33595  33.908  38.359  13.384
72230W        W33596   2.735  34.097  13.449
72231W        W33597  15.714  24.598  14.771
72232W        W33598  38.559  27.046  11.438
72233W        W33599  15.691  33.625  12.953
72234W        W33600  10.266   4.887   0.951
72235W        W33601   0.368  14.160   2.697
72236W        W33602  38.401   6.725  11.906
72237W        W33603   2.326  41.522   0.922
72238W        W33604  25.645  29.440   3.811
72239W        W33605  19.673  27.657   4.667
72240W        W33606  33.433   2.959  11.952
72241W        W33607  38.933  26.177   4.673
72242W        W33608  28.596   2.407   2.762
72243W        W33609   7.693   2.332  11.914
72244W        W33610  11.139  43.977  13.974
72245W        W33611   2.905  30.548  10.108
72246W        W33612  24.166   2.965  14.955
72247W        W33613   7.835  42.838  11.420
72248W        W33614   5.417   4.735  14.446
72249W        W33615  13.734  16.316  10.643
72250W        W33616  43.500  32.932  14.368
72251W        W33617  41.410  10.869  12.960
72252W        W33618  16.578  15.621  13.808
72253W        W33619  32.978  34.545   3.254
72254W        W33620  27.983   0.976   1.367
72255W        W33621  13.264  43.330  12.015
72256W        W33622  34.955  32.979   3.812
72257W        W33623  40.809  34.075  13.362
72258W        W33624  26.677  10.705   4.691
72259W        W33625  41.893  10.791  13.500
72260W        W33626  34.545  30.602   0.462
72261W        W33627  40.839  40.001   4.287
72262W        W33628  11.189  18.593   2.866
72263W        W33629  28.502  32.954  12.071
72264W        W33630  11.191  32.397  12.385
72265W        W33631   0.890  43.984   0.416
72266W        W33632  29.116  43.306  13.966
72267W        W33633   6.897   1.449   2.809
72268W        W33634  26.634  36.981   4.769
72269W        W33635  11.342  21.106   0.314
72270W        W33636   0.275   6.254  14.031
72271W        W33637  40.946  37.408   3.337
72272W        W33638  24.707   9.674  14.828
72273W        W33639   9.206  32.403  10.942
72274W        W33640   3.804   9.669   0.433
72275W        W33641  24.195  28.654   1.259
72276W        W33642  30.500  20.041  13.518
72277W        W33643   7.733  35.456  12.567
72278W        W33644   3.300  42.404   4.119
72279W        W33645  19.741  38.982  10.918
72280W        W33646  21.145  30.433  14.863
72281W        W33647  39.892   6.784   0.729
72282W        W33648  16.736   1.374   3.823
72283W        W33649  24.700  28.564   2.795
72284W        W33650   0.752  26.960  13.802
72285W        W33651  24.123  38.933  14.958
72286W        W33652  41.016  19.062   1.255
72287W        W33653  40.342  25.636  12.530
72288W        W33654  14.205   0.861   1.236
72289W        W33655   1.804  29.462   2.698
72290W        W33656  25.662  27.110  14.312
72291W        W33657  31.053  34.107   4.629
72292W        W33658  40.529  35.869   1.717
72293W        W33659   2.409  17.603  12.569
72294W        W33660  34.868  31.130   3.676
72295W        W33661  10.158   6.804   2.390
72296W        W33662  15.730  12.834  11.129
72297W        W33663  13.287  16.680  13.060
72298W        W33664  13.816  29.939  14.891
72299W        W33665   5.718   0.286  12.930
72300W        W33666  29.950  25.709   4.270
72301W        W33667  25.512  41.966   1.447
72302W        W33668   0.428  42.410   3.799
72303W        W33669  40.821  32.010  14.303
72304W        W33670  31.516  11.821  14.814
72305W        W33671  13.226   4.389  14.394
72306W        W33672  33.597  31.924   3.715
72307W        W33673  15.310  38.483   3.685
72308W        W33674   8.220  19.226   4.790
72309W        W33675  15.264  42.456   4.656
72310W        W33676   0.446  37.941  11.028
72311W        W33677  30.005  41.350  12.370
72312W        W33678  30.555  34.080   0.788
72313W        W33679  44.942  31.442  12.996
72314W        W33680  22.036   5.901   4.154
72315W        W33681  36.891   7.710  13.472
72316W        W33682  43.797   6.705  13.941
72317W        W33683  38.870   3.865   3.184
72318W        W33684  34.092  43.877  13.945
72319W        W33685  29.022  31.615  13.978
72320W        W33686  23.185  37.383  11.446
72321W        W33687  28.160  18.205   1.838
72322W        W33688   0.253  34.453   3.799
72323W        W33689  35.477  17.653  10.471
72324W        W33690   4.772  35.538  14.299
72325W        W33691  36.857   9.767  10.450
72326W        W33692  37.372   4.840  13.863
72327W        W33693  14.834  21.682  12.061
72328W        W33694   0.305  27.487   2.899
72329W        W33695  39.950  44.982  11.085
72330W        W33696  42.872  31.530  13.873
72331W        W33697  21.637   7.316   1.266
72332W        W33698   3.948   0.291  14.950
72333W        W33699  15.290   5.779  13.408
72334W        W33700   9.838  17.726  10.583
72335W        W33701  17.747  10.803   0.358
72336W        W33702  31.609  31.101  14.810
72337W        W33703   7.258  13.708  11.493
72338W        W33704  12.119   1.324  10.933
72339W        W33705  23.623  19.107   1.220
72340W        W33706  26.105  12.764  13.316
72341W        W33707  14.106  38.470   4.226
72342W        W33708  33.972  18.212   2.266
72343W        W33709   7.367  10.237  10.628
72344W        W33710   8.314  41.984   2.891
72345W        W33711  17.799  29.130   3.743
72346W        W33712   4.728   5.236   3.379
72347W        W33713  20.172  21.684   1.233
72348W        W33714  35.980  36.019   3.199
72349W        W33715   7.784   5.729  14.391
72350W        W33716  41.788  38.941   4.724
72351W        W33717   9.752  42.990   1.386
72352W        W33718  26.029  36.986   3.214
72353W        W33719  34.922   0.475   4.122
72354W        W33720  32.475  37.372   2.327
72355W        W33721   6.273  39.442   2.800
72356W        W33722  18.781  24.201  14.337
72357W        W33723   2.245  12.341   2.256
72358W        W33724  28.483  44.285   4.771
72359W        W33725  17.155  12.676   2.232
72360W        W33726  39.908  42.480  12.473
72361W        W33727  21.616  24.977   1.817
72362W        W33728  23.728  17.626   1.787
72363W        W33729   3.740  21.714   2.884
72364W        W33730  21.540   7.692  11.522
72365W        W33731  31.441  44.977  13.529
72366W        W33732   2.922  34.986  11.414
72367W        W33733  42.810  39.374  12.577
72368W        W33734   2.458   8.235  14.453
72369W        W33735  42.369  29.467   2.873
72370W        W33736  37.895  13.685  11.901
72371W        W33737  12.826  18.675  13.345
72372W        W33738  15.582  40.823  12.889
72373W        W33739  38.047  21.246   1.862
72374W        W33740   2.299  20.134   1.711
72375W        W33741  18.577  28.120   3.714
72376W        W33742  21.224  24.606   0.951
72377W        W33743  21.558  33.936  12.465
72378W        W33744   0.317   7.819   1.222
72379W        W33745  28.097   6.872   0.325
72380W        W33746  22.561  36.456  13.999
72381W        W33747  18.731  16.697  14.484
72382W        W33748  31.571  15.261   0.899
72383W        W33749  33.070   3.402   9.930
72384W        W33750   5.904   7.205  12.823
72385W        W33751   9.778   3.257   0.276
72386W        W33752   1.277  12.224   3.370
72387W        W33753  30.006  37.024  14.013
72388W        W33754  33.089  40.047   3.181
72389W        W33755   8.179   8.185   0.935
72390W        W33756   3.831   7.706   3.747
72391W        W33757  14.229  10.149  11.087
72392W        W33758  27.564   8.754  12.973
72393W        W33759   5.725   9.209   4.243
72394W        W33760  41.953  38.367   3.294
72395W        W33761   7.776  24.052  14.281
72396W        W33762   4.943  27.068   3.268
72397W        W33763  11.780  14.174   2.878
72398W        W33764  22.083  40.530   1.219
72399W        W33765  24.516  22.148   1.250
72400W        W33766  24.122  40.900   2.759
72401W        W33767   4.823  13.198   1.268
72402W        W33768  36.474  31.078   3.839
72403W        W33769   1.812  13.248  12.893
72404W        W33770  12.635  33.505  11.920
72405W        W33771  36.949   1.365  10.571
72406W        W33772  37.545  25.998  10.908
72407W        W33773  32.005  38.840   4.295
72408W        W33774  20.136  32.055  11.456
72409W        W33775  21.594   6.306  11.469
72410W        W33776  24.553  22.042   3.861
72411W        W33777  35.572   7.862   1.730
72412W        W33778   5.791  24.569  12.990
72413W        W33779   5.401  33.621   3.779
72414W        W33780  41.961  23.555   1.700
72415W        W33781  23.723  26.028  14.434
72416W        W33782  30.160   1.823  12.855
72417W        W33783   1.879  21.034   0.901
72418W        W33784  35.911  21.752   3.865
72419W        W33785  14.747  16.229   0.948
72420W        W33786   7.366  12.271   1.838
72421W        W33787   4.274  20.541  11.927
72422W        W33788   6.338  27.195   0.303
72423W        W33789  21.203   8.331  14.964
72424W        W33790  38.437  22.713  12.838
72425W        W33791  44.920  11.239  13.830
72426W        W33792  16.169  24.676   3.149
72427W        W33793  43.308  29.038   5.287
72428W        W33794  26.564  23.559  10.998
72429W        W33795   5.783  10.706   1.326
72430W        W33796  10.150   3.926  14.864
72431W        W33797  19.577  37.891   0.959
72432W        W33798   2.931  24.670   0.347
72433W        W33799   8.214  26.564   2.723
72434W        W33800   6.920   2.769  12.873
72435W        W33801   9.149   0.955   4.129
72436W        W33802   9.782  14.649   4.675
72437W        W33803  36.470  42.468  12.955
72438W        W33804  28.024   2.892  14.993
72439W        W33805  24.117  43.820   1.317
72440W        W33806   2.958  28.972  14.409
72441W        W33807  17.767  44.800   3.750
72442W        W33808   5.435  34.951  10.637
72443W        W33809  10.782  41.964  14.275
72444W        W33810  41.502   5.793   2.369
72445W        W33811  39.541  34.567  13.465
72446W        W33812  34.119  34.472   2.723
72447W        W33813  37.555   1.430   1.923
72448W        W33814  38.403  22.536  12.074
72449W        W33815  40.516  42.812   2.708
72450W        W33816   3.823  22.038   2.268
72451W        W33817  26.128  40.991  14.482
72452W        W33818   9.757   5.285   4.341
72453W        W33819  41.372  30.610  11.947
72454W        W33820   8.781   7.188  13.548
72455W        W33821  22.521  35.542  14.480
72456W        W33822  42.348  16.750  10.891
72457W        W33823  27.496  19.728  13.973
72458W        W33824  30.575  11.369   2.796
72459W        W33825  18.626  14.221   0.809
72460W        W33826  25.567  35.092  14.274
72461W        W33827  39.977  27.563   3.147
72462W        W33828  11.727  10.764   4.274
72463W        W33829  19.629  30.134   0.479
72464W        W33830  41.473  38.331  12.926
72465W        W33831  19.770  32.503  14.820
72466W        W33832  33.409  11.230  13.517
72467W        W33833  40.972  20.266  10.520
72468W        W33834  28.952  19.631  12.522
72469W        W33835   6.710  39.035  13.536
72470W        W33836   6.244   4.884  13.033
72471W        W33837  15.277  31.013  13.019
72472W        W33838  37.468  34.109  12.964
72473W        W33839  13.787  40.457  14.488
72474W        W33840  44.386  28.581  14.864
72475W        W33841  31.609  21.637  14.977
72476W        W33842   9.798  17.768   4.719
72477W        W33843   9.304  11.695   2.662
72478W        W33844   2.796  10.292  14.945
72479W        W33845  29.944   6.330   4.225
72480W        W33846  34.932  20.523   4.189
72481W        W33847  17.667  25.055   4.141
72482W        W33848  31.641  27.547   1.887
72483W        W33849   5.751   8.744   4.324
72484W        W33850  35.378  16.791  10.409
72485W        W33851  31.120  40.902   0.248
72486W        W33852  40.385  28.620   2.228
72487W        W33853   8.396  36.383  14.416
72488W        W33854  16.225  22.550   0.419
72489W        W33855  29.537  36.027  13.380
72490W        W33856  34.871   7.315  10.642
72491W        W33857  12.775   5.401  14.925
72492W        W33858  35.049  29.536  13.845
72493W        W33859  41.320  36.870   0.301
72494W        W33860   7.847  21.067   3.317
72495W        W33861   9.653  10.333  14.963
72496W        W33862   5.831  26.112   2.703
72497W        W33863  29.423  44.908   3.246
72498W        W33864  26.071  21.730   2.900
72499W        W33865  29.105   7.770  10.948
72500W        W33866  24.134   2.808   5.156
72501W        W33867  32.936  25.003  11.513
72502W        W33868  30.609  23.077   0.876
72503W        W33869   7.400  19.646   1.420
72504W        W33870   7.769  29.501   4.729
72505W        W33871  20.182   4.305  12.839
72506W        W33872  36.395   8.320  14.776
72507W        W33873  13.172  34.878   1.862
72508W        W33874  34.558  33.505  14.783
72509W        W33875  13.170  43.881   1.353
72510W        W33876  41.344  10.634  13.474
72511W        W33877  31.620  17.750   5.141
72512W        W33878  14.779  42.022  12.964
72513W        W33879  19.739  31.071   3.629
72514W        W33880  44.790  41.381  14.497
72515W        W33881   9.728  33.131  11.074
72516W        W33882  18.550  25.009  14.304
72517W        W33883  21.605  26.641  14.318
72518W        W33884  43.302  34.380  10.943
72519W        W33885  16.616   4.210   3.642
72520W        W33886  43.796  14.120  11.120
72521W        W33887   8.822  41.414  11.433
72522W        W33888  36.053   2.471  11.915
72523W        W33889  10.806  38.918  14.329
72524W        W33890  17.249  39.963   4.656
72525W        W33891  30.942   4.842  10.628
72526W        W33892  36.538   5.851  14.768
72527W        W33893  16.597   7.319   2.180
72528W        W33894   5.291  14.208   5.688
72529W        W33895  11.139   0.380   1.921
72530W        W33896  18.285  33.605   1.332
72531W        W33897  38.030  19.703  11.461
72532W        W33898  27.002  28.965  12.029
72533W        W33899   8.400   7.669   4.214
72534W        W33900  18.671  37.442  14.286
72535W        W33901   2.234  24.541   2.768
72536W        W33902  15.295  40.845  11.522
72537W        W33903  19.539  24.162  13.515
72538W        W33904  39.819  14.269  12.929
72539W        W33905   8.765  27.152   4.234
72540W        W33906   1.793   5.278   4.213
72541W        W33907  17.764   7.771  10.924
72542W        W33908  34.957  42.995   4.180
72543W        W33909  34.870  21.237  13.340
72544W        W33910  26.591  20.596  13.841
72545W        W33911  39.443  37.060  11.431
72546W        W33912  12.239  14.289   2.362
72547W        W33913  30.981   4.907  13.878
72548W        W33914  17.174  16.076  10.553
72549W        W33915  38.021  13.794  13.505
72550W        W33916  21.174  32.530   4.804
72551W        W33917  35.526  21.599   1.304
72552W        W33918  10.198   9.385  11.505
72553W        W33919  41.847  29.583   3.646
72554W        W33920   5.356  37.063  11.962
72555W        W33921  32.907   4.813   0.743
72556W        W33922  14.811  21.598  13.995
72557W        W33923  13.208   2.836   3.691
72558W        W33924  20.053  12.645  14.515
72559W        W33925  14.602  27.183   0.870
72560W        W33926  32.514   6.858   2.311
72561W        W33927  21.251  28.177   3.299
72562W        W33928  28.562  20.657  11.949
72563W        W33929  17.584  30.015  13.801
72564W        W33930  14.200  29.556  14.314
72565W        W33931  22.573  20.129   1.299
72566W        W33932  26.080  12.185  11.458
72567W        W33933  23.605  25.637  12.989
72568W        W33934  20.638  39.558  14.804
72569W        W33935  21.525  43.812  14.399
72570W        W33936  10.851  33.518  10.612
72571W        W33937  37.985  37.831  12.499
72572W        W33938  19.261  14.275  11.058
72573W        W33939   1.328  19.582  14.373
72574W        W33940   7.668  12.126  14.440
72575W        W33941   2.450  44.450  12.511
72576W        W33942  13.175  41.974   1.815
72577W        W33943   2.297  14.639  13.538
72578W        W33944  12.307  29.510   3.810
72579W        W33945  15.110  27.055   4.177
72580W        W33946  36.841  39.829   4.251
72581W        W33947  22.034  16.583  11.880
72582W        W33948  21.035   3.431   0.455
72583W        W33949  12.612  41.427  14.010
72584W        W33950  36.995  16.146  10.629
72585W        W33951   2.372  37.512   2.725
72586W        W33952  33.942  21.523  10.935
72587W        W33953  37.539  32.101   3.770
72588W        W33954   5.691  12.619   1.354
72589W        W33955  44.818  35.063   1.894
72590W        W33956  17.241  24.076  14.324
72591W        W33957  32.042   9.284  11.893
72592W        W33958  37.351  32.056  11.875
72593W        W33959   3.795   1.794   1.415
72594W        W33960  41.042  15.297   4.751
72595W        W33961  34.021  23.674  10.609
72596W        W33962  35.595  43.915   1.855
72597W        W33963  43.382  35.560  11.064
72598W        W33964  21.677  17.244   3.326
72599W        W33965  17.178  41.342  14.900
72600W        W33966   8.395   4.385  12.992
72601W        W33967  18.635   6.213   4.827
72602W        W33968  19.636  27.476  13.064
72603W        W33969  30.562  43.377  12.424
72604W        W33970  26.184  25.965  10.970
72605W        W33971  35.514  33.479  11.085
72606W        W33972  35.557  44.344  11.491
72607W        W33973  40.967  30.097   2.369
72608W        W33974  32.995  22.119   2.811
72609W        W33975   3.449  26.633  14.770
72610W        W33976  39.359   5.911  11.099
72611W        W33977  40.909   8.862   2.721
72612W        W33978  43.277  33.463   3.765
72613W        W33979  41.797   5.879   2.310
72614W        W33980   9.176  42.988  14.279
72615W        W33981  36.396  43.951  14.894
72616W        W33982  10.757  44.412   2.716
72617W        W33983  23.204  26.650   3.383
72618W        W33984   1.289   2.730  11.444
72619W        W33985  20.199  38.335   1.290
72620W        W33986  35.865  18.086   2.336
72621W        W33987   1.403   4.412   4.122
72622W        W33988  30.058  22.011  10.586
72623W        W33989  31.988  21.102   0.407
72624W        W33990  20.550   7.882  12.506
72625W        W33991  30.045  18.738   9.955
72626W        W33992   6.360   2.951  13.334
72627W        W33993  32.472  20.200   3.154
72628W        W33994  21.207  22.546   1.347
72629W        W33995   5.373  43.386   3.799
72630W        W33996  37.013  25.649   3.364
72631W        W33997  23.073  18.125   3.648
72632W        W33998  33.940  21.165   5.230
72633W        W33999  15.146   5.277   1.756
72634W        W34000  30.039  31.050   0.844
72635W        W34001   7.772  25.577  13.367
72636W        W34002  22.251  14.790  13.041
72637W        W34003  21.607  44.910   2.870
72638W        W34004  29.555  28.990   2.254
72639W        W34005  38.342  16.264   4.282
72640W        W34006  24.117  35.521  12.954
72641W        W34007  29.116   1.953  13.510
72642W        W34008  38.354  34.588   4.830
72643W        W34009   5.246  38.048   3.190
72644W        W34010  40.935  19.094   0.764
72645W        W34011  37.062   5.720  13.491
72646W        W34012  26.993   4.412  13.876
72647W        W34013  23.529  15.764  14.902
72648W        W34014   8.324   4.442   4.215
72649W        W34015  25.471  38.501  10.492
72650W        W34016  20.706  19.675  12.572
72651W        W34017   9.751  40.343   3.256
72652W        W34018  39.442  12.741  13.420
72653W        W34019   5.701  28.173  14.973
72654W        W34020  26.655  43.866  14.878
72655W        W34021  39.364  36.491   1.888
72656W        W34022   5.298  16.758  13.431
72657W        W34023   3.922  19.575   2.818
72658W        W34024   1.953  43.472  13.482
72659W        W34025  28.988   3.869  14.915
72660W        W34026  29.951  14.207   4.152
72661W        W34027  30.479  12.768  14.452
72662W        W34028   9.321  25.076  14.312
72663W        W34029  31.920  14.684  12.381
72664W        W34030  11.738  35.422   3.346
72665W        W34031  35.890  21.097  13.424
72666W        W34032  44.872  12.330   3.854
72667W        W34033  14.822  42.286   3.772
72668W        W34034   2.406   0.252   0.398
72669W        W34035  27.953  44.485   1.340
72670W        W34036  13.657   3.451  11.000
72671W        W34037  24.220  11.197  13.024
72672W        W34038  43.510  41.963   0.302
72673W        W34039  19.569  21.237  13.001
72674W        W34040  36.395  19.647  10.642
72675W        W34041   1.793  24.219  14.963
72676W        W34042  37.898  32.456  14.001
72677W        W34043  44.274  44.480   1.901
72678W        W34044  44.482  24.220  10.928
72679W        W34045  29.155  22.205   2.667
72680W        W34046  35.995  11.272  14.387
72681W        W34047  16.597  38.490   3.375
72682W        W34048  15.708  22.659   4.288
72683W        W34049  32.944  40.889   0.242
72684W        W34050  27.675  37.908   1.820
72685W        W34051  28.509   5.804  12.368
72686W        W34052  42.395  24.148   3.860
72687W        W34053   3.380  32.139   4.323
72688W        W34054  22.641  31.948  10.438
72689W        W34055  21.186  21.693  14.022
72690W        W34056  22.182  31.427   0.758
72691W        W34057   9.392  16.759   5.751
72692W        W34058  10.154  22.627   4.730
72693W        W34059   0.808  35.385   3.167
72694W        W34060  40.848   0.347  11.036
72695W        W34061  25.479  10.282  12.499
72696W        W34062  40.477  40.824  13.354
72697W        W34063  12.629  11.861  11.437
72698W        W34064  17.703  21.135   0.870
72699W        W34065   5.885   0.385   2.329
72700W        W34066  10.737  33.604  11.918
72701W        W34067   7.175  34.445   3.725
72702W        W34068  32.502  15.204  11.598
72703W        W34069   7.272  36.915   3.380
72704W        W34070   8.698   2.259   3.718
72705W        W34071  36.940  20.683  10.463
72706W        W34072  21.101  26.150  14.957
72707W        W34073  28.055  40.909  10.451
72708W        W34074   0.340  27.666   3.634
72709W        W34075  23.120  20.211   4.833
72710W        W34076  24.192  11.317  10.511
72711W        W34077   8.324  40.907  11.015
72712W        W34078  27.101  40.799   0.964
72713W        W34079   0.337  15.621  14.913
72714W        W34080  44.413  42.818   4.121
72715W        W34081  26.681   2.401  10.580
72716W        W34082  32.053   1.913  13.448
72717W        W34083  32.451  38.442  10.943
72718W        W34084  16.759  16.611   1.314
72719W        W34085  18.612   4.232  10.918
72720W        W34086  43.790  30.140   1.927
72721W        W34087  36.939  32.593  11.056
72722W        W34088  16.665   3.435  11.975
72723W        W34089  37.571  16.604   2.245
72724W        W34090   3.808  19.763  10.983
72725W        W34091  29.133  28.115  10.023
72726W        W34092  27.074  10.159   1.428
72727W        W34093  42.921  29.572   3.735
72728W        W34094  44.966  19.736   3.201
72729W        W34095  10.764  35.426  12.573
72730W        W34096  29.624  24.022  14.281
72731W        W34097  30.428  15.089  12.834
72732W        W34098  34.897   0.266   1.708
72733W        W34099  43.490   3.878   4.227
72734W        W34100  13.292  37.044  11.431
72735W        W34101  43.005  24.217   1.287
72736W        W34102  18.557  19.168  12.824
72737W        W34103  25.707   2.723  14.947
72738W        W34104  42.839  17.276   2.336
72739W        W34105  36.429   3.222   2.313
72740W        W34106   0.247  12.141   4.757
72741W        W34107  35.373  12.284  13.008
72742W        W34108  36.538  40.930   1.212
72743W        W34109  42.502   9.301  11.032
72744W        W34110  17.737   9.253  13.506
72745W        W34111  27.626  19.758   4.687
72746W        W34112  44.401  36.074   4.213
72747W        W34113  10.330  37.429  14.967
72748W        W34114  20.742  30.926  11.513
72749W        W34115  35.534   4.865   3.256
72750W        W34116  21.530  22.671  10.067
72751W        W34117  15.616   5.747   0.464
72752W        W34118  34.049  17.147  11.463
72753W        W34119  30.001  25.559  14.782
72754W        W34120  24.682  39.445   1.696
72755W        W34121  22.529  15.246   0.454
72756W        W34122  29.426  22.213   4.163
72757W        W34123   7.824  24.537   0.920
72758W        W34124  38.463   2.849  14.841
72759W        W34125  26.137  31.152  14.998
72760W        W34126  41.854   6.348  10.893
72761W        W34127  22.231  23.050   4.247
72762W        W34128  34.956  29.109   0.350
72763W        W34129  22.724  25.173  14.480
72764W        W34130  24.042   8.721   1.211
72765W        W34131  26.072  23.115  14.460
72766W        W34132  34.426  27.093  14.284
72767W        W34133  40.045  20.573  12.492
72768W        W34134  36.976  42.820   1.863
72769W        W34135  19.755   6.894   3.286
72770W        W34136   0.485  30.509   0.295
72771W        W34137  44.497  12.622  11.857
72772W        W34138  43.912   9.276   2.413
72773W        W34139  39.377  33.943  13.033
72774W        W34140  27.140  10.752  11.047
72775W        W34141   9.358  28.970   3.382
72776W        W34142  39.376   4.328   1.772
72777W        W34143  18.645   5.195   1.774
72778W        W34144  18.582  10.155  13.502
72779W        W34145  42.492  11.161  14.777
72780W        W34146   4.729  20.578  14.307
72781W        W34147   4.409  18.774  14.300
72782W        W34148  37.987  40.894   0.731
72783W        W34149  42.423  24.689  12.494
72784W        W34150  21.729  27.041   2.889
72785W        W34151  21.042  27.036   2.214
72786W        W34152  35.084   8.375   0.863
72787W        W34153  39.878  10.329  13.357
72788W        W34154  16.168   0.274   0.289
72789W        W34155   8.274  31.623   1.295
72790W        W34156   9.376  36.480  12.513
72791W        W34157   3.918  38.565  10.404
72792W        W34158   1.741  41.871  13.384
72793W        W34159  24.070  40.833   0.864
72794W        W34160  22.165  25.218  11.086
72795W        W34161  14.269  31.097  10.906
72796W        W34162   5.749  25.187  11.611
72797W        W34163  12.724  18.710   0.267
72798W        W34164  37.909  21.023   0.835
72799W        W34165  13.299  13.620  12.875
72800W        W34166  38.996  30.423  14.024
72801W        W34167  42.860  17.125   4.740
72802W        W34168  13.262   2.401  11.479
72803W        W34169  23.508   1.345   1.745
72804W        W34170  20.071   0.288   3.736
72805W        W34171  19.174  33.561   2.419
72806W        W34172   4.941  25.704  12.465
72807W        W34173   4.835  25.635  13.385
72808W        W34174  20.084   5.240  13.039
72809W        W34175   5.227  23.568  11.433
72810W        W34176  25.123  22.101  10.937
72811W        W34177  34.571  26.160  13.057
72812W        W34178  21.745  28.530   4.201
72813W        W34179   8.382  13.208   2.842
72814W        W34180   9.836  34.106   3.681
72815W        W34181   9.724  28.116  11.530
72816W        W34182   6.761  23.015  13.983
72817W        W34183  37.578  23.215   3.718
72818W        W34184  19.757   0.948   0.269
72819W        W34185   2.934  20.642   1.910
72820W        W34186  13.311  41.993   3.744
72821W        W34187  10.656   5.866   0.374
72822W        W34188  40.428  30.426  10.149
72823W        W34189  15.601  27.945   2.820
72824W        W34190  28.110  35.555   1.363
72825W        W34191  33.413   1.757  12.421
72826W        W34192  42.936  41.527   4.168
72827W        W34193  23.157  25.584  13.520
72828W        W34194  41.358  19.620  14.303
72829W        W34195  33.953  30.022   1.384
72830W        W34196  23.214  27.116  13.498
72831W        W34197  32.456  12.790  14.386
72832W        W34198  12.709   5.697  14.852
72833W        W34199  24.047  34.443   0.357
72834W        W34200  23.694  21.120  12.015
72835W        W34201  44.371  13.721   0.782
72836W        W34202   2.467  37.508   4.795
72837W        W34203  18.588  35.046   4.191
72838W        W34204  44.349  32.482  13.389
72839W        W34205  35.954   6.838  13.461
72840W        W34206  32.928  17.201  11.882
72841W        W34207  21.591   6.398   4.186
72842W        W34208  26.511  10.854   0.744
72843W        W34209  39.956  18.283   0.810
72844W        W34210  18.077  15.190   0.255
72845W        W34211  28.503  39.323   4.246
72846W        W34212  27.446   1.923   3.279
72847W        W34213  20.746  30.595   0.304
72848W        W34214  33.470  40.518   3.309
72849W        W34215  19.082  36.098   0.456
72850W        W34216  11.219  42.315   3.795
72851W        W34217  14.807  41.372   0.822
72852W        W34218  11.817  21.711   1.348
72853W        W34219   5.759  29.921   2.718
72854W        W34220  40.999   3.789  14.453
72855W        W34221  24.208  23.721   2.189
72856W        W34222  24.161  21.641  11.402
72857W        W34223  22.180  15.607   1.747
72858W        W34224   2.330  13.718  14.953
72859W        W34225   9.186  43.384  13.980
72860W        W34226  31.986   8.288  10.903
72861W        W34227  11.801  42.788   5.278
72862W        W34228  23.108  37.374  12.881
72863W        W34229  33.960  13.737  13.424
72864W        W34230  23.523  43.483  14.928
72865W        W34231  36.886  43.944  11.002
72866W        W34232  28.041   6.289  14.764
72867W        W34233  43.879  37.991   3.712
72868W        W34234  40.938   6.676  14.506
72869W        W34235  25.158   8.196  12.390
72870W        W34236   2.907  31.585   2.900
72871W        W34237   5.414   2.744   4.674
72872W        W34238  24.976  35.533   9.619
72873W        W34239  11.263  42.301   2.760
72874W        W34240  15.795   0.333   2.323
72875W        W34241  37.001  23.211  14.991
72876W        W34242  33.969  37.517  14.935
72877W        W34243  22.654  26.686   5.268
72878W        W34244  24.149  31.411  12.903
72879W        W34245  38.553  23.515   2.852
72880W        W34246  12.718  16.630  10.542
72881W        W34247  37.578  22.741   3.364
72882W        W34248  15.734  38.454   5.163
72883W        W34249  24.012  14.251  10.594
72884W        W34250  28.008  25.707   2.789
72885W        W34251   2.951   5.306   4.281
72886W        W34252  11.163  28.039   4.670
72887W        W34253   9.827  27.590   2.246
72888W        W34254   5.843   5.779  11.051
72889W        W34255   3.430  20.261   3.163
72890W        W34256   3.314  15.715   3.697
72891W        W34257  10.207  44.463  12.417
72892W        W34258  20.678   0.826   4.732
72893W        W34259  11.650  42.006  13.029
72894W        W34260   2.308  10.152   2.400
72895W        W34261   1.305  11.692  11.590
72896W        W34262   7.809   2.895   0.430
72897W        W34263  33.621   7.668   4.717
72898W        W34264   7.912  26.528   5.088
72899W        W34265  11.738   8.225   0.293
72900W        W34266  44.010  33.074   1.255
72901W        W34267  36.879  24.087  14.777
72902W        W34268  39.370  34.075  12.531
72903W        W34269   9.291   9.244  14.991
72904W        W34270   7.804  41.356   4.817
72905W        W34271  37.521  19.127   4.314
72906W        W34272  23.070  33.944   1.304
72907W        W34273  41.937  34.509   0.782
72908W        W34274  23.590  33.874  13.833
72909W        W34275  26.188  44.936  13.960
72910W        W34276   2.242  35.598   3.668
72911W        W34277  24.056  13.736  13.805
72912W        W34278   8.662  10.272   2.808
72913W        W34279  17.787   1.814   3.357
72914W        W34280  35.077  35.478  12.460
72915W        W34281  43.841  38.514   4.134
72916W        W34282  30.602  23.990  14.828
72917W        W34283  42.919  21.578   4.184
72918W        W34284  31.065  10.878   4.612
72919W        W34285   7.797  32.109  14.397
72920W        W34286  35.513   2.378   1.832
72921W        W34287   6.802  13.204   5.656
72922W        W34288  28.118  22.742   3.734
72923W        W34289  31.624  39.960   5.092
72924W        W34290   7.802  40.335   1.889
72925W        W34291  40.306  28.520  10.416
72926W        W34292  41.329  24.566   0.897
72927W        W34293  13.214  44.377   2.822
72928W        W34294  11.210  28.141   1.430
72929W        W34295   5.266  32.619  13.486
72930W        W34296   6.378  37.553  11.918
72931W        W34297   6.734   1.251  11.080
72932W        W34298   9.232   8.368  14.007
72933W        W34299   2.947  27.521  14.031
72934W        W34300  36.544  20.199  11.447
72935W        W34301  13.688  42.511  11.908
72936W        W34302  11.269  42.855  12.078
72937W        W34303  19.086  20.203  11.376
72938W        W34304  12.305  12.785  12.464
72939W        W34305  32.421   4.378   1.755
72940W        W34306   6.292  17.773   3.363
72941W        W34307   5.306  10.319  12.930
72942W        W34308   4.707  35.378   0.953
72943W        W34309  31.928  23.242   0.402
72944W        W34310  20.250  13.192  10.952
72945W        W34311   6.821   1.460  10.607
72946W        W34312  17.189  31.446  12.831
72947W        W34313  25.209  21.137  11.031
72948W        W34314  37.515   0.770   3.722
72949W        W34315  37.832  41.868  14.020
72950W        W34316  16.247  34.935   0.393
72951W        W34317   7.246  23.173   2.205
72952W        W34318   6.915  12.250  10.964
72953W        W34319  34.409   4.221  10.453
72954W        W34320   2.967   4.943   2.408
72955W        W34321  28.121   0.319  13.822
72956W        W34322  42.288  14.776   1.714
72957W        W34323  20.609  19.202  12.021
72958W        W34324  10.676  22.016  14.465
72959W        W34325  30.442  43.936  14.488
72960W        W34326   3.435  17.116  12.532
72961W        W34327   2.961   1.865   4.333
72962W        W34328  10.839  39.960   0.948
72963W        W34329  13.633   3.714  12.062
72964W        W34330  20.715   0.781  12.466
72965W        W34331  23.009  42.365  12.897
72966W        W34332  30.632   9.254  13.938
72967W        W34333  22.018  36.562   4.303
72968W        W34334  41.972  20.118  14.850
72969W        W34335   8.253  27.508   2.891
72970W        W34336  23.630   9.166  12.916
72971W        W34337  14.231  32.113  10.494
72972W        W34338  42.847  21.549  14.363
72973W        W34339  37.550  40.511   1.723
72974W        W34340   1.255  38.565   1.324
72975W        W34341  27.034  23.026   2.206
72976W        W34342  13.615  21.097   4.341
72977W        W34343  32.937  39.373  12.357
72978W        W34344  29.111  22.102  13.337
72979W        W34345   3.386  28.992   5.238
72980W        W34346  36.487  30.140  14.342
72981W        W34347  10.794   0.299  12.001
72982W        W34348  10.177  28.621   1.250
72983W        W34349  24.556  37.059   3.292
72984W        W34350  39.851  41.813  12.472
72985W        W34351  27.646  33.455   0.966
72986W        W34352  20.217  19.190   1.761
72987W        W34353  27.168  33.039   3.379
72988W        W34354  40.055  35.938  13.054
72989W        W34355  33.573  26.502   1.932
72990W        W34356   6.206  19.635   5.216
72991W        W34357  31.629  42.956   2.709
72992W        W34358  28.078  17.595   0.453
72993W        W34359  44.445   4.800  10.968
72994W        W34360  43.483  32.453   4.720
72995W        W34361   2.945  39.938  14.313
72996W        W34362  24.221   2.772  11.028
72997W        W34363  16.715  12.781   0.329
72998W        W34364  24.112  37.953   3.760
72999W        W34365  36.587  39.545   3.776
73000W        W34366  14.756  13.132   2.388
73001W        W34367   9.661   6.221  13.049
73002W        W34368  10.150  24.695  11.921
73003W        W34369   9.325  23.608  12.922
73004W        W34370  35.468  13.197   1.754
73005W        W34371  23.710  23.044   1.282
73006W        W34372  17.574   1.835  13.448
73007W        W34373  43.489  27.581   0.272
73008W        W34374   9.845  14.156   0.433
73009W        W34375   8.288  19.223   0.483
73010W        W34376  37.482  24.160   3.323
73011W        W34377  19.644  44.277   1.885
73012W        W34378  26.987   2.300   2.217
73013W        W34379  24.059  40.335   3.712
73014W        W34380  11.624  25.686   4.726
73015W        W34381   5.421  34.096   4.344
73016W        W34382  17.214  22.547  14.439
73017W        W34383  12.725  35.876   1.367
73018W        W34384   8.668  16.639   0.412
73019W        W34385  35.537  17.150   2.213
73020W        W34386  25.988   6.265   1.349
73021W        W34387  34.409  23.589  11.006
73022W        W34388   4.243   9.761  11.590
73023W        W34389   7.801  17.125   3.771
73024W        W34390  43.465  12.265  12.992
73025W        W34391   7.817   2.915  14.344
73026W        W34392  18.768  17.674  14.794
73027W        W34393   1.452  27.149   0.889
73028W        W34394  24.122  20.073   4.236
73029W        W34395   1.250  31.148   2.410
73030W        W34396  16.290  25.978  13.036
73031W        W34397  24.078  18.771   5.082
73032W        W34398  16.159  44.322   3.639
73033W        W34399   3.419   9.272   3.850
73034W        W34400  28.988  29.967   4.637
73035W        W34401   5.842   2.841   4.811
73036W        W34402  29.098   5.894   2.372
73037W        W34403   3.749  25.130   3.220
73038W        W34404  37.059  15.822  14.005
73039W        W34405  22.606  22.583   2.415
73040W        W34406  44.899   0.836  14.770
73041W        W34407   8.253  23.234  13.866
73042W        W34408  40.315  27.956   1.742
73043W        W34409  16.578  19.634  14.388
73044W        W34410  43.439  34.110   4.283
73045W        W34411  31.474   1.273  10.594
73046W        W34412  12.694  23.573   4.736
73047W        W34413  33.505  37.046   2.703
73048W        W34414  42.349  35.853  12.939
73049W        W34415  10.844   6.850  13.319
73050W        W34416  30.474  19.234   3.326
73051W        W34417  13.762  26.513  12.389
73052W        W34418   4.896   7.755   0.462
73053W        W34419  35.405  26.156   2.759
73054W        W34420  22.085  11.345  11.582
73055W        W34421   1.933  32.543  13.436
73056W        W34422   7.276  19.143   4.186
73057W        W34423  39.845   7.728  11.609
73058W        W34424  25.999  17.589   3.355
73059W        W34425   8.361  40.985  12.915
73060W        W34426  35.443  13.140  11.128
73061W        W34427  22.132  17.182   4.194
73062W        W34428   4.752  27.105   3.664
73063W        W34429  10.217  32.071   1.743
73064W        W34430  43.892  33.382  10.573
73065W        W34431  12.287   6.908  14.471
73066W        W34432  38.530   3.405  14.363
73067W        W34433  19.754  36.030  12.369
73068W        W34434  17.291   2.404   4.678
73069W        W34435  34.074  32.527  14.294
73070W        W34436  14.772  33.051   3.269
73071W        W34437  13.317  21.577   3.708
73072W        W34438  40.846  41.482   3.170
73073W        W34439  44.853  30.611  12.043
73074W        W34440  42.941  31.625  14.913
73075W        W34441  38.461  39.359  12.947
73076W        W34442  12.631  14.634   5.296
73077W        W34443  37.839  29.474  13.917
73078W        W34444  14.725  21.183   4.270
73079W        W34445   7.228  40.361   3.182
73080W        W34446  43.796  17.066   0.392
73081W        W34447  23.672  35.445  13.892
73082W        W34448  25.067  41.309   3.183
73083W        W34449  16.149  37.348   1.718
73084W        W34450  24.495   6.813   4.598
73085W        W34451  18.211  33.987   3.807
73086W        W34452  13.605  39.399  10.993
73087W        W34453  40.365  28.162  11.889
73088W        W34454  20.611  44.011   2.724
73089W        W34455  29.036  20.180   2.843
73090W        W34456  40.984  23.145  14.299
73091W        W34457  26.602  44.282   5.237
73092W        W34458  39.009  21.082  14.436
73093W        W34459   0.937  43.485  10.887
73094W        W34460  24.082   7.315   3.774
73095W        W34461   4.296   1.431   3.274
73096W        W34462  44.857   8.845  13.043
73097W        W34463   8.277  22.156  10.452
73098W        W34464  10.149   3.924  10.599
73099W        W34465  11.220  33.614  10.925
73100W        W34466   4.305  44.902   3.150
73101W        W34467  28.047  39.482  11.535
73102W        W34468  10.272   1.276   0.370
73103W        W34469   5.383  12.793   0.740
73104W        W34470  30.434   7.821  13.050
73105W        W34471  15.275   4.727   0.968
73106W        W34472   1.348  35.886   2.349
73107W        W34473  23.153  11.722   0.454
73108W        W34474  39.391  22.508   4.287
73109W        W34475   8.711  44.394  14.402
73110W        W34476  37.921   1.280  12.491
73111W        W34477  30.052  20.670   1.793
73112W        W34478  19.669  24.719   3.211
73113W        W34479  17.667  10.159   0.937
73114W        W34480   1.854  10.228   4.342
73115W        W34481  32.955   3.240   0.897
73116W        W34482  43.891  19.087   1.739
73117W        W34483  36.013  25.470   4.318
73118W        W34484  21.222  11.690   2.177
73119W        W34485  43.801  38.351  10.490
73120W        W34486  18.573  30.456  14.993
73121W        W34487  21.604  26.063   1.447
73122W        W34488  15.320   1.416  14.473
73123W        W34489  38.964  24.680  11.112
73124W        W34490  32.559  30.446  12.568
73125W        W34491  16.163  33.994  13.970
73126W        W34492  20.550   0.257  11.866
73127W        W34493  27.027  36.422   0.751
73128W        W34494  40.520  34.457  12.349
73129W        W34495  35.923  25.615   0.951
73130W        W34496  10.316  23.061   0.291
73131W        W34497   7.795   1.287  10.904
73132W        W34498   2.265  25.632   2.815
73133W        W34499  25.094  26.570  10.917
73134W        W34500  31.080  17.797  14.387
73135W        W34501  19.717   2.801   0.730
73136W        W34502  18.152  14.659   4.343
73137W        W34503  40.405  11.698   3.350
73138W        W34504  31.988  40.824  14.983
73139W        W34505  36.957  10.844   3.755
73140W        W34506  11.645  33.421   1.377
73141W        W34507  31.504  15.154   2.255
73142W        W34508  24.587  42.922   0.753
73143W        W34509   5.216  29.647  14.800
73144W        W34510  10.741  21.564   0.330
73145W        W34511  40.381   7.898  11.931
73146W        W34512   8.163   1.367  12.525
73147W        W34513  39.064  38.012   0.291
73148W        W34514   2.412  27.164   1.886
73149W        W34515  22.211  15.270   0.726
73150W        W34516   3.251  21.708  12.008
73151W        W34517  28.475  39.535  13.044
73152W        W34518  14.767  18.607  12.873
73153W        W34519  14.327  44.758   1.760
73154W        W34520   7.178   2.749   4.790
73155W        W34521  32.630  30.630   3.146
73156W        W34522  11.792  12.666   0.759
73157W        W34523  40.942  19.764  12.927
73158W        W34524  23.060  10.829   1.210
73159W        W34525  14.214  42.488   4.209
73160W        W34526  17.126  21.247   4.332
73161W        W34527  12.261  16.219   9.608
73162W        W34528  30.529   8.659  10.627
73163W        W34529  27.998  33.082   4.123
73164W        W34530   8.883  16.794  12.872
73165W        W34531  39.395   1.388  10.632
73166W        W34532  32.932  28.139   1.222
73167W        W34533  12.341  11.859  14.873
73168W        W34534  10.672   6.866   0.249
73169W        W34535  19.044  35.595  13.810
73170W        W34536   7.896  25.568  14.960
73171W        W34537  42.285   8.705  13.837
73172W        W34538  29.617  21.752  10.531
73173W        W34539   5.218  19.569   1.289
73174W        W34540  18.667  16.240   0.357
73175W        W34541  22.601  16.779  13.811
73176W        W34542   3.347  32.395   2.222
73177W        W34543   5.775   4.764  13.466
73178W        W34544  25.646  35.987  14.463
73179W        W34545  14.759  18.130   3.739
73180W        W34546  14.672  44.354  10.993
73181W        W34547  24.555  18.229  11.531
73182W        W34548  34.571  25.563   1.407
73183W        W34549  19.203  28.534   4.316
73184W        W34550   6.378  41.945   4.300
73185W        W34551  31.600  41.404  13.485
73186W        W34552  36.939  25.606   1.255
73187W        W34553  25.125  10.658   3.796
73188W        W34554  33.576  31.629   3.835
73189W        W34555  14.146  18.101  13.968
73190W        W34556  25.156  38.515   2.213
73191W        W34557  16.219  42.416  13.057
73192W        W34558  33.401  43.888   1.267
73193W        W34559   8.191   7.210   0.429
73194W        W34560  13.715  44.817   4.680
73195W        W34561  10.704  11.162  14.992
73196W        W34562  38.042  14.653  12.478
73197W        W34563  19.578  38.565   0.419
73198W        W34564   1.473   4.890   0.380
73199W        W34565  22.102   3.407   4.694
73200W        W34566  42.499  41.448   4.231
73201W        W34567   5.357   9.363   2.276
73202W        W34568  14.693  28.155   1.814
73203W        W34569  33.891  28.528  12.008
73204W        W34570  21.749  33.443  12.555
73205W        W34571  11.165  16.220  10.553
73206W        W34572   0.488   8.740   2.665
73207W        W34573  38.011  44.806   0.355
73208W        W34574  23.164  21.141   3.239
73209W        W34575  37.483  27.545  14.770
73210W        W34576  34.935  20.242   1.829
73211W        W34577  24.521   8.404   2.236
73212W        W34578   1.846   2.328  11.538
73213W        W34579   5.352  18.619  11.424
73214W        W34580  16.713  31.547  13.887
73215W        W34581  18.608  13.132  13.970
73216W        W34582  40.527  30.416  13.310
73217W        W34583   1.781  25.086   1.215
73218W        W34584  33.572  38.454   2.386
73219W        W34585  34.379   3.927   0.809
73220W        W34586  32.471  17.698  14.329
73221W        W34587  27.465  18.700  13.528
73222W        W34588   8.873  18.714   3.363
73223W        W34589   5.203  18.216   2.336
73224W        W34590  41.927  29.919   0.429
73225W        W34591  12.757  41.411   3.856
73226W        W34592   1.450  44.880   2.399
73227W        W34593  24.977  31.979  11.371
73228W        W34594  30.561   3.340   0.887
73229W        W34595  43.274  30.484  11.918
73230W        W34596  40.043  19.067  12.901
73231W        W34597  38.072  28.096   4.258
73232W        W34598  29.636  22.640  14.945
73233W        W34599  10.221   6.211   1.370
73234W        W34600  10.291  13.206  13.030
73235W        W34601  42.432   1.883   1.316
73236W        W34602  42.004  16.087  12.533
73237W        W34603  28.621   6.340   4.681
73238W        W34604   3.277   1.834   2.795
73239W        W34605  40.409  38.534  13.854
73240W        W34606   7.758  19.641   2.860
73241W        W34607  32.508  35.501  10.461
73242W        W34608  27.024  31.140  10.003
73243W        W34609  13.786   1.378  10.897
73244W        W34610  43.800   1.814   1.738
73245W        W34611   3.830  36.583  11.452
73246W        W34612   0.855  30.911   3.159
73247W        W34613  34.051  31.559  13.539
73248W        W34614  35.432  33.625   1.359
73249W        W34615   8.662  18.622   0.967
73250W        W34616  18.203  18.716   2.408
73251W        W34617   7.237  11.728   3.780
73252W        W34618  22.582  15.652  13.896
73253W        W34619   8.254  37.868  14.335
73254W        W34620   1.947  27.169   2.882
73255W        W34621  36.851  38.060  13.955
73256W        W34622  29.621  30.652   0.353
73257W        W34623  43.475  25.511   0.851
73258W        W34624  33.938   9.817  10.934
73259W        W34625  23.131  44.968   3.756
73260W        W34626  19.758  38.849  13.923
73261W        W34627  43.298  27.659  12.496
73262W        W34628  21.120   9.187   1.811
73263W        W34629  37.884  25.577   0.294
73264W        W34630  13.607  33.607  12.065
73265W        W34631  34.036  43.971  10.144
73266W        W34632  17.771  34.487   0.405
73267W        W34633  43.444  33.969  12.534
73268W        W34634  16.751  38.980  13.873
73269W        W34635   3.349  43.278   4.250
73270W        W34636   4.710  21.667   4.285
73271W        W34637  24.586  30.931   1.401
73272W        W34638  17.278  38.566   4.728
73273W        W34639   3.918  19.665   5.096
73274W        W34640  34.074   5.203   4.338
73275W        W34641  11.736  12.618   5.102
73276W        W34642  32.421   6.239  11.882
73277W        W34643  32.580  12.674   0.886
73278W        W34644   9.729  12.628   2.812
73279W        W34645   1.345  41.528   0.740
73280W        W34646  33.498  17.175  12.939
73281W        W34647   3.798   2.866  14.376
73282W        W34648  15.587  16.308   3.289
73283W        W34649  13.298  16.163  10.599
73284W        W34650  18.748  20.239   3.244
73285W        W34651   6.800  14.821  11.948
73286W        W34652  44.002  23.223   0.476
73287W        W34653  21.522  17.801   0.343
73288W        W34654  23.687  35.900  13.378
73289W        W34655  32.549  18.296  14.322
73290W        W34656  27.158  27.057  10.906
73291W        W34657  20.751  13.623   4.136
73292W        W34658  36.377  14.834  12.344
73293W        W34659  16.639  42.958  13.516
73294W        W34660  15.706  18.660   2.277
73295W        W34661   6.276   9.703   4.682
73296W        W34662  19.662  23.562   4.236
73297W        W34663  40.389  33.400  10.599
73298W        W34664  19.141  31.990  10.610
73299W        W34665  42.918  25.502  10.615
73300W        W34666  37.557   1.323   3.784
73301W        W34667  16.304   3.320  10.630
73302W        W34668  39.843  34.087  11.431
73303W        W34669  30.514  13.715   2.314
73304W        W34670  30.514  27.976  13.444
73305W        W34671  10.316   7.219   9.966
73306W        W34672  33.595  34.377   2.734
73307W        W34673  37.899  37.022  14.825
73308W        W34674   4.247  21.605   4.797
73309W        W34675  32.402  36.911   3.631
73310W        W34676   3.836  36.563  13.990
73311W        W34677  35.451  12.811   0.822
73312W        W34678  43.334  26.101  12.878
73313W        W34679  39.965   5.755  14.928
73314W        W34680   6.846  44.827   2.877
73315W        W34681  24.540  12.355   0.876
73316W        W34682  32.399  34.071  11.496
73317W        W34683  20.700  12.639  14.940
73318W        W34684   8.654  24.073   3.342
73319W        W34685  24.219  34.024   3.335
73320W        W34686  18.698   3.329   1.741
73321W        W34687  25.476  44.276   1.762
73322W        W34688   1.836  41.498   0.730
73323W        W34689  29.167  15.233   0.726
73324W        W34690   1.291  23.656   2.733
73325W        W34691   8.894   5.271   3.362
73326W        W34692  35.375  19.201  12.378
73327W        W34693  32.898  10.328  12.007
73328W        W34694  29.513  10.174  12.357
73329W        W34695   3.244   3.280  14.402
73330W        W34696  14.140  18.653  10.957
73331W        W34697  12.706   0.909  11.061
73332W        W34698  30.442  25.037   2.893
73333W        W34699  14.832   8.298   4.772
73334W        W34700   5.688  29.538  12.951
73335W        W34701  23.041  26.975   0.429
73336W        W34702  21.726  14.098  13.457
73337W        W34703  35.422  31.625  12.860
73338W        W34704  41.850   4.712  11.569
73339W        W34705   9.692  22.699  14.394
73340W        W34706  14.664  31.564  14.288
73341W        W34707  18.622  22.082   0.836
73342W        W34708   3.444   5.282   1.794
73343W        W34709  10.184  35.864   2.192
73344W        W34710  17.218  18.270   2.663
73345W        W34711  24.648  30.032   3.266
73346W        W34712  29.509  44.277   0.427
73347W        W34713  38.002   7.188   0.774
73348W        W34714   4.829   7.208   2.862
73349W        W34715  17.690  18.704  12.572
73350W        W34716   5.718  26.514   3.645
73351W        W34717   0.473  37.339   3.260
73352W        W34718  37.433  16.642  14.404
73353W        W34719  23.630  11.167  10.913
73354W        W34720  17.161  29.088   2.382
73355W        W34721   0.747  11.261  10.461
73356W        W34722  13.253  13.618   0.935
73357W        W34723  11.636   0.318   2.892
73358W        W34724  37.959  23.685   2.290
73359W        W34725  31.956  38.382  10.611
73360W        W34726  34.985   1.769  14.970
73361W        W34727  28.447  40.909  13.518
73362W        W34728  12.831  36.552  11.985
73363W        W34729  13.265  37.437   4.670
73364W        W34730   8.885  23.079  14.351
73365W        W34731   5.390  15.639  13.868
73366W        W34732  12.783  22.050  13.048
73367W        W34733  15.285  19.149   2.199
73368W        W34734  13.813   2.396   4.604
73369W        W34735  42.488  16.588  13.351
73370W        W34736  20.550  38.970  14.465
73371W        W34737  34.447  14.109   0.868
73372W        W34738  32.000  19.071  12.954
73373W        W34739   0.946  31.964  13.315
73374W        W34740  18.791  13.780  11.010
73375W        W34741   9.168  36.371   3.298
73376W        W34742  26.207   4.254  14.412
73377W        W34743   9.878  27.988  13.316
73378W        W34744  25.076  38.922  11.041
73379W        W34745   9.338   5.338   9.928
73380W        W34746  17.286  20.711   4.141
73381W        W34747  38.831  11.801   3.794
73382W        W34748  24.183  25.047   2.373
73383W        W34749  29.629  18.649  11.955
73384W        W34750  34.960  16.762  13.850
73385W        W34751   1.367  10.255  11.046
73386W        W34752  42.320   0.324   4.149
73387W        W34753  36.943  36.443  11.126
73388W        W34754  43.830  20.755  11.994
73389W        W34755  21.243  13.229  13.973
73390W        W34756  36.431  20.742   4.671
73391W        W34757  22.141  12.205   0.762
73392W        W34758  26.458  34.904  12.384
73393W        W34759  22.114  43.279  12.943
73394W        W34760   9.743   8.327  14.474
73395W        W34761   0.918  25.040  12.473
73396W        W34762  17.143  38.543   3.359
73397W        W34763  41.390  42.402  11.485
73398W        W34764  32.990  29.018  13.934
73399W        W34765   1.757  16.140   1.912
73400W        W34766  37.434  44.845  11.863
73401W        W34767  11.744  29.550   3.777
73402W        W34768  18.229  20.547  14.280
73403W        W34769   8.399  19.272  14.278
73404W        W34770  10.676  19.212   0.894
73405W        W34771  24.126  24.217   4.114
73406W        W34772  10.376  35.011  13.395
73407W        W34773  21.042  24.085   2.229
73408W        W34774  15.596  35.948  13.878
73409W        W34775  32.454  22.112   1.400
73410W        W34776  11.266  26.141   1.406
73411W        W34777  29.616  14.135   4.795
73412W        W34778   0.262   2.794  11.988
73413W        W34779  44.907  24.146  12.505
73414W        W34780  17.198  28.942  11.923
73415W        W34781  35.388  42.497   2.736
73416W        W34782   5.855  19.256   2.398
73417W        W34783  11.216   6.785  11.026
73418W        W34784  42.390  14.128   3.218
73419W        W34785  11.358   9.220   3.768
73420W        W34786  18.127  34.970  10.471
73421W        W34787  38.465  18.056   2.890
73422W        W34788  18.087   7.681  11.952
73423W        W34789   2.739  27.465   0.295
73424W        W34790  20.032  14.674   2.847
73425W        W34791  11.287  35.016  12.507
73426W        W34792   3.399  17.201   2.312
73427W        W34793  29.929  37.473  10.945
73428W        W34794  18.651  21.609  13.845
73429W        W34795   5.405  36.382   4.603
73430W        W34796  41.457  20.140  11.017
73431W        W34797  34.449  20.131  11.048
73432W        W34798   5.824  37.839   0.342
73433W        W34799   7.829  37.362  13.976
73434W        W34800  17.644  27.600  14.020
73435W        W34801  12.848  27.462   2.416
73436W        W34802  12.798  37.389   2.200
73437W        W34803   3.459  15.643  12.445
73438W        W34804  43.767  11.796  13.499
73439W        W34805  12.611   2.292  14.765
73440W        W34806  37.980  29.573  13.473
73441W        W34807   3.376  13.651   4.774
73442W        W34808  24.547  24.646   2.372
73443W        W34809  40.508  21.536   1.888
73444W        W34810  18.051  44.296   1.761
73445W        W34811  41.443  19.048   3.819
73446W        W34812  38.874  21.641   1.701
73447W        W34813  34.497   4.899  14.759
73448W        W34814   3.719   9.384  11.109
73449W        W34815  14.320  35.436  11.495
73450W        W34816  33.070  36.496  14.023
73451W        W34817  14.613  10.667   2.260
73452W        W34818   7.858  27.523  11.871
73453W        W34819   0.290  44.839   4.612
73454W        W34820  35.394   5.834   0.913
73455W        W34821   3.325  41.790   0.743
73456W        W34822  22.515  35.515  11.524
73457W        W34823  21.671  35.931   4.816
73458W        W34824  17.292   5.759   3.242
73459W        W34825   6.406  38.029  10.516
73460W        W34826  32.093  18.143   0.819
73461W        W34827  41.861  23.108   1.727
73462W        W34828  15.117  38.428  13.936
73463W        W34829  19.207  17.214   3.870
73464W        W34830  37.855  27.135  14.388
73465W        W34831  12.724  28.010   4.749
73466W        W34832   9.245  34.883   2.820
73467W        W34833  30.565  25.962  11.015
73468W        W34834  27.512  32.977   2.796
73469W        W34835  26.688  37.464   2.181
73470W        W34836  34.404   8.344   2.846
73471W        W34837  41.324  44.370   3.167
73472W        W34838   8.162   9.760  12.564
73473W        W34839  26.026  37.373   1.365
73474W        W34840  18.777  28.440  12.860
73475W        W34841  12.787  38.501   4.193
73476W        W34842  22.092   6.746  12.983
73477W        W34843  39.997  16.274   4.658
73478W        W34844  29.919  14.651   1.282
73479W        W34845  13.305   9.710  14.828
73480W        W34846  23.732  40.942   3.641
73481W        W34847  14.202  25.701   0.259
73482W        W34848  22.565  16.123   0.275
73483W        W34849  27.184  40.445   0.955
73484W        W34850   2.914  26.604   0.450
73485W        W34851  20.696  32.558   1.328
73486W        W34852  17.681   2.819   0.283
73487W        W34853  23.108  29.038  11.991
73488W        W34854   7.350  11.322   0.802
73489W        W34855  10.704  44.865  14.998
73490W        W34856  18.752  24.078   3.656
73491W        W34857  37.080   9.855   4.349
73492W        W34858   4.751  38.878  13.433
73493W        W34859  44.452  10.288   3.152
73494W        W34860  18.725  20.160  12.007
73495W        W34861  10.376  21.215  10.125
73496W        W34862  11.822  13.145  11.056
73497W        W34863  40.307  21.650  10.491
73498W        W34864  16.305   8.310   0.288
73499W        W34865   7.354  20.731  14.902
73500W        W34866  24.051  35.386  14.510
73501W        W34867   9.817  13.769   3.634
73502W        W34868   0.382  42.943   0.845
73503W        W34869  36.020  24.133  14.974
73504W        W34870  39.020  10.667   1.908
73505W        W34871  14.288  11.824   4.325
73506W        W34872   6.309  31.958   2.365
73507W        W34873  42.794  19.574   1.358
73508W        W34874  29.059  20.758  14.841
73509W        W34875   6.807  42.525  12.452
73510W        W34876  35.042  20.744  14.943
73511W        W34877  14.777  13.137  12.869
73512W        W34878  30.587  31.453   2.275
73513W        W34879  15.646   7.171  13.818
73514W        W34880  18.729  39.510  13.430
73515W        W34881   7.793  30.460  10.632
73516W        W34882  19.119   2.427   3.183
73517W        W34883   2.255  12.339   3.724
73518W        W34884  33.937  13.177   4.806
73519W        W34885  16.263   2.409   2.202
73520W        W34886  35.910   1.449  10.488
73521W        W34887  21.185  44.889  10.498
73522W        W34888  37.002   4.334  12.825
73523W        W34889  22.124  37.386  10.480
73524W        W34890  33.116  38.480  11.018
73525W        W34891  12.362   8.294  10.957
73526W        W34892  31.632  28.628  10.419
73527W        W34893  15.665  16.264   4.125
73528W        W34894  12.759  36.890  13.866
73529W        W34895  15.689   3.347  11.927
73530W        W34896  35.040  37.901  11.990
73531W        W34897   3.339  42.519  12.468
73532W        W34898  36.491  15.099   3.791
73533W        W34899   1.372  20.721   2.183
73534W        W34900  39.404  38.435  10.488
73535W        W34901  17.797  10.750   1.393
73536W        W34902  10.636  41.448   1.766
73537W        W34903  22.543  32.024   5.571
73538W        W34904  27.166  20.072   1.787
73539W        W34905  33.568  31.415   0.931
73540W        W34906  44.355  25.691   4.676
73541W        W34907  37.399  19.694   0.917
73542W        W34908  16.760  39.528  10.424
73543W        W34909  20.526   6.211   3.662
73544W        W34910  26.700  11.289  12.416
73545W        W34911  40.029  34.029   1.429
73546W        W34912  26.589  18.645  14.320
73547W        W34913  18.685   2.325   4.710
73548W        W34914   4.904  33.914  14.344
73549W        W34915   3.400  22.683  11.865
73550W        W34916  32.948   3.312  10.555
73551W        W34917  42.385  35.043   4.751
73552W        W34918  26.577  21.696  11.893
73553W        W34919  17.225  44.794   0.890
73554W        W34920  14.730  21.113  11.508
73555W        W34921  24.656  26.091  13.890
73556W        W34922  26.599  22.006   0.895
73557W        W34923  42.295  15.291   1.270
73558W        W34924  13.710  23.118  11.458
73559W        W34925  17.266   4.751   2.331
73560W        W34926   0.935  15.745   3.215
73561W        W34927  22.501  29.136   0.844
73562W        W34928  21.634  32.090   5.219
73563W        W34929  32.427  39.395   1.899
73564W        W34930  29.074  19.149   1.341
73565W        W34931   5.268  34.939  14.308
73566W        W34932  30.467  16.761   1.350
73567W        W34933  22.566  38.957  13.856
73568W        W34934   1.388  36.450   3.641
73569W        W34935   3.740   8.218  11.533
73570W        W34936   9.213   0.797   2.802
73571W        W34937  31.009  24.134   0.858
73572W        W34938   2.939  42.342   1.229
73573W        W34939  16.292  19.155   4.827
73574W        W34940   6.401  39.322  12.887
73575W        W34941  38.062  35.986   1.801
73576W        W34942  24.502  40.834  11.444
73577W        W34943  32.631   0.368  11.404
73578W        W34944  12.794  18.082  14.509
73579W        W34945  26.153  23.731  14.472
73580W        W34946  41.524  41.975   0.843
73581W        W34947  40.487  22.547   4.346
73582W        W34948  25.664  29.605  12.825
73583W        W34949  12.629   0.249  13.871
73584W        W34950  34.888  29.527   0.367
73585W        W34951  37.382   8.264   1.827
73586W        W34952  11.724  31.479   3.660
73587W        W34953   9.336  39.320  13.936
73588W        W34954   3.720  29.105   0.425
73589W        W34955  24.579  27.497   2.786
73590W        W34956  12.244  44.321  11.020
73591W        W34957   4.262  14.643   0.321
73592W        W34958  10.797  12.630   1.811
73593W        W34959  21.227  17.655   0.967
73594W        W34960   0.773  29.471  13.952
73595W        W34961  40.964  12.715  14.842
73596W        W34962  38.481  29.927   2.412
73597W        W34963   7.903  44.376   5.121
73598W        W34964   6.899   4.243   2.758
73599W        W34965   7.286  14.806  11.859
73600W        W34966  11.140  25.208   2.216
73601W        W34967  18.579  37.905  10.606
73602W        W34968  31.908   2.890  14.365
73603W        W34969  23.493  16.622  13.030
73604W        W34970  17.669  23.089   3.727
73605W        W34971  23.669  33.550  12.364
73606W        W34972  34.458   9.669  11.858
73607W        W34973  18.560  29.543  11.567
73608W        W34974   4.313  26.092  10.523
73609W        W34975  10.376  29.968  12.950
73610W        W34976   4.887  24.046   1.933
73611W        W34977  40.986  22.245   2.830
73612W        W34978  37.949  26.467   1.807
73613W        W34979  36.469  32.002  14.412
73614W        W34980  27.108  27.472  12.881
73615W        W34981  30.970  15.727   3.650
73616W        W34982  28.576  13.840  11.870
73617W        W34983  16.751  12.202   2.191
73618W        W34984  25.165  42.517   0.290
73619W        W34985  29.537  30.138   2.337
73620W        W34986  16.734  29.093  14.403
73621W        W34987  18.271  20.717   0.414
73622W        W34988   3.243  10.787   0.353
73623W        W34989   4.285   9.197  12.959
73624W        W34990   3.852   4.227   2.245
73625W        W34991   0.957  27.021  12.009
73626W        W34992  35.860   9.205   3.755
73627W        W34993  18.211   5.199  12.924
73628W        W34994  15.114  12.623   1.704
73629W        W34995  33.525   2.315  11.477
73630W        W34996  37.358  19.086  11.551
73631W        W34997  23.611   9.234   3.154
73632W        W34998  26.570  19.758   1.830
73633W        W34999  27.000  18.149   4.615
73634W        W35000  39.037  41.820  11.118
73635W        W35001   5.243  13.782   1.428
73636W        W35002   8.344  15.681   2.275
73637W        W35003  43.437  39.986   4.181
73638W        W35004  20.554  29.157   2.211
73639W        W35005  24.100  38.056   4.705
73640W        W35006   9.237  35.398  14.315
73641W        W35007  16.799  20.612   4.760
73642W        W35008  30.484  27.470  13.410
73643W        W35009  30.505  25.039   1.303
73644W        W35010   1.469  30.943  14.785
73645W        W35011  41.484  44.498   2.225
73646W        W35012  35.020  44.837   0.303
73647W        W35013   5.337  33.537  12.500
73648W        W35014  28.613  37.051  14.369
73649W        W35015  39.533  16.229  11.568
73650W        W35016  30.514   4.847   2.280
73651W        W35017   4.944  36.422  11.458
73652W        W35018  10.870  44.769  13.495
73653W        W35019  36.586  25.653  11.079
73654W        W35020   2.428  30.424  10.110
73655W        W35021  42.922  18.283  11.009
73656W        W35022  27.634  42.471   4.817
73657W        W35023  33.553  37.883   4.354
73658W        W35024  11.710  23.016  14.282
73659W        W35025  37.978   5.751   3.164
73660W        W35026  35.576   2.724  11.437
73661W        W35027   7.767   6.301  12.358
73662W        W35028  37.837  15.656   2.303
73663W        W35029   6.923  20.524   0.764
73664W        W35030  15.633  44.279   5.105
73665W        W35031  20.246  44.358   4.613
73666W        W35032  13.826  18.749   1.374
73667W        W35033  19.567  38.562  11.440
73668W        W35034  37.436   8.724  12.972
73669W        W35035  10.236  43.464   4.297
73670W        W35036  33.406   5.407  11.096
73671W        W35037  40.513   5.902   0.351
73672W        W35038  42.344   7.716   2.304
73673W        W35039  36.421  12.634   2.763
73674W        W35040   1.919  20.769   0.278
73675W        W35041   1.875   5.691  12.571
73676W        W35042   3.216  38.903  10.433
73677W        W35043  41.841  31.587   0.744
73678W        W35044   1.925  14.833   3.371
73679W        W35045  20.128  15.117   2.200
73680W        W35046  21.231  36.889  12.401
73681W        W35047  15.173  35.519  13.942
73682W        W35048   1.835  31.564  13.360
73683W        W35049  27.164  42.940  14.920
73684W        W35050  19.767   5.229   2.785
73685W        W35051  26.492  10.259  11.868
73686W        W35052  21.550   6.847   4.144
73687W        W35053  11.766   5.400  11.877
73688W        W35054  40.856   5.705  13.910
73689W        W35055  16.808   9.194   1.347
73690W        W35056  27.135  44.491   1.702
73691W        W35057  23.564  28.485  13.912
73692W        W35058  20.598  29.597   4.222
73693W        W35059  38.471   0.267  10.556
73694W        W35060  40.522  30.993  11.972
73695W        W35061  36.033  22.555   5.245
73696W        W35062  41.297  18.625  11.004
73697W        W35063   8.173  18.781   0.357
73698W        W35064  36.405  15.737  13.819
73699W        W35065  44.469  33.389  13.816
73700W        W35066  11.181   9.325  11.603
73701W        W35067  38.957  33.936   3.708
73702W        W35068  16.773  15.219   2.754
73703W        W35069   6.863   3.346   3.789
73704W        W35070  23.577  21.161  13.321
73705W        W35071  23.989  31.488   4.659
73706W        W35072  17.613  26.682   1.413
73707W        W35073  14.237   0.945  14.867
73708W        W35074  35.898  28.977   1.882
73709W        W35075  11.726  15.219   3.283
73710W        W35076  18.654  32.542   1.873
73711W        W35077  33.475   6.835  13.490
73712W        W35078  23.217  41.891   0.366
73713W        W35079  13.261  40.014   0.295
73714W        W35080  40.957  17.736  14.803
73715W        W35081  13.254  40.045   4.603
73716W        W35082  18.769  10.779  10.477
73717W        W35083   8.179  33.503   1.819
73718W        W35084   0.296   3.449  11.537
73719W        W35085  10.723  33.902  10.539
73720W        W35086  37.961  12.322  12.073
73721W        W35087  37.470  30.944   3.788
73722W        W35088  38.067  38.489  13.397
73723W        W35089  33.127  16.771   1.709
73724W        W35090  30.617  43.896   1.909
73725W        W35091  31.088  43.876   3.742
73726W        W35092  23.537   5.709   9.964
73727W        W35093  15.660  26.550  14.773
73728W        W35094  43.809  19.748  13.823
73729W        W35095  18.197  42.483  14.404
73730W        W35096   3.736  37.980   0.388
73731W        W35097   5.747  12.292   2.703
73732W        W35098  17.621   1.788  14.884
73733W        W35099  16.621   6.707  13.408
73734W        W35100  13.776  15.703   3.232
73735W        W35101  39.349  38.999   3.772
73736W        W35102  21.149  35.079  11.538
73737W        W35103  19.188  27.190   0.925
73738W        W35104   5.241  34.482  11.075
73739W        W35105  19.060  13.825   2.366
73740W        W35106  20.733  31.105  12.531
73741W        W35107   6.238   4.390  11.945
73742W        W35108  35.464  20.147  13.479
73743W        W35109   2.914  28.667  14.357
73744W        W35110   0.856  39.820  10.601
73745W        W35111  19.680  22.548  11.858
73746W        W35112  21.563  24.106  13.360
73747W        W35113   6.386  18.182  10.487
73748W        W35114  17.063  26.525  11.882
73749W        W35115  26.205  37.073  12.053
73750W        W35116  36.534  25.553   1.837
73751W        W35117   6.838  28.006  11.998
73752W        W35118  30.009   2.763   2.262
73753W        W35119  41.803   9.174   1.742
73754W        W35120  41.488  12.134   4.318
73755W        W35121  26.953   6.293   2.715
73756W        W35122   3.724  33.563  13.997
73757W        W35123  21.203  37.922  12.942
73758W        W35124  34.511  36.908   2.383
73759W        W35125  16.172  43.918  13.341
73760W        W35126  23.626  28.448   2.707
73761W        W35127  42.872   5.745  11.610
73762W        W35128  37.903  36.005   2.765
73763W        W35129  44.792   1.938  12.497
73764W        W35130  38.961  25.581  11.544
73765W        W35131  33.458  10.718  11.990
73766W        W35132  36.370   1.776   2.840
73767W        W35133  28.597   5.864  11.944
73768W        W35134  26.158  14.654   3.785
73769W        W35135  16.670  18.710   0.778
73770W        W35136  27.947  16.103   1.719
73771W        W35137  44.776  39.359   2.378
73772W        W35138   7.214  18.270  14.839
73773W        W35139  22.525  23.058  14.893
73774W        W35140   7.285   4.434   3.196
73775W        W35141  25.673  31.581  11.509
73776W        W35142  28.493  36.524  11.940
73777W        W35143   4.208   1.325  14.907
73778W        W35144   1.307  29.156  13.980
73779W        W35145   9.223  24.043  10.924
73780W        W35146   3.764   9.203   1.276
73781W        W35147   9.850   9.267  11.995
73782W        W35148   0.777   6.678  13.833
73783W        W35149  34.031  38.469  14.794
73784W        W35150  43.892  23.098   3.649
73785W        W35151  11.714  36.086   1.735
73786W        W35152   8.180  21.209   4.191
73787W        W35153  25.551  16.260   2.285
73788W        W35154  28.469  17.135  13.858
73789W        W35155  19.148  11.363  12.542
73790W        W35156  15.222  33.464   3.293
73791W        W35157  14.304  12.821   0.334
73792W        W35158  33.915  33.934   3.167
73793W        W35159  34.076  20.029   2.858
73794W        W35160   9.711  29.099  10.541
73795W        W35161  35.992  37.576  12.928
73796W        W35162  14.158   3.776   3.666
73797W        W35163  18.732  13.294  14.379
73798W        W35164   6.714  35.985   1.827
73799W        W35165  17.254   5.372   4.324
73800W        W35166  11.222  44.902  13.922
73801W        W35167  20.590  21.118   1.913
73802W        W35168  35.074   0.976  13.818
73803W        W35169   3.425  32.122  13.015
73804W        W35170   1.845  14.295   2.761
73805W        W35171   1.435   4.441  13.483
73806W        W35172   1.425  32.560   1.699
73807W        W35173  32.070   8.719  13.894
73808W        W35174  20.232  28.580  12.039
73809W        W35175  16.611   9.761  12.834
73810W        W35176  42.423  43.021   3.762
73811W        W35177   3.339  41.932  14.931
73812W        W35178   6.780  34.076  10.427
73813W        W35179  10.740   3.846  12.531
73814W        W35180  42.017  42.001   2.325
73815W        W35181  42.834  28.082  11.097
73816W        W35182  19.183  16.582   4.724
73817W        W35183  27.116  44.387   0.458
73818W        W35184  39.444   7.890   1.719
73819W        W35185  40.373  11.267   1.827
73820W        W35186   1.425  25.983   2.338
73821W        W35187  25.532  13.315  13.461
73822W        W35188  10.319  13.634   3.237
73823W        W35189  11.733   9.203   2.181
73824W        W35190  11.679  18.207  11.932
73825W        W35191  31.484  14.712   3.834
73826W        W35192  42.921   2.467   4.199
73827W        W35193  20.550   9.381   3.210
73828W        W35194  35.569   3.747  14.994
73829W        W35195   8.699  25.128   3.215
73830W        W35196   7.766   6.350  13.016
73831W        W35197   0.402   6.425   0.316
73832W        W35198  24.509   6.699   2.810
73833W        W35199   9.789  39.020  11.884
73834W        W35200  39.990  27.131  13.883
73835W        W35201  37.493   0.983   1.759
73836W        W35202  15.102  39.829   3.333
73837W        W35203  42.283  39.398  14.315
73838W        W35204  33.966   2.734  11.975
73839W        W35205  39.407  20.040  14.873
73840W        W35206  16.660  41.858   4.299
73841W        W35207  34.551  25.696  14.381
73842W        W35208  14.743   2.386   4.597
73843W        W35209  21.572  15.683  13.539
73844W        W35210  41.991  26.586   3.264
73845W        W35211  36.569  20.674   4.184
73846W        W35212  40.984  40.401   1.934
73847W        W35213  31.580  31.427   0.320
73848W        W35214  17.180  41.467   1.871
73849W        W35215  30.536  40.545  12.344
73850W        W35216  17.087  12.290  14.021
73851W        W35217  11.799  24.080   4.211
73852W        W35218  35.568  27.031  12.980
73853W        W35219   0.802  32.894  10.639
73854W        W35220  23.687  10.743   1.756
73855W        W35221   1.751  22.690   2.803
73856W        W35222  35.445  34.542  11.502
73857W        W35223  15.155  25.004  11.419
73858W        W35224   1.821  30.100   0.464
73859W        W35225  26.498  15.636   4.723
73860W        W35226  17.101  38.507   0.927
73861W        W35227  35.897  24.137   1.924
73862W        W35228  11.653   2.413  12.353
73863W        W35229  40.915  10.877  14.934
73864W        W35230  28.180   7.860  14.987
73865W        W35231  25.684  42.436   1.214
73866W        W35232   7.685  32.019  12.452
73867W        W35233  29.055  36.934  14.835
73868W        W35234  14.097  26.001   4.324
73869W        W35235  18.744   1.279  13.898
73870W        W35236   2.741   0.967  14.516
73871W        W35237  27.666   5.914   4.127
73872W        W35238  11.280  36.977  14.506
73873W        W35239  31.968  27.653  14.342
73874W        W35240  16.728  40.866   2.291
73875W        W35241   3.788  20.232  14.811
73876W        W35242  30.494  23.689  13.893
73877W        W35243   3.313  21.685  14.465
73878W        W35244  29.017  28.613  14.017
73879W        W35245   8.280  21.146   0.937
73880W        W35246  42.955   7.698  12.847
73881W        W35247  26.166  20.229   3.276
73882W        W35248  37.837  17.118   0.917
73883W        W35249  15.633   8.307  10.513
73884W        W35250  35.403  32.134   3.326
73885W        W35251  36.473  38.928  11.398
73886W        W35252   1.798   7.895   1.770
73887W        W35253  23.705  18.138  13.942
73888W        W35254   6.811  31.135   4.626
73889W        W35255   9.317  41.805  14.461
73890W        W35256  33.529  36.466   3.169
73891W        W35257  28.135  21.558  13.010
73892W        W35258  34.500  36.508   0.419
73893W        W35259   7.249  21.087   3.643
73894W        W35260   2.876  29.433   2.806
73895W        W35261  35.036  38.410  12.501
73896W        W35262  35.032  28.529  10.625
73897W        W35263  42.885   5.877   1.917
73898W        W35264  15.328  23.997  13.488
73899W        W35265  19.231   3.832  13.003
73900W        W35266  23.204   7.362  13.526
73901W        W35267  42.348  13.743   4.804
73902W        W35268  11.834  36.419  11.466
73903W        W35269  32.465   8.663   0.814
73904W        W35270   4.841  31.123  13.915
73905W        W35271  36.041   5.312   4.232
73906W        W35272   7.705   8.718   0.773
73907W        W35273  24.531  27.553   4.316
73908W        W35274  39.007   8.803   3.250
73909W        W35275   7.341  11.782  13.791
73910W        W35276   0.260  27.650  12.961
73911W        W35277  13.787  22.728  14.276
73912W        W35278   8.396  25.512  14.346
73913W        W35279  12.139  21.232  11.575
73914W        W35280  25.962  41.487   3.731
73915W        W35281  22.699  37.505   4.734
73916W        W35282  13.299  21.127   5.252
73917W        W35283  16.655  12.854   1.868
73918W        W35284  41.446   6.781  13.028
73919W        W35285  42.993  20.167   0.965
73920W        W35286  43.819   7.228   3.816
73921W        W35287  15.590  35.412  14.956
73922W        W35288   8.810  33.499   3.244
73923W        W35289   8.294   4.388   2.416
73924W        W35290  17.264  13.726   4.143
73925W        W35291  20.707  17.733   1.888
73926W        W35292  20.239  24.575  14.860
73927W        W35293   0.298  24.978  10.542
73928W        W35294  33.428  11.716  11.399
73929W        W35295   5.330  14.333   5.236
73930W        W35296  44.819  28.014  13.968
73931W        W35297  39.415  30.566   0.382
73932W        W35298  37.840   5.897  11.974
73933W        W35299   1.755   4.889   2.723
73934W        W35300  16.717  43.943  11.087
73935W        W35301  44.768  34.514  11.946
73936W        W35302  29.601  18.064  11.941
73937W        W35303   8.188  32.897   4.650
73938W        W35304   3.945  11.294   0.477
73939W        W35305  35.455  32.588  12.560
73940W        W35306  42.406  17.797  11.601
73941W        W35307   8.840  23.153  12.983
73942W        W35308  29.639  20.064  12.971
73943W        W35309  38.527  12.783   4.712
73944W        W35310  15.268  42.815  11.489
73945W        W35311  22.659  23.994  10.136
73946W        W35312  21.148  37.940  13.969
73947W        W35313  40.997   6.684   1.347
73948W        W35314   2.256  40.405  12.874
73949W        W35315  42.852   8.356   0.479
73950W        W35316  12.622  22.121  14.278
73951W        W35317  18.598  27.046   2.886
73952W        W35318  38.368  24.979  14.333
73953W        W35319   1.955  22.732  11.500
73954W        W35320   5.694  22.741   2.385
73955W        W35321   5.418  24.549   3.203
73956W        W35322  44.290  40.449   5.154
73957W        W35323  31.008   4.430  14.488
73958W        W35324  38.496  26.537  10.564
73959W        W35325   4.899  44.379   9.976
73960W        W35326  11.714  18.210   3.736
73961W        W35327  15.765   6.816  14.496
73962W        W35328  21.585   4.828   2.405
73963W        W35329  37.396   2.441  10.575
73964W        W35330  13.256  38.549   2.211
73965W        W35331  23.147   9.762   0.469
73966W        W35332  12.828  32.415   4.835
73967W        W35333  15.117  39.939  13.943
73968W        W35334  35.860   1.912  13.502
73969W        W35335  41.494  33.919  12.487
73970W        W35336  10.153  38.406   2.809
73971W        W35337  11.811  42.928   3.191
73972W        W35338   0.836  29.935   0.746
73973W        W35339   4.341   6.898   2.757
73974W        W35340  38.364  23.711  11.501
73975W        W35341   5.747   7.258   1.847
73976W        W35342  15.602  24.577   0.808
73977W        W35343  23.727   3.834  14.335
73978W        W35344  23.164  23.110  10.446
73979W        W35345  41.787  13.653  12.946
73980W        W35346  11.217  22.627   3.739
73981W        W35347  15.194  44.882  14.824
73982W        W35348  19.168  37.851   1.222
73983W        W35349   5.398  22.572   2.720
73984W        W35350  37.390  34.096   4.332
73985W        W35351   0.937  10.663   2.786
73986W        W35352  33.450  34.955   1.722
73987W        W35353  27.125   4.310   2.414
73988W        W35354  24.544  39.915  10.600
73989W        W35355  36.464  17.303   3.662
73990W        W35356  27.673  41.370  11.481
73991W        W35357  30.523   5.206   3.384
73992W        W35358  13.643  18.214   3.840
73993W        W35359  30.424  21.569   2.834
73994W        W35360   2.310   0.889  13.463
73995W        W35361  14.713  42.019   3.305
73996W        W35362  42.406  39.845   0.446
73997W        W35363   8.806  13.252   2.871
73998W        W35364   3.730  26.190   9.989
73999W        W35365  10.799  18.059   2.685
74000W        W35366  38.477  16.118  14.472
74001W        W35367  19.085  12.227  12.869
74002W        W35368   4.839  35.933  12.993
74003W        W35369  14.216   8.193  10.995
74004W        W35370  43.445  35.372  12.394
74005W        W35371  16.755   0.750  12.457
74006W        W35372  30.571  19.151   0.467
74007W        W35373  21.746   2.878  11.430
74008W        W35374  10.807  32.984  13.462
74009W        W35375  43.961  35.546  13.803
74010W        W35376  19.121  44.317   2.210
74011W        W35377   8.877   5.339  11.069
74012W        W35378   2.940   9.745  11.431
74013W        W35379  37.897  18.621  11.410
74014W        W35380  41.953  41.000  12.434
74015W        W35381   5.803  26.001   1.838
74016W        W35382   1.363  44.414  12.476
74017W        W35383  20.647  26.539  13.495
74018W        W35384  30.983   5.901  12.844
74019W        W35385  31.039  37.051  13.359
74020W        W35386   3.452  34.057   0.825
74021W        W35387  32.135  13.832  13.959
74022W        W35388  14.612  21.668  12.351
74023W        W35389  12.652  17.723  13.529
74024W        W35390   3.433  18.182   2.822
74025W        W35391  11.800  25.039  13.394
74026W        W35392  43.298  21.658   1.714
74027W        W35393   6.909  28.027   2.179
74028W        W35394  31.089  14.739  10.492
74029W        W35395   7.777  14.264   1.381
74030W        W35396  32.537  14.794   2.387
74031W        W35397  18.677   7.683   0.906
74032W        W35398  10.170  33.497  10.423
74033W        W35399  37.542  11.233  12.001
74034W        W35400  16.118   0.247   1.282
74035W        W35401  22.588  14.169  11.006
74036W        W35402   9.723   0.362  12.860
74037W        W35403  28.567   7.180   1.266
74038W        W35404  38.826  41.868   2.358
74039W        W35405  36.554  39.486  13.478
74040W        W35406   0.265  41.322   0.375
74041W        W35407  15.777   7.673   1.912
74042W        W35408   9.261  32.063   3.164
74043W        W35409  13.613  43.363   3.702
74044W        W35410  41.857  19.129  12.009
74045W        W35411  14.320  12.749  13.015
74046W        W35412  18.666  29.580   3.685
74047W        W35413   5.258  15.641   1.391
74048W        W35414  28.459  16.088  11.557
74049W        W35415  37.976   9.222  11.903
74050W        W35416  19.135   8.717  12.541
74051W        W35417   1.336  23.693  12.550
74052W        W35418  31.094  24.987   3.217
74053W        W35419  24.507   4.911   3.661
74054W        W35420   9.878  19.189   4.738
74055W        W35421  44.372  12.819  12.356
74056W        W35422  30.561  23.996   3.759
74057W        W35423   0.837  38.347  10.497
74058W        W35424  15.085  19.668   3.174
74059W        W35425  34.921  34.585   4.731
74060W        W35426   9.746   0.379  14.778
74061W        W35427   5.917   1.392   0.403
74062W        W35428  13.275   5.926   3.803
74063W        W35429  29.952  27.539   2.663
74064W        W35430  12.286  23.634   1.852
74065W        W35431  32.441  36.495   2.196
74066W        W35432   4.793  25.966   1.757
74067W        W35433  34.032  15.601   4.631
74068W        W35434  22.213  44.479   4.747
74069W        W35435  27.651  28.964   5.176
74070W        W35436  33.902   1.251  12.080
74071W        W35437  24.097  18.222   1.264
74072W        W35438  21.672  22.512   4.677
74073W        W35439  20.146  19.538  10.543
74074W        W35440  31.632  41.414   0.770
74075W        W35441   0.966  41.920   3.866
74076W        W35442  41.532  38.029  11.502
74077W        W35443  41.030  35.445  14.382
74078W        W35444  44.811  35.926   2.348
74079W        W35445  24.128  36.934  10.098
74080W        W35446  39.344  44.496  12.569
74081W        W35447  25.475  13.332   2.860
74082W        W35448   9.846  34.597   0.464
74083W        W35449  34.417  33.051  10.453
74084W        W35450  30.442  15.823  14.487
74085W        W35451  33.486   5.787   3.331
74086W        W35452  15.643  21.192  13.907
74087W        W35453  35.484  28.180   4.259
74088W        W35454  42.884  40.797  13.358
74089W        W35455  35.928  38.369  10.912
74090W        W35456   0.266  19.596  12.084
74091W        W35457  15.136   0.867   2.861
74092W        W35458   9.158   0.858   4.831
74093W        W35459  28.505   8.869  13.908
74094W        W35460  27.025   0.835   2.327
74095W        W35461  32.110  20.167   1.351
74096W        W35462  31.444  16.794  12.555
74097W        W35463  11.240  37.352   2.758
74098W        W35464   3.887  35.429   4.249
74099W        W35465   0.358  18.717  13.009
74100W        W35466  14.653   3.824  13.862
74101W        W35467  19.688   7.894  13.527
74102W        W35468   0.385  11.309  13.504
74103W        W35469   1.773  32.088   5.183
74104W        W35470  32.006  32.975   3.741
74105W        W35471  28.007  26.624   4.824
74106W        W35472  39.908   5.770   2.723
74107W        W35473   5.258  19.654   3.291
74108W        W35474  32.075  11.232   4.610
74109W        W35475   4.746   1.888   0.382
74110W        W35476  22.507  40.983   3.846
74111W        W35477   9.708  23.029   0.271
74112W        W35478   7.729  11.169  14.417
74113W        W35479  33.546  25.592   3.270
74114W        W35480  10.306  38.981  11.512
74115W        W35481  17.611  30.956  13.927
74116W        W35482  15.205  38.028  12.882
74117W        W35483   2.368  39.539  12.348
74118W        W35484   0.269   1.454  14.001
74119W        W35485  28.970  11.212   2.408
74120W        W35486   7.669   4.443   3.356
74121W        W35487  17.581  12.354   1.272
74122W        W35488  37.415  41.961  12.391
74123W        W35489  43.270   8.190   1.428
74124W        W35490  23.234   9.246  13.395
74125W        W35491  24.014  28.071  13.859
74126W        W35492  40.858  25.483  11.912
74127W        W35493  29.158  32.106  11.399
74128W        W35494  29.108   3.880  12.040
74129W        W35495  41.358  35.025  10.588
74130W        W35496  19.061  12.832   2.219
74131W        W35497  28.599  43.431   1.928
74132W        W35498  26.618   0.797   4.603
74133W        W35499  28.612  26.497   2.190
74134W        W35500  20.600  41.522   2.860
74135W        W35501  22.585   3.771  13.431
74136W        W35502   0.949   4.719   3.228
74137W        W35503   6.254   5.713  11.551
74138W        W35504  22.625  11.138  13.869
74139W        W35505  20.092  35.082   0.739
74140W        W35506   0.942   3.954   1.243
74141W        W35507  13.612  11.230  11.014
74142W        W35508  29.108  12.285  13.491
74143W        W35509  29.578   0.293  14.833
74144W        W35510  29.127  10.861   1.334
74145W        W35511  40.393   8.311  10.919
74146W        W35512  37.083  32.131  11.942
74147W        W35513   2.965   1.856   2.897
74148W        W35514  10.765  32.978   0.261
74149W        W35515   5.390  19.283   1.748
74150W        W35516   7.334   7.405  13.880
74151W        W35517   5.804   7.883   3.216
74152W        W35518  25.081  32.601   0.855
74153W        W35519   5.275  26.674  12.008
74154W        W35520  32.995   7.298  10.574
74155W        W35521  16.309  43.463   4.734
74156W        W35522  19.207   3.341   3.240
74157W        W35523   0.793   5.205  11.444
74158W        W35524  22.533   1.463   2.296
74159W        W35525  35.881  32.960   0.409
74160W        W35526  35.080   8.365  10.539
74161W        W35527  43.296  13.270   0.744
74162W        W35528  23.164  36.939   1.409
74163W        W35529  35.592   5.725  12.480
74164W        W35530  15.773  23.586  11.483
74165W        W35531  12.822   2.425  14.289
74166W        W35532  40.394   4.352   3.820
74167W        W35533  40.052  27.531   2.260
74168W        W35534  40.513  38.855   5.188
74169W        W35535  20.271  40.800  10.952
74170W        W35536  11.347   1.855   3.727
74171W        W35537  43.797  10.219  11.551
74172W        W35538   6.195   5.890   5.666
74173W        W35539  44.394  34.448   4.183
74174W        W35540  44.991  19.223   2.365
74175W        W35541   3.723  36.498   0.918
74176W        W35542  42.470   6.886  14.889
74177W        W35543   8.889  21.666  10.452
74178W        W35544  25.161  24.070  12.022
74179W        W35545  13.839  17.073   3.646
74180W        W35546  36.358   7.265  12.000
74181W        W35547   8.695  21.547   3.315
74182W        W35548  26.013  38.544  12.509
74183W        W35549  27.994  16.769   3.200
74184W        W35550  29.437  11.664   1.417
74185W        W35551   1.373  34.448  10.504
74186W        W35552  20.622   2.451  12.830
74187W        W35553  43.937   3.727   0.398
74188W        W35554  11.773   9.887  11.479
74189W        W35555  17.246   7.401  11.927
74190W        W35556   8.395  20.065  14.867
74191W        W35557   4.279   7.193  14.448
74192W        W35558  31.609  28.022   2.196
74193W        W35559  26.629  44.784   4.287
74194W        W35560  36.957  15.258  12.569
74195W        W35561   9.714  13.326  13.351
74196W        W35562  24.020   3.263  14.298
74197W        W35563  41.487  43.317  10.527
74198W        W35564  21.051   6.903   1.888
74199W        W35565  20.230  19.124   4.217
74200W        W35566  18.138  41.973  11.973
74201W        W35567  36.948   0.947  13.999
74202W        W35568  43.891  43.319   0.960
74203W        W35569  33.609  38.046   2.351
74204W        W35570   2.311  20.184   0.880
74205W        W35571  44.305  41.897   4.334
74206W        W35572  11.316  18.556   4.167
74207W        W35573  19.631  43.966  14.991
74208W        W35574  44.759  34.574   3.667
74209W        W35575   7.869  38.366  12.539
74210W        W35576  32.457  18.771   1.445
74211W        W35577  15.688  28.575   4.137
74212W        W35578  38.537  39.992   2.238
74213W        W35579  13.209  27.057   0.727
74214W        W35580  24.576  13.845  12.354
74215W        W35581  30.059   8.816   1.793
74216W        W35582   7.345  26.557   3.244
74217W        W35583  10.844   7.343  14.455
74218W        W35584  14.307  10.756  12.541
74219W        W35585   3.233  24.626   2.361
74220W        W35586   4.812  17.749  14.506
74221W        W35587  30.931  26.531  12.058
74222W        W35588  43.493  32.505  14.976
74223W        W35589  14.703   4.770  10.508
74224W        W35590  16.113  36.360   3.240
74225W        W35591  42.898  31.476   3.311
74226W        W35592  27.140  40.019  11.052
74227W        W35593  22.718  18.171  11.068
74228W        W35594  41.801   2.393  10.454
74229W        W35595  28.950  42.847  13.334
74230W        W35596   3.458   9.154  12.542
74231W        W35597  21.557  11.661  12.051
74232W        W35598  15.088   5.260   2.414
74233W        W35599  23.105   3.438   2.815
74234W        W35600   7.205  21.166  14.925
74235W        W35601  18.234   3.456  12.517
74236W        W35602   8.805  32.594  12.861
74237W        W35603  41.866   9.223   0.749
74238W        W35604   2.335   1.793  11.073
74239W        W35605  13.772  29.558   1.813
74240W        W35606  44.469  24.992   2.898
74241W        W35607  26.686  24.015   4.600
74242W        W35608   1.940  37.392  11.080
74243W        W35609  38.853  20.602  11.959
74244W        W35610   1.870  41.344   0.361
74245W        W35611  35.398  43.447   3.161
74246W        W35612  21.561  14.742  11.955
74247W        W35613   1.260  20.617  12.976
74248W        W35614  20.089   2.724   1.807
74249W        W35615   1.314  17.681  11.065
74250W        W35616  20.544  31.054   1.870
74251W        W35617  34.105  33.903  11.538
74252W        W35618   4.801  36.098  10.063
74253W        W35619  13.277  29.937   2.663
74254W        W35620  19.129  10.318  14.943
74255W        W35621   8.352  12.794  12.092
74256W        W35622  15.694   3.302   4.124
74257W        W35623  39.522  11.763   3.807
74258W        W35624  16.182   4.330  10.910
74259W        W35625  33.881  35.535  12.504
74260W        W35626   5.809  10.796  12.893
74261W        W35627   3.797   8.398   1.321
74262W        W35628  18.288   2.770   1.828
74263W        W35629  26.574  12.280  10.452
74264W        W35630  26.188  10.298   3.319
74265W        W35631  14.317  21.151   0.917
74266W        W35632  30.536  33.614   1.432
74267W        W35633  34.089  39.527  12.419
74268W        W35634   5.389   0.818  13.983
74269W        W35635  38.401   2.754  11.017
74270W        W35636  21.558   0.773   4.698
74271W        W35637  33.511  12.650   1.405
74272W        W35638   7.236  13.617   2.256
74273W        W35639  10.150  30.969   1.389
74274W        W35640   9.217  37.551  14.902
74275W        W35641   5.218  29.562   1.755
74276W        W35642   0.470  21.169   0.471
74277W        W35643   2.904  31.008   9.589
74278W        W35644   6.738   0.906   0.781
74279W        W35645   8.681  27.649   3.187
74280W        W35646   3.818   1.383   2.403
74281W        W35647  33.913  25.631   1.789
74282W        W35648  34.569   8.854   2.271
74283W        W35649  19.044  10.150  10.963
74284W        W35650  37.578  37.850   3.819
74285W        W35651  37.073  21.198  11.535
74286W        W35652  40.513  28.171  14.391
74287W        W35653  35.483   9.763   2.780
74288W        W35654  27.045  29.143   2.879
74289W        W35655  41.342  40.021  11.531
74290W        W35656  40.383  26.105  11.120
74291W        W35657  33.909  20.180   1.753
74292W        W35658  14.599  13.320   0.244
74293W        W35659  36.909  15.106  11.081
74294W        W35660  25.507   3.874   1.846
74295W        W35661  32.052  28.466  13.403
74296W        W35662   3.217   9.685  10.587
74297W        W35663   6.183   4.432   1.392
74298W        W35664  11.727  17.681   2.795
74299W        W35665  38.893  11.708   4.321
74300W        W35666  16.791   9.320  13.950
74301W        W35667  19.124  23.021   0.788
74302W        W35668  41.429  35.069  14.835
74303W        W35669  36.956   6.303   1.747
74304W        W35670  33.562   9.801   3.811
74305W        W35671   2.409  11.296   0.243
74306W        W35672   4.744  27.496   1.296
74307W        W35673   9.387  43.999   0.899
74308W        W35674  39.369  25.074  11.377
74309W        W35675  44.316  25.206  13.991
74310W        W35676  44.325  42.446   2.226
74311W        W35677   7.862   5.214   3.735
74312W        W35678  39.334  17.260  10.001
74313W        W35679  17.165  43.360  13.536
74314W        W35680  25.640  23.633   3.198
74315W        W35681   2.802  19.261   1.860
74316W        W35682  19.198  44.867  10.506
74317W        W35683  43.855  34.879  14.417
74318W        W35684  17.125   6.192   4.160
74319W        W35685  24.013  19.643   1.934
74320W        W35686  10.275  14.796  10.957
74321W        W35687   8.866  22.593  11.877
74322W        W35688  33.582   5.925   3.747
74323W        W35689  23.562  37.423   0.732
74324W        W35690  16.169  16.153   3.698
74325W        W35691  31.639   7.247   0.402
74326W        W35692  38.462  22.676  12.385
74327W        W35693   2.872   3.830   2.797
74328W        W35694  17.064  11.146   1.838
74329W        W35695  21.174  39.017  10.096
74330W        W35696   4.427  17.585   4.184
74331W        W35697  15.312  40.412  13.947
74332W        W35698   2.743   6.422  11.997
74333W        W35699  40.899  34.924  12.510
74334W        W35700  22.534  14.735  11.963
74335W        W35701   7.257  18.771  11.110
74336W        W35702  18.147  12.613   3.669
74337W        W35703  31.566  30.583   3.189
74338W        W35704  32.601  10.181   1.389
74339W        W35705  41.847  44.299  12.413
74340W        W35706  16.704  18.663  13.504
74341W        W35707  35.471  36.402  13.430
74342W        W35708  42.393  29.034  12.917
74343W        W35709  14.820   5.882   0.903
74344W        W35710   4.903   2.356   4.116
74345W        W35711  31.537  28.650   2.324
74346W        W35712   9.268  13.164  14.891
74347W        W35713  34.012  33.490   0.811
74348W        W35714  32.083  38.523   4.687
74349W        W35715   3.952  21.079  10.002
74350W        W35716  23.041  33.491  12.007
74351W        W35717  25.973   7.747  14.379
74352W        W35718  22.195  30.962  10.585
74353W        W35719   0.800   3.416   0.468
74354W        W35720   8.707  36.563  12.358
74355W        W35721  42.383   6.199  11.916
74356W        W35722  17.122  43.408  11.465
74357W        W35723   6.191   9.237  11.405
74358W        W35724  31.414  12.722  11.511
74359W        W35725  32.630  17.113  13.384
74360W        W35726  30.490  18.160  14.935
74361W        W35727  18.751  42.328   0.290
74362W        W35728  25.191  23.184   0.818
74363W        W35729  31.433  15.614   2.746
74364W        W35730  37.959  34.591   3.157
74365W        W35731  41.303  23.721  13.997
74366W        W35732  32.973  34.424   1.857
74367W        W35733  20.109  14.600  13.882
74368W        W35734  27.490  19.223  10.625
74369W        W35735  38.381  27.586   1.879
74370W        W35736  41.364  11.861   0.350
74371W        W35737  40.045  43.891  12.375
74372W        W35738  35.855  15.100   1.436
74373W        W35739  19.242  26.654   1.763
74374W        W35740  31.640  31.929  12.888
74375W        W35741  28.060  37.852  10.409
74376W        W35742   4.233  29.125   4.638
74377W        W35743   9.159  24.212  11.562
74378W        W35744  27.531  24.542   4.811
74379W        W35745  23.731   7.214  12.982
74380W        W35746  44.913  13.300  13.422
74381W        W35747  10.251   1.330  14.004
74382W        W35748  14.136  33.936   5.766
74383W        W35749  29.171  12.764   1.410
74384W        W35750  10.268  27.481   1.449
74385W        W35751  16.678   7.329   1.703
74386W        W35752  23.058  42.892  12.054
74387W        W35753  22.215   5.435   3.811
74388W        W35754  14.217  32.595  11.994
74389W        W35755  12.693  38.397   1.348
74390W        W35756  31.615  13.345   3.770
74391W        W35757  27.648   4.699  11.388
74392W        W35758  14.743  15.612  13.336
74393W        W35759  13.299  29.087   3.246
74394W        W35760  27.948  29.657   3.340
74395W        W35761  18.613  19.771   1.836
74396W        W35762  35.477  42.280   4.251
74397W        W35763  38.540  19.759   1.270
74398W        W35764  41.986  32.073   3.863
74399W        W35765  32.905  33.399   3.852
74400W        W35766   0.481  37.892   3.272
74401W        W35767  43.471  29.984   4.693
74402W        W35768  40.812  27.005   4.621
74403W        W35769  19.756  31.594  13.500
74404W        W35770  33.404  12.636  12.533
74405W        W35771   9.386   8.791   4.238
74406W        W35772  23.086  39.515  14.023
74407W        W35773  10.838  31.999   2.358
74408W        W35774  37.079  23.701   4.670
74409W        W35775  12.765   2.955  14.297
74410W        W35776  44.468  21.596  13.891
74411W        W35777  14.321  43.422   2.744
74412W        W35778  37.374   5.747  12.569
74413W        W35779  23.139  13.322  12.047
74414W        W35780  10.145  31.504   0.932
74415W        W35781  21.110  20.197  10.416
74416W        W35782  22.502  20.100  10.596
74417W        W35783   5.319  11.252  12.980
74418W        W35784  28.439  37.064   0.383
74419W        W35785  24.109  40.474  11.933
74420W        W35786  35.383  16.648  14.285
74421W        W35787  29.923   3.374  13.430
74422W        W35788  13.290   6.235   3.810
74423W        W35789  30.953   2.259   2.211
74424W        W35790  25.693  31.463  10.930
74425W        W35791  16.218  41.464   4.169
74426W        W35792   0.828  23.070   3.726
74427W        W35793  26.115  15.155   1.914
74428W        W35794  33.486   9.375   4.631
74429W        W35795  40.851   9.680  14.967
74430W        W35796  25.586  32.059   0.349
74431W        W35797  31.132   0.777  14.400
74432W        W35798  22.164  37.542   1.784
74433W        W35799   7.808  22.501   1.337
74434W        W35800  32.949  32.420   4.200
74435W        W35801  39.926  14.153   1.839
74436W        W35802  33.977   6.369   2.697
74437W        W35803  34.030  41.857  11.943
74438W        W35804   9.301  34.120  13.929
74439W        W35805   1.893   6.260  11.467
74440W        W35806  34.983  18.278  10.581
74441W        W35807   3.711   4.716  14.866
74442W        W35808  12.667  25.019   0.449
74443W        W35809  18.189  18.782  13.816
74444W        W35810  27.146  20.727   1.373
74445W        W35811  25.620  43.297  13.318
74446W        W35812  37.870   6.827  11.062
74447W        W35813  38.862  29.598  14.855
74448W        W35814   8.690  31.107   2.670
74449W        W35815  17.600   0.772  13.336
74450W        W35816  31.948  27.565   4.752
74451W        W35817   7.870  34.457   2.698
74452W        W35818  32.038  16.107   3.182
74453W        W35819  23.098  37.889  13.488
74454W        W35820  22.611  13.130   2.832
74455W        W35821   5.829  12.699  12.440
74456W        W35822  22.636  22.156   4.643
74457W        W35823  39.413  13.183   0.947
74458W        W35824   6.256   2.331   2.272
74459W        W35825  29.125  17.288  12.531
74460W        W35826   7.342  12.256  13.360
74461W        W35827  37.534   5.783   4.298
74462W        W35828  31.936   4.211  10.471
74463W        W35829  15.815  31.930  12.511
74464W        W35830  25.971   1.334   2.803
74465W        W35831  35.603  12.754  13.828
74466W        W35832   8.259  16.224  11.929
74467W        W35833  40.525  18.623  11.552
74468W        W35834  30.979  24.005  14.279
74469W        W35835  15.758  24.725   2.872
74470W        W35836   3.918  39.471   1.924
74471W        W35837  39.474  35.096  13.439
74472W        W35838   6.762   1.865  10.547
74473W        W35839   9.736  27.029   2.265
74474W        W35840  26.130  15.162  12.065
74475W        W35841  15.282   4.841  14.790
74476W        W35842  22.716  16.703  11.004
74477W        W35843   8.209  21.120   2.180
74478W        W35844  42.434  19.537  13.393
74479W        W35845  20.622  11.674  10.567
74480W        W35846  43.809  44.775   2.896
74481W        W35847  33.097  43.481   4.708
74482W        W35848  27.042  43.478  12.827
74483W        W35849   3.372   7.855  12.905
74484W        W35850  16.773  18.606  14.961
74485W        W35851   5.888  24.596   4.816
74486W        W35852   9.239   0.288   4.726
74487W        W35853  33.014   3.892   0.854
74488W        W35854  26.961  12.762   1.378
74489W        W35855   4.418  37.421  11.468
74490W        W35856   5.261  39.332  14.505
74491W        W35857  42.436  22.556  12.035
74492W        W35858   1.386  16.803   4.120
74493W        W35859  26.566  31.631  11.521
74494W        W35860  11.696  16.608   1.924
74495W        W35861  32.018  25.605   1.333
74496W        W35862  12.764  30.083  13.029
74497W        W35863  32.560  34.520  14.446
74498W        W35864  24.026  33.492  11.551
74499W        W35865   1.354  31.153  11.912
74500W        W35866  12.856   0.868   3.837
74501W        W35867   7.763  35.089  14.419
74502W        W35868  24.055   6.321   3.636
74503W        W35869  35.996  14.710   1.266
74504W        W35870  18.629  26.500  13.891
74505W        W35871   7.817  15.174   9.936
74506W        W35872   3.948  24.057   2.823
74507W        W35873   8.706   5.857  14.510
74508W        W35874  35.882  25.470  11.582
74509W        W35875  31.077  21.634  14.485
74510W        W35876   6.398   9.271   1.787
74511W        W35877  14.336  39.917  11.957
74512W        W35878  20.696   4.230  11.010
74513W        W35879  11.701  28.612  10.629
74514W        W35880  30.131  23.732   4.661
74515W        W35881  11.631  12.682  13.481
74516W        W35882  25.962  35.408   3.754
74517W        W35883   4.379  14.268  12.525
74518W        W35884  35.588  12.696  11.518
74519W        W35885   9.687  15.745   2.245
74520W        W35886  38.564  12.236  13.061
74521W        W35887   4.853  36.501   4.259
74522W        W35888  31.513  22.592  11.082
74523W        W35889  10.240  17.253   2.733
74524W        W35890  32.991  27.997  12.898
74525W        W35891  42.294  10.813  11.558
74526W        W35892  43.495  13.688   1.822
74527W        W35893  35.013  21.147  10.897
74528W        W35894  26.046   9.203   0.387
74529W        W35895  37.547  14.269  13.993
74530W        W35896   4.347  36.485  12.347
74531W        W35897   0.918  44.447   4.160
74532W        W35898  30.138   6.294   1.305
74533W        W35899  32.907  41.296   2.776
74534W        W35900  30.630  34.401  10.442
74535W        W35901   6.394  22.705   2.247
74536W        W35902   4.855  30.449  14.834
74537W        W35903  38.324   0.287  11.920
74538W        W35904  20.682  10.382   4.709
74539W        W35905  21.090   5.783  12.832
74540W        W35906  41.519  10.257  12.374
74541W        W35907  37.957   7.719  14.376
74542W        W35908   1.388  18.617   0.895
74543W        W35909   8.269  34.419   2.381
74544W        W35910  11.269  41.986  10.518
74545W        W35911   5.429  18.608   0.742
74546W        W35912  42.846  32.902  11.550
74547W        W35913  38.929   7.221  13.438
74548W        W35914   6.822  40.860  10.931
74549W        W35915  10.246  30.006  10.594
74550W        W35916   7.235  43.341   2.689
74551W        W35917   2.954  23.232  11.489
74552W        W35918   5.258   9.369  11.423
74553W        W35919  11.133  19.146   2.828
74554W        W35920  15.813   8.862   4.293
74555W        W35921  29.977  34.090  11.387
74556W        W35922   8.297   6.390  10.941
74557W        W35923   1.862   6.743  12.496
74558W        W35924  28.988  31.086   0.427
74559W        W35925   0.848  16.744  14.991
74560W        W35926  34.928  23.213  13.421
74561W        W35927  30.465   6.283  13.480
74562W        W35928  33.951  32.404  12.377
74563W        W35929  12.126   7.723  14.502
74564W        W35930  19.730   7.891   0.927
74565W        W35931   2.328  14.198   2.860
74566W        W35932  21.252  25.582   0.923
74567W        W35933  40.504   4.402   2.902
74568W        W35934  17.123  16.624  14.480
74569W        W35935  11.862  13.241   1.787
74570W        W35936  16.246  13.778   0.455
74571W        W35937   3.354  25.509  11.449
74572W        W35938  26.496  31.942   5.154
74573W        W35939  31.935   7.353   2.385
74574W        W35940  13.652  13.610  11.439
74575W        W35941   5.208  32.428  14.328
74576W        W35942  31.101   7.816   1.757
74577W        W35943  26.656  17.721  14.985
74578W        W35944   0.910  14.333  10.574
74579W        W35945  30.574  32.441  13.441
74580W        W35946  32.504  23.220   0.415
74581W        W35947  11.716   0.855   3.793
74582W        W35948  42.302  16.290   0.877
74583W        W35949  42.851   3.745  13.429
74584W        W35950   7.220  28.593   4.166
74585W        W35951   1.359   0.864  11.929
74586W        W35952  13.814  12.722  12.411
74587W        W35953   5.869   1.340  14.466
74588W        W35954  41.984  44.957  10.450
74589W        W35955  11.320   6.367  11.865
74590W        W35956  24.060   0.251  11.464
74591W        W35957  29.562  17.142   2.407
74592W        W35958   6.679  30.582   0.481
74593W        W35959  25.484  27.940   2.182
74594W        W35960  19.054  42.360  10.619
74595W        W35961  40.399  19.074  11.516
74596W        W35962  10.343  24.688  13.537
74597W        W35963  22.560   3.422  10.037
74598W        W35964  15.723  14.707   1.252
74599W        W35965  14.158  26.694  14.349
74600W        W35966  37.072  30.118  10.415
74601W        W35967  10.772  23.022  13.853
74602W        W35968   8.819  30.985   3.639
74603W        W35969  12.768  36.493   1.392
74604W        W35970  31.046   9.747   2.324
74605W        W35971  34.516   2.947  11.408
74606W        W35972  28.500  39.353  10.899
74607W        W35973  25.120   1.973  14.789
74608W        W35974  38.388  14.601   2.348
74609W        W35975  30.469  24.121  11.476
74610W        W35976   6.343  23.697  12.468
74611W        W35977   3.262   5.218  11.023
74612W        W35978   0.968  24.989  14.925
74613W        W35979   1.322  18.084  11.079
74614W        W35980  15.249  41.343   0.794
74615W        W35981  33.581  22.663   5.292
74616W        W35982  32.021  24.482   0.891
74617W        W35983   9.388  43.820  13.496
74618W        W35984   8.781  20.196  14.921
74619W        W35985  25.589  39.059   3.335
74620W        W35986   7.274  31.619   4.170
74621W        W35987  40.012  18.648  14.963
74622W        W35988   9.211  40.951  13.537
74623W        W35989  11.678   9.244  12.070
74624W        W35990  31.082   5.372  12.000
74625W        W35991  36.017  38.845   0.277
74626W        W35992  43.269   5.878   1.403
74627W        W35993  31.566  10.354   3.198
74628W        W35994   2.464  15.655  12.561
74629W        W35995  12.132  34.985  12.975
74630W        W35996  30.631  18.291   1.887
74631W        W35997   1.358  35.919  14.983
74632W        W35998  17.071  27.085  10.429
74633W        W35999  15.314   5.350  13.537
74634W        W36000   9.316  13.640  11.925
74635W        W36001  11.256  42.808   3.667
74636W        W36002  10.819  28.607   0.751
74637W        W36003  15.711  34.609   0.915
74638W        W36004  41.854  25.219  11.952
74639W        W36005  27.978  16.576   2.680
74640W        W36006   5.773  35.523   3.318
74641W        W36007  43.006  34.939   0.868
74642W        W36008  22.018   6.343   0.481
74643W        W36009  37.864  39.383   0.861
74644W        W36010  19.069  22.507   2.885
74645W        W36011  11.211  29.969  11.426
74646W        W36012  36.933  10.835   1.758
74647W        W36013  13.121   2.425   4.806
74648W        W36014  21.246  17.682  11.601
74649W        W36015  19.763  26.500  14.987
74650W        W36016  26.477  30.513   2.201
74651W        W36017  21.614  41.982   1.779
74652W        W36018  26.955  43.885   3.725
74653W        W36019  11.351  19.626   4.719
74654W        W36020   8.767  29.647  13.879
74655W        W36021  11.867  16.743  12.434
74656W        W36022  16.675  31.050  14.912
74657W        W36023  44.883  32.576  11.444
74658W        W36024  12.154  11.677   3.717
74659W        W36025  14.327  30.990   0.886
74660W        W36026   9.828  10.784  14.838
74661W        W36027  41.977   6.219   3.319
74662W        W36028  11.655  34.110  14.438
74663W        W36029  20.079   9.684   1.392
74664W        W36030  13.811  11.722   3.299
74665W        W36031  39.379  35.424   3.846
74666W        W36032   9.272  31.979   2.262
74667W        W36033   3.228  30.473   2.404
74668W        W36034  26.174   3.907  10.114
74669W        W36035   9.669  23.096   0.872
74670W        W36036   3.918  11.802  11.493
74671W        W36037  23.524  18.152   1.424
74672W        W36038  27.450  24.576  13.837
74673W        W36039  37.914  43.961  13.421
74674W        W36040  29.471   6.231   5.217
74675W        W36041  26.504  29.931   4.809
74676W        W36042   3.770  30.031   2.329
74677W        W36043  12.282  26.653  13.496
74678W        W36044   4.832  19.769  14.352
74679W        W36045  16.759  13.640   5.225
74680W        W36046  31.434  40.489  14.463
74681W        W36047  29.151  28.183   3.823
74682W        W36048  30.427  11.133  12.482
74683W        W36049   2.760  22.570  13.054
74684W        W36050  14.178  28.135   4.661
74685W        W36051  14.666  17.650  11.983
74686W        W36052  18.084  35.362   0.750
74687W        W36053  29.511  17.607   2.745
74688W        W36054  32.008  42.282  13.515
74689W        W36055   2.292  16.212  11.611
74690W        W36056   8.363  12.200  13.908
74691W        W36057  17.209  42.842  12.523
74692W        W36058  11.155  38.327  11.033
74693W        W36059  39.878  10.823   0.341
74694W        W36060   1.965   0.915  14.386
74695W        W36061  27.046   5.884   3.632
74696W        W36062  30.948  32.139   1.707
74697W        W36063   6.363   6.338   3.636
74698W        W36064  34.949  44.263  12.864
74699W        W36065  22.094  10.853   3.794
74700W        W36066  17.634  31.932   1.213
74701W        W36067  18.570  24.535   0.310
74702W        W36068  14.316  26.657  11.935
74703W        W36069   1.326  37.057  12.390
74704W        W36070   8.189  32.124  11.037
74705W        W36071  24.591  23.239  14.431
74706W        W36072  31.933  10.846   1.325
74707W        W36073  20.027  39.554   0.820
74708W        W36074  23.557  10.710  11.606
74709W        W36075   3.454  23.553  11.382
74710W        W36076  33.999  15.595   0.289
74711W        W36077  13.826  12.787   4.168
74712W        W36078  18.767  25.489  13.389
74713W        W36079  30.623  34.945   3.793
74714W        W36080   9.313  22.108  11.114
74715W        W36081  29.951   4.725   3.199
74716W        W36082  10.156  36.420  13.352
74717W        W36083   9.369   7.744   4.153
74718W        W36084  25.068   9.203   3.864
74719W        W36085  39.501  22.181  13.909
74720W        W36086  20.631  16.611   4.694
74721W        W36087  37.037  12.185  11.083
74722W        W36088   4.864  19.649  11.895
74723W        W36089  21.211  14.141   3.222
74724W        W36090  39.051  38.441   4.138
74725W        W36091  21.237  10.149   4.348
74726W        W36092  24.063  38.900  10.515
74727W        W36093  14.714  23.531  12.035
74728W        W36094   3.809  44.783   2.774
74729W        W36095  21.736   4.848  13.822
74730W        W36096  31.121  19.604  14.869
74731W        W36097  35.107   7.808   0.803
74732W        W36098   0.452   9.367   4.145
74733W        W36099  16.763  41.847   3.245
74734W        W36100  27.154  39.956  12.043
74735W        W36101   6.316  30.922  11.056
74736W        W36102  25.600  42.513  12.837
74737W        W36103  28.447  21.226   0.863
74738W        W36104  41.983  13.339  12.923
74739W        W36105   0.838  12.680  10.510
74740W        W36106   2.287   2.888  10.490
74741W        W36107  32.911  44.918  11.534
74742W        W36108   8.211  33.458  11.929
74743W        W36109  39.024   1.265  14.490
74744W        W36110   6.782  33.969   1.898
74745W        W36111  18.715  15.261   2.286
74746W        W36112  26.051  14.250  11.447
74747W        W36113  24.635  15.679   4.173
74748W        W36114  12.822  40.470  12.951
74749W        W36115  16.309  34.563   4.791
74750W        W36116  13.285  11.219  12.397
74751W        W36117   0.779  24.004  10.490
74752W        W36118  37.083   8.813   0.736
74753W        W36119  41.913   3.914  12.430
74754W        W36120  14.104  18.624   4.606
74755W        W36121  15.093  11.797  12.493
74756W        W36122  43.379  25.009   1.226
74757W        W36123  43.376  29.015   4.169
74758W        W36124   1.324  26.096   1.843
74759W        W36125  29.090  23.646  14.293
74760W        W36126  32.586   3.264  12.909
74761W        W36127  10.227   8.261  11.435
74762W        W36128   2.889  28.526  13.807
74763W        W36129  34.580  38.923  14.349
74764W        W36130  30.085  34.518   2.239
74765W        W36131  29.944  37.998   2.702
74766W        W36132  44.822  23.606  12.035
74767W        W36133  19.658  13.771   1.783
74768W        W36134  12.159  35.030  10.985
74769W        W36135  12.807  42.414   3.820
74770W        W36136  33.951  33.927  14.460
74771W        W36137  17.065   9.743   0.840
74772W        W36138  13.305  37.010   0.757
74773W        W36139  23.692  37.354   2.225
74774W        W36140  20.674  11.826  13.312
74775W        W36141   4.872  16.254   1.831
74776W        W36142  37.409  31.458  10.950
74777W        W36143   9.716  14.824   3.196
74778W        W36144  25.611  11.170   3.856
74779W        W36145  28.504   7.180  13.857
74780W        W36146  42.863  17.116   1.257
74781W        W36147  13.155  20.586  13.838
74782W        W36148  24.716   6.395   1.779
74783W        W36149   4.356  28.959  13.493
74784W        W36150  27.525  37.515  11.047
74785W        W36151   4.314   8.316  13.961
74786W        W36152  42.788  26.083   0.915
74787W        W36153  35.544  43.309   9.493
74788W        W36154   0.391   5.722  11.893
74789W        W36155  18.143  42.834   1.268
74790W        W36156  10.697  34.892  13.942
74791W        W36157  34.498  38.050   4.702
74792W        W36158  13.789  20.255  12.074
74793W        W36159  37.488  28.125   3.338
74794W        W36160  21.204  37.998   4.187
74795W        W36161  36.578   5.238  12.955
74796W        W36162  39.439   7.201  10.965
74797W        W36163  12.210  18.171  13.499
74798W        W36164   6.876  43.824  14.794
74799W        W36165  38.566  44.405   4.141
74800W        W36166  44.756   6.300   3.652
74801W        W36167  35.414  18.574   4.689
74802W        W36168  36.408   1.264  14.478
74803W        W36169  30.994  32.028   2.769
74804W        W36170   4.259  37.032   2.725
74805W        W36171  13.231  15.127   1.438
74806W        W36172   8.656  40.350  11.082
74807W        W36173  33.421  28.495  11.533
74808W        W36174  34.417  29.079  11.061
74809W        W36175  32.435  31.444  13.988
74810W        W36176  14.657  12.736   2.784
74811W        W36177  14.227   1.830   0.337
74812W        W36178  24.069  40.959  10.544
74813W        W36179  11.284  22.093   4.753
74814W        W36180  25.571  37.499   4.629
74815W        W36181   4.822   1.963  14.447
74816W        W36182  33.442  22.251  13.035
74817W        W36183  28.000  23.598   1.298
74818W        W36184  32.537  13.110   2.276
74819W        W36185  22.098  17.121  10.499
74820W        W36186  15.258  34.425  11.532
74821W        W36187   1.261  30.566  13.456
74822W        W36188  16.676  13.841   0.242
74823W        W36189   2.293   8.172  13.352
74824W        W36190  13.667  30.629  12.068
74825W        W36191  44.889  20.740  14.403
74826W        W36192   9.861  22.222  12.953
74827W        W36193  14.771  27.575   0.466
74828W        W36194   5.249  24.116  12.986
74829W        W36195  14.617  43.898   4.230
74830W        W36196   9.319  40.887  11.566
74831W        W36197  33.421   8.219   2.311
74832W        W36198  17.264  26.089   1.742
74833W        W36199  42.806  40.027   0.949
74834W        W36200  33.893   0.410  11.011
74835W        W36201  19.152   6.308  14.840
74836W        W36202  24.717  21.249   3.222
74837W        W36203   9.711   8.369  11.063
74838W        W36204  23.998  40.459   4.332
74839W        W36205  35.417   3.420  13.983
74840W        W36206  43.401   8.306  13.437
74841W        W36207  44.389  44.987   3.179
74842W        W36208  36.542   4.913   3.633
74843W        W36209  15.735   6.774   1.922
74844W        W36210  26.647   1.450   2.260
74845W        W36211  11.737  26.101  11.914
74846W        W36212  39.999  36.841  13.851
74847W        W36213  15.733  29.542   1.339
74848W        W36214  40.516   2.432  10.416
74849W        W36215  29.491  24.520   3.727
74850W        W36216  24.553  20.571  11.859
74851W        W36217  42.979   5.256  12.431
74852W        W36218   0.911   2.227   2.697
74853W        W36219  42.362  19.133   3.322
74854W        W36220  26.661  17.079  14.928
74855W        W36221  11.673   1.973  13.328
74856W        W36222  29.068  42.022   2.198
74857W        W36223  27.622  30.115  11.605
74858W        W36224  28.077  14.214   4.256
74859W        W36225  25.164  27.481   3.642
74860W        W36226  40.975  32.136   3.669
74861W        W36227   8.666  33.041  12.971
74862W        W36228  44.329  21.145  11.123
74863W        W36229   2.357  39.350   1.765
74864W        W36230  18.115  43.009   2.894
74865W        W36231   6.707  23.043   0.818
74866W        W36232   8.388  41.811  14.841
74867W        W36233  29.149  30.936  10.454
74868W        W36234   9.762   4.719  14.957
74869W        W36235  27.651  30.131   3.296
74870W        W36236  42.907   2.434  14.511
74871W        W36237   2.729   5.262   1.353
74872W        W36238  14.282  15.100   1.716
74873W        W36239  37.915   6.305  11.974
74874W        W36240  14.163  17.759   3.637
74875W        W36241  16.248  28.482   1.413
74876W        W36242  35.004   9.816  12.959
74877W        W36243   1.464   0.918  13.896
74878W        W36244  37.422  37.941   0.766
74879W        W36245  24.596  39.323  11.121
74880W        W36246  28.179  26.664  10.939
74881W        W36247  14.104  35.914  14.801
74882W        W36248  24.218  10.218   5.151
74883W        W36249  40.341  21.546  12.941
74884W        W36250   9.165  37.507  12.401
74885W        W36251  19.113  34.104   9.513
74886W        W36252  33.475  15.696   0.440
74887W        W36253  23.174   6.368  12.040
74888W        W36254   7.368  19.098  13.849
74889W        W36255  32.995  35.521   2.812
74890W        W36256  31.537  17.758  14.461
74891W        W36257  28.439  13.315  13.325
74892W        W36258  25.471  36.967  14.375
74893W        W36259   1.405  22.697   2.689
74894W        W36260  21.582  43.997  11.918
74895W        W36261  40.402  17.067  10.424
74896W        W36262  33.896  41.313   0.762
74897W        W36263   9.164  19.545   0.472
74898W        W36264   9.289   1.934   2.811
74899W        W36265  10.755   2.288   4.804
74900W        W36266  38.440  18.742  13.522
74901W        W36267  10.658   1.933   4.262
74902W        W36268   2.946  22.517  14.346
74903W        W36269  33.021  26.193   1.248
74904W        W36270   7.255  39.896  10.992
74905W        W36271  25.661  35.505  11.993
74906W        W36272  35.580  27.481   2.374
74907W        W36273  22.021   7.797  11.913
74908W        W36274  38.458   0.750  13.030
74909W        W36275  39.452   8.375  10.609
74910W        W36276   0.260  36.908  13.897
74911W        W36277  24.038  28.540  13.369
74912W        W36278   4.736  29.528  12.830
74913W        W36279  36.469  28.618  10.974
74914W        W36280   3.841  39.826  12.429
74915W        W36281   2.759  23.527  14.887
74916W        W36282  17.102  37.946   3.739
74917W        W36283  24.504  34.074   5.701
74918W        W36284  17.570   4.372   1.374
74919W        W36285  12.210  39.494   1.444
74920W        W36286  26.144  40.523  11.864
74921W        W36287  35.037  39.318  14.845
74922W        W36288  19.144  23.232  11.533
74923W        W36289   1.942  18.131   0.288
74924W        W36290   0.371  39.887   1.260
74925W        W36291  18.591   7.277   4.749
74926W        W36292  18.704  10.260  13.011
74927W        W36293  25.137  41.315  13.514
74928W        W36294   7.874  26.695  14.972
74929W        W36295  38.041   8.872  13.494
74930W        W36296  25.168  17.206  13.464
74931W        W36297  15.812  41.502  12.885
74932W        W36298   2.259  21.156  13.975
74933W        W36299  22.669   7.281   4.289
74934W        W36300  33.049  43.359  12.039
74935W        W36301  12.649  21.635   3.313
74936W        W36302  17.062  16.780   4.765
74937W        W36303  14.663  39.057  13.489
74938W        W36304  25.515  16.698   4.738
74939W        W36305  35.979   7.742   0.913
74940W        W36306  23.017  13.167  12.888
74941W        W36307  25.678  21.194  10.588
74942W        W36308  35.432  36.967  10.608
74943W        W36309  12.844  35.964   3.676
74944W        W36310  29.498  33.487   2.347
74945W        W36311  36.352  19.165   2.835
74946W        W36312  44.834  33.951  13.895
74947W        W36313  29.516  38.885   3.634
74948W        W36314   4.263  16.606   4.723
74949W        W36315  20.208   4.915  10.631
74950W        W36316  22.620   3.257   3.162
74951W        W36317  34.574  26.982   1.259
74952W        W36318  13.234  17.218   1.697
74953W        W36319  27.680   0.438  14.775
74954W        W36320  28.597  39.811   4.723
74955W        W36321  16.631   6.831   2.349
74956W        W36322  17.152   1.860  11.489
74957W        W36323  42.373   1.925   4.293
74958W        W36324  38.940   5.291  14.935
74959W        W36325   9.648  35.879  10.630
74960W        W36326  33.987   4.359   0.776
74961W        W36327   7.272   0.254   2.303
74962W        W36328  40.328  25.091  13.844
74963W        W36329  15.613   2.325   3.209
74964W        W36330  30.026   2.875  12.930
74965W        W36331   5.349   5.378   0.256
74966W        W36332  24.533   5.788  13.501
74967W        W36333  20.701   9.373  12.840
74968W        W36334  36.511   5.195   0.270
74969W        W36335  38.444  14.313  12.410
74970W        W36336  30.935  15.227  12.987
74971W        W36337   1.278   2.760   2.854
74972W        W36338  30.143  37.066   4.129
74973W        W36339  33.877  25.187   3.254
74974W        W36340  22.558  28.952  11.948
74975W        W36341  42.862  21.589  12.023
74976W        W36342  25.598  38.065   2.826
74977W        W36343  43.961  17.727   0.851
74978W        W36344  21.249  40.359   1.834
74979W        W36345  35.456   4.406  12.997
74980W        W36346  27.069   0.332  12.421
74981W        W36347  35.887  22.216   1.925
74982W        W36348  11.751  15.748  11.124
74983W        W36349   3.857  12.169   4.759
74984W        W36350   8.677  32.471  13.997
74985W        W36351  21.100  24.577   3.187
74986W        W36352  34.076  40.935   4.150
74987W        W36353   8.255  12.780  14.488
74988W        W36354  11.862  21.746   2.361
74989W        W36355  23.055  40.823  11.511
74990W        W36356  19.044  41.524   4.818
74991W        W36357  13.175   9.733   3.182
74992W        W36358   1.389  15.135   0.819
74993W        W36359  37.914   9.159  13.934
74994W        W36360  17.726  10.150  11.394
74995W        W36361  44.761   5.281   1.798
74996W        W36362  21.748   3.267   2.370
74997W        W36363   9.233  37.882  13.315
74998W        W36364  12.685  42.466   2.778
74999W        W36365  11.655  44.835  12.060
75000W        W36366  35.396  34.564  12.494
75001W        W36367   2.417  12.231  14.352
75002W        W36368  33.885  40.514   2.371
75003W        W36369   0.931  17.265  12.979
75004W        W36370   4.273  22.728  13.941
75005W        W36371   8.169  42.422   2.374
75006W        W36372  26.061  33.929   2.353
75007W        W36373  26.501  32.098   9.957
75008W        W36374  29.063   2.328  12.387
75009W        W36375  26.127  27.084   2.707
75010W        W36376  39.862   6.360  11.505
75011W        W36377  14.624  36.995  13.847
75012W        W36378  21.121   3.750   1.911
75013W        W36379  42.009  23.165   4.741
75014W        W36380   1.967  31.560  13.913
75015W        W36381  16.298  38.927  14.376
75016W        W36382  44.919   3.803   4.314
75017W        W36383   3.737  24.650   4.244
75018W        W36384   9.645   7.330   0.361
75019W        W36385  42.327  23.137  11.119
75020W        W36386  12.315   1.781   2.380
75021W        W36387  28.155  26.982   3.844
75022W        W36388  38.846  35.968   0.917
75023W        W36389   5.363  40.913   0.729
75024W        W36390  42.821   7.350   2.192
75025W        W36391  43.937  34.383   4.682
75026W        W36392  35.910  41.454   4.207
75027W        W36393  14.605  24.989   3.347
75028W        W36394  44.764  32.077  12.959
75029W        W36395  11.799  29.022  13.005
75030W        W36396  12.622  13.144  11.874
75031W        W36397  39.495   2.764  11.856
75032W        W36398   6.788  27.548   2.360
75033W        W36399  12.629   3.321  12.991
75034W        W36400  33.880  26.002  11.521
75035W        W36401  39.318  29.475  14.294
75036W        W36402  24.588  42.351   1.256
75037W        W36403  25.467  31.421  12.342
75038W        W36404  15.707   6.335  14.962
75039W        W36405  44.411  36.993  11.983
75040W        W36406   7.673  34.413  13.003
75041W        W36407  29.549  33.949   2.711
75042W        W36408  32.424  39.556  11.908
75043W        W36409  37.390   7.293   9.957
75044W        W36410  42.407  37.551  12.831
75045W        W36411  40.366  32.088  11.489
75046W        W36412   9.158  23.085   4.322
75047W        W36413   2.459  36.441   1.754
75048W        W36414   5.312  11.838   4.801
75049W        W36415  17.782  36.569   3.323
75050W        W36416  30.593   6.410   0.917
75051W        W36417   2.774  32.983   2.687
75052W        W36418  18.697   9.340   4.737
75053W        W36419  41.926  28.163   3.171
75054W        W36420  12.247  42.372   0.805
75055W        W36421  28.534  35.100  13.356
75056W        W36422  43.794   0.489   3.629
75057W        W36423  22.029  22.650  10.423
75058W        W36424   9.352  28.103  11.023
75059W        W36425  35.452  23.187   3.694
75060W        W36426  36.083  15.691   4.647
75061W        W36427  33.965   3.817   1.851
75062W        W36428  23.010  32.542   0.755
75063W        W36429  22.686  15.777  14.969
75064W        W36430  11.245   6.398  14.863
75065W        W36431  44.764  33.013   2.843
75066W        W36432  15.667  24.978   9.951
75067W        W36433  33.088  40.828  14.841
75068W        W36434  31.035  36.968   4.613
75069W        W36435  18.099  20.575  10.974
75070W        W36436  20.596  26.992   4.731
75071W        W36437  13.836  27.945   1.850
75072W        W36438   0.750  13.276  12.846
75073W        W36439  29.030   4.241  14.417
75074W        W36440  40.951  12.353   0.800
75075W        W36441  33.925   7.770  11.481
75076W        W36442   1.355  31.462  10.966
75077W        W36443  30.133  35.101   3.202
75078W        W36444  11.332   6.794  12.961
75079W        W36445   2.766  43.889   2.280
75080W        W36446  15.165  17.641   3.810
75081W        W36447  31.587  28.138   1.438
75082W        W36448  19.548  35.100  12.350
75083W        W36449  28.138  20.191   1.210
75084W        W36450   3.231  35.509   3.371
75085W        W36451  38.962   7.377   4.265
75086W        W36452  33.006   0.940   0.333
75087W        W36453  39.559  24.526  12.569
75088W        W36454   6.379  38.867  12.345
75089W        W36455  16.229  29.931  13.822
75090W        W36456  10.812  29.934   4.696
75091W        W36457   4.884   1.267   3.715
75092W        W36458  30.558  12.797   4.139
75093W        W36459  36.874  43.841  12.832
75094W        W36460  27.070   0.424  13.850
75095W        W36461  21.142   2.785  11.121
75096W        W36462  22.573  19.153   2.310
75097W        W36463   3.274  27.619  13.884
75098W        W36464   8.379  25.111   4.631
75099W        W36465  37.915  43.889  14.950
75100W        W36466  40.433  16.679  12.886
75101W        W36467  42.779   4.410  14.421
75102W        W36468  38.874  29.574   0.419
75103W        W36469   5.254  40.361  14.367
75104W        W36470  44.340  41.380  12.903
75105W        W36471   1.960  41.415   4.735
75106W        W36472  31.505  19.734  14.846
75107W        W36473  41.896   0.957   0.301
75108W        W36474  19.620  20.140   3.241
75109W        W36475   6.900  33.913  11.016
75110W        W36476  17.110   0.807  13.483
75111W        W36477  29.036  21.119   1.299
75112W        W36478  39.360   4.284  12.851
75113W        W36479  34.445  33.917  13.942
75114W        W36480  33.522  15.660  14.516
75115W        W36481   6.731  21.183  14.968
75116W        W36482   6.816  17.141   2.879
75117W        W36483   4.249  15.216   0.744
75118W        W36484  13.708  40.352   2.715
75119W        W36485  11.211  32.916   0.285
75120W        W36486   2.425  19.078  13.841
75121W        W36487   7.317   4.377  14.785
75122W        W36488  15.584  20.673   0.872
75123W        W36489   6.357  28.504   0.282
75124W        W36490   7.723  11.348   3.206
75125W        W36491  30.090  38.921   0.420
75126W        W36492   6.819  21.070  10.561
75127W        W36493  12.679   4.785  10.916
75128W        W36494  39.061  18.595  11.049
75129W        W36495  15.785  25.108   1.267
75130W        W36496  24.592  20.549   3.153
75131W        W36497  36.864  16.298   4.277
75132W        W36498   0.977  44.418   0.854
75133W        W36499  22.204  31.533  13.810
75134W        W36500  12.730   8.694   3.340
75135W        W36501  33.965  36.379  11.088
75136W        W36502  23.146  16.196  12.547
75137W        W36503   5.742   6.715  10.431
75138W        W36504  24.671  44.504   3.204
75139W        W36505  29.423  17.127   4.624
75140W        W36506  18.573  27.643  14.797
75141W        W36507  22.088  27.064  13.335
75142W        W36508  18.216  44.783  13.992
75143W        W36509  27.533  32.939   0.279
75144W        W36510  11.834   8.847  10.484
75145W        W36511  21.264  44.928   3.798
75146W        W36512  14.310  27.544   4.238
75147W        W36513  17.206  21.252  12.402
75148W        W36514   0.343  17.127  12.030
75149W        W36515  20.221   0.446  10.409
75150W        W36516   7.747  43.360  11.544
75151W        W36517  29.130   1.467   4.827
75152W        W36518  25.071  37.023   0.908
75153W        W36519   6.746  20.526  11.581
75154W        W36520   8.871  29.521  10.577
75155W        W36521   1.344   4.821   9.932
75156W        W36522  29.055  38.937   0.482
75157W        W36523   2.436  37.559   4.278
75158W        W36524  17.287  41.033  12.981
75159W        W36525   2.421  26.552   0.362
75160W        W36526  11.149  39.959   2.393
75161W        W36527  14.154  27.071   3.816
75162W        W36528  29.596  13.107  14.505
75163W        W36529  37.891  15.319   1.811
75164W        W36530  18.791   3.945  10.994
75165W        W36531  23.620  16.627  14.768
75166W        W36532   8.659  20.691   3.181
75167W        W36533  40.009  10.163   2.851
75168W        W36534  16.584  23.060   1.709
75169W        W36535  23.090  29.564   3.150
75170W        W36536  13.247  13.252   3.747
75171W        W36537   1.440   4.206   2.279
75172W        W36538   0.825  12.842   0.261
75173W        W36539  27.109  39.449   2.836
75174W        W36540  37.915  38.388   0.883
75175W        W36541  31.508   4.313  12.520
75176W        W36542  26.688   7.243  11.586
75177W        W36543  33.420   3.759  14.818
75178W        W36544  40.375  15.275   4.676
75179W        W36545  16.080   1.426  14.500
75180W        W36546  21.732  17.752  14.867
75181W        W36547   9.889  32.426   0.737
75182W        W36548  28.093  20.672  11.106
75183W        W36549  21.737  20.246  14.937
75184W        W36550  25.173  32.529  11.122
75185W        W36551  41.802  40.841  11.481
75186W        W36552  14.195  42.864  10.095
75187W        W36553  22.575   0.749   4.734
75188W        W36554  37.369  18.117   0.942
75189W        W36555  25.073  24.582  11.038
75190W        W36556   3.295  29.649   2.780
75191W        W36557  11.296  20.716  10.620
75192W        W36558  22.571  36.856   3.308
75193W        W36559  25.534  20.068   4.738
75194W        W36560   8.390  10.234  10.643
75195W        W36561  40.982   7.380  14.896
75196W        W36562  16.179  20.171   3.326
75197W        W36563  14.803  41.344  11.102
75198W        W36564   2.841  33.877   4.350
75199W        W36565  28.167  24.500  10.029
75200W        W36566  14.759   7.339  11.595
75201W        W36567  37.336  30.472  13.450
75202W        W36568  21.584  23.529   0.942
75203W        W36569   6.885  39.559  13.816
75204W        W36570  17.067  37.539  13.967
75205W        W36571  42.029  41.933   4.291
75206W        W36572  20.536  29.581   0.799
75207W        W36573  37.400   8.188  10.954
75208W        W36574   0.486  35.862  12.437
75209W        W36575   3.786  13.646  12.532
75210W        W36576  37.464  11.639  12.393
75211W        W36577  12.845  44.300   3.833
75212W        W36578  38.405  37.384   3.174
75213W        W36579  20.215  33.422   4.138
75214W        W36580  14.290  35.445   9.953
75215W        W36581  38.064  14.686   1.875
75216W        W36582  13.636  14.799   5.583
75217W        W36583  17.283  37.947  12.477
75218W        W36584  41.348  22.585  12.950
75219W        W36585  34.897  44.764  14.990
75220W        W36586  12.621  29.073  11.962
75221W        W36587  19.542   1.435  13.827
75222W        W36588  25.214  34.522   1.378
75223W        W36589  35.852  35.009   4.123
75224W        W36590  27.560  18.243  13.528
75225W        W36591  33.944   7.177   3.260
75226W        W36592  22.160  26.095  13.952
75227W        W36593  31.437  14.282  14.385
75228W        W36594  14.256  32.992   3.384
75229W        W36595  44.418   1.852  13.457
75230W        W36596  39.924  24.529   4.758
75231W        W36597  23.527   0.447  13.977
75232W        W36598  24.491  41.309  14.922
75233W        W36599   8.702   1.760   3.293
75234W        W36600  41.955  34.512  12.942
75235W        W36601   0.820  39.366   2.876
75236W        W36602  26.617  30.557  12.358
75237W        W36603  41.996  17.206   9.961
75238W        W36604  13.746  22.528   2.255
75239W        W36605   4.445   8.816  13.314
75240W        W36606  37.857   9.890  14.003
75241W        W36607  21.690  35.570   0.343
75242W        W36608  33.502  27.477   1.867
75243W        W36609  41.432  39.011   4.192
75244W        W36610  12.317  31.940   5.108
75245W        W36611  18.694  39.353   3.834
75246W        W36612  38.556  36.470   4.767
75247W        W36613  25.706  34.435   4.315
75248W        W36614  18.197  24.100  10.546
75249W        W36615  19.571   4.328   1.431
75250W        W36616  13.820  42.519   1.910
75251W        W36617   4.943  12.716   9.980
75252W        W36618  23.204  38.528  14.942
75253W        W36619  22.536  36.509  11.386
75254W        W36620  31.017  33.992  12.528
75255W        W36621  37.843   6.785  13.879
75256W        W36622  17.142  41.323  12.069
75257W        W36623  40.955  40.812   0.884
75258W        W36624  31.504  21.605   5.137
75259W        W36625  41.805  27.949   2.219
75260W        W36626   8.231  20.737  12.363
75261W        W36627  26.001  33.401  10.573
75262W        W36628  36.399   3.290   0.446
75263W        W36629  14.623  42.839   4.766
75264W        W36630  38.412   2.422   4.810
75265W        W36631  13.253  26.018   0.291
75266W        W36632   9.714  38.328  13.433
75267W        W36633  35.854   3.714   3.232
75268W        W36634  29.608  10.783   1.875
75269W        W36635  25.524  35.064  12.029
75270W        W36636   6.298   1.813   4.202
75271W        W36637  40.479  32.946  13.832
75272W        W36638  29.075   6.820  11.933
75273W        W36639  41.525  35.078   3.170
75274W        W36640  12.661  36.373  13.543
75275W        W36641  18.262  35.063  14.486
75276W        W36642  12.240  44.485   2.206
75277W        W36643   2.874  28.126  11.934
75278W        W36644  17.585  30.947   2.360
75279W        W36645  42.870  38.340  10.435
75280W        W36646   2.804   7.269  14.916
75281W        W36647  14.123  42.452   4.691
75282W        W36648  24.671  21.548  11.919
75283W        W36649  39.560  41.850   4.351
75284W        W36650  25.996   3.917  12.960
75285W        W36651  13.788  30.953  10.534
75286W        W36652  12.253  40.336  11.570
75287W        W36653  10.190  11.662   2.404
75288W        W36654  38.835  26.608   0.874
75289W        W36655  44.446  13.830   1.776
75290W        W36656  33.479  13.656  14.478
75291W        W36657  18.136   9.339  14.887
75292W        W36658  23.990  16.674   3.849
75293W        W36659  13.269  36.489   1.430
75294W        W36660  35.856  14.232   2.838
75295W        W36661  18.668  28.093  10.446
75296W        W36662  43.964  23.732  12.562
75297W        W36663   1.338  19.111   1.451
75298W        W36664  31.920  15.632  13.322
75299W        W36665  12.746  33.958   2.221
75300W        W36666  43.479  40.497   0.739
75301W        W36667  43.991  31.645  14.815
75302W        W36668   2.427  26.144   5.213
75303W        W36669  12.124  18.789   4.235
75304W        W36670   7.370   3.435  10.006
75305W        W36671  39.489  27.020   0.857
75306W        W36672  19.563  30.931   4.697
75307W        W36673  43.368  40.992  13.322
75308W        W36674  18.647  28.179  12.969
75309W        W36675  20.159  22.153  11.936
75310W        W36676  13.726  24.683  12.850
75311W        W36677   5.741   3.260   0.364
75312W        W36678  13.301  22.076  14.276
75313W        W36679  40.903   6.297  11.112
75314W        W36680   2.234  28.631   3.637
75315W        W36681   5.927  24.228   1.444
75316W        W36682   3.347   0.794  13.408
75317W        W36683  17.079  30.061  12.892
75318W        W36684  14.609  11.220   0.269
75319W        W36685  43.942  18.738  14.966
75320W        W36686  26.095  11.650  11.070
75321W        W36687   3.818  31.967  11.483
75322W        W36688  36.572  26.555  14.346
75323W        W36689   3.384  17.223   0.853
75324W        W36690  42.523  31.915  14.479
75325W        W36691  20.626  12.358   1.227
75326W        W36692  18.183  23.228  12.452
75327W        W36693  29.591  26.480  14.406
75328W        W36694  13.199  22.242   3.163
75329W        W36695  38.938  38.993   0.776
75330W        W36696   2.740  24.187  11.862
75331W        W36697   9.701  14.648  12.359
75332W        W36698   1.351   4.709  13.039
75333W        W36699  32.965  20.134  12.937
75334W        W36700  29.003  14.260  11.958
75335W        W36701   7.875   7.238   9.953
75336W        W36702   4.725  20.639   3.340
75337W        W36703  17.564  19.222   3.304
75338W        W36704   0.886  16.280  11.954
75339W        W36705  36.563   3.953  10.426
75340W        W36706  33.504  22.661  11.900
75341W        W36707  42.006  25.140   2.407
75342W        W36708  27.074  35.552   4.647
75343W        W36709   0.357   5.233  11.596
75344W        W36710  37.524  10.186   4.174
75345W        W36711  43.977  23.189   1.913
75346W        W36712  25.489  38.364   3.181
75347W        W36713  25.542  43.899   4.212
75348W        W36714  19.738  15.083   0.458
75349W        W36715  21.029   3.808   0.927
75350W        W36716  42.800  16.657   1.804
75351W        W36717  30.591  40.302  11.859
75352W        W36718  25.120  42.464   4.339
75353W        W36719  20.531  40.895   0.247
75354W        W36720  20.563  13.821   2.806
75355W        W36721   7.867  16.652   1.371
75356W        W36722  21.129  30.163  14.986
75357W        W36723  15.263  35.397   4.748
75358W        W36724  23.023  33.044   4.622
75359W        W36725   6.235   9.184  12.413
75360W        W36726  41.797  35.464  12.026
75361W        W36727  22.570   1.390  10.921
75362W        W36728  37.850  29.615  10.610
75363W        W36729  20.761   5.268  14.822
75364W        W36730   5.847  17.750   2.300
75365W        W36731  28.974  30.430  12.439
75366W        W36732  21.574  36.009   3.645
75367W        W36733  21.631  19.553  14.828
75368W        W36734  29.158  21.082  13.401
75369W        W36735   2.903  36.099   3.698
75370W        W36736  30.934  42.021  10.020
75371W        W36737  31.497  22.548  12.392
75372W        W36738  26.122   3.351  10.542
75373W        W36739  13.121   9.298  11.468
75374W        W36740  28.044   9.869  13.467
75375W        W36741   3.396  41.963   1.387
75376W        W36742  20.637  32.047   4.816
75377W        W36743  25.539  39.890  10.409
75378W        W36744  27.050   6.321   1.371
75379W        W36745  32.393  21.690  11.893
75380W        W36746   7.242   3.237   3.371
75381W        W36747  18.635  38.948   5.291
75382W        W36748  39.432  27.614  12.406
75383W        W36749   8.398  38.848   4.622
75384W        W36750  22.509  40.817  10.151
75385W        W36751  15.160  23.681  13.461
75386W        W36752  39.466  24.608  14.017
75387W        W36753  19.116  42.795   4.344
75388W        W36754  13.194  20.041  12.071
75389W        W36755  25.134  17.561  11.052
75390W        W36756  26.536  35.968   4.283
75391W        W36757  13.782  36.095  12.996
75392W        W36758  26.593  27.600  12.406
75393W        W36759  15.293   9.766  14.973
75394W        W36760   5.197  38.953   3.161
75395W        W36761  22.091  24.219   3.667
75396W        W36762  20.730  24.026  12.847
75397W        W36763  24.171   5.752  11.485
75398W        W36764  44.893  34.438   4.306
75399W        W36765   0.249  14.100   3.270
75400W        W36766  13.678  16.679   3.775
75401W        W36767  12.612   4.356  10.929
75402W        W36768  13.718  34.401   3.263
75403W        W36769  21.736  14.747  14.941
75404W        W36770  35.952   9.269   3.269
75405W        W36771  43.294  15.136   4.228
75406W        W36772  42.959  13.675   4.209
75407W        W36773  15.275   7.694   2.781
75408W        W36774   8.295  11.128  12.838
75409W        W36775  35.931  30.517  11.871
75410W        W36776  22.209  15.187   4.679
75411W        W36777  20.734   7.687   4.709
75412W        W36778   0.370  19.716  13.975
75413W        W36779  18.615   3.289  10.470
75414W        W36780  29.600  23.640  14.312
75415W        W36781  12.752   0.899  12.934
75416W        W36782   5.207   0.873  10.512
75417W        W36783   2.925  25.184  14.360
75418W        W36784  34.909  21.642   4.732
75419W        W36785  30.130   3.323   4.765
75420W        W36786  19.157  16.682   9.532
75421W        W36787  32.973  17.209  13.454
75422W        W36788  34.952  35.021   4.177
75423W        W36789  20.177  39.951  11.478
75424W        W36790   9.204  16.211  14.339
75425W        W36791  31.599  26.145   2.836
75426W        W36792  10.228  24.496  11.050
75427W        W36793   1.442  38.557  12.841
75428W        W36794  30.094  10.842   4.659
75429W        W36795  42.471  21.035  11.513
75430W        W36796  23.169  21.673  11.123
75431W        W36797  34.461  23.646  14.484
75432W        W36798  36.464   7.886   3.180
75433W        W36799  31.085  40.442  14.777
75434W        W36800   3.451  16.146   0.277
75435W        W36801  37.546  38.346   4.124
75436W        W36802  19.207   6.876  14.802
75437W        W36803  19.730  27.493  11.598
75438W        W36804  22.136   9.838   1.244
75439W        W36805  13.314  26.033   4.140
75440W        W36806  29.611  32.989  14.394
75441W        W36807  23.547  40.473   1.878
75442W        W36808  36.453  38.828  13.869
75443W        W36809  19.703  41.899   1.790
75444W        W36810   7.339   4.287   5.685
75445W        W36811  32.000  28.466   3.361
75446W        W36812  38.406  24.719   0.946
75447W        W36813  39.345  15.749   2.389
75448W        W36814   3.775  39.536   2.304
75449W        W36815  23.039   0.967   4.281
75450W        W36816   2.340   3.338  11.058
75451W        W36817  32.616   6.816   1.720
75452W        W36818  14.596  35.365  13.973
75453W        W36819  26.467   4.918  13.454
75454W        W36820  15.195  29.585   4.734
75455W        W36821  12.214  23.710  11.573
75456W        W36822   9.225  24.230   4.231
75457W        W36823  22.200  15.259  12.492
75458W        W36824  36.514  38.944  14.918
75459W        W36825  20.755  11.830   3.804
75460W        W36826   0.988  31.982   5.175
75461W        W36827   9.725   2.324  14.418
75462W        W36828  11.332  34.107  14.381
75463W        W36829   8.386  28.474  11.940
75464W        W36830  13.337  31.571  13.501
75465W        W36831  25.159  23.110  12.546
75466W        W36832   9.812  35.084  13.060
75467W        W36833  27.970  24.985   3.191
75468W        W36834   3.807  34.584  13.000
75469W        W36835  16.291  24.580   1.241
75470W        W36836   1.344  26.575   4.304
75471W        W36837  23.530   1.462   2.886
75472W        W36838  15.690  16.764  13.874
75473W        W36839  13.278  21.563   4.247
75474W        W36840  17.240  18.669  10.615
75475W        W36841  17.660  26.621  11.441
75476W        W36842  33.107  34.380  12.369
75477W        W36843   4.793  34.577   2.801
75478W        W36844  17.614   6.223  12.986
75479W        W36845  22.513  20.038  12.541
75480W        W36846  13.761   0.910   2.854
75481W        W36847   7.694  42.464   0.437
75482W        W36848  35.393  30.070   4.198
75483W        W36849  44.319  40.375  11.058
75484W        W36850   1.467  43.271   2.391
75485W        W36851   3.826  22.613   3.724
75486W        W36852  17.729   5.862  13.914
75487W        W36853  32.418  34.519  11.057
75488W        W36854   9.720  15.255  14.473
75489W        W36855   6.365  13.242   5.267
75490W        W36856   8.889  40.522   4.190
75491W        W36857  15.269  11.784   3.199
75492W        W36858  40.011  44.905   3.683
75493W        W36859  10.844   3.288  13.970
75494W        W36860  23.039  43.004   0.291
75495W        W36861   8.727  18.089   2.342
75496W        W36862  37.534  20.616  12.389
75497W        W36863  35.540  20.127  12.981
75498W        W36864  11.726  33.504  11.504
75499W        W36865  17.106  33.132  13.898
75500W        W36866  11.300  11.160  13.904
75501W        W36867  37.347   6.382   3.868
75502W        W36868  17.764  19.769  10.567
75503W        W36869   9.739   5.782   3.686
75504W        W36870   6.406  16.283  13.458
75505W        W36871  37.436  13.284   0.421
75506W        W36872   3.434  41.929   1.854
75507W        W36873   6.831  40.025   3.279
75508W        W36874  20.744  13.712  10.429
75509W        W36875  14.154  31.933   3.246
75510W        W36876   1.946   2.373   2.895
75511W        W36877  25.985  39.924  12.055
75512W        W36878  33.433  18.122  10.136
75513W        W36879   3.833   3.803  14.397
75514W        W36880  15.724  22.017   1.925
75515W        W36881  22.733  14.133   0.888
75516W        W36882   4.880  23.039   0.295
75517W        W36883  22.248  12.695  12.966
75518W        W36884  12.284  39.890  12.448
75519W        W36885  41.834   3.816  10.496
75520W        W36886  24.670  26.692  10.620
75521W        W36887  19.273  31.447   3.669
75522W        W36888  25.641  28.452  12.830
75523W        W36889  34.438   6.199   4.350
75524W        W36890   4.287  30.026   1.694
75525W        W36891  21.079  17.747  13.936
75526W        W36892  14.335  36.884  10.413
75527W        W36893   1.458  38.924   2.330
75528W        W36894  44.476  33.040   4.818
75529W        W36895  33.519  27.677  14.963
75530W        W36896  37.937   9.688   0.960
75531W        W36897   8.756  10.194  13.879
75532W        W36898  12.183  18.569  10.902
75533W        W36899  30.949  18.575  14.916
75534W        W36900  33.444  23.207   1.400
75535W        W36901   6.683  33.503  10.890
75536W        W36902  30.031  27.641   0.889
75537W        W36903  39.916  12.285  12.063
75538W        W36904   9.788  33.891   0.372
75539W        W36905  25.487  30.446   4.214
75540W        W36906   4.248  15.725  11.551
75541W        W36907  20.766  38.421   4.339
75542W        W36908  31.467  36.892   1.697
75543W        W36909  38.933  41.502   1.312
75544W        W36910  26.101  31.544   1.427
75545W        W36911  31.965  29.992   2.757
75546W        W36912  16.577  20.662  12.556
75547W        W36913   0.783  12.638   1.362
75548W        W36914  25.647  33.953  12.375
75549W        W36915   1.802  31.430  14.397
75550W        W36916   0.294   3.773  10.554
75551W        W36917  43.997   3.788   3.289
75552W        W36918  36.423   2.931   3.826
75553W        W36919  17.601  18.697   2.191
75554W        W36920  19.198   9.334  10.456
75555W        W36921  20.233  33.428  14.016
75556W        W36922   5.438  11.322  10.961
75557W        W36923  41.304  24.538   0.288
75558W        W36924  21.717  18.716  10.893
75559W        W36925   1.306  30.550   0.798
75560W        W36926  40.025  24.665  10.514
75561W        W36927  35.490  16.712  12.871
75562W        W36928  40.037  14.103  10.579
75563W        W36929  16.747  15.296   0.315
75564W        W36930  43.468  37.419   3.787
75565W        W36931  18.076  12.205   0.315
75566W        W36932  19.076  15.271   2.733
75567W        W36933  16.096  18.058   1.253
75568W        W36934  36.390  10.196   2.830
75569W        W36935  16.247   5.923  11.596
75570W        W36936  28.652   1.919  12.944
75571W        W36937  34.118  15.753  11.083
75572W        W36938  17.188  29.139   0.381
75573W        W36939  16.637   5.841   0.925
75574W        W36940  23.721   8.284   1.832
75575W        W36941  28.998   4.832  10.992
75576W        W36942   8.343  38.071  12.824
75577W        W36943  44.335  30.070   0.361
75578W        W36944  43.833  26.569  10.489
75579W        W36945  19.723  27.162  12.841
75580W        W36946   8.888   4.436  14.358
75581W        W36947  44.469  42.995  10.091
75582W        W36948   4.205  35.035  14.275
75583W        W36949  33.006  41.397  12.397
75584W        W36950  37.057  34.422  10.930
75585W        W36951  30.909   5.692   1.705
75586W        W36952  20.716  16.200   2.362
75587W        W36953  16.127  23.565  10.465
75588W        W36954  37.910  23.239  13.824
75589W        W36955  22.146  31.024  13.447
75590W        W36956  11.853  12.213   2.288
75591W        W36957  19.202  11.335  11.891
75592W        W36958  43.995   9.291   0.382
75593W        W36959   0.831   7.227   5.257
75594W        W36960  21.702   6.407   2.840
75595W        W36961  10.878  12.164   0.384
75596W        W36962  16.131  39.437   1.369
75597W        W36963  36.052  19.184   0.756
75598W        W36964  10.636   0.919   3.777
75599W        W36965  21.731  36.919  11.049
75600W        W36966   8.338  15.122  10.561
75601W        W36967   7.673  38.862   2.792
75602W        W36968  24.615  15.162  14.837
75603W        W36969  35.550  38.935  12.073
75604W        W36970  28.088  27.493  12.460
75605W        W36971  41.387  10.748   1.717
75606W        W36972  16.136  30.005  14.494
75607W        W36973  26.638  31.615   0.774
75608W        W36974  17.683  19.582   4.306
75609W        W36975  14.595   8.795   4.249
75610W        W36976  17.714  21.635  13.038
75611W        W36977  22.702  21.042   0.913
75612W        W36978  24.209   3.427   0.916
75613W        W36979  11.191  25.969   4.304
75614W        W36980  27.148  14.631  13.803
75615W        W36981   2.416  18.094   0.317
75616W        W36982  27.517  33.031   2.194
75617W        W36983  40.372  21.042   4.249
75618W        W36984  36.909  24.119   2.750
75619W        W36985   8.710  21.726  12.451
75620W        W36986  19.578  42.959  10.554
75621W        W36987   7.323   9.644  10.492
75622W        W36988   2.386   1.254  14.786
75623W        W36989  20.757  39.001   1.409
75624W        W36990  38.047   9.236  13.325
75625W        W36991  42.378  39.850   4.638
75626W        W36992  36.565  39.839  13.963
75627W        W36993  43.786  11.207  14.985
75628W        W36994  27.642   6.872  14.508
75629W        W36995   9.716  11.669  11.072
75630W        W36996  32.013   6.760   0.265
75631W        W36997   3.254  36.056   3.169
75632W        W36998  22.524  10.790  10.571
75633W        W36999   9.325  22.161   3.148
75634W        W37000  30.656   2.827   4.221
75635W        W37001  32.072  39.465  14.840
75636W        W37002  33.880  25.032   4.721
75637W        W37003  42.934  24.645  14.840
75638W        W37004  40.939  17.242   1.432
75639W        W37005  41.786  32.941  11.526
75640W        W37006  40.434  32.064  10.523
75641W        W37007  25.121  11.128  12.383
75642W        W37008  11.626   9.764   1.272
75643W        W37009  28.996  23.986  11.472
75644W        W37010  43.863  24.125   2.873
75645W        W37011  42.400  40.462  14.997
75646W        W37012   2.466   6.400   1.694
75647W        W37013  29.997  21.060  14.938
75648W        W37014  11.666   1.945   4.726
75649W        W37015  11.269  25.674  13.521
75650W        W37016  25.128  29.050  10.539
75651W        W37017  20.130   0.354   2.331
75652W        W37018  32.404  22.144  11.898
75653W        W37019  30.118  17.286   1.708
75654W        W37020  31.098  14.338  12.937
75655W        W37021  41.895  28.592  11.062
75656W        W37022   6.211   6.823   4.217
75657W        W37023  39.060  17.776  11.957
75658W        W37024   0.429  16.798   0.472
75659W        W37025  33.477  15.688  13.020
75660W        W37026  21.188   6.764  12.376
75661W        W37027  24.556  29.125   4.637
75662W        W37028  16.133  43.351   3.682
75663W        W37029  35.583  39.885  13.430
75664W        W37030  28.130  43.365   4.282
75665W        W37031  41.905  16.248  13.388
75666W        W37032  32.448  21.618  10.533
75667W        W37033  25.594  38.462   4.336
75668W        W37034  14.643  44.907  12.571
75669W        W37035  21.578  40.378   1.713
75670W        W37036  21.025  40.469  12.398
75671W        W37037  12.234  44.358   3.195
75672W        W37038  31.022   3.251   5.113
75673W        W37039  39.417  36.546  14.457
75674W        W37040  38.329  29.942   0.259
75675W        W37041  33.442  29.467   3.732
75676W        W37042  14.110   6.917  10.496
75677W        W37043  24.638   4.314  10.977
75678W        W37044  11.727   7.309  14.796
75679W        W37045  19.772  28.979   3.375
75680W        W37046  41.951  32.575  14.499
75681W        W37047  43.438  23.517   4.199
75682W        W37048  20.061   3.371  12.525
75683W        W37049  36.501  40.442   1.349
75684W        W37050  24.553   4.712   1.908
75685W        W37051   3.816  38.527  11.557
75686W        W37052  19.645   7.881   3.299
75687W        W37053  12.302  24.618  11.964
75688W        W37054  38.028  34.090  14.367
75689W        W37055  26.635  30.488  11.561
75690W        W37056  20.567  41.404  14.795
75691W        W37057  41.975  37.427  14.880
75692W        W37058  24.225   4.818  12.830
75693W        W37059   6.274  18.209  12.578
75694W        W37060  14.715  36.843   4.222
75695W        W37061   3.921  21.117  11.893
75696W        W37062  38.330  34.944   1.870
75697W        W37063  15.318  25.639   3.314
75698W        W37064   7.855  11.223  10.520
75699W        W37065  32.517  13.195  14.428
75700W        W37066  24.149   6.868   4.641
75701W        W37067  44.003   9.323  10.944
75702W        W37068  10.831  32.944   1.225
75703W        W37069  39.441  27.081  13.982
75704W        W37070  29.574  15.759   5.104
75705W        W37071  26.044  33.954   4.816
75706W        W37072  16.083   8.359  11.017
75707W        W37073  39.865  15.657   3.767
75708W        W37074   8.383  16.296   3.355
75709W        W37075  36.939  20.195   1.745
75710W        W37076  34.405  29.933  13.434
75711W        W37077  39.539  24.517  13.051
75712W        W37078   6.772  19.722  14.865
75713W        W37079   7.280  38.437   1.400
75714W        W37080  31.485  15.694  14.346
75715W        W37081  43.442  30.029  10.901
75716W        W37082  39.849  15.612   1.283
75717W        W37083  44.010  18.572   3.783
75718W        W37084  39.005  16.134  10.418
75719W        W37085  40.039  30.654   0.759
75720W        W37086  19.547  25.553  13.842
75721W        W37087  38.466  39.870   0.949
75722W        W37088  36.098  34.949   2.832
75723W        W37089  25.204  20.034  12.886
75724W        W37090  12.841  12.661   2.337
75725W        W37091  44.450   6.846  12.880
75726W        W37092   3.303  30.072   2.333
75727W        W37093  44.895  29.574  10.918
75728W        W37094  38.565  26.536  10.987
75729W        W37095  43.896   0.261   1.804
75730W        W37096  37.830  40.049   9.971
75731W        W37097  35.055  41.950   3.683
75732W        W37098  43.772   1.761  14.764
75733W        W37099   7.724  19.554  10.931
75734W        W37100  31.487  38.561  10.572
75735W        W37101  23.721  14.237   0.882
75736W        W37102  29.633   1.878  13.414
75737W        W37103  41.345  21.553   1.234
75738W        W37104  16.646   3.322   1.727
75739W        W37105  31.575  17.783  11.925
75740W        W37106  21.617   4.305   2.721
75741W        W37107  37.883  17.289   3.329
75742W        W37108  39.412   0.285   1.788
75743W        W37109  24.695  18.147  14.958
75744W        W37110  10.840  20.731   3.320
75745W        W37111  12.344  10.265  13.325
75746W        W37112  11.694   2.466  13.851
75747W        W37113  29.922   5.437  13.949
75748W        W37114   2.779   7.385   3.369
75749W        W37115  38.960  17.663   0.297
75750W        W37116  21.521  38.413   4.292
75751W        W37117  28.094   9.231  12.929
75752W        W37118  37.523  29.029   2.230
75753W        W37119  23.988  42.493   4.824
75754W        W37120  25.626   1.393   1.884
75755W        W37121  39.854  29.997  12.899
75756W        W37122  39.477  14.231   3.766
75757W        W37123   3.712  29.621  13.023
75758W        W37124  12.236  36.375  13.907
75759W        W37125   4.898  12.245  14.904
75760W        W37126   1.308  15.796  13.470
75761W        W37127  39.332   6.233  12.922
75762W        W37128  12.728  12.324   0.322
75763W        W37129  22.251   4.383   5.777
75764W        W37130   2.920  16.798   1.364
75765W        W37131  25.669  41.946   3.700
75766W        W37132  44.352  26.103  11.001
75767W        W37133   5.425  33.128  12.456
75768W        W37134  34.931  34.929  12.447
75769W        W37135  44.284  44.438  11.118
75770W        W37136   1.446  16.226  11.523
75771W        W37137  40.512   5.810  10.964
75772W        W37138  29.987  26.509   4.172
75773W        W37139  40.479  29.083   3.650
75774W        W37140   2.742  40.872   4.718
75775W        W37141  34.993  23.100   1.852
75776W        W37142   8.736   4.396  10.899
75777W        W37143  36.069  39.864  14.453
75778W        W37144   6.183  39.042  10.513
75779W        W37145  20.199  17.680   1.248
75780W        W37146  13.669   9.332   2.377
75781W        W37147  41.299   6.223  14.911
75782W        W37148  33.002  31.631   1.300
75783W        W37149  33.480  33.413   1.212
75784W        W37150  42.341  14.260   0.470
75785W        W37151  42.363  31.012  14.434
75786W        W37152   6.389  31.937  10.430
75787W        W37153  25.510   0.480  11.913
75788W        W37154  35.510  31.980  14.425
75789W        W37155  17.203  29.142  12.481
75790W        W37156  22.077  17.116  12.469
75791W        W37157  38.392  23.115   2.811
75792W        W37158  43.416   3.827  13.875
75793W        W37159  33.098  30.011  12.578
75794W        W37160  32.480  19.613  11.119
75795W        W37161  10.248  43.430   2.357
75796W        W37162  26.978   4.396   3.353
75797W        W37163  15.698  13.742  13.052
75798W        W37164  40.443   3.869   0.815
75799W        W37165  26.188   3.326   2.216
75800W        W37166  32.096  12.222  14.032
75801W        W37167  42.394  32.455  12.881
75802W        W37168   6.778   4.343  12.418
75803W        W37169  28.517  34.490   3.276
75804W        W37170  30.483  22.505  12.533
75805W        W37171   2.834   6.260   0.465
75806W        W37172  30.647   6.382   1.405
75807W        W37173  21.049  19.595   3.825
75808W        W37174   8.207  38.379   0.260
75809W        W37175  36.914  24.599   3.671
75810W        W37176   4.767  29.951   1.818
75811W        W37177   8.888  14.111  14.316
75812W        W37178  23.512  33.939   0.423
75813W        W37179   9.212   2.454   4.354
75814W        W37180  37.083  27.593   2.665
75815W        W37181   5.198  30.058  13.475
75816W        W37182  44.919  15.286   4.677
75817W        W37183  24.189  11.812   2.226
75818W        W37184   0.286  18.625  13.953
75819W        W37185  44.882  33.396  11.914
75820W        W37186  33.056  42.897   1.390
75821W        W37187  29.945  41.378  14.298
75822W        W37188  44.329  15.815  12.940
75823W        W37189  24.133  31.427   4.306
75824W        W37190  44.470   4.915   4.339
75825W        W37191   3.308  35.578  13.823
75826W        W37192   1.895  38.833   2.890
75827W        W37193   3.762   6.791  11.904
75828W        W37194  31.136  30.637   2.688
75829W        W37195  17.205  13.235  13.806
75830W        W37196   8.788  32.986   3.784
75831W        W37197   5.865   0.417  11.870
75832W        W37198  16.138  22.161  12.926
75833W        W37199   3.891  40.509  12.022
75834W        W37200  26.034  36.351   3.209
75835W        W37201  12.731   2.766   1.419
75836W        W37202  39.376   2.290  12.855
75837W        W37203  16.177  29.550  11.117
75838W        W37204  35.056  31.010   2.298
75839W        W37205  27.051  13.689  11.856
75840W        W37206  37.489  18.600   1.345
75841W        W37207  17.719  41.851  12.375
75842W        W37208  33.087  38.377  12.075
75843W        W37209  26.092  28.139  12.555
75844W        W37210  23.594  26.590   0.469
75845W        W37211  34.958  35.047  14.461
75846W        W37212   9.871  12.708   3.650
75847W        W37213  44.799  29.609  12.040
75848W        W37214  23.551   9.384  12.370
75849W        W37215   1.454  14.139  11.529
75850W        W37216  14.817  29.437   4.157
75851W        W37217  13.350  44.474  12.472
75852W        W37218   6.237   9.391   2.684
75853W        W37219  16.682  41.537  13.513
75854W        W37220   7.770  38.473  14.384
75855W        W37221  21.220  13.145  12.079
75856W        W37222  28.935  37.082  11.033
75857W        W37223  36.005   5.840  13.509
75858W        W37224  36.017  17.783   0.472
75859W        W37225   3.917   8.711   5.222
75860W        W37226  18.583  22.680   4.722
75861W        W37227  16.136  33.902   0.945
75862W        W37228   8.163   9.340   3.857
75863W        W37229  30.065  17.304  12.434
75864W        W37230  22.539  24.666  11.920
75865W        W37231  13.602  32.399   2.799
75866W        W37232  44.301  38.869   3.749
75867W        W37233  27.092  14.833  11.411
75868W        W37234  19.270   0.481  13.794
75869W        W37235  12.198  23.682  14.853
75870W        W37236   6.213  16.789  13.011
75871W        W37237  44.946  30.926   5.101
75872W        W37238  17.302  21.527   4.650
75873W        W37239  23.505  28.121  11.577
75874W        W37240   0.310  22.119  14.417
75875W        W37241   8.276  14.622   0.367
75876W        W37242  28.488  29.071   4.275
75877W        W37243  18.154  11.254  13.005
75878W        W37244  34.539   1.276   1.800
75879W        W37245  32.486  26.094  13.951
75880W        W37246   4.882  20.085  12.836
75881W        W37247  24.570  30.062  10.432
75882W        W37248  24.070   5.821  10.928
75883W        W37249  24.711  16.126   0.312
75884W        W37250  25.101  23.613   4.760
75885W        W37251  27.545  22.599  12.879
75886W        W37252  16.275  25.078   3.686
75887W        W37253  12.692  16.311   9.589
75888W        W37254  30.107  25.964   2.762
75889W        W37255  18.633  42.440  12.993
75890W        W37256   2.877  28.537  10.586
75891W        W37257  34.891  41.976   1.317
75892W        W37258   4.732  42.924   0.841
75893W        W37259   3.885  17.216  14.924
75894W        W37260  35.504  29.065   2.875
75895W        W37261  32.954  10.779  11.126
75896W        W37262  44.874   6.289   0.953
75897W        W37263   3.359  30.635   4.198
75898W        W37264  17.592  13.612   1.286
75899W        W37265  11.204  18.660   3.700
75900W        W37266  29.436  32.600  10.451
75901W        W37267  15.660   8.175   4.830
75902W        W37268  35.089  44.953   2.410
75903W        W37269   7.704  43.906   0.850
75904W        W37270  27.589  14.800  13.456
75905W        W37271  10.362  39.400  11.520
75906W        W37272  13.839   4.414   0.361
75907W        W37273  40.323   6.261   3.216
75908W        W37274  24.993  28.183   3.739
75909W        W37275  39.467  34.098   1.443
75910W        W37276  20.598  35.564  12.435
75911W        W37277   6.216  37.907  13.517
75912W        W37278   5.776  22.730   0.253
75913W        W37279  40.960   6.195   0.732
75914W        W37280   9.866  40.349  11.109
75915W        W37281  44.889   4.780   0.887
75916W        W37282  30.434  40.524   3.757
75917W        W37283  41.364  38.920   4.776
75918W        W37284  39.466  42.390  12.059
75919W        W37285  15.156  44.416  12.377
75920W        W37286   1.281  24.571  12.562
75921W        W37287  37.448  16.200  10.892
75922W        W37288  38.854  28.439  14.304
75923W        W37289  16.223  20.143   2.241
75924W        W37290  37.466  11.360   0.328
75925W        W37291   8.873  18.714  10.495
75926W        W37292   7.812  28.436  12.032
75927W        W37293  41.421  34.393   4.661
75928W        W37294   7.807  25.087  13.796
75929W        W37295  22.518  14.771   3.153
75930W        W37296  38.872  11.721  11.015
75931W        W37297  36.388  29.489  12.558
75932W        W37298  18.076  18.069  12.913
75933W        W37299  39.950  21.160   0.331
75934W        W37300  42.370  30.999  11.112
75935W        W37301  10.232   3.283  13.461
75936W        W37302   4.309  31.082   2.770
75937W        W37303  14.250  20.236  13.478
75938W        W37304  22.044  23.130   2.347
75939W        W37305  13.140  12.811   2.209
75940W        W37306  39.910  20.702   0.440
75941W        W37307  26.136  39.945   4.278
75942W        W37308   9.705  34.937  14.483
75943W        W37309  13.603  44.784  13.370
75944W        W37310  43.811  19.271   0.906
75945W        W37311   3.397  30.944  14.347
75946W        W37312  18.283  41.031  12.951
75947W        W37313  43.789  13.622   3.270
75948W        W37314  20.528   5.854  13.371
75949W        W37315  38.866   2.946  11.065
75950W        W37316  12.637  36.466   4.122
75951W        W37317  16.706  38.509  14.993
75952W        W37318  26.019  36.895  12.430
75953W        W37319  43.906   4.725  10.571
75954W        W37320  19.616  38.510   0.889
75955W        W37321  15.797  41.358   2.258
75956W        W37322  42.919  13.821   3.644
75957W        W37323  10.814   2.244  11.064
75958W        W37324   7.231  43.933   1.869
75959W        W37325  30.974   6.766   4.730
75960W        W37326  37.472  18.745   4.799
75961W        W37327  13.329   0.307  13.445
75962W        W37328   1.762  23.683   2.195
75963W        W37329  43.303  12.690   0.929
75964W        W37330  17.649  38.951   2.721
75965W        W37331  21.263  10.752  11.577
75966W        W37332  33.037  32.447   2.700
75967W        W37333   1.343  20.672  13.472
75968W        W37334  40.521   3.823   1.780
75969W        W37335  13.636  32.025   5.764
75970W        W37336   9.275  40.870  13.885
75971W        W37337  43.309  11.315   3.715
75972W        W37338  40.881  11.323   0.803
75973W        W37339  27.030   4.709  13.965
75974W        W37340   7.876  15.177  14.323
75975W        W37341  44.956  30.935   2.255
75976W        W37342   6.312  11.328  11.510
75977W        W37343  27.185  43.017   3.373
75978W        W37344  13.756  16.739  14.317
75979W        W37345   3.448  39.342  13.901
75980W        W37346  15.819  37.450   0.301
75981W        W37347   2.262  40.430  13.351
75982W        W37348  39.038  40.333   4.709
75983W        W37349  19.103   9.831  13.892
75984W        W37350  31.477  11.143   3.327
75985W        W37351   2.470  12.838  12.995
75986W        W37352  15.281  39.962   1.317
75987W        W37353  30.983  39.986  11.022
75988W        W37354  25.140  22.738  13.793
75989W        W37355  16.639  35.488   2.302
75990W        W37356  20.259  22.606   3.177
75991W        W37357  39.996  37.476   2.788
75992W        W37358  16.672  16.254   3.827
75993W        W37359  44.419   5.879  14.384
75994W        W37360  42.993  33.106   3.869
75995W        W37361  43.483  39.524  14.431
75996W        W37362  23.496  34.898  12.521
75997W        W37363   3.273  41.954   2.695
75998W        W37364   7.384  26.701   0.828
75999W        W37365  36.970  33.576  12.896
76000W        W37366  33.046  14.120  12.886
76001W        W37367  11.690  21.647  13.525
76002W        W37368  20.113  39.035   2.804
76003W        W37369  41.410   5.745   2.698
76004W        W37370  23.149  40.505  13.947
76005W        W37371  33.610  20.706  10.094
76006W        W37372  20.584  33.569   0.960
76007W        W37373   5.287   2.924   5.628
76008W        W37374  27.589  30.964   4.166
76009W        W37375  27.149   9.789   1.696
76010W        W37376  14.598  19.112   4.125
76011W        W37377  23.729  44.467   3.302
76012W        W37378  25.580  16.164   0.757
76013W        W37379  40.990  33.972  10.909
76014W        W37380  14.222   4.296  12.473
76015W        W37381  41.497   7.876  10.621
76016W        W37382  41.027  40.908   1.836
76017W        W37383  36.881  40.835   3.172
76018W        W37384  28.139  27.131  11.882
76019W        W37385  32.066   2.230   3.789
76020W        W37386   1.906   8.333   1.255
76021W        W37387   3.412   7.410   1.915
76022W        W37388  32.919   2.930   1.721
76023W        W37389  36.429  43.421   0.875
76024W        W37390   6.359  34.928  10.537
76025W        W37391  11.145  32.015  11.541
76026W        W37392  26.643  35.408  10.989
76027W        W37393  31.553  43.988   4.635
76028W        W37394  38.378  33.876   4.613
76029W        W37395  31.562  28.172  14.283
76030W        W37396   3.242  16.081   3.185
76031W        W37397  30.517  30.512  10.533
76032W        W37398  38.958  15.223   3.231
76033W        W37399  38.563  33.985   1.778
76034W        W37400   4.736  10.191   3.696
76035W        W37401   0.965  25.084   2.839
76036W        W37402  19.253  36.424  10.907
76037W        W37403  21.141  36.373  11.934
76038W        W37404   3.281  31.077   3.693
76039W        W37405   8.321  44.950   1.282
76040W        W37406   5.901  43.432   2.889
76041W        W37407  28.167  31.938  14.501
76042W        W37408  44.825  32.462   4.616
76043W        W37409  24.605  11.191  11.084
76044W        W37410  18.623  26.556   4.165
76045W        W37411   6.819   9.322   4.652
76046W        W37412   7.691  32.131  13.003
76047W        W37413  33.587   1.876   1.822
76048W        W37414   3.286  19.108   4.616
76049W        W37415  35.546  21.100  11.062
76050W        W37416  40.966   8.402   2.825
76051W        W37417  30.518  43.354  10.636
76052W        W37418   1.448   2.366   2.899
76053W        W37419   0.853  37.494   0.480
76054W        W37420  34.082   8.703  11.861
76055W        W37421  35.426   4.916   2.388
76056W        W37422  18.062  30.518   1.900
76057W        W37423  20.271   7.854   4.314
76058W        W37424  14.338   7.905  11.985
76059W        W37425  25.112  24.992  14.381
76060W        W37426  25.517  29.554  12.407
76061W        W37427  29.114  10.146  13.978
76062W        W37428   9.255   1.299   0.319
76063W        W37429  20.671  44.365   0.288
76064W        W37430   6.676  43.348   0.443
76065W        W37431  19.778  38.879   3.848
76066W        W37432  44.010  20.138  11.997
76067W        W37433  16.078  16.207  12.344
76068W        W37434  35.039  13.344   4.261
76069W        W37435  33.022  10.309   0.388
76070W        W37436   9.329  27.196   1.416
76071W        W37437  25.668   5.434   3.801
76072W        W37438  41.390  23.525   4.307
76073W        W37439  20.739  36.079  14.975
76074W        W37440  34.988  18.571  14.464
76075W        W37441  19.588  33.426   1.771
76076W        W37442  14.606  14.657   1.932
76077W        W37443   0.282   4.824  13.956
76078W        W37444  43.285  41.921   2.723
76079W        W37445  36.470  15.619   3.213
76080W        W37446  16.628  23.216  14.808
76081W        W37447  16.283  25.070  14.334
76082W        W37448  10.139  11.717   1.431
76083W        W37449  26.655  42.496  13.419
76084W        W37450   6.910  28.155  13.850
76085W        W37451   0.429  23.117  12.403
76086W        W37452  16.241  19.122   0.379
76087W        W37453  28.093   1.971   2.357
76088W        W37454  15.324  20.191   1.282
76089W        W37455  34.376  16.179   1.212
76090W        W37456  14.149  16.618   1.870
76091W        W37457   0.476  31.448  14.936
76092W        W37458  24.490  17.211   1.331
76093W        W37459  17.111  44.362   0.462
76094W        W37460  11.161  36.040   2.664
76095W        W37461  27.140  41.811   1.295
76096W        W37462  42.521  14.173  14.819
76097W        W37463  18.148  15.821   5.302
76098W        W37464  22.692  10.774  13.517
76099W        W37465   4.808  21.035  13.914
76100W        W37466  39.461  24.532   4.809
76101W        W37467   1.483   5.428   2.688
76102W        W37468  27.629  16.132   4.208
76103W        W37469  10.641   8.745  11.873
76104W        W37470   6.297  13.155  14.426
76105W        W37471  20.543  12.650   1.916
76106W        W37472  36.845  22.120  11.582
76107W        W37473  11.346  19.571  11.604
76108W        W37474  40.843  32.946  14.986
76109W        W37475   0.360  42.285  14.367
76110W        W37476  27.166  38.521   1.392
76111W        W37477   0.364  19.229   3.209
76112W        W37478  24.518  40.434  14.967
76113W        W37479  20.273  25.027   0.742
76114W        W37480  22.042   2.757   0.380
76115W        W37481   6.394  26.063  11.482
76116W        W37482  12.828   6.853  10.618
76117W        W37483  20.609   4.271  11.920
76118W        W37484  31.111  33.128  13.947
76119W        W37485  35.597  25.085   3.198
76120W        W37486  36.445  11.747   0.730
76121W        W37487  25.172  24.549   4.709
76122W        W37488  20.034  27.625   2.237
76123W        W37489  40.464  35.483  12.899
76124W        W37490  20.756  38.345  13.485
76125W        W37491  35.034   0.376  13.507
76126W        W37492  37.049   1.897  13.494
76127W        W37493  17.672  40.361   1.406
76128W        W37494  14.809  39.422  12.501
76129W        W37495   3.725  41.516   4.775
76130W        W37496  22.235  12.845   0.422
76131W        W37497   2.407   7.292   4.141
76132W        W37498  28.552   4.884  11.606
76133W        W37499  30.989  30.930  13.950
76134W        W37500  11.321  39.372  12.352
76135W        W37501  17.282  44.421  13.043
76136W        W37502  14.828  33.621   0.852
76137W        W37503   7.348  26.208   0.850
76138W        W37504  33.997  38.562  13.860
76139W        W37505  44.493  18.613  10.949
76140W        W37506  33.489  35.403  10.944
76141W        W37507  29.617  41.330   1.702
76142W        W37508  35.033  34.559   2.737
76143W        W37509   4.908  33.527  10.979
76144W        W37510  36.061  44.433   0.762
76145W        W37511  44.282   5.343  10.048
76146W        W37512  21.630  24.553  14.786
76147W        W37513  30.975  13.335   3.632
76148W        W37514  33.550  32.039  12.487
76149W        W37515  39.380  15.084  13.792
76150W        W37516  44.824  38.520   3.706
76151W        W37517  20.191  16.156   2.882
76152W        W37518  21.641  43.278  12.468
76153W        W37519  36.889  25.508   4.809
76154W        W37520  40.041  30.030   2.731
76155W        W37521  20.736  25.209  13.956
76156W        W37522   2.415  24.648  10.513
76157W        W37523  18.129  42.424   0.425
76158W        W37524  38.829  21.028   2.410
76159W        W37525  15.763  44.897  14.838
76160W        W37526  23.688  13.272   1.373
76161W        W37527  20.259  12.333   4.292
76162W        W37528   5.801  28.064  10.953
76163W        W37529  44.974  29.145  13.941
76164W        W37530  22.068  11.180  10.567
76165W        W37531  13.118  31.410  11.888
76166W        W37532  20.606  16.197   2.819
76167W        W37533  32.453   1.305  11.554
76168W        W37534   7.339   4.257   2.877
76169W        W37535  38.857   8.199  12.542
76170W        W37536  24.044  14.271  10.895
76171W        W37537  15.697  18.225  10.964
76172W        W37538   6.182  33.057  11.545
76173W        W37539  30.107  37.852   2.324
76174W        W37540   8.273   6.725  10.982
76175W        W37541  20.628   1.448   0.448
76176W        W37542  17.682   3.280   3.265
76177W        W37543  36.454  40.887   0.767
76178W        W37544   8.169  15.663  10.564
76179W        W37545   3.717  17.302  12.921
76180W        W37546  31.939  15.108  11.065
76181W        W37547  44.809  32.132  11.113
76182W        W37548  34.066  38.054  10.063
76183W        W37549  11.662  30.992  12.575
76184W        W37550  25.181  17.576  14.512
76185W        W37551  13.290   3.878  13.047
76186W        W37552  14.719  19.614  11.864
76187W        W37553  41.481  30.553   0.389
76188W        W37554  40.533   2.442   1.927
76189W        W37555  14.103  13.112  13.309
76190W        W37556  15.593  15.154   1.701
76191W        W37557  30.524  34.588  12.548
76192W        W37558  38.067  10.735   4.348
76193W        W37559  34.495  21.091  13.531
76194W        W37560  23.080  32.124   4.758
76195W        W37561  41.901  19.227   0.739
76196W        W37562   9.776  38.446  11.900
76197W        W37563   0.292  16.749   4.645
76198W        W37564  25.983  22.103   4.728
76199W        W37565  41.031  31.957   4.606
76200W        W37566  39.461  11.634  11.043
76201W        W37567   8.328   7.779  12.446
76202W        W37568  40.518   3.247   4.134
76203W        W37569  42.796   0.987   3.168
76204W        W37570  24.668  29.613  14.359
76205W        W37571   4.842  36.937   0.293
76206W        W37572  19.697   8.384   3.746
76207W        W37573  20.151  13.291  14.411
76208W        W37574  22.631  32.085  13.797
76209W        W37575  23.513  35.368  11.071
76210W        W37576  14.623  43.997   0.930
76211W        W37577  32.518  14.769  14.476
76212W        W37578  10.831   3.234   4.806
76213W        W37579   7.320   8.278  13.530
76214W        W37580  23.029   9.865  13.498
76215W        W37581   7.184  30.445   0.829
76216W        W37582  32.552  31.496   0.882
76217W        W37583   8.369  42.908  11.497
76218W        W37584  30.035  34.405   1.326
76219W        W37585  25.973  38.849  14.369
76220W        W37586  25.025  10.353  11.525
76221W        W37587  34.474  44.308   4.725
76222W        W37588  26.658  44.861   0.823
76223W        W37589   8.305  36.044  12.574
76224W        W37590  15.174  19.652   4.232
76225W        W37591  40.390  10.360   4.729
76226W        W37592   9.250  37.473   2.361
76227W        W37593  13.248  41.023   3.310
76228W        W37594  14.756   1.844   0.754
76229W        W37595  35.522  34.556   4.221
76230W        W37596  40.800   6.299  14.498
76231W        W37597  38.927  44.786  12.464
76232W        W37598  35.556   9.889  14.388
76233W        W37599   7.339  44.262   1.292
76234W        W37600  22.028  13.801  14.971
76235W        W37601  10.341  11.341   0.801
76236W        W37602  20.530  27.166   0.416
76237W        W37603  18.618   8.782   1.855
76238W        W37604  36.014  28.457  13.896
76239W        W37605  30.531   4.345   3.260
76240W        W37606  33.901   9.310  13.063
76241W        W37607  42.336  41.022   1.344
76242W        W37608  18.131   1.352  11.371
76243W        W37609   7.206  21.696  14.835
76244W        W37610  16.286  43.832   4.187
76245W        W37611  14.222  35.524  11.046
76246W        W37612  13.330  19.678  10.933
76247W        W37613  15.121  43.844   2.667
76248W        W37614  33.622  16.283   1.372
76249W        W37615  18.777   7.283   1.726
76250W        W37616  22.624  12.347   3.255
76251W        W37617   4.289  30.608  12.550
76252W        W37618  36.392  37.500   3.372
76253W        W37619   2.346   4.703  10.430
76254W        W37620  35.997  36.424  13.929
76255W        W37621  34.086   9.355   3.276
76256W        W37622  24.660   8.317  11.024
76257W        W37623   8.162  18.674   3.694
76258W        W37624  42.376   8.731   0.869
76259W        W37625  21.535  37.519   3.235
76260W        W37626  14.310  15.128   3.868
76261W        W37627  28.070  10.142   4.648
76262W        W37628  36.850  29.543   3.800
76263W        W37629   1.423  10.330   3.648
76264W        W37630  21.120  23.534   0.858
76265W        W37631  15.271  44.925   1.212
76266W        W37632  43.336   8.336  12.519
76267W        W37633  42.899   4.899   0.792
76268W        W37634  16.596   0.938  14.462
76269W        W37635  11.350  11.325   3.363
76270W        W37636  34.437   6.345   3.314
76271W        W37637  11.675  41.893   3.824
76272W        W37638  32.054   5.795   2.832
76273W        W37639  28.063  13.670  14.388
76274W        W37640  22.014  20.626  10.553
76275W        W37641  12.225  41.520  13.415
76276W        W37642  28.157  16.141  14.438
76277W        W37643  34.610  39.407  12.921
76278W        W37644  35.577  16.228  14.785
76279W        W37645   1.912  44.435   3.745
76280W        W37646  12.322  28.975   3.721
76281W        W37647  20.253   0.758   4.788
76282W        W37648  27.066  21.688  11.093
76283W        W37649  37.564  38.470   1.240
76284W        W37650  34.025  28.979  13.793
76285W        W37651  25.536  35.967   3.774
76286W        W37652  20.030  38.033   0.374
76287W        W37653   8.390  26.050  10.917
76288W        W37654  30.659  30.064   0.478
76289W        W37655  12.698  10.654  12.868
76290W        W37656  44.273   8.763  10.001
76291W        W37657  11.165   2.389   0.854
76292W        W37658   5.841  12.260   0.963
76293W        W37659  36.371   9.186  13.922
76294W        W37660  20.553  20.627  14.410
76295W        W37661  33.615  23.544   1.441
76296W        W37662  17.664  22.214   4.332
76297W        W37663  34.954   3.293   2.893
76298W        W37664  10.227  26.457  12.510
76299W        W37665   7.332  42.525  11.019
76300W        W37666   0.485   8.836  12.409
76301W        W37667  40.372  19.607   0.925
76302W        W37668   4.256  19.654  11.943
76303W        W37669  25.531  31.910   2.814
76304W        W37670   7.223  33.047   1.320
76305W        W37671   0.939   9.175   4.742
76306W        W37672  39.343  39.388   4.703
76307W        W37673  40.886  19.765   4.819
76308W        W37674  32.402  31.467   3.255
76309W        W37675  35.905  26.607   3.833
76310W        W37676   9.889  36.569  12.018
76311W        W37677  12.172   8.671  10.935
76312W        W37678  35.472   0.867   3.174
76313W        W37679  21.723  32.582   4.163
76314W        W37680   2.926  28.144  14.977
76315W        W37681  21.024  19.164   0.330
76316W        W37682  13.184  19.696  13.308
76317W        W37683  40.833  12.665  13.495
76318W        W37684  29.660  15.685   1.824
76319W        W37685  16.627   3.318  11.591
76320W        W37686  34.879  29.170   1.435
76321W        W37687   5.362   1.922   4.178
76322W        W37688   0.778  36.938   2.785
76323W        W37689  41.426  30.128   2.757
76324W        W37690  30.509  14.792   2.263
76325W        W37691  26.524  25.581   2.755
76326W        W37692  25.144  27.481  13.526
76327W        W37693  13.160  34.369  10.917
76328W        W37694  33.039  36.518   1.342
76329W        W37695  21.700  33.887   1.774
76330W        W37696  33.110   5.723  11.530
76331W        W37697  25.583  12.301   0.379
76332W        W37698   8.718  21.256  14.440
76333W        W37699  41.924  27.552   0.257
76334W        W37700  19.656  30.007  11.881
76335W        W37701  23.174  25.083  12.579
76336W        W37702  26.087  30.158   3.867
76337W        W37703   9.229   5.863   9.971
76338W        W37704   8.353   2.875   0.948
76339W        W37705   1.806  13.791   2.337
76340W        W37706  38.571   7.303   1.738
76341W        W37707   1.428  14.253   3.191
76342W        W37708  21.059  27.586  10.941
76343W        W37709  38.057  24.630  11.125
76344W        W37710  35.900  26.064  11.554
76345W        W37711  36.974  19.136  13.797
76346W        W37712  23.560  32.557   4.294
76347W        W37713  30.949  44.363  12.823
76348W        W37714   5.433  43.872  10.624
76349W        W37715  40.983  35.531   1.229
76350W        W37716   6.716  22.060   1.326
76351W        W37717  24.170  34.913   1.906
76352W        W37718  15.306  16.089   2.826
76353W        W37719  26.467   0.415  10.906
76354W        W37720  27.571  21.092  10.927
76355W        W37721   4.823   1.757  11.389
76356W        W37722   9.242  11.859   3.243
76357W        W37723  43.393  41.370  10.925
76358W        W37724  24.684   6.860  13.447
76359W        W37725   6.392  39.850  12.494
76360W        W37726  44.811  13.161  10.926
76361W        W37727  44.866  28.527   3.245
76362W        W37728   4.393  10.739  12.017
76363W        W37729   1.911  23.498  11.876
76364W        W37730  32.073  29.066   0.414
76365W        W37731  11.652  30.002   3.802
76366W        W37732   7.260  35.873  13.822
76367W        W37733  27.606   8.677  14.341
76368W        W37734  18.273  42.006   1.336
76369W        W37735   5.374   5.796   3.269
76370W        W37736   0.326   0.319  12.514
76371W        W37737  20.122  21.213   0.798
76372W        W37738  21.024  29.151  11.605
76373W        W37739  13.237   4.933   1.395
76374W        W37740  42.437  27.948  11.489
76375W        W37741   0.476  16.624  12.395
76376W        W37742   4.918  20.262  12.400
76377W        W37743  39.410  13.286  12.542
76378W        W37744  14.736  20.206   0.802
76379W        W37745  44.314  18.601  11.981
76380W        W37746   5.276  32.605  12.426
76381W        W37747  13.762  38.355   4.299
76382W        W37748   8.781  24.521   1.816
76383W        W37749  15.328   4.249  12.034
76384W        W37750  31.643  26.599   1.280
76385W        W37751  15.703   9.268   1.776
76386W        W37752  38.053   7.269  14.394
76387W        W37753  44.862  18.282  11.577
76388W        W37754  38.884  12.280   1.409
76389W        W37755  23.582  28.981   5.158
76390W        W37756  19.621  21.197  14.406
76391W        W37757  40.002  28.987  14.439
76392W        W37758  26.572  12.735  11.887
76393W        W37759  36.518  19.063   1.290
76394W        W37760  30.000   5.349   4.643
76395W        W37761   2.929  24.082   0.304
76396W        W37762  39.364  19.160  12.440
76397W        W37763   9.165   1.426  11.936
76398W        W37764   8.776   9.152  13.339
76399W        W37765  41.416  30.130   1.884
76400W        W37766  15.800  27.197   3.761
76401W        W37767  26.626  28.592   3.798
76402W        W37768  19.242  13.200   2.722
76403W        W37769   0.383   7.288   3.806
76404W        W37770  41.352  40.832   3.267
76405W        W37771  23.607  11.158  13.889
76406W        W37772   2.887  38.867  11.106
76407W        W37773  22.074  12.755  14.364
76408W        W37774   6.750  20.168   3.692
76409W        W37775  27.102   0.263   1.229
76410W        W37776  31.992  19.198   1.439
76411W        W37777   6.786  37.428   2.689
76412W        W37778  12.258   4.859   3.339
76413W        W37779   3.286  17.176   3.347
76414W        W37780  24.973  19.195  12.400
76415W        W37781  35.531  43.996   3.860
76416W        W37782  12.697   4.238   3.850
76417W        W37783  37.857  27.997   3.230
76418W        W37784  26.119  35.497  12.969
76419W        W37785   1.964  36.096   4.687
76420W        W37786  26.984  14.142   3.652
76421W        W37787  24.228  20.731   0.426
76422W        W37788  17.131  29.957   3.842
76423W        W37789  28.965  22.135   3.295
76424W        W37790  15.666  43.283  11.904
76425W        W37791   7.800  10.716  14.320
76426W        W37792  28.147   0.280   0.449
76427W        W37793  26.125   2.812   2.405
76428W        W37794   3.872   8.790  10.574
76429W        W37795  16.725  34.441   4.831
76430W        W37796  13.134   2.858   2.829
76431W        W37797  22.740   1.973  12.531
76432W        W37798  43.001  11.253   2.881
76433W        W37799  42.492  20.029   4.827
76434W        W37800  39.877   7.327   4.236
76435W        W37801  32.120  32.446   4.608
76436W        W37802  21.700  22.515   4.203
76437W        W37803   8.362   4.239   5.769
76438W        W37804  39.453   6.316   0.269
76439W        W37805  19.534  18.120  12.028
76440W        W37806  24.075   3.309  12.362
76441W        W37807  23.154   8.390  13.856
76442W        W37808  36.487  21.716   1.911
76443W        W37809  32.591  35.872  12.828
76444W        W37810  16.747  19.093   1.780
76445W        W37811  44.355   5.386   0.407
76446W        W37812  44.788  43.926  11.969
76447W        W37813  14.692  44.286   1.309
76448W        W37814  21.660  29.653  13.532
76449W        W37815  42.963   4.823  12.942
76450W        W37816  23.570  30.163  13.530
76451W        W37817  29.525  38.570  13.495
76452W        W37818  39.369   8.306  11.862
76453W        W37819  20.185   7.276   2.692
76454W        W37820  21.727  36.997  10.597
76455W        W37821  16.611  22.586   1.788
76456W        W37822  31.009  43.477  12.563
76457W        W37823  39.500  40.420   4.247
76458W        W37824  23.693  15.171   4.285
76459W        W37825  32.051  35.530  12.838
76460W        W37826  44.909  13.818  14.943
76461W        W37827  23.208  31.931   1.240
76462W        W37828   0.943  28.655  13.919
76463W        W37829  23.692  44.354   1.345
76464W        W37830  34.557  25.210  10.583
76465W        W37831  24.077  29.953  11.019
76466W        W37832  32.994  28.096  13.352
76467W        W37833  23.006  28.588   0.431
76468W        W37834  33.390  18.733   0.741
76469W        W37835  35.878   6.414  13.006
76470W        W37836  25.188  42.494   0.747
76471W        W37837  40.799  13.764   0.346
76472W        W37838   9.884  21.729   4.800
76473W        W37839  38.973  15.693   4.773
76474W        W37840  29.040  13.111  12.531
76475W        W37841  41.343  17.097  14.909
76476W        W37842  41.505  14.311  13.316
76477W        W37843  33.458  23.198  13.900
76478W        W37844  14.798  43.963   1.329
76479W        W37845   1.482   1.309   1.729
76480W        W37846  35.105  26.532  14.848
76481W        W37847  27.172  34.879  11.004
76482W        W37848  15.273  21.243  13.511
76483W        W37849   8.196  14.166  10.569
76484W        W37850  33.933  27.096  12.443
76485W        W37851  32.091   1.336  13.008
76486W        W37852  21.578  31.940   2.891
76487W        W37853  15.700  22.520  12.012
76488W        W37854  44.304  12.121  13.909
76489W        W37855  33.906   0.347   1.927
76490W        W37856  44.892  38.016   3.272
76491W        W37857  17.626  41.937   4.346
76492W        W37858   5.395   1.446  13.983
76493W        W37859   2.923  43.963  11.906
76494W        W37860  11.689  25.090   3.283
76495W        W37861   3.954  42.790  12.353
76496W        W37862  35.089  18.073  11.449
76497W        W37863  42.971  44.462   2.354
76498W        W37864  28.103   6.914  12.996
76499W        W37865  11.140  16.795   3.646
76500W        W37866   3.792  18.122  12.849
76501W        W37867  13.260   9.297  10.561
76502W        W37868   5.304  22.054   4.836
76503W        W37869  18.704   4.428   4.723
76504W        W37870  44.924  25.970  11.540
76505W        W37871  11.725  14.749  10.611
76506W        W37872  26.029  15.253  10.983
76507W        W37873  34.911  23.216   4.165
76508W        W37874  32.934  25.990  12.402
76509W        W37875  24.015  42.886  11.958
76510W        W37876  20.171  31.476  10.508
76511W        W37877  19.700  19.151  13.466
76512W        W37878  36.929  29.017  14.824
76513W        W37879  29.582   9.679  11.450
76514W        W37880  26.524  37.988   0.958
76515W        W37881  19.594   5.308   0.254
76516W        W37882   2.941  14.095  12.422
76517W        W37883  29.492  34.014  14.282
76518W        W37884  14.241  26.995   1.830
76519W        W37885  12.169  30.639  12.426
76520W        W37886  42.824   4.885  11.491
76521W        W37887  22.565  37.852  10.039
76522W        W37888  37.918  36.026  13.320
76523W        W37889   0.894  14.171   0.483
76524W        W37890  39.468  21.610   0.896
76525W        W37891  23.711  38.932  13.944
76526W        W37892  12.124   0.744   0.746
76527W        W37893  10.667   8.160  13.483
76528W        W37894  12.156  19.167   1.272
76529W        W37895  23.156   2.371  13.986
76530W        W37896  34.430  33.953   3.264
76531W        W37897   5.268  37.509  12.942
76532W        W37898  43.837  23.236   4.338
76533W        W37899  10.700   3.235   2.728
76534W        W37900   6.790  27.084  13.962
76535W        W37901  43.505  22.110   0.410
76536W        W37902   7.195  16.314  13.027
76537W        W37903  17.697  19.678   2.684
76538W        W37904  36.369  27.130   1.700
76539W        W37905  16.612  38.057  14.492
76540W        W37906  16.777   2.905   1.846
76541W        W37907  24.700  44.960   1.877
76542W        W37908  29.094  10.724  12.530
76543W        W37909  36.853  10.712   0.459
76544W        W37910  41.019  30.559  12.921
76545W        W37911  22.168  35.408   3.385
76546W        W37912  13.743  16.708  13.957
76547W        W37913  13.764  12.739  10.990
76548W        W37914  28.048  14.335  15.000
76549W        W37915  20.658  10.249  14.799
76550W        W37916  33.105  24.504  11.579
76551W        W37917  19.726  44.331  10.440
76552W        W37918  44.389  26.651   5.266
76553W        W37919  25.025  12.175  13.960
76554W        W37920  44.478  34.901   4.676
76555W        W37921  12.278  38.994  10.609
76556W        W37922   3.232  18.695  11.015
76557W        W37923  23.682   0.341  10.469
76558W        W37924  14.178  39.373   4.287
76559W        W37925  14.637  27.521   1.223
76560W        W37926  20.209  25.669  10.527
76561W        W37927  23.218  30.957   4.805
76562W        W37928  16.090   7.858   1.771
76563W        W37929  22.191  24.032  13.018
76564W        W37930  21.744  38.536   2.303
76565W        W37931  35.426  15.214   1.889
76566W        W37932  38.455  31.637  14.965
76567W        W37933   1.875   9.776  10.410
76568W        W37934  36.392   2.755   3.307
76569W        W37935   4.369  15.173  10.541
76570W        W37936   9.854  15.674  13.002
76571W        W37937  15.813  11.843  13.356
76572W        W37938  35.983  29.512  11.524
76573W        W37939   9.867   0.769  11.094
76574W        W37940  42.419  38.518   1.829
76575W        W37941   6.313  44.835   0.286
76576W        W37942  39.486  22.189   2.881
76577W        W37943  16.101  31.109   0.428
76578W        W37944  11.757  37.039  13.804
76579W        W37945  30.081  29.463  10.959
76580W        W37946   2.241  22.007   1.796
76581W        W37947  27.155  11.732  13.999
76582W        W37948   6.825  24.483  11.040
76583W        W37949  16.786  19.144   4.771
76584W        W37950   9.647  25.690   4.628
76585W        W37951  13.802  27.175  14.282
76586W        W37952  17.237  33.950  11.072
76587W        W37953   7.895  16.127  12.936
76588W        W37954  35.992  44.943  13.525
76589W        W37955  34.863  10.329  10.477
76590W        W37956   4.396  29.146  14.320
76591W        W37957  17.202  30.038  13.542
76592W        W37958  34.385   5.435   0.730
76593W        W37959  41.297   0.887  13.496
76594W        W37960  39.938   4.743   2.241
76595W        W37961  19.113  43.384   1.419
76596W        W37962  42.338  16.144   2.726
76597W        W37963  14.199   5.835   1.896
76598W        W37964  10.235   1.483   2.827
76599W        W37965  41.505  36.401  11.947
76600W        W37966   3.805  41.925  10.601
76601W        W37967  22.224  36.903   5.122
76602W        W37968  20.643  18.252  11.095
76603W        W37969  17.581   7.367   0.809
76604W        W37970  21.241   9.224   3.254
76605W        W37971  38.034   3.257  14.761
76606W        W37972   0.769  42.011  11.435
76607W        W37973  24.602  36.380   3.202
76608W        W37974  13.216  16.232   4.174
76609W        W37975  41.338   1.919   0.838
76610W        W37976  26.080  24.519  13.501
76611W        W37977  22.076  32.566   4.174
76612W        W37978  34.864  14.322  14.957
76613W        W37979  38.821  19.702  12.393
76614W        W37980  34.414  15.713   0.296
76615W        W37981  40.960  37.045   4.756
76616W        W37982   9.717  19.073  14.972
76617W        W37983  33.028  34.076  14.795
76618W        W37984  31.001  17.196  14.832
76619W        W37985   1.406  30.557  11.495
76620W        W37986   8.692  36.449  13.057
76621W        W37987  17.227   2.355   4.203
76622W        W37988  15.633   8.215  11.093
76623W        W37989  19.643   2.388   1.344
76624W        W37990  25.134   0.473  13.436
76625W        W37991  29.001  36.965   2.274
76626W        W37992  37.995  17.750  12.960
76627W        W37993   2.936  39.517   4.744
76628W        W37994  37.993  17.794  14.467
76629W        W37995  43.844  43.904   1.770
76630W        W37996  14.594  11.643  10.587
76631W        W37997   0.315  10.299   4.614
76632W        W37998   6.687  15.661  13.519
76633W        W37999  26.539  25.088   5.128
76634W        W38000  30.945  33.580  11.478
76635W        W38001  23.134  27.562   0.261
76636W        W38002  31.970  25.155   0.830
76637W        W38003  39.433  44.909  12.909
76638W        W38004  18.712  30.935  12.570
76639W        W38005  25.581  31.099   2.223
76640W        W38006  36.930  30.160  14.348
76641W        W38007  17.796  43.998   1.869
76642W        W38008  10.179  17.292   2.307
76643W        W38009  38.498   9.298  13.899
76644W        W38010  14.769   4.251  12.447
76645W        W38011  11.728  38.883  14.945
76646W        W38012   5.205  44.322   1.346
76647W        W38013  39.003   3.226  11.394
76648W        W38014  39.839   2.316  12.096
76649W        W38015  17.236  32.535  12.033
76650W        W38016  11.694  23.098  13.930
76651W        W38017  26.126  33.876   3.728
76652W        W38018   6.707  42.781   2.223
76653W        W38019   6.339   1.396   1.238
76654W        W38020  37.500  22.659   1.855
76655W        W38021   0.493  41.521  14.951
76656W        W38022   6.801  21.598  14.361
76657W        W38023   8.239  17.140   3.748
76658W        W38024  21.250  10.710   3.184
76659W        W38025  38.570  18.717  13.941
76660W        W38026  17.297  33.080   3.196
76661W        W38027  43.778  12.782   0.443
76662W        W38028   3.333   2.825  13.521
76663W        W38029  41.476  20.614   1.336
76664W        W38030   7.372   9.175  13.397
76665W        W38031  38.832  36.041  12.072
76666W        W38032   5.871  30.471   3.173
76667W        W38033  33.107  38.936   1.759
76668W        W38034  28.522  41.403   0.304
76669W        W38035  22.209  10.716   0.836
76670W        W38036   1.286  38.845  14.407
76671W        W38037  20.705  42.333   2.363
76672W        W38038  16.790  39.524   2.782
76673W        W38039   5.266  17.099   1.905
76674W        W38040  20.185  11.867   2.665
76675W        W38041  23.984  28.037   1.781
76676W        W38042  18.128   3.869  14.019
76677W        W38043   7.239  42.500  11.464
76678W        W38044  39.336  19.573   2.815
76679W        W38045   8.321  21.242   3.750
76680W        W38046  32.567   3.728  12.425
76681W        W38047  17.302   9.877   3.193
76682W        W38048  24.150   6.859   0.312
76683W        W38049  28.050  29.660  12.457
76684W        W38050  30.608  36.848  10.986
76685W        W38051  34.004  38.069  11.592
76686W        W38052  10.876  37.869   2.745
76687W        W38053  24.597  31.948   4.741
76688W        W38054  16.289  42.409   1.358
76689W        W38055  24.614  25.523   3.642
76690W        W38056  27.616   4.899  10.624
76691W        W38057   1.375   4.283  14.496
76692W        W38058   9.833  32.117  10.921
76693W        W38059  29.642  39.352  13.057
76694W        W38060  14.302   0.283  12.477
76695W        W38061  18.642  13.329   3.742
76696W        W38062  36.592   5.865   2.674
76697W        W38063  36.072  13.233  11.609
76698W        W38064  21.563  26.603  13.984
76699W        W38065   7.276  41.022   2.396
76700W        W38066   5.905   7.810   1.373
76701W        W38067  24.010   6.894   2.806
76702W        W38068  36.038  33.093  13.940
76703W        W38069  24.133  35.527   4.284
76704W        W38070  44.445   2.811  11.414
76705W        W38071  12.760  34.979  12.528
76706W        W38072  43.447   9.720   1.325
76707W        W38073  30.603  30.627  13.402
76708W        W38074  42.783   4.760  13.823
76709W        W38075   9.196  17.770  12.943
76710W        W38076  23.525   4.284   0.841
76711W        W38077  42.382   8.712   1.410
76712W        W38078  22.597  41.527  12.080
76713W        W38079   5.367  27.107  11.059
76714W        W38080   3.234   2.347  11.448
76715W        W38081  21.732  12.700  14.372
76716W        W38082   9.285  40.513  14.967
76717W        W38083  38.353   6.297  14.896
76718W        W38084   1.917   5.226   1.699
76719W        W38085   9.259  37.581  10.430
76720W        W38086  41.882  35.888  11.921
76721W        W38087   2.451  19.216   2.788
76722W        W38088  29.558  41.990  10.937
76723W        W38089  24.159  38.058   0.296
76724W        W38090  43.437  28.970   2.372
76725W        W38091  31.522  38.956   1.702
76726W        W38092   0.358  29.078  14.790
76727W        W38093  29.981  18.690  12.945
76728W        W38094  44.276  33.046   2.814
76729W        W38095  44.405  41.517  13.885
76730W        W38096  16.092  30.422  14.929
76731W        W38097  10.675  33.565  12.364
76732W        W38098  14.739  36.084  13.394
76733W        W38099   6.381  12.633  14.774
76734W        W38100  42.799  18.205   1.357
76735W        W38101  27.467  39.940  11.612
76736W        W38102  21.599   2.901  12.390
76737W        W38103  28.153  40.305   3.226
76738W        W38104  17.130   1.843  14.854
76739W        W38105  32.091  29.523   3.367
76740W        W38106  29.621   0.817  14.293
76741W        W38107  22.681  29.170   4.788
76742W        W38108   4.764  12.758   3.702
76743W        W38109   0.745  31.908  10.599
76744W        W38110   4.935   2.866  11.421
76745W        W38111   2.822  35.533   1.338
76746W        W38112  12.348   3.882  14.430
76747W        W38113  13.234   0.478  11.581
76748W        W38114  14.321  31.933   5.617
76749W        W38115   2.469  36.519   0.335
76750W        W38116  44.267  25.472  14.340
76751W        W38117  25.630  13.768   1.802
76752W        W38118  25.698  12.645   3.233
76753W        W38119  41.832  27.623   1.314
76754W        W38120  25.599  38.879  11.973
76755W        W38121  13.311  29.130  12.492
76756W        W38122  27.668   1.253  11.498
76757W        W38123  26.528  23.147   1.714
76758W        W38124   3.792   8.746  11.869
76759W        W38125  20.188  26.171  12.368
76760W        W38126  37.415  41.868   9.477
76761W        W38127  34.067  12.152   1.376
76762W        W38128  12.777  40.820  12.897
76763W        W38129  40.961  44.879  12.979
76764W        W38130  24.019  25.024   3.809
76765W        W38131  11.636  34.499  14.459
76766W        W38132  16.623  22.085  10.464
76767W        W38133   5.841  11.730   1.421
76768W        W38134  44.445  11.164  12.579
76769W        W38135  28.962  28.146  11.035
76770W        W38136  17.714  14.139  14.012
76771W        W38137  11.350   8.186   1.344
76772W        W38138  28.111  22.213  12.906
76773W        W38139  26.466  35.418   3.751
76774W        W38140  35.937  41.953  10.568
76775W        W38141  32.548  23.680   3.178
76776W        W38142  42.846  18.630  11.547
76777W        W38143  34.007  12.242  13.928
76778W        W38144  36.487  44.842  11.511
76779W        W38145  23.222  22.118  12.909
76780W        W38146  40.537  18.101   4.822
76781W        W38147  13.126  26.026  13.882
76782W        W38148  19.755  15.277  13.861
76783W        W38149  17.586  31.633  12.043
76784W        W38150  21.147  12.703   1.318
76785W        W38151  35.581   3.769   2.244
76786W        W38152   7.865  18.692  12.489
76787W        W38153  22.246   8.361  11.863
76788W        W38154  23.223  22.113  11.015
76789W        W38155  38.552   9.152  10.476
76790W        W38156  23.560  21.578   2.366
76791W        W38157   2.893  35.451  11.556
76792W        W38158  17.706  42.518  11.387
76793W        W38159  17.660  35.507  14.320
76794W        W38160   0.758  20.104  11.062
76795W        W38161  23.714  32.987  11.882
76796W        W38162  41.837   1.955  11.398
76797W        W38163  30.504  20.205   1.831
76798W        W38164  29.578   3.459  10.551
76799W        W38165  31.483   2.844   4.758
76800W        W38166  33.059  18.126   2.891
76801W        W38167  32.902  23.695  14.440
76802W        W38168  20.762  31.986   0.913
76803W        W38169  27.478  10.778   0.921
76804W        W38170  30.153  10.249  12.049
76805W        W38171  29.638  23.101   3.279
76806W        W38172  26.553  32.895   0.861
76807W        W38173  31.419   1.960   4.242
76808W        W38174  26.492  18.685   3.684
76809W        W38175  22.633  42.842   4.822
76810W        W38176   0.428  15.803   9.920
76811W        W38177  34.962  22.525   1.887
76812W        W38178  26.196  16.784  10.482
76813W        W38179   1.865  23.150  13.513
76814W        W38180  18.613   3.815  13.817
76815W        W38181  31.547  24.662   1.210
76816W        W38182  40.835  13.775  10.565
76817W        W38183   7.283   3.923   2.386
76818W        W38184  44.945  44.402  12.054
76819W        W38185   8.745  44.503   2.734
76820W        W38186  43.799  27.489   2.757
76821W        W38187  34.989  15.275  10.619
76822W        W38188  40.914  43.406   2.769
76823W        W38189   2.284  28.001  11.459
76824W        W38190  22.534  25.122  11.425
76825W        W38191  28.546  36.458  11.412
76826W        W38192  22.233  22.661   0.944
76827W        W38193  21.607  10.746   1.327
76828W        W38194  18.683  14.321   9.961
76829W        W38195   5.233  27.000   9.944
76830W        W38196   6.290   1.448  11.112
76831W        W38197  43.947  17.061  14.784
76832W        W38198  43.806   2.887   4.249
76833W        W38199  12.153  39.531   2.248
76834W        W38200  10.351  29.970  12.560
76835W        W38201  15.667  22.670  11.006
76836W        W38202  36.441  13.753  11.100
76837W        W38203  37.054  12.834   4.672
76838W        W38204  14.290  27.465  11.536
76839W        W38205   3.350   5.725   2.381
76840W        W38206   7.221   6.269   3.821
76841W        W38207   0.943  35.911  14.862
76842W        W38208  14.188  31.498   5.201
76843W        W38209  20.148  16.749  11.942
76844W        W38210  23.689  25.197   0.428
76845W        W38211   2.344  36.886  12.982
76846W        W38212  27.620  38.925  11.507
76847W        W38213  40.844  26.189  11.425
76848W        W38214  42.792  24.225  14.419
76849W        W38215   0.454  43.966  14.337
76850W        W38216   1.802  35.512  11.988
76851W        W38217  21.682  10.351  12.878
76852W        W38218   7.398   6.332  12.412
76853W        W38219  20.589   5.274   5.695
76854W        W38220  38.051  42.801   0.911
76855W        W38221  25.522  29.513   3.146
76856W        W38222  14.311  44.804   3.226
76857W        W38223   3.910  10.366  12.018
76858W        W38224   9.858  25.543   3.181
76859W        W38225  30.654  12.747   1.247
76860W        W38226  24.230  29.028   5.155
76861W        W38227  19.055  38.501  12.887
76862W        W38228   0.781  11.352  14.417
76863W        W38229  31.012  41.304   4.239
76864W        W38230  39.551  17.141  12.910
76865W        W38231  19.255  16.100   0.840
76866W        W38232  27.990  41.894   4.226
76867W        W38233  31.968  35.915   0.964
76868W        W38234  29.988  37.561   1.896
76869W        W38235   6.359   5.758   0.825
76870W        W38236   2.398   8.767  11.891
76871W        W38237  15.668  22.535   1.348
76872W        W38238  20.670   5.204  12.362
76873W        W38239  15.762   8.189   0.822
76874W        W38240   8.218  40.314   2.671
76875W        W38241  29.442  37.347   0.368
76876W        W38242  27.482   4.854   3.148
76877W        W38243  27.533  30.415   1.354
76878W        W38244  44.273  30.547  13.526
76879W        W38245   4.805  30.527   4.204
76880W        W38246  33.067  10.366   2.361
76881W        W38247  43.450  11.361  10.455
76882W        W38248  21.696  31.119  13.874
76883W        W38249   0.449  26.552   4.604
76884W        W38250  36.995  20.727   1.294
76885W        W38251  33.446  38.061   4.820
76886W        W38252  20.205  13.220   4.347
76887W        W38253  23.052  21.591   2.387
76888W        W38254  23.570  42.836  13.961
76889W        W38255  44.272  20.224  10.147
76890W        W38256  43.322  25.985   1.435
76891W        W38257  12.164  39.923   1.834
76892W        W38258   1.393  18.131  14.021
76893W        W38259   0.385  21.204  13.920
76894W        W38260  32.443   0.479   3.228
76895W        W38261  29.469  35.999   0.927
76896W        W38262  12.254  30.416  14.318
76897W        W38263  28.674  29.162  13.352
76898W        W38264  28.139   0.972  14.987
76899W        W38265  16.098  14.094  14.776
76900W        W38266  23.193  38.999  12.917
76901W        W38267  24.156  15.640   1.914
76902W        W38268  16.638   1.736   3.187
76903W        W38269  33.613  27.663  11.881
76904W        W38270   3.869  34.424   1.868
76905W        W38271  27.138  24.668  10.524
76906W        W38272  32.953  15.126   2.257
76907W        W38273  12.171  44.961  14.286
76908W        W38274   0.755   4.803   0.402
76909W        W38275   5.719  26.529  14.369
76910W        W38276  40.473  17.083  12.467
76911W        W38277  23.101  39.329  13.452
76912W        W38278  11.681  31.065  12.052
76913W        W38279   6.688  38.391   3.760
76914W        W38280  25.179  44.775   3.380
76915W        W38281  14.294  13.300  12.346
76916W        W38282  41.353  26.052   4.193
76917W        W38283  21.191  38.333  10.104
76918W        W38284  40.363  20.763   2.221
76919W        W38285  17.294  11.286  14.964
76920W        W38286  20.124  39.831   4.749
76921W        W38287  25.656  15.313  14.403
76922W        W38288   9.391  13.743  14.940
76923W        W38289  23.043  31.587  13.797
76924W        W38290  40.532  25.686   1.425
76925W        W38291   9.226   1.263   3.684
76926W        W38292  25.589   5.212  13.922
76927W        W38293  10.344  19.275   3.329
76928W        W38294   6.396  42.991   1.311
76929W        W38295   7.850  44.345  11.997
76930W        W38296  18.643  25.573  11.479
76931W        W38297   4.722  40.964   1.450
76932W        W38298  14.290  37.580  13.873
76933W        W38299  11.131  20.045   3.203
76934W        W38300  13.734  20.529   2.799
76935W        W38301  19.257  21.160  10.960
76936W        W38302  31.043  30.144  14.490
76937W        W38303  37.931   3.320  10.449
76938W        W38304  29.150  36.413   1.266
76939W        W38305  13.250  17.597  11.920
76940W        W38306  14.316  26.162  10.999
76941W        W38307  32.527   7.325  14.778
76942W        W38308  29.173  40.032   1.310
76943W        W38309   7.819  22.655  11.908
76944W        W38310  34.001   0.391   3.761
76945W        W38311  42.950  10.139   2.707
76946W        W38312  21.554  44.271  13.796
76947W        W38313   7.349  35.535  13.926
76948W        W38314  33.603   4.293  11.109
76949W        W38315  42.341  42.328  14.367
76950W        W38316  18.727  10.780  11.979
76951W        W38317  14.608   2.890  11.066
76952W        W38318  32.478  17.193  12.850
76953W        W38319   8.711  39.549   2.828
76954W        W38320  14.668  31.470  12.908
76955W        W38321  24.166  12.271  12.505
76956W        W38322   3.822   0.742   0.791
76957W        W38323  19.765   5.236  12.465
76958W        W38324  15.204  41.466   4.186
76959W        W38325  12.228  14.221   1.446
76960W        W38326  25.546  32.432   0.757
76961W        W38327  41.805  43.818  14.352
76962W        W38328  36.367   3.781  11.601
76963W        W38329  17.277   2.871  11.100
76964W        W38330   4.424   9.264   4.699
76965W        W38331  34.880  32.419  14.399
76966W        W38332  30.993  27.056   1.354
76967W        W38333  11.801  40.405   0.285
76968W        W38334   7.228  27.579   4.723
76969W        W38335   1.935  15.659   0.737
76970W        W38336  31.447  13.690   4.746
76971W        W38337  31.101  44.451  14.370
76972W        W38338  11.781   0.840   4.247
76973W        W38339  34.500  11.213   0.394
76974W        W38340   6.775  22.051  10.609
76975W        W38341   3.215  19.635   0.253
76976W        W38342  16.751   1.905  11.570
76977W        W38343  35.901  19.078  14.368
76978W        W38344  32.069   8.730   2.699
76979W        W38345  30.562  40.965  12.351
76980W        W38346  38.513  22.083  13.029
76981W        W38347  20.593  36.940  13.834
76982W        W38348  11.752  39.879  14.796
76983W        W38349   0.256  10.780   3.653
76984W        W38350  14.256   2.436   5.227
76985W        W38351  28.505  25.080   4.653
76986W        W38352  23.024  30.146   2.709
76987W        W38353  15.173  14.626  12.006
76988W        W38354  42.484  16.116  12.432
76989W        W38355  41.019  12.807   3.776
76990W        W38356  18.250   8.332   3.751
76991W        W38357  10.266  35.936  11.884
76992W        W38358  12.716  25.693  11.527
76993W        W38359  31.058  20.545   3.823
76994W        W38360  12.612  35.509  13.810
76995W        W38361  22.683  10.287  13.533
76996W        W38362  41.424  22.234  10.595
76997W        W38363  40.959  18.613   2.711
76998W        W38364  15.607  30.069  12.409
76999W        W38365  12.289  32.068  10.532
77000W        W38366   5.867  33.922   0.730
77001W        W38367  42.349  13.346   0.951
77002W        W38368   9.825  13.182  12.393
77003W        W38369  29.962  38.829  14.883
77004W        W38370  34.490  10.203   0.419
77005W        W38371   1.834  40.406  12.516
77006W        W38372  41.972   6.255   2.821
77007W        W38373  28.017  32.532  12.418
77008W        W38374  15.176  28.478   3.249
77009W        W38375   2.890   3.273  13.537
77010W        W38376  37.919  32.484  14.291
77011W        W38377  40.886  25.551   0.954
77012W        W38378  20.113   9.157   0.846
77013W        W38379   3.742  42.845  14.377
77014W        W38380  31.921   5.250   3.799
77015W        W38381  38.492  26.162  10.460
77016W        W38382   4.253  26.479  10.408
77017W        W38383  23.205  35.902  14.500
77018W        W38384  35.968   9.193   2.664
77019W        W38385   1.350  33.416  12.444
77020W        W38386  18.290  12.714  13.922
77021W        W38387  24.626  43.274   0.784
77022W        W38388  39.932  43.013   1.309
77023W        W38389  44.974   5.405  12.497
77024W        W38390  34.087   5.280   1.445
77025W        W38391   3.227  32.458   0.247
77026W        W38392  18.683   1.921   2.408
77027W        W38393  39.464  14.245  10.953
77028W        W38394  23.693  13.603  12.551
77029W        W38395  20.058  44.867   1.380
77030W        W38396  18.647  31.101  14.025
77031W        W38397   5.858  23.648  13.544
77032W        W38398  18.191  37.529   0.448
77033W        W38399  27.639  24.582   4.314
77034W        W38400  40.367  13.150   0.354
77035W        W38401  36.442  43.447   9.956
77036W        W38402   3.386  36.410   3.231
77037W        W38403  45.000  32.575  14.903
77038W        W38404   2.913  25.679  12.881
77039W        W38405   0.255  22.519  14.021
77040W        W38406  35.033   1.763   0.952
77041W        W38407  18.254  15.207   4.616
77042W        W38408  31.108  22.620   2.285
77043W        W38409  27.127  26.103  10.106
77044W        W38410  27.056  27.980  13.531
77045W        W38411  15.322  40.462   2.692
77046W        W38412  41.294  44.419  11.950
77047W        W38413  33.488   3.345   3.639
77048W        W38414  36.483  44.341   5.158
77049W        W38415  10.826  21.059   4.151
77050W        W38416  43.779   3.446   1.917
77051W        W38417  23.227  18.710   1.844
77052W        W38418  21.730  28.939   2.388
77053W        W38419  29.555  10.331  10.441
77054W        W38420   1.773  44.314   0.399
77055W        W38421  36.928  37.903  11.915
77056W        W38422  33.084   0.975  14.421
77057W        W38423  19.751   3.956   3.214
77058W        W38424  17.574  43.868  14.459
77059W        W38425   8.745  36.871  12.915
77060W        W38426  18.142  39.436   4.724
77061W        W38427  43.895  14.827   3.795
77062W        W38428   8.237  16.237  11.605
77063W        W38429   1.437  19.551   2.312
77064W        W38430  27.591   2.810   4.655
77065W        W38431   4.223  29.981   0.308
77066W        W38432  16.566  14.762   2.847
77067W        W38433   6.683  20.596  13.053
77068W        W38434  35.001  17.712   2.233
77069W        W38435  43.313  23.662  12.556
77070W        W38436  16.162  11.738  10.445
77071W        W38437  38.965  28.621   3.206
77072W        W38438  35.512  14.749   2.821
77073W        W38439  27.161  35.390   1.259
77074W        W38440  30.022  41.507  13.970
77075W        W38441  32.022   5.293  12.528
77076W        W38442  37.399  42.386   2.187
77077W        W38443  31.093  19.063   2.227
77078W        W38444  37.543  20.750  14.872
77079W        W38445  11.659  35.038  11.962
77080W        W38446  17.684   7.737  13.810
77081W        W38447  39.413  10.744  14.002
77082W        W38448   9.751   3.387  11.127
77083W        W38449  18.080  21.520  11.075
77084W        W38450  11.133  35.008  14.846
77085W        W38451  38.943  19.176  14.840
77086W        W38452   6.205  42.903   3.682
77087W        W38453  12.673  43.899   2.303
77088W        W38454  15.697   0.792   4.192
77089W        W38455   5.865   4.794  14.952
77090W        W38456  27.631  17.728  13.384
77091W        W38457  12.856  19.654   0.733
77092W        W38458  21.647   9.745  14.924
77093W        W38459   4.380  17.598   3.668
77094W        W38460   9.660  18.560   1.844
77095W        W38461  22.584  33.533   4.220
77096W        W38462  19.041  10.155  13.049
77097W        W38463   0.440  28.956   4.175
77098W        W38464  35.892   2.847   2.778
77099W        W38465  18.269   6.391   2.898
77100W        W38466   8.807   0.287   3.233
77101W        W38467  21.261  29.963  11.926
77102W        W38468  21.558  11.857   0.321
77103W        W38469  32.475  39.505   1.390
77104W        W38470   3.841  30.979   4.815
77105W        W38471  13.815  12.665  14.029
77106W        W38472  35.411  28.467   2.687
77107W        W38473  16.233  38.949   1.853
77108W        W38474  31.102  22.189   1.791
77109W        W38475  18.204   9.389   4.322
77110W        W38476  11.300  43.973  12.494
77111W        W38477   8.789  28.149   4.752
77112W        W38478  38.819  13.630  12.028
77113W        W38479  10.206  18.782  11.010
77114W        W38480   2.440  29.604   5.714
77115W        W38481   7.764  40.471   3.327
77116W        W38482   6.223  13.788   1.435
77117W        W38483  44.895  38.884  10.488
77118W        W38484  17.182  20.223   0.802
77119W        W38485  27.658  16.108  13.457
77120W        W38486  13.802   6.726  13.847
77121W        W38487  27.034   4.813  14.771
77122W        W38488  44.849   1.435   1.293
77123W        W38489  39.324   9.745   1.910
77124W        W38490   0.487  13.659  10.517
77125W        W38491  23.499  27.460  13.463
77126W        W38492  19.193  10.209  11.398
77127W        W38493  43.899  35.598   2.770
77128W        W38494  34.519  24.725   3.663
77129W        W38495  14.214   2.453   4.282
77130W        W38496  39.982  13.813   0.741
77131W        W38497  14.736  11.731   0.793
77132W        W38498  39.029  36.442  11.592
77133W        W38499  16.133  18.763  14.925
77134W        W38500  17.176  32.547   1.791
77135W        W38501   2.904  40.955   2.352
77136W        W38502  19.752   9.378   0.960
77137W        W38503  37.837   2.855   0.809
77138W        W38504  16.312  19.585  11.093
77139W        W38505  37.521  11.817  11.590
77140W        W38506  21.571  22.579  12.020
77141W        W38507  14.248  31.456  14.976
77142W        W38508  10.669  22.727   3.644
77143W        W38509  22.043  18.119   3.267
77144W        W38510   9.683  21.064  10.599
77145W        W38511  31.515  35.947   4.126
77146W        W38512  18.624  23.644  12.066
77147W        W38513  37.417  40.522  10.514
77148W        W38514  29.598  19.115   1.779
77149W        W38515   4.338  29.624  11.031
77150W        W38516  30.565  37.921  12.551
77151W        W38517  32.483  33.020  14.936
77152W        W38518  10.196   9.763  11.037
77153W        W38519  10.304  33.591  11.991
77154W        W38520   6.897   7.173  14.927
77155W        W38521  39.830  29.470  13.339
77156W        W38522  16.728  27.020   4.117
77157W        W38523  17.091  44.787  13.462
77158W        W38524  12.178  29.990   4.796
77159W        W38525  38.861  24.543  11.989
77160W        W38526  20.208  31.573  14.488
77161W        W38527  18.059  14.232   5.728
77162W        W38528   1.338  11.838  12.345
77163W        W38529  24.533  38.075  12.010
77164W        W38530  26.498   2.766   0.818
77165W        W38531   9.215   2.264   2.827
77166W        W38532  17.612  31.517   4.795
77167W        W38533   4.864  44.472   3.355
77168W        W38534  28.987  43.937   4.610
77169W        W38535   5.327  34.407   4.223
77170W        W38536  32.988  38.464  12.558
77171W        W38537  21.076  39.381  14.927
77172W        W38538   4.797  26.490  13.039
77173W        W38539   4.235   3.390   1.850
77174W        W38540  33.406  36.990  14.500
77175W        W38541  10.143  15.623  13.338
77176W        W38542   3.784  23.018   1.263
77177W        W38543  20.146  24.596  14.336
77178W        W38544   7.896  14.658   4.287
77179W        W38545  26.697   9.261  11.028
77180W        W38546  29.558  15.660  12.510
77181W        W38547   4.801  21.151   1.332
77182W        W38548  21.156  12.242  11.464
77183W        W38549  39.876  17.294   3.722
77184W        W38550  37.000  24.575  14.312
77185W        W38551  43.890  25.680   2.184
77186W        W38552  29.541   6.762  14.812
77187W        W38553   7.188  11.791  14.910
77188W        W38554  36.449  39.436  13.061
77189W        W38555  24.110  29.037  12.377
77190W        W38556  26.474   3.440  13.002
77191W        W38557  27.684  42.286   2.337
77192W        W38558  43.860  32.128   0.853
77193W        W38559  21.565  27.498  14.917
77194W        W38560   3.712  35.002   2.278
77195W        W38561  43.398  11.642   1.285
77196W        W38562   0.431  30.656   2.376
77197W        W38563  44.956  39.059  12.544
77198W        W38564   7.876  27.620  14.807
77199W        W38565  32.554  23.039  12.564
77200W        W38566  39.983  25.567  14.927
77201W        W38567  29.960  32.515  14.348
77202W        W38568  10.281  10.680  11.043
77203W        W38569  33.556  18.760  11.873
77204W        W38570  29.958   3.304   3.385
77205W        W38571  17.591  17.782  11.477
77206W        W38572  13.606  11.796   4.604
77207W        W38573  14.770  22.587   3.358
77208W        W38574  35.082  29.424  12.092
77209W        W38575  32.042  31.618   4.826
77210W        W38576  44.361  42.955  14.025
77211W        W38577   6.689   4.360  13.483
77212W        W38578  37.478  34.500  11.472
77213W        W38579   7.868   6.399   0.483
77214W        W38580  39.460  36.927  13.819
77215W        W38581   3.749   2.363   1.350
77216W        W38582   4.246  30.152  12.890
77217W        W38583  24.155  18.781  13.515
77218W        W38584   9.823   9.256   2.680
77219W        W38585   9.346   1.929  10.056
77220W        W38586  44.426  20.689   0.257
77221W        W38587  13.822  28.489   3.852
77222W        W38588  18.226  15.674  13.338
77223W        W38589  12.341  44.417  12.440
77224W        W38590  44.809   1.947  14.475
77225W        W38591   6.299  26.642  14.976
77226W        W38592  37.347  16.639  11.062
77227W        W38593  18.063  38.384  12.445
77228W        W38594  41.789  26.664  14.410
77229W        W38595  29.134   6.745  11.004
77230W        W38596  12.120  30.556  11.425
77231W        W38597  12.804   0.893   3.334
77232W        W38598   6.736  28.571  14.474
77233W        W38599  30.123  42.880  13.484
77234W        W38600  32.992  35.403   0.348
77235W        W38601   9.680  29.428  13.901
77236W        W38602   1.245  42.435   0.916
77237W        W38603  26.021  12.124   4.835
77238W        W38604   4.933  12.702   2.339
77239W        W38605  24.586  24.178   0.841
77240W        W38606  13.337  33.489  11.915
77241W        W38607  28.989   9.224  12.944
77242W        W38608  20.627  13.307  12.028
77243W        W38609  44.283  12.809  14.852
77244W        W38610  30.111  14.642  14.388
77245W        W38611  24.567   4.388  10.591
77246W        W38612  35.883  36.410  13.538
77247W        W38613  21.189  31.946  12.826
77248W        W38614  19.740  17.298   1.756
77249W        W38615  35.052  32.921  11.393
77250W        W38616  39.843  22.588   1.333
77251W        W38617  28.186   2.763   2.374
77252W        W38618  12.219   3.287  12.041
77253W        W38619  20.624  15.679  11.448
77254W        W38620  16.747   5.216   2.778
77255W        W38621  35.022  11.833   3.711
77256W        W38622  17.178  34.450   0.278
77257W        W38623   2.381  43.345  13.955
77258W        W38624  33.490  29.169   2.316
77259W        W38625  11.763  39.471   4.304
77260W        W38626  44.379  21.518  10.610
77261W        W38627  24.552  18.096  10.974
77262W        W38628  16.187  38.562   4.696
77263W        W38629  12.725   5.340   1.850
77264W        W38630  34.880   5.731   2.832
77265W        W38631  31.561  25.068   1.901
77266W        W38632  33.069  33.885   0.365
77267W        W38633  13.750  15.262  14.442
77268W        W38634  33.073  26.970   2.696
77269W        W38635  10.264  35.453  14.900
77270W        W38636  43.879   7.796  14.779
77271W        W38637  28.553  37.503  12.843
77272W        W38638  19.129  35.462   3.353
77273W        W38639  30.161  19.259   2.727
77274W        W38640  36.962  21.121   0.774
77275W        W38641   8.782  24.717   3.227
77276W        W38642  23.723   8.323   0.872
77277W        W38643  31.480   4.884  12.829
77278W        W38644  25.478  37.496   0.957
77279W        W38645  23.112  14.827   2.821
77280W        W38646  28.658   9.802   4.820
77281W        W38647   8.713   8.674  13.537
77282W        W38648  20.737  11.319   1.882
77283W        W38649  41.468  42.944   0.819
77284W        W38650  40.006  19.204  14.419
77285W        W38651  39.053  22.052  11.435
77286W        W38652  24.053  43.275  12.524
77287W        W38653  17.591  13.300  10.922
77288W        W38654   0.919  18.630  14.766
77289W        W38655   1.264  40.414  14.959
77290W        W38656  22.128  38.908  10.565
77291W        W38657  14.800  37.962  14.928
77292W        W38658  19.688  10.149   3.293
77293W        W38659  18.116  27.616   0.799
77294W        W38660  35.583  15.600   1.892
77295W        W38661  20.725  16.158   3.711
77296W        W38662  10.675  40.054  12.441
77297W        W38663  11.695  26.670  13.335
77298W        W38664  26.092  10.756  13.394
77299W        W38665  10.194  40.030  10.932
77300W        W38666  44.946   2.834   4.695
77301W        W38667   8.812  34.569  12.495
77302W        W38668  43.000  35.960  11.067
77303W        W38669   3.220   0.426   3.664
77304W        W38670   5.907  29.016   4.837
77305W        W38671  12.854  39.042   0.798
77306W        W38672   6.205   4.281   0.268
77307W        W38673  14.787  10.710   3.802
77308W        W38674  23.073  39.440   3.357
77309W        W38675  35.918   2.771  14.855
77310W        W38676  29.468  34.066   0.444
77311W        W38677  42.014  27.008  13.976
77312W        W38678  17.663  38.497  12.985
77313W        W38679   4.433  44.484  13.901
77314W        W38680  28.542  42.985  10.611
77315W        W38681   4.829  14.734  12.556
77316W        W38682  34.878  39.336  13.897
77317W        W38683  34.593  33.488   2.259
77318W        W38684   5.756   1.857  14.275
77319W        W38685  20.610  14.172   2.777
77320W        W38686  17.601  16.577  12.863
77321W        W38687   2.946  21.155  10.474
77322W        W38688  17.095   7.673   9.983
77323W        W38689  35.490  14.283   4.252
77324W        W38690  26.137  44.349   3.194
77325W        W38691  39.853  28.116  12.836
77326W        W38692  16.747  18.188  12.523
77327W        W38693  22.552   0.480  14.898
77328W        W38694  25.219  35.910  13.450
77329W        W38695  27.607   5.410   4.265
77330W        W38696   4.798  13.347   2.748
77331W        W38697  10.296  10.346  13.460
77332W        W38698  24.226  28.058  14.389
77333W        W38699  31.619   9.824   2.220
77334W        W38700  15.821  19.684  11.009
77335W        W38701  34.908   2.449   5.246
77336W        W38702  12.679  22.689  10.455
77337W        W38703   1.434  13.692   1.746
77338W        W38704  19.586  13.262   0.392
77339W        W38705  18.243  15.112  13.472
77340W        W38706  25.164  21.106  14.343
77341W        W38707  16.787   2.768   2.856
77342W        W38708  25.114  43.991   4.243
77343W        W38709  39.821  32.941  11.882
77344W        W38710  32.040  37.927  12.515
77345W        W38711  36.879   4.701  13.520
77346W        W38712  31.632  42.362   0.397
77347W        W38713  10.288  31.527   1.369
77348W        W38714  15.735  41.533  12.089
77349W        W38715   0.447  38.389  13.467
77350W        W38716  17.274  27.159  12.911
77351W        W38717  40.000  34.014  11.975
77352W        W38718   7.747   6.915  13.424
77353W        W38719  29.499  34.920   4.676
77354W        W38720  12.183  16.170  14.393
77355W        W38721   2.427  29.091  13.479
77356W        W38722  32.903   3.810  13.451
77357W        W38723   1.376  22.603  12.475
77358W        W38724  30.916  23.991   9.968
77359W        W38725  36.400  40.309  13.868
77360W        W38726  30.536   9.744  11.499
77361W        W38727  14.139   5.359   3.311
77362W        W38728  31.993  36.529   1.366
77363W        W38729   6.774  23.624  14.771
77364W        W38730  33.129  34.908   2.178
77365W        W38731  41.802  41.317  10.522
77366W        W38732   9.726  27.192  11.116
77367W        W38733  17.556  32.981  13.966
77368W        W38734  38.933   5.717  11.392
77369W        W38735  28.969  31.062  10.959
77370W        W38736  43.981   5.777   4.157
77371W        W38737  18.582  31.448  14.774
77372W        W38738  44.905   3.929   2.673
77373W        W38739   4.747  35.421   5.145
77374W        W38740  27.464  13.321  10.606
77375W        W38741   1.806   4.266  11.536
77376W        W38742  36.435  29.469  13.381
77377W        W38743   6.366  30.417  13.960
77378W        W38744  16.213  34.505  11.021
77379W        W38745  23.661  26.702  14.319
77380W        W38746  40.042  42.985  12.832
77381W        W38747   6.729  13.700  12.376
77382W        W38748  13.300  13.666  13.877
77383W        W38749  11.353   8.175  11.081
77384W        W38750  43.903  30.072   2.240
77385W        W38751   5.229   3.780  10.543
77386W        W38752  27.134  41.296   3.773
77387W        W38753  16.292  19.685   2.357
77388W        W38754  26.052  34.989  13.932
77389W        W38755  21.696   9.385   2.845
77390W        W38756   5.343  26.579   1.794
77391W        W38757  17.577  10.654   4.778
77392W        W38758   0.249  32.925  12.548
77393W        W38759  19.780  39.542  12.881
77394W        W38760  29.495   3.407   1.797
77395W        W38761  13.811  35.480  13.401
77396W        W38762  24.104  35.043  12.086
77397W        W38763  44.398   4.745  14.431
77398W        W38764  22.215  24.635  11.498
77399W        W38765  29.031  26.526  12.361
77400W        W38766  38.523  44.897   0.781
77401W        W38767  29.468  25.137  13.017
77402W        W38768  43.493  10.170   0.427
77403W        W38769  24.184  16.247   0.744
77404W        W38770  30.543  28.597  11.974
77405W        W38771  38.565  26.015  11.532
77406W        W38772   0.944   5.298  11.873
77407W        W38773  12.705   4.926  10.139
77408W        W38774  42.782  28.057   2.330
77409W        W38775  19.217  34.890   0.351
77410W        W38776  41.915  39.037  14.348
77411W        W38777  27.197   2.789   2.357
77412W        W38778  10.331  36.541  13.804
77413W        W38779  44.787  41.805  14.932
77414W        W38780  16.177  17.189   3.267
77415W        W38781   4.854  28.037  13.385
77416W        W38782  26.493  14.590  10.956
77417W        W38783  20.261   7.736   2.667
77418W        W38784   6.717  32.101  14.477
77419W        W38785  24.047  19.242  11.121
77420W        W38786  24.543  38.047   0.426
77421W        W38787   8.166  43.975   2.701
77422W        W38788   8.661  26.664   2.744
77423W        W38789  20.572   0.295  13.435
77424W        W38790  11.320   6.325   2.686
77425W        W38791   9.270   2.244   5.306
77426W        W38792  38.473  44.792   2.376
77427W        W38793  40.913  40.321  12.066
77428W        W38794  33.604   4.216  12.038
77429W        W38795  21.738  28.461  14.811
77430W        W38796  26.033  19.128   3.865
77431W        W38797  20.047  30.503  10.926
77432W        W38798  33.401  23.176  11.949
77433W        W38799  27.091  17.633  14.030
77434W        W38800   5.220   2.280   2.787
77435W        W38801  15.294  17.620  14.957
77436W        W38802  19.720  25.101  12.891
77437W        W38803  23.201   7.912  14.814
77438W        W38804   4.256   0.792   1.828
77439W        W38805   6.237  13.662  11.587
77440W        W38806  15.183  36.361   4.291
77441W        W38807  29.978  27.625  14.324
77442W        W38808  34.416  18.763   3.710
77443W        W38809  42.418  42.403   3.848
77444W        W38810  21.650  38.011   5.320
77445W        W38811  21.703  34.576  12.342
77446W        W38812  26.673  36.422  13.398
77447W        W38813  22.626  33.917  13.336
77448W        W38814  42.992  16.100   2.837
77449W        W38815  37.935  30.506   1.449
77450W        W38816   1.914   8.382  11.458
77451W        W38817  13.297  26.634   3.331
77452W        W38818   7.255  33.608  10.973
77453W        W38819  20.098  39.355  13.934
77454W        W38820  24.087   1.885  10.914
77455W        W38821  16.157  20.669  10.612
77456W        W38822  21.606  28.990   1.280
77457W        W38823  20.045   7.670   1.792
77458W        W38824  29.046  22.249   2.243
77459W        W38825  42.321  42.428   0.954
77460W        W38826  26.129  32.426  14.952
77461W        W38827  33.057  39.476  13.927
77462W        W38828  35.925   8.845  11.956
77463W        W38829   3.443  23.616   1.328
77464W        W38830  40.903  19.642   0.919
77465W        W38831   3.364  11.210  13.035
77466W        W38832  24.201  24.072  12.504
77467W        W38833  35.934   1.424  12.480
77468W        W38834   4.803   4.396   2.806
77469W        W38835  24.096  32.915   2.864
77470W        W38836  42.480   9.782   4.740
77471W        W38837  33.997  12.762  14.839
77472W        W38838  42.402  19.171   2.680
77473W        W38839  26.068  40.961   4.607
77474W        W38840   3.361   1.841   5.102
77475W        W38841  34.369  22.227   1.288
77476W        W38842  37.341   7.207  13.992
77477W        W38843  31.498   1.937  13.398
77478W        W38844  37.076  37.368   3.769
77479W        W38845  18.147  18.632   4.234
77480W        W38846  27.461  30.415   0.905
77481W        W38847  20.625  15.098  14.312
77482W        W38848  14.209  24.061   2.783
77483W        W38849  39.378  23.202   2.226
77484W        W38850  24.654  17.165  12.894
77485W        W38851   7.209  10.757  11.106
77486W        W38852  13.118  12.141  10.900
77487W        W38853  22.695  18.168  12.569
77488W        W38854  24.487   0.904   3.654
77489W        W38855  40.869  42.978   3.352
77490W        W38856   3.315   9.808  13.527
77491W        W38857   0.942  20.181  14.926
77492W        W38858  40.379  36.553  11.406
77493W        W38859  22.118   1.835  11.459
77494W        W38860  10.312  32.466  11.123
77495W        W38861  42.978  27.029   0.448
77496W        W38862  40.354  22.207  14.932
77497W        W38863   7.712   5.796  11.038
77498W        W38864  19.192   1.255   2.346
77499W        W38865   4.929  10.741   3.800
77500W        W38866  13.622  24.634   2.418
77501W        W38867   4.376  20.186  12.000
77502W        W38868  11.772   5.213   0.300
77503W        W38869   9.815  22.546  12.450
77504W        W38870  29.656  23.546  12.006
77505W        W38871   5.392  18.177   1.928
77506W        W38872   3.884   5.221   1.416
77507W        W38873   2.772   3.283   1.916
77508W        W38874  11.627  13.120  13.429
77509W        W38875  22.206  35.407   3.645
77510W        W38876  23.536  25.627   3.198
77511W        W38877  34.533  20.128  11.860
77512W        W38878  33.471   0.898  12.382
77513W        W38879   0.474  41.310   1.310
77514W        W38880  21.183  17.282  13.916
77515W        W38881  33.552  38.327   3.807
77516W        W38882   8.745  38.472   1.762
77517W        W38883  33.467  43.466   5.257
77518W        W38884  41.885  30.512   1.265
77519W        W38885  35.021  10.213   1.777
77520W        W38886  26.968  10.632  11.957
77521W        W38887  15.212   7.826  14.365
77522W        W38888  35.937  31.145   0.737
77523W        W38889  19.116  38.388  14.971
77524W        W38890  17.757  31.966  11.946
77525W        W38891   1.309  19.191  14.832
77526W        W38892  24.119  11.205   1.320
77527W        W38893  43.791  31.576   2.864
77528W        W38894  34.541  28.581  14.777
77529W        W38895  16.297  10.872  13.896
77530W        W38896  20.552  40.310  12.888
77531W        W38897  39.024  44.862  14.899
77532W        W38898  33.544  26.546  12.013
77533W        W38899  36.353  18.201  10.019
77534W        W38900  30.941  39.955   9.446
77535W        W38901  37.544  26.072   1.419
77536W        W38902   3.359   8.201   4.760
77537W        W38903  34.592  37.989   4.260
77538W        W38904  44.345  41.943  11.077
77539W        W38905   9.805   1.386  13.944
77540W        W38906  14.735  35.480   1.720
77541W        W38907   6.249   5.915   4.353
77542W        W38908  41.330  26.076  10.629
77543W        W38909   6.375  17.286  14.860
77544W        W38910   0.776   8.798   9.947
77545W        W38911  30.975   3.257  13.916
77546W        W38912  28.181  43.391  14.775
77547W        W38913   9.175  36.057  11.086
77548W        W38914  21.161   1.856  13.872
77549W        W38915   1.468  38.978  13.991
77550W        W38916   2.307  40.495  11.077
77551W        W38917  44.339  16.783   3.148
77552W        W38918  40.896  35.563   2.893
77553W        W38919  16.658  18.787   5.124
77554W        W38920  13.294  12.142   4.254
77555W        W38921  28.622   9.310   3.184
77556W        W38922  26.995  38.412   0.377
77557W        W38923  35.031  19.090  11.857
77558W        W38924  17.671  11.329   3.197
77559W        W38925  41.899  21.101   3.164
77560W        W38926  41.301  33.076  10.543
77561W        W38927  44.864  43.862   3.856
77562W        W38928  35.925  39.034   2.379
77563W        W38929   3.780   5.391  12.877
77564W        W38930  40.314  37.390  11.981
77565W        W38931  25.075  27.494   2.689
77566W        W38932   1.857  44.769   4.269
77567W        W38933   3.760  30.432  13.438
77568W        W38934  35.095   0.374   0.861
77569W        W38935   4.701  24.593   2.225
77570W        W38936  39.988  44.379   3.724
77571W        W38937  31.585  28.642   0.871
77572W        W38938   1.756  30.637   2.370
77573W        W38939  39.994  37.577   9.995
77574W        W38940  35.091  38.954   1.773
77575W        W38941   5.845  33.393  14.506
77576W        W38942  29.003  12.167   1.804
77577W        W38943   2.336  35.096   4.206
77578W        W38944  20.074  10.748  13.502
77579W        W38945  40.987  39.020  14.368
77580W        W38946   3.315  20.769  10.587
77581W        W38947  35.463  39.936  11.496
77582W        W38948   5.778   1.880   1.254
77583W        W38949  30.573  12.187   3.649
77584W        W38950  42.990  25.215   0.750
77585W        W38951   0.461  10.176   2.739
77586W        W38952  44.869  33.118   1.930
77587W        W38953  15.788  10.202   5.289
77588W        W38954  13.176  18.662   2.328
77589W        W38955   5.382   0.488   2.384
77590W        W38956  20.239  17.175  12.379
77591W        W38957  11.685  19.712  11.116
77592W        W38958  34.026  43.378  11.861
77593W        W38959   2.762  18.168  12.555
77594W        W38960   8.850  35.980  14.274
77595W        W38961  21.213  19.219  11.371
77596W        W38962  43.485   5.219   4.279
77597W        W38963  21.581  34.382  13.797
77598W        W38964  26.179  31.152   2.356
77599W        W38965  20.103  31.567   2.820
77600W        W38966  30.550  26.997  12.919
77601W        W38967  31.984  16.790  11.084
77602W        W38968  37.474  35.043  12.429
77603W        W38969   8.213  27.056   0.810
77604W        W38970  35.583   5.763   0.260
77605W        W38971  35.414  33.964   1.264
77606W        W38972  35.010  17.755  11.983
77607W        W38973   6.764  35.525  14.017
77608W        W38974  13.750   7.401  10.895
77609W        W38975  35.512  41.465   2.700
77610W        W38976  15.778  37.944  12.451
77611W        W38977  25.617  13.645   4.351
77612W        W38978   1.797   1.811  11.472
77613W        W38979  29.957   0.981  13.329
77614W        W38980  36.427  29.963   3.764
77615W        W38981  12.203  19.173   2.310
77616W        W38982  30.505  44.488  11.908
77617W        W38983  19.086  19.707   1.806
77618W        W38984   9.656   5.766   1.267
77619W        W38985  10.244  38.896  13.864
77620W        W38986   8.821  19.255   2.731
77621W        W38987  39.473   3.442   3.680
77622W        W38988  21.132   0.901  10.597
77623W        W38989   9.696  34.950   0.341
77624W        W38990   5.695  15.311   4.349
77625W        W38991  32.437  17.737   2.181
77626W        W38992  10.257  40.481  12.530
77627W        W38993  28.525  16.197   0.337
77628W        W38994  24.163  20.625   0.887
77629W        W38995  21.587  20.696  10.523
77630W        W38996  16.166  30.618   1.396
77631W        W38997   9.869   9.315   1.706
77632W        W38998  25.511  16.287   1.239
77633W        W38999  19.136  33.909  12.004
77634W        W39000  15.287  25.036   1.803
77635W        W39001  26.191  27.046  14.836
77636W        W39002  13.744  20.739   4.670
77637W        W39003   0.356   6.769   2.197
77638W        W39004  29.655  38.438  10.984
77639W        W39005   5.237  33.059   1.877
77640W        W39006   5.892  43.276  11.882
77641W        W39007  44.310   2.868  12.848
77642W        W39008  15.210   3.782  13.920
77643W        W39009   7.667  44.440  11.087
77644W        W39010  40.474  17.717  12.423
77645W        W39011   6.917   5.389   1.394
77646W        W39012   3.289   6.232  11.442
77647W        W39013  36.503  13.319  11.593
77648W        W39014  32.445  17.577  12.345
77649W        W39015   4.700   7.321  14.840
77650W        W39016  13.683  28.962   1.434
77651W        W39017   9.770  14.713  10.930
77652W        W39018   6.245  27.478  14.278
77653W        W39019  31.634  36.000  11.078
77654W        W39020   7.805   9.877   1.719
77655W        W39021  34.049  44.947  14.766
77656W        W39022   1.469   1.297   2.711
77657W        W39023  36.517   6.800   1.218
77658W        W39024   1.426  34.945   4.767
77659W        W39025  10.237  27.950   0.770
77660W        W39026  21.562   5.382   0.791
77661W        W39027   6.422  18.555   0.293
77662W        W39028  27.585  20.562   1.906
77663W        W39029  43.314  35.090   4.269
77664W        W39030  26.007  18.269  11.101
77665W        W39031  14.617  12.664  10.991
77666W        W39032  13.274   6.188   2.240
77667W        W39033   7.290  34.474  11.883
77668W        W39034   8.209   1.354   0.480
77669W        W39035  14.737  12.857  13.048
77670W        W39036   4.204   3.813  12.553
77671W        W39037   8.704  32.941  13.308
77672W        W39038  28.941  35.977   4.198
77673W        W39039  25.569   2.435   2.677
77674W        W39040  16.265  34.890  13.442
77675W        W39041   1.319   4.821   2.243
77676W        W39042  20.136  32.486  14.450
77677W        W39043  35.568  34.400  13.010
77678W        W39044  31.558  11.736  11.914
77679W        W39045   9.263  43.900   3.276
77680W        W39046  26.560  32.579  12.067
77681W        W39047  29.453   8.662   4.250
77682W        W39048   6.408  22.248   1.434
77683W        W39049  36.440   4.892   0.806
77684W        W39050  43.862  39.429   1.254
77685W        W39051  19.662  21.623   1.930
77686W        W39052  27.634  25.503  12.077
77687W        W39053  10.779  33.090  14.392
77688W        W39054  35.013  14.186   4.120
77689W        W39055  10.731   1.237   4.214
77690W        W39056  37.521  11.137   0.959
77691W        W39057  44.762  34.507  14.017
77692W        W39058  22.567  16.249   2.746
77693W        W39059  11.361  32.086  13.903
77694W        W39060  22.739  20.138  13.353
77695W        W39061  11.364  11.862  11.106
77696W        W39062   2.881  15.250  13.384
77697W        W39063  20.060  33.567   1.881
77698W        W39064  44.824   8.810   2.868
77699W        W39065  16.675  33.587  11.122
77700W        W39066  43.006   0.290  14.281
77701W        W39067  12.158   5.798   2.814
77702W        W39068   2.268  22.562   3.714
77703W        W39069   6.704   7.277   0.307
77704W        W39070  38.514  39.910  11.910
77705W        W39071   1.345  25.188  13.886
77706W        W39072  34.034  44.766   1.385
77707W        W39073  43.873   5.747   1.769
77708W        W39074  13.255  33.519  14.466
77709W        W39075   0.743  32.083   1.764
77710W        W39076   3.289   8.857   4.754
77711W        W39077  14.693  28.987   2.209
77712W        W39078  29.032  15.125   4.804
77713W        W39079  12.689   8.831  14.896
77714W        W39080  18.118  21.211   4.196
77715W        W39081   1.736  31.424   4.837
77716W        W39082  28.088  21.191   5.110
77717W        W39083  28.521  36.032   1.882
77718W        W39084  29.160  33.126   0.740
77719W        W39085  27.962   2.955  10.511
77720W        W39086   5.422   7.874  14.785
77721W        W39087   4.900  21.102   3.361
77722W        W39088  44.937  38.414  14.982
77723W        W39089   7.255   5.260   1.212
77724W        W39090  31.905  17.177  10.496
77725W        W39091  37.905   9.291  14.484
77726W        W39092  42.834  11.134   0.346
77727W        W39093   2.945  39.889   4.133
77728W        W39094  34.402  40.847   0.265
77729W        W39095  42.473  24.594  12.072
77730W        W39096  38.932  18.054  11.568
77731W        W39097  21.754   0.387  11.020
77732W        W39098  13.791  44.372   2.721
77733W        W39099   2.402  30.047   2.768
77734W        W39100  15.621  27.095  13.975
77735W        W39101  11.370  25.633   0.791
77736W        W39102   7.786   0.259   0.456
77737W        W39103  11.205  12.185  14.413
77738W        W39104  39.985   4.281   0.954
77739W        W39105  10.358  32.503   0.774
77740W        W39106  21.634   9.856  10.579
77741W        W39107  29.152  16.259   0.852
77742W        W39108  40.800  41.831   4.634
77743W        W39109   7.892   9.848   2.179
77744W        W39110  41.800  30.066  11.592
77745W        W39111  15.597  29.624   5.265
77746W        W39112   7.334  26.575  14.861
77747W        W39113  33.045   8.859   0.341
77748W        W39114   1.859  20.062   4.249
77749W        W39115  21.566   3.263   1.930
77750W        W39116  36.368  19.747  12.903
77751W        W39117   2.777  11.658   4.181
77752W        W39118  14.802  10.146  12.064
77753W        W39119  44.426  15.249   2.805
77754W        W39120   4.818  11.200  14.869
77755W        W39121  33.111  35.522   3.337
77756W        W39122  29.948   4.761   4.354
77757W        W39123  16.599  15.092  12.030
77758W        W39124   9.180   9.857  12.877
77759W        W39125   6.380   7.354   3.272
77760W        W39126   2.361  23.691  14.820
77761W        W39127  15.195  22.568   1.780
77762W        W39128  10.827  23.588   3.146
77763W        W39129  24.492   9.169   2.294
77764W        W39130  22.249  34.037  11.868
77765W        W39131  43.314  38.050  10.614
77766W        W39132  16.205  42.910  11.089
77767W        W39133  41.866   2.305   2.833
77768W        W39134   6.250   8.385   1.332
77769W        W39135   1.754  35.388  11.518
77770W        W39136  34.898   2.925   3.181
77771W        W39137  30.631   8.236   1.298
77772W        W39138  43.983  30.629   1.870
77773W        W39139  39.494  25.215  12.393
77774W        W39140   8.164  31.966  14.784
77775W        W39141   2.867   9.800  13.796
77776W        W39142  40.429  30.598   0.294
77777W        W39143  29.556  11.684   4.627
77778W        W39144   5.739  26.068  12.897
77779W        W39145   3.279  25.660  14.342
77780W        W39146   6.879   9.364  12.862
77781W        W39147   4.247   7.236   4.347
77782W        W39148   8.755  38.035  13.844
77783W        W39149  43.776   4.839   3.200
77784W        W39150  12.316  35.961  12.512
77785W        W39151  31.951  21.209  14.981
77786W        W39152   8.339  35.048  13.526
77787W        W39153   0.492  18.202  13.860
77788W        W39154  29.105  13.627   2.689
77789W        W39155   1.482  40.396  11.434
77790W        W39156  14.634  23.111   2.286
77791W        W39157  40.007  21.175  14.028
77792W        W39158  25.484   6.255  13.460
77793W        W39159  13.241  16.701   3.668
77794W        W39160   8.214   5.922  11.012
77795W        W39161  20.093  29.582  13.420
77796W        W39162  11.133   7.854  14.348
77797W        W39163  37.434   1.398  13.536
77798W        W39164  14.712  15.615  14.821
77799W        W39165   1.239  10.753   0.315
77800W        W39166  33.117  26.987  11.593
77801W        W39167  37.847  31.932  14.284
77802W        W39168  39.930  42.403  14.381
77803W        W39169   2.311  25.648   1.327
77804W        W39170  42.903  24.056  10.925
77805W        W39171  32.534   1.852   1.394
77806W        W39172  41.335   7.350   2.698
77807W        W39173  18.050  22.602   4.150
77808W        W39174  17.677  44.349   4.331
77809W        W39175   4.237   2.248   1.914
77810W        W39176  21.201  24.645  11.010
77811W        W39177   4.239  38.887   4.832
77812W        W39178  21.554  11.257  11.975
77813W        W39179  23.052  37.544   1.905
77814W        W39180  21.105   8.775   1.905
77815W        W39181  22.598  42.927  11.011
77816W        W39182  24.160  14.722   3.682
77817W        W39183  39.368  36.457  11.478
77818W        W39184   9.700  37.530  13.024
77819W        W39185  39.900  24.495  12.072
77820W        W39186  11.260  29.939  14.017
77821W        W39187   8.790  34.544  12.922
77822W        W39188  21.619  20.178  12.345
77823W        W39189  30.127  18.689   4.750
77824W        W39190  15.613  42.004  12.051
77825W        W39191  32.997  16.095  10.951
77826W        W39192   0.956  25.024  11.469
77827W        W39193   6.380  31.949   3.753
77828W        W39194  12.616  18.232   0.421
77829W        W39195   9.159  38.518   1.350
77830W        W39196  39.968  19.572  14.487
77831W        W39197  23.111  21.731   1.843
77832W        W39198  23.170  22.034   0.457
77833W        W39199   7.798  25.607  11.123
77834W        W39200   7.286   7.327  10.982
77835W        W39201   6.393   0.832   4.199
77836W        W39202  32.932  23.556  10.602
77837W        W39203  12.264  12.798   1.418
77838W        W39204  44.407  39.984  11.965
77839W        W39205  35.044  23.579  11.883
77840W        W39206  38.910  35.926   0.257
77841W        W39207  26.142  28.535  13.421
77842W        W39208  38.037  39.942  14.345
77843W        W39209   7.235  27.153  14.372
77844W        W39210  24.652  23.492   2.686
77845W        W39211  42.941   7.399   0.769
77846W        W39212  15.227   7.879   1.849
77847W        W39213  42.787  18.243  10.564
77848W        W39214  14.336  16.728   0.392
77849W        W39215  20.151  23.085  11.557
77850W        W39216   2.466  32.942  11.043
77851W        W39217  33.016  18.235   3.850
77852W        W39218  37.021  31.920   2.344
77853W        W39219  41.353  35.867   0.353
77854W        W39220  19.629  12.257  11.565
77855W        W39221  24.561  33.076  12.520
77856W        W39222  42.448  43.949   3.791
77857W        W39223  19.220  27.160  10.519
77858W        W39224  12.613   5.434   4.141
77859W        W39225  27.569  22.084   4.667
77860W        W39226  14.680  31.998   5.267
77861W        W39227  24.642  42.350   4.159
77862W        W39228  14.697   8.855   5.314
77863W        W39229  10.253   5.831   1.263
77864W        W39230   8.683  22.675   1.377
77865W        W39231   2.921  15.661  12.535
77866W        W39232   4.872   0.403  10.628
77867W        W39233  10.789  32.938  12.021
77868W        W39234  35.553  28.540   3.354
77869W        W39235  32.959  19.578   9.470
77870W        W39236  34.532  34.474  10.486
77871W        W39237  44.929  12.766  12.968
77872W        W39238   6.711  10.668  11.061
77873W        W39239  29.984  20.648   0.897
77874W        W39240   9.225  26.495  11.082
77875W        W39241  22.145   6.874   0.284
77876W        W39242  19.581   7.387  13.864
77877W        W39243   6.181  22.149   2.360
77878W        W39244  27.965  28.012   3.712
77879W        W39245  27.161   0.270   0.800
77880W        W39246  25.508  23.209  13.825
77881W        W39247  24.682  28.029   1.877
77882W        W39248   9.161  29.659  10.952
77883W        W39249  17.582   2.399  12.419
77884W        W39250  24.515  27.514  13.934
77885W        W39251   2.379  10.818   0.438
77886W        W39252  10.733  30.618   4.147
77887W        W39253  44.375  38.428  14.025
77888W        W39254  25.672  33.392  11.935
77889W        W39255  38.446  29.463   2.297
77890W        W39256  14.155  29.080  13.049
77891W        W39257  24.700   5.433   3.669
77892W        W39258   8.261  19.777  14.411
77893W        W39259  30.584  25.050   0.370
77894W        W39260  31.445  11.181  14.782
77895W        W39261  37.839   9.186  11.583
77896W        W39262  42.442   6.264  13.328
77897W        W39263   5.358  26.600   1.376
77898W        W39264  32.533  32.506   3.176
77899W        W39265  27.146  20.540   4.273
77900W        W39266  14.301  25.550  14.335
77901W        W39267  13.228  41.892  11.914
77902W        W39268  28.145   4.257  14.851
77903W        W39269   9.247  20.147  12.478
77904W        W39270  44.276  43.865   1.342
77905W        W39271  11.855   8.792  10.147
77906W        W39272  23.569  28.952   4.245
77907W        W39273  15.754  14.220  14.997
77908W        W39274   0.823  29.972  11.899
77909W        W39275  35.456  34.934   4.767
77910W        W39276  44.974  13.601   3.817
77911W        W39277   8.270  41.373  12.062
77912W        W39278  35.561  39.387  10.950
77913W        W39279  32.046   7.207   3.342
77914W        W39280  22.718  11.254  14.321
77915W        W39281   7.410  14.739   9.935
77916W        W39282  32.049  11.270  12.567
77917W        W39283   0.915  18.116  11.597
77918W        W39284   8.379   4.706  14.489
77919W        W39285  24.000  12.201   4.138
77920W        W39286  20.720  21.183  12.504
77921W        W39287   4.317  24.002  14.382
77922W        W39288   9.205  10.674   2.746
77923W        W39289  13.679   1.907  13.021
77924W        W39290  31.994  13.709   3.321
77925W        W39291  18.550  17.730  10.984
77926W        W39292  30.626  40.542   3.355
77927W        W39293  31.147   9.242   2.266
77928W        W39294   1.790  43.829  11.434
77929W        W39295   9.294  28.166  10.039
77930W        W39296  43.870   2.960  11.082
77931W        W39297  29.975   2.943  14.372
77932W        W39298   9.887  17.208  11.910
77933W        W39299   1.833  26.192   2.686
77934W        W39300  30.572  44.328   4.311
77935W        W39301  25.182   5.736  11.949
77936W        W39302   9.187  11.218  11.473
77937W        W39303  35.876  11.732  11.953
77938W        W39304  24.719  31.983  11.112
77939W        W39305  19.094   1.308  13.517
77940W        W39306  22.194  41.337   3.298
77941W        W39307  38.358   8.756   1.283
77942W        W39308  41.848  42.517   4.175
77943W        W39309  29.047  22.531   4.303
77944W        W39310  14.693  38.362  12.397
77945W        W39311   6.420  25.124   0.844
77946W        W39312  17.272  22.251   2.799
77947W        W39313  21.605  42.474   2.223
77948W        W39314  29.134   4.349   3.647
77949W        W39315  31.621  37.415  14.428
77950W        W39316  13.774   0.461   0.289
77951W        W39317  43.999  11.243  11.106
77952W        W39318  36.892   7.731   2.872
77953W        W39319  24.177  19.165  13.450
77954W        W39320  41.869  21.089  13.018
77955W        W39321  10.255  38.961  14.865
77956W        W39322  34.445  28.104   2.351
77957W        W39323  43.364  35.069   2.231
77958W        W39324  21.242  36.372   0.782
77959W        W39325  32.599  29.510   1.909
77960W        W39326   9.784  13.736   2.197
77961W        W39327  24.706   2.953   3.174
77962W        W39328  25.544  22.050   3.696
77963W        W39329  24.645   3.252  12.374
77964W        W39330  28.933  31.647   3.185
77965W        W39331  14.757  35.908  12.434
77966W        W39332  10.202  41.988   1.718
77967W        W39333   4.710  22.209   1.229
77968W        W39334   5.920  37.379  13.023
77969W        W39335  17.721  37.088   4.250
77970W        W39336  18.107  30.962   2.759
77971W        W39337  18.698  20.704  12.561
77972W        W39338  37.928  43.498   4.126
77973W        W39339  11.367  23.644   0.818
77974W        W39340   9.672  42.971   0.397
77975W        W39341  24.067  11.344  13.407
77976W        W39342  39.029  16.228   4.801
77977W        W39343  31.978  21.571  12.386
77978W        W39344  42.945  44.381   4.192
77979W        W39345   8.303   2.835  10.596
77980W        W39346  42.983  27.031  11.591
77981W        W39347  15.597  24.016   0.311
77982W        W39348  36.932   0.311  12.366
77983W        W39349  19.262  18.670  12.357
77984W        W39350  36.975  29.423   0.390
77985W        W39351  31.960   5.762   3.375
77986W        W39352   4.812  41.367   4.282
77987W        W39353  25.174  17.570  10.414
77988W        W39354  22.086  22.696  13.424
77989W        W39355  43.372  39.959  13.946
77990W        W39356  29.935  31.472  10.543
77991W        W39357  27.176  39.500   4.259
77992W        W39358  32.939  29.065  10.443
77993W        W39359  34.453  29.650   2.821
77994W        W39360  14.264  32.581  14.295
77995W        W39361  16.126  36.417  12.078
77996W        W39362  12.718   8.326   2.672
77997W        W39363  14.121   7.770   4.676
77998W        W39364  37.579  44.938   3.761
77999W        W39365  43.328  37.405   1.327
78000W        W39366   7.358  22.609   2.288
78001W        W39367  34.994  19.157  13.492
78002W        W39368  33.100  23.190   3.741
78003W        W39369   3.251  17.689   3.265
78004W        W39370  12.708  21.609  12.020
78005W        W39371   9.327  33.980  10.572
78006W        W39372  10.233  39.857  13.395
78007W        W39373  36.527  28.446  12.910
78008W        W39374  19.200  30.572   4.251
78009W        W39375  30.958   4.346   2.671
78010W        W39376  20.157  27.072  11.051
78011W        W39377  17.119  44.451  10.536
78012W        W39378   6.731   9.366   0.840
78013W        W39379  12.773  26.514  12.061
78014W        W39380   6.376   7.813   2.727
78015W        W39381   9.749  21.626  11.595
78016W        W39382   6.317  14.609  12.001
78017W        W39383  15.231  30.954  13.321
78018W        W39384  15.653  22.562  13.813
78019W        W39385  13.222  16.119   0.306
78020W        W39386  21.688   4.730  12.468
78021W        W39387  20.701  10.843  14.939
78022W        W39388  41.434  44.410  14.402
78023W        W39389   5.265   5.384  13.526
78024W        W39390  16.609  29.467  10.979
78025W        W39391  38.455   4.930   2.255
78026W        W39392  32.102  42.810   0.474
78027W        W39393   6.696   3.849  12.074
78028W        W39394  23.653   0.796   2.739
78029W        W39395  10.819   3.354   2.397
78030W        W39396   5.265  13.818  11.468
78031W        W39397  24.618  35.431  10.899
78032W        W39398  38.530  30.102  11.502
78033W        W39399  23.036  25.026   1.447
78034W        W39400  24.545  41.359   2.851
78035W        W39401  16.293  20.079  10.475
78036W        W39402  43.361  15.101   3.721
78037W        W39403  43.019  13.737  13.004
78038W        W39404   3.379  27.678   4.619
78039W        W39405   3.896  28.994   3.753
78040W        W39406  30.925   2.756  14.005
78041W        W39407  23.078   9.661  12.875
78042W        W39408  22.181  38.386   0.387
78043W        W39409  24.123   2.371   5.149
78044W        W39410   7.824   4.910  13.329
78045W        W39411  19.626  24.686   0.821
78046W        W39412   3.288   8.194  12.473
78047W        W39413  17.762  15.772  13.827
78048W        W39414  27.989  12.680  10.028
78049W        W39415   1.881  19.549  12.860
78050W        W39416  21.629  20.720  12.002
78051W        W39417   0.889  33.896  13.924
78052W        W39418   3.863   3.422   1.930
78053W        W39419  13.175  17.668   2.260
78054W        W39420  24.565  43.978   4.643
78055W        W39421  25.515  24.133   2.417
78056W        W39422  39.483  22.024   0.905
78057W        W39423   9.246  34.913   3.683
78058W        W39424  21.721  15.737  13.054
78059W        W39425  44.268   5.817   2.692
78060W        W39426  16.679  40.011   3.676
78061W        W39427  44.791  20.156  14.864
78062W        W39428  20.168   3.882  10.480
78063W        W39429  36.390  36.360  12.407
78064W        W39430  27.962  41.419   3.166
78065W        W39431   4.916  39.020  11.954
78066W        W39432  32.030   0.808  11.060
78067W        W39433   8.227   9.669  11.097
78068W        W39434  36.357  34.581  12.440
78069W        W39435  25.691  34.999  14.816
78070W        W39436  42.306  12.832  11.454
78071W        W39437  33.008  19.616   2.698
78072W        W39438  10.260  31.140  14.758
78073W        W39439   5.687  25.124   4.618
78074W        W39440  28.037  37.387   5.146
78075W        W39441   7.706  19.263   2.796
78076W        W39442  37.005  24.515   4.759
78077W        W39443  40.997   8.229   1.237
78078W        W39444   2.956   9.280  12.048
78079W        W39445  31.598  30.604  14.509
78080W        W39446   6.687  41.948  13.796
78081W        W39447  14.270  33.606   3.713
78082W        W39448  14.268  22.732   2.746
78083W        W39449  25.047  32.631   0.462
78084W        W39450  41.385   7.219  10.624
78085W        W39451  41.022  43.345  14.336
78086W        W39452   5.394  20.696   1.310
78087W        W39453  11.822  42.377  10.495
78088W        W39454  33.433   9.854  14.472
78089W        W39455  34.956  33.563   4.733
78090W        W39456   9.865  40.819  12.024
78091W        W39457  10.274  32.988   3.647
78092W        W39458  11.335  14.264   3.309
78093W        W39459  41.960  44.436   1.799
78094W        W39460  35.081  43.515   2.201
78095W        W39461  33.988  14.675  11.583
78096W        W39462  39.527   1.771   4.658
78097W        W39463  34.521  14.181   1.859
78098W        W39464  15.307   5.837  13.052
78099W        W39465  10.765  35.103   3.276
78100W        W39466  19.271  25.051   0.373
78101W        W39467   7.850  27.471   3.325
78102W        W39468  10.287  38.502  11.932
78103W        W39469  23.025  24.013  12.905
78104W        W39470  27.065  12.720  14.984
78105W        W39471  23.107  43.511   0.461
78106W        W39472  24.557  15.815   0.817
78107W        W39473  24.127   5.401   4.677
78108W        W39474  40.024  43.954  13.933
78109W        W39475  39.418   3.322   3.356
78110W        W39476  43.270  26.023  13.499
78111W        W39477   5.762  37.471  11.116
78112W        W39478   8.346  16.135   2.847
78113W        W39479  19.556  40.500   1.716
78114W        W39480  31.117  25.098  13.494
78115W        W39481  11.235  23.651  11.917
78116W        W39482   3.748  36.889   2.808
78117W        W39483  21.254  40.913  14.769
78118W        W39484  13.227  28.129  13.053
78119W        W39485   8.291   0.433  12.524
78120W        W39486  28.526  37.547   0.915
78121W        W39487  32.539  43.806  10.629
78122W        W39488  26.687  25.046  13.791
78123W        W39489  41.301  40.928  13.797
78124W        W39490  16.273  40.542  11.416
78125W        W39491  36.454   2.957  14.399
78126W        W39492  31.097  39.015  13.020
78127W        W39493  37.403   2.352   5.208
78128W        W39494  31.011  21.571  12.543
78129W        W39495  29.173  26.123   3.312
78130W        W39496  16.631  37.497  12.556
78131W        W39497  12.778  36.916  12.079
78132W        W39498   9.790  21.032   2.767
78133W        W39499  22.203  28.178  13.914
78134W        W39500   9.290  18.263   0.751
78135W        W39501   8.841  40.490   0.967
78136W        W39502  22.009  32.962  13.374
78137W        W39503  44.896  22.201  14.425
78138W        W39504  24.165  27.999   3.177
78139W        W39505   4.229  23.532   1.882
78140W        W39506  12.299  24.649   1.884
78141W        W39507  43.336  15.677   5.138
78142W        W39508  17.571  38.454  12.055
78143W        W39509  39.505  20.583  11.464
78144W        W39510  38.422  29.031   3.696
78145W        W39511  10.707   2.840   2.357
78146W        W39512   4.714  44.924  13.979
78147W        W39513   9.230  33.033   4.742
78148W        W39514  43.343  28.674  14.487
78149W        W39515  28.672  15.726   1.834
78150W        W39516  29.975  37.517   3.793
78151W        W39517   5.435  32.946   3.343
78152W        W39518  41.470  42.782  14.771
78153W        W39519  12.285  41.898  12.392
78154W        W39520   9.384  33.122   1.774
78155W        W39521   9.305   8.371   0.788
78156W        W39522   3.955  17.302  12.029
78157W        W39523  24.159   5.428   2.713
78158W        W39524  38.513  23.609   0.816
78159W        W39525  12.678  16.201  14.004
78160W        W39526  31.501  40.467  11.876
78161W        W39527  43.353  16.229   3.786
78162W        W39528  16.107  10.348   0.458
78163W        W39529  21.039  13.254   1.282
78164W        W39530   2.304  30.513  14.795
78165W        W39531  23.029  37.445   0.940
78166W        W39532  16.670  27.606   4.313
78167W        W39533  35.955  43.967  11.411
78168W        W39534  28.677  22.504   0.768
78169W        W39535  30.928  40.855   2.735
78170W        W39536  11.213  24.171  12.531
78171W        W39537  16.624  28.934   2.816
78172W        W39538  22.248   2.830   2.857
78173W        W39539  41.406  41.450   1.764
78174W        W39540  17.602  32.889  14.358
78175W        W39541   0.926  30.009  14.367
78176W        W39542  21.652   1.915  13.876
78177W        W39543  40.482   6.797   4.661
78178W        W39544  22.623  19.622  11.069
78179W        W39545  21.513  25.058   2.327
78180W        W39546   0.371  39.910   4.276
78181W        W39547  19.723  21.681  13.030
78182W        W39548  28.669   8.697  13.401
78183W        W39549  43.018  26.498  11.111
78184W        W39550  17.163   2.441  13.968
78185W        W39551  11.865  30.480   4.326
78186W        W39552  14.243  18.266  11.036
78187W        W39553  31.497   0.850  11.066
78188W        W39554  18.100  23.680  11.940
78189W        W39555   2.776  23.643  11.046
78190W        W39556  27.971   2.441  10.009
78191W        W39557   4.919  32.542  12.952
78192W        W39558  35.362  31.554   2.301
78193W        W39559  16.587   8.841  13.366
78194W        W39560  25.623  14.743  13.029
78195W        W39561  11.776   3.291  10.073
78196W        W39562  27.034  39.373   3.180
78197W        W39563  17.202  15.163  12.083
78198W        W39564  41.449  28.640   0.760
78199W        W39565  39.926  11.637   3.362
78200W        W39566  37.469  31.596  11.890
78201W        W39567  37.519  17.612  11.428
78202W        W39568  40.379  35.999  10.422
78203W        W39569   5.319  25.967  10.431
78204W        W39570  40.816  23.091   3.784
78205W        W39571   1.808  33.618   1.880
78206W        W39572   9.883  12.135   0.434
78207W        W39573  40.995  22.550   2.897
78208W        W39574   3.398  15.768   2.417
78209W        W39575  24.613  29.665  14.778
78210W        W39576  38.826  13.714  10.897
78211W        W39577  41.978  38.452   1.733
78212W        W39578  41.333  44.391  14.807
78213W        W39579  26.597   7.889  11.570
78214W        W39580  37.082  26.685  11.436
78215W        W39581  17.619  32.098   2.361
78216W        W39582  27.004  17.302   2.332
78217W        W39583  21.099   6.683  13.417
78218W        W39584  31.435   7.401   4.728
78219W        W39585   3.915  20.214   2.832
78220W        W39586  23.532  33.402  10.048
78221W        W39587   2.236  17.098   0.786
78222W        W39588   9.277  18.263  12.554
78223W        W39589  14.153  29.521  11.427
78224W        W39590  20.089  20.077  11.892
78225W        W39591  34.518  18.052   2.347
78226W        W39592  21.696  12.683  13.367
78227W        W39593  35.960  16.273   3.765
78228W        W39594  42.856  27.468  11.963
78229W        W39595  22.578  32.397  13.821
78230W        W39596  36.458  10.347  10.033
78231W        W39597  22.689  36.989   0.456
78232W        W39598  38.928  11.259   2.720
78233W        W39599  15.157  43.887   3.284
78234W        W39600   1.325  44.781   3.183
78235W        W39601  22.171  34.369   1.768
78236W        W39602  33.596  17.261  13.968
78237W        W39603  39.934  39.314  10.895
78238W        W39604  26.508   6.363  13.463
78239W        W39605   4.408  41.798   4.140
78240W        W39606  44.430  39.336  14.946
78241W        W39607  31.537  24.705   0.253
78242W        W39608  34.522  39.888  11.381
78243W        W39609  12.315  32.486   2.847
78244W        W39610  38.443  39.353   3.816
78245W        W39611  11.374   5.393  13.962
78246W        W39612  39.984  12.763   0.878
78247W        W39613  15.658  38.927  13.506
78248W        W39614  29.934  34.021   0.370
78249W        W39615  29.507  12.783  13.331
78250W        W39616  26.002  32.558   0.366
78251W        W39617   0.958  23.164   4.327
78252W        W39618  25.571  26.184   1.430
78253W        W39619  13.219   3.287   4.771
78254W        W39620   8.167  30.643  13.963
78255W        W39621  38.030  10.359   2.204
78256W        W39622  20.236  11.733  11.530
78257W        W39623  16.090   1.810   3.631
78258W        W39624  41.463  18.192   2.284
78259W        W39625  34.394  35.486   4.216
78260W        W39626  25.589   9.193  10.432
78261W        W39627   9.695  35.025  10.485
78262W        W39628  15.217  13.832   2.319
78263W        W39629  20.111   7.699   0.751
78264W        W39630  20.678   7.406  13.315
78265W        W39631   5.702  34.499  12.546
78266W        W39632  19.267  27.633   2.712
78267W        W39633  37.359  10.272   4.678
78268W        W39634  39.856  13.701  11.947
78269W        W39635   2.328  15.776   3.867
78270W        W39636  26.608  41.292   2.217
78271W        W39637  24.023  26.544  11.599
78272W        W39638  17.197  14.686   0.321
78273W        W39639  22.198  15.640   2.229
78274W        W39640  11.853   6.375  11.513
78275W        W39641  31.065   4.858   1.442
78276W        W39642   1.793  30.151  13.481
78277W        W39643  29.436  42.519   2.828
78278W        W39644  20.101   6.264   4.725
78279W        W39645  26.532  25.695  11.388
78280W        W39646   9.285  37.862   3.764
78281W        W39647   0.903  27.515   3.229
78282W        W39648  36.049  21.663   4.702
78283W        W39649  22.682  23.206   4.676
78284W        W39650   2.454  17.126   4.700
78285W        W39651  16.278  36.880  13.966
78286W        W39652  42.990  31.630   1.266
78287W        W39653   9.854  15.821   3.703
78288W        W39654  33.095   8.860  10.575
78289W        W39655   0.423  25.676   0.322
78290W        W39656  17.775  25.482   0.835
78291W        W39657   6.912  11.273   3.856
78292W        W39658  29.426   6.357   4.243
78293W        W39659  10.228  43.293   0.883
78294W        W39660  44.993  34.375  12.510
78295W        W39661  29.169  17.201  14.964
78296W        W39662  30.502   4.813   0.874
78297W        W39663  33.928  30.105   0.305
78298W        W39664  31.496   0.265  12.075
78299W        W39665   3.362   0.762   5.195
78300W        W39666  36.533   8.309   1.345
78301W        W39667  39.056  44.488   4.185
78302W        W39668  32.109  34.898   1.426
78303W        W39669  31.998   9.778   4.217
78304W        W39670   6.869  15.271   3.308
78305W        W39671  14.768  12.267   4.165
78306W        W39672  33.459  35.933  10.065
78307W        W39673  17.259  33.459   2.387
78308W        W39674  19.265  37.909   4.133
78309W        W39675   3.820  36.847   3.734
78310W        W39676   7.212  16.232   2.293
78311W        W39677  17.662  30.149   0.405
78312W        W39678  33.087  31.470  13.898
78313W        W39679   2.824  17.261  14.949
78314W        W39680  11.714  14.714  14.975
78315W        W39681  30.431   3.919   2.400
78316W        W39682  43.508   0.391   3.356
78317W        W39683  34.070  30.133   3.804
78318W        W39684  32.897  20.705  14.359
78319W        W39685  37.410  13.292  13.998
78320W        W39686  20.724  38.436   0.404
78321W        W39687  36.590  24.548   0.736
78322W        W39688  36.495  10.828  14.392
78323W        W39689   4.447   3.948   3.739
78324W        W39690  15.745   0.950   1.329
78325W        W39691  13.257  19.584  12.911
78326W        W39692  17.734   8.349  11.474
78327W        W39693  37.868   1.796  12.372
78328W        W39694   3.264  12.697   3.325
78329W        W39695   8.686  10.165   3.864
78330W        W39696  12.648   8.843  12.024
78331W        W39697  26.606  21.262   2.786
78332W        W39698  30.537  11.776   0.251
78333W        W39699  28.674  16.651  13.835
78334W        W39700  24.978  27.942  14.032
78335W        W39701   5.245   2.338  11.515
78336W        W39702   3.340  17.168   1.818
78337W        W39703  33.016  13.140  14.468
78338W        W39704   6.297  19.777  14.825
78339W        W39705  38.379  26.516   3.235
78340W        W39706  23.150  22.716  12.089
78341W        W39707  24.144  35.895   2.320
78342W        W39708   7.228  23.000   0.326
78343W        W39709   3.867  37.488  10.407
78344W        W39710  31.004  22.091   5.589
78345W        W39711  19.769  33.447   3.244
78346W        W39712  39.423  15.203   1.798
78347W        W39713  42.401  42.366  12.020
78348W        W39714  28.126  25.213   0.313
78349W        W39715  22.538  11.623   2.303
78350W        W39716  33.576   5.384  10.104
78351W        W39717   4.814  31.146   4.626
78352W        W39718  27.639   2.394  13.307
78353W        W39719  21.574  43.857   1.894
78354W        W39720  16.185  41.368   1.864
78355W        W39721  13.604  36.482   3.676
78356W        W39722  13.717   2.317  12.554
78357W        W39723  13.179  40.526  10.619
78358W        W39724  43.900  19.254   4.819
78359W        W39725  11.169  15.579   4.150
78360W        W39726  31.917  26.026   1.390
78361W        W39727  27.674  21.581  14.027
78362W        W39728  22.612  14.144   1.713
78363W        W39729  14.657  16.095   2.311
78364W        W39730  20.638  25.056   3.383
78365W        W39731   4.936  32.568   1.383
78366W        W39732  20.222  42.339   0.778
78367W        W39733  25.516  44.418   0.291
78368W        W39734  44.501   4.266   0.924
78369W        W39735  11.220   8.228  12.521
78370W        W39736   5.921  25.069  10.462
78371W        W39737   6.726   7.285   2.363
78372W        W39738  21.233  10.157   5.194
78373W        W39739  11.720   7.676   3.724
78374W        W39740  11.331  29.476  14.282
78375W        W39741  41.357  22.712   2.822
78376W        W39742   2.385  34.936   2.193
78377W        W39743  37.373   4.324   4.114
78378W        W39744  40.858   7.317  14.491
78379W        W39745  34.951  38.828  13.359
78380W        W39746  42.870   4.890   1.231
78381W        W39747  36.868  29.114   1.873
78382W        W39748  24.130  29.066  11.059
78383W        W39749  15.729  13.838  11.385
78384W        W39750  19.161  16.609   9.978
78385W        W39751  42.302   7.264   3.865
78386W        W39752   3.414  34.488  11.558
78387W        W39753  35.516  41.926   3.386
78388W        W39754  21.664  26.133   0.379
78389W        W39755   1.775  27.164  11.605
78390W        W39756  22.214  18.145  12.912
78391W        W39757   5.295   9.855  14.428
78392W        W39758  44.763  16.118   0.477
78393W        W39759   8.748  40.418  12.919
78394W        W39760  21.187   4.820  12.892
78395W        W39761   2.886  24.511   1.919
78396W        W39762  36.861   8.185  12.557
78397W        W39763  16.711  44.369  12.914
78398W        W39764   9.156  15.642  11.548
78399W        W39765  27.025  39.489   1.834
78400W        W39766  41.969  44.875   0.288
78401W        W39767   1.340  21.215  10.552
78402W        W39768  40.478   9.180   0.328
78403W        W39769  29.934   4.812  12.903
78404W        W39770  41.934   0.963   4.599
78405W        W39771   4.243  32.552  11.605
78406W        W39772  20.203  40.385  14.467
78407W        W39773  44.484  21.730  10.998
78408W        W39774   9.860   5.397  14.801
78409W        W39775  36.464  25.195  12.404
78410W        W39776  15.580  38.953   4.277
78411W        W39777   4.772   9.720  12.431
78412W        W39778  44.491   6.790   0.312
78413W        W39779  38.915  22.199   3.152
78414W        W39780   6.894  34.509  11.393
78415W        W39781   8.335  17.199   1.224
78416W        W39782  23.688  19.256  10.436
78417W        W39783   3.824  24.498   3.188
78418W        W39784  24.543  22.685   1.360
78419W        W39785   7.844  21.194   0.413
78420W        W39786  28.517   1.295  13.974
78421W        W39787  35.036  22.101  11.109
78422W        W39788   5.321  42.420  14.833
78423W        W39789   0.258  36.452   2.808
78424W        W39790  11.318  31.982  10.138
78425W        W39791  22.033  25.997   1.733
78426W        W39792  34.532  19.217  13.985
78427W        W39793  38.922   2.721  13.836
78428W        W39794  40.444  40.338  14.029
78429W        W39795  34.915  40.337  13.966
78430W        W39796   0.911   8.712  13.890
78431W        W39797  38.056  42.948  14.936
78432W        W39798  29.639  17.189   1.399
78433W        W39799  34.093  17.107   4.639
78434W        W39800  30.626  12.278  10.560
78435W        W39801  20.133  27.192  14.400
78436W        W39802  38.990   2.839   3.319
78437W        W39803  28.168  10.382  13.514
78438W        W39804  14.598  20.761   0.813
78439W        W39805   4.326  30.984   9.973
78440W        W39806  13.112  19.635  12.470
78441W        W39807  11.708   7.322   2.254
78442W        W39808  34.029   2.297   1.443
78443W        W39809  29.459  36.010  10.554
78444W        W39810  19.233  24.665  14.280
78445W        W39811  31.419  43.773   1.856
78446W        W39812  18.730  11.712  11.516
78447W        W39813  35.529  40.817   0.419
78448W        W39814  22.587  20.190   4.170
78449W        W39815  24.213   4.722   4.733
78450W        W39816  28.183  27.509   1.372
78451W        W39817  14.239  38.453  12.846
78452W        W39818  23.724  41.509  13.325
78453W        W39819  12.755  18.186  14.811
78454W        W39820   9.186  38.402  11.084
78455W        W39821  19.776  26.171  11.047
78456W        W39822  15.668  29.583   4.279
78457W        W39823  28.951  43.786   3.248
78458W        W39824  17.197  35.895  13.320
78459W        W39825   4.770   1.334   4.312
78460W        W39826   9.729  13.674  14.446
78461W        W39827   3.428  30.050   0.963
78462W        W39828  20.230   6.869   1.240
78463W        W39829   1.836  20.659  11.025
78464W        W39830  36.059  18.661  12.510
78465W        W39831  24.011  27.592   3.699
78466W        W39832   2.733  42.956   2.678
78467W        W39833  35.401  33.587  14.411
78468W        W39834  22.190  11.343   0.956
78469W        W39835  20.249   8.684  11.439
78470W        W39836  38.455  33.601  14.450
78471W        W39837  35.901  35.972   2.895
78472W        W39838  25.533  20.188  14.400
78473W        W39839  23.495   6.402   3.341
78474W        W39840  23.227  44.829   2.827
78475W        W39841  38.849  17.579  12.409
78476W        W39842   5.803  35.076   4.678
78477W        W39843  19.712  22.099  12.037
78478W        W39844  25.542   6.286   1.384
78479W        W39845  19.060  12.733  11.419
78480W        W39846  30.154  37.009  11.973
78481W        W39847  34.037  22.633   3.362
78482W        W39848   5.842  15.246  13.870
78483W        W39849  34.105  36.848  14.349
78484W        W39850  28.472  11.835  14.498
78485W        W39851  25.503   7.814   2.798
78486W        W39852  33.380  16.158  14.310
78487W        W39853  22.112  28.186   4.812
78488W        W39854  10.139   7.298   4.608
78489W        W39855   8.860  36.004  12.410
78490W        W39856   7.745  41.912  12.879
78491W        W39857  19.698  35.365   2.763
78492W        W39858  26.576   7.223  13.314
78493W        W39859  17.617  31.562  12.555
78494W        W39860  30.961  12.244   4.299
78495W        W39861  10.311  14.114   2.675
78496W        W39862  34.442  27.102  10.539
78497W        W39863  41.875  27.958   3.661
78498W        W39864  24.558  40.424   3.748
78499W        W39865  11.198   1.867   1.338
78500W        W39866  32.965  35.998  14.323
78501W        W39867  32.475  26.159   4.646
78502W        W39868   3.290   3.393   9.559
78503W        W39869  38.853  33.932  13.410
78504W        W39870  37.861   2.242  14.928
78505W        W39871  11.792  29.065  12.499
78506W        W39872  10.172  36.352   4.835
78507W        W39873  43.798  19.204  13.526
78508W        W39874   4.742   7.270   4.741
78509W        W39875  42.925  26.166  10.516
78510W        W39876   1.270  26.492  14.866
78511W        W39877  26.533   4.204  13.059
78512W        W39878   2.239  32.103   4.730
78513W        W39879   0.470   6.217  14.884
78514W        W39880  40.414  43.982  13.417
78515W        W39881  15.091   3.931   0.415
78516W        W39882  43.495  16.218  12.832
78517W        W39883  33.543  26.182   1.708
78518W        W39884  38.446  18.613   3.310
78519W        W39885  33.922  25.499  14.993
78520W        W39886  20.710   3.884  14.919
78521W        W39887  21.592  22.201  14.356
78522W        W39888  33.948  42.511   2.753
78523W        W39889  24.124  32.950  12.916
78524W        W39890  44.430   1.920   4.172
78525W        W39891  23.069  23.524   0.911
78526W        W39892  40.971  28.503   1.739
78527W        W39893  30.051  10.768  10.615
78528W        W39894  36.864  30.537   2.411
78529W        W39895  12.748  20.589  13.509
78530W        W39896   1.966   8.836  14.889
78531W        W39897  30.064  12.335  12.951
78532W        W39898   5.741  27.676  13.000
78533W        W39899  21.591  37.962  13.968
78534W        W39900  12.705  27.133  12.529
78535W        W39901  36.544  15.138   0.483
78536W        W39902  11.693   7.747  14.407
78537W        W39903  28.152  16.605  10.128
78538W        W39904   3.920  12.121  13.968
78539W        W39905  41.309  35.401  14.992
78540W        W39906  24.155  27.537   4.124
78541W        W39907   2.250  44.304  10.407
78542W        W39908  35.476  31.410   1.232
78543W        W39909  19.724  34.507   0.414
78544W        W39910  41.821  40.441   5.240
78545W        W39911  17.248  10.223  12.543
78546W        W39912  23.134  43.475  10.922
78547W        W39913  27.091  39.910   1.385
78548W        W39914  32.133   2.458  14.010
78549W        W39915   2.796   1.458  10.518
78550W        W39916  25.058  14.105  12.402
78551W        W39917  39.381  22.104   1.694
78552W        W39918  24.132  31.443   0.265
78553W        W39919  25.045  13.325  12.966
78554W        W39920   5.843  14.171  13.494
78555W        W39921  10.212  27.100   4.303
78556W        W39922  23.201  34.403   1.216
78557W        W39923   5.844  35.932  11.460
78558W        W39924  18.702  29.496  10.417
78559W        W39925   8.346  13.212  14.817
78560W        W39926  28.534  33.070  11.544
78561W        W39927  10.862  31.609   1.782
78562W        W39928  15.787  26.643  12.517
78563W        W39929  34.055  34.886  10.614
78564W        W39930   5.218   3.928  12.009
78565W        W39931  38.870   5.756  10.153
78566W        W39932  12.162  10.209   2.203
78567W        W39933  39.320  38.429  13.464
78568W        W39934  12.706  42.775  13.495
78569W        W39935  26.546  11.782  12.403
78570W        W39936  21.100  23.157   0.902
78571W        W39937  29.520  14.241  11.891
78572W        W39938  44.960  27.136   1.792
78573W        W39939  33.531  31.925   2.685
78574W        W39940  43.428   9.661   0.766
78575W        W39941  12.739   1.410  11.945
78576W        W39942  37.363  32.634  11.942
78577W        W39943   9.307   7.393   5.120
78578W        W39944  16.724  17.619   1.217
78579W        W39945  21.065  40.039   4.727
78580W        W39946  13.206   4.725  12.419
78581W        W39947  12.257  39.967   2.862
78582W        W39948  42.293  19.778  13.815
78583W        W39949  33.594  11.267   4.717
78584W        W39950  28.027  22.515   3.320
78585W        W39951   4.212   6.900   1.269
78586W        W39952  15.217  35.518   4.336
78587W        W39953  25.690  10.695   2.288
78588W        W39954  15.724  12.714   1.695
78589W        W39955  38.828  10.323   3.153
78590W        W39956  10.806   8.833   3.234
78591W        W39957  10.190  35.989  13.428
78592W        W39958   5.876  44.756   1.750
78593W        W39959  14.660  16.126  11.510
78594W        W39960  23.047  33.091   2.890
78595W        W39961  31.995  34.890  14.311
78596W        W39962  18.184   6.824   3.210
78597W        W39963  30.092   5.340  12.921
78598W        W39964  32.474  35.861   4.296
78599W        W39965  37.494  13.118   5.244
78600W        W39966   4.721   9.394  10.604
78601W        W39967  10.673   7.706   0.360
78602W        W39968  24.993  11.355  11.110
78603W        W39969  34.018  18.221  10.434
78604W        W39970  11.207  43.496  14.418
78605W        W39971  20.689  26.052  12.891
78606W        W39972  32.612  28.620   4.789
78607W        W39973   7.714  24.159   5.131
78608W        W39974   7.414  28.113   0.387
78609W        W39975   9.312  24.992  13.973
78610W        W39976  33.061   5.297  11.035
78611W        W39977  24.052  38.385   0.933
78612W        W39978  27.542   7.733   0.762
78613W        W39979  37.889  41.912  12.974
78614W        W39980  39.445  44.952  10.558
78615W        W39981  30.920  21.645   2.761
78616W        W39982  23.210   5.907  12.831
78617W        W39983   6.363   9.172   0.852
78618W        W39984  12.350  36.575   9.974
78619W        W39985   8.350  35.475   3.350
78620W        W39986  14.332  12.126  11.025
78621W        W39987  21.142   4.436   1.316
78622W        W39988  18.290  38.867  12.056
78623W        W39989   2.388   8.290  12.398
78624W        W39990  37.565   8.676   2.198
78625W        W39991   6.771  12.712  13.426
78626W        W39992  42.856  11.683  10.505
78627W        W39993  42.804  35.961   3.327
78628W        W39994   8.403  21.225   3.379
78629W        W39995  10.706  13.169   1.366
78630W        W39996   6.899  30.015   3.764
78631W        W39997   3.864  31.599   0.962
78632W        W39998  28.959  26.527   4.658
78633W        W39999  18.136   6.406  11.505
78634W        W40000  35.398   0.830  13.931
78635W        W40001  29.542   2.807  13.345
78636W        W40002  11.350  34.410   4.189
78637W        W40003  34.911  12.809   1.777
78638W        W40004   7.323   2.263  12.077
78639W        W40005   5.391  29.561  13.995
78640W        W40006  10.752   4.705   4.136
78641W        W40007  18.642  25.128  14.791
78642W        W40008  39.317  30.958   4.660
78643W        W40009  35.543  41.392   3.735
78644W        W40010  10.341   9.164  14.335
78645W        W40011  22.689   0.789   3.852
78646W        W40012  42.987  19.246   1.309
78647W        W40013  11.338   5.901  11.933
78648W        W40014  29.117   4.907  12.433
78649W        W40015  32.505  28.147   3.318
78650W        W40016  13.725  15.301  13.930
78651W        W40017   4.899  37.883  12.836
78652W        W40018  32.951  25.186   4.129
78653W        W40019  11.349  29.050  11.949
78654W        W40020   2.286  25.078   4.763
78655W        W40021  20.547  28.517  10.908
78656W        W40022  17.561  22.723   1.239
78657W        W40023  40.334   7.718  12.576
78658W        W40024  37.451  15.316  13.423
78659W        W40025  41.487  20.624  13.378
78660W        W40026  27.122  16.104   2.876
78661W        W40027   6.689  21.653   3.643
78662W        W40028  12.331  44.885   0.953
78663W        W40029  29.026  19.195  11.535
78664W        W40030  22.063  18.775   2.320
78665W        W40031  15.096  36.018   4.143
78666W        W40032  15.685  41.366  12.548
78667W        W40033  18.784  22.072   1.391
78668W        W40034  34.610  19.252  14.863
78669W        W40035   1.323  24.134   3.226
78670W        W40036  12.814  20.527   4.715
78671W        W40037  28.528  23.025  10.630
78672W        W40038  28.462   6.325  10.522
78673W        W40039  21.626  38.883  12.576
78674W        W40040  42.939  18.140  11.953
78675W        W40041  23.534  35.499   2.334
78676W        W40042   2.243  20.107   4.305
78677W        W40043  27.055  13.321  12.491
78678W        W40044  15.784  11.775   0.845
78679W        W40045  39.388  24.657   1.340
78680W        W40046  21.734  41.410  14.417
78681W        W40047  16.637  22.575   0.803
78682W        W40048  30.547   8.380  12.966
78683W        W40049  28.492  42.909   4.655
78684W        W40050  15.720  41.407  14.990
78685W        W40051  14.821  41.500  14.810
78686W        W40052   7.343  14.781   4.123
78687W        W40053   1.267   3.266  11.035
78688W        W40054  19.105   1.866  11.962
78689W        W40055  34.871  42.489   4.132
78690W        W40056   5.709  41.871  13.884
78691W        W40057  40.386  35.933  12.066
78692W        W40058  41.989  39.414   2.751
78693W        W40059   0.352   8.761  10.570
78694W        W40060  44.480  28.081   0.751
78695W        W40061  41.951  21.132   2.268
78696W        W40062  24.549  18.257  12.967
78697W        W40063   9.263  36.010   3.845
78698W        W40064  36.549  22.014  10.642
78699W        W40065  15.785  18.163   4.764
78700W        W40066  33.874  44.290  11.400
78701W        W40067  34.980  42.780   9.951
78702W        W40068  36.583  37.848   3.812
78703W        W40069   1.817  26.166  11.394
78704W        W40070  38.509  13.841   1.409
78705W        W40071  10.649   7.712  14.009
78706W        W40072  42.827  37.408   4.307
78707W        W40073  30.555  15.147  14.819
78708W        W40074  40.387  32.391   3.252
78709W        W40075  23.633   9.862   2.333
78710W        W40076   1.758  40.367  12.082
78711W        W40077   7.767   0.748  11.482
78712W        W40078  31.504  22.685   0.876
78713W        W40079  39.955  28.052  13.428
78714W        W40080   5.803  27.053  13.371
78715W        W40081  38.913  35.963  13.944
78716W        W40082  12.849  27.174  10.612
78717W        W40083  33.443   8.176  11.438
78718W        W40084   4.900  31.998  14.301
78719W        W40085  22.558  19.599  10.539
78720W        W40086  24.117  29.933  13.900
78721W        W40087  43.016  27.942   0.462
78722W        W40088  31.044  26.169   1.733
78723W        W40089  12.762  20.744  11.588
78724W        W40090  21.245  37.905   4.692
78725W        W40091  38.486   2.253   4.315
78726W        W40092  33.598   2.334  14.302
78727W        W40093  31.037  39.029  12.431
78728W        W40094  35.973   2.426  10.914
78729W        W40095   4.343  21.231   0.243
78730W        W40096   0.806   0.810  11.939
78731W        W40097  39.321  37.425  11.085
78732W        W40098  18.092  43.007  12.920
78733W        W40099  43.852   1.782   0.334
78734W        W40100  44.799   7.286  11.985
78735W        W40101   3.771   7.267  11.111
78736W        W40102  19.233  16.762   2.808
78737W        W40103  40.453  18.627  13.046
78738W        W40104  19.047  15.651   2.273
78739W        W40105  40.378   6.688  12.468
78740W        W40106   8.351   6.769   4.666
78741W        W40107  25.090  28.175  13.390
78742W        W40108  37.944  29.122   0.834
78743W        W40109   0.385  22.737  10.440
78744W        W40110   5.918  32.911   0.839
78745W        W40111  23.559  29.107   0.744
78746W        W40112   3.216   7.202   1.326
78747W        W40113  33.603  29.521  13.993
78748W        W40114  25.585   6.733  13.869
78749W        W40115  26.170  32.621   4.692
78750W        W40116  24.710  30.599   5.248
78751W        W40117  25.480   5.916   3.281
78752W        W40118  26.474  36.021  12.499
78753W        W40119  28.629  32.103  13.386
78754W        W40120  29.593  34.979   1.752
78755W        W40121  26.137  22.089  13.046
78756W        W40122  42.007  21.599   1.702
78757W        W40123  31.055  23.218   2.283
78758W        W40124  27.004  33.447  11.857
78759W        W40125  35.002  27.553   4.209
78760W        W40126  19.649  31.057  11.579
78761W        W40127  10.376  42.513   2.235
78762W        W40128  44.263  34.934  12.578
78763W        W40129   8.834   5.229  10.513
78764W        W40130  31.011  23.122   3.191
78765W        W40131  35.523   7.831  13.942
78766W        W40132  15.140  20.598  12.960
78767W        W40133  12.844  12.618  13.446
78768W        W40134  17.779   9.190  11.960
78769W        W40135   1.427   9.712   3.661
78770W        W40136   7.389  35.548  14.402
78771W        W40137  36.064  29.064   0.900
78772W        W40138   0.453  17.275  13.848
78773W        W40139  15.652  15.185  13.897
78774W        W40140  16.712   6.896   4.715
78775W        W40141  24.622  26.978  13.318
78776W        W40142  34.040   1.318   4.723
78777W        W40143  11.640  26.570   4.286
78778W        W40144   5.252   3.416   0.339
78779W        W40145   4.761  22.589   0.787
78780W        W40146   8.322  17.654   0.466
78781W        W40147  40.860  36.849  14.817
78782W        W40148   9.323   6.735  10.975
78783W        W40149   1.953  41.313   1.368
78784W        W40150  14.729  21.073   4.824
78785W        W40151  17.248  27.676   4.726
78786W        W40152   2.769   4.941   0.842
78787W        W40153  42.957  40.459  13.364
78788W        W40154  18.633  23.005  11.893
78789W        W40155  27.648  24.524  13.380
78790W        W40156  42.991  31.483   1.768
78791W        W40157   9.193  21.717  12.923
78792W        W40158  14.704  36.587  14.943
78793W        W40159  28.593  24.076  12.029
78794W        W40160   7.770  42.464  11.893
78795W        W40161  27.636  24.006  13.499
78796W        W40162  32.495  40.988  12.095
78797W        W40163  13.304  36.900   4.682
78798W        W40164  21.072  13.324   0.762
78799W        W40165  24.072  23.041  12.083
78800W        W40166  29.096  18.156  14.947
78801W        W40167  13.179  36.579  13.901
78802W        W40168   0.842  12.769   2.902
78803W        W40169   9.154   1.889  12.432
78804W        W40170  42.319  42.815  13.325
78805W        W40171  39.387  19.722   1.728
78806W        W40172  25.487  20.696   3.635
78807W        W40173  12.269   5.378   0.464
78808W        W40174  25.173  30.122  11.049
78809W        W40175  37.420  28.665   1.368
78810W        W40176  17.633  43.307  14.946
78811W        W40177  43.349  40.460   2.857
78812W        W40178  32.587  39.928  14.280
78813W        W40179  33.414  21.240   3.804
78814W        W40180  34.594   6.874   2.883
78815W        W40181  10.235  23.653  11.412
78816W        W40182   6.869   6.361  14.423
78817W        W40183   6.706  19.217   2.377
78818W        W40184   5.724   0.870  10.623
78819W        W40185   6.767  21.051  12.076
78820W        W40186   2.275  38.428  12.506
78821W        W40187  17.194  17.248   3.166
78822W        W40188   3.238  18.193   0.745
78823W        W40189  35.894  41.533  12.835
78824W        W40190  29.493   5.218   0.426
78825W        W40191   0.938  37.405  10.098
78826W        W40192   1.453  10.191  11.998
78827W        W40193  35.102  11.251  10.555
78828W        W40194  11.201  43.276   4.189
78829W        W40195  26.119  19.186  14.860
78830W        W40196  30.627  26.060  12.416
78831W        W40197  19.540  36.509   2.201
78832W        W40198   0.476  34.099   1.820
78833W        W40199  42.376  38.047  11.539
78834W        W40200   0.905   0.744   1.273
78835W        W40201   9.748  42.419   2.895
78836W        W40202  14.603  18.640   3.829
78837W        W40203  17.072   3.913   0.301
78838W        W40204  12.641  41.532  10.611
78839W        W40205  35.436  14.206  12.022
78840W        W40206   7.845   9.393  14.914
78841W        W40207  13.630  40.475  11.118
78842W        W40208  16.614   0.828  14.948
78843W        W40209   6.308  31.564  14.295
78844W        W40210  24.605  14.708  12.927
78845W        W40211  21.098  24.517   4.157
78846W        W40212  28.942  24.682   3.720
78847W        W40213  29.516   0.279  13.044
78848W        W40214  24.600  14.137  10.601
78849W        W40215  33.067  32.015  13.540
78850W        W40216  10.239  32.064  14.964
78851W        W40217   3.395  13.828   5.161
78852W        W40218  26.497   2.313   0.453
78853W        W40219  35.449  18.108  11.496
78854W        W40220  20.557  40.893  11.053
78855W        W40221   0.824  28.593  12.841
78856W        W40222  41.435  17.781  10.589
78857W        W40223   3.263   0.943   4.600
78858W        W40224  43.805  31.107   0.917
78859W        W40225  25.046  43.777   3.642
78860W        W40226  23.182  19.645  12.857
78861W        W40227  10.222  13.683  10.503
78862W        W40228   4.834  21.165   4.639
78863W        W40229  34.982   8.756  10.508
78864W        W40230  41.407  17.705   4.791
78865W        W40231  41.456   1.968  10.922
78866W        W40232  11.241  43.833   2.717
78867W        W40233  14.809  10.791  12.842
78868W        W40234  35.929  15.128  12.890
78869W        W40235  35.093  35.051   3.738
78870W        W40236  30.092  42.522   2.337
78871W        W40237  38.432  15.707   0.756
78872W        W40238  17.775  33.625  11.526
78873W        W40239  32.027  22.686   2.788
78874W        W40240   3.734   0.288  11.535
78875W        W40241  31.116  15.087  11.992
78876W        W40242  30.989  33.416  11.993
78877W        W40243  21.725  25.146  13.380
78878W        W40244  25.618   9.779   3.688
78879W        W40245  33.527  38.938   3.373
78880W        W40246  26.458  40.983   0.473
78881W        W40247  13.133   5.284  12.536
78882W        W40248  13.716   5.401   2.668
78883W        W40249  19.130  32.087   0.847
78884W        W40250  31.054  21.516   2.216
78885W        W40251  30.605   8.675   4.803
78886W        W40252  11.327  30.419   0.834
78887W        W40253  36.576  23.997  10.961
78888W        W40254  32.444  13.209  11.377
78889W        W40255  23.702   6.406   1.723
78890W        W40256  40.538  36.865   3.769
78891W        W40257  25.184  40.318  13.311
78892W        W40258  31.559  29.516  13.365
78893W        W40259  19.568  38.963   1.858
78894W        W40260  39.547   2.386   3.335
78895W        W40261  25.588  39.351   3.662
78896W        W40262  41.004  43.313  10.990
78897W        W40263  20.129  36.400   2.741
78898W        W40264  22.061  24.159  14.885
78899W        W40265   5.932   5.892   2.685
78900W        W40266  26.006   1.797  10.523
78901W        W40267  28.638  35.081   4.713
78902W        W40268  39.975  33.411   3.788
78903W        W40269   9.807  19.219  11.562
78904W        W40270  16.294   8.748  12.410
78905W        W40271   7.739   4.855  13.865
78906W        W40272  21.079   8.353   3.646
78907W        W40273   3.744  29.639  11.580
78908W        W40274  34.546  16.140   3.773
78909W        W40275  37.047   9.255   4.195
78910W        W40276  18.595  13.728  12.497
78911W        W40277  14.739  20.099  11.517
78912W        W40278  13.202  22.706  14.880
78913W        W40279  32.028  22.704  14.874
78914W        W40280   9.741  18.648  11.403
78915W        W40281  13.145  38.396  13.822
78916W        W40282  38.904  43.958  11.511
78917W        W40283  24.148   8.374   0.926
78918W        W40284  20.721  21.678   3.369
78919W        W40285  44.848  25.586   0.435
78920W        W40286   5.405   7.256   0.274
78921W        W40287  38.460  13.647   2.273
78922W        W40288  21.083  37.423   0.918
78923W        W40289  20.746   5.273   3.811
78924W        W40290  32.959  22.080   4.148
78925W        W40291  14.699  22.214  11.471
78926W        W40292  16.138   0.301   1.844
78927W        W40293  25.648  44.293   9.942
78928W        W40294  41.895  11.198   2.404
78929W        W40295  22.198   2.418  14.986
78930W        W40296  39.542   6.778   1.388
78931W        W40297  34.475  21.623   1.424
78932W        W40298  20.058  28.116  14.905
78933W        W40299  42.400   7.709   3.668
78934W        W40300  20.637  27.457  14.765
78935W        W40301  33.104  36.971   1.831
78936W        W40302   8.227   8.862   4.805
78937W        W40303  27.965  26.522   1.840
78938W        W40304   3.817  34.963  14.389
78939W        W40305   9.656   3.894   4.287
78940W        W40306  32.451   5.280  12.034
78941W        W40307  40.039   7.303   3.272
78942W        W40308  17.094  43.936   3.313
78943W        W40309  13.304  15.712   5.212
78944W        W40310   7.833  19.645   0.315
78945W        W40311  42.508  36.010   4.684
78946W        W40312  36.094  36.917   1.706
78947W        W40313   3.734   7.351  12.349
78948W        W40314   9.245  37.903   4.166
78949W        W40315  11.638  13.761  11.951
78950W        W40316  29.000   4.853  13.540
78951W        W40317  28.611  40.315  10.999
78952W        W40318  10.145  19.208  13.961
78953W        W40319  21.127   8.707   4.814
78954W        W40320  11.635   5.280   1.820
78955W        W40321  40.512  18.173   0.939
78956W        W40322  16.763  17.612   2.663
78957W        W40323  40.303   7.275   1.710
78958W        W40324  21.667  27.471   2.372
78959W        W40325  44.877  21.024  13.521
78960W        W40326  40.490  28.671  11.042
78961W        W40327   7.246   2.438   1.904
78962W        W40328  38.898  44.429   3.757
78963W        W40329  34.459   4.843   1.278
78964W        W40330  33.598  13.346   5.091
78965W        W40331  19.272  15.099   1.314
78966W        W40332   9.654   2.250   2.211
78967W        W40333  43.944  43.305   1.815
78968W        W40334   7.235  15.747  14.308
78969W        W40335  28.110   7.289   3.745
78970W        W40336  26.033  15.676  10.430
78971W        W40337  37.368   9.205  12.992
78972W        W40338  20.058  23.122  12.975
78973W        W40339  12.215  18.673   3.668
78974W        W40340  10.272  18.703   0.455
78975W        W40341  18.752  35.914   5.132
78976W        W40342  18.275  12.245   1.280
78977W        W40343  15.115  14.104   2.899
78978W        W40344   9.182  26.110   1.821
78979W        W40345  13.283   2.964  14.412
78980W        W40346   0.263   1.851  13.035
78981W        W40347  19.131   1.920   0.917
78982W        W40348   2.327  44.802   4.136
78983W        W40349   4.772  44.491   4.642
78984W        W40350  43.282  14.291  14.337
78985W        W40351  22.202  27.495   4.836
78986W        W40352  37.416   9.328   3.307
78987W        W40353   7.400  16.720  14.762
78988W        W40354  20.100   3.330   5.246
78989W        W40355  35.434  38.473   3.155
78990W        W40356  23.044  32.906  11.066
78991W        W40357  34.105  13.202   0.802
78992W        W40358  21.656   4.286   0.959
78993W        W40359   5.695  17.176   2.843
78994W        W40360   1.265  29.492   3.281
78995W        W40361   6.714  36.922   0.923
78996W        W40362   8.239  21.646   0.864
78997W        W40363  12.198   8.278  13.539
78998W        W40364  19.257  38.523  12.439
78999W        W40365   4.827  22.076   4.276
79000W        W40366  43.365  12.201  13.535
79001W        W40367  25.120  42.002  11.569
79002W        W40368   9.788  30.645   0.939
79003W        W40369  16.207   5.772  10.506
79004W        W40370   1.853  25.065   4.620
79005W        W40371  23.567  11.368  11.421
79006W        W40372  39.530  32.927  14.332
79007W        W40373  40.898  41.983  13.518
79008W        W40374   1.365   7.368   1.326
79009W        W40375  23.120   3.302  13.825
79010W        W40376  25.666   1.846  13.402
79011W        W40377  26.510  34.933  11.029
79012W        W40378  21.583   0.923   2.340
79013W        W40379  37.837  44.418   4.684
79014W        W40380  36.476  35.452   3.748
79015W        W40381  39.962   9.207  12.958
79016W        W40382  12.754  16.094  13.022
79017W        W40383   2.942  30.521  13.981
79018W        W40384   7.776  22.547  14.478
79019W        W40385  43.305  26.054   3.840
79020W        W40386  12.688   1.840  13.441
79021W        W40387  25.079   0.324   4.631
79022W        W40388  39.972  41.789   3.173
79023W        W40389   0.381  21.684  12.909
79024W        W40390  37.491  12.281   3.188
79025W        W40391  16.121  23.711  12.842
79026W        W40392  18.638  25.591   0.902
79027W        W40393  36.019  11.781   3.834
79028W        W40394   7.382  10.813  11.448
79029W        W40395  39.400   0.968   2.773
79030W        W40396  12.297   0.793  12.858
79031W        W40397   1.947  16.606  14.893
79032W        W40398  26.636  38.870   3.795
79033W        W40399  14.661   3.747  12.418
79034W        W40400  26.519  10.864  12.963
79035W        W40401  14.131  34.931  10.973
79036W        W40402  39.513  36.466   0.914
79037W        W40403  37.980  20.121  12.915
79038W        W40404  34.455  10.726  13.333
79039W        W40405   1.843  27.145  14.942
79040W        W40406  19.170  30.537  13.905
79041W        W40407  43.387  19.625   1.881
79042W        W40408  14.307  39.840   4.821
79043W        W40409   7.869  25.157  11.871
79044W        W40410  29.448   5.761  10.051
79045W        W40411  10.251  12.137  14.367
79046W        W40412   9.814   0.746  10.476
79047W        W40413  23.060  24.230  11.091
79048W        W40414  13.296  23.498   0.913
79049W        W40415  11.732  42.292   2.848
79050W        W40416  20.111   3.872   4.774
79051W        W40417  18.774  17.155  10.139
79052W        W40418  17.078  19.644   1.838
79053W        W40419  12.217  31.620   3.332
79054W        W40420   1.327  38.046  12.988
79055W        W40421  41.888  35.525   1.237
79056W        W40422  21.576  11.680   1.228
79057W        W40423  28.473  41.435  13.348
79058W        W40424   1.772  13.605   3.275
79059W        W40425  30.910  44.434  14.883
79060W        W40426  14.770   1.888   1.701
79061W        W40427  16.262  13.247   2.221
79062W        W40428  21.513  38.951  12.031
79063W        W40429  30.022  10.330   3.774
79064W        W40430  11.805   7.672  14.917
79065W        W40431  34.044   1.968   3.191
79066W        W40432  29.627   8.761   3.283
79067W        W40433  40.008  16.589  12.051
79068W        W40434   5.392  43.812   4.775
79069W        W40435  13.276  10.670   0.329
79070W        W40436  12.169   6.392   2.869
79071W        W40437   4.886  43.843  11.463
79072W        W40438   7.235  20.162  13.334
79073W        W40439  18.233  26.997   0.432
79074W        W40440  42.971  23.090   1.342
79075W        W40441   1.833  23.075  11.068
79076W        W40442  28.619  36.558   2.820
79077W        W40443  33.624   9.383  11.919
79078W        W40444  24.706  35.451  11.442
79079W        W40445  30.643  14.673   2.752
79080W        W40446  29.452  33.594  12.386
79081W        W40447  10.655  25.699   2.693
79082W        W40448  29.081  12.357   4.766
79083W        W40449  31.428  35.497  14.877
79084W        W40450  35.984  31.483  13.924
79085W        W40451  18.264  30.455   4.317
79086W        W40452  24.660  29.554   4.299
79087W        W40453   6.217   8.400   0.907
79088W        W40454  31.471  28.501   0.399
79089W        W40455   4.773  35.041   0.462
79090W        W40456  21.547   9.796   3.225
79091W        W40457   7.766  18.242   1.395
79092W        W40458  41.356  14.739   3.779
79093W        W40459  34.056  32.404   3.213
79094W        W40460  35.061  19.548  14.407
79095W        W40461  15.646  41.929   4.329
79096W        W40462   2.226  29.604   5.233
79097W        W40463  32.076   4.900   5.314
79098W        W40464  29.508   5.807  11.959
79099W        W40465  22.125   1.422  13.403
79100W        W40466  22.695  26.180   0.843
79101W        W40467  37.549  26.000  14.478
79102W        W40468  25.022  26.167  13.340
79103W        W40469  44.316  41.803  12.025
79104W        W40470   9.852   4.246   2.407
79105W        W40471  10.873  36.878   4.738
79106W        W40472  18.119  31.107  13.412
79107W        W40473  23.490  35.478  10.636
79108W        W40474   5.719  17.723   0.940
79109W        W40475  43.418  29.173  13.872
79110W        W40476  30.576  31.909  12.011
79111W        W40477  40.428  37.504  12.477
79112W        W40478   1.756   0.785   1.725
79113W        W40479   3.286  19.200   1.861
79114W        W40480  37.405  20.522   3.635
79115W        W40481  22.547  22.524   4.670
79116W        W40482  40.377  25.022  10.137
79117W        W40483   7.799  14.802  14.421
79118W        W40484   9.207  17.573   1.934
79119W        W40485   9.777   4.880   1.712
79120W        W40486   6.849   4.268  13.922
79121W        W40487  17.223  31.006  13.373
79122W        W40488  39.896  25.086   4.125
79123W        W40489  43.382  32.042  11.878
79124W        W40490  17.636  21.117  12.480
79125W        W40491  20.680  39.897   4.768
79126W        W40492  26.056   8.289   2.663
79127W        W40493  18.629  19.074   1.404
79128W        W40494  31.929  24.002  11.434
79129W        W40495  20.582   7.687  11.920
79130W        W40496  40.310   1.425  11.004
79131W        W40497  44.422  42.505   1.413
79132W        W40498  10.253   8.833  12.532
79133W        W40499   4.832   7.841  10.506
79134W        W40500  30.155  33.587   2.712
79135W        W40501   7.397  39.425  11.910
79136W        W40502  29.449  30.119   1.791
79137W        W40503  43.299  34.437  13.859
79138W        W40504   1.801  19.065   2.873
79139W        W40505  43.311  19.123   2.235
79140W        W40506  36.863   6.374  13.798
79141W        W40507   3.861  17.576   4.336
79142W        W40508  18.750   4.337   1.233
79143W        W40509  25.966  25.971  11.910
79144W        W40510  10.876  42.887  13.855
79145W        W40511  40.428   0.975   5.130
79146W        W40512  29.094  43.448  12.852
79147W        W40513  39.833  41.475  11.927
79148W        W40514  35.431  43.428   3.834
79149W        W40515  36.931  44.961  11.418
79150W        W40516  39.996  37.859   4.723
79151W        W40517  30.658   6.246  13.826
79152W        W40518  23.495  26.966   2.365
79153W        W40519  11.685  24.672  12.942
79154W        W40520   5.700   5.748   0.360
79155W        W40521   6.853  38.417  14.353
79156W        W40522  34.008   9.648   2.333
79157W        W40523  41.423  35.076   3.843
79158W        W40524   7.200  22.159  13.376
79159W        W40525  13.769  23.595   4.116
79160W        W40526  14.237   7.846  12.415
79161W        W40527  28.946  30.496   2.784
79162W        W40528  22.676  26.099   0.360
79163W        W40529   0.348  22.634   4.123
79164W        W40530  42.791  11.748  14.392
79165W        W40531  39.833  22.505  13.884
79166W        W40532   5.321  42.821   4.161
79167W        W40533   2.354  23.205   4.170
79168W        W40534  26.624  42.313   0.745
79169W        W40535   8.288  42.430  11.965
79170W        W40536   9.340  30.150  14.324
79171W        W40537   0.968  41.382   2.846
79172W        W40538  16.251   9.152  11.046
79173W        W40539  44.947   9.352   1.839
79174W        W40540   4.749   9.185  12.366
79175W        W40541  37.832  36.005   2.299
79176W        W40542  22.032  33.881  13.818
79177W        W40543  13.652   6.405   2.856
79178W        W40544  11.356  34.967  13.879
79179W        W40545  40.401  43.784   4.609
79180W        W40546  43.400  38.853  10.138
79181W        W40547  18.554  11.149  13.466
79182W        W40548  16.579  25.602   1.407
79183W        W40549  28.171   4.814   4.702
79184W        W40550  37.084  42.282   2.714
79185W        W40551  27.065  35.490  11.422
79186W        W40552  25.183  15.795  13.477
79187W        W40553  29.138  42.294   3.254
79188W        W40554   9.374  42.975   0.891
79189W        W40555  12.248  17.255   1.432
79190W        W40556  27.011  41.493  13.884
79191W        W40557  40.527  29.434   4.643
79192W        W40558  20.673  23.083   3.804
79193W        W40559  26.623  40.996   0.877
79194W        W40560   4.266   1.755  12.852
79195W        W40561   4.932   9.865   0.440
79196W        W40562   7.726  12.319   3.253
79197W        W40563  30.512  35.503   0.309
79198W        W40564   0.929  26.512   2.198
79199W        W40565  40.363  35.105   0.365
79200W        W40566  35.875  35.552  11.937
79201W        W40567  40.926  10.776   3.753
79202W        W40568   5.804  37.458  12.432
79203W        W40569  44.420   8.309  11.514
79204W        W40570  43.282  33.993   2.715
79205W        W40571   5.925  20.654   1.724
79206W        W40572  18.263   2.352  13.522
79207W        W40573  15.792  17.758   9.970
79208W        W40574  13.162  22.613   1.734
79209W        W40575  27.533  15.693   4.313
79210W        W40576  34.878  12.171  13.323
79211W        W40577  16.316  44.291  14.339
79212W        W40578  38.916  27.091  10.475
79213W        W40579  36.001  18.552   3.204
79214W        W40580  21.564  10.150   0.260
79215W        W40581  17.299  42.847   4.144
79216W        W40582  30.085  38.955  13.910
79217W        W40583  29.997  23.231   3.855
79218W        W40584  30.145  17.201   3.295
79219W        W40585  29.668  44.782  13.898
79220W        W40586  44.412  36.009  10.428
79221W        W40587  31.586  10.653   1.390
79222W        W40588  18.625  16.568  13.916
79223W        W40589  21.078  27.532   4.199
79224W        W40590   3.917  35.567   1.851
79225W        W40591  29.136  18.693  13.994
79226W        W40592   9.272   0.469   5.133
79227W        W40593  26.980   3.943   2.702
79228W        W40594  30.156  30.429   0.351
79229W        W40595  38.352  20.083   3.337
79230W        W40596  34.036  26.150  10.906
79231W        W40597  16.310  18.071   4.770
79232W        W40598  34.425  23.240  12.080
79233W        W40599  32.104  43.966  11.903
79234W        W40600  29.567   1.831  10.952
79235W        W40601  12.119  19.566   4.641
79236W        W40602  25.646  22.176   3.284
79237W        W40603  20.599  43.002  13.392
79238W        W40604  18.734  24.603  12.386
79239W        W40605  28.004  10.381  13.891
79240W        W40606  43.898  43.313  13.836
79241W        W40607   4.841  32.115  13.336
79242W        W40608  36.426   2.342  13.803
79243W        W40609  11.143  31.111   4.630
79244W        W40610  26.557  41.025  14.892
79245W        W40611   6.344  41.952  12.555
79246W        W40612   6.220   5.415   4.807
79247W        W40613   8.875  12.662   4.608
79248W        W40614   6.281  19.230   2.719
79249W        W40615  14.304   1.437  11.410
79250W        W40616  11.667  42.331   4.695
79251W        W40617  42.877  15.662   4.832
79252W        W40618  32.092   0.842  13.975
79253W        W40619  33.485  15.673  12.449
79254W        W40620  36.489  39.055  14.335
79255W        W40621   2.423   1.965  12.879
79256W        W40622   6.772   2.369   1.816
79257W        W40623  26.097  10.361   0.330
79258W        W40624   6.705  18.143   3.204
79259W        W40625  15.608  14.329   0.452
79260W        W40626   1.796  28.943  12.545
79261W        W40627   3.364  24.482  14.002
79262W        W40628  11.639  13.803   2.193
79263W        W40629  35.095   3.219   3.737
79264W        W40630  39.054  23.219  12.846
79265W        W40631  19.754   2.953  11.386
79266W        W40632  14.249  19.190  14.348
79267W        W40633  23.096  44.462  11.507
79268W        W40634  11.324  23.094  11.977
79269W        W40635  34.974  27.556   1.921
79270W        W40636   5.219  18.674  10.550
79271W        W40637  43.009  34.396  12.895
79272W        W40638  18.212  39.426  10.457
79273W        W40639   5.302   7.757   1.342
79274W        W40640   3.878  32.630   3.749
79275W        W40641  41.411   3.368   0.843
79276W        W40642  41.787   1.323  12.467
79277W        W40643  42.907  38.513   4.809
79278W        W40644  41.902   0.774   9.955
79279W        W40645  40.022  29.922  10.606
79280W        W40646   5.393  15.681   0.966
79281W        W40647  44.320  44.868   2.764
79282W        W40648  40.370  18.067   3.669
79283W        W40649  16.737  42.447  11.006
79284W        W40650  33.881  18.247   2.882
79285W        W40651  34.505  31.976  13.914
79286W        W40652  30.977  42.902   4.647
79287W        W40653  27.489  30.648   4.322
79288W        W40654   4.821  17.558   0.744
79289W        W40655  12.618  42.006  13.802
79290W        W40656  29.164  32.492  12.548
79291W        W40657   5.346  35.421   0.743
79292W        W40658  30.449  15.118   4.631
79293W        W40659  13.830  40.930  10.630
79294W        W40660  28.522  23.731  14.020
79295W        W40661  12.764   7.904   4.327
79296W        W40662  33.515  25.070  13.830
79297W        W40663  12.240  24.983   0.884
79298W        W40664  24.558  10.665   3.837
79299W        W40665  15.176   3.239   2.756
79300W        W40666  23.493  23.081  14.830
79301W        W40667  22.230  25.189  13.905
79302W        W40668  42.358  13.159   3.286
79303W        W40669  15.796   1.766  14.981
79304W        W40670   7.744   4.851  11.989
79305W        W40671  39.530  24.607  14.427
79306W        W40672  23.195  35.416   0.282
79307W        W40673  30.444  23.545  12.521
79308W        W40674   2.897  10.868   0.886
79309W        W40675  25.571  38.912   1.767
79310W        W40676  38.545   2.871   2.341
79311W        W40677  41.005  42.994   0.367
79312W        W40678  36.990  24.532   4.158
79313W        W40679   2.854  22.540  11.087
79314W        W40680   4.411   6.427   1.339
79315W        W40681  23.732  29.515  14.016
79316W        W40682  44.484  26.635   3.199
79317W        W40683  44.299  17.238   3.280
79318W        W40684  26.049  19.671  11.005
79319W        W40685  22.241  44.896   3.721
79320W        W40686  12.798   7.236   4.748
79321W        W40687   1.290  19.274   2.883
79322W        W40688   3.785  15.196  14.861
79323W        W40689  24.661   4.840  14.768
79324W        W40690  17.714  18.690  11.051
79325W        W40691  38.475  30.041  13.496
79326W        W40692  25.191  27.114  11.972
79327W        W40693  25.066  25.539  11.984
79328W        W40694  37.022   0.984   1.829
79329W        W40695  11.682  20.710   2.718
79330W        W40696  20.118  38.970  14.857
79331W        W40697   8.746   0.413   1.829
79332W        W40698  32.557  22.602   3.725
79333W        W40699  22.539  25.500  11.050
79334W        W40700  28.112  10.725   1.799
79335W        W40701  33.108   9.753   1.238
79336W        W40702   5.388  39.433  11.456
79337W        W40703  18.693  12.659   2.827
79338W        W40704  38.850  44.859  10.054
79339W        W40705  24.691  19.691   3.376
79340W        W40706  16.119  29.510  13.002
79341W        W40707  37.861  26.605   2.412
79342W        W40708  34.087  22.010  10.906
79343W        W40709   9.183  25.593  10.422
79344W        W40710  23.015  32.004  14.849
79345W        W40711   1.365  23.186  13.928
79346W        W40712  43.385  23.526   2.186
79347W        W40713  15.587  37.341  10.557
79348W        W40714   2.722  35.040   3.166
79349W        W40715  28.620  10.335  11.523
79350W        W40716  37.834  14.623   3.191
79351W        W40717  19.253  21.736  12.091
79352W        W40718   5.783  16.625   2.676
79353W        W40719  19.236  35.464   0.253
79354W        W40720  22.053  40.804  14.958
79355W        W40721  33.510  31.419  14.368
79356W        W40722  18.739  42.389  10.996
79357W        W40723  14.190  38.330   2.417
79358W        W40724  17.266  10.809  11.415
79359W        W40725  41.962  44.803   2.188
79360W        W40726  23.087  42.432  13.912
79361W        W40727  11.344   7.178  12.926
79362W        W40728  22.696   8.324   4.809
79363W        W40729   4.740   0.400  14.412
79364W        W40730  13.139  41.307  14.427
79365W        W40731  21.203  26.669   0.937
79366W        W40732  42.385  42.888  14.822
79367W        W40733   3.231  41.979  12.864
79368W        W40734  26.160  17.296  12.836
79369W        W40735  40.854  13.717  13.399
79370W        W40736  23.595   3.408   2.229
79371W        W40737  24.076  38.337  12.396
79372W        W40738   4.895   0.274   3.317
79373W        W40739  41.938  41.029   4.665
79374W        W40740  11.331   3.379  11.966
79375W        W40741  21.580  33.605  10.644
79376W        W40742  12.319  26.553   1.308
79377W        W40743  44.477   9.325  14.328
79378W        W40744  21.114  24.225  10.924
79379W        W40745   8.275  39.896  14.345
79380W        W40746  10.239  42.969  14.928
79381W        W40747  20.741  37.538   4.337
79382W        W40748   6.705  31.136   2.850
79383W        W40749  13.633  36.499   9.989
79384W        W40750  20.101  13.841  13.856
79385W        W40751  32.997  25.622   2.786
79386W        W40752  28.637  36.528   0.888
79387W        W40753  16.140   7.266  13.367
79388W        W40754  41.902  18.580  11.406
79389W        W40755  18.246  31.982  14.920
79390W        W40756  17.239  35.417   4.200
79391W        W40757  32.427   1.379  11.054
79392W        W40758  42.917  33.509   4.120
79393W        W40759   1.435  41.891   0.727
79394W        W40760  28.453  37.907  14.024
79395W        W40761  31.423  40.801   2.407
79396W        W40762  17.571  12.706   0.951
79397W        W40763   5.246  18.786  14.406
79398W        W40764   6.725  42.942  12.389
79399W        W40765  22.243  34.895   3.179
79400W        W40766  30.095  23.538   0.401
79401W        W40767   9.199  19.251  12.976
79402W        W40768  15.768  19.122  14.839
79403W        W40769   9.317  13.316  12.831
79404W        W40770   6.287  15.679  11.446
79405W        W40771  26.686  20.170  11.914
79406W        W40772  11.304  35.522  13.336
79407W        W40773  43.970  41.935  14.315
79408W        W40774   6.272   7.417   1.704
79409W        W40775  19.105  20.600   1.451
79410W        W40776  43.802  39.876  13.957
79411W        W40777  39.054  19.636   1.297
79412W        W40778  37.416  40.509  14.387
79413W        W40779  14.130   0.861   2.662
79414W        W40780  30.150   2.831  12.487
79415W        W40781  38.541  29.965  10.475
79416W        W40782  10.370  43.812   2.883
79417W        W40783  21.215  33.465   4.197
79418W        W40784  38.908  32.911   1.786
79419W        W40785   3.928  40.976   4.813
79420W        W40786   8.349  42.788   4.246
79421W        W40787  36.906  19.561  13.993
79422W        W40788  36.964   2.908   0.476
79423W        W40789  25.613  35.374   1.244
79424W        W40790  24.498  21.120  11.373
79425W        W40791   2.404   4.235  12.881
79426W        W40792   6.850  12.166   1.216
79427W        W40793   5.754  31.508   3.307
79428W        W40794  36.011  41.976   2.721
79429W        W40795   1.287  25.119  14.484
79430W        W40796  17.629  13.633   3.363
79431W        W40797   6.424   5.713  14.380
79432W        W40798  43.889  34.458  10.966
79433W        W40799  36.892  23.702  12.476
79434W        W40800  23.026  26.603   1.761
79435W        W40801  13.196  27.110  13.039
79436W        W40802  33.438  26.583  12.451
79437W        W40803  18.138  36.086   5.239
79438W        W40804  16.300  25.480  14.507
79439W        W40805  24.060  23.181   0.829
79440W        W40806  11.368   0.747   1.314
79441W        W40807  34.547  10.321  12.912
79442W        W40808   8.833  33.874   3.791
79443W        W40809  33.977  14.679  14.013
79444W        W40810  27.085  13.278   2.854
79445W        W40811  11.289  17.226   4.767
79446W        W40812   1.759  32.062   1.883
79447W        W40813  41.309  32.510  11.119
79448W        W40814  18.261  18.583  11.016
79449W        W40815  10.334  17.184  13.337
79450W        W40816   3.952  32.473   3.183
79451W        W40817  24.081  38.347  14.514
79452W        W40818  23.574   6.859  12.384
79453W        W40819  43.876  44.771   4.802
79454W        W40820  33.623  32.080   4.236
79455W        W40821  18.154   4.944  10.548
79456W        W40822  18.258  27.551  10.599
79457W        W40823   1.288  30.077  11.555
79458W        W40824  38.547  18.636   1.303
79459W        W40825  27.172  13.662   0.948
79460W        W40826  28.600  20.681   4.135
79461W        W40827  10.702  41.021  14.291
79462W        W40828  12.335  23.104  11.888
79463W        W40829  25.520  16.657   0.313
79464W        W40830  39.932  39.359  12.413
79465W        W40831  29.582   2.427   2.855
79466W        W40832   7.813  39.816  13.986
79467W        W40833   1.811  44.864  12.519
79468W        W40834  22.115   1.387   1.318
79469W        W40835  35.066  23.077   0.887
79470W        W40836  36.087  34.105   4.161
79471W        W40837  10.161   0.883   4.795
79472W        W40838  31.134  20.206   2.400
79473W        W40839  23.215  16.807   3.266
79474W        W40840  17.739   0.825   4.215
79475W        W40841  26.990  19.236  12.940
79476W        W40842  41.969   4.304   0.424
79477W        W40843  20.688  10.338  14.376
79478W        W40844  20.572  13.343  13.387
79479W        W40845  29.977  27.183   1.251
79480W        W40846  13.294  20.203  14.849
79481W        W40847   9.281  10.726  14.946
79482W        W40848  12.714  11.809  14.299
79483W        W40849  16.779  14.715  13.376
79484W        W40850  44.848  24.566  13.906
79485W        W40851  30.084  35.537  14.831
79486W        W40852  17.599  42.904   0.810
79487W        W40853  21.661  37.572  13.372
79488W        W40854  19.655   1.401   3.244
79489W        W40855   9.837  16.633  11.561
79490W        W40856  34.546  39.392  13.932
79491W        W40857   9.156  33.063  12.517
79492W        W40858  26.170  21.539   2.215
79493W        W40859  23.122  36.514  11.453
79494W        W40860   2.909  37.010   0.728
79495W        W40861  11.787  19.651   3.705
79496W        W40862  43.797  42.906   5.185
79497W        W40863  34.988  13.683  12.479
79498W        W40864  19.142  27.039  12.382
79499W        W40865  27.465  11.622  12.909
79500W        W40866   8.746   7.737   3.227
79501W        W40867  22.170  38.064   2.189
79502W        W40868  29.443  42.791  13.803
79503W        W40869  43.937  16.294  12.899
79504W        W40870  18.252  10.205   0.872
79505W        W40871  14.274  39.343   4.654
79506W        W40872  44.868   3.911  13.040
79507W        W40873  42.829  23.201   2.303
79508W        W40874   1.469  33.986   1.217
79509W        W40875   9.155  39.920   3.776
79510W        W40876  26.974  29.946   4.131
79511W        W40877   5.708  19.651   0.407
79512W        W40878  17.200  13.705  13.477
79513W        W40879  16.200  43.395   0.320
79514W        W40880   3.291  28.489  14.843
79515W        W40881   0.299  37.966   2.759
79516W        W40882  26.547  41.824   2.229
79517W        W40883  22.656  26.610   2.758
79518W        W40884  39.373  28.154   0.351
79519W        W40885  32.083  11.141   3.724
79520W        W40886  12.189   1.400  12.571
79521W        W40887   0.911  21.749   3.694
79522W        W40888  19.666  32.593  14.485
79523W        W40889  20.245  37.374  10.952
79524W        W40890  43.335  41.447   0.339
79525W        W40891  22.131  24.702  14.901
79526W        W40892  13.154  42.465  13.526
79527W        W40893  14.783  19.259  10.991
79528W        W40894  39.908  29.557  11.079
79529W        W40895  22.224  27.174   3.170
79530W        W40896  35.004  31.102   4.777
79531W        W40897  31.511  22.160  12.344
79532W        W40898  26.970  38.913   1.770
79533W        W40899  12.258  18.194   2.275
79534W        W40900  39.929  42.961  13.951
79535W        W40901  18.669   8.175   0.375
79536W        W40902  18.134   5.195   0.300
79537W        W40903  24.563  39.029   3.273
79538W        W40904   8.352  44.854   4.707
79539W        W40905  21.230  11.786  12.008
79540W        W40906  20.074  20.730   4.126
79541W        W40907  15.609  17.287   1.238
79542W        W40908   4.928   8.194  13.459
79543W        W40909  26.540  34.600  11.990
79544W        W40910  30.591  38.380  11.081
79545W        W40911  23.583  37.055  10.937
79546W        W40912   1.391  25.049  10.467
79547W        W40913  38.562  17.575   0.292
79548W        W40914   4.843  28.152  12.348
79549W        W40915  29.036  29.436  14.965
79550W        W40916  13.317  15.290  11.893
79551W        W40917  11.713   7.852   2.313
79552W        W40918  10.285   0.961  14.342
79553W        W40919  20.053  40.953   4.659
79554W        W40920  44.341  27.581  12.079
79555W        W40921  31.092   0.919   1.917
79556W        W40922  32.480  15.187  13.473
79557W        W40923   2.466  40.307   4.207
79558W        W40924   5.834  31.055  11.106
79559W        W40925  24.045  34.565   0.774
79560W        W40926  19.722  38.539   2.686
79561W        W40927  20.707   6.207  11.026
79562W        W40928  41.038  29.998  13.867
79563W        W40929  23.510   7.188  11.088
79564W        W40930  28.603   1.835  10.592
79565W        W40931  22.631  44.296  11.528
79566W        W40932  38.396  23.110   2.320
79567W        W40933   9.212   2.338  14.412
79568W        W40934  15.232  30.108   0.476
79569W        W40935  40.802   0.833  13.955
79570W        W40936   7.682   3.345  14.999
79571W        W40937  31.475  12.183  14.807
79572W        W40938  35.979  24.488   0.849
79573W        W40939  32.493   3.910   2.371
79574W        W40940  25.107  22.542   4.224
79575W        W40941   6.799  19.632  14.474
79576W        W40942   9.723  14.590  14.818
79577W        W40943  18.268  28.139   4.783
79578W        W40944  38.052  40.318  13.339
79579W        W40945   3.418  10.336  13.915
79580W        W40946  19.232   8.160   4.605
79581W        W40947  43.968  39.996   2.731
79582W        W40948  12.290   7.755  11.389
79583W        W40949  19.780   7.847  12.555
79584W        W40950  20.207  37.004   4.187
79585W        W40951  44.823   1.257  10.417
79586W        W40952   3.279  17.683  11.607
79587W        W40953  26.119   0.759  11.915
79588W        W40954  33.048  36.469   3.229
79589W        W40955  11.865  44.336  10.591
79590W        W40956  24.010  41.001  11.921
79591W        W40957  10.236   0.376   4.309
79592W        W40958   7.862  27.006   3.706
79593W        W40959  40.444  37.406   2.244
79594W        W40960  30.998   1.954  12.083
79595W        W40961  21.662  44.891  14.866
79596W        W40962  20.759  31.431   2.328
79597W        W40963  29.424  25.618  13.420
79598W        W40964   1.469  26.099  11.579
79599W        W40965  22.641   0.758   3.313
79600W        W40966  17.714  17.177   3.678
79601W        W40967  40.979  32.411  14.032
79602W        W40968  42.981  18.236  12.453
79603W        W40969   8.819  32.925   2.275
79604W        W40970   2.348  20.222   4.732
79605W        W40971  17.217  26.162   0.784
79606W        W40972   0.852  43.307   0.766
79607W        W40973  11.851  19.578   3.146
79608W        W40974  43.390  42.932  13.937
79609W        W40975   9.701  37.014  14.879
79610W        W40976   1.959  27.137  12.000
79611W        W40977  19.752   5.381  11.515
79612W        W40978  37.380  30.919  13.369
79613W        W40979  43.836  12.163  14.483
79614W        W40980  20.237  41.032   2.371
79615W        W40981  43.503  38.343  13.021
79616W        W40982  19.596  43.376  14.292
79617W        W40983   3.921  24.117   0.727
79618W        W40984   2.874  34.510  14.349
79619W        W40985  14.619  22.116   3.363
79620W        W40986  32.137  43.432  11.935
79621W        W40987  15.221  34.039   0.327
79622W        W40988   0.792   8.349  14.358
79623W        W40989  43.950  15.798  12.370
79624W        W40990   6.779  18.626   9.652
79625W        W40991  42.971  24.159  12.515
79626W        W40992  24.531  43.911   1.701
79627W        W40993  17.078   9.364   3.363
79628W        W40994  44.791  38.552   1.217
79629W        W40995   1.838   5.401   5.164
79630W        W40996  27.556  41.017  13.984
79631W        W40997  44.831  18.622   4.259
79632W        W40998  14.692  34.864  14.811
79633W        W40999   7.194  33.433  14.773
79634W        W41000  19.614  15.784  13.969
79635W        W41001  28.132  30.421   2.259
79636W        W41002  13.169   1.344  10.968
79637W        W41003  29.975  33.610   4.126
79638W        W41004  25.580   5.203   0.911
79639W        W41005  16.277  16.160   2.886
79640W        W41006  22.008  29.577  11.890
79641W        W41007   3.221  40.449   2.757
79642W        W41008  18.671  29.640   4.712
79643W        W41009  23.527  35.883  10.503
79644W        W41010   9.335   4.760  10.916
79645W        W41011  21.558  13.733  12.957
79646W        W41012  30.617  18.269   4.325
79647W        W41013   1.416  35.983   0.306
79648W        W41014  25.620  12.186  11.574
79649W        W41015  29.656  41.500  12.416
79650W        W41016  18.705  39.847   2.871
79651W        W41017   4.306  26.058   0.891
79652W        W41018   1.454   8.301  11.379
79653W        W41019  20.132  39.020   3.677
79654W        W41020  14.114  39.985   2.820
79655W        W41021  44.775  12.756  10.927
79656W        W41022   3.292  24.230   1.813
79657W        W41023  20.138   1.805   3.802
79658W        W41024  23.656  42.030   1.730
79659W        W41025  12.337   8.214  12.991
79660W        W41026  24.032  32.020   1.424
79661W        W41027  19.570  17.184  10.415
79662W        W41028  15.712  12.618  14.304
79663W        W41029  41.023   1.275  11.050
79664W        W41030  42.344   5.750  13.826
79665W        W41031   9.373  27.086   1.865
79666W        W41032   9.343  42.358   3.666
79667W        W41033   4.847  29.919   2.687
79668W        W41034  40.921  37.033   0.890
79669W        W41035   1.430  40.436  13.452
79670W        W41036  21.742  43.913  12.838
79671W        W41037  15.181  32.595  14.843
79672W        W41038  26.513  15.647  14.889
79673W        W41039  39.979   6.711   1.705
79674W        W41040  17.630   5.197   2.826
79675W        W41041  21.209  32.139  13.828
79676W        W41042  19.594  23.657  14.920
79677W        W41043   6.195  15.799  11.070
79678W        W41044  38.894  43.940   4.828
79679W        W41045  20.697  31.146  13.019
79680W        W41046  24.077  16.267   3.173
79681W        W41047   9.844   8.843   4.119
79682W        W41048  17.570  15.820   0.430
79683W        W41049   8.816   8.241   4.677
79684W        W41050   5.795   2.324   0.823
79685W        W41051  14.782  15.275   0.438
79686W        W41052  17.620   9.889  14.321
79687W        W41053   9.662   1.267  12.446
79688W        W41054  24.008  31.996   1.734
79689W        W41055  25.589  16.086  13.409
79690W        W41056   7.843  30.432  13.012
79691W        W41057  14.194  15.657  10.530
79692W        W41058   6.356  11.675   4.128
79693W        W41059  13.190   4.301   2.798
79694W        W41060   9.294   8.663  14.939
79695W        W41061  34.605  34.386  14.010
79696W        W41062  18.545  12.343  13.963
79697W        W41063   7.240  34.406  13.357
79698W        W41064  13.778   9.161   1.725
79699W        W41065  12.140  42.469  13.491
79700W        W41066  24.987  17.642   3.678
79701W        W41067  43.837   8.730  14.946
79702W        W41068  35.427  13.273  11.545
79703W        W41069  23.679   9.754  13.342
79704W        W41070  44.960  40.054   0.805
79705W        W41071  16.789  13.133   2.311
79706W        W41072  43.980   3.215  12.007
79707W        W41073  34.018   1.268   2.246
79708W        W41074   3.315  40.861   3.384
79709W        W41075   3.799   7.210   2.344
79710W        W41076  30.108  39.861  10.582
79711W        W41077  19.586  22.123   1.283
79712W        W41078  12.253  17.073   3.777
79713W        W41079   8.875  36.485  11.916
79714W        W41080  18.550  14.608  10.085
79715W        W41081  25.545  12.682  10.139
79716W        W41082  16.632  22.185   3.269
79717W        W41083   5.847  35.593  13.871
79718W        W41084  38.947  26.467   4.694
79719W        W41085  26.585  20.707  12.982
79720W        W41086  36.370  11.322   0.443
79721W        W41087   9.312  36.861  11.384
79722W        W41088  38.878  31.497  10.496
79723W        W41089  25.214  23.610   3.339
79724W        W41090  38.968   0.850  12.933
79725W        W41091   1.299  13.125  12.432
79726W        W41092  27.099  26.139   3.694
79727W        W41093  27.663  44.882   0.804
79728W        W41094   5.753  17.575   4.641
79729W        W41095  33.981  41.456   0.451
79730W        W41096  27.474   9.227  14.007
79731W        W41097  36.434  37.526   0.949
79732W        W41098  26.543   0.362   4.609
79733W        W41099  28.121  43.446  10.090
79734W        W41100  41.424  12.800   3.715
79735W        W41101  34.529   5.207   1.234
79736W        W41102   5.741  10.204  13.798
79737W        W41103   8.370  37.511   2.679
79738W        W41104  26.053  15.312  13.935
79739W        W41105  40.028  35.870  14.317
79740W        W41106   5.815  36.873  11.925
79741W        W41107  39.550  23.113   0.480
79742W        W41108  10.368  36.859   3.815
79743W        W41109  39.921  44.422   2.278
79744W        W41110  17.160   6.394  14.969
79745W        W41111  41.835  37.988   0.247
79746W        W41112   0.377  38.436  14.924
79747W        W41113  17.676   4.885   4.343
79748W        W41114  14.791  15.133   1.725
79749W        W41115  41.923  40.497   4.223
79750W        W41116  31.544   7.366   0.753
79751W        W41117  25.597  41.919   4.703
79752W        W41118  24.091  43.349   3.269
79753W        W41119  26.674  20.725  11.455
79754W        W41120  14.230   8.295   0.313
79755W        W41121   6.225  14.763   4.723
79756W        W41122  40.830  37.966   0.477
79757W        W41123  23.235  43.809  13.473
79758W        W41124  25.632  12.760  10.587
79759W        W41125  17.687  11.805   1.928
79760W        W41126  44.261  11.197  12.885
79761W        W41127  17.698  33.924   0.899
79762W        W41128  44.945   7.796   1.300
79763W        W41129  26.627   0.353   1.407
79764W        W41130  40.961  13.243  13.483
79765W        W41131  24.481  25.555   4.816
79766W        W41132  33.458  19.719  10.468
79767W        W41133  21.724  23.082   3.633
79768W        W41134  24.015  25.521  14.019
79769W        W41135  12.143   6.195  10.981
79770W        W41136  44.309  25.542  13.993
79771W        W41137  33.972  15.083  12.382
79772W        W41138  22.113  32.573  12.374
79773W        W41139   5.905  17.591   5.277
79774W        W41140  34.056  36.508  11.968
79775W        W41141  20.612   1.893   3.746
79776W        W41142   1.418   9.194   0.359
79777W        W41143   5.842   3.891   3.380
79778W        W41144  11.188  18.601  14.893
79779W        W41145  29.083   5.288  11.490
79780W        W41146  43.323  40.312   4.142
79781W        W41147  11.281  36.868   0.732
79782W        W41148   6.207  39.439   1.268
79783W        W41149   1.294  32.462   3.646
79784W        W41150  39.961  25.197  12.962
79785W        W41151  16.713  32.944  13.411
79786W        W41152  13.345  13.335   1.912
79787W        W41153  30.637  14.793   4.179
79788W        W41154  21.218  28.952  12.937
79789W        W41155   4.417  22.187  11.605
79790W        W41156  39.501  13.763  14.303
79791W        W41157  36.941  27.059  13.483
79792W        W41158  29.994  21.612   3.773
79793W        W41159  13.641  37.954   3.164
79794W        W41160   5.220  34.075  14.929
79795W        W41161  15.202  11.650  10.541
79796W        W41162  24.213  25.707  13.451
79797W        W41163  10.688   9.206   0.387
79798W        W41164  40.966  36.350  12.058
79799W        W41165  36.383  33.993  12.946
79800W        W41166   3.712  20.139  11.488
79801W        W41167  18.279  16.184   4.668
79802W        W41168  21.178  14.710   1.308
79803W        W41169  38.058  42.879  10.454
79804W        W41170  15.188  42.824   3.851
79805W        W41171  35.904   8.894  10.504
79806W        W41172  17.713  42.794   2.717
79807W        W41173  33.546   1.294   4.776
79808W        W41174  20.046   7.303  13.548
79809W        W41175  44.431  37.990   2.343
79810W        W41176  38.463  38.849   4.611
79811W        W41177   6.209  20.576  12.554
79812W        W41178   2.357  11.851   2.215
79813W        W41179  12.219  30.649   5.129
79814W        W41180  31.970  43.983   0.430
79815W        W41181  31.506  41.873  13.395
79816W        W41182   1.250  34.870  14.367
79817W        W41183  29.023   1.821   3.814
79818W        W41184  29.962  17.064  11.025
79819W        W41185   2.891  17.612   2.195
79820W        W41186  32.085  11.320   2.850
79821W        W41187  14.156  15.722   3.707
79822W        W41188  16.603  42.299  14.003
79823W        W41189   5.404   3.855   3.374
79824W        W41190  43.794  42.296  11.406
79825W        W41191  42.816  28.450  10.456
79826W        W41192  43.431  33.976  10.990
79827W        W41193  30.649  28.970   1.913
79828W        W41194  20.200  44.857  11.907
79829W        W41195  39.004  11.162   1.807
79830W        W41196  39.045  16.618   1.302
79831W        W41197   1.929  39.377   4.132
79832W        W41198  33.525   8.373   3.864
79833W        W41199  37.875   0.327  13.034
79834W        W41200  36.987   9.862   1.359
79835W        W41201   5.824  36.947   3.252
79836W        W41202  27.619  25.704  14.891
79837W        W41203  30.049  33.456   4.808
79838W        W41204  43.924  35.085   4.616
79839W        W41205   3.754  10.837   2.317
79840W        W41206  44.408   3.356  14.953
79841W        W41207  13.757  25.160  14.938
79842W        W41208  27.500   1.465  14.451
79843W        W41209   2.866  29.432   3.237
79844W        W41210  10.291  22.077   3.346
79845W        W41211   2.258  13.203   1.267
79846W        W41212  36.087  32.021  11.411
79847W        W41213  21.687  16.686   2.383
79848W        W41214  29.446   2.413   0.327
79849W        W41215  42.293  35.933   4.212
79850W        W41216  41.533  39.936  12.563
79851W        W41217  22.546  36.017   4.654
79852W        W41218  26.151  27.041   4.195
79853W        W41219  14.628  10.796   4.621
79854W        W41220  27.154  19.636  13.430
79855W        W41221  19.128  15.787  12.830
79856W        W41222   5.907  35.532  14.508
79857W        W41223  17.256   8.231  13.469
79858W        W41224  12.261  14.167   4.731
79859W        W41225   4.900  22.704   4.772
79860W        W41226  15.164  39.461   4.324
79861W        W41227  44.437  29.462  10.500
79862W        W41228  10.368  25.656  12.339
79863W        W41229  42.855  39.375   3.377
79864W        W41230  23.197   6.329   2.183
79865W        W41231  39.506  42.986   0.375
79866W        W41232   1.274  37.901   4.141
79867W        W41233  38.372  21.229   2.205
79868W        W41234  12.657   5.387  10.629
79869W        W41235  33.493  17.749  14.496
79870W        W41236  34.981   0.281  11.952
79871W        W41237   1.893  14.606  14.426
79872W        W41238  22.076  23.515  13.416
79873W        W41239  28.059  18.628  11.534
79874W        W41240  15.781  40.976  13.505
79875W        W41241  23.720   7.176   4.176
79876W        W41242  11.206   1.381  14.403
79877W        W41243   3.745  42.348  14.335
79878W        W41244  30.519   8.211  13.405
79879W        W41245  16.192  42.920   5.283
79880W        W41246  10.287  43.421  11.108
79881W        W41247  10.320  39.024   0.961
79882W        W41248  42.014  15.149  11.083
79883W        W41249  38.863  35.022  13.324
79884W        W41250  10.641  11.168   0.943
79885W        W41251  11.690   2.767   2.300
79886W        W41252  36.061  25.119  12.050
79887W        W41253  12.675  42.520   4.634
79888W        W41254   9.388  32.109  14.346
79889W        W41255  18.111  27.515   2.384
79890W        W41256  10.709  24.627   0.853
79891W        W41257  31.963  17.304   4.275
79892W        W41258  10.321  20.744  11.118
79893W        W41259   0.335   3.891  10.948
79894W        W41260  19.617  32.958   0.392
79895W        W41261  30.504  14.235   3.194
79896W        W41262  40.548   0.334   3.239
79897W        W41263  22.602  37.510  13.992
79898W        W41264  26.535  33.079  14.329
79899W        W41265  19.285  27.183   1.224
79900W        W41266  27.960  12.163  11.924
79901W        W41267  30.564  34.979   0.738
79902W        W41268  30.031   2.817  14.032
79903W        W41269  31.111  36.023   1.275
79904W        W41270  37.550  13.728  10.916
79905W        W41271   6.898  18.663   2.395
79906W        W41272  16.174  12.640  12.462
79907W        W41273  25.193  28.057   1.850
79908W        W41274  16.151  35.549  14.429
79909W        W41275   8.288  18.061   2.831
79910W        W41276  17.111  30.423  14.840
79911W        W41277   8.331  28.438   0.831
79912W        W41278  38.345   4.939   1.872
79913W        W41279  20.655   2.429  12.555
79914W        W41280  43.014  34.947  13.471
79915W        W41281  33.976  15.166   4.297
79916W        W41282   2.737  34.867   4.626
79917W        W41283  38.480   5.402   4.608
79918W        W41284  13.794  42.008   2.199
79919W        W41285  17.281  25.707   3.662
79920W        W41286  42.850  34.882  11.952
79921W        W41287  31.595  11.232  12.875
79922W        W41288  22.625  24.602  12.508
79923W        W41289   7.392  12.818  14.450
79924W        W41290  33.448  18.727  14.803
79925W        W41291  15.579   2.330   1.248
79926W        W41292  24.076   6.790  11.542
79927W        W41293   7.816  35.065   0.291
79928W        W41294  32.405  42.312  13.496
79929W        W41295  16.195  40.911  11.450
79930W        W41296   7.265  15.153  13.514
79931W        W41297  31.019  18.168   3.356
79932W        W41298  10.767  39.485   3.179
79933W        W41299  26.091  14.311  11.108
79934W        W41300  44.373  42.955   2.791
79935W        W41301  15.285  14.635  13.350
79936W        W41302  23.643   5.825   1.831
79937W        W41303  13.616  26.176  13.027
79938W        W41304  16.247  28.964  11.083
79939W        W41305  17.072  30.458   3.704
79940W        W41306  30.582  29.056  12.060
79941W        W41307  37.361   0.333   0.373
79942W        W41308   8.296  19.646   0.248
79943W        W41309  29.444   1.469   0.300
79944W        W41310  26.511  18.227  14.370
79945W        W41311  44.304  11.217   1.239
79946W        W41312  37.848  28.627   2.277
79947W        W41313  12.761  39.918  12.950
79948W        W41314  29.480  36.949  14.480
79949W        W41315   3.364   1.811  13.040
79950W        W41316  42.952  27.125   4.190
79951W        W41317   7.705  10.222   3.334
79952W        W41318  28.168  25.568   3.382
79953W        W41319  16.087  36.005  14.848
79954W        W41320  38.427  15.319  12.545
79955W        W41321  26.520  21.055   3.822
79956W        W41322  33.949  38.076  12.940
79957W        W41323  23.989   9.335  13.851
79958W        W41324  20.707  12.653  11.491
79959W        W41325  41.907  29.503  10.482
79960W        W41326  37.359  27.660  11.991
79961W        W41327  28.112  38.886   0.829
79962W        W41328  44.390  38.933   4.728
79963W        W41329  27.465  13.632   3.698
79964W        W41330  18.668  13.791   2.680
79965W        W41331  25.103   6.216   1.375
79966W        W41332  12.155  14.690   0.336
79967W        W41333  15.611  10.245   4.206
79968W        W41334  24.111  28.138  10.003
79969W        W41335  24.613  10.368  11.980
79970W        W41336  33.996  28.599  14.327
79971W        W41337  26.679  29.119   9.962
79972W        W41338  30.997  20.244   5.236
79973W        W41339   0.973  41.395  14.811
79974W        W41340  41.909  10.214   4.703
79975W        W41341   1.395  11.238  13.357
79976W        W41342   8.718  25.474  13.952
79977W        W41343  10.310  28.016  12.449
79978W        W41344  17.581  12.316   0.912
79979W        W41345  16.172  33.593   1.921
79980W        W41346  13.271  41.803   4.172
79981W        W41347  20.717  41.894   0.935
79982W        W41348  11.746  30.940  14.912
79983W        W41349  32.507  17.295   0.960
79984W        W41350  33.924  29.171   3.255
79985W        W41351  17.150  41.864  14.500
79986W        W41352  31.540  26.511  11.945
79987W        W41353  15.129  20.239   4.131
79988W        W41354  20.234  26.971  14.017
79989W        W41355  14.610   5.306  13.424
79990W        W41356   4.280   3.761   1.340
79991W        W41357  30.969  41.003  11.493
79992W        W41358  35.981  31.030   4.739
79993W        W41359  27.572  36.434  14.019
79994W        W41360  32.440  24.136  12.907
79995W        W41361  33.911  31.039  11.040
79996W        W41362  17.576  18.071   2.851
79997W        W41363  41.794  36.561   0.769
79998W        W41364  20.626  42.441  14.919
79999W        W41365  23.546  34.085  11.948
80000W        W41366  39.338  24.577   0.316
80001W        W41367   6.877   1.429   1.411
80002W        W41368   5.343  23.640   2.336
80003W        W41369  32.614  29.931  13.491
80004W        W41370  31.588   7.376   2.866
80005W        W41371  44.818  35.980   3.769
80006W        W41372   8.332  28.559  13.362
80007W        W41373  17.745  19.129   2.206
80008W        W41374  35.594  37.557   0.323
80009W        W41375   6.400  27.637  14.987
80010W        W41376  24.651  13.697  13.324
80011W        W41377  31.646   9.228  13.439
80012W        W41378  34.899  28.066  12.980
80013W        W41379  21.547  30.489   4.134
80014W        W41380   3.350  32.931   2.265
80015W        W41381  36.586  16.761   3.800
80016W        W41382  12.220  28.025   4.707
80017W        W41383  42.881  26.515   0.942
80018W        W41384   5.738  41.327   0.749
80019W        W41385  40.865  17.084   3.814
80020W        W41386   2.935  35.091   2.772
80021W        W41387   2.899  26.127   0.373
80022W        W41388  36.541   8.824   5.202
80023W        W41389  15.121  22.672  11.397
80024W        W41390  19.648  42.910  14.766
80025W        W41391  36.479  11.156  12.030
80026W        W41392  31.109  41.894  14.761
80027W        W41393  36.524  23.568   0.455
80028W        W41394  31.126  14.782   2.334
80029W        W41395   7.713   9.269   4.147
80030W        W41396  27.164  35.558   0.475
80031W        W41397  41.349  37.521  13.805
80032W        W41398  34.420  33.422  13.408
80033W        W41399  19.609  35.554   0.266
80034W        W41400   7.414   7.265   3.377
80035W        W41401  19.096   3.768   4.639
80036W        W41402  20.055   8.709  13.414
80037W        W41403   1.367   3.262   2.772
80038W        W41404  32.514  23.995   3.330
80039W        W41405   0.355  25.641  11.463
80040W        W41406   5.846  20.139   2.705
80041W        W41407  33.387  29.431  11.563
80042W        W41408  30.923   2.284   3.237
80043W        W41409  34.976  23.520   2.412
80044W        W41410  25.687  37.068  10.533
80045W        W41411  33.572  10.376   3.378
80046W        W41412  19.042   5.779   3.855
80047W        W41413   7.383  25.632  14.928
80048W        W41414  15.715  39.441  14.924
80049W        W41415  22.113   8.727   3.316
80050W        W41416  39.331  13.737  10.566
80051W        W41417  11.306  29.033  13.906
80052W        W41418   7.816  27.559   2.181
80053W        W41419  37.018  39.459   2.902
80054W        W41420  40.871   9.827  11.589
80055W        W41421  27.167   6.232  13.997
80056W        W41422  15.792  34.410  12.084
80057W        W41423  13.332  11.803   2.314
80058W        W41424  16.643  27.476  13.901
80059W        W41425  42.317   9.859   3.254
80060W        W41426  12.242  39.048   0.440
80061W        W41427   7.218  21.219   4.124
80062W        W41428  10.268  38.422   0.801
80063W        W41429   2.371  28.177   1.230
80064W        W41430   7.798  35.950  10.972
80065W        W41431  42.793  42.976  12.580
80066W        W41432  44.314  20.202   3.833
80067W        W41433   8.744  30.981  12.902
80068W        W41434  21.132  34.408   1.406
80069W        W41435  12.855  32.106  13.522
80070W        W41436  35.458   3.953   4.652
80071W        W41437  19.120  28.158   4.126
80072W        W41438  30.052  35.029   0.727
80073W        W41439  18.562  42.011   1.911
80074W        W41440  18.791  37.398  10.530
80075W        W41441  19.722  28.967   3.802
80076W        W41442  16.812  29.927   3.702
80077W        W41443  34.370   8.272   3.244
80078W        W41444   9.329  19.711  10.529
80079W        W41445  26.055  25.984  11.580
80080W        W41446  25.481  38.543   3.768
80081W        W41447  10.877  13.705   2.198
80082W        W41448  13.126  31.410  14.374
80083W        W41449  35.906  19.601  12.398
80084W        W41450   4.732   0.453   4.274
80085W        W41451  13.838  31.587  11.990
80086W        W41452  29.604  17.261   0.964
80087W        W41453  40.510  44.883  12.944
80088W        W41454  27.971  36.514   0.962
80089W        W41455  10.644  27.196  11.455
80090W        W41456  12.177  35.474   1.749
80091W        W41457   9.301  29.010   1.281
80092W        W41458   0.252  22.725  14.914
80093W        W41459  39.043   6.846   0.955
80094W        W41460   1.449  43.940   2.230
80095W        W41461   8.249  35.502  13.398
80096W        W41462  15.241  10.321   0.263
80097W        W41463  32.454   7.370   2.253
80098W        W41464  42.511  30.047   4.136
80099W        W41465  33.617  31.109  13.542
80100W        W41466  37.996  33.055   3.797
80101W        W41467   7.735  37.354  11.448
80102W        W41468  19.046   6.748  12.526
80103W        W41469   7.816  36.402  11.521
80104W        W41470  36.986  27.550  13.054
80105W        W41471  26.524   2.868  13.346
80106W        W41472  14.264  43.895  14.493
80107W        W41473   8.691  42.367  12.500
80108W        W41474  40.314  26.641  10.475
80109W        W41475   6.260  12.641   3.829
80110W        W41476   5.303  41.345   2.813
80111W        W41477  27.093   7.286  12.894
80112W        W41478  10.843  36.976   1.268
80113W        W41479   2.906  21.549  13.311
80114W        W41480  44.873  27.030   9.979
80115W        W41481  41.309  11.148   2.867
80116W        W41482  13.609   0.468   4.243
80117W        W41483  16.137  35.396   1.808
80118W        W41484  28.067  19.716  13.402
80119W        W41485  10.805  18.548   2.872
80120W        W41486   1.287   6.698  13.797
80121W        W41487  22.522  15.638   0.385
80122W        W41488  30.149  21.618  14.797
80123W        W41489  35.525   8.363  11.879
80124W        W41490   9.162  26.481   4.273
80125W        W41491  17.176  38.416   1.364
80126W        W41492  36.060   3.276   2.700
80127W        W41493  29.003  32.507  14.354
80128W        W41494   2.815  25.187  11.537
80129W        W41495  13.762   9.700   4.683
80130W        W41496  25.538  14.242  10.951
80131W        W41497  37.905   1.862   9.964
80132W        W41498  34.921  10.371  12.989
80133W        W41499  26.528   1.946   0.768
80134W        W41500  16.660   6.880   1.417
80135W        W41501   6.268  30.415   5.226
80136W        W41502  42.867  21.182   0.964
80137W        W41503  15.131  17.782   3.350
80138W        W41504  40.538  18.163  12.521
80139W        W41505   9.781  11.155  11.558
80140W        W41506   5.739   3.388   1.803
80141W        W41507  31.013  43.351  10.578
80142W        W41508  29.538  27.655  12.079
80143W        W41509   8.230  20.108   0.352
80144W        W41510  13.203  43.992   4.800
80145W        W41511  15.612  24.509   4.177
80146W        W41512  34.591  34.612   2.343
80147W        W41513  12.147  24.170   2.812
80148W        W41514   6.376  39.969   3.800
80149W        W41515  34.917   0.405   0.258
80150W        W41516  22.170  20.083  12.929
80151W        W41517  37.507   6.782  12.345
80152W        W41518   8.775  44.783   0.836
80153W        W41519  23.241  30.002  10.475
80154W        W41520  10.863  22.030  12.891
80155W        W41521  39.330  14.776   1.408
80156W        W41522   9.875  24.489   4.258
80157W        W41523  17.787  19.058  13.334
80158W        W41524  37.523   1.844   2.815
80159W        W41525  41.294   7.822   4.800
80160W        W41526  32.989  38.551  13.419
80161W        W41527  13.159  16.236  13.834
80162W        W41528  18.610  12.267  11.423
80163W        W41529  40.437   9.818  12.948
80164W        W41530   6.696  36.979   2.883
80165W        W41531   9.229   6.240  10.476
80166W        W41532  36.033  22.728   3.713
80167W        W41533  17.230  35.371  13.061
80168W        W41534  13.347   1.744  10.905
80169W        W41535  30.962  24.569   0.949
80170W        W41536  23.213   2.235   3.308
80171W        W41537  10.338  18.107   1.905
80172W        W41538  29.478  22.234   3.630
80173W        W41539  18.625   3.391   0.930
80174W        W41540  22.032  40.975  13.826
80175W        W41541  21.101  18.166  14.288
80176W        W41542  19.623  33.975   5.114
80177W        W41543  24.691  25.218  12.968
80178W        W41544  38.926  25.071  10.144
80179W        W41545  37.380  36.451  11.934
80180W        W41546  29.930  23.137  13.538
80181W        W41547  37.008  32.518   2.763
80182W        W41548  40.493   4.235  12.953
80183W        W41549  37.961  14.100   2.367
80184W        W41550  32.044  40.508  13.949
80185W        W41551   4.821  34.570  12.828
80186W        W41552  29.984  33.882   0.963
80187W        W41553  29.090  40.052  10.906
80188W        W41554  40.313  22.200  10.925
80189W        W41555  19.621  40.429   4.817
80190W        W41556  32.133  43.456   0.934
80191W        W41557  34.424  22.556   4.628
80192W        W41558  34.913  26.111   3.704
80193W        W41559   1.772  10.680   2.824
80194W        W41560  38.949  20.051   4.794
80195W        W41561  32.540  11.805  12.948
80196W        W41562  12.125  15.607   0.921
80197W        W41563  24.059  33.025   3.639
80198W        W41564  37.344  40.426   2.320
80199W        W41565  13.128  31.491  13.967
80200W        W41566   2.892  20.055  11.534
80201W        W41567  16.730   8.701   2.829
80202W        W41568  42.525  30.508   4.838
80203W        W41569  10.866  18.733  10.601
80204W        W41570  17.592  25.977  11.563
80205W        W41571  20.597   3.787  12.002
80206W        W41572  29.159  34.439   0.429
80207W        W41573  43.933  24.611   0.726
80208W        W41574  22.204   7.816  10.952
80209W        W41575  16.667  14.266   2.267
80210W        W41576  21.225  25.996   3.180
80211W        W41577  30.493   8.250   1.858
80212W        W41578  31.442  20.113  11.976
80213W        W41579  22.189  33.520  11.933
80214W        W41580  14.788   3.934   4.191
80215W        W41581  35.032  10.711  14.399
80216W        W41582  29.169  24.220   2.233
80217W        W41583  17.087  22.159   4.600
80218W        W41584  31.016  14.235   2.377
80219W        W41585   9.355  40.365  11.028
80220W        W41586  13.196   2.237  13.038
80221W        W41587  13.297  36.578   3.635
80222W        W41588   8.876  40.855  12.455
80223W        W41589  38.958  16.807  13.413
80224W        W41590  42.448  18.123  13.409
80225W        W41591  28.483  27.152   1.216
80226W        W41592   5.897  28.456   4.668
80227W        W41593   0.478  24.547  13.009
80228W        W41594  43.020   5.745   2.804
80229W        W41595  17.241  15.192   0.380
80230W        W41596   3.440  16.779  13.030
80231W        W41597  39.907  17.268   1.877
80232W        W41598  19.235  38.965  13.377
80233W        W41599  30.996  10.190  11.102
80234W        W41600  37.918  44.755   3.794
80235W        W41601  39.991   4.248  13.991
80236W        W41602  18.704  44.788   2.369
80237W        W41603  44.908  17.226   2.367
80238W        W41604   1.282  34.046  14.482
80239W        W41605  43.983  13.173   0.728
80240W        W41606  34.964  36.505   2.859
80241W        W41607  20.149  19.103  10.998
80242W        W41608  15.103   5.199   3.295
80243W        W41609   1.265   3.251   1.284
80244W        W41610  35.962   8.826   4.297
80245W        W41611  28.674   2.933   4.807
80246W        W41612   9.198  32.433  12.056
80247W        W41613  25.677  23.638  11.547
80248W        W41614  40.891   2.737  14.282
80249W        W41615  27.112  17.152  12.987
80250W        W41616  43.278  44.798   2.841
80251W        W41617  28.497  27.007  12.505
80252W        W41618  30.062   3.769  11.583
80253W        W41619  35.901   1.401  13.410
80254W        W41620  41.867  10.688   1.346
80255W        W41621   0.382  18.258  14.501
80256W        W41622   5.858  32.528   0.858
80257W        W41623  24.070  39.904  13.984
80258W        W41624   7.214   1.345  10.964
80259W        W41625  27.128  21.671  13.371
80260W        W41626  28.994  12.121  12.926
80261W        W41627   4.217  44.373   4.245
80262W        W41628  11.138  21.717   1.291
80263W        W41629  15.751  37.841   2.351
80264W        W41630  39.821  39.380   0.389
80265W        W41631   2.875  38.058  12.413
80266W        W41632   3.790  39.026   9.976
80267W        W41633  32.405  37.480  13.825
80268W        W41634  43.838  25.089   4.814
80269W        W41635  44.430  23.134  14.816
80270W        W41636  37.530  15.187  13.034
80271W        W41637  41.028   1.296  14.421
80272W        W41638  31.054  40.488  11.589
80273W        W41639   5.882  29.550  12.454
80274W        W41640  13.143  39.877  13.325
80275W        W41641  33.444  15.311  14.005
80276W        W41642  42.990  24.510   4.223
80277W        W41643  31.544   5.933  13.809
80278W        W41644   6.188  39.389  11.008
80279W        W41645   4.325  18.689   4.643
80280W        W41646  15.789  18.148  12.403
80281W        W41647  40.813  38.469   4.784
80282W        W41648   6.841  26.479   4.174
80283W        W41649  13.145   1.918  12.005
80284W        W41650  41.986  32.080  14.994
80285W        W41651  33.879  16.078  13.874
80286W        W41652  16.106   2.277  12.948
80287W        W41653  27.020  28.069  14.993
80288W        W41654   9.690  18.676  12.452
80289W        W41655  31.118  24.109  12.968
80290W        W41656  14.263  24.660   4.733
80291W        W41657   7.191  26.652  11.402
80292W        W41658  32.453  38.330   3.375
80293W        W41659   7.243  32.048   3.272
80294W        W41660  37.947  42.387   2.376
80295W        W41661  31.927  16.281   2.301
80296W        W41662  29.117  27.025  13.424
80297W        W41663  24.192  14.717   0.912
80298W        W41664  24.173  13.655   0.821
80299W        W41665  10.869   5.796   2.842
80300W        W41666  43.829  26.564   2.780
80301W        W41667  26.669   4.269   3.790
80302W        W41668   2.341  32.607  14.870
80303W        W41669  27.037  32.086  10.494
80304W        W41670  38.819  31.525  12.887
80305W        W41671  37.482   4.758   5.169
80306W        W41672  12.769   8.657  13.526
80307W        W41673   3.790  39.822   1.911
80308W        W41674  42.352  16.683   0.960
80309W        W41675  16.738  43.766  13.031
80310W        W41676  26.987  40.362  12.061
80311W        W41677  28.119   2.745  13.502
80312W        W41678   6.283   7.171  14.314
80313W        W41679  39.859  23.225  11.427
80314W        W41680  16.812  18.136   1.746
80315W        W41681  18.147  37.847   1.333
80316W        W41682  28.051   5.694  10.490
80317W        W41683  12.701  17.085  13.892
80318W        W41684  42.858   8.380   0.862
80319W        W41685  30.487  20.136   2.729
80320W        W41686  21.736  33.127  13.923
80321W        W41687  22.698  32.069  12.504
80322W        W41688  43.797  43.291   3.860
80323W        W41689  16.186  22.173   1.841
80324W        W41690  12.224   6.265  10.407
80325W        W41691   9.237  17.708   1.405
80326W        W41692  42.357   2.370  11.611
80327W        W41693  21.580  24.184   9.997
80328W        W41694   3.949   1.756  13.988
80329W        W41695  21.518  37.473   2.729
80330W        W41696  10.797   9.153  13.854
80331W        W41697  44.320  10.755  12.968
80332W        W41698  26.540  12.314  12.932
80333W        W41699  37.983  29.480   4.610
80334W        W41700  28.551  39.923  11.442
80335W        W41701  27.671   2.308  11.958
80336W        W41702   4.891  34.883  12.440
80337W        W41703  21.739  17.575  14.031
80338W        W41704  37.040  35.929   1.818
80339W        W41705  40.457   7.727   3.736
80340W        W41706   3.309   5.414  11.481
80341W        W41707  24.558  12.285  13.543
80342W        W41708  10.663   2.267  13.361
80343W        W41709  24.496  27.187  11.956
80344W        W41710  19.697  27.977   4.622
80345W        W41711  23.627  24.708  11.069
80346W        W41712  37.452   9.347  14.765
80347W        W41713  16.231  30.096  10.622
80348W        W41714  35.447  29.991  12.468
80349W        W41715  17.205  19.665   2.189
80350W        W41716  38.921   8.252  14.324
80351W        W41717  42.357   4.375   0.279
80352W        W41718   5.822  36.411   4.732
80353W        W41719  30.415   6.782  11.016
80354W        W41720  31.616  38.448  14.001
80355W        W41721  23.109   4.785  13.846
80356W        W41722  24.497  24.544  11.569
80357W        W41723  27.679  21.713   2.306
80358W        W41724  23.076   1.421   1.417
80359W        W41725  10.668  33.504   3.812
80360W        W41726  32.414  26.009   3.736
80361W        W41727   6.758   0.947   3.671
80362W        W41728   1.425   8.283  10.560
80363W        W41729  37.365  37.570   2.268
80364W        W41730  27.493   0.494   3.364
80365W        W41731  12.721  39.551  10.564
80366W        W41732  27.687  30.108  10.451
80367W        W41733   7.336  39.349  13.061
80368W        W41734   7.416   4.893   9.932
80369W        W41735  42.872  35.396  11.012
80370W        W41736   5.437   0.795   1.297
80371W        W41737  23.616  31.547   4.687
80372W        W41738  25.470  15.585   0.921
80373W        W41739  37.996  21.670  11.409
80374W        W41740   7.811  21.680   1.335
80375W        W41741  33.107  41.946   4.718
80376W        W41742   7.358  11.814  10.569
80377W        W41743  26.691  13.276  13.911
80378W        W41744  39.836  42.931   0.780
80379W        W41745  29.999  16.776  13.936
80380W        W41746  12.343   3.727   2.338
80381W        W41747  10.332   8.772   2.352
80382W        W41748  21.717  37.042   1.265
80383W        W41749  16.664  35.079   4.606
80384W        W41750  17.635  16.753  12.069
80385W        W41751  39.406  22.528  12.037
80386W        W41752  14.629  41.907   1.699
80387W        W41753   7.811  34.973   2.397
80388W        W41754  29.491  10.211  10.049
80389W        W41755   0.907  20.547  10.988
80390W        W41756  19.112  28.158   3.278
80391W        W41757  14.707  33.400   9.572
80392W        W41758  14.641  36.406  13.312
80393W        W41759  18.174  15.226  11.005
80394W        W41760  44.495  26.557  12.408
80395W        W41761   3.760  41.957  10.931
80396W        W41762  44.331  38.565  13.430
80397W        W41763   1.795  14.603   4.671
80398W        W41764   3.820  21.054   4.125
80399W        W41765  35.899  23.154   3.767
80400W        W41766   4.849  25.106   4.601
80401W        W41767  31.441  37.518   4.678
80402W        W41768   2.900   1.267  14.021
80403W        W41769  43.954  10.293  14.897
80404W        W41770   7.895  18.609   1.699
80405W        W41771  22.572   2.751  14.289
80406W        W41772  29.588  23.217  10.023
80407W        W41773  22.643  27.005  10.957
80408W        W41774  34.913  22.713  11.414
80409W        W41775  33.451   6.344  13.884
80410W        W41776  12.683  42.933   3.237
80411W        W41777  18.766   5.717   3.707
80412W        W41778  11.325   8.743  14.941
80413W        W41779   9.247  40.015  14.293
80414W        W41780  11.676  12.163   4.113
80415W        W41781  23.622   3.727  11.998
80416W        W41782   8.263  31.084  13.489
80417W        W41783   6.796  38.338   0.412
80418W        W41784  11.350  40.854  14.354
80419W        W41785  33.409   3.717   3.760
80420W        W41786  30.573  11.129  13.993
80421W        W41787  23.197  25.510   4.306
80422W        W41788  44.376   0.933   5.115
80423W        W41789  33.529  31.145  13.019
80424W        W41790  12.702  32.550  10.406
80425W        W41791  16.150  39.000   4.253
80426W        W41792   0.464  29.633   1.764
80427W        W41793  43.773  23.509  10.969
80428W        W41794  20.059  29.964  12.360
80429W        W41795   3.263   0.744   2.186
80430W        W41796  39.004  14.112  13.480
80431W        W41797  34.587   3.419  12.083
80432W        W41798  32.564   1.894   4.621
80433W        W41799  20.189  24.990  11.400
80434W        W41800  35.358   9.174   1.389
80435W        W41801  23.183  42.995  11.483
80436W        W41802  10.667  26.464  14.474
80437W        W41803  38.988  17.293  13.320
80438W        W41804  34.880  43.513  11.875
80439W        W41805  25.006  32.453  12.479
80440W        W41806   7.243   0.251  14.401
80441W        W41807   7.223  16.777   0.809
80442W        W41808  27.116   8.751   1.242
80443W        W41809  26.051  27.462   0.933
80444W        W41810  42.455  30.644   1.770
80445W        W41811  24.585  33.968  11.494
80446W        W41812  16.606   7.871   0.462
80447W        W41813   7.370  13.719  10.457
80448W        W41814  40.423  31.897  12.431
80449W        W41815  39.549  23.592   1.278
80450W        W41816  33.468  34.885  12.427
80451W        W41817  42.510  13.187  14.511
80452W        W41818   1.862  33.966   4.771
80453W        W41819  12.129  24.491  14.501
80454W        W41820  33.913  36.094  14.794
80455W        W41821  18.681  27.155  12.892
80456W        W41822  37.015  30.523   2.694
80457W        W41823  23.668   9.783   3.744
80458W        W41824  43.281   0.963   2.383
80459W        W41825  35.077  43.772   0.895
80460W        W41826   1.948  11.682   2.824
80461W        W41827  14.643  30.108   5.126
80462W        W41828  17.780  14.624  14.874
80463W        W41829  37.520  12.343   1.311
80464W        W41830  24.658  32.907   0.319
80465W        W41831   5.776   7.768  10.970
80466W        W41832  42.971   3.822   4.610
80467W        W41833  40.311  35.375  14.923
80468W        W41834  23.497  29.517   2.216
80469W        W41835   6.891  24.709  12.003
80470W        W41836  18.098  17.645   1.699
80471W        W41837  14.781   3.855  14.444
80472W        W41838  10.369  40.995  11.990
80473W        W41839   6.352  15.108  13.802
80474W        W41840   0.802   0.485   1.921
80475W        W41841   6.867  23.176   2.189
80476W        W41842   4.933  36.990   4.615
80477W        W41843  16.095  12.278   1.317
80478W        W41844  24.182   5.896   0.319
80479W        W41845  39.437  14.681  11.533
80480W        W41846  15.753  15.306  11.422
80481W        W41847  33.058  29.437   1.296
80482W        W41848  20.231   5.382   1.838
80483W        W41849  12.228  33.441   3.165
80484W        W41850   1.303  37.434  11.033
80485W        W41851  34.079  20.689   4.195
80486W        W41852   8.760  40.499  11.951
80487W        W41853  32.545  29.617  12.409
80488W        W41854  13.312  18.697   3.640
80489W        W41855  43.954  37.415   0.396
80490W        W41856   4.759   9.250   4.261
80491W        W41857  34.942  26.963   2.849
80492W        W41858  30.612   8.830  14.282
80493W        W41859  28.051   1.342   2.179
80494W        W41860  16.268   4.834  13.323
80495W        W41861  11.134   4.376   0.794
80496W        W41862  37.577  12.142  12.392
80497W        W41863  29.491  26.115   3.834
80498W        W41864  42.366  37.832   0.320
80499W        W41865  36.017   2.847   4.719
80500W        W41866   3.795  42.922  11.876
80501W        W41867   8.198  15.765   3.736
80502W        W41868   3.753  23.085   3.227
80503W        W41869  22.160   2.284  12.505
80504W        W41870   8.825  21.709  12.936
80505W        W41871   7.872  35.083   1.764
80506W        W41872  18.739  20.110  10.553
80507W        W41873  20.109  17.756  12.491
80508W        W41874  23.195  44.897   4.717
80509W        W41875  34.015  32.138   3.678
80510W        W41876  25.189   1.747   0.251
80511W        W41877   5.695  42.509  13.547
80512W        W41878  33.897  12.783  11.406
80513W        W41879   6.233  24.101  12.943
80514W        W41880  22.072  42.010  11.090
80515W        W41881   3.828   1.343  13.505
80516W        W41882   6.905  40.875   3.817
80517W        W41883  42.865   7.906  13.325
80518W        W41884  12.273  42.865   9.986
80519W        W41885  10.360  26.664   1.735
80520W        W41886  33.468  13.344  13.883
80521W        W41887  43.856  44.334   3.816
80522W        W41888   5.721   2.945   0.851
80523W        W41889   2.786   1.928   0.343
80524W        W41890  39.363   2.792   1.439
80525W        W41891   4.320   1.382   1.758
80526W        W41892  20.151  19.754  12.096
80527W        W41893  30.910  22.032   3.219
80528W        W41894   4.788  10.842   0.802
80529W        W41895  40.972  16.570   1.881
80530W        W41896  32.958  39.421  11.565
80531W        W41897  35.857  25.603   1.240
80532W        W41898   3.776   4.396  14.919
80533W        W41899  33.962  43.514   4.802
80534W        W41900  23.169  18.630  13.838
80535W        W41901   6.413  13.618   3.701
80536W        W41902  14.122  10.797   1.830
80537W        W41903  29.668  42.465   3.711
80538W        W41904   9.243   6.228   1.398
80539W        W41905   0.806   0.284  10.961
80540W        W41906  15.615  20.697   5.164
80541W        W41907  13.217  31.014   4.735
80542W        W41908  34.875  42.506   3.779
80543W        W41909  24.055   2.228   4.835
80544W        W41910   5.819  11.692   0.822
80545W        W41911  40.432  40.980   1.375
80546W        W41912   5.352  43.331   1.716
80547W        W41913  41.983  12.135  14.369
80548W        W41914  11.735   0.363  11.079
80549W        W41915  35.514  41.814   0.387
80550W        W41916  12.706  30.960   2.345
80551W        W41917  44.832   3.765  14.032
80552W        W41918   6.887  35.580  14.854
80553W        W41919  43.005  44.869   3.814
80554W        W41920   6.413  31.938  10.920
80555W        W41921  43.854   0.284  10.429
80556W        W41922  37.348  39.503  13.378
80557W        W41923   7.388  41.877  14.892
80558W        W41924  12.204  28.494   1.792
80559W        W41925  33.905  25.993  13.524
80560W        W41926   7.225  25.491   4.721
80561W        W41927  25.611  16.799   1.293
80562W        W41928  38.068  40.345  13.838
80563W        W41929  11.332  27.546  11.913
80564W        W41930  34.074  40.014   0.878
80565W        W41931   6.877  23.176   1.778
80566W        W41932  20.670  29.093   3.670
80567W        W41933  38.935  20.184   4.279
80568W        W41934  15.668  34.058   2.703
80569W        W41935   5.392  44.876  14.861
80570W        W41936  11.623  40.482  12.491
80571W        W41937  37.021   5.277   4.130
80572W        W41938  18.140  11.739   4.736
80573W        W41939   9.363  32.015   1.815
80574W        W41940   6.304  31.528  12.091
80575W        W41941  36.009  21.710  12.060
80576W        W41942  18.216   5.874   3.698
80577W        W41943  12.201  28.065   3.349
80578W        W41944  22.586  15.695   4.149
80579W        W41945  13.133   1.900   4.735
80580W        W41946  44.842  11.171   3.332
80581W        W41947  31.061  33.617   2.258
80582W        W41948  41.309  39.491   4.349
80583W        W41949  22.181  44.452  13.984
80584W        W41950  44.795  19.691  12.975
80585W        W41951  44.334   7.757  12.524
80586W        W41952  35.019  32.572  14.991
80587W        W41953  44.505   5.363   0.749
80588W        W41954  30.487  22.017  10.542
80589W        W41955  25.004  31.026  10.937
80590W        W41956  44.886  22.562   0.756
80591W        W41957  41.892   3.231   3.262
80592W        W41958  20.545  22.629  12.382
80593W        W41959  26.092   7.777   1.280
80594W        W41960  37.339   0.764  14.927
80595W        W41961  12.341  34.383   3.323
80596W        W41962  30.984  36.519   3.180
80597W        W41963  17.289   1.773   3.869
80598W        W41964  11.353   3.848   2.372
80599W        W41965   4.875  20.716   2.302
80600W        W41966  29.551  28.555  13.388
80601W        W41967  31.999   0.299  12.404
80602W        W41968  14.290  15.652  11.966
80603W        W41969  23.548  13.220  13.476
80604W        W41970  20.149  18.175   2.786
80605W        W41971  21.539  43.382   2.787
80606W        W41972   9.207  34.012   0.912
80607W        W41973  11.153  17.593  11.050
80608W        W41974  30.015  33.439  11.023
80609W        W41975  12.145  10.739  14.009
80610W        W41976  29.457  38.344  14.969
80611W        W41977  22.543   2.464   1.376
80612W        W41978  18.617  30.097   2.294
80613W        W41979  42.526  30.134  11.867
80614W        W41980   2.936  38.940   2.769
80615W        W41981   5.849  14.251  12.957
80616W        W41982   3.825   0.877  11.409
80617W        W41983  39.472   1.262  12.567
80618W        W41984  15.761  27.024   3.291
80619W        W41985  30.439  18.575   1.819
80620W        W41986  40.318  23.610   0.885
80621W        W41987  41.013  43.917  13.848
80622W        W41988  26.190  20.599   1.337
80623W        W41989  41.985  25.628   2.344
80624W        W41990  30.625   9.389   1.268
80625W        W41991  35.918  12.777  14.481
80626W        W41992  35.922  13.806  11.523
80627W        W41993  16.216  19.650   1.211
80628W        W41994  44.927  20.210   0.897
80629W        W41995   9.659  18.092   2.851
80630W        W41996  15.723  18.276   3.661
80631W        W41997  40.904  30.991  14.901
80632W        W41998  42.966   4.416   3.272
80633W        W41999  16.219  21.199   3.711
80634W        W42000  17.226   9.719  13.522
80635W        W42001  20.522  29.548  10.635
80636W        W42002  20.629  16.705  12.084
80637W        W42003  33.024  14.762  13.983
80638W        W42004  11.276   3.880   0.345
80639W        W42005   8.846  34.063  13.524
80640W        W42006  31.948  13.614  14.418
80641W        W42007  38.866  30.507   1.354
80642W        W42008   2.735  18.754  10.043
80643W        W42009  32.984  40.450   2.760
80644W        W42010  16.691  40.899   2.845
80645W        W42011  31.994  17.586   3.384
80646W        W42012  13.678  40.931  14.839
80647W        W42013  27.004   7.366  11.119
80648W        W42014  27.993  33.448  11.990
80649W        W42015  22.588   3.797   2.713
80650W        W42016  32.466  40.362  12.573
80651W        W42017  41.039  34.975   1.408
80652W        W42018   9.649  13.756   4.713
80653W        W42019  22.524  12.333   0.835
80654W        W42020  44.406  37.841   1.236
80655W        W42021  30.986  29.444  11.028
80656W        W42022   9.723  15.283   1.856
80657W        W42023  31.052  10.811   0.869
80658W        W42024  25.534  44.448  13.497
80659W        W42025  41.882  42.379  11.594
80660W        W42026   7.369  18.613  11.882
80661W        W42027  16.752  39.515   0.848
80662W        W42028  34.052   4.738   3.665
80663W        W42029  40.851  13.296  14.818
80664W        W42030  36.010   2.262   0.398
80665W        W42031  31.548  26.026  11.910
80666W        W42032  16.118   4.425  14.337
80667W        W42033   7.906  29.578   2.336
80668W        W42034   0.402  36.427   1.736
80669W        W42035  40.431  17.175   0.248
80670W        W42036  19.726  40.381  12.825
80671W        W42037  32.123   6.704   3.351
80672W        W42038   6.196  37.436  10.936
80673W        W42039  25.584  15.092  12.932
80674W        W42040   7.699  41.007  11.570
80675W        W42041   2.882  27.484   3.313
80676W        W42042  44.345  43.829   0.285
80677W        W42043  14.245  15.286  13.944
80678W        W42044  35.577  29.520   0.350
80679W        W42045  38.490   1.462   2.373
80680W        W42046  20.768  21.105   0.325
80681W        W42047  17.240  11.352   2.856
80682W        W42048  25.085  37.866   3.360
80683W        W42049  30.953  19.679  11.882
80684W        W42050  37.989  39.834  13.486
80685W        W42051  28.984  23.025   1.244
80686W        W42052  15.595  28.600   0.849
80687W        W42053   4.435   0.887   4.713
80688W        W42054  42.418  26.059  14.808
80689W        W42055  27.974  43.923  12.351
80690W        W42056   3.879   4.792  11.966
80691W        W42057   4.924   8.853  12.953
80692W        W42058  42.489  44.457   4.827
80693W        W42059  14.709  39.869  14.292
80694W        W42060  33.073  44.303  13.975
80695W        W42061   5.393  26.647   4.157
80696W        W42062  36.463  42.328  12.351
80697W        W42063  43.472   4.835  12.528
80698W        W42064   4.218  38.362  13.454
80699W        W42065  36.033   5.831  13.918
80700W        W42066  31.441   4.790   0.396
80701W        W42067  35.470   6.415   1.907
80702W        W42068   9.167  43.343   3.353
80703W        W42069  31.140  28.082   0.888
80704W        W42070   6.876   6.816  11.001
80705W        W42071  25.555  36.429   3.657
80706W        W42072  24.703  40.872  10.472
80707W        W42073  44.818  26.954  13.498
80708W        W42074   9.159  34.940   1.232
80709W        W42075   7.798  36.347   4.806
80710W        W42076  10.844  41.347   4.254
80711W        W42077  44.476  40.897   1.721
80712W        W42078  20.637  22.552  12.969
80713W        W42079  29.590   1.454  11.512
80714W        W42080  37.532   8.257   0.320
80715W        W42081  44.423  38.491   3.360
80716W        W42082  34.595   2.284  10.567
80717W        W42083   6.693  35.371   0.370
80718W        W42084  19.077   1.888  10.511
80719W        W42085  40.471  11.710   0.777
80720W        W42086  31.441  29.441   2.891
80721W        W42087  20.119   7.684   2.211
80722W        W42088  40.402  22.584   0.947
80723W        W42089   4.764   7.273   1.211
80724W        W42090  20.121  10.743  10.521
80725W        W42091  13.738   0.448   0.754
80726W        W42092  26.997  16.218   4.206
80727W        W42093  20.072  30.998   3.761
80728W        W42094   3.329  19.626   4.113
80729W        W42095   3.372  13.634  13.541
80730W        W42096  23.068  15.251   2.382
80731W        W42097  33.422  35.559   2.704
80732W        W42098   2.871  37.899   0.857
80733W        W42099   4.767  31.419  12.363
80734W        W42100  33.566  33.546  11.409
80735W        W42101  30.117   8.764  13.964
80736W        W42102  12.731  19.252   0.260
80737W        W42103  31.062  25.975  13.456
80738W        W42104  10.733  11.212  13.378
80739W        W42105  26.164   2.416  10.470
80740W        W42106  25.089  11.637  10.640
80741W        W42107  26.484  14.149  10.942
80742W        W42108  17.597  44.321   0.450
80743W        W42109  22.127   8.661   1.370
80744W        W42110   8.838  31.517  11.897
80745W        W42111   3.402  25.583   3.751
80746W        W42112   1.878   3.351  14.392
80747W        W42113  26.587  21.225  11.876
80748W        W42114  39.880  43.315  14.474
80749W        W42115   8.803  31.471   0.912
80750W        W42116  41.342  25.684  11.554
80751W        W42117  40.380   8.755  11.487
80752W        W42118  23.081  26.206  14.031
80753W        W42119   6.366  17.779  13.827
80754W        W42120  35.028  15.304   0.746
80755W        W42121  19.258  39.415  11.948
80756W        W42122   3.367  44.966   4.662
80757W        W42123   3.720  33.414  12.400
80758W        W42124  17.613  15.590   4.299
80759W        W42125   6.332  26.702   1.924
80760W        W42126  37.565  10.183   0.875
80761W        W42127  24.164  31.141  11.465
80762W        W42128  36.850   3.781  14.500
80763W        W42129  20.128  16.245   1.827
80764W        W42130  29.920  33.535  14.990
80765W        W42131  39.839  14.199   2.822
80766W        W42132  20.172  29.125   3.155
80767W        W42133   8.871  13.607  10.436
80768W        W42134  23.535  25.213  11.450
80769W        W42135  33.557   8.383  14.429
80770W        W42136  10.248  12.708  12.402
80771W        W42137  41.003  44.001  12.456
80772W        W42138   2.951  12.219   0.480
80773W        W42139  31.102  28.084  14.954
80774W        W42140   8.826   7.316   2.734
80775W        W42141  31.491  33.028  10.638
80776W        W42142  34.912   8.269  13.435
80777W        W42143  34.118  35.592   3.265
80778W        W42144  10.653  17.271  14.283
80779W        W42145  33.886   5.796  13.057
80780W        W42146  26.553  14.690  11.458
80781W        W42147  20.660  31.581  12.056
80782W        W42148  16.761  43.431  12.412
80783W        W42149  43.293  22.055  13.527
80784W        W42150   3.875  24.490  14.920
80785W        W42151  32.089  42.988  13.891
80786W        W42152   4.759   6.790  11.610
80787W        W42153  17.166  37.476  12.006
80788W        W42154  13.682  15.598   5.090
80789W        W42155  39.057  25.686  11.902
80790W        W42156  27.452  36.042   1.334
80791W        W42157  20.693  17.258   3.265
80792W        W42158   6.907   0.470  10.914
80793W        W42159  35.039  44.271   4.160
80794W        W42160  12.259  31.125   0.947
80795W        W42161  19.202  22.604  12.377
80796W        W42162   6.764   1.948  14.480
80797W        W42163  21.133  41.450   3.707
80798W        W42164  31.096   9.336   3.282
80799W        W42165  37.342  16.621  13.018
80800W        W42166  38.977   8.792   5.094
80801W        W42167  27.626  23.128  13.053
80802W        W42168  44.773  41.856   1.757
80803W        W42169  13.644  10.335   1.793
80804W        W42170  20.107  10.825   2.880
80805W        W42171  13.726  10.733   4.644
80806W        W42172  20.703  14.727   1.739
80807W        W42173  38.518  33.604   2.847
80808W        W42174  26.072  29.124  14.775
80809W        W42175   6.284  20.689  11.584
80810W        W42176  11.763  25.667   0.437
80811W        W42177   9.680  24.974   0.895
80812W        W42178   8.677  13.700  12.037
80813W        W42179   0.969  13.312  14.872
80814W        W42180  28.178   4.929   5.295
80815W        W42181   3.392  22.126  14.326
80816W        W42182  19.050   5.796  14.416
80817W        W42183  42.964  22.679   0.308
80818W        W42184  17.583  34.063  12.966
80819W        W42185   4.890  17.598   4.810
80820W        W42186  33.553   8.332   0.348
80821W        W42187   7.815  32.606  11.606
80822W        W42188  32.028  28.642  12.504
80823W        W42189  22.058  30.157  13.434
80824W        W42190  24.636   4.361   3.764
80825W        W42191   6.254  39.828   0.296
80826W        W42192  13.115  23.108  13.845
80827W        W42193  40.903  34.064  11.922
80828W        W42194  29.580  32.459   3.229
80829W        W42195  29.099   2.272   4.622
80830W        W42196  22.124  33.941  13.477
80831W        W42197  43.871  38.047  14.873
80832W        W42198  22.517  43.883  11.901
80833W        W42199  27.053   7.740   0.327
80834W        W42200  44.492  32.056   0.782
80835W        W42201  20.677  43.295  10.491
80836W        W42202   8.811  19.090   3.658
80837W        W42203   2.440  43.917  11.924
80838W        W42204  42.938  22.515   2.663
80839W        W42205   5.395  35.074   3.375
80840W        W42206   0.966  37.906   2.276
80841W        W42207  39.967   1.457   4.753
80842W        W42208  38.545   7.263  11.076
80843W        W42209   2.766   7.185   4.336
80844W        W42210  40.011  34.548  11.419
80845W        W42211  27.946  26.632  12.907
80846W        W42212  15.261  20.146   2.320
80847W        W42213   0.427  12.186   4.285
80848W        W42214  22.097   6.297  14.460
80849W        W42215   8.753  11.311   0.366
80850W        W42216  14.739  33.559  10.033
80851W        W42217  20.059  21.054   4.612
80852W        W42218   2.941  42.394   0.769
80853W        W42219  14.693  33.887  11.609
80854W        W42220   8.161  30.957   4.713
80855W        W42221  35.106  22.572   5.182
80856W        W42222  44.773  40.466  11.571
80857W        W42223  39.511   2.943   0.324
80858W        W42224   9.244  11.239  12.871
80859W        W42225  26.599  38.883   4.825
80860W        W42226   4.811   6.716   5.238
80861W        W42227  25.513   3.798  14.328
80862W        W42228  40.867   3.444   5.125
80863W        W42229  16.198   7.190  10.645
80864W        W42230  21.108  36.424  14.783
80865W        W42231  28.447  42.364  13.050
80866W        W42232  31.031  25.695  12.925
80867W        W42233  20.163   7.787   0.324
80868W        W42234  27.111   3.928   3.260
80869W        W42235  40.545   3.401  12.935
80870W        W42236  32.484  42.986   2.349
80871W        W42237  12.795  21.578  14.813
80872W        W42238  34.374  29.526   4.248
80873W        W42239  12.809  23.078  10.952
80874W        W42240  39.415  31.515  11.987
80875W        W42241   7.801  36.355   1.858
80876W        W42242   2.762  18.217  10.404
80877W        W42243  19.691   4.724   2.823
80878W        W42244  24.667  27.446  11.878
80879W        W42245  10.642  14.240   5.113
80880W        W42246   1.944  14.148   1.259
80881W        W42247  22.015  28.527  10.954
80882W        W42248   2.246  32.054   3.220
80883W        W42249  33.547  28.103   2.218
80884W        W42250   2.856  17.759  13.444
80885W        W42251   6.220  30.027  14.773
80886W        W42252  31.082  16.606  13.914
80887W        W42253  30.517  17.613   2.226
80888W        W42254   9.660  16.317   2.393
80889W        W42255  14.679   8.691  12.080
80890W        W42256  38.042  35.532  11.070
80891W        W42257   6.194   3.419  13.455
80892W        W42258   1.300   3.812  11.973
80893W        W42259   1.371   8.284  14.013
80894W        W42260  11.307  17.164  14.300
80895W        W42261   9.303   9.867   3.666
80896W        W42262   2.428  34.958   0.252
80897W        W42263  36.028  32.945  14.764
80898W        W42264  42.366  33.602  13.548
80899W        W42265  31.410  26.500  13.920
80900W        W42266  39.902   9.190  11.126
80901W        W42267  38.501  28.107   4.276
80902W        W42268   2.272  36.474  10.544
80903W        W42269  21.108  23.187  11.902
80904W        W42270  28.014   1.410   3.709
80905W        W42271  33.013   1.784   3.663
80906W        W42272   1.303   6.422  12.518
80907W        W42273  37.937  25.495  14.991
80908W        W42274  36.990  23.680  12.952
80909W        W42275   5.720  28.930  13.898
80910W        W42276  28.045  42.983   3.773
80911W        W42277  14.775  44.000   3.321
80912W        W42278   5.255   2.428  13.329
80913W        W42279  38.946  24.052   3.161
80914W        W42280   8.869  10.652  11.000
80915W        W42281   7.669  15.795  14.498
80916W        W42282  42.520  22.610  12.396
80917W        W42283  43.480  22.201   4.306
80918W        W42284  16.699   1.351  11.460
80919W        W42285   7.852  29.530   3.322
80920W        W42286   3.953  33.066  14.441
80921W        W42287  31.085   8.777  12.966
80922W        W42288  36.902  13.702  13.848
80923W        W42289  11.710   1.343   3.682
80924W        W42290  33.570   6.326   3.242
80925W        W42291  27.997  35.913  10.532
80926W        W42292   0.247   7.761  14.905
80927W        W42293   6.728  18.733  10.079
80928W        W42294   2.417  19.259   1.332
80929W        W42295  24.117   7.237   3.149
80930W        W42296  18.777  41.422   0.466
80931W        W42297   6.293   6.793  14.805
80932W        W42298  18.088  28.664   0.438
80933W        W42299   1.945  19.646   2.307
80934W        W42300   4.797  43.272  14.967
80935W        W42301  19.591  19.755   4.798
80936W        W42302  14.648  25.551  11.901
80937W        W42303  40.456  43.320  11.859
80938W        W42304   7.223  11.689   0.957
80939W        W42305  39.487  20.170   3.184
80940W        W42306  26.679  14.588   1.932
80941W        W42307   4.309  12.818   4.174
80942W        W42308   9.251  32.485   4.118
80943W        W42309  28.943  40.965  12.512
80944W        W42310  25.610  26.080   1.767
80945W        W42311  22.660  30.612   3.180
80946W        W42312  13.204  13.112  14.838
80947W        W42313  27.534  42.014   2.380
80948W        W42314  37.982  17.172  12.833
80949W        W42315  22.688  18.546   0.839
80950W        W42316   9.723  23.716  14.311
80951W        W42317  40.344  29.479  14.939
80952W        W42318  31.477  27.496  12.886
80953W        W42319   5.854  27.987   0.266
80954W        W42320  39.349   3.826   4.599
80955W        W42321   2.437  17.757   4.711
80956W        W42322  13.333   4.252  14.925
80957W        W42323  29.456   6.273  10.595
80958W        W42324  25.995  39.441  12.515
80959W        W42325  21.183   0.850   0.362
80960W        W42326  22.569  43.301   0.450
80961W        W42327  25.962   3.216   5.270
80962W        W42328  36.023  15.108   2.860
80963W        W42329  26.969  30.421   0.295
80964W        W42330  25.665  17.120   0.746
80965W        W42331  33.039  19.684   3.642
80966W        W42332  24.020  25.095  12.865
80967W        W42333  37.482  13.342   1.867
80968W        W42334  37.519   0.342   9.978
80969W        W42335   4.250   7.696  14.823
80970W        W42336  22.160   2.935   4.311
80971W        W42337  10.632  21.203   0.269
80972W        W42338  43.427  11.259  13.525
80973W        W42339  24.489  43.899  13.375
80974W        W42340  22.651   5.393   0.828
80975W        W42341   4.253  16.715   1.300
80976W        W42342  18.689  17.729  12.374
80977W        W42343  11.354  41.330  10.434
80978W        W42344  31.998   7.909  12.830
80979W        W42345   4.761  42.307  12.483
80980W        W42346   8.161  16.600  11.479
80981W        W42347   2.725  13.226   2.327
80982W        W42348  10.335  34.445  10.575
80983W        W42349   0.430  25.667  13.541
80984W        W42350  31.545  31.092   0.391
80985W        W42351  37.446  28.499  11.005
80986W        W42352  15.714   8.686  14.005
80987W        W42353  24.113  16.635  11.090
80988W        W42354   1.755  26.687  14.768
80989W        W42355   5.932  16.684  13.459
80990W        W42356   2.729  33.017  14.514
80991W        W42357  27.525  15.126  10.577
80992W        W42358  29.488  11.652  14.001
80993W        W42359  36.466  14.678  13.865
80994W        W42360  17.734  44.398   2.261
80995W        W42361  16.575  41.457  14.461
80996W        W42362   7.283  43.299   0.933
80997W        W42363   7.738  40.043  12.826
80998W        W42364   2.289  12.144  13.960
80999W        W42365  23.193  22.658  13.531
81000W        W42366  31.905  12.776  14.009
81001W        W42367  37.872  36.357  14.509
81002W        W42368   6.914  18.129   1.868
81003W        W42369  38.922   4.352   3.313
81004W        W42370  13.655  20.263  13.426
81005W        W42371   0.917  13.779   1.319
81006W        W42372   2.815  38.974   0.784
81007W        W42373  11.702   6.231   1.322
81008W        W42374  42.364   7.338  14.372
81009W        W42375  42.805   6.758   1.852
81010W        W42376   5.356  30.445   5.082
81011W        W42377  41.861  39.891  11.946
81012W        W42378   9.285   1.892   0.461
81013W        W42379  43.802  29.981  14.305
81014W        W42380   2.814  41.496  12.865
81015W        W42381  22.645  26.546  11.398
81016W        W42382   7.866  35.366  13.876
81017W        W42383   6.273   8.178  13.375
81018W        W42384  26.168  12.838   4.264
81019W        W42385  29.985   4.723   1.391
81020W        W42386  25.512   5.321  10.122
81021W        W42387  43.890   7.395  13.033
81022W        W42388   8.301  35.932   3.806
81023W        W42389  23.553   9.768   4.213
81024W        W42390  30.602  19.283   2.817
81025W        W42391  36.506  30.442   3.804
81026W        W42392  31.929  10.647   4.650
81027W        W42393  11.810  17.117   1.754
81028W        W42394  32.034  42.293   2.768
81029W        W42395  26.118  34.878   0.361
81030W        W42396  44.285  23.149   3.835
81031W        W42397  23.573   3.937   1.371
81032W        W42398  35.431  41.400   2.293
81033W        W42399   7.795   9.222  13.811
81034W        W42400  31.438  18.118   2.830
81035W        W42401  42.500  41.481   1.394
81036W        W42402  12.326  27.965  14.898
81037W        W42403  25.150  29.126   3.204
81038W        W42404  43.906  39.972  10.588
81039W        W42405   3.272  23.087  11.597
81040W        W42406  21.070  23.063  13.480
81041W        W42407   8.347   1.852  11.519
81042W        W42408  28.464  28.648   2.840
81043W        W42409  35.419  10.645  12.367
81044W        W42410  19.626  44.462   4.821
81045W        W42411  15.296  24.173  12.543
81046W        W42412  15.277   6.888   0.403
81047W        W42413  43.834  43.821  11.535
81048W        W42414  15.180  12.274   3.823
81049W        W42415  30.448  27.508  14.892
81050W        W42416   8.368  36.370   1.820
81051W        W42417  16.293  15.125  12.502
81052W        W42418  30.492  11.815  10.901
81053W        W42419  31.061  12.277  13.950
81054W        W42420  42.020   2.930  13.995
81055W        W42421  15.098  14.116  14.512
81056W        W42422  31.972  44.273  11.102
81057W        W42423  11.780  37.924   4.137
81058W        W42424  29.655  36.864  11.047
81059W        W42425  36.865  22.680   1.898
81060W        W42426   8.786  29.940   3.234
81061W        W42427  30.153  42.923  14.833
81062W        W42428  19.570  30.094  12.368
81063W        W42429  38.518  35.013  12.375
81064W        W42430  23.537  35.875   2.753
81065W        W42431  32.543  29.447   0.957
81066W        W42432  28.176   8.379  13.861
81067W        W42433  43.378  30.988   2.725
81068W        W42434  16.685  32.059   1.908
81069W        W42435  29.507  29.604  11.003
81070W        W42436   6.201  34.978   1.848
81071W        W42437   6.340  35.483  13.828
81072W        W42438  10.765  21.214   1.701
81073W        W42439  25.214  25.165   3.772
81074W        W42440  23.563  32.092   3.734
81075W        W42441   9.765  19.106  12.977
81076W        W42442  36.472   6.252  11.449
81077W        W42443  25.102  16.790   2.707
81078W        W42444  20.098   4.736  12.898
81079W        W42445  35.061  19.205   1.854
81080W        W42446  35.465  19.086  10.964
81081W        W42447  38.333  42.824  14.772
81082W        W42448  40.934  42.317  10.451
81083W        W42449  41.844  17.748  10.476
81084W        W42450  34.522   9.260  13.952
81085W        W42451  27.454  29.997   2.199
81086W        W42452  29.990  19.042   0.385
81087W        W42453  21.220  32.539   2.796
81088W        W42454   1.346   2.946   1.845
81089W        W42455  34.870   1.914  11.936
81090W        W42456  18.241  14.125   2.877
81091W        W42457   7.335  18.193   1.697
81092W        W42458   4.708  31.900   3.195
81093W        W42459  22.624   4.719   5.171
81094W        W42460   8.845  29.990   1.245
81095W        W42461  23.031  38.047   2.364
81096W        W42462  43.338  12.687  13.892
81097W        W42463   0.811  14.270   2.371
81098W        W42464   6.291  33.450   5.216
81099W        W42465  10.167   8.324   3.818
81100W        W42466  12.782   4.348  12.398
81101W        W42467  11.773  14.161   4.350
81102W        W42468  16.730  21.182  12.438
81103W        W42469   6.833  16.144  10.545
81104W        W42470  24.521  32.017   0.353
81105W        W42471  10.822  36.454   4.139
81106W        W42472   1.268  26.540  11.929
81107W        W42473  20.114  35.450  10.410
81108W        W42474  22.539  11.630  13.928
81109W        W42475  19.225  42.432  10.917
81110W        W42476  30.659  42.007  11.517
81111W        W42477  30.460  15.678  11.922
81112W        W42478  36.519   1.427   2.294
81113W        W42479  28.492   3.403  11.093
81114W        W42480  42.425  39.049  14.286
81115W        W42481  10.678  34.465  13.799
81116W        W42482  19.723  39.390  14.863
81117W        W42483  12.685  20.535  12.076
81118W        W42484  17.241  28.517  10.052
81119W        W42485  19.686   9.308   4.764
81120W        W42486  16.756  30.576   0.901
81121W        W42487   1.786  37.533  12.376
81122W        W42488  28.001  21.066   2.714
81123W        W42489  14.293  36.358   2.691
81124W        W42490  38.996  14.619   0.945
81125W        W42491  44.331   7.699  13.799
81126W        W42492  25.116  37.976  13.881
81127W        W42493  32.495  24.059   1.431
81128W        W42494  10.835  41.969   2.347
81129W        W42495  24.604   1.863  10.441
81130W        W42496  34.065  35.427  13.935
81131W        W42497  20.698  30.141  12.500
81132W        W42498  22.997   5.918  13.935
81133W        W42499   1.435  32.594   0.929
81134W        W42500  12.320  10.756  11.604
81135W        W42501  20.655  13.730   1.323
81136W        W42502  27.119  17.262  14.314
81137W        W42503  15.261  28.120  10.470
81138W        W42504  13.238  16.280  13.496
81139W        W42505  36.367  22.511   0.797
81140W        W42506   7.226  19.720  10.490
81141W        W42507  35.029  38.464   3.182
81142W        W42508  44.856  40.506   1.723
81143W        W42509  44.850  31.642  13.853
81144W        W42510   4.744  15.797   3.274
81145W        W42511  34.464  37.856   3.666
81146W        W42512  16.662  21.196  13.538
81147W        W42513  32.985  29.924  11.120
81148W        W42514  12.855  16.745   0.460
81149W        W42515   3.795   3.424   4.677
81150W        W42516  18.669   1.439  10.495
81151W        W42517   1.924   2.337   3.859
81152W        W42518  29.975  14.820   1.807
81153W        W42519  32.517  28.066   2.779
81154W        W42520  44.951   7.416   0.840
81155W        W42521  35.948  31.514   3.675
81156W        W42522  31.896  17.165   4.807
81157W        W42523  12.337  20.754   1.245
81158W        W42524   5.392   1.804  10.537
81159W        W42525  32.932  27.195  12.434
81160W        W42526  19.105   6.914  11.983
81161W        W42527  32.618  16.739  12.345
81162W        W42528  31.604  30.437  11.884
81163W        W42529  28.460  15.258   0.387
81164W        W42530  28.119  24.005  10.930
81165W        W42531  44.758  18.678  10.502
81166W        W42532  23.554  14.235   1.709
81167W        W42533  42.008  14.811   3.250
81168W        W42534   1.479   2.259   3.200
81169W        W42535   1.238  21.222   2.265
81170W        W42536  44.443  19.741  11.077
81171W        W42537  44.344  13.662  13.994
81172W        W42538  14.284  33.557   0.846
81173W        W42539   8.663  27.510  12.016
81174W        W42540  33.579  31.925  13.916
81175W        W42541  15.760  32.508   9.985
81176W        W42542  35.428  24.168   1.416
81177W        W42543   0.972  43.390   0.289
81178W        W42544   5.701   5.934  12.005
81179W        W42545   6.319  12.206   1.327
81180W        W42546   6.874  18.148  10.522
81181W        W42547  17.703  17.234  14.981
81182W        W42548   8.251  12.778  13.020
81183W        W42549  41.368  43.891   3.274
81184W        W42550  13.846  17.106   4.686
81185W        W42551   1.279  18.649  10.994
81186W        W42552  28.515  26.129  10.510
81187W        W42553  30.991   9.384  10.642
81188W        W42554  37.450  39.934  14.985
81189W        W42555   8.722  28.445  12.517
81190W        W42556  43.890  19.780  11.024
81191W        W42557  42.320   6.419   3.786
81192W        W42558  25.209  27.667  11.123
81193W        W42559  42.881  43.022   4.135
81194W        W42560  12.188  15.321  13.366
81195W        W42561  37.969   7.358   1.858
81196W        W42562  16.123  23.491   3.792
81197W        W42563  27.985  10.851  13.493
81198W        W42564  16.700   9.775  14.481
81199W        W42565  25.491  12.663  14.317
81200W        W42566  12.834  14.599   4.216
81201W        W42567  40.456  43.473   2.399
81202W        W42568  39.336   4.331  11.406
81203W        W42569  20.190  36.989  13.808
81204W        W42570  15.247  12.658   5.307
81205W        W42571  20.203   1.903  12.840
81206W        W42572   4.357  20.681  14.402
81207W        W42573  24.023  39.050  11.472
81208W        W42574  12.144  42.903  13.040
81209W        W42575  37.473  35.063   0.413
81210W        W42576  41.343   7.900  12.555
81211W        W42577   5.380  25.592  11.941
81212W        W42578  12.717  44.473  13.986
81213W        W42579   5.849  23.111   3.267
81214W        W42580  14.216  29.011  12.554
81215W        W42581  13.170  41.470   4.772
81216W        W42582  42.778  12.789   1.721
81217W        W42583  15.679   5.911  13.910
81218W        W42584  42.523  12.777   0.860
81219W        W42585  42.933  11.266  10.509
81220W        W42586   9.830  17.788  14.793
81221W        W42587   2.931  19.549  12.928
81222W        W42588  18.764  33.095  14.869
81223W        W42589   4.377  14.691  12.028
81224W        W42590  35.602  20.528  10.444
81225W        W42591  22.072  39.921   0.744
81226W        W42592   3.866  31.909   4.240
81227W        W42593  10.143   2.401  14.794
81228W        W42594  17.664  31.053   3.230
81229W        W42595  31.953  37.879   4.763
81230W        W42596   4.806  31.054  11.093
81231W        W42597  38.503  35.534   1.839
81232W        W42598  26.199  36.455  11.859
81233W        W42599  36.982   7.405   2.716
81234W        W42600   1.868  24.161  13.411
81235W        W42601  26.141  33.418   2.682
81236W        W42602  28.633  11.804   1.893
81237W        W42603   6.775  34.985  10.988
81238W        W42604   0.877   1.923   2.196
81239W        W42605  16.186   3.428   4.166
81240W        W42606  28.146  43.432   3.724
81241W        W42607   6.815  23.002   0.373
81242W        W42608  43.388   1.303  12.954
81243W        W42609  42.948  18.768  11.923
81244W        W42610  30.100  11.311   2.663
81245W        W42611  14.713  22.125   4.760
81246W        W42612  29.553   6.284  11.883
81247W        W42613  24.590  26.032   0.406
81248W        W42614  44.987  29.528  14.318
81249W        W42615  29.050   6.203   4.731
81250W        W42616  30.637  15.657   0.878
81251W        W42617  15.685  22.549  13.062
81252W        W42618  37.347  29.950   0.310
81253W        W42619   4.234  31.438  14.321
81254W        W42620  43.898  10.164  11.909
81255W        W42621  15.811   2.923  13.513
81256W        W42622  35.450  21.220   1.430
81257W        W42623  43.480  31.565   2.820
81258W        W42624  26.130   7.268   4.729
81259W        W42625  29.000   2.318   0.768
81260W        W42626   2.957  42.851   1.833
81261W        W42627   5.834  22.210   1.298
81262W        W42628  17.255  13.660   2.893
81263W        W42629  18.120  24.156   3.202
81264W        W42630  40.983  37.516   3.634
81265W        W42631  30.445   8.380  14.411
81266W        W42632  18.093  37.525  11.989
81267W        W42633  26.644  32.083  12.895
81268W        W42634  19.698  15.124   4.692
81269W        W42635   3.330   4.878  13.542
81270W        W42636  35.019  17.698   3.152
81271W        W42637   4.307  24.101   0.964
81272W        W42638  30.011  29.490  10.562
81273W        W42639  22.545  37.086  11.565
81274W        W42640   0.815  41.912   0.928
81275W        W42641   6.423  28.655  10.404
81276W        W42642   5.693  14.814  11.595
81277W        W42643  19.159  14.101   0.955
81278W        W42644   2.896  35.102   4.244
81279W        W42645  27.461  10.847  14.900
81280W        W42646  11.814  27.581  12.011
81281W        W42647  14.820  44.483  13.486
81282W        W42648  10.202  41.401   1.356
81283W        W42649  36.515  41.939   4.638
81284W        W42650   2.254  26.481  12.408
81285W        W42651  40.429   4.347   4.771
81286W        W42652   8.352   3.863  13.027
81287W        W42653  44.370  10.635   3.290
81288W        W42654  28.630   4.248  13.941
81289W        W42655  27.956  15.235   3.830
81290W        W42656  38.070  20.735   2.373
81291W        W42657   0.756  21.657  14.414
81292W        W42658   7.358   4.449  11.899
81293W        W42659  33.564   6.329   5.206
81294W        W42660   4.766  10.717  13.524
81295W        W42661   0.939  43.321  11.512
81296W        W42662  16.747  34.910   0.381
81297W        W42663   0.759  36.895   1.440
81298W        W42664  10.722  44.329  11.893
81299W        W42665  37.414  37.936   1.834
81300W        W42666  20.191  20.650   3.779
81301W        W42667  20.700   3.752   2.387
81302W        W42668   4.865  10.754   1.751
81303W        W42669  14.692  20.760   2.671
81304W        W42670  19.689  22.090   2.261
81305W        W42671  28.179  35.481  12.424
81306W        W42672  33.126  44.304  10.612
81307W        W42673  19.590  12.200   0.441
81308W        W42674  34.008   0.338   4.200
81309W        W42675  12.151  18.596   4.644
81310W        W42676  30.933  25.634   2.235
81311W        W42677  35.360  39.427  12.971
81312W        W42678  39.976   0.757   0.395
81313W        W42679  17.243   4.440   2.663
81314W        W42680   8.657  25.991  14.900
81315W        W42681  35.080  21.170  12.851
81316W        W42682   8.834  22.240  11.022
81317W        W42683  17.575  13.791  10.421
81318W        W42684  38.910  10.635   4.346
81319W        W42685  43.767  31.482  14.445
81320W        W42686  34.052   2.921   4.664
81321W        W42687  35.058  26.616   3.796
81322W        W42688  14.742  40.474   1.914
81323W        W42689   4.340  26.517   4.250
81324W        W42690   5.320  35.480   0.249
81325W        W42691   9.816   7.338  12.968
81326W        W42692  15.295   0.268  12.400
81327W        W42693  22.685  18.759  11.886
81328W        W42694  17.170   9.241  10.612
81329W        W42695  23.042  24.139   4.195
81330W        W42696  27.586  44.766  13.005
81331W        W42697  35.504  38.047   2.230
81332W        W42698  29.100  43.800   0.903
81333W        W42699   0.452  26.041   2.369
81334W        W42700  36.946  33.971  11.874
81335W        W42701  13.186  35.458  12.847
81336W        W42702  28.476  32.016  12.047
81337W        W42703   5.333   0.373  13.821
81338W        W42704  40.822   3.872  10.473
81339W        W42705  10.828   3.457   3.870
81340W        W42706  23.675   3.749  13.348
81341W        W42707   2.934  37.885   2.344
81342W        W42708  16.753  35.014   3.843
81343W        W42709  36.983  37.851   4.736
81344W        W42710  21.690   7.910  14.360
81345W        W42711  37.014  31.937  14.379
81346W        W42712  37.504  30.966  14.947
81347W        W42713  16.195  15.810   1.919
81348W        W42714   2.947  31.090   5.196
81349W        W42715   9.764   5.275  14.390
81350W        W42716  17.797  34.392   3.692
81351W        W42717  12.349  32.505  10.504
81352W        W42718  15.290  31.505  13.351
81353W        W42719  41.837  21.140  14.348
81354W        W42720  35.865  18.195   1.919
81355W        W42721  30.081  25.060  13.337
81356W        W42722  43.001  32.633   0.876
81357W        W42723  20.588  35.875  12.394
81358W        W42724  20.753   5.273   1.727
81359W        W42725  21.058  26.184  11.103
81360W        W42726  36.095   9.817  11.881
81361W        W42727  21.043  21.587   3.699
81362W        W42728  22.722  43.940  10.597
81363W        W42729  31.531  26.031  11.124
81364W        W42730  44.294   4.343  14.816
81365W        W42731   0.901  20.202   3.784
81366W        W42732  25.170  39.901  10.591
81367W        W42733   0.806  37.360   1.411
81368W        W42734  14.790  13.189  10.491
81369W        W42735  36.027  12.709  12.974
81370W        W42736  36.929  31.593  12.472
81371W        W42737  44.972  22.625  14.298
81372W        W42738  24.555  16.099  12.856
81373W        W42739  30.952  23.561   0.287
81374W        W42740  30.058  39.938  12.398
81375W        W42741  19.737   1.831  14.761
81376W        W42742  20.614  36.060   2.697
81377W        W42743  10.219  40.481  14.851
81378W        W42744  39.994  28.582   2.667
81379W        W42745  22.684  12.298   4.121
81380W        W42746  14.113  14.159  10.913
81381W        W42747   6.311  39.393  11.576
81382W        W42748  42.415   5.843   3.845
81383W        W42749   4.869  41.872   0.340
81384W        W42750  24.188  42.857   2.270
81385W        W42751  26.153   5.308   9.943
81386W        W42752  12.744   2.466   0.877
81387W        W42753  36.859  31.121  12.363
81388W        W42754   3.882  21.247  10.927
81389W        W42755   1.421  26.576   3.856
81390W        W42756  30.982  21.054  14.407
81391W        W42757  40.951  20.111  14.846
81392W        W42758   1.743  10.739   3.646
81393W        W42759   8.669  14.163   4.801
81394W        W42760  28.137  34.393   1.874
81395W        W42761  18.781  33.453  12.421
81396W        W42762  11.858  34.381   2.377
81397W        W42763  14.257  23.093   1.424
81398W        W42764  24.548  22.135   2.340
81399W        W42765  21.042   7.715  12.832
81400W        W42766  11.256  11.291   4.220
81401W        W42767  13.748  30.163  11.968
81402W        W42768  39.877  23.690  14.369
81403W        W42769  44.459   3.366   1.434
81404W        W42770  16.633  28.578   4.827
81405W        W42771  19.140   1.248  14.398
81406W        W42772   1.961  22.501  13.802
81407W        W42773   4.921  21.156   2.349
81408W        W42774  22.097  30.419  10.404
81409W        W42775  11.760   9.259  14.972
81410W        W42776  27.465  26.559   1.774
81411W        W42777  42.488  41.916   4.683
81412W        W42778  24.061  37.487   1.849
81413W        W42779   9.347  21.214  13.827
81414W        W42780  35.909   4.739   0.363
81415W        W42781  23.556  20.610  12.361
81416W        W42782  18.110   8.312   1.704
81417W        W42783  22.202  39.520  12.984
81418W        W42784  19.551   0.335   0.431
81419W        W42785   4.364   3.446   2.747
81420W        W42786  10.273   3.252  10.025
81421W        W42787   6.896  40.043   4.835
81422W        W42788   1.239  15.579  12.356
81423W        W42789  43.996  19.666  11.948
81424W        W42790   9.369  32.994  11.118
81425W        W42791  24.569  35.515   1.887
81426W        W42792  22.038  18.059   1.860
81427W        W42793  41.977  21.717  12.904
81428W        W42794  13.635  37.051   1.873
81429W        W42795  31.031  20.745   2.249
81430W        W42796  43.787  35.927  12.043
81431W        W42797  32.113   2.850   3.297
81432W        W42798  32.585  29.133   4.210
81433W        W42799  34.498   4.915   0.417
81434W        W42800  15.758  36.072   4.141
81435W        W42801  32.095   0.888   1.419
81436W        W42802   4.727  14.737  14.495
81437W        W42803   2.333  11.806   1.299
81438W        W42804  10.199  16.592  12.854
81439W        W42805   9.157   0.332   1.835
81440W        W42806  35.543  31.574   2.762
81441W        W42807  14.177  30.956  13.014
81442W        W42808  29.441  32.516   0.476
81443W        W42809  43.889  40.382  10.546
81444W        W42810  40.807  11.680   4.610
81445W        W42811  34.532  17.726  11.865
81446W        W42812  37.464  43.848   3.286
81447W        W42813  19.725  14.303   2.696
81448W        W42814  23.073  10.294   1.927
81449W        W42815  21.628  29.627  10.065
81450W        W42816   0.449   0.251  13.986
81451W        W42817  36.062  20.160  11.099
81452W        W42818  36.982  30.072  13.873
81453W        W42819   1.862  30.424   0.328
81454W        W42820  39.332   9.372  14.824
81455W        W42821  28.630   8.188  13.947
81456W        W42822  20.762   5.715  14.430
81457W        W42823  40.414  35.055   2.732
81458W        W42824  19.043  36.364  12.444
81459W        W42825  40.890  16.201   3.356
81460W        W42826  38.063   4.346  10.468
81461W        W42827  27.626  20.568   0.267
81462W        W42828  16.683  33.464  11.872
81463W        W42829  10.672   4.720   9.925
81464W        W42830  17.732  29.140  14.017
81465W        W42831  41.393  14.821   0.742
81466W        W42832  31.074  25.658   2.755
81467W        W42833  36.508   4.804  10.447
81468W        W42834   8.801  14.815  10.609
81469W        W42835  38.509  26.969   3.223
81470W        W42836  30.658  30.485   3.187
81471W        W42837  35.493  22.075   0.932
81472W        W42838  25.080  16.146   4.304
81473W        W42839  42.828  38.487   3.785
81474W        W42840  26.543  15.110   9.993
81475W        W42841  32.557  43.449   3.857
81476W        W42842  44.366  22.204   0.439
81477W        W42843   5.770  33.604   3.648
81478W        W42844  43.358  28.590  10.609
81479W        W42845  18.705  16.140   5.577
81480W        W42846  30.082  41.989   2.784
81481W        W42847   0.337  21.672  14.774
81482W        W42848   2.386  22.739  12.881
81483W        W42849  22.701  38.014   0.478
81484W        W42850  20.746   5.796   1.882
81485W        W42851  41.993  25.182  10.563
81486W        W42852  40.836  28.054  11.500
81487W        W42853  26.496  20.101  10.888
81488W        W42854  43.417   5.221  11.394
81489W        W42855  17.244  41.878   2.279
81490W        W42856  30.420   5.338   3.632
81491W        W42857  18.642  15.309   0.924
81492W        W42858  11.758  23.531  12.466
81493W        W42859   8.282  43.949  14.497
81494W        W42860  44.383   0.769   3.322
81495W        W42861  29.482  42.860   2.869
81496W        W42862  28.041  22.139  10.959
81497W        W42863  32.934  29.051   3.870
81498W        W42864   7.243   5.252   0.355
81499W        W42865  13.802  41.894  10.490
81500W        W42866   6.742  10.282   0.438
81501W        W42867  41.386   2.852  11.886
81502W        W42868  18.606   6.226   1.288
81503W        W42869  32.617  35.108   3.719
81504W        W42870  23.159  21.736   3.283
81505W        W42871  42.456  37.453   3.690
81506W        W42872  41.335   6.883   1.431
81507W        W42873   1.772   5.361   3.260
81508W        W42874  43.316   4.308  11.503
81509W        W42875  38.909  37.363   2.832
81510W        W42876  23.084  16.213  12.913
81511W        W42877  34.503   3.459  11.608
81512W        W42878  39.497  23.154  14.919
81513W        W42879  41.796  29.450  11.539
81514W        W42880  32.588  17.152   2.690
81515W        W42881   6.254  38.571  14.416
81516W        W42882  22.029  33.085  10.079
81517W        W42883  27.087  24.517  14.908
81518W        W42884   7.683   8.880   1.224
81519W        W42885  33.886  17.794  14.908
81520W        W42886  37.536  14.241  14.782
81521W        W42887  25.615  35.953  14.989
81522W        W42888  26.951   7.202   1.859
81523W        W42889  31.478  41.987  13.966
81524W        W42890  29.998  26.470   2.797
81525W        W42891   7.388   0.879   4.127
81526W        W42892  36.559   3.765   4.666
81527W        W42893  37.369  22.128   0.416
81528W        W42894  36.488  14.765   4.669
81529W        W42895  25.519  30.535   3.690
81530W        W42896  13.691   4.785   1.824
81531W        W42897  25.588  28.598  14.504
81532W        W42898  10.196  18.718   4.309
81533W        W42899  21.618  22.217   4.297
81534W        W42900  37.959  14.277  12.556
81535W        W42901   2.464   7.715  14.426
81536W        W42902  24.567  14.330   2.401
81537W        W42903  29.028   2.300  13.881
81538W        W42904  25.980  12.721  14.760
81539W        W42905  36.578   3.360   3.335
81540W        W42906   7.244  10.841   0.911
81541W        W42907  41.981  20.735  13.987
81542W        W42908  34.584  27.127   4.708
81543W        W42909  14.782  13.616  11.071
81544W        W42910  27.059   1.737  12.837
81545W        W42911  34.431   2.734  14.831
81546W        W42912   8.257  13.235  11.431
81547W        W42913  16.582  18.675   2.692
81548W        W42914   8.194  18.280  14.463
81549W        W42915  19.080   7.742  11.052
81550W        W42916   9.272   0.802   2.207
81551W        W42917  25.573  27.078  14.774
81552W        W42918  25.149  13.788  10.525
81553W        W42919  25.498   8.808   4.297
81554W        W42920   6.352  23.625   4.248
81555W        W42921  42.999  32.636   4.338
81556W        W42922  22.568  19.598   0.758
81557W        W42923  25.985   3.852  12.034
81558W        W42924  30.913  41.790   3.174
81559W        W42925  21.647  16.242  10.601
81560W        W42926  29.123  40.329   0.244
81561W        W42927  31.435  41.930  12.432
81562W        W42928  43.271  44.920   0.379
81563W        W42929  41.877  13.208   0.766
81564W        W42930   6.251  30.618  12.857
81565W        W42931  14.776   8.827   4.722
81566W        W42932  29.096  22.683   0.883
81567W        W42933  27.035  18.246   2.389
81568W        W42934  27.493  10.739  10.440
81569W        W42935   1.960   5.234   1.316
81570W        W42936   9.833  12.268   1.259
81571W        W42937  17.672  42.944  11.117
81572W        W42938  22.181  21.066  14.515
81573W        W42939  16.680  43.429   2.334
81574W        W42940  18.697  34.102   1.339
81575W        W42941  20.233  34.977  13.333
81576W        W42942  42.805  37.969  14.024
81577W        W42943   6.236  26.486   9.979
81578W        W42944  21.579  36.502   9.460
81579W        W42945   5.202  29.944  12.992
81580W        W42946  37.010   3.864  13.871
81581W        W42947  41.381  29.153  14.969
81582W        W42948  31.433  12.282  10.420
81583W        W42949  41.319   7.234  11.008
81584W        W42950  23.013   8.791   4.668
81585W        W42951  29.001  44.258   4.776
81586W        W42952  35.964  20.033   0.928
81587W        W42953   0.378   7.808   0.373
81588W        W42954  33.924  24.611   3.337
81589W        W42955   2.410   7.893   3.340
81590W        W42956   0.841  21.582   3.310
81591W        W42957  33.546  26.511  10.415
81592W        W42958  23.647   1.849  14.866
81593W        W42959  18.094  23.664   0.420
81594W        W42960  38.499   5.854   3.194
81595W        W42961  43.940  25.673   3.687
81596W        W42962  19.739   4.252   3.763
81597W        W42963  30.963  27.130  13.311
81598W        W42964  30.068  23.610  14.295
81599W        W42965  18.180  32.452  14.328
81600W        W42966   8.856  34.944  11.595
81601W        W42967  30.600  31.439  12.917
81602W        W42968  21.733  29.618   3.674
81603W        W42969  19.711  28.650   4.212
81604W        W42970  31.614  17.612  11.570
81605W        W42971  35.577  23.089  10.907
81606W        W42972  38.016  18.059  13.429
81607W        W42973   6.726  26.070  12.855
81608W        W42974  41.876  29.121  14.956
81609W        W42975  36.373  31.978   3.271
81610W        W42976  21.546  16.580  14.987
81611W        W42977  22.532  33.023  12.912
81612W        W42978  29.637   4.412   1.736
81613W        W42979  43.380  13.120   2.234
81614W        W42980  10.699   9.742  13.900
81615W        W42981  42.796  22.082   1.711
81616W        W42982  33.066  25.170  14.843
81617W        W42983  26.076   1.946   3.306
81618W        W42984  26.968   0.888   1.261
81619W        W42985  14.680  30.578  12.996
81620W        W42986  23.634  34.073   2.204
81621W        W42987  33.612  34.591  11.929
81622W        W42988   7.330   9.692   2.246
81623W        W42989   6.401  34.984  14.315
81624W        W42990  42.027  42.814  11.940
81625W        W42991  21.094  28.039  10.505
81626W        W42992  13.616  13.144  13.993
81627W        W42993  27.115  27.656  12.369
81628W        W42994  12.254  40.024  13.308
81629W        W42995   7.246  30.072  12.008
81630W        W42996  30.139  16.642  11.091
81631W        W42997  10.150  22.026   0.759
81632W        W42998  16.215  27.567  11.053
81633W        W42999  27.506   3.303   1.720
81634W        W43000  11.679  10.301   2.827
81635W        W43001  31.979   7.748   2.419
81636W        W43002   6.750  16.120   9.923
81637W        W43003  25.091  16.719   0.858
81638W        W43004  18.112  22.719   3.370
81639W        W43005  13.747   9.224  12.855
81640W        W43006  43.002  26.979  13.052
81641W        W43007  40.317  38.357   0.909
81642W        W43008  19.558   5.731   4.684
81643W        W43009  27.987  22.561   2.414
81644W        W43010  36.592   3.797   2.385
81645W        W43011   6.774  30.007   1.356
81646W        W43012  22.606   2.723   3.757
81647W        W43013  39.855  31.618  10.607
81648W        W43014  32.500   4.889  10.111
81649W        W43015   3.865  35.873   4.657
81650W        W43016  41.926  19.136   2.302
81651W        W43017  12.231   3.819  12.507
81652W        W43018  27.577  34.057   0.344
81653W        W43019  41.434   7.813  14.320
81654W        W43020  19.584  38.888   0.394
81655W        W43021  35.362  33.898  11.416
81656W        W43022  32.572   3.313  13.381
81657W        W43023  26.615  18.782  11.480
81658W        W43024  36.954  29.440  14.950
81659W        W43025  27.581  20.164   1.270
81660W        W43026   2.884  36.471   0.751
81661W        W43027   7.832  38.507   2.303
81662W        W43028  17.145  39.399   4.249
81663W        W43029   4.436  30.984  14.821
81664W        W43030  11.791  24.638  11.073
81665W        W43031  33.419  35.002   0.815
81666W        W43032  35.536  24.990   0.301
81667W        W43033  13.342  28.563  11.508
81668W        W43034  25.607   2.929   4.651
81669W        W43035  37.342  16.647   1.352
81670W        W43036   6.736  43.776   4.354
81671W        W43037   8.336   2.787   3.262
81672W        W43038  23.127  11.809   4.324
81673W        W43039  14.197  27.128   0.337
81674W        W43040  34.097   5.775   1.781
81675W        W43041   0.379  30.500   2.850
81676W        W43042  27.552  28.463   2.869
81677W        W43043  31.545  43.440  10.535
81678W        W43044  38.040  32.067   4.302
81679W        W43045  13.226   8.803   0.949
81680W        W43046   3.761  24.660   4.655
81681W        W43047  36.591  36.923  12.891
81682W        W43048  44.283  23.103   4.315
81683W        W43049   1.321  43.952  10.528
81684W        W43050  41.363  15.808  11.383
81685W        W43051  44.008  32.624  14.932
81686W        W43052  19.178  17.097   4.295
81687W        W43053   1.467  36.426   1.322
81688W        W43054   6.328  14.660   2.878
81689W        W43055  32.499  41.520   5.247
81690W        W43056  12.694  38.377  11.095
81691W        W43057  21.233   0.820  13.911
81692W        W43058  38.500  31.452   4.256
81693W        W43059  38.849   0.856   4.114
81694W        W43060  17.127  15.216  12.409
81695W        W43061  10.860  28.006  10.025
81696W        W43062   2.415  38.331  14.915
81697W        W43063  36.037  23.579   3.379
81698W        W43064   6.688  15.217   2.270
81699W        W43065   5.216   8.784  12.028
81700W        W43066  29.111  32.396  11.013
81701W        W43067  10.834  39.879   4.704
81702W        W43068   1.313  16.700  13.442
81703W        W43069  40.938  44.409   3.827
81704W        W43070  29.618  26.475   1.259
81705W        W43071  18.079  37.389  14.471
81706W        W43072  23.588  13.815  13.353
81707W        W43073  42.997  15.773  11.020
81708W        W43074  18.082  29.010  11.068
81709W        W43075  42.991  22.236  11.961
81710W        W43076  29.487  31.584  12.479
81711W        W43077   4.361  12.641  14.933
81712W        W43078  39.538  17.254  10.522
81713W        W43079   6.233  30.583  12.398
81714W        W43080  32.525   9.302  11.002
81715W        W43081  14.739   4.718  14.344
81716W        W43082  35.579  34.009   0.428
81717W        W43083  43.436  25.672  11.415
81718W        W43084  11.741  20.540  14.945
81719W        W43085  38.850  40.345   2.215
81720W        W43086   6.200  42.789   2.367
81721W        W43087  28.640   2.427  10.585
81722W        W43088  31.958  12.293  13.530
81723W        W43089  23.090  21.578  13.522
81724W        W43090  42.414  35.410  14.439
81725W        W43091  35.449  26.116  12.054
81726W        W43092  41.802  30.568  10.039
81727W        W43093  40.872  25.130  11.388
81728W        W43094   9.325  23.987   0.273
81729W        W43095   5.253  14.687   5.790
81730W        W43096  25.657  22.207   4.649
81731W        W43097   2.767  36.383  10.457
81732W        W43098  44.341   0.965   2.184
81733W        W43099  39.509  35.959  13.418
81734W        W43100   6.741  18.595  11.596
81735W        W43101   0.770  10.743   0.760
81736W        W43102  24.032  14.303   1.426
81737W        W43103  24.522  37.473   0.391
81738W        W43104  14.635   1.334  13.526
81739W        W43105   3.377  33.951  14.012
81740W        W43106  20.736  32.099  14.927
81741W        W43107   9.310   5.236  11.447
81742W        W43108  37.999  39.936   0.305
81743W        W43109  24.493  27.098   0.936
81744W        W43110  35.410  22.539  14.283
81745W        W43111   2.418  25.696   2.324
81746W        W43112  33.944   5.892   4.694
81747W        W43113   2.252  36.430  13.946
81748W        W43114  20.204  33.393  11.578
81749W        W43115   2.829  28.545   2.701
81750W        W43116  10.151   6.254   3.854
81751W        W43117  38.350  22.532   0.863
81752W        W43118  38.060  24.482   3.309
81753W        W43119  25.557  26.698  12.839
81754W        W43120  37.019  16.290   0.874
81755W        W43121  19.702  21.629  14.451
81756W        W43122  27.584  31.966  11.118
81757W        W43123   9.815  24.620   0.951
81758W        W43124  43.422  39.478   0.744
81759W        W43125  18.660  31.906   2.383
81760W        W43126  29.614  24.131   1.763
81761W        W43127   4.350  24.556   2.793
81762W        W43128  17.135  35.366  13.529
81763W        W43129  22.705  17.755  11.010
81764W        W43130  24.165   2.252  11.112
81765W        W43131  14.254  25.687   4.256
81766W        W43132   8.247  43.438  13.310
81767W        W43133  24.500   4.867   2.862
81768W        W43134  31.543  23.497  10.612
81769W        W43135  10.780  38.945  11.869
81770W        W43136  37.357  39.499   2.412
81771W        W43137  15.275  30.141   4.300
81772W        W43138  20.640  25.562  14.395
81773W        W43139  41.938  44.490   4.232
81774W        W43140  44.906  33.017  13.839
81775W        W43141   9.186  35.516  10.532
81776W        W43142  37.493  36.989   3.729
81777W        W43143  15.253   5.714  12.476
81778W        W43144  30.496  41.013   1.825
81779W        W43145  24.580   0.903   4.802
81780W        W43146  31.583  12.826   2.373
81781W        W43147  34.597  30.991   0.840
81782W        W43148  31.616  14.599   2.694
81783W        W43149  11.150  29.124   2.399
81784W        W43150  20.724   6.718   2.804
81785W        W43151  11.815  34.493  12.472
81786W        W43152   4.868  31.000  11.598
81787W        W43153  37.043  37.054  14.302
81788W        W43154  37.359   1.798  12.442
81789W        W43155   1.240   5.426   1.922
81790W        W43156  17.182   2.383  14.482
81791W        W43157   5.428   8.706  11.458
81792W        W43158  22.726  21.152  12.831
81793W        W43159   0.483   6.839   4.836
81794W        W43160  25.062  18.719  10.445
81795W        W43161  39.904   7.721  10.989
81796W        W43162  39.813   7.741   1.898
81797W        W43163  13.835  22.025   1.790
81798W        W43164  33.568  28.047   0.423
81799W        W43165  28.029   3.901   3.643
81800W        W43166  41.938  34.995   1.694
81801W        W43167  11.326  21.517  14.867
81802W        W43168   1.269  35.526  13.348
81803W        W43169  14.680  22.530  13.507
81804W        W43170  20.139  42.431  14.027
81805W        W43171   3.458  32.892  11.448
81806W        W43172  35.004  30.438   2.375
81807W        W43173  23.706  26.628   3.325
81808W        W43174   6.386  31.457  10.555
81809W        W43175   2.860  39.975  12.935
81810W        W43176  26.076   1.382  10.558
81811W        W43177  36.066  33.575   0.820
81812W        W43178  44.937  14.300  13.443
81813W        W43179  23.086   2.866  10.629
81814W        W43180  38.851   2.888   0.800
81815W        W43181   0.879  25.600  13.322
81816W        W43182  36.532  24.169  14.004
81817W        W43183  15.711   3.216  13.923
81818W        W43184  22.126  43.965  13.448
81819W        W43185  28.069  13.691   0.919
81820W        W43186   9.704  20.753   4.195
81821W        W43187  33.511  28.668   1.798
81822W        W43188  26.157   4.765   5.237
81823W        W43189  38.439  10.661  10.536
81824W        W43190  22.675  26.639   1.815
81825W        W43191   0.453  34.926   3.821
81826W        W43192  31.961  17.730   0.244
81827W        W43193  10.721  11.792   3.735
81828W        W43194  34.414  10.711   0.890
81829W        W43195  43.339  22.130   3.365
81830W        W43196   7.317  13.663  13.344
81831W        W43197  12.245  41.378   2.206
81832W        W43198  26.548  17.688  13.496
81833W        W43199  27.098  37.009   2.369
81834W        W43200  27.092  18.558  12.513
81835W        W43201   5.933  14.654   0.764
81836W        W43202  35.576  10.635   4.127
81837W        W43203  40.443   9.334   1.353
81838W        W43204  27.099  41.498  14.792
81839W        W43205  21.107  24.162   4.173
81840W        W43206  20.611  21.557   0.858
81841W        W43207  35.099  28.183  10.025
81842W        W43208   6.727  43.884  13.061
81843W        W43209  37.982  21.139  10.897
81844W        W43210  11.356  37.941  12.902
81845W        W43211  21.022  38.002   1.703
81846W        W43212  39.463  42.874  10.408
81847W        W43213  32.568  18.157   1.734
81848W        W43214  18.763  28.521  11.422
81849W        W43215  23.132   1.879  12.492
81850W        W43216  21.117   8.317   0.739
81851W        W43217   6.304  39.982  12.830
81852W        W43218  39.548  31.632  14.949
81853W        W43219  34.449  40.439  13.964
81854W        W43220  13.718  24.486   4.165
81855W        W43221  33.900  14.307  13.909
81856W        W43222   8.783  14.711   5.260
81857W        W43223  25.473  10.308   1.881
81858W        W43224  24.101   6.385   9.987
81859W        W43225  31.028  40.373   1.800
81860W        W43226  40.439  30.548   3.286
81861W        W43227  13.111  42.416  12.918
81862W        W43228   0.483  41.805   1.813
81863W        W43229  36.072  38.359  13.348
81864W        W43230  34.958  14.686   1.451
81865W        W43231  20.708   2.858  10.416
81866W        W43232   6.787  37.982  13.032
81867W        W43233  12.769  11.865  12.414
81868W        W43234  41.536  25.984   2.351
81869W        W43235  32.633  10.315   4.241
81870W        W43236  36.351   6.416   3.827
81871W        W43237  40.803  22.601   3.150
81872W        W43238  19.176   5.804   4.295
81873W        W43239  27.454  34.568  14.315
81874W        W43240  24.664  35.542   2.675
81875W        W43241  36.030   2.363  13.436
81876W        W43242  44.780  19.741  13.453
81877W        W43243  22.700   2.915   4.248
81878W        W43244  14.169  38.870   4.329
81879W        W43245  24.026  16.314  13.957
81880W        W43246  33.022  26.141  11.523
81881W        W43247   6.902   4.758   0.380
81882W        W43248  26.564   1.885   0.452
81883W        W43249  39.953  17.176  11.076
81884W        W43250  23.053  14.334  10.555
81885W        W43251  30.094  31.940   0.284
81886W        W43252  38.555  32.986   3.305
81887W        W43253   5.823  41.807   0.330
81888W        W43254  20.696  43.363  13.919
81889W        W43255  25.105  23.691  11.502
81890W        W43256  37.573  11.664   3.748
81891W        W43257  29.155  32.047  13.373
81892W        W43258  24.027  27.607  14.803
81893W        W43259   1.877  37.527  13.380
81894W        W43260  11.705   6.920   0.879
81895W        W43261  18.751  16.076   1.697
81896W        W43262   4.742  15.738   1.830
81897W        W43263  43.824  33.070  12.499
81898W        W43264   6.723  26.632  11.426
81899W        W43265  10.326  35.918   1.259
81900W        W43266  37.496  16.311  13.032
81901W        W43267  34.888  35.448   1.394
81902W        W43268  32.405  26.569  10.536
81903W        W43269  28.567  12.166  13.987
81904W        W43270  26.174  35.532   0.256
81905W        W43271  31.552  14.774   0.953
81906W        W43272  24.231  42.323  11.470
81907W        W43273  15.279  22.628  12.075
81908W        W43274   9.668  41.372  10.428
81909W        W43275  18.756  32.008   2.831
81910W        W43276  31.426   5.428  12.937
81911W        W43277   4.706   9.813   1.874
81912W        W43278  35.570  34.939  14.379
81913W        W43279  19.625  43.764   4.707
81914W        W43280   8.280  13.284   1.444
81915W        W43281  43.837  38.994  13.404
81916W        W43282  13.127  17.749  10.414
81917W        W43283   4.761   8.180   0.377
81918W        W43284  12.733  37.381   1.295
81919W        W43285  12.273  36.092   1.771
81920W        W43286  26.571  21.521   1.906
81921W        W43287   9.724  30.995  13.921
81922W        W43288  13.735  34.447   1.371
81923W        W43289  23.505  30.998   3.324
81924W        W43290  25.518  20.544   0.863
81925W        W43291  22.196  27.518  12.570
81926W        W43292  22.672  18.553   4.180
81927W        W43293  33.623   0.781   2.372
81928W        W43294  26.645   1.740   1.329
81929W        W43295  30.136  36.412   4.264
81930W        W43296  26.145   0.864  14.816
81931W        W43297  29.666   0.388   3.231
81932W        W43298  33.494  11.369   3.829
81933W        W43299   3.259  44.379   1.727
81934W        W43300  14.311  41.505  12.487
81935W        W43301   0.744  32.071   0.838
81936W        W43302   7.413   9.759   1.883
81937W        W43303  25.162  12.231   3.166
81938W        W43304   9.344  14.626   4.632
81939W        W43305  39.347  30.050   3.688
81940W        W43306  34.445  24.128   4.648
81941W        W43307   1.241  37.494   1.750
81942W        W43308  29.096  27.944   4.299
81943W        W43309  28.648   0.385  11.908
81944W        W43310  28.948  41.473   4.668
81945W        W43311   4.212  30.974   3.668
81946W        W43312  15.158  14.628  14.920
81947W        W43313  43.416  17.777  12.956
81948W        W43314  28.989  31.108  12.854
81949W        W43315  12.746  39.318  11.937
81950W        W43316  34.546  18.674   3.334
81951W        W43317   9.308  42.986  11.374
81952W        W43318  24.540  37.525  13.058
81953W        W43319   9.680   5.826   2.251
81954W        W43320  26.083   5.694   2.708
81955W        W43321  32.569  10.379   4.805
81956W        W43322  33.905  31.931  14.304
81957W        W43323  18.738  25.181   1.701
81958W        W43324  28.937   5.876   1.420
81959W        W43325   3.400   1.971   4.208
81960W        W43326  42.799  12.289  12.029
81961W        W43327  22.548  38.922  13.034
81962W        W43328   6.791  26.649  13.015
81963W        W43329  21.642   4.212   4.157
81964W        W43330  41.412  44.991   0.884
81965W        W43331  28.660  24.667   0.252
81966W        W43332  21.052  14.311  14.927
81967W        W43333  20.680  19.056   4.293
81968W        W43334  44.923  17.165  10.899
81969W        W43335   1.781  41.998  12.894
81970W        W43336  27.464  30.073  11.074
81971W        W43337  40.036  28.606  14.442
81972W        W43338  20.092  28.107  11.387
81973W        W43339  38.957   7.840   1.243
81974W        W43340   3.237  12.763   4.234
81975W        W43341  23.566  10.815   0.817
81976W        W43342   0.789  36.889   4.642
81977W        W43343  26.492  25.625  13.365
81978W        W43344  23.520  44.366  13.421
81979W        W43345  40.478  25.167   4.743
81980W        W43346  10.270  22.564  14.970
81981W        W43347  28.085  27.152  11.021
81982W        W43348  20.060  25.552   1.215
81983W        W43349   8.781  18.193   0.336
81984W        W43350  25.701  32.034  10.114
81985W        W43351  44.432  26.015  13.541
81986W        W43352  11.716  21.035   1.288
81987W        W43353   5.901  16.295  14.780
81988W        W43354  28.024  37.052   1.393
81989W        W43355   9.387  12.324  10.414
81990W        W43356  39.921   9.260   4.327
81991W        W43357  28.091  24.541  11.558
81992W        W43358  23.678   4.320   1.306
81993W        W43359  22.701  32.518   0.336
81994W        W43360  37.931  14.776   3.780
81995W        W43361  28.518  31.633   3.782
81996W        W43362  32.002  40.011  12.038
81997W        W43363   3.231  26.667   2.688
81998W        W43364  17.696  32.585   9.456
81999W        W43365  31.497   8.289   1.901
82000W        W43366  22.505   0.316   3.364
82001W        W43367   6.863  19.750  13.531
82002W        W43368  18.643  35.400  12.478
82003W        W43369  33.092  12.808   1.373
82004W        W43370  10.167   2.858   4.243
82005W        W43371  16.251   1.376   2.771
82006W        W43372   1.811  28.131   2.820
82007W        W43373  32.632  36.002   5.114
82008W        W43374  38.553   7.697   3.216
82009W        W43375  43.806  18.168  13.442
82010W        W43376  10.203  12.300  10.604
82011W        W43377  28.947  25.687   3.731
82012W        W43378  18.086  39.339   1.851
82013W        W43379  24.148  32.539  14.009
82014W        W43380  33.032  36.021   1.890
82015W        W43381   3.830  30.643   1.715
82016W        W43382  14.139   4.787  11.534
82017W        W43383   0.428  42.400  13.453
82018W        W43384   1.898   5.698   0.433
82019W        W43385  37.054  16.240  12.878
82020W        W43386   4.877   3.263   2.295
82021W        W43387  19.153  28.149  13.825
82022W        W43388  35.059   5.316   0.271
82023W        W43389  42.013  18.593   2.785
82024W        W43390  30.112  43.356  14.939
82025W        W43391  41.944  39.861   0.436
82026W        W43392   4.231  29.574  10.437
82027W        W43393  28.157  30.500  12.038
82028W        W43394  27.481  13.203  12.440
82029W        W43395  30.131   0.414  11.441
82030W        W43396   0.463   2.311   4.322
82031W        W43397  28.645   1.420   3.640
82032W        W43398  41.376   9.804   1.748
82033W        W43399  39.996   6.213  10.643
82034W        W43400  34.406  26.644   3.342
82035W        W43401   1.337  13.753  12.923
82036W        W43402  42.359  15.640   2.766
82037W        W43403  16.753  38.063   2.280
82038W        W43404  17.295  26.057  10.925
82039W        W43405  11.754  42.444   4.167
82040W        W43406  23.224  26.195  11.918
82041W        W43407  22.999  22.103   1.757
82042W        W43408   3.399  43.996   4.639
82043W        W43409  17.779  13.643   0.945
82044W        W43410  39.555  41.003   2.276
82045W        W43411  43.292  36.897  11.065
82046W        W43412  44.834  17.762   4.769
82047W        W43413  10.323  36.467   1.228
82048W        W43414  15.266  11.136  13.025
82049W        W43415  19.596  18.727  12.093
82050W        W43416  30.038  39.962   3.817
82051W        W43417  26.191  21.107  14.369
82052W        W43418   7.784  44.798   1.210
82053W        W43419  33.117  11.700   1.308
82054W        W43420  19.186  24.616  14.012
82055W        W43421  16.738   7.223  10.462
82056W        W43422  41.955  21.082  12.344
82057W        W43423  29.491  15.267   1.820
82058W        W43424  22.129  25.562  14.982
82059W        W43425  21.147  39.912  12.828
82060W        W43426  29.039  31.624  14.975
82061W        W43427  26.487  22.172  13.912
82062W        W43428  20.554  25.705  13.333
82063W        W43429  27.139  28.537  11.457
82064W        W43430  32.959   3.778   2.824
82065W        W43431  44.817  42.347  12.384
82066W        W43432   5.768  43.381  12.870
82067W        W43433  32.909  12.831   3.725
82068W        W43434  25.122   6.388  12.384
82069W        W43435   9.368  19.588  12.988
82070W        W43436  40.871   2.746  13.841
82071W        W43437  29.038  17.202   2.839
82072W        W43438  35.486  30.615   0.899
82073W        W43439  28.479  28.044  14.338
82074W        W43440  12.121  28.526  12.496
82075W        W43441   6.908  29.076   0.889
82076W        W43442   9.162  38.339   3.709
82077W        W43443   6.303  17.129  12.480
82078W        W43444  31.059  21.546   0.384
82079W        W43445  20.725  21.132  11.942
82080W        W43446   8.309   6.311   3.227
82081W        W43447  28.063   6.323  10.965
82082W        W43448  32.064   9.835   2.349
82083W        W43449  40.337  24.569   3.305
82084W        W43450  34.008  26.467   1.931
82085W        W43451  10.878  39.879  10.446
82086W        W43452  40.454  20.267   2.179
82087W        W43453  24.119  41.376   2.803
82088W        W43454   7.853  17.162  11.371
82089W        W43455  40.490   4.443  14.778
82090W        W43456  44.474  25.158  11.498
82091W        W43457  30.465  39.921  10.571
82092W        W43458   5.370  30.557  13.885
82093W        W43459  23.571  12.156   2.400
82094W        W43460  40.993  39.505  14.872
82095W        W43461  34.602  41.823   4.825
82096W        W43462  30.061  33.104  13.994
82097W        W43463  20.663  22.059  11.572
82098W        W43464   1.838  35.528  13.330
82099W        W43465  16.274  31.569  13.837
82100W        W43466  44.773   3.223  13.365
82101W        W43467  37.843  37.552   5.282
82102W        W43468   4.268  43.911   4.623
82103W        W43469  12.245  13.752  14.777
82104W        W43470  16.621  36.918  12.994
82105W        W43471  25.974   2.428  13.941
82106W        W43472  11.190   9.737   4.675
82107W        W43473  32.560  20.737  13.017
82108W        W43474  29.067   6.357   2.253
82109W        W43475  25.083  35.546  11.867
82110W        W43476  38.838  41.023   4.352
82111W        W43477  27.983   7.785   0.371
82112W        W43478  28.602  17.743   4.302
82113W        W43479  36.449  20.659   3.811
82114W        W43480  28.651  29.472   4.124
82115W        W43481   8.852  39.967   1.347
82116W        W43482  36.529  23.116   0.281
82117W        W43483  12.768  28.141  14.367
82118W        W43484  34.605  30.552  12.529
82119W        W43485  36.430  26.619  13.999
82120W        W43486  33.523  38.990   3.709
82121W        W43487  35.879  23.708   4.728
82122W        W43488  44.499   8.698  13.835
82123W        W43489   5.341  10.270  14.938
82124W        W43490  34.921  15.248   3.295
82125W        W43491  44.270   6.230   0.726
82126W        W43492  43.350  30.462   1.364
82127W        W43493  28.609   9.225   1.270
82128W        W43494  16.168  39.859  13.361
82129W        W43495   4.852  33.127   3.292
82130W        W43496  31.520   1.842  12.415
82131W        W43497  27.514  31.586   0.349
82132W        W43498  39.834  39.021   4.730
82133W        W43499  26.680   0.467   2.202
82134W        W43500  19.247  38.850   2.228
82135W        W43501  41.000  15.711  11.509
82136W        W43502  33.509  39.932  12.993
82137W        W43503  17.265   8.288   0.851
82138W        W43504  17.676  16.619   3.781
82139W        W43505  30.009  42.311  12.951
82140W        W43506   0.878  32.580  12.842
82141W        W43507  35.020  39.337   3.367
82142W        W43508  25.493   2.332   0.386
82143W        W43509  34.976  28.547  12.874
82144W        W43510  29.032  17.214   3.769
82145W        W43511  21.593   4.214  13.986
82146W        W43512  20.059  32.557  13.873
82147W        W43513   0.917  36.971   4.226
82148W        W43514  32.606  19.585   0.950
82149W        W43515   1.960  43.970   1.837
82150W        W43516  43.441  41.996  12.347
82151W        W43517   1.955  34.421   3.776
82152W        W43518  28.666   3.215   1.291
82153W        W43519  41.903   8.342  10.920
82154W        W43520  29.946   7.385   3.223
82155W        W43521  24.576  31.461  10.446
82156W        W43522   7.380  31.497  14.342
82157W        W43523   4.740  23.580   0.923
82158W        W43524  36.866  20.049  13.357
82159W        W43525  25.477  28.176   0.922
82160W        W43526  20.529   0.866  13.056
82161W        W43527  15.089  14.146   1.807
82162W        W43528  34.391  22.028  11.543
82163W        W43529  13.153  19.744   1.740
82164W        W43530  23.095  14.833  14.996
82165W        W43531  30.647  19.710  11.520
82166W        W43532  12.844  13.150   2.192
82167W        W43533  30.965  27.994   3.184
82168W        W43534  25.046  29.657  14.862
82169W        W43535  43.786  29.551   1.268
82170W        W43536  24.062  14.642   0.427
82171W        W43537  26.461   1.779   1.892
82172W        W43538  31.558  17.634   4.720
82173W        W43539  41.965  20.033   1.356
82174W        W43540  19.691  21.083   1.863
82175W        W43541  20.619  43.898   1.311
82176W        W43542  44.959  20.663   2.838
82177W        W43543  12.202  11.647   2.274
82178W        W43544   3.387  36.484   0.302
82179W        W43545  29.465   9.372   3.857
82180W        W43546   3.757  19.761  14.329
82181W        W43547   8.670  25.120  14.839
82182W        W43548  10.202  11.175   3.751
82183W        W43549   8.750   5.708   1.271
82184W        W43550  34.871   9.669  10.487
82185W        W43551  40.330  10.242  11.521
82186W        W43552   5.907  25.154   3.170
82187W        W43553  12.214  14.159  10.495
82188W        W43554  26.462  44.781   2.767
82189W        W43555  34.092  12.285   3.256
82190W        W43556   6.713  31.584   2.400
82191W        W43557  42.823  43.866  14.995
82192W        W43558  32.439  29.504  12.979
82193W        W43559  25.205  24.579   0.746
82194W        W43560   5.378  21.673  14.436
82195W        W43561  31.133   8.403  13.045
82196W        W43562  38.555  22.134  10.934
82197W        W43563  19.054   5.402  13.038
82198W        W43564   8.344  24.003  11.889
82199W        W43565  11.865  12.709  12.829
82200W        W43566  24.529  44.411  11.063
82201W        W43567   8.160  41.487   0.819
82202W        W43568  31.067  23.644   3.726
82203W        W43569  16.779   0.260  11.513
82204W        W43570  18.613  35.034  10.105
82205W        W43571  44.316   8.677   4.651
82206W        W43572  26.153  25.681   0.474
82207W        W43573  41.945  30.482  14.841
82208W        W43574  36.470  20.694   2.295
82209W        W43575  43.484  41.415   3.348
82210W        W43576  19.100  34.416  12.421
82211W        W43577  11.211   5.713   3.292
82212W        W43578  35.561   3.906   3.244
82213W        W43579  32.918  22.144   4.605
82214W        W43580  24.660  35.063   1.226
82215W        W43581   8.706  41.861   0.271
82216W        W43582  19.571  25.594   2.766
82217W        W43583  18.577  17.165  10.452
82218W        W43584   5.726  42.013  10.492
82219W        W43585  10.873  38.433  10.412
82220W        W43586  27.452  22.236   0.855
82221W        W43587   9.347   9.875  13.839
82222W        W43588  32.060  18.672   1.298
82223W        W43589  20.609  16.309   4.260
82224W        W43590  12.143  42.392  12.448
82225W        W43591  12.198  36.453  11.412
82226W        W43592  33.508  37.486  14.970
82227W        W43593   6.687  22.676  13.501
82228W        W43594  26.541   4.891   4.767
82229W        W43595  39.004   0.840  11.087
82230W        W43596  13.809  27.165   4.293
82231W        W43597  43.794   8.380   4.115
82232W        W43598  24.545  30.932  13.524
82233W        W43599  29.032   0.879  14.876
82234W        W43600  18.609   8.345  11.906
82235W        W43601   2.463   3.887  13.519
82236W        W43602  27.686  33.623   3.759
82237W        W43603   5.793   1.364   4.336
82238W        W43604  22.553   4.766   0.375
82239W        W43605  40.840   8.273   4.642
82240W        W43606  16.624  10.787   1.879
82241W        W43607  34.605  20.658   1.921
82242W        W43608   0.887   8.369   0.249
82243W        W43609  30.576  16.247   4.611
82244W        W43610  32.633   5.749  14.791
82245W        W43611  44.363  37.944  12.869
82246W        W43612   8.658  26.987   2.212
82247W        W43613  27.168  37.390   5.295
82248W        W43614   7.177  13.217  10.627
82249W        W43615  30.510  43.466  14.944
82250W        W43616  28.654  36.440  10.984
82251W        W43617  17.150  37.542  14.889
82252W        W43618  12.689  34.418  11.928
82253W        W43619  32.947   0.359  14.982
82254W        W43620  20.694  10.362  11.908
82255W        W43621  25.711   6.411   2.241
82256W        W43622  39.392  18.050   0.800
82257W        W43623  12.298  12.621  13.364
82258W        W43624  12.661   9.198   2.325
82259W        W43625  43.434  41.535  10.488
82260W        W43626  41.451  13.280  11.904
82261W        W43627  36.561  19.725  14.301
82262W        W43628  13.282  10.160   4.239
82263W        W43629  42.493   4.341   2.796
82264W        W43630   1.446  26.643  12.901
82265W        W43631  44.265  18.232   0.819
82266W        W43632  44.916  23.159  14.758
82267W        W43633  17.237  10.163  11.574
82268W        W43634   5.870  44.330   1.765
82269W        W43635  19.693  24.069   3.179
82270W        W43636  38.857  29.597   2.225
82271W        W43637   4.292  11.295  12.400
82272W        W43638  39.035  36.859  13.911
82273W        W43639  19.561  22.747   4.727
82274W        W43640   4.429  15.089  14.305
82275W        W43641  19.202  44.384   0.796
82276W        W43642   3.927  34.471  14.781
82277W        W43643   8.394  26.133   3.649
82278W        W43644  34.936  39.958   1.414
82279W        W43645   5.199  14.330  11.925
82280W        W43646   0.306  23.187  10.923
82281W        W43647  29.981  41.977   4.752
82282W        W43648  13.129  26.508   4.681
82283W        W43649  11.188  36.981   3.641
82284W        W43650  29.584  26.578  13.935
82285W        W43651  31.551  33.458  10.606
82286W        W43652  24.717  23.083  13.841
82287W        W43653   5.203  14.164  11.457
82288W        W43654   8.164  10.197   2.801
82289W        W43655   2.290   4.347   0.339
82290W        W43656  22.631  38.964   0.728
82291W        W43657  26.108   0.301   2.387
82292W        W43658   8.374  29.147  11.569
82293W        W43659  20.124  12.706   3.212
82294W        W43660  30.065  16.098   1.411
82295W        W43661  13.814  23.044  10.910
82296W        W43662  10.784  39.930   0.407
82297W        W43663  33.100   9.729  13.516
82298W        W43664  24.500  18.662  14.947
82299W        W43665  40.025  31.580  12.025
82300W        W43666   3.283  25.981  11.491
82301W        W43667   1.268  31.997   3.810
82302W        W43668   6.423  44.487   2.295
82303W        W43669   7.315  43.415   1.437
82304W        W43670  11.224  11.261  13.490
82305W        W43671   1.244  17.667  12.827
82306W        W43672  19.281  37.436  13.951
82307W        W43673  20.193  37.484   4.137
82308W        W43674  14.707  24.717  12.909
82309W        W43675  27.613  15.759   1.214
82310W        W43676  44.870  19.124   0.890
82311W        W43677  20.130  26.690  13.831
82312W        W43678   7.797   0.751   4.305
82313W        W43679   9.855  25.128  11.451
82314W        W43680  40.378  34.416   0.412
82315W        W43681  23.615  23.187  14.352
82316W        W43682  26.201  19.080  12.910
82317W        W43683  17.294  18.157   4.321
82318W        W43684  21.589   3.376   4.141
82319W        W43685   4.216   3.844  14.944
82320W        W43686  38.013  34.993  10.018
82321W        W43687  11.717   8.831  12.523
82322W        W43688  28.474  31.988   3.724
82323W        W43689  32.578   0.941  14.424
82324W        W43690  27.981  29.589   1.822
82325W        W43691   0.802  25.645  11.544
82326W        W43692  44.416   5.356  13.047
82327W        W43693  37.025  15.306  13.389
82328W        W43694  18.254  26.027   0.265
82329W        W43695  17.195  21.028   9.936
82330W        W43696  24.991  32.056   4.349
82331W        W43697  21.156  24.685  11.546
82332W        W43698  23.530   7.314   0.762
82333W        W43699   2.841  15.212  14.287
82334W        W43700  34.507   1.402  13.844
82335W        W43701  23.717   1.852  10.408
82336W        W43702   7.677  32.890  13.921
82337W        W43703   2.250  35.381  14.873
82338W        W43704  22.065  18.775   3.345
82339W        W43705   0.405  43.873   3.337
82340W        W43706  44.293  30.909   3.210
82341W        W43707  39.367   4.426  11.996
82342W        W43708  22.121  15.287   3.818
82343W        W43709  20.563  41.495   4.278
82344W        W43710  36.016  23.719   4.145
82345W        W43711  19.558  21.571  11.600
82346W        W43712  23.652   4.781  13.009
82347W        W43713   5.801  37.526   1.777
82348W        W43714   0.889  42.496  10.559
82349W        W43715   0.831  22.589   5.239
82350W        W43716   0.470  11.751   0.415
82351W        W43717  32.118  37.925   3.759
82352W        W43718  20.613   5.246  13.051
82353W        W43719  12.312  38.064   2.312
82354W        W43720  12.814  36.972  12.528
82355W        W43721  27.195  24.683   2.286
82356W        W43722  30.634  13.734   0.809
82357W        W43723  10.724   8.812  12.506
82358W        W43724  22.178  32.126  11.544
82359W        W43725  18.745  23.675   4.233
82360W        W43726  34.404  11.683  12.485
82361W        W43727  17.703  43.445   2.246
82362W        W43728  16.767  17.764   3.749
82363W        W43729   6.197  14.787   1.259
82364W        W43730  23.204  40.407   3.789
82365W        W43731  14.762  12.759   0.323
82366W        W43732  16.675  36.849  14.353
82367W        W43733  30.026  34.973  12.542
82368W        W43734  18.779   2.456   4.130
82369W        W43735  32.014  26.175   3.843
82370W        W43736  22.565  24.649   2.874
82371W        W43737  38.854  38.052  12.531
82372W        W43738  40.452  21.031   1.213
82373W        W43739   4.363  34.931   3.791
82374W        W43740  10.673  16.633  13.323
82375W        W43741  43.001  15.794  11.965
82376W        W43742  18.127  42.858  14.828
82377W        W43743  25.513  29.050   9.919
82378W        W43744  40.046  20.529  11.564
82379W        W43745  41.916  43.892   1.255
82380W        W43746  29.485  35.550   2.216
82381W        W43747  24.560  30.602   4.613
82382W        W43748  22.531  38.411  11.454
82383W        W43749   8.166  11.717  14.775
82384W        W43750  23.060  43.330  13.495
82385W        W43751  19.770  23.554   1.414
82386W        W43752  14.801   9.836  14.892
82387W        W43753  12.196  13.830  11.585
82388W        W43754  27.009  20.191  12.868
82389W        W43755  25.586  44.916   2.719
82390W        W43756  14.111  24.093  12.917
82391W        W43757  23.237   5.873   4.125
82392W        W43758   8.336  41.297   1.737
82393W        W43759  39.940  13.656  11.443
82394W        W43760  32.499  13.781  14.807
82395W        W43761   1.790  19.740   2.890
82396W        W43762  10.314  42.396   2.714
82397W        W43763  37.911  27.121  12.011
82398W        W43764  26.513  17.130   1.786
82399W        W43765  25.124  42.795   2.768
82400W        W43766  26.060  21.745  12.547
82401W        W43767  24.989  31.475  10.423
82402W        W43768  36.379  43.012  12.535
82403W        W43769  22.161  12.330  13.017
82404W        W43770  36.586  19.724  13.975
82405W        W43771   2.339  39.887   1.252
82406W        W43772  31.472  39.856  12.522
82407W        W43773  28.584  41.890   2.785
82408W        W43774  41.909   2.762   2.395
82409W        W43775  19.592  24.185   0.876
82410W        W43776  36.847   7.774   4.248
82411W        W43777   1.462  32.969   3.785
82412W        W43778  30.158  35.882   2.756
82413W        W43779  28.958   8.195  10.595
82414W        W43780  11.181  12.733  14.375
82415W        W43781  19.598  12.646  11.475
82416W        W43782   2.310  41.017  14.397
82417W        W43783  11.242  32.945  14.383
82418W        W43784  19.211   8.267   1.870
82419W        W43785  25.082  16.194   1.828
82420W        W43786  25.648  32.967   3.230
82421W        W43787  30.421  11.852  10.554
82422W        W43788  10.877   3.250  14.512
82423W        W43789  28.006   0.449  12.072
82424W        W43790   9.837  11.293  12.092
82425W        W43791  41.296  14.800   1.783
82426W        W43792  16.795   3.756   1.756
82427W        W43793  27.662  27.985  11.387
82428W        W43794  42.780  28.530   2.805
82429W        W43795  25.670  28.040   0.385
82430W        W43796  37.855  10.649   4.828
82431W        W43797  15.229  19.071  12.021
82432W        W43798   4.347  29.152  12.034
82433W        W43799  29.980  36.584   0.891
82434W        W43800  40.003  21.049  12.431
82435W        W43801   8.793  36.038   0.318
82436W        W43802  29.655  36.071   3.156
82437W        W43803  38.408  38.343  13.466
82438W        W43804  27.992  12.843  14.963
82439W        W43805  41.909  13.790   2.701
82440W        W43806  23.012   9.731  14.372
82441W        W43807  19.147  32.619  13.960
82442W        W43808  12.748  35.475  14.419
82443W        W43809  30.638  42.009   3.769
82444W        W43810  38.970  13.610  10.566
82445W        W43811   7.799  32.097   4.694
82446W        W43812  18.649  30.608   2.201
82447W        W43813  27.561   1.773  14.325
82448W        W43814   4.330   7.396   3.259
82449W        W43815  27.054  44.908  13.353
82450W        W43816  39.945  16.774   2.765
82451W        W43817  27.687   9.324   1.341
82452W        W43818  36.497  31.005   1.810
82453W        W43819  15.585  29.097   1.896
82454W        W43820   7.904  14.181   4.786
82455W        W43821  41.929  11.662  12.506
82456W        W43822  26.046   0.426   4.610
82457W        W43823  27.514  11.212   3.804
82458W        W43824  27.465  40.922  13.401
82459W        W43825  41.451  22.523  13.968
82460W        W43826  22.726  41.504  12.825
82461W        W43827  44.376  23.573   4.132
82462W        W43828  30.657  35.586  12.852
82463W        W43829  23.089  22.600   0.865
82464W        W43830  44.852   6.370  10.589
82465W        W43831  27.042  17.651   4.611
82466W        W43832   7.315  11.251  14.787
82467W        W43833  39.315  39.512  10.889
82468W        W43834  19.709  18.218   3.195
82469W        W43835  15.090   4.394  13.850
82470W        W43836  27.128  25.180   2.675
82471W        W43837  16.242   0.788  10.429
82472W        W43838  33.452  35.603  12.873
82473W        W43839  17.127  17.278  12.914
82474W        W43840  42.861   7.708  11.377
82475W        W43841  29.964  33.073   0.260
82476W        W43842  25.573  19.693  10.152
82477W        W43843  16.296  27.500   3.330
82478W        W43844  38.373  27.144  12.020
82479W        W43845  44.324  26.473   2.207
82480W        W43846  44.906  39.358  13.981
82481W        W43847  44.868   8.765   4.123
82482W        W43848  44.307  24.663  14.010
82483W        W43849  25.059   4.312  14.008
82484W        W43850  33.080  44.449   4.187
82485W        W43851  11.713  31.012   4.117
82486W        W43852   6.346  30.550   4.298
82487W        W43853   7.818  15.162   9.503
82488W        W43854  38.848  25.151  12.903
82489W        W43855  41.297   8.875   1.302
82490W        W43856  32.891  32.588  10.912
82491W        W43857  39.427   1.368   2.742
82492W        W43858  38.478  37.834   3.316
82493W        W43859  37.012  26.535  14.837
82494W        W43860  43.779  14.187  11.526
82495W        W43861  18.236  38.876   0.888
82496W        W43862  31.454  34.973   4.718
82497W        W43863  19.660  26.118  13.539
82498W        W43864  28.041  13.130   4.639
82499W        W43865   5.323  14.616   0.279
82500W        W43866  39.444  27.446   1.430
82501W        W43867  20.048   2.462  12.528
82502W        W43868  10.149  14.699   1.828
82503W        W43869   4.911   7.686   3.790
82504W        W43870  41.876  17.298  13.348
82505W        W43871  19.114  24.684   3.687
82506W        W43872   2.438  28.459   1.321
82507W        W43873  18.146  37.387  11.480
82508W        W43874  18.081  11.640  14.860
82509W        W43875  32.466  44.880   0.474
82510W        W43876  35.550  43.484   1.295
82511W        W43877  10.341  11.839  10.932
82512W        W43878  36.589  19.176  11.048
82513W        W43879  10.199  26.105  13.500
82514W        W43880  11.633  20.038   2.816
82515W        W43881   1.974  16.284  13.445
82516W        W43882  21.684   9.272   0.894
82517W        W43883  12.772   3.856   0.852
82518W        W43884   2.806   9.753  10.524
82519W        W43885  36.909   9.299  11.988
82520W        W43886  19.725  32.429  12.377
82521W        W43887  24.653   8.742  13.802
82522W        W43888  40.928   8.348  12.089
82523W        W43889  36.088  39.361   2.377
82524W        W43890  31.123  36.584   4.338
82525W        W43891   9.846  41.326  11.946
82526W        W43892  12.361   8.728   2.416
82527W        W43893  29.047  24.646   1.768
82528W        W43894  22.557  22.205  12.543
82529W        W43895   3.755   3.456  14.297
82530W        W43896  13.347  22.624   0.352
82531W        W43897  30.526   5.216   0.296
82532W        W43898  20.235  34.573  11.408
82533W        W43899   7.736  30.649   5.218
82534W        W43900  21.099  36.989   4.166
82535W        W43901  39.349  31.111   2.250
82536W        W43902  12.629  27.113  12.025
82537W        W43903   0.951  10.295   4.785
82538W        W43904  18.761  30.116  10.538
82539W        W43905  10.777  25.966   4.296
82540W        W43906  24.054  30.954   0.266
82541W        W43907  32.566  28.673  12.914
82542W        W43908  40.453  34.904  11.453
82543W        W43909  23.563   9.766   2.729
82544W        W43910  18.236  36.379  10.999
82545W        W43911   8.693  18.771   4.193
82546W        W43912  15.679  35.091  14.323
82547W        W43913  32.108  38.008   2.692
82548W        W43914   3.732  18.589   0.309
82549W        W43915  12.142  29.639  13.357
82550W        W43916  32.937  19.215   1.800
82551W        W43917  41.855  38.912   3.682
82552W        W43918  44.385  29.118  10.068
82553W        W43919   9.652  18.142  14.025
82554W        W43920  19.256   1.846  14.471
82555W        W43921  16.300   4.882   0.314
82556W        W43922  29.087  28.651   0.299
82557W        W43923  25.035  28.624  12.991
82558W        W43924   8.276  17.181  11.933
82559W        W43925  12.809  28.585   4.348
82560W        W43926  38.009  42.424  12.851
82561W        W43927  17.183  10.275  13.410
82562W        W43928   9.853  41.470  13.056
82563W        W43929   6.765  43.003  10.627
82564W        W43930  43.507  33.544  10.522
82565W        W43931  10.744  40.475  11.540
82566W        W43932  41.941  37.544   3.308
82567W        W43933   5.880   6.379   1.362
82568W        W43934  24.205  17.559  14.769
82569W        W43935  32.471  24.697  13.013
82570W        W43936  28.675   0.475  13.947
82571W        W43937  11.655   9.698   2.374
82572W        W43938  30.034  19.727  13.988
82573W        W43939   0.390   4.319  11.423
82574W        W43940  20.754  42.415  13.329
82575W        W43941  17.063  44.800  11.505
82576W        W43942  30.447  23.091   5.111
82577W        W43943   3.943  38.971   2.360
82578W        W43944  34.911   8.242   2.685
82579W        W43945  26.150   5.800  13.525
82580W        W43946  16.600  18.739  13.909
82581W        W43947  20.616  17.567  12.486
82582W        W43948  41.953  18.741  13.035
82583W        W43949   1.254  41.487   0.483
82584W        W43950   7.384   3.363   3.711
82585W        W43951   5.886  21.168  10.492
82586W        W43952  20.156   9.204   2.742
82587W        W43953   2.810   9.763   2.386
82588W        W43954   6.825  27.663   4.250
82589W        W43955   9.255  12.229   3.736
82590W        W43956  17.636  10.248   1.784
82591W        W43957  21.081  11.843   1.380
82592W        W43958  38.528  13.670  14.463
82593W        W43959  24.638  16.807  11.043
82594W        W43960   8.387  43.952  11.922
82595W        W43961  39.898   8.658   5.302
82596W        W43962  16.711  26.534   4.799
82597W        W43963  33.058  12.780   4.759
82598W        W43964  28.678   4.432  14.462
82599W        W43965   0.387  22.674  14.388
82600W        W43966  24.587  43.292   1.702
82601W        W43967  32.405  19.060   0.464
82602W        W43968  29.085   2.740   3.206
82603W        W43969  43.824  17.619  14.979
82604W        W43970  39.339  22.134   1.424
82605W        W43971   9.655   9.657   3.173
82606W        W43972  33.078  12.330  12.894
82607W        W43973   8.858  32.622  10.638
82608W        W43974  18.121  38.428   0.338
82609W        W43975  16.601  12.840  12.871
82610W        W43976  37.869  22.547  14.772
82611W        W43977  19.645   3.264  14.883
82612W        W43978  28.495  19.166  14.324
82613W        W43979  39.032  44.990  13.316
82614W        W43980   4.897  38.909   3.822
82615W        W43981   1.967  15.232   2.850
82616W        W43982   3.220  20.572   2.396
82617W        W43983  41.334  34.106  10.630
82618W        W43984  25.493  24.692   1.748
82619W        W43985  10.257  22.021  14.397
82620W        W43986  25.966   8.314  12.542
82621W        W43987  31.437  33.612  14.335
82622W        W43988  15.699  32.540  14.913
82623W        W43989   2.929  28.983   3.854
82624W        W43990  17.140  22.043   4.321
82625W        W43991  23.186  14.647  14.030
82626W        W43992  31.147  21.145  11.433
82627W        W43993  37.969  14.649  10.437
82628W        W43994  40.466  20.139  12.552
82629W        W43995   8.729  23.215   3.213
82630W        W43996  35.526  11.360   4.313
82631W        W43997  34.067  35.991  11.953
82632W        W43998  10.381  24.624   2.416
82633W        W43999  35.963   2.339  11.539
82634W        W44000  44.486  44.412   2.691
82635W        W44001  40.379   8.714  10.977
82636W        W44002  13.658  24.200   3.776
82637W        W44003  38.919   6.386  12.084
82638W        W44004  18.776   6.779   3.718
82639W        W44005   3.894  33.527   0.481
82640W        W44006  19.691  25.645   0.775
82641W        W44007  35.389   2.887  13.006
82642W        W44008  26.630  42.311  11.481
82643W        W44009  29.024  15.809   4.227
82644W        W44010  20.658  40.341   3.276
82645W        W44011  28.438  44.933  14.788
82646W        W44012  37.377  40.932  13.041
82647W        W44013  18.653  44.396   2.312
82648W        W44014   5.193   5.712  12.455
82649W        W44015  25.571   3.235   2.713
82650W        W44016   4.367  17.261   1.805
82651W        W44017  21.029  38.905  14.470
82652W        W44018   3.794  11.649  14.907
82653W        W44019  26.199  21.546   0.466
82654W        W44020  19.156  26.076   2.709
82655W        W44021  22.686  44.902  12.939
82656W        W44022  38.828  40.319   0.271
82657W        W44023  44.759   8.305  12.408
82658W        W44024  30.938   4.874   5.250
82659W        W44025  16.134   5.883  12.345
82660W        W44026   6.217  37.558  12.964
82661W        W44027   3.396  19.586   1.305
82662W        W44028  14.611  35.448  12.826
82663W        W44029  43.777   5.201  10.493
82664W        W44030  10.351  36.580  11.071
82665W        W44031   1.856   6.222   2.383
82666W        W44032  39.496  15.810   0.799
82667W        W44033  11.130   8.829  10.416
82668W        W44034  25.588  29.607   4.180
82669W        W44035  10.782  12.845   2.268
82670W        W44036  24.012   4.340  12.362
82671W        W44037  42.502  25.030  12.532
82672W        W44038  39.404  26.664  14.965
82673W        W44039  27.649  44.272   3.652
82674W        W44040  30.425   5.928   0.419
82675W        W44041   3.438  33.533  11.610
82676W        W44042  15.584  32.394  11.474
82677W        W44043  33.936   9.848   1.376
82678W        W44044   9.843  15.709   4.327
82679W        W44045   3.447   1.246  14.396
82680W        W44046   4.756  20.099   2.770
82681W        W44047  11.319   7.284   3.789
82682W        W44048  36.521  13.736  14.930
82683W        W44049   1.746  35.604   4.765
82684W        W44050   6.396   0.485  10.639
82685W        W44051  21.209  43.318   4.652
82686W        W44052  11.678   7.343   4.336
82687W        W44053  44.322   0.289   0.429
82688W        W44054   8.360  39.016   3.193
82689W        W44055  13.649  34.089   1.928
82690W        W44056  13.306  16.173  12.991
82691W        W44057  15.179  39.369  13.367
82692W        W44058  14.204  39.412  11.487
82693W        W44059   2.837  41.969  12.384
82694W        W44060  43.796  35.921  14.395
82695W        W44061  30.142  31.095   0.249
82696W        W44062  38.064  14.270   0.450
82697W        W44063  27.003  13.338  10.406
82698W        W44064  28.476  42.026  10.621
82699W        W44065  23.035  17.637   0.376
82700W        W44066  10.648   9.710   0.349
82701W        W44067  35.000  23.997  12.351
82702W        W44068  25.990  30.950   4.219
82703W        W44069  24.519  28.013   0.967
82704W        W44070  42.342  27.117   1.807
82705W        W44071  42.310   4.746  13.348
82706W        W44072   5.718  40.362  12.541
82707W        W44073  38.520   2.375   3.784
82708W        W44074  40.848  43.361  11.602
82709W        W44075  24.184  41.912  10.637
82710W        W44076   8.776  31.120  11.880
82711W        W44077   4.214  35.087   1.306
82712W        W44078  44.293  33.480   2.870
82713W        W44079  30.959   1.420   3.793
82714W        W44080  40.499  37.443  10.113
82715W        W44081  28.668  14.723  13.332
82716W        W44082  34.394  42.876  14.498
82717W        W44083  29.444  32.015   4.693
82718W        W44084  19.156  29.540   2.381
82719W        W44085   8.817  12.729  14.289
82720W        W44086  40.969  20.637   2.830
82721W        W44087  13.286  38.068   3.841
82722W        W44088  25.052  36.062  12.957
82723W        W44089  20.076  22.050   0.421
82724W        W44090  42.870  26.556   1.924
82725W        W44091   4.445  23.229  13.537
82726W        W44092  30.649  42.882  11.900
82727W        W44093  37.473  37.357   0.752
82728W        W44094  19.646   2.265  11.096
82729W        W44095  18.224   1.954   3.733
82730W        W44096   0.852   6.302   5.264
82731W        W44097  41.311  28.474  12.843
82732W        W44098   7.818   4.908   3.325
82733W        W44099  35.395  34.991   3.207
82734W        W44100  30.152  26.996   9.653
82735W        W44101  24.204   6.207   4.319
82736W        W44102  31.544   2.838   4.321
82737W        W44103   8.764  10.678   4.222
82738W        W44104  27.155  41.004  14.462
82739W        W44105  18.229   0.288   3.256
82740W        W44106   1.353   4.311   0.953
82741W        W44107   0.750  27.123  12.945
82742W        W44108  23.709   2.871   2.313
82743W        W44109  42.878  17.076   0.959
82744W        W44110  40.849  37.925  11.917
82745W        W44111  43.817  40.969   1.850
82746W        W44112  30.430  29.578  13.808
82747W        W44113   7.196  35.890   3.727
82748W        W44114  19.572  14.260  11.448
82749W        W44115  27.945  23.216   2.188
82750W        W44116  35.894   9.694  10.623
82751W        W44117  23.585  41.989   2.835
82752W        W44118  43.828  40.929  12.080
82753W        W44119  19.685  14.183  11.969
82754W        W44120  32.047  10.755   0.253
82755W        W44121  26.523  34.907   2.899
82756W        W44122  15.643   8.745   0.898
82757W        W44123  37.403  27.992   2.342
82758W        W44124  37.407   9.257  14.321
82759W        W44125  42.318   8.740   2.261
82760W        W44126  33.589  14.783  13.505
82761W        W44127  22.051  20.179  11.951
82762W        W44128  20.596  34.454  14.870
82763W        W44129  31.423   3.277   2.343
82764W        W44130  23.723  27.621   4.257
82765W        W44131  17.698   9.262   1.900
82766W        W44132  42.979   9.373   5.236
82767W        W44133  24.625   5.269   2.220
82768W        W44134  36.467  27.546  14.324
82769W        W44135   2.773  16.189   1.220
82770W        W44136  44.869  10.350   3.262
82771W        W44137  24.499   5.878   4.298
82772W        W44138  43.501  31.609   4.326
82773W        W44139  15.121  21.519  11.900
82774W        W44140  31.130  41.427  13.968
82775W        W44141   5.726  30.509  14.758
82776W        W44142  32.058  20.078  13.401
82777W        W44143   5.194  29.100  14.383
82778W        W44144  34.026  44.410   1.839
82779W        W44145  14.318   1.323  13.984
82780W        W44146   4.299   7.366   2.853
82781W        W44147  19.119  20.264   1.737
82782W        W44148  31.064  44.428  11.503
82783W        W44149   8.884  10.252  14.461
82784W        W44150   1.779   4.345   4.796
82785W        W44151  28.619  35.926   4.791
82786W        W44152  21.062   1.921   3.254
82787W        W44153  31.408  42.496  11.395
82788W        W44154  18.188  29.632   2.391
82789W        W44155  35.459  30.428  11.946
82790W        W44156   3.949  42.322   3.187
82791W        W44157  10.203  37.981  13.852
82792W        W44158  12.333   0.842   4.214
82793W        W44159  36.519  42.317   2.382
82794W        W44160  25.123  26.616   2.885
82795W        W44161  22.199  11.628  14.396
82796W        W44162  13.783  19.566  14.396
82797W        W44163  17.580  30.952   0.756
82798W        W44164  44.919  24.671   2.809
82799W        W44165  26.198  28.962  12.440
82800W        W44166  25.478  32.491   3.831
82801W        W44167   0.904  33.510   2.766
82802W        W44168  31.463   7.357  14.897
82803W        W44169   0.892   3.898  14.490
82804W        W44170  39.518  35.449  10.431
82805W        W44171  15.222  19.226   3.820
82806W        W44172  37.021  43.978   4.625
82807W        W44173  23.009  34.866   9.514
82808W        W44174  22.105  37.560  10.073
82809W        W44175  36.877  10.841  12.399
82810W        W44176  37.896  34.019  13.059
82811W        W44177  16.198  15.713   3.797
82812W        W44178  12.769  34.521  13.849
82813W        W44179  19.654  16.615   1.806
82814W        W44180  35.029  22.711   3.670
82815W        W44181  25.477  39.993  11.576
82816W        W44182  43.999  15.811  10.905
82817W        W44183   5.396  32.094  10.943
82818W        W44184  44.791   5.713   2.302
82819W        W44185  32.463  24.677  10.532
82820W        W44186  11.636  25.171   4.653
82821W        W44187  36.050  38.970   2.844
82822W        W44188  41.809  30.126   3.853
82823W        W44189   5.327  21.185  10.006
82824W        W44190  38.861  13.840   0.318
82825W        W44191  22.622  41.524   4.740
82826W        W44192  25.025  26.019  12.976
82827W        W44193  20.592  19.613  14.850
82828W        W44194  15.581  11.255  14.968
82829W        W44195  41.038  11.358  12.480
82830W        W44196  20.581  20.043  14.914
82831W        W44197  37.482   3.260  14.916
82832W        W44198  19.696  10.805  11.590
82833W        W44199  16.665  38.355   4.823
82834W        W44200   0.920  22.732   0.810
82835W        W44201  31.968  19.765   0.941
82836W        W44202   6.353   9.661  12.351
82837W        W44203  44.307  19.721   3.160
82838W        W44204  13.781  21.058   0.905
82839W        W44205  15.239   6.731  10.404
82840W        W44206  39.406  43.835  10.536
82841W        W44207  35.361  29.958   3.241
82842W        W44208  22.044   9.846  12.982
82843W        W44209  37.353   7.403   3.812
82844W        W44210  38.912  44.924   2.180
82845W        W44211  26.199  16.159   3.371
82846W        W44212  30.558  33.029  11.952
82847W        W44213  25.530  25.042   2.243
82848W        W44214  44.949  13.738  11.122
82849W        W44215   9.395   6.323   0.897
82850W        W44216  32.076   2.842   4.352
82851W        W44217  24.010  10.362   1.327
82852W        W44218   5.728  18.254   5.233
82853W        W44219  40.433  14.241  12.041
82854W        W44220  19.535  26.641  11.386
82855W        W44221  29.945  33.026   3.265
82856W        W44222  39.037  30.439   3.660
82857W        W44223   1.446  15.205  13.417
82858W        W44224   8.215  12.826   3.176
82859W        W44225   1.362  20.534  13.839
82860W        W44226   9.368  17.783   4.829
82861W        W44227  36.548  28.069   4.319
82862W        W44228  37.978  30.103  10.490
82863W        W44229  37.346  25.191   1.345
82864W        W44230  27.450  22.673   4.785
82865W        W44231   3.332  31.569   3.304
82866W        W44232  29.468   6.895   1.252
82867W        W44233  14.325   9.302   2.760
82868W        W44234  15.301  22.529  12.859
82869W        W44235   0.827  36.419   2.287
82870W        W44236  19.768  14.181  12.530
82871W        W44237  22.527  20.274  10.959
82872W        W44238  39.006   0.947  10.593
82873W        W44239  43.286  42.838  12.463
82874W        W44240  14.803   7.842  14.953
82875W        W44241  31.528   0.467   3.341
82876W        W44242  13.650  10.215   2.191
82877W        W44243  14.167   7.360   3.816
82878W        W44244  19.071  23.533  12.473
82879W        W44245  30.572  21.051  14.302
82880W        W44246  20.252  37.407   2.237
82881W        W44247  35.438  41.857   1.219
82882W        W44248  16.223  15.586   2.687
82883W        W44249  22.145  39.479   4.239
82884W        W44250   0.910  43.868   0.821
82885W        W44251  26.100  43.315  11.546
82886W        W44252   9.706  21.515  14.819
82887W        W44253  38.386  27.580  10.539
82888W        W44254   9.252  29.583   4.292
82889W        W44255  31.455  16.566   1.319
82890W        W44256  34.903   3.286  13.870
82891W        W44257  33.460  22.693   3.820
82892W        W44258   3.951   4.813   4.120
82893W        W44259   7.346  44.355  13.040
82894W        W44260   9.676  13.311  12.846
82895W        W44261  17.775  38.867  12.341
82896W        W44262  16.312  40.028   0.252
82897W        W44263  14.745  30.542   4.209
82898W        W44264   3.366  12.240   3.262
82899W        W44265   6.885  44.864  12.980
82900W        W44266  37.488  36.450  11.044
82901W        W44267  41.819  27.150   0.358
82902W        W44268  43.514  36.912  11.490
82903W        W44269  15.103  43.381  14.774
82904W        W44270  10.772  42.845   1.379
82905W        W44271   7.845   9.181  12.378
82906W        W44272   6.800  26.191   1.388
82907W        W44273  37.875  22.207  11.525
82908W        W44274  42.363  18.194   0.404
82909W        W44275  11.651   3.297   3.322
82910W        W44276  14.834   0.323  11.389
82911W        W44277  34.046   8.752  11.087
82912W        W44278  40.009  41.320   3.726
82913W        W44279  18.708  35.435   2.364
82914W        W44280  21.067  14.284   2.766
82915W        W44281  38.359  38.987   0.858
82916W        W44282  30.024   1.810   0.878
82917W        W44283  13.705  34.428   1.775
82918W        W44284   2.394  40.868   2.726
82919W        W44285  19.703  41.360   3.776
82920W        W44286  40.989   3.451   1.920
82921W        W44287  24.012  30.652  11.504
82922W        W44288  38.015   7.671  11.378
82923W        W44289  24.725  30.617   0.324
82924W        W44290   4.211  22.531   2.695
82925W        W44291  40.349  20.608  13.366
82926W        W44292  21.518  20.731   1.840
82927W        W44293  24.121   1.373  10.991
82928W        W44294  34.571  39.328   2.710
82929W        W44295  33.460  17.280  11.948
82930W        W44296  30.019   0.980   0.929
82931W        W44297  25.124  43.935   1.407
82932W        W44298  27.665   5.840   0.904
82933W        W44299  37.423  16.609   3.237
82934W        W44300  13.844  22.136   3.681
82935W        W44301  38.348   4.361   2.693
82936W        W44302   0.412   0.828   0.301
82937W        W44303  22.580  30.065  13.994
82938W        W44304  26.086   6.841   0.327
82939W        W44305  18.085  19.665   0.932
82940W        W44306  15.597   3.888  13.439
82941W        W44307  25.049  24.182   1.914
82942W        W44308  30.081  28.522  14.019
82943W        W44309   7.393  42.800   2.711
82944W        W44310   2.395  40.378   4.701
82945W        W44311  42.017  14.773   3.722
82946W        W44312   1.888  28.170   3.363
82947W        W44313  17.182  23.169  14.984
82948W        W44314  13.233  33.118   1.450
82949W        W44315   2.465  33.996   3.665
82950W        W44316  11.746  22.099  11.513
82951W        W44317  25.488  34.960  10.444
82952W        W44318  32.928  25.670  14.324
82953W        W44319  13.219   1.868  12.884
82954W        W44320   5.353  36.878   3.694
82955W        W44321  31.615  19.711  14.462
82956W        W44322  38.025   3.827  14.763
82957W        W44323  18.717  20.058   1.210
82958W        W44324  27.574  35.871   1.754
82959W        W44325  29.516  15.144  10.604
82960W        W44326   2.752   7.341   4.666
82961W        W44327  19.232  12.637  13.954
82962W        W44328  27.474   5.877  14.821
82963W        W44329  36.042  10.674  11.371
82964W        W44330  19.742   4.280  13.000
82965W        W44331  34.097  32.938   0.957
82966W        W44332  23.142  13.251   0.281
82967W        W44333  44.458  17.713   4.254
82968W        W44334  44.840  26.034   4.812
82969W        W44335   1.411  12.348   2.714
82970W        W44336  44.951  24.510   1.865
82971W        W44337  10.635  18.295  12.077
82972W        W44338  26.692  17.723  12.992
82973W        W44339   5.281  23.132  14.032
82974W        W44340  11.253  10.773   3.803
82975W        W44341  16.202   7.305  14.831
82976W        W44342  34.025  17.175  13.379
82977W        W44343  11.676  10.260  13.811
82978W        W44344  27.053  36.427   4.633
82979W        W44345  35.413   0.978  11.046
82980W        W44346  41.451  21.719  12.345
82981W        W44347  42.785   3.804  11.519
82982W        W44348  37.374  29.642   2.271
82983W        W44349  13.660  21.588   3.359
82984W        W44350  19.169  10.751   2.884
82985W        W44351   9.850  35.911  13.814
82986W        W44352  29.973  30.153  11.474
82987W        W44353  31.100   3.816  11.973
82988W        W44354  11.224  17.076  13.406
82989W        W44355  14.720  43.855   3.647
82990W        W44356  34.488  41.334   3.812
82991W        W44357  28.583  26.576  12.931
82992W        W44358  36.912  14.307   4.258
82993W        W44359  38.504  22.682  10.476
82994W        W44360  30.588  33.975   4.718
82995W        W44361  24.490   3.448   3.831
82996W        W44362  41.302  29.526  14.993
82997W        W44363   3.257  22.711   2.201
82998W        W44364  10.649  19.206   4.132
82999W        W44365  18.290  33.384   2.872
83000W        W44366  23.127  29.425   1.846
83001W        W44367  29.107  42.427  14.793
83002W        W44368  43.990  28.508  10.607
83003W        W44369   8.762   9.298   0.819
83004W        W44370  35.534  15.169   0.841
83005W        W44371  23.184  11.272   4.187
83006W        W44372  24.990  39.474  13.532
83007W        W44373  20.133   0.381   1.321
83008W        W44374  23.616   7.253  14.424
83009W        W44375  37.064  14.096  11.425
83010W        W44376  25.119   7.252   1.242
83011W        W44377  20.181  43.859  12.413
83012W        W44378  32.608  27.134  12.500
83013W        W44379  17.134  29.580  12.958
83014W        W44380  30.933   2.840  13.354
83015W        W44381   6.900   5.305   1.793
83016W        W44382  39.459  39.489  12.962
83017W        W44383  36.988  18.219   3.788
83018W        W44384   9.766   2.794  14.300
83019W        W44385  16.647  11.352   4.283
83020W        W44386  32.008  10.861   2.892
83021W        W44387   9.259  21.523  11.002
83022W        W44388  37.464   3.897   0.894
83023W        W44389   9.311   3.804   0.308
83024W        W44390  40.968   3.899   4.241
83025W        W44391   9.661  17.687   3.792
83026W        W44392  18.124  20.080   3.386
83027W        W44393  30.609  19.214  12.882
83028W        W44394  30.643  31.153  11.500
83029W        W44395  16.265  43.850   2.186
83030W        W44396  18.603  14.760   4.279
83031W        W44397  44.794  42.826  13.883
83032W        W44398  33.875  10.170   2.332
83033W        W44399  20.616  34.053   3.676
83034W        W44400  18.109   6.273  14.005
83035W        W44401  43.340  35.039  10.459
83036W        W44402   3.779   2.334  11.510
83037W        W44403  14.098  37.558  12.570
83038W        W44404  30.016  25.522   3.233
83039W        W44405  11.260  41.944   4.777
83040W        W44406  41.942   8.166   4.244
83041W        W44407  44.291  25.147  11.951
83042W        W44408  15.131  18.676  10.972
83043W        W44409  25.671  15.593   3.306
83044W        W44410  12.195   6.266  12.939
83045W        W44411  18.083  17.159  11.525
83046W        W44412  41.922  21.074   9.955
83047W        W44413  17.685  36.436   0.318
83048W        W44414  41.825  25.627   0.335
83049W        W44415  31.016  14.608  11.505
83050W        W44416  33.996  25.552  14.480
83051W        W44417  40.453  43.415   1.782
83052W        W44418  25.678  39.324  11.085
83053W        W44419  30.484   6.197  11.491
83054W        W44420  38.445   4.388   0.340
83055W        W44421  42.419  27.581   2.304
83056W        W44422  26.114  39.971   3.657
83057W        W44423  36.863  22.704  14.805
83058W        W44424  44.767  13.111   1.832
83059W        W44425  38.374   8.879  13.396
83060W        W44426  17.294  18.153  13.017
83061W        W44427  36.000  31.570  11.882
83062W        W44428   6.215  36.588  14.362
83063W        W44429  26.954  34.460   1.450
83064W        W44430  34.868  36.460  13.440
83065W        W44431  26.670  19.771   2.262
83066W        W44432  33.447  44.311  14.461
83067W        W44433  42.031  32.626   4.213
83068W        W44434  21.244   6.379  10.099
83069W        W44435  24.676  15.807  12.075
83070W        W44436  13.843  37.954   0.283
83071W        W44437  15.705  21.258   5.322
83072W        W44438  33.917  38.901  10.161
83073W        W44439   5.281  42.987  10.985
83074W        W44440  14.766  35.911  11.456
83075W        W44441  36.504   2.349   4.149
83076W        W44442  17.121  23.006   2.756
83077W        W44443  15.236  33.050  13.364
83078W        W44444  34.945  24.076   3.682
83079W        W44445  29.055   4.821   2.369
83080W        W44446  27.138  38.426  11.064
83081W        W44447  39.344   3.713  11.491
83082W        W44448   6.248  21.524   2.794
83083W        W44449  24.521   1.732  14.471
83084W        W44450  12.188  21.515   3.828
83085W        W44451  28.178  42.840  14.022
83086W        W44452   6.191   6.894  13.318
83087W        W44453  37.996  43.922   2.793
83088W        W44454   6.330  33.880   2.697
83089W        W44455   5.846   4.409  12.495
83090W        W44456   3.774  28.958  14.324
83091W        W44457   6.698   8.855   0.398
83092W        W44458   5.921   1.459  11.451
83093W        W44459  36.904  17.748  14.355
83094W        W44460  14.108  11.342  13.803
83095W        W44461  32.620  38.946  12.937
83096W        W44462  11.127  19.050  10.958
83097W        W44463  33.102   7.309  13.906
83098W        W44464  21.038  15.646   0.741
83099W        W44465  21.515  12.255   1.430
83100W        W44466  30.541  35.543   1.918
83101W        W44467  39.361  10.353  14.338
83102W        W44468  13.774   7.243  11.988
83103W        W44469  30.464   9.259   0.457
83104W        W44470   9.670  18.091  10.528
83105W        W44471  22.596   1.948   0.832
83106W        W44472  29.047  18.190   3.287
83107W        W44473  32.026  23.071  14.431
83108W        W44474  32.423  25.154   1.302
83109W        W44475   6.270   2.421  10.587
83110W        W44476  14.671  42.787   0.293
83111W        W44477  14.744  23.558   4.316
83112W        W44478  37.434  42.987  14.462
83113W        W44479   9.281  16.609   3.839
83114W        W44480  37.868  15.581  12.865
83115W        W44481  42.899  37.882  11.395
83116W        W44482   6.340  41.945  14.388
83117W        W44483   7.365  17.709   4.645
83118W        W44484  29.614  41.333   0.300
83119W        W44485  41.521  29.021  13.493
83120W        W44486  33.990  41.344   2.859
83121W        W44487  19.122  38.521   4.206
83122W        W44488  11.747  44.007   3.709
83123W        W44489  40.966  29.987   3.183
83124W        W44490  25.210   4.797  14.776
83125W        W44491  26.171  34.020  11.466
83126W        W44492  43.848  20.592  13.383
83127W        W44493  30.930   4.348  13.867
83128W        W44494  27.183  40.496   4.750
83129W        W44495  17.201  28.026  13.890
83130W        W44496  18.163  37.859  13.048
83131W        W44497  28.060  40.412  13.879
83132W        W44498  22.550  40.999   1.757
83133W        W44499  38.962  16.309  12.933
83134W        W44500  10.860  40.941   2.206
83135W        W44501  44.773  34.032  14.471
83136W        W44502   4.369  36.496  10.603
83137W        W44503  18.237  15.588  10.124
83138W        W44504  20.650  32.127  13.817
83139W        W44505   0.456  38.993   2.691
83140W        W44506  38.424  23.200   0.249
83141W        W44507  43.831  11.269   1.368
83142W        W44508  37.516  29.160   3.834
83143W        W44509   3.772  30.969   4.275
83144W        W44510  44.437  34.883  12.858
83145W        W44511  43.907  27.086  11.906
83146W        W44512  33.544  44.503  11.590
83147W        W44513  17.669  38.067  13.792
83148W        W44514  15.232  39.919  14.791
83149W        W44515  43.272  15.818  10.017
83150W        W44516  34.369  21.644  12.976
83151W        W44517  10.204  28.457   4.264
83152W        W44518   8.761  30.586  11.858
83153W        W44519  20.169   1.788  13.416
83154W        W44520  42.904   4.906   2.227
83155W        W44521  22.739  44.300  14.315
83156W        W44522   1.332  40.495  12.375
83157W        W44523  42.434  10.789  13.337
83158W        W44524   1.297   9.734   1.254
83159W        W44525  40.843  25.117   1.287
83160W        W44526  21.523   4.391   4.781
83161W        W44527  10.740  22.137  10.418
83162W        W44528  40.466  38.019  12.479
83163W        W44529   9.259  29.599   3.221
83164W        W44530  16.699  38.927   1.356
83165W        W44531  36.410   4.872  10.966
83166W        W44532  41.476  19.746   3.745
83167W        W44533  36.000  36.567  10.608
83168W        W44534  30.013  36.580  10.512
83169W        W44535  25.177  42.793   0.449
83170W        W44536  19.088  16.217   1.451
83171W        W44537  42.358  28.580   0.811
83172W        W44538   9.344  30.656   2.693
83173W        W44539  11.182  30.479   4.837
83174W        W44540  11.724   9.246   0.967
83175W        W44541  16.725   6.687   0.826
83176W        W44542  14.283   4.789   0.800
83177W        W44543  23.103  14.665   3.758
83178W        W44544  15.286  36.389  12.988
83179W        W44545  13.305  16.111   1.732
83180W        W44546  21.227   2.446  12.092
83181W        W44547  42.844  23.683  14.281
83182W        W44548  28.538  15.820   4.125
83183W        W44549  32.513  31.959  13.835
83184W        W44550  25.174  37.046   1.904
83185W        W44551  23.001  26.077  12.447
83186W        W44552  20.206  34.875   3.826
83187W        W44553  40.978  18.678   1.718
83188W        W44554  16.637  22.588   4.715
83189W        W44555  11.688  23.116  10.904
83190W        W44556  11.799  23.105  13.454
83191W        W44557  42.345  30.519   3.823
83192W        W44558  25.123  35.384   3.650
83193W        W44559  41.922  42.452  14.822
83194W        W44560  38.379  40.867  13.045
83195W        W44561  43.883  43.019  14.309
83196W        W44562  32.083  28.951  14.432
83197W        W44563  22.139  25.472   1.245
83198W        W44564  43.304  16.120   1.701
83199W        W44565  13.138   9.218   2.825
83200W        W44566  23.525  16.634  13.315
83201W        W44567  42.377  11.742   2.844
83202W        W44568  42.385   8.862   1.822
83203W        W44569  31.101  21.131   4.771
83204W        W44570  31.993   1.459   4.230
83205W        W44571   5.858  20.624   4.753
83206W        W44572  15.304  18.240   1.440
83207W        W44573  26.041  44.768  12.835
83208W        W44574  16.728   7.669  14.981
83209W        W44575  16.729   0.409  12.014
83210W        W44576   3.902  18.193  12.037
83211W        W44577  41.302   6.764  11.480
83212W        W44578  24.053   4.388  13.969
83213W        W44579   9.162  16.121  11.068
83214W        W44580  18.597  32.497  10.976
83215W        W44581   7.312  42.958   3.348
83216W        W44582   0.418  13.219  13.052
83217W        W44583  18.670  30.559  11.394
83218W        W44584  37.372  44.504  12.350
83219W        W44585  29.606  22.150  14.345
83220W        W44586  37.869  33.127  10.430
83221W        W44587  44.476  39.026  11.040
83222W        W44588   1.303  16.207   1.277
83223W        W44589   5.743  29.614  10.964
83224W        W44590  15.769  21.148  13.412
83225W        W44591  15.261   3.415  14.000
83226W        W44592  14.767   8.332   3.377
83227W        W44593  43.883  12.668  12.478
83228W        W44594  19.175  31.576  12.838
83229W        W44595   7.841  37.479  14.319
83230W        W44596   6.912  30.031   2.830
83231W        W44597   9.166   9.331  14.386
83232W        W44598  43.393   1.800  14.425
83233W        W44599   3.746   9.158  11.881
83234W        W44600  17.736  16.307  12.453
83235W        W44601  12.342  40.911  14.921
83236W        W44602  36.455   2.241  14.380
83237W        W44603  16.121  31.032  11.540
83238W        W44604  36.531  15.700  12.469
83239W        W44605  27.100  12.817   3.635
83240W        W44606  13.188  18.106   4.238
83241W        W44607  13.255  14.125  13.889
83242W        W44608  39.059  35.044   2.186
83243W        W44609  26.535  19.697   1.417
83244W        W44610  21.071  42.952  14.833
83245W        W44611   0.986  26.602  10.519
83246W        W44612  16.662  28.931   4.603
83247W        W44613  36.583  22.038   2.336
83248W        W44614  37.460  15.200  14.766
83249W        W44615  44.003  21.741   4.765
83250W        W44616  24.004   2.440   0.437
83251W        W44617  36.517  17.260  13.902
83252W        W44618  44.765  15.750  10.500
83253W        W44619  11.304  39.998  10.592
83254W        W44620  21.606   6.884  14.305
83255W        W44621  23.623  23.531   2.865
83256W        W44622  23.670  14.694   1.716
83257W        W44623  40.028  26.634   3.265
83258W        W44624   8.671  29.641   4.705
83259W        W44625  11.159  25.148  12.911
83260W        W44626   9.277  15.264  13.534
83261W        W44627  23.494  21.695  14.933
83262W        W44628  11.339  22.561  14.429
83263W        W44629  27.948  38.072  12.513
83264W        W44630  29.466  44.438  12.003
83265W        W44631   8.760  14.242   2.676
83266W        W44632  44.849  12.785   0.910
83267W        W44633  37.997   8.667   5.159
83268W        W44634   9.810  18.664   0.903
83269W        W44635  23.193  14.687  10.896
83270W        W44636  19.620  38.443   3.269
83271W        W44637  43.318  19.627  13.869
83272W        W44638  23.525  17.745  10.639
83273W        W44639  14.322  14.141  14.516
83274W        W44640  12.698  42.002   1.878
83275W        W44641  32.950  37.415   1.747
83276W        W44642  13.758  25.555   1.855
83277W        W44643   8.297  31.088   2.210
83278W        W44644  40.838   7.883  13.012
83279W        W44645  17.655  42.319  13.956
83280W        W44646  11.794   6.912  14.997
83281W        W44647  11.649  38.031   3.677
83282W        W44648   7.835  26.088  10.517
83283W        W44649  40.970  42.487  12.393
83284W        W44650  17.079   4.815   0.856
83285W        W44651  30.953  31.485   0.290
83286W        W44652  19.148  26.671  10.071
83287W        W44653  37.407  26.661   0.957
83288W        W44654  20.548   1.425   4.798
83289W        W44655  25.059  29.442   4.299
83290W        W44656  37.026  22.145  12.398
83291W        W44657  22.087  44.435   3.805
83292W        W44658  39.013  14.140   2.371
83293W        W44659   6.356  40.808  14.010
83294W        W44660  27.082  11.861   3.720
83295W        W44661  22.246  13.616   1.418
83296W        W44662  34.015  16.628   3.774
83297W        W44663   4.419  12.160  13.818
83298W        W44664  13.834  42.992   3.741
83299W        W44665  10.681   6.912  13.816
83300W        W44666  29.991  37.881  10.411
83301W        W44667  19.200   9.157   0.408
83302W        W44668  33.404  26.071  12.081
83303W        W44669   2.283   7.784  12.977
83304W        W44670  22.037  44.972   4.295
83305W        W44671  14.771   0.387  13.822
83306W        W44672  26.462  41.872  13.308
83307W        W44673  22.055  40.369   1.707
83308W        W44674  29.152   9.806  13.857
83309W        W44675  40.526  15.621  10.519
83310W        W44676   5.924  29.046   2.751
83311W        W44677  10.718  43.484   0.430
83312W        W44678   2.831  11.633   0.264
83313W        W44679  10.851   3.907  12.084
83314W        W44680  19.683  11.277  12.478
83315W        W44681  15.693  13.230   2.726
83316W        W44682   4.875  31.484   4.348
83317W        W44683   2.258   8.293   0.435
83318W        W44684  11.235  35.575   0.818
83319W        W44685  38.054  30.124   0.913
83320W        W44686   0.884  38.931  10.123
83321W        W44687  44.471   7.739   2.412
83322W        W44688  24.164  17.793  13.886
83323W        W44689  25.571  17.720   0.373
83324W        W44690   5.736  18.720   2.675
83325W        W44691   0.747  39.333   4.650
83326W        W44692  21.746  40.478  12.368
83327W        W44693  21.656  24.485   3.696
83328W        W44694  29.931   9.175   1.776
83329W        W44695   8.248   8.846  10.630
83330W        W44696  34.538  24.196  11.497
83331W        W44697   7.362  24.228   0.432
83332W        W44698   4.409  25.106   0.750
83333W        W44699   0.320  25.216   2.893
83334W        W44700  35.512  20.671  14.895
83335W        W44701  38.059  30.454   2.234
83336W        W44702  10.150  30.516  13.928
83337W        W44703  15.103  24.066   3.688
83338W        W44704  23.705  21.516   1.706
83339W        W44705  44.002  13.300  14.856
83340W        W44706  10.667  15.309   3.735
83341W        W44707  35.970  30.141  13.510
83342W        W44708  11.275  39.995   1.860
83343W        W44709  19.080  26.626  12.571
83344W        W44710  20.680  17.706   0.374
83345W        W44711  11.282   0.830   3.381
83346W        W44712   6.798  29.495  11.458
83347W        W44713  15.210  40.986   1.275
83348W        W44714  11.807  36.538  12.862
83349W        W44715  40.864  31.402   0.315
83350W        W44716  11.216  12.306   0.944
83351W        W44717  41.341   3.868  10.432
83352W        W44718  13.185   5.245  14.290
83353W        W44719  24.094  43.270  10.607
83354W        W44720   4.373  15.231   2.711
83355W        W44721  40.883  30.524   1.773
83356W        W44722  26.188  10.766  11.935
83357W        W44723  35.558  18.555   0.412
83358W        W44724  10.209   2.958  11.118
83359W        W44725  27.498  19.273   4.152
83360W        W44726  28.676  30.541   3.722
83361W        W44727   1.881  43.837  14.424
83362W        W44728  31.575  12.258  12.013
83363W        W44729  27.075  10.700  14.969
83364W        W44730   2.319  14.156   1.750
83365W        W44731  20.633  11.141  11.428
83366W        W44732   1.771  40.857   0.799
83367W        W44733  36.393  40.925   0.326
83368W        W44734  27.104  21.228   1.346
83369W        W44735  42.859  18.146   1.731
83370W        W44736  33.575  30.951  12.096
83371W        W44737  23.999   7.853  14.966
83372W        W44738  32.911  30.930  11.053
83373W        W44739  23.164  34.545  11.874
83374W        W44740  28.504   1.294  13.399
83375W        W44741   3.435  44.933  11.386
83376W        W44742  42.862  32.935  12.001
83377W        W44743  22.653  36.923  12.499
83378W        W44744  36.887  13.689  12.893
83379W        W44745  35.968  10.791   4.815
83380W        W44746  14.696  20.638   3.754
83381W        W44747   4.280  14.304   3.207
83382W        W44748   1.806   7.268   3.853
83383W        W44749  19.065  29.041  13.024
83384W        W44750  43.331  17.774  12.033
83385W        W44751  10.201  40.457  11.532
83386W        W44752   4.355  30.015  10.996
83387W        W44753  24.080  26.004   1.408
83388W        W44754  26.656   3.908   0.271
83389W        W44755  22.674   0.825   4.354
83390W        W44756  10.367  30.596  11.424
83391W        W44757  34.969  28.150   0.351
83392W        W44758   1.882  28.100  12.996
83393W        W44759   1.816  10.233  14.422
83394W        W44760  37.498  36.023   2.732
83395W        W44761  11.253  25.467   1.749
83396W        W44762  23.127  10.797   1.732
83397W        W44763  14.618  28.667   4.131
83398W        W44764  24.537  13.351  11.097
83399W        W44765  36.857  18.629  10.521
83400W        W44766  13.113  39.453  10.623
83401W        W44767  35.046  11.687  12.952
83402W        W44768  38.925  22.012   2.848
83403W        W44769  33.571  40.924  13.972
83404W        W44770  38.417   4.858  12.836
83405W        W44771   2.332  26.975  11.550
83406W        W44772  12.658  44.790   2.759
83407W        W44773   9.857   2.394  13.386
83408W        W44774  34.584  11.316  12.564
83409W        W44775  24.993  24.144  13.320
83410W        W44776  43.989  37.007  14.957
83411W        W44777  26.154  11.366  12.419
83412W        W44778  38.040  23.040   4.745
83413W        W44779  34.007  24.060   1.897
83414W        W44780  23.503  27.094  12.500
83415W        W44781  33.529   9.669  14.840
83416W        W44782  10.338  19.052  10.956
83417W        W44783  42.858  19.190  11.550
83418W        W44784  20.641  26.477  14.488
83419W        W44785  23.042  17.748  13.945
83420W        W44786  12.823  32.020  11.567
83421W        W44787  39.953  32.072  10.630
83422W        W44788  19.779  38.066   4.117
83423W        W44789   0.814  31.570  12.534
83424W        W44790  37.516   7.850  14.359
83425W        W44791   4.845  39.444  13.498
83426W        W44792  28.626  15.289   1.743
83427W        W44793   9.383  23.504   9.939
83428W        W44794  27.534  35.525   2.378
83429W        W44795   6.422  13.340  12.825
83430W        W44796   1.331  42.813   1.216
83431W        W44797  26.043   5.376  11.380
83432W        W44798  31.620  31.995   1.396
83433W        W44799  39.059   4.292  12.435
83434W        W44800   8.888  20.635   1.799
83435W        W44801  37.032  23.689  14.510
83436W        W44802  44.956  25.467  14.344
83437W        W44803  36.373   8.231  13.382
83438W        W44804  21.115  25.980  11.380
83439W        W44805  33.556  12.359  14.872
83440W        W44806  17.130   9.227   0.746
83441W        W44807  24.148  23.683  10.154
83442W        W44808  43.305   0.785  12.451
83443W        W44809  17.672  18.110   0.760
83444W        W44810  18.738  16.177  11.400
83445W        W44811   8.839   8.249  14.872
83446W        W44812   6.373   3.884   0.453
83447W        W44813  24.505  32.967   4.706
83448W        W44814  41.829  40.310  14.294
83449W        W44815   6.361  29.458   4.233
83450W        W44816   4.205  37.492  14.338
83451W        W44817   9.362  32.953   1.351
83452W        W44818  17.282  41.533   0.259
83453W        W44819   3.265   6.233  14.782
83454W        W44820   3.249  19.615   2.864
83455W        W44821   4.443  38.446  12.505
83456W        W44822  42.891  42.871  13.496
83457W        W44823  21.019  15.623   4.221
83458W        W44824  34.534  32.470  10.498
83459W        W44825   1.975  38.382  12.350
83460W        W44826  18.178  37.457   1.909
83461W        W44827  11.318   2.894  10.621
83462W        W44828  13.779  10.640   4.235
83463W        W44829  42.329  17.202  10.468
83464W        W44830  10.729  32.441   9.620
83465W        W44831  19.090   3.309  13.942
83466W        W44832  41.356  44.969   1.907
83467W        W44833  43.490  43.785   4.746
83468W        W44834  30.490  35.986   3.286
83469W        W44835  15.602   6.898  14.002
83470W        W44836  41.903  36.848  10.500
83471W        W44837  37.474  12.333  11.045
83472W        W44838  16.163  37.932   3.155
83473W        W44839  24.500   9.187  12.979
83474W        W44840  12.829  25.573   2.411
83475W        W44841  36.921  11.157  11.095
83476W        W44842  36.590  35.984  13.833
83477W        W44843  13.303  42.988   3.233
83478W        W44844  10.142  29.428   1.815
83479W        W44845   7.724  33.447  12.943
83480W        W44846  15.717  44.940  10.509
83481W        W44847   3.246  44.395   2.794
83482W        W44848  24.167  43.283   4.199
83483W        W44849  24.140  33.511  11.043
83484W        W44850  16.627  40.432  12.426
83485W        W44851  22.008  26.463   3.153
83486W        W44852   1.342  26.159  10.956
83487W        W44853  15.578  16.572   4.255
83488W        W44854   8.223  21.094  13.497
83489W        W44855  29.147  16.725   2.190
83490W        W44856   5.248  26.165   1.865
83491W        W44857  18.605  12.139   1.367
83492W        W44858  14.765  27.959   4.647
83493W        W44859   1.429  10.340   4.261
83494W        W44860   7.666  29.596  10.943
83495W        W44861  38.981  26.659   3.759
83496W        W44862  44.284  15.768   3.161
83497W        W44863   0.754  30.547  11.453
83498W        W44864  33.531  28.645  10.577
83499W        W44865  35.073  22.607  10.011
83500W        W44866  34.097  24.110   0.726
83501W        W44867  41.021  42.874  14.291
83502W        W44868   9.202  35.433  14.931
83503W        W44869   2.920  19.100  11.016
83504W        W44870  22.686  40.537   3.754
83505W        W44871  35.879  25.219  13.942
83506W        W44872  25.583  28.968   5.219
83507W        W44873  22.999  35.998   4.613
83508W        W44874  28.447  25.635   0.820
83509W        W44875   2.391  44.912  11.055
83510W        W44876  15.147  13.271  10.042
83511W        W44877  21.686  10.157  14.287
83512W        W44878  31.439  35.388  13.436
83513W        W44879  17.062  16.276   4.791
83514W        W44880  35.503  11.809  14.511
83515W        W44881  17.252  41.923  12.088
83516W        W44882  15.147  39.903   2.836
83517W        W44883  22.527  19.263   3.654
83518W        W44884   2.302   1.260   3.343
83519W        W44885  42.459   4.312  13.454
83520W        W44886  32.089  27.983   3.788
83521W        W44887  35.007  17.667   0.278
83522W        W44888  14.117  40.802   1.240
83523W        W44889  29.080  41.526   4.277
83524W        W44890  18.643  29.003   3.648
83525W        W44891  43.335  10.330   3.362
83526W        W44892  38.477   9.173  11.012
83527W        W44893  41.918  19.610   3.183
83528W        W44894  41.322  37.362   2.238
83529W        W44895  37.962  10.331   1.707
83530W        W44896  39.551  26.185   4.745
83531W        W44897  33.998   9.168   1.245
83532W        W44898  26.498  15.175  12.542
83533W        W44899  16.618  20.629  11.055
83534W        W44900   9.273   8.357   1.823
83535W        W44901  29.993   1.932  10.496
83536W        W44902  38.819  41.454   1.702
83537W        W44903  35.855  30.929   3.242
83538W        W44904  31.056   3.264   2.324
83539W        W44905   3.940  23.193   0.824
83540W        W44906  20.241  32.978  12.993
83541W        W44907  19.065   3.824   2.780
83542W        W44908  28.096  10.737   2.725
83543W        W44909  14.634  14.298   2.249
83544W        W44910  22.606  44.793  11.051
83545W        W44911  34.613   9.296  14.957
83546W        W44912  32.462  35.891   0.463
83547W        W44913  28.148   9.686   3.643
83548W        W44914  17.562  34.929   9.450
83549W        W44915  42.322  32.460   0.482
83550W        W44916  13.206  29.975  10.895
83551W        W44917  24.665  41.803  10.988
83552W        W44918  42.449  38.458   4.632
83553W        W44919  34.869  14.240   3.769
83554W        W44920  29.060  20.241  13.319
83555W        W44921  37.079   8.735   1.725
83556W        W44922   3.944  35.511  11.459
83557W        W44923  20.711  32.051  14.478
83558W        W44924  43.972   0.932  12.037
83559W        W44925  10.740   9.676  11.945
83560W        W44926   6.285  10.306  12.089
83561W        W44927  35.497  41.922  11.443
83562W        W44928  22.572  25.018   9.967
83563W        W44929   8.406  14.129  11.608
83564W        W44930   1.411  10.714   1.805
83565W        W44931  15.590   0.454   3.782
83566W        W44932  36.873  13.664   4.808
83567W        W44933  22.180   4.213   0.472
83568W        W44934   3.341  18.612  13.843
83569W        W44935   8.233  39.339   0.819
83570W        W44936  34.074  19.169  12.418
83571W        W44937  34.080  44.491   1.254
83572W        W44938  31.058   3.409  12.554
83573W        W44939   0.788  15.121  13.403
83574W        W44940  34.548  33.986   4.235
83575W        W44941  24.061  22.142  13.948
83576W        W44942  17.569   6.860   1.445
83577W        W44943  25.526  28.547  12.024
83578W        W44944  12.239  42.859   4.816
83579W        W44945  19.626   4.264   2.887
83580W        W44946  27.589   4.927  13.825
83581W        W44947  18.270  44.337  12.947
83582W        W44948   7.790  29.135   0.840
83583W        W44949  32.585  40.354  12.052
83584W        W44950   9.279  23.655  11.398
83585W        W44951  42.831  18.212  14.333
83586W        W44952  30.438  42.807  14.413
83587W        W44953  35.375  42.523   3.274
83588W        W44954  37.989  21.158   2.772
83589W        W44955  28.120   0.743   4.747
83590W        W44956  12.269  27.016   4.186
83591W        W44957   4.826  19.717   3.315
83592W        W44958  28.036  19.611   5.289
83593W        W44959  39.031  21.692   9.972
83594W        W44960  38.027  44.446  10.489
83595W        W44961  37.549  25.036   3.827
83596W        W44962  34.074  36.545  12.832
83597W        W44963  32.039  27.016   3.798
83598W        W44964  32.493  32.482  14.465
83599W        W44965  11.166  23.193   0.365
83600W        W44966  22.596  43.413  14.835
83601W        W44967  25.542  22.618   4.722
83602W        W44968  30.525  27.000  10.908
83603W        W44969  19.556  19.147  13.832
83604W        W44970  40.506  19.228  13.854
83605W        W44971  11.660  29.065   4.290
83606W        W44972  25.122  24.982  11.516
83607W        W44973  25.000  18.789   2.184
83608W        W44974   7.871   4.323  13.497
83609W        W44975  16.187  26.089   3.804
83610W        W44976  13.299  13.151  13.426
83611W        W44977  12.696  41.434  11.385
83612W        W44978  27.004  24.223   0.377
83613W        W44979  43.960   6.751   4.179
83614W        W44980  44.816  18.266   3.216
83615W        W44981  20.606  34.894   0.301
83616W        W44982  12.671  27.985   0.932
83617W        W44983  27.590  20.259   3.297
83618W        W44984  42.782  33.488  11.987
83619W        W44985  36.883   6.422  14.935
83620W        W44986   0.930  24.208  14.481
83621W        W44987  11.667   4.857   2.754
83622W        W44988  12.786  44.970   1.319
83623W        W44989   4.884  38.470  14.834
83624W        W44990  39.521  38.839  14.429
83625W        W44991  28.578  33.887   2.194
83626W        W44992   2.885   9.336   2.819
83627W        W44993   4.429  30.990  10.984
83628W        W44994  25.128   8.396   4.271
83629W        W44995  43.000  19.702  10.933
83630W        W44996  39.048  15.240  10.971
83631W        W44997   6.374   0.431  12.480
83632W        W44998   2.260  25.496   1.838
83633W        W44999  30.517  10.271   0.732
83634W        W45000  17.629  30.107   2.264
83635W        W45001   4.880   0.469  11.455
83636W        W45002   5.783   0.776   3.290
83637W        W45003   0.873  11.314   1.888
83638W        W45004  24.024  13.290  11.888
83639W        W45005  39.905  24.606   2.351
83640W        W45006  28.590  36.843  10.588
83641W        W45007  44.874  22.635  13.019
83642W        W45008  32.898   8.800  14.950
83643W        W45009  13.334   3.931   0.911
83644W        W45010   2.419   7.356   4.795
83645W        W45011  13.776  16.781  12.522
83646W        W45012  38.410  16.076  11.106
83647W        W45013  28.557  17.681  12.452
83648W        W45014  36.880   0.889  11.514
83649W        W45015  42.873   0.814   2.863
83650W        W45016  31.906  32.467  11.087
83651W        W45017   1.302   9.160   0.934
83652W        W45018  13.827   4.306   4.316
83653W        W45019  11.230   3.298   1.775
83654W        W45020  25.712   0.374  14.852
83655W        W45021  10.747  23.507  11.019
83656W        W45022  25.106  22.070   3.176
83657W        W45023   8.770  10.745   1.904
83658W        W45024   6.334  12.155  11.055
83659W        W45025  25.053   8.893  10.978
83660W        W45026  34.569  23.232  12.394
83661W        W45027  40.980   8.775  13.503
83662W        W45028  14.331  32.015   9.608
83663W        W45029  35.985   0.834  13.323
83664W        W45030  24.075  41.010   1.219
83665W        W45031  35.377  34.594   4.702
83666W        W45032   1.810  27.551   9.577
83667W        W45033  23.067   1.302  12.413
83668W        W45034  26.468   4.434   2.398
83669W        W45035  22.084  25.618   1.878
83670W        W45036  15.295  27.060  14.769
83671W        W45037  34.061  17.218  13.980
83672W        W45038  31.408   8.181   2.411
83673W        W45039  13.153  22.060   0.932
83674W        W45040  18.603   6.687   1.776
83675W        W45041  16.186  19.179  14.354
83676W        W45042  11.197  23.098   2.755
83677W        W45043  34.453  43.849  11.073
83678W        W45044  12.624  19.563  11.538
83679W        W45045   0.313  32.054  12.867
83680W        W45046  31.530  10.377  14.020
83681W        W45047  25.631  38.838   2.788
83682W        W45048   5.226  34.981   2.874
83683W        W45049  31.954  42.423   0.895
83684W        W45050  25.575  44.454  10.894
83685W        W45051  40.489  20.228  14.464
83686W        W45052   5.381  28.159  10.550
83687W        W45053   5.752  29.437  13.922
83688W        W45054  21.708   3.952   0.910
83689W        W45055  19.203   2.868   3.824
83690W        W45056   4.327  12.657   3.308
83691W        W45057  30.909   2.358  14.856
83692W        W45058  44.488   1.237  13.850
83693W        W45059  18.247  31.153   1.421
83694W        W45060  31.526   9.831  12.579
83695W        W45061  14.132  20.046   4.714
83696W        W45062  27.585  14.201   3.782
83697W        W45063  33.874  31.934   4.790
83698W        W45064   0.357   3.869   2.299
83699W        W45065  43.467   0.261   4.148
83700W        W45066  27.537   5.198  13.965
83701W        W45067  43.894  17.097  11.441
83702W        W45068  35.923  21.617  12.869
83703W        W45069   4.737  18.593   1.850
83704W        W45070   8.896  11.268   0.857
83705W        W45071  19.273  12.125  13.541
83706W        W45072  30.538  39.497   2.897
83707W        W45073   0.285  19.658  11.490
83708W        W45074  34.103  37.856  14.399
83709W        W45075  36.550  41.040  13.055
83710W        W45076  18.744   8.228   1.233
83711W        W45077  12.660  31.537  10.535
83712W        W45078  44.306   7.320  10.082
83713W        W45079  25.156  29.448  11.049
83714W        W45080  36.878  30.112  11.388
83715W        W45081  19.673  43.506  12.993
83716W        W45082  35.101  33.383   2.886
83717W        W45083  14.178  28.629  10.569
83718W        W45084   9.188  25.085  11.612
83719W        W45085   8.817  19.666  11.085
83720W        W45086   6.220   3.783   1.698
83721W        W45087  34.404  21.563   3.843
83722W        W45088  39.347  13.746   2.240
83723W        W45089  14.692  25.214  11.544
83724W        W45090   6.796  29.935  11.069
83725W        W45091  15.604   8.688   1.417
83726W        W45092  42.980  30.629   3.755
83727W        W45093  28.662  24.600  13.501
83728W        W45094  11.265  19.176  12.915
83729W        W45095  31.441   0.436  14.876
83730W        W45096  15.747  22.038  13.863
83731W        W45097  13.154  10.228  12.070
83732W        W45098  19.209  28.053   0.835
83733W        W45099  30.599  36.483  10.532
83734W        W45100  30.995   3.272  13.044
83735W        W45101  17.236   7.870   5.307
83736W        W45102   1.773   2.463  11.858
83737W        W45103  25.191  20.737   3.675
83738W        W45104  43.888  29.951   1.248
83739W        W45105   4.323  32.597  12.957
83740W        W45106  34.026  19.118  13.016
83741W        W45107  11.331  39.558   0.891
83742W        W45108  43.271  10.265  13.870
83743W        W45109  23.523  15.117   1.450
83744W        W45110  37.957  27.526  12.088
83745W        W45111  24.043   4.832   4.321
83746W        W45112  14.261  40.412   2.726
83747W        W45113  17.106  36.465  11.381
83748W        W45114   7.667  44.455   1.430
83749W        W45115   4.906  33.541   3.263
83750W        W45116   5.279   1.789   4.824
83751W        W45117  11.349  12.165   2.683
83752W        W45118  22.244  20.726   4.801
83753W        W45119  29.998  13.209   2.269
83754W        W45120  23.582  39.870   3.848
83755W        W45121  15.797  44.259   2.300
83756W        W45122  26.695   5.840   0.313
83757W        W45123  41.409  10.760  11.410
83758W        W45124   9.877   7.197   4.726
83759W        W45125  32.958  35.867  14.805
83760W        W45126  27.112  43.328  11.445
83761W        W45127  19.638  37.570   2.278
83762W        W45128  22.703  44.379  10.910
83763W        W45129  12.737  31.464   0.483
83764W        W45130  10.362  19.654  11.504
83765W        W45131  24.083   8.317  13.464
83766W        W45132  34.106   7.254  14.919
83767W        W45133  14.813  15.256   3.381
83768W        W45134   2.861  10.242   1.444
83769W        W45135  38.447  44.819   2.676
83770W        W45136  14.095  19.641   4.729
83771W        W45137   1.241  27.121   1.327
83772W        W45138  25.028  10.231   0.243
83773W        W45139   6.360  18.695  11.518
83774W        W45140  25.987  35.515   1.322
83775W        W45141   1.874  40.379  14.011
83776W        W45142   1.436  30.035  13.893
83777W        W45143  30.001  17.100   4.251
83778W        W45144  31.435  39.829   3.660
83779W        W45145  10.373  34.873   0.356
83780W        W45146  32.569  24.718   2.344
83781W        W45147  28.602  30.082  12.553
83782W        W45148   6.727  13.610  13.982
83783W        W45149  26.604  22.224   2.681
83784W        W45150  24.049  13.225   4.769
83785W        W45151  21.723  41.012   3.311
83786W        W45152  35.897  20.699  10.505
83787W        W45153  36.050  13.746   3.708
83788W        W45154  31.418  25.046   5.317
83789W        W45155  20.191  35.431  11.516
83790W        W45156  23.667  26.030   4.122
83791W        W45157   0.833   0.747   0.848
83792W        W45158  41.824   1.802   2.288
83793W        W45159  21.557   0.307   1.332
83794W        W45160  37.423  39.328   3.349
83795W        W45161   1.773  37.948   2.183
83796W        W45162  41.039  10.315   4.728
83797W        W45163  26.104  23.628   2.260
83798W        W45164  18.561  19.766   0.964
83799W        W45165  25.120   2.294   1.295
83800W        W45166   6.231  14.784  13.984
83801W        W45167  28.052  20.759   5.090
83802W        W45168  17.769   5.813   4.607
83803W        W45169  14.744  29.435   4.793
83804W        W45170  36.979  22.009   2.781
83805W        W45171  35.035  19.274  13.881
83806W        W45172   9.254   4.244   3.368
83807W        W45173  12.768  10.241  12.482
83808W        W45174  42.492   5.933   0.885
83809W        W45175  11.251  20.638   2.713
83810W        W45176  40.812  43.847   4.691
83811W        W45177  12.787  10.805   2.763
83812W        W45178  33.070  12.196  13.437
83813W        W45179   2.228  19.759   3.156
83814W        W45180  37.364   5.730   1.887
83815W        W45181   3.892  32.405  12.843
83816W        W45182  42.803  38.570  13.356
83817W        W45183  20.254  41.401  11.378
83818W        W45184  24.658  31.530   4.778
83819W        W45185  34.927   8.273  12.875
83820W        W45186   8.406  28.139   4.269
83821W        W45187  29.996  43.456  12.422
83822W        W45188  43.772  30.100   5.637
83823W        W45189  31.561  41.517   4.669
83824W        W45190  25.544  37.345  14.946
83825W        W45191  26.536  20.567   4.622
83826W        W45192  18.559   2.805   1.390
83827W        W45193  21.024   8.786   0.283
83828W        W45194  29.920   6.423   0.844
83829W        W45195  34.918  12.789   0.466
83830W        W45196  40.856  39.472  11.436
83831W        W45197  16.317   2.258  13.448
83832W        W45198   9.393  23.568   0.817
83833W        W45199  43.802   1.788   3.636
83834W        W45200  19.226   8.678  12.008
83835W        W45201   5.383   5.434  11.379
83836W        W45202  12.829  34.085   1.702
83837W        W45203  16.719  39.019  14.319
83838W        W45204  21.595  17.574   1.813
83839W        W45205  13.342  16.183  11.955
83840W        W45206  15.590  40.330  13.962
83841W        W45207   8.206  40.338  13.052
83842W        W45208  43.778  10.780  11.053
83843W        W45209  17.199   1.942  10.461
83844W        W45210  31.058   4.919   2.902
83845W        W45211  28.996  36.867   3.227
83846W        W45212  10.220  18.751   2.837
83847W        W45213  11.637  31.566   3.222
83848W        W45214  27.035  15.678   2.829
83849W        W45215  43.497  23.222  12.958
83850W        W45216  21.242  28.622   2.877
83851W        W45217  18.113  17.774   4.266
83852W        W45218  44.355  25.540  14.963
83853W        W45219  13.282  21.259  13.020
83854W        W45220   3.296  40.825   1.381
83855W        W45221  33.995  28.527  13.889
83856W        W45222   9.660  23.492  13.416
83857W        W45223  26.678   9.651   2.211
83858W        W45224   8.716  34.077   4.240
83859W        W45225  17.721  26.667   2.865
83860W        W45226  36.997  27.968  12.068
83861W        W45227  43.363  13.198   1.317
83862W        W45228  13.655  34.455  13.899
83863W        W45229  34.472  28.024   3.830
83864W        W45230  30.939  44.776  12.852
83865W        W45231  40.824  26.191   1.904
83866W        W45232  31.447  27.594  13.307
83867W        W45233  29.935  14.649  11.416
83868W        W45234   4.444  42.823   2.673
83869W        W45235  36.469  32.534  12.372
83870W        W45236  36.381  24.984  10.481
83871W        W45237  11.736  35.977   4.284
83872W        W45238   4.354  23.209  12.454
83873W        W45239  25.187  18.690  12.461
83874W        W45240  41.344  36.028  13.993
83875W        W45241  37.885  26.970  11.458
83876W        W45242  44.764  15.628  11.950
83877W        W45243  13.316  26.585   1.408
83878W        W45244  17.118  41.300   3.273
83879W        W45245  37.919  37.426  11.487
83880W        W45246   8.802  30.448  13.806
83881W        W45247  26.629  22.698   3.842
83882W        W45248   3.293   5.820  13.024
83883W        W45249  17.191  38.542  12.459
83884W        W45250  24.572  40.997  12.365
83885W        W45251  31.074   3.319  11.505
83886W        W45252  27.178  27.496   3.265
83887W        W45253  35.550  10.326  11.858
83888W        W45254  44.315  41.326   1.880
83889W        W45255  18.600   6.730  14.778
83890W        W45256   6.300  14.782  11.126
83891W        W45257  33.547  25.569  13.963
83892W        W45258  42.464  24.220   0.933
83893W        W45259  13.730  43.850  10.542
83894W        W45260  18.170   5.438  11.994
83895W        W45261  35.432  20.082   4.620
83896W        W45262  11.775  21.725  13.855
83897W        W45263  11.852  41.381  14.452
83898W        W45264  25.994  36.423   1.234
83899W        W45265  21.224  33.057   2.316
83900W        W45266  42.014   2.277  13.810
83901W        W45267  14.662  14.202   1.783
83902W        W45268  11.711   2.348   1.920
83903W        W45269  38.401  34.496   3.378
83904W        W45270  34.434  15.165  10.590
83905W        W45271  29.922  27.187   1.778
83906W        W45272  43.006  22.244  14.281
83907W        W45273  16.713  32.954  13.018
83908W        W45274  35.957   4.380   2.387
83909W        W45275  42.467   0.462  12.977
83910W        W45276  33.473   5.331   3.218
83911W        W45277  43.778  40.317   1.895
83912W        W45278  23.517  33.118   4.181
83913W        W45279  34.090   0.833  10.591
83914W        W45280   4.718  41.395  13.873
83915W        W45281  38.418  39.446   1.806
83916W        W45282  33.596  24.194  13.852
83917W        W45283   5.818  44.500  13.439
83918W        W45284   9.172   6.385  13.497
83919W        W45285  29.967  13.736   1.759
83920W        W45286  37.927   7.685  13.370
83921W        W45287  14.209  13.321   2.766
83922W        W45288  35.391   3.784   0.409
83923W        W45289   2.745  24.615  11.937
83924W        W45290  20.587   3.800   9.630
83925W        W45291   8.815  35.507   1.848
83926W        W45292  20.685  39.934  12.404
83927W        W45293  33.575  37.868   1.219
83928W        W45294  29.467  12.125   1.321
83929W        W45295   1.444  15.262  12.925
83930W        W45296  35.882  26.601   2.299
83931W        W45297  21.173  35.013   3.358
83932W        W45298  21.740  17.228   0.366
83933W        W45299  41.515  38.841   3.639
83934W        W45300  33.481  39.007  12.957
83935W        W45301  19.562  35.923   4.597
83936W        W45302  11.626  30.048   0.885
83937W        W45303  39.365  32.124   0.357
83938W        W45304  31.532   8.886  12.025
83939W        W45305  42.525  29.096  11.007
83940W        W45306   4.350  13.670  11.916
83941W        W45307  40.346  42.413  12.518
83942W        W45308   5.850  24.051  11.394
83943W        W45309  26.532  38.567   0.861
83944W        W45310  10.290   5.240  10.494
83945W        W45311  35.990  10.280  12.022
83946W        W45312  21.086  31.626  11.047
83947W        W45313  11.326  32.095  13.397
83948W        W45314   1.825  20.563   1.731
83949W        W45315  44.333  44.859  13.895
83950W        W45316  15.240  19.763  12.073
83951W        W45317  20.163  44.011  13.945
83952W        W45318   4.782   1.927   3.631
83953W        W45319  36.510  22.737  10.440
83954W        W45320   3.749   3.949   0.367
83955W        W45321  38.935  39.916  10.992
83956W        W45322  39.865  17.760   0.909
83957W        W45323   6.803  30.447  11.575
83958W        W45324   0.404  33.909  13.399
83959W        W45325  32.559  29.947  12.425
83960W        W45326  34.944  16.138  11.409
83961W        W45327  24.156  19.270  11.986
83962W        W45328  21.678  38.032  11.522
83963W        W45329  19.698  11.665  12.393
83964W        W45330  13.684  27.450  14.466
83965W        W45331   9.716   1.902   4.616
83966W        W45332  43.481   0.936   4.807
83967W        W45333  26.091  43.335  14.892
83968W        W45334  34.865   5.892   1.838
83969W        W45335  25.970  18.667  13.824
83970W        W45336  14.100   0.875   3.814
83971W        W45337  12.142  10.775  10.469
83972W        W45338   8.855  25.971   4.117
83973W        W45339  21.710  22.172   0.769
83974W        W45340  26.049  43.363  12.477
83975W        W45341  11.252  16.292  14.809
83976W        W45342  20.142  17.204   3.826
83977W        W45343  33.961  28.442   0.465
83978W        W45344  26.027   3.726  10.994
83979W        W45345   1.954  20.174   0.949
83980W        W45346  16.107  30.107   0.448
83981W        W45347   5.384  37.383  11.928
83982W        W45348  15.283   6.341   3.761
83983W        W45349   2.841  14.696   9.998
83984W        W45350   9.360  39.515  11.513
83985W        W45351   3.894  39.404  14.777
83986W        W45352  39.919  34.883   1.435
83987W        W45353  23.727  34.583  14.393
83988W        W45354  16.257   0.325   0.823
83989W        W45355  39.469  21.089  10.965
83990W        W45356  19.166  13.737   3.769
83991W        W45357  40.961  35.453  11.541
83992W        W45358  42.509  10.143   1.362
83993W        W45359  16.602  33.010  11.565
83994W        W45360  28.124   8.686   1.739
83995W        W45361   1.445  10.278   1.272
83996W        W45362   4.350  37.897   4.279
83997W        W45363  16.196  41.862  14.444
83998W        W45364  18.069  10.198   3.156
83999W        W45365  17.123  20.601  10.633
84000W        W45366  42.293   5.777  11.111
84001W        W45367  24.231  31.412   3.660
84002W        W45368  15.290   7.317   3.736
84003W        W45369  12.226  42.971   3.637
84004W        W45370  15.328  31.100   1.856
84005W        W45371   9.808  13.125  11.524
84006W        W45372  40.047   0.953   2.780
84007W        W45373  32.530  21.249  10.154
84008W        W45374   2.336  23.219   2.782
84009W        W45375   7.179  12.808  12.962
84010W        W45376  32.474  37.084  11.591
84011W        W45377   2.733  35.924  10.443
84012W        W45378   6.317  10.857  14.503
84013W        W45379  33.023  41.483  14.917
84014W        W45380   3.854  35.013  10.488
84015W        W45381  20.759   7.367   3.331
84016W        W45382   1.361  29.031   1.210
84017W        W45383  16.631  41.921  11.071
84018W        W45384  41.024  24.132   3.693
84019W        W45385   8.698  12.174   2.840
84020W        W45386  41.528   1.891   3.204
84021W        W45387  40.465  20.127   3.193
84022W        W45388  13.145  43.494  13.815
84023W        W45389  10.677  13.186   2.225
84024W        W45390  13.343  28.987  11.436
84025W        W45391   6.356  44.777   3.845
84026W        W45392  26.551  35.580  13.878
84027W        W45393  40.843   9.645   2.351
84028W        W45394  23.579  30.127   0.294
84029W        W45395  29.453  29.978   3.381
84030W        W45396  19.619  30.121  14.993
84031W        W45397  10.237  25.176  14.798
84032W        W45398  39.000  38.504  14.849
84033W        W45399  11.342   5.423  13.382
84034W        W45400  22.561  34.555   2.242
84035W        W45401  22.208  40.969   4.237
84036W        W45402   0.254  15.279   4.630
84037W        W45403  39.487  21.722   0.480
84038W        W45404  43.877  22.185   0.381
84039W        W45405  11.300  18.221  14.464
84040W        W45406  13.222  25.536   4.798
84041W        W45407  24.613  29.157   3.244
84042W        W45408   6.852   8.680  14.495
84043W        W45409  34.591  14.765  11.570
84044W        W45410  35.935  25.146  13.027
84045W        W45411   5.238  32.412   2.201
84046W        W45412   6.904  21.558  13.019
84047W        W45413   2.228   4.926   3.824
84048W        W45414  32.059  41.013  11.556
84049W        W45415  34.484  43.441   4.189
84050W        W45416   2.469  33.500   3.387
84051W        W45417  42.514  17.686  12.865
84052W        W45418  22.604  16.304   1.875
84053W        W45419  40.997   8.833   0.744
84054W        W45420  31.429  23.149   4.765
84055W        W45421  37.087   9.214  11.373
84056W        W45422   7.333  30.028  12.877
84057W        W45423  44.917   0.900  13.042
84058W        W45424  22.241  11.698  14.855
84059W        W45425  14.783  21.258   2.875
84060W        W45426  40.983  34.495  12.906
84061W        W45427  36.367   5.843  12.385
84062W        W45428  38.426  16.754   4.620
84063W        W45429  11.250  28.075   2.258
84064W        W45430  15.582  23.712   3.762
84065W        W45431  42.498  30.979  13.052
84066W        W45432   4.336  10.764  13.806
84067W        W45433   3.727  23.722  14.335
84068W        W45434  43.487  36.537  14.454
84069W        W45435  28.074  41.490  14.889
84070W        W45436  19.754  43.316   3.214
84071W        W45437  26.562   4.711   9.979
84072W        W45438   1.337  42.306  14.880
84073W        W45439  38.406  21.758   4.673
84074W        W45440  10.874   3.388   1.753
84075W        W45441  31.924  35.460   0.875
84076W        W45442   5.895  18.120  14.307
84077W        W45443   7.173  22.039   0.462
84078W        W45444  25.067  34.401   3.354
84079W        W45445  38.379  24.679   3.386
84080W        W45446  34.070  37.337   4.674
84081W        W45447  11.840  25.105  11.061
84082W        W45448  40.045  13.144   3.853
84083W        W45449  20.684  35.083  13.394
84084W        W45450  26.471  36.875  14.763
84085W        W45451  41.930   5.285   0.394
84086W        W45452  34.088   7.702   4.628
84087W        W45453  19.626   5.805  12.432
84088W        W45454  36.488  15.323   4.267
84089W        W45455   6.284  44.886  13.881
84090W        W45456  32.123  27.656  12.055
84091W        W45457  36.918   1.810  10.485
84092W        W45458  24.184  10.155   2.715
84093W        W45459  12.799  42.813   4.838
84094W        W45460   8.301  27.485  10.614
84095W        W45461  26.127   9.275  13.388
84096W        W45462  25.192   3.307   5.723
84097W        W45463   6.197  40.329   2.845
84098W        W45464  26.164   7.184   1.871
84099W        W45465  41.483  34.447   0.279
84100W        W45466  34.612  19.630  11.578
84101W        W45467  28.645   9.212   1.703
84102W        W45468  41.041  11.757   1.214
84103W        W45469  14.136  10.370  12.400
84104W        W45470  26.109  10.760  10.410
84105W        W45471  26.157  43.839   3.672
84106W        W45472  36.525  44.307   3.300
84107W        W45473  30.116  29.075  11.439
84108W        W45474  29.140  11.821  11.920
84109W        W45475  42.367  32.028  13.471
84110W        W45476  10.721  29.509  13.940
84111W        W45477   7.276   8.338  12.825
84112W        W45478  11.245  17.789   1.930
84113W        W45479  24.069  28.954   3.309
84114W        W45480   7.355  10.867  10.643
84115W        W45481  21.138  41.025  12.482
84116W        W45482  26.147  19.181  11.104
84117W        W45483  38.052   2.737   3.355
84118W        W45484   3.309  37.386   4.188
84119W        W45485  10.151  40.303   2.796
84120W        W45486  20.242  10.152   2.235
84121W        W45487  27.964   1.817   4.170
84122W        W45488  28.608  41.871   1.436
84123W        W45489  31.957  40.042   0.921
84124W        W45490  31.031  12.285  11.542
84125W        W45491  27.660  30.110  12.048
84126W        W45492  12.145  29.628   1.433
84127W        W45493  29.140  35.013  14.908
84128W        W45494  13.631  40.307   4.232
84129W        W45495  13.599  24.498  11.412
84130W        W45496  40.366  31.482   0.382
84131W        W45497  10.183  29.921   3.370
84132W        W45498  28.494  29.443  12.445
84133W        W45499  27.549  25.060   1.275
84134W        W45500  27.034  44.336  12.439
84135W        W45501   5.323  35.512  11.418
84136W        W45502  16.707  11.739   3.772
84137W        W45503  15.612  26.188   3.316
84138W        W45504  37.034  38.045  14.429
84139W        W45505  36.849  44.813   2.771
84140W        W45506  13.185  24.683   0.448
84141W        W45507  38.404  24.065  10.924
84142W        W45508  44.798   0.754   4.770
84143W        W45509  23.675  39.532   1.863
84144W        W45510  13.106  18.670  12.479
84145W        W45511  31.639  13.731   4.177
84146W        W45512  29.151  29.100   1.756
84147W        W45513  41.941  10.854   2.688
84148W        W45514   6.698  31.940  10.515
84149W        W45515  37.459   0.958   0.407
84150W        W45516  26.191  27.566   2.780
84151W        W45517  22.059  41.292   4.809
84152W        W45518  39.033  13.729   3.654
84153W        W45519  28.085  26.695   4.295
84154W        W45520  43.820  12.807  14.875
84155W        W45521  12.638   8.360   3.715
84156W        W45522  13.762  15.592   4.298
84157W        W45523  23.995  17.107  13.518
84158W        W45524   6.735  40.962   2.785
84159W        W45525  25.073  13.205   0.410
84160W        W45526  41.514  25.533   0.317
84161W        W45527  37.973  43.297   3.368
84162W        W45528  24.670  44.784  12.992
84163W        W45529  27.965  43.346   3.292
84164W        W45530  29.562  32.418   4.811
84165W        W45531   2.884  19.148   4.804
84166W        W45532   0.401   1.783  12.351
84167W        W45533   6.768  14.599   1.878
84168W        W45534   4.727   1.419  10.446
84169W        W45535  44.355  10.709   4.676
84170W        W45536  18.601  26.029  14.886
84171W        W45537  15.681  31.066  10.912
84172W        W45538  41.891  17.264  10.563
84173W        W45539   4.875  38.537   2.389
84174W        W45540   1.304  31.422  11.946
84175W        W45541  12.249  26.041  12.879
84176W        W45542  17.284  41.478  14.509
84177W        W45543   1.301  18.562  11.474
84178W        W45544  19.094  38.429  12.071
84179W        W45545  24.165   6.404  12.488
84180W        W45546  41.302  16.197  10.635
84181W        W45547  29.120  28.451   1.307
84182W        W45548  21.687  44.285  11.985
84183W        W45549  15.614  14.620   4.796
84184W        W45550  34.444  13.695   3.176
84185W        W45551   6.876  36.474   0.819
84186W        W45552   4.233  20.252   0.794
84187W        W45553   3.256  20.109   4.800
84188W        W45554   9.867  18.787  14.846
84189W        W45555  32.607   6.425   2.352
84190W        W45556  29.577  41.998   1.718
84191W        W45557  33.384  34.459   4.249
84192W        W45558  16.307  20.146  13.331
84193W        W45559  33.009  43.953  11.409
84194W        W45560  22.632  15.784   1.827
84195W        W45561  39.492   4.804   1.730
84196W        W45562  43.993  43.329  11.385
84197W        W45563  30.070  28.138  14.416
84198W        W45564  10.726  32.966   4.139
84199W        W45565  16.118  33.963   1.375
84200W        W45566  10.847  10.157  13.321
84201W        W45567  34.036  18.212  10.108
84202W        W45568   0.980  36.943   0.295
84203W        W45569  31.618  20.077  12.396
84204W        W45570  25.685  44.881  12.022
84205W        W45571  17.604  34.489   3.273
84206W        W45572  17.164  18.136  12.524
84207W        W45573  39.913  24.204  12.986
84208W        W45574   1.923   5.264  12.351
84209W        W45575   0.943  25.205  10.924
84210W        W45576  19.561  18.761  10.452
84211W        W45577  18.788  25.034   4.793
84212W        W45578  38.327  22.725   4.757
84213W        W45579  42.872  12.823   4.718
84214W        W45580  33.507  15.592  14.931
84215W        W45581  13.341   7.396  13.059
84216W        W45582  26.532  15.733  12.444
84217W        W45583  34.577  16.235   0.813
84218W        W45584  26.645  13.144   2.414
84219W        W45585  35.407   0.860  12.452
84220W        W45586  35.863  13.709   4.819
84221W        W45587  35.993   5.740   3.292
84222W        W45588  28.521  29.549   2.308
84223W        W45589  20.609  36.014   4.256
84224W        W45590   6.381  14.778   1.833
84225W        W45591  23.140  28.158   0.944
84226W        W45592  13.335  38.922  14.385
84227W        W45593  28.658  17.134  12.917
84228W        W45594   7.335   7.902  12.554
84229W        W45595  21.043   5.876  10.588
84230W        W45596  38.491   9.781   2.305
84231W        W45597  31.056  44.333  12.091
84232W        W45598   3.305  37.411   0.422
84233W        W45599  29.924  27.971  12.044
84234W        W45600  28.120   8.198  14.360
84235W        W45601   5.409  42.988   0.825
84236W        W45602  38.822  19.756  12.095
84237W        W45603  35.536   6.266  14.948
84238W        W45604  40.991  24.977  13.342
84239W        W45605  38.823  27.454  10.123
84240W        W45606   9.339   8.695   4.714
84241W        W45607  23.122  42.788   2.715
84242W        W45608  13.299  34.878   0.826
84243W        W45609  37.500   4.754   0.950
84244W        W45610  20.204  32.571  10.556
84245W        W45611  30.056   6.837  14.473
84246W        W45612  12.815  17.782  11.412
84247W        W45613  30.055  10.283  13.926
84248W        W45614  21.070  44.924   2.831
84249W        W45615  25.197  35.542  11.115
84250W        W45616  15.774  15.641   2.830
84251W        W45617  22.076  20.616   2.894
84252W        W45618  13.679   5.868   4.242
84253W        W45619  36.980  12.164  10.492
84254W        W45620  18.138   0.962  10.987
84255W        W45621  35.953   4.760   5.312
84256W        W45622  11.785  43.844   3.289
84257W        W45623   0.960   3.355   2.722
84258W        W45624  31.957  28.984   4.651
84259W        W45625   0.779  26.967   4.176
84260W        W45626  18.751   2.940  12.399
84261W        W45627   9.837   0.373   0.914
84262W        W45628  37.579  14.183  11.444
84263W        W45629  30.911  36.518  13.829
84264W        W45630  30.966  28.962  11.896
84265W        W45631  39.897  22.620   4.172
84266W        W45632   8.899  24.019   1.706
84267W        W45633  38.881  27.989  11.477
84268W        W45634  20.034  37.875  10.545
84269W        W45635  15.806  15.327   2.863
84270W        W45636   6.869   7.877  12.927
84271W        W45637  34.996  40.008  14.004
84272W        W45638   1.904  27.465  12.014
84273W        W45639  13.730  14.670   2.272
84274W        W45640  30.007  10.191   2.754
84275W        W45641   2.381  20.221  12.995
84276W        W45642  21.675   3.314   2.687
84277W        W45643  31.897  22.531   4.306
84278W        W45644  38.046  34.043  10.630
84279W        W45645  19.679  32.587  12.983
84280W        W45646   5.838  36.906   1.393
84281W        W45647   5.745  14.321  10.140
84282W        W45648  38.902  27.521   0.898
84283W        W45649  27.991  41.502  12.922
84284W        W45650  22.729  32.475  14.870
84285W        W45651  23.503  25.033  12.397
84286W        W45652   2.964  29.982  11.379
84287W        W45653  33.453  44.852  12.060
84288W        W45654   3.264  36.968   4.244
84289W        W45655   5.744  25.558   2.412
84290W        W45656  30.060  39.414  12.364
84291W        W45657  38.822   7.368   3.325
84292W        W45658  12.611  27.950   4.143
84293W        W45659  30.566  22.094  14.452
84294W        W45660  29.456  13.712   4.605
84295W        W45661  29.612  29.994  12.827
84296W        W45662  39.458  25.489   3.815
84297W        W45663  26.197  40.528   1.700
84298W        W45664  33.606   7.829  13.792
84299W        W45665  35.903   3.333   4.323
84300W        W45666  24.080  20.264  11.574
84301W        W45667  38.923  31.470   0.790
84302W        W45668  42.775  33.476  10.979
84303W        W45669  17.614  11.262   4.785
84304W        W45670  31.143  29.561   2.354
84305W        W45671  32.143  34.007   2.774
84306W        W45672  19.721  10.720  10.618
84307W        W45673   8.368   8.735  11.924
84308W        W45674  13.803  18.604  11.048
84309W        W45675  15.231  42.999  14.988
84310W        W45676  20.063  11.696  10.422
84311W        W45677  41.832  11.359   3.632
84312W        W45678  24.144  35.426   3.337
84313W        W45679   0.868  39.981   4.609
84314W        W45680  31.930  29.072  12.349
84315W        W45681  27.467  19.767   9.983
84316W        W45682   5.296  41.837  12.036
84317W        W45683  32.517  16.298   3.216
84318W        W45684  27.188  17.089  13.838
84319W        W45685  33.039  13.648  10.951
84320W        W45686   7.694  29.439  11.434
84321W        W45687  25.170  32.612  14.476
84322W        W45688  21.091   2.958  10.511
84323W        W45689  14.679   6.376  13.872
84324W        W45690   9.246  40.829   3.759
84325W        W45691   7.338  32.922  14.867
84326W        W45692  22.541  41.838  11.578
84327W        W45693  10.757   1.301   3.387
84328W        W45694  21.747  10.784  11.996
84329W        W45695   2.267  36.016   3.785
84330W        W45696  16.082  37.039   4.248
84331W        W45697   5.720  38.557   0.790
84332W        W45698  14.709  38.864  14.879
84333W        W45699   4.247  11.839   1.738
84334W        W45700   8.824  35.463  14.810
84335W        W45701   7.376  23.141  13.841
84336W        W45702  25.191  21.023   0.827
84337W        W45703  44.779   8.381   0.828
84338W        W45704   0.387   7.361  13.450
84339W        W45705   3.719  15.589  14.492
84340W        W45706   7.369  32.447   3.370
84341W        W45707  26.523  32.508   3.250
84342W        W45708  38.026  24.172  13.428
84343W        W45709   6.850   8.748   3.705
84344W        W45710  30.627  25.564   1.431
84345W        W45711  32.059  21.168   1.919
84346W        W45712  43.890  10.749  12.427
84347W        W45713  10.194  32.474  14.006
84348W        W45714  36.899  12.302  11.916
84349W        W45715   5.355  25.529  10.548
84350W        W45716  34.006   6.827   4.623
84351W        W45717   4.806  16.294  11.935
84352W        W45718   8.896  40.395   1.850
84353W        W45719  43.283   0.823  10.418
84354W        W45720  36.928  17.220  14.930
84355W        W45721  29.614  10.382  12.931
84356W        W45722  33.977  26.562  14.934
84357W        W45723  16.304  40.425  12.558
84358W        W45724  39.949  43.773  12.869
84359W        W45725  37.994  37.068  12.095
84360W        W45726  31.065  12.216   3.351
84361W        W45727  10.384  29.091  13.433
84362W        W45728   8.297   8.246  14.831
84363W        W45729  39.027  37.520  10.035
84364W        W45730  13.763  39.542   0.285
84365W        W45731  18.766   6.776  13.829
84366W        W45732  26.542   8.846   4.818
84367W        W45733  42.918  16.804  12.981
84368W        W45734  22.591  19.680   9.974
84369W        W45735  18.089  34.034  14.782
84370W        W45736  21.555  18.145   1.334
84371W        W45737  39.343  28.114  12.860
84372W        W45738   0.290   7.744  10.516
84373W        W45739  19.559   4.895  11.917
84374W        W45740  23.646  17.602   0.769
84375W        W45741   4.333   3.788   1.714
84376W        W45742  33.495  11.705   3.295
84377W        W45743  14.202  33.442   2.331
84378W        W45744  31.109  44.494  13.996
84379W        W45745  29.578  38.409  14.365
84380W        W45746  42.430  25.000  13.404
84381W        W45747  22.113  35.408   4.338
84382W        W45748  14.141  38.451   1.735
84383W        W45749  39.866  44.454   3.369
84384W        W45750   5.848  18.596   3.710
84385W        W45751   2.732  19.716  12.460
84386W        W45752  15.087  24.090   3.315
84387W        W45753  31.972  28.648   0.466
84388W        W45754   2.375  13.684  13.403
84389W        W45755   9.675  34.088   2.359
84390W        W45756  24.646  21.614   0.359
84391W        W45757  22.614   3.406  14.765
84392W        W45758  29.139   1.736  12.488
84393W        W45759  22.237  37.951  13.513
84394W        W45760  43.847  22.707   3.146
84395W        W45761  17.170  35.029   3.319
84396W        W45762  12.146  17.704   3.237
84397W        W45763   8.334  25.060  14.325
84398W        W45764   7.725  35.436  10.932
84399W        W45765  21.595  35.905   1.318
84400W        W45766   1.945  36.989   3.760
84401W        W45767   2.883  28.058   1.428
84402W        W45768  22.166  18.279   4.288
84403W        W45769  16.577  38.563  13.445
84404W        W45770  31.039  18.185   4.751
84405W        W45771  31.126  39.973  13.388
84406W        W45772  24.122  39.366   0.441
84407W        W45773  33.081  18.581  14.377
84408W        W45774  38.442   4.892   3.864
84409W        W45775  43.897  39.555   2.189
84410W        W45776  29.531  11.685   5.307
84411W        W45777  44.407  22.510  14.342
84412W        W45778   2.878   0.371   3.634
84413W        W45779  12.801   9.861  14.494
84414W        W45780  41.040   2.813   2.374
84415W        W45781   8.741  29.423   1.829
84416W        W45782  28.053  22.735   1.393
84417W        W45783  33.043  26.618   2.847
84418W        W45784  34.955  24.568  12.412
84419W        W45785  18.678   5.262  14.317
84420W        W45786  30.008  27.017  14.965
84421W        W45787   3.936  17.670   2.188
84422W        W45788  10.760  28.573  14.829
84423W        W45789  32.591  17.139   4.133
84424W        W45790   4.272   8.350  13.413
84425W        W45791   0.430  27.110   1.308
84426W        W45792  34.577   3.816   4.273
84427W        W45793  36.014  18.687  11.571
84428W        W45794   3.920  10.814  14.439
84429W        W45795  34.089  42.009   3.356
84430W        W45796  37.883  40.378   1.229
84431W        W45797   1.920  18.696  12.919
84432W        W45798  21.642  33.064   0.339
84433W        W45799  15.259  37.437   2.233
84434W        W45800  18.148  19.236   3.777
84435W        W45801  11.651  39.987   2.309
84436W        W45802  34.065  41.977  14.510
84437W        W45803  18.631  18.549   1.824
84438W        W45804  40.805  25.541  14.896
84439W        W45805   9.779  35.416  10.899
84440W        W45806   3.860  32.901  13.480
84441W        W45807  17.272  32.568   4.705
84442W        W45808  12.360  15.774   9.943
84443W        W45809   6.870   0.750   3.249
84444W        W45810  16.580  36.576   2.740
84445W        W45811  11.201  18.733   3.340
84446W        W45812  16.810  33.547  14.348
84447W        W45813  24.560  10.852   2.258
84448W        W45814  31.902  13.603  11.970
84449W        W45815  39.407  14.720   2.359
84450W        W45816   0.408   9.847   1.296
84451W        W45817  16.135  26.979   2.787
84452W        W45818  39.062  42.299   4.613
84453W        W45819  32.137  37.011   4.239
84454W        W45820   5.777  16.687   4.724
84455W        W45821   0.983  10.845  12.037
84456W        W45822  39.512  38.935  10.430
84457W        W45823  35.995  11.706  13.850
84458W        W45824  15.627  32.099  12.905
84459W        W45825  13.838  24.630  13.490
84460W        W45826   7.786  28.942   1.757
84461W        W45827  23.998  40.443  12.916
84462W        W45828   8.179  24.992  13.912
84463W        W45829   7.826  35.380   1.389
84464W        W45830  40.881  44.428   4.285
84465W        W45831  10.870  10.259   0.348
84466W        W45832  30.162   3.793   3.655
84467W        W45833  24.097  37.066  13.381
84468W        W45834  44.791  30.909   4.283
84469W        W45835  43.319   4.236   3.794
84470W        W45836   3.437  40.938   1.741
84471W        W45837  44.916  15.608   3.826
84472W        W45838  34.536  29.964   2.200
84473W        W45839   4.755  43.990  10.404
84474W        W45840  15.314  12.814   4.774
84475W        W45841  14.625   9.690   3.251
84476W        W45842   4.275  28.576   0.358
84477W        W45843   1.370  35.406  11.604
84478W        W45844  12.815   1.426  13.921
84479W        W45845  42.493  20.615   2.677
84480W        W45846  25.059   5.916  14.357
84481W        W45847  10.691  38.828   3.362
84482W        W45848  10.334  27.076   0.908
84483W        W45849  26.486  11.150  13.383
84484W        W45850   2.367   7.405  11.953
84485W        W45851  27.483  12.312  10.550
84486W        W45852  39.353  38.997   2.181
84487W        W45853  19.641  35.959  14.468
84488W        W45854  34.891  11.702   4.256
84489W        W45855  35.451  28.476  13.016
84490W        W45856  30.068  17.112   3.865
84491W        W45857  42.800   8.295  11.424
84492W        W45858  34.519  21.085   1.382
84493W        W45859  12.845  39.989   4.311
84494W        W45860  30.585  29.623   5.322
84495W        W45861  38.384  12.166  13.850
84496W        W45862  44.495  38.360  14.370
84497W        W45863   6.734  24.033  12.453
84498W        W45864  44.455  11.843  11.929
84499W        W45865  15.660  26.491  14.324
84500W        W45866  29.046   4.905   0.833
84501W        W45867  11.645  26.500  12.905
84502W        W45868  20.094  14.727  13.056
84503W        W45869  35.960   1.483   2.293
84504W        W45870  13.336  22.609   4.219
84505W        W45871   1.469  37.003  14.976
84506W        W45872  33.585  29.488   2.754
84507W        W45873  40.860  27.600  10.587
84508W        W45874  38.996  25.984  11.020
84509W        W45875  27.562  33.100   4.310
84510W        W45876  20.527  16.704  10.505
84511W        W45877  32.541  15.607   0.921
84512W        W45878  13.221  13.174   4.625
84513W        W45879  21.147  17.590   1.305
84514W        W45880   8.219  10.712  14.940
84515W        W45881  11.333   8.824  11.592
84516W        W45882   6.308  37.387  13.969
84517W        W45883  39.881  23.551  12.943
84518W        W45884   6.765  26.037  10.903
84519W        W45885  10.183  30.004  14.994
84520W        W45886  15.321   5.283   0.782
84521W        W45887  18.248   5.369   1.334
84522W        W45888  25.629  39.831   1.694
84523W        W45889  21.608  20.178   2.287
84524W        W45890  24.125  34.965  12.919
84525W        W45891   2.753  31.411  11.031
84526W        W45892  15.586  18.727  12.836
84527W        W45893  18.217  34.374   2.877
84528W        W45894  23.145  38.911   1.327
84529W        W45895  36.960  12.632  14.418
84530W        W45896  13.830  16.797   0.357
84531W        W45897  39.451  18.118  13.966
84532W        W45898  26.545  15.665  10.905
84533W        W45899   3.229  18.755   4.798
84534W        W45900   4.865  25.045   2.823
84535W        W45901  15.221  39.944   4.303
84536W        W45902  33.061  40.523   2.407
84537W        W45903  32.083  32.591  13.919
84538W        W45904   8.690  44.430  10.605
84539W        W45905  40.024  29.629  12.876
84540W        W45906  30.432  37.551  10.622
84541W        W45907  10.747   0.333  13.387
84542W        W45908  15.232  15.632  13.918
84543W        W45909  16.089  38.912  11.428
84544W        W45910  37.406  10.687   1.819
84545W        W45911  27.596  38.997  13.361
84546W        W45912  42.964   2.935   2.247
84547W        W45913  32.000  24.130  10.487
84548W        W45914  19.551   8.682  12.387
84549W        W45915   0.258  14.299  10.530
84550W        W45916  10.831   5.704   4.198
84551W        W45917  11.717  30.428   3.855
84552W        W45918   3.725   6.809  11.587
84553W        W45919  25.023   4.707   3.709
84554W        W45920   8.403  29.620   4.814
84555W        W45921   0.928  19.642  11.495
84556W        W45922  27.648   7.709   2.234
84557W        W45923  16.615  13.160  13.027
84558W        W45924   2.424  11.191   1.398
84559W        W45925  41.508  26.040  11.578
84560W        W45926  17.124  37.895   1.247
84561W        W45927   7.302  31.511  12.964
84562W        W45928  21.718   4.911   1.345
84563W        W45929  43.807  28.071   4.802
84564W        W45930   3.322  24.716   2.740
84565W        W45931   5.265  13.213   0.386
84566W        W45932  34.057  13.715   4.653
84567W        W45933  13.181  43.325   1.248
84568W        W45934  42.882  13.335   3.806
84569W        W45935  26.541  35.552   2.244
84570W        W45936   3.302  17.679   3.832
84571W        W45937  36.357   0.876   2.264
84572W        W45938  26.201   8.803  14.882
84573W        W45939  11.665   0.802   1.884
84574W        W45940   1.292  24.175   2.715
84575W        W45941   1.288  27.100   5.275
84576W        W45942  25.018  33.930  11.379
84577W        W45943  14.268  27.567  13.461
84578W        W45944  14.217  40.906   2.802
84579W        W45945  14.304  14.738   3.728
84580W        W45946   3.240   1.356   0.911
84581W        W45947  37.073  29.010  10.984
84582W        W45948  25.023  15.206   1.913
84583W        W45949  39.416  41.311  14.356
84584W        W45950  19.154   8.270   2.258
84585W        W45951  41.358  12.836  14.434
84586W        W45952  33.929  33.444   2.759
84587W        W45953  14.633  30.457   3.266
84588W        W45954   7.733  34.567  13.488
84589W        W45955  16.307  33.959  11.432
84590W        W45956  22.165   5.915  14.393
84591W        W45957  29.051  11.225   4.683
84592W        W45958  41.953  32.068  10.907
84593W        W45959   3.304  38.886   2.257
84594W        W45960  34.939  12.704   1.253
84595W        W45961  34.073   5.342   4.748
84596W        W45962  25.702  27.004   0.481
84597W        W45963  24.506  28.177   3.794
84598W        W45964  29.433  43.911   4.716
84599W        W45965  42.496  20.542   1.286
84600W        W45966  35.928  28.674  13.412
84601W        W45967  26.204  16.743   0.327
84602W        W45968  26.640  32.073   4.838
84603W        W45969  10.812   1.941  14.505
84604W        W45970  32.501   0.960  11.888
84605W        W45971  41.521  10.784  10.917
84606W        W45972   7.275  11.330   4.323
84607W        W45973   7.413   9.233   2.862
84608W        W45974  13.314  41.021  11.446
84609W        W45975  41.984   2.254   4.813
84610W        W45976   2.292  27.019  13.987
84611W        W45977  23.158  22.017   2.272
84612W        W45978  14.336   7.325   0.865
84613W        W45979  30.980  20.030   4.777
84614W        W45980   5.884   9.220   4.773
84615W        W45981  44.338  14.697   0.257
84616W        W45982   6.896  43.443  12.881
84617W        W45983  38.061   7.776  13.873
84618W        W45984   3.713  13.734   5.309
84619W        W45985  36.509  11.797  14.024
84620W        W45986  36.559   8.793  14.912
84621W        W45987   1.384  37.081   3.710
84622W        W45988  27.941  19.644  14.019
84623W        W45989   1.922   1.455  13.807
84624W        W45990  43.922  31.526  12.494
84625W        W45991  17.112  18.248   4.792
84626W        W45992  19.136  21.086   4.242
84627W        W45993  29.514  39.022  10.635
84628W        W45994  19.283   0.885  13.965
84629W        W45995   2.801   2.796   3.672
84630W        W45996  30.617  33.876   1.757
84631W        W45997   8.787  13.316  11.597
84632W        W45998  17.122  18.789   1.340
84633W        W45999   1.756  17.648  12.029
84634W        W46000   8.713   2.779  13.401
84635W        W46001  16.722  44.465   2.212
84636W        W46002  37.531  30.151   3.630
84637W        W46003   8.299   1.358   3.164
84638W        W46004  23.994  34.554  11.914
84639W        W46005   3.303  43.883   3.837
84640W        W46006  33.453  35.579   9.975
84641W        W46007   0.933   0.387  11.400
84642W        W46008  24.068   3.783   4.210
84643W        W46009  24.517  13.626  14.898
84644W        W46010  34.458  36.054  13.838
84645W        W46011  11.860  25.714  13.509
84646W        W46012  22.734  31.441   1.318
84647W        W46013  28.941  43.329   0.369
84648W        W46014  36.995  18.226   0.852
84649W        W46015   5.895  11.717   4.208
84650W        W46016  30.994  21.754   4.192
84651W        W46017   4.721  33.053   0.810
84652W        W46018  43.276  28.029   1.867
84653W        W46019  32.549  24.082  13.947
84654W        W46020  35.414  39.499  14.887
84655W        W46021  16.681  36.544  12.929
84656W        W46022   6.198  13.846   5.108
84657W        W46023  13.718   4.850   3.308
84658W        W46024  17.595  26.635  12.497
84659W        W46025  25.520   9.699  13.406
84660W        W46026  29.120  26.487   3.169
84661W        W46027   3.276   8.810   3.208
84662W        W46028   3.331  14.233  12.993
84663W        W46029  30.601   4.204  14.469
84664W        W46030  35.891   8.182   1.410
84665W        W46031  39.344  12.614  12.468
84666W        W46032  23.123  21.601  11.483
84667W        W46033  35.936  30.570   0.411
84668W        W46034  10.263   4.849  10.531
84669W        W46035  11.834  28.474   2.877
84670W        W46036  32.590  28.443  11.480
84671W        W46037  23.551  31.558   1.822
84672W        W46038  40.891   5.885  14.488
84673W        W46039  22.635   7.333  11.113
84674W        W46040  13.258  20.162   0.955
84675W        W46041  10.698  32.051  14.365
84676W        W46042  12.202  34.078   1.735
84677W        W46043  22.677   4.782   0.904
84678W        W46044   5.786   5.326   5.566
84679W        W46045  33.446  26.667  12.984
84680W        W46046   8.285  20.531   1.414
84681W        W46047   0.360  25.501   3.166
84682W        W46048  18.128  24.583   0.831
84683W        W46049  24.214  21.217  12.994
84684W        W46050  21.209  40.348   4.165
84685W        W46051  10.364  11.756   1.714
84686W        W46052  25.636   3.452  11.556
84687W        W46053  35.041  26.475  14.501
84688W        W46054  11.367  30.141   3.218
84689W        W46055   7.175  27.531   3.184
84690W        W46056  36.015   4.745  14.855
84691W        W46057  35.911  43.403  14.775
84692W        W46058  32.941  11.293  10.573
84693W        W46059  24.066  29.517  10.635
84694W        W46060  12.137  32.486   4.232
84695W        W46061  15.781  11.232  11.882
84696W        W46062  39.041  26.651  11.573
84697W        W46063  36.347   9.294   1.351
84698W        W46064  21.126  41.459   4.234
84699W        W46065   7.307   5.216   1.892
84700W        W46066  33.093  43.345  13.820
84701W        W46067  12.781   4.889  12.459
84702W        W46068  18.068  13.280   1.749
84703W        W46069  28.628  13.248   2.406
84704W        W46070  39.868  41.862   2.248
84705W        W46071  39.317  30.078  13.875
84706W        W46072  22.039  11.670   3.378
84707W        W46073  33.887  35.479   1.867
84708W        W46074  23.207   7.816  12.469
84709W        W46075  17.653  37.558  10.629
84710W        W46076  13.759  37.505   4.198
84711W        W46077  23.636  34.409  12.888
84712W        W46078  26.612  36.901   1.827
84713W        W46079  41.909  30.423  12.968
84714W        W46080  20.634  42.424  10.964
84715W        W46081  19.238   2.400   2.371
84716W        W46082  11.305  21.691   0.763
84717W        W46083  25.098  21.109   4.198
84718W        W46084  31.907  28.521   0.762
84719W        W46085  26.112  20.150   1.244
84720W        W46086  11.295  28.148   4.250
84721W        W46087  27.469  14.314  13.389
84722W        W46088  25.009  21.613   0.394
84723W        W46089  13.283  10.325   2.237
84724W        W46090  22.536  12.324   4.658
84725W        W46091  13.714  11.225  11.924
84726W        W46092  36.083  44.475  12.095
84727W        W46093  22.017   1.962  14.793
84728W        W46094  26.612   2.769   1.353
84729W        W46095  17.234   8.673  14.294
84730W        W46096  18.260  35.853  10.104
84731W        W46097  35.462  24.129  14.780
84732W        W46098  33.050   3.797  12.875
84733W        W46099  24.980  20.250  10.938
84734W        W46100   0.477  18.738   0.301
84735W        W46101   1.450  25.562  10.530
84736W        W46102   9.726  18.230  11.437
84737W        W46103  26.669   5.861  14.338
84738W        W46104  29.078  29.479   3.281
84739W        W46105  39.395   7.779  11.476
84740W        W46106   7.265  38.928  10.951
84741W        W46107  19.217  17.738  11.967
84742W        W46108  31.626  16.797  10.899
84743W        W46109  30.577  17.182   2.230
84744W        W46110  15.759  17.558  13.356
84745W        W46111  35.874  33.977   3.304
84746W        W46112   2.468  27.674  11.934
84747W        W46113  25.079  29.489  14.509
84748W        W46114  38.354  23.570  11.875
84749W        W46115  33.049  34.463  10.573
84750W        W46116  24.045  38.050  10.950
84751W        W46117  26.595   9.223   5.132
84752W        W46118   6.915  13.313   3.319
84753W        W46119  27.623  28.527  10.014
84754W        W46120   7.694  39.540   4.643
84755W        W46121  19.073  13.164  12.510
84756W        W46122   9.730  13.844  13.396
84757W        W46123   0.404  34.396   0.460
84758W        W46124  18.190  21.640  11.863
84759W        W46125  27.455   0.968  14.871
84760W        W46126  42.375  29.936  10.938
84761W        W46127  30.642  18.745  10.595
84762W        W46128  18.655  37.571  11.997
84763W        W46129  13.244   1.767   5.185
84764W        W46130  30.979  43.014   2.237
84765W        W46131   1.887  38.863  12.991
84766W        W46132   5.272  44.793   0.308
84767W        W46133  21.703  30.914   0.243
84768W        W46134   6.745   4.798   5.671
84769W        W46135  27.522  40.474  11.860
84770W        W46136  31.004  22.095   4.633
84771W        W46137  16.308  36.451  12.508
84772W        W46138  44.844  19.219   4.157
84773W        W46139   0.381  37.498   2.398
84774W        W46140  39.517  37.841  11.077
84775W        W46141  24.195   8.347  11.115
84776W        W46142  30.988  31.578   3.179
84777W        W46143  11.825   5.211   3.347
84778W        W46144  36.495  30.113   2.720
84779W        W46145  43.771  39.331  13.992
84780W        W46146  25.705  17.615  14.356
84781W        W46147  17.141  11.677  10.474
84782W        W46148   4.295  18.270   0.259
84783W        W46149  31.096  17.138   2.823
84784W        W46150   9.806  38.866  11.039
84785W        W46151  33.022  18.252   2.412
84786W        W46152  40.023  33.401   3.252
84787W        W46153  25.655  41.295  11.420
84788W        W46154  10.680  44.406   0.309
84789W        W46155  33.023  11.760  10.464
84790W        W46156  40.312  44.794   3.245
84791W        W46157   0.321  13.307  10.456
84792W        W46158  18.094  21.248   2.356
84793W        W46159  33.908  35.517  13.308
84794W        W46160  13.689  14.267   1.901
84795W        W46161  17.763  21.582   1.253
84796W        W46162  31.454  35.487   2.824
84797W        W46163   1.260  37.982  14.915
84798W        W46164  30.425  27.691  11.406
84799W        W46165  33.605  33.953   9.933
84800W        W46166  15.803   7.182  14.366
84801W        W46167  41.804  18.243   4.834
84802W        W46168  36.959  29.039  11.448
84803W        W46169   5.837  44.459  11.376
84804W        W46170   9.207   5.407   2.380
84805W        W46171  11.264  40.347   3.795
84806W        W46172  13.300  32.562  14.457
84807W        W46173  16.682  15.237  13.429
84808W        W46174  34.432  20.161  13.457
84809W        W46175  21.116  32.959  12.059
84810W        W46176   7.322   1.363   0.946
84811W        W46177  17.262   5.202   1.289
84812W        W46178  19.591  31.505   1.323
84813W        W46179  41.465  21.604  13.309
84814W        W46180   2.390  35.074  12.387
84815W        W46181   2.858  13.254  11.040
84816W        W46182  19.170  11.207  11.078
84817W        W46183  13.683  12.215   0.403
84818W        W46184  12.853   8.402  13.911
84819W        W46185   9.764  27.123  13.817
84820W        W46186  16.101   7.689  13.800
84821W        W46187  23.632  12.789  12.351
84822W        W46188  24.713  16.114   3.650
84823W        W46189  19.541  40.449  14.997
84824W        W46190  28.673  13.764   2.864
84825W        W46191   4.219   8.737   3.731
84826W        W46192   8.220  13.618   3.265
84827W        W46193  23.148   6.353   1.790
84828W        W46194   1.737   7.786  10.890
84829W        W46195  32.523  30.584   0.740
84830W        W46196  17.114  30.045   4.287
84831W        W46197  26.614  27.152  12.356
84832W        W46198  24.133  37.485  14.486
84833W        W46199   3.866  11.140  13.909
84834W        W46200  36.090  25.641  13.534
84835W        W46201  17.662  39.808  12.049
84836W        W46202  13.666  24.225  14.955
84837W        W46203   7.795  23.984  11.513
84838W        W46204  26.101  20.545  13.366
84839W        W46205   7.670  19.160   4.731
84840W        W46206  17.188  40.465  14.404
84841W        W46207  43.929   6.325  13.978
84842W        W46208   5.801  43.929  10.435
84843W        W46209  26.158  28.468   3.163
84844W        W46210  42.487  32.607   4.220
84845W        W46211  36.922  17.566  11.489
84846W        W46212  14.120   2.456  12.481
84847W        W46213   0.913  26.579   3.785
84848W        W46214   1.252  42.954  13.387
84849W        W46215   4.753  14.654   2.784
84850W        W46216  43.795  18.190   4.276
84851W        W46217   2.464   1.284   2.287
84852W        W46218  10.743  23.139  12.865
84853W        W46219  24.072   0.413   4.660
84854W        W46220   1.311   1.480  14.026
84855W        W46221   3.312  43.419  14.029
84856W        W46222  36.894   7.207  13.343
84857W        W46223   0.275  35.593   1.749
84858W        W46224  31.577  12.836   1.243
84859W        W46225   5.699  36.992  13.446
84860W        W46226   8.229  15.302   5.313
84861W        W46227  16.739   3.770   4.257
84862W        W46228  25.183  23.151  13.866
84863W        W46229  41.370  28.049  14.942
84864W        W46230   0.928  42.298   3.171
84865W        W46231  42.318  37.387  11.065
84866W        W46232   4.337  33.415  13.849
84867W        W46233  14.170  24.540   3.829
84868W        W46234  15.791  27.639  10.106
84869W        W46235   7.759  12.334   0.730
84870W        W46236  29.443  22.997   1.870
84871W        W46237  25.202  43.299   0.248
84872W        W46238  18.222   4.870   0.337
84873W        W46239  15.704  20.590  10.640
84874W        W46240   3.236  22.503   4.602
84875W        W46241  25.653  30.001   1.280
84876W        W46242  15.667  31.067   1.432
84877W        W46243  16.696  27.976  11.598
84878W        W46244  22.598  27.019  13.431
84879W        W46245   6.399   2.787  10.459
84880W        W46246  33.004  43.777   3.357
84881W        W46247  44.265  38.558   1.306
84882W        W46248  32.636   0.836  14.882
84883W        W46249   5.205  42.479   2.337
84884W        W46250  29.109  38.032   2.339
84885W        W46251  10.762  30.631  13.835
84886W        W46252  21.117  40.846   1.825
84887W        W46253  24.172  42.876  14.903
84888W        W46254  39.021  37.049  14.354
84889W        W46255   9.691  12.194  13.860
84890W        W46256  38.959  15.160  11.884
84891W        W46257  40.490   3.843   2.307
84892W        W46258  40.389   1.951   4.747
84893W        W46259  12.127  11.294   0.436
84894W        W46260  35.988  17.146   0.314
84895W        W46261  26.002   3.949   5.709
84896W        W46262  32.953  17.147   1.755
84897W        W46263   9.794  42.417   4.656
84898W        W46264   3.293  17.765  10.624
84899W        W46265  13.343  28.448  12.839
84900W        W46266   1.841   3.332  12.907
84901W        W46267  30.522  16.209  13.407
84902W        W46268  35.461   8.679   3.814
84903W        W46269   8.695  22.212   3.149
84904W        W46270  15.291   9.689   4.674
84905W        W46271  29.584  20.673   3.173
84906W        W46272  17.669  33.028  12.356
84907W        W46273   7.761  32.476   2.194
84908W        W46274  18.120   4.788  14.882
84909W        W46275   9.177  10.836   0.278
84910W        W46276  37.462  27.510  12.899
84911W        W46277   1.242   6.302   3.779
84912W        W46278   2.834  22.730   1.327
84913W        W46279  39.976  31.955   4.781
84914W        W46280   8.734  41.802   3.836
84915W        W46281   4.424   4.340   0.254
84916W        W46282  31.910  26.475  12.087
84917W        W46283  30.596   5.912  11.017
84918W        W46284   7.198   0.371  10.546
84919W        W46285  37.967  20.639   1.847
84920W        W46286  40.891  12.276   1.881
84921W        W46287  44.427  28.021  10.999
84922W        W46288  30.140  38.350   4.780
84923W        W46289  35.980  29.920   0.802
84924W        W46290  31.495  36.480   4.777
84925W        W46291  32.984  24.491  14.769
84926W        W46292  19.253  11.687  11.003
84927W        W46293   3.907  20.095  12.550
84928W        W46294  27.992  17.597   4.669
84929W        W46295  20.243  42.435  11.421
84930W        W46296  40.869  28.097  13.022
84931W        W46297  28.555  29.122  12.059
84932W        W46298  39.378  24.175  13.536
84933W        W46299  11.789  10.185   0.805
84934W        W46300  31.464  11.722  14.438
84935W        W46301  18.618  26.560   2.371
84936W        W46302  18.105  15.221   3.222
84937W        W46303  21.614  11.721   0.912
84938W        W46304  40.363  23.711  14.817
84939W        W46305   3.758  31.575   3.785
84940W        W46306   0.931  17.094   0.286
84941W        W46307  20.629  20.763   0.754
84942W        W46308  21.585  24.997   5.316
84943W        W46309  25.981  13.284  14.782
84944W        W46310  35.577  21.629   4.721
84945W        W46311  14.792   6.417   3.729
84946W        W46312  42.392  44.434   0.864
84947W        W46313  24.130  39.994  11.469
84948W        W46314  23.158   3.854   3.834
84949W        W46315  20.712   1.809   2.890
84950W        W46316  32.566   6.202  11.450
84951W        W46317   6.299   7.895  10.445
84952W        W46318  39.471  27.472  10.529
84953W        W46319  25.185   8.203   1.393
84954W        W46320   5.876  24.998   0.836
84955W        W46321   5.391  43.941   3.798
84956W        W46322  40.455  37.941   0.910
84957W        W46323  30.082  26.536  11.432
84958W        W46324  35.445   0.968  10.643
84959W        W46325   4.360  19.083  11.482
84960W        W46326  43.779  35.958  12.404
84961W        W46327  35.011  11.631   0.909
84962W        W46328   5.764  36.082  11.126
84963W        W46329  23.139  32.935   3.174
84964W        W46330   6.684  24.522  14.348
84965W        W46331   5.750  14.271  14.368
84966W        W46332   5.380  39.440   3.189
84967W        W46333  30.920   7.901   2.239
84968W        W46334  43.887  39.984   3.685
84969W        W46335  15.153   5.268  14.431
84970W        W46336  22.532   0.748  10.473
84971W        W46337  33.428  42.294  10.629
84972W        W46338  17.650  10.326   2.895
84973W        W46339  31.076   8.724   1.866
84974W        W46340   6.849   7.345  13.546
84975W        W46341  16.585  34.423   2.283
84976W        W46342  14.772  24.519  12.522
84977W        W46343   5.240  32.078   4.605
84978W        W46344   8.745  18.254   3.293
84979W        W46345  44.472  16.307   2.288
84980W        W46346  38.924  11.304   4.233
84981W        W46347  22.618  39.502   2.217
84982W        W46348  36.033  16.240   4.696
84983W        W46349  20.248  31.562   4.349
84984W        W46350  23.710  38.519  13.991
84985W        W46351  43.766  24.208  13.346
84986W        W46352   4.739   5.830   2.769
84987W        W46353  24.204  35.453   1.724
84988W        W46354  35.600  42.346  11.576
84989W        W46355  22.105  32.952  12.937
84990W        W46356  15.672  43.769   0.263
84991W        W46357   9.367  28.516  12.538
84992W        W46358  11.731  29.936  11.511
84993W        W46359   2.298  40.447   3.727
84994W        W46360   5.888  35.381   4.656
84995W        W46361  36.553   0.975   2.759
84996W        W46362  27.187  32.402   0.735
84997W        W46363  41.490  13.311  12.424
84998W        W46364  25.123  24.704   3.154
84999W        W46365  41.394   2.956   4.672
85000W        W46366   0.415  31.060   4.252
85001W        W46367   7.342  39.851  10.434
85002W        W46368  35.050  44.928   4.673
85003W        W46369   4.809   8.251   4.767
85004W        W46370  44.486  28.134   0.446
85005W        W46371  23.658   1.454  10.066
85006W        W46372  24.655  21.047  12.861
85007W        W46373   6.246   7.809  11.096
85008W        W46374  37.933  38.331  11.029
85009W        W46375  38.916  35.393  13.501
85010W        W46376  15.663   0.918  14.810
85011W        W46377   4.760  38.450  11.393
85012W        W46378  26.622  36.974  10.511
85013W        W46379   9.274   4.802   0.947
85014W        W46380  42.347  42.814  10.108
85015W        W46381  39.456  32.429   3.818
85016W        W46382   7.267  35.405  12.459
85017W        W46383  20.234  24.017   1.743
85018W        W46384  34.052  18.672   9.438
85019W        W46385   1.794  37.924   0.823
85020W        W46386  25.574  41.865   3.239
85021W        W46387  23.996   5.303  13.374
85022W        W46388  15.756   8.734  10.126
85023W        W46389  32.982  22.084  10.987
85024W        W46390   1.975  19.202   0.733
85025W        W46391   6.700   6.206   0.734
85026W        W46392  25.665  29.527  11.076
85027W        W46393  37.408   9.218   2.399
85028W        W46394  39.816  36.972  10.978
85029W        W46395  32.570  40.521  14.275
85030W        W46396  22.607  17.259   1.297
85031W        W46397   2.245  14.623  12.556
85032W        W46398  32.129  16.763  14.426
85033W        W46399  44.899  25.067   2.219
85034W        W46400  30.933  32.138   0.930
85035W        W46401  12.196  11.226  10.529
85036W        W46402  24.049  41.324   2.377
85037W        W46403  44.279   5.896   1.299
85038W        W46404   8.748  30.441   2.873
85039W        W46405  20.632  39.469   2.676
85040W        W46406  14.730  26.982   0.322
85041W        W46407  14.755  26.032   0.910
85042W        W46408  19.186  30.156  10.642
85043W        W46409  12.246   5.912   3.306
85044W        W46410  42.910  26.557   3.777
85045W        W46411  30.987   2.298   0.879
85046W        W46412   0.480   6.685   3.285
85047W        W46413  33.049  30.465   0.342
85048W        W46414   4.272  34.967  10.618
85049W        W46415  23.697   1.413   4.353
85050W        W46416  35.089  18.236   0.798
85051W        W46417  37.398  32.019   0.896
85052W        W46418  42.436  38.875  12.563
85053W        W46419  14.257  23.713   0.334
85054W        W46420  37.987  21.756  12.907
85055W        W46421  19.147  24.018   1.917
85056W        W46422  42.952   8.278   2.328
85057W        W46423  11.159  21.257  13.810
85058W        W46424  31.543  38.008   4.741
85059W        W46425  37.450  30.067  14.921
85060W        W46426  38.989  32.041  13.988
85061W        W46427  26.090   3.727  14.479
85062W        W46428   5.360   1.301   4.680
85063W        W46429  24.580  31.008   4.123
85064W        W46430  38.418  43.865  11.033
85065W        W46431   9.343  10.350   1.929
85066W        W46432  24.591  18.567  11.391
85067W        W46433   5.307  19.736   0.276
85068W        W46434   8.710  31.413   3.378
85069W        W46435  37.559  43.775  12.881
85070W        W46436   7.705  11.622   2.329
85071W        W46437  42.289   8.287   2.739
85072W        W46438  13.662   1.420   3.693
85073W        W46439  11.629  42.437  14.440
85074W        W46440  38.461   9.268  14.837
85075W        W46441  32.555  31.430  11.892
85076W        W46442  17.574  29.596  13.307
85077W        W46443  20.086  21.049  11.068
85078W        W46444  41.857  34.883  13.950
85079W        W46445  27.105  16.108  12.096
85080W        W46446  20.647  25.495   4.136
85081W        W46447  25.470   2.818   1.376
85082W        W46448  23.686  39.507   1.432
85083W        W46449  12.318  10.681   4.324
85084W        W46450  31.525  17.603  12.999
85085W        W46451  33.441   3.253  14.498
85086W        W46452  40.927  13.287   1.864
85087W        W46453  16.711  18.166   4.152
85088W        W46454  22.045  43.348   4.282
85089W        W46455   2.252  35.905   3.324
85090W        W46456  32.115  11.774  13.403
85091W        W46457  30.912  10.769  10.946
85092W        W46458   6.187  32.929   4.609
85093W        W46459  16.785  12.780  14.822
85094W        W46460  15.161  26.660  10.957
85095W        W46461   6.689  36.516  14.458
85096W        W46462   3.887   0.938   0.452
85097W        W46463  40.446  30.100   3.348
85098W        W46464  35.383  32.419   3.808
85099W        W46465  23.640  19.693   0.964
85100W        W46466  44.330  25.702   0.387
85101W        W46467   9.776  43.808   3.711
85102W        W46468  24.022  43.021  14.478
85103W        W46469   7.858  34.600   0.387
85104W        W46470  36.449   2.899  13.007
85105W        W46471  36.498  20.756  11.389
85106W        W46472  26.677  24.669   3.210
85107W        W46473  39.922  24.983   0.399
85108W        W46474   3.806  16.644   0.755
85109W        W46475   9.217  39.488  12.984
85110W        W46476  14.297  25.696   3.194
85111W        W46477   5.209  30.510  10.429
85112W        W46478   7.854  39.925   2.680
85113W        W46479  32.985   5.243   1.735
85114W        W46480  17.699  33.987   1.844
85115W        W46481   0.834   2.269  12.375
85116W        W46482  14.341   6.314  13.814
85117W        W46483  16.246  20.170  12.970
85118W        W46484  43.823   2.280   3.669
85119W        W46485  18.707  39.817  14.489
85120W        W46486  19.615  15.155  12.538
85121W        W46487  37.565  35.548  12.382
85122W        W46488  42.459  33.431  14.501
85123W        W46489  28.580  37.906  13.466
85124W        W46490  12.617   0.789  12.481
85125W        W46491  42.416   7.666   4.289
85126W        W46492  36.425  26.030   3.385
85127W        W46493  40.010   8.689   2.242
85128W        W46494  15.157  18.231  11.082
85129W        W46495  10.381  33.119  12.435
85130W        W46496  21.652  24.170   3.301
85131W        W46497   3.343   2.775   1.894
85132W        W46498   4.767   3.848  12.916
85133W        W46499  31.944  23.992  13.948
85134W        W46500  29.504  20.130   1.901
85135W        W46501  28.121  33.606  11.586
85136W        W46502   0.987  42.470   2.218
85137W        W46503   9.888   4.795  11.856
85138W        W46504  16.226   0.783   3.797
85139W        W46505  39.483   8.282   3.781
85140W        W46506   4.422  41.948  12.985
85141W        W46507  37.576   5.383  11.422
85142W        W46508  27.025   8.768   1.756
85143W        W46509  22.662  41.322  12.581
85144W        W46510   0.367  37.986   4.803
85145W        W46511  10.747  11.327   3.266
85146W        W46512  37.010   7.328   0.889
85147W        W46513  28.050  34.904  12.990
85148W        W46514  36.026  24.199   3.673
85149W        W46515  33.500  39.829   2.296
85150W        W46516  25.094  32.623   2.273
85151W        W46517  42.909  24.976   2.762
85152W        W46518  44.283   5.799  13.447
85153W        W46519  39.319  24.036   4.147
85154W        W46520   6.745   7.413  10.634
85155W        W46521   8.763  20.538   0.470
85156W        W46522   9.844  21.540   2.374
85157W        W46523   9.751  18.583  14.023
85158W        W46524  10.657  17.619   3.199
85159W        W46525  31.552  32.096  12.555
85160W        W46526  10.313  13.757  11.999
85161W        W46527  21.089  39.529   2.876
85162W        W46528  14.794   9.334  14.909
85163W        W46529  43.284  12.754  13.389
85164W        W46530  35.359  13.747   3.180
85165W        W46531  36.927  14.606  12.824
85166W        W46532  20.613   1.812   3.183
85167W        W46533  42.352   5.382   4.689
85168W        W46534   7.884  13.126   4.286
85169W        W46535   7.403  14.811  12.960
85170W        W46536  24.552  26.156  14.808
85171W        W46537  38.371   1.912   2.232
85172W        W46538  40.514  16.123  11.041
85173W        W46539  25.561  28.018   2.821
85174W        W46540  39.501  34.497  11.878
85175W        W46541  29.937  20.068  12.463
85176W        W46542  38.527  42.437  11.975
85177W        W46543  10.193  14.624   2.219
85178W        W46544  24.062   4.719  14.428
85179W        W46545  34.985  37.503  14.852
85180W        W46546  28.947  28.993   4.780
85181W        W46547  34.873  32.484  10.996
85182W        W46548  36.048   2.418   3.292
85183W        W46549  28.615   8.783   3.226
85184W        W46550   2.408  18.599  10.030
85185W        W46551  34.920  30.159   3.247
85186W        W46552   9.662  43.878   0.412
85187W        W46553  23.205  37.426   9.938
85188W        W46554  20.614  21.581  13.512
85189W        W46555  34.506  29.070  13.331
85190W        W46556   5.726  20.593  13.531
85191W        W46557   1.878   1.822   0.336
85192W        W46558  23.085  11.340   1.906
85193W        W46559   0.805  18.124   4.281
85194W        W46560  43.314  37.340  11.857
85195W        W46561  39.046  34.519  14.484
85196W        W46562  20.722   7.305   4.749
85197W        W46563  25.197  32.618  12.966
85198W        W46564   7.304   9.190  11.968
85199W        W46565  39.413  44.968   4.621
85200W        W46566  16.738   1.422  12.579
85201W        W46567  44.261  11.358  11.418
85202W        W46568   5.888   8.671  11.476
85203W        W46569  26.091  21.192   2.855
85204W        W46570   0.876  32.060   4.799
85205W        W46571  27.488   4.923  12.979
85206W        W46572  19.107  18.234   3.859
85207W        W46573  41.797  22.535  11.581
85208W        W46574   3.344   7.709   2.414
85209W        W46575  39.029  21.027   5.203
85210W        W46576  30.032  44.313   0.929
85211W        W46577  30.543  34.534   1.794
85212W        W46578  20.748  27.142   0.860
85213W        W46579  21.734  37.531   1.818
85214W        W46580   5.745  21.082   3.278
85215W        W46581  18.273  27.125  14.973
85216W        W46582  11.332  36.540  12.881
85217W        W46583  43.851  21.527   4.264
85218W        W46584  15.268  20.530  10.543
85219W        W46585  31.634  19.137  10.957
85220W        W46586   4.809  43.775  14.312
85221W        W46587  32.961   4.915  10.480
85222W        W46588  23.733  33.079   0.734
85223W        W46589  36.002  11.219  10.522
85224W        W46590  36.512   2.819  14.007
85225W        W46591  30.488   3.814  11.401
85226W        W46592  40.399  28.497   3.240
85227W        W46593  13.129  42.936  10.458
85228W        W46594  25.018  27.155  14.324
85229W        W46595  34.525  29.984  11.524
85230W        W46596  11.756   8.887   2.773
85231W        W46597  32.091   0.345   9.971
85232W        W46598  38.884  42.318   0.482
85233W        W46599  29.455  36.534  12.920
85234W        W46600   6.718  34.044   0.248
85235W        W46601  42.525  28.959   4.270
85236W        W46602  41.445   6.873  14.404
85237W        W46603  17.176  16.170   3.324
85238W        W46604  42.333  30.452   0.392
85239W        W46605   1.920  20.028   2.217
85240W        W46606  42.839   9.244   0.737
85241W        W46607  18.738  18.076  11.967
85242W        W46608  15.765  18.742   4.698
85243W        W46609  10.354  34.036   3.644
85244W        W46610   0.482  28.464   2.848
85245W        W46611  16.616  18.251   4.826
85246W        W46612  34.442   6.868   1.361
85247W        W46613   2.374   9.658   1.804
85248W        W46614   2.955  24.506   3.812
85249W        W46615  15.818  21.194   0.827
85250W        W46616  27.127  17.746   0.410
85251W        W46617  19.119  35.469  13.308
85252W        W46618  32.991  11.857   2.767
85253W        W46619  28.964  36.449  10.956
85254W        W46620  30.645   6.369  14.462
85255W        W46621   8.801  23.605   4.821
85256W        W46622  26.990  26.041  13.003
85257W        W46623  32.515  32.949   2.335
85258W        W46624  13.680  31.565  14.819
85259W        W46625  33.396  23.233  10.437
85260W        W46626  31.969   7.306   1.711
85261W        W46627  21.143   3.324  12.037
85262W        W46628   3.791   8.695  11.079
85263W        W46629  30.972  43.475  13.936
85264W        W46630  34.939  36.934  12.081
85265W        W46631  18.550  42.939  12.438
85266W        W46632  35.525  26.516  11.479
85267W        W46633  31.983  36.435   2.414
85268W        W46634   6.271  36.364  13.888
85269W        W46635  40.486  14.142  13.330
85270W        W46636   4.896  10.740  10.101
85271W        W46637  21.709  44.406  14.423
85272W        W46638   5.356  19.554   0.837
85273W        W46639   0.922  18.160   5.132
85274W        W46640  43.319  33.122   4.153
85275W        W46641  40.484  27.177   1.294
85276W        W46642  22.703  42.016  14.338
85277W        W46643  27.963  37.853   1.350
85278W        W46644   8.842  29.029   0.801
85279W        W46645  21.683  20.084   0.744
85280W        W46646   1.249  41.994   4.319
85281W        W46647  15.318  41.404  13.978
85282W        W46648   5.701  26.678   2.889
85283W        W46649  41.367  20.641  12.006
85284W        W46650  27.995  24.574  14.863
85285W        W46651  37.013  15.096  14.405
85286W        W46652  11.171   6.780  13.316
85287W        W46653  39.382  43.406  12.056
85288W        W46654   8.753  42.815   0.338
85289W        W46655   3.832  32.131   5.173
85290W        W46656  25.588   3.766   4.316
85291W        W46657  38.072  17.724   2.222
85292W        W46658   8.876   7.745   1.749
85293W        W46659  44.422  39.909  10.127
85294W        W46660  40.495  31.581   4.336
85295W        W46661  35.593  35.064   1.353
85296W        W46662  32.987  43.904  10.908
85297W        W46663  12.247  21.133  13.329
85298W        W46664  41.806  19.112   0.445
85299W        W46665  33.934  29.469   1.783
85300W        W46666   5.700  25.496   3.843
85301W        W46667  40.351  15.290  14.943
85302W        W46668  18.148  37.409   4.788
85303W        W46669  12.239  39.023  13.378
85304W        W46670  20.121  40.436  12.834
85305W        W46671  12.621  24.560  13.853
85306W        W46672  34.611  23.211   0.773
85307W        W46673  22.242  17.726  14.802
85308W        W46674  44.872  25.096   0.954
85309W        W46675  26.124  24.001  13.529
85310W        W46676  20.681   6.265   3.252
85311W        W46677  44.329  20.545   2.839
85312W        W46678  31.473  25.148   4.790
85313W        W46679   0.267   2.389   4.612
85314W        W46680   7.817   6.277  10.066
85315W        W46681  25.609   1.831   3.699
85316W        W46682  40.999  41.513   1.364
85317W        W46683  21.556   8.779   2.294
85318W        W46684  41.792  35.377  11.565
85319W        W46685   2.351  22.188  14.838
85320W        W46686  39.902   5.214  10.538
85321W        W46687  29.497  32.420  14.374
85322W        W46688  27.552  19.544  10.894
85323W        W46689   8.382  20.131   2.227
85324W        W46690  11.818  26.686  11.481
85325W        W46691  17.708  14.645   2.690
85326W        W46692  27.603  35.591  10.901
85327W        W46693  35.987  41.303   3.239
85328W        W46694  17.750  25.671  10.573
85329W        W46695  42.818  34.491  10.489
85330W        W46696  11.664   4.751   0.457
85331W        W46697  15.647  14.096   1.308
85332W        W46698  42.408  41.356   1.876
85333W        W46699   2.395  40.519   0.888
85334W        W46700  20.107  19.576   5.224
85335W        W46701   8.285  23.696   1.307
85336W        W46702  35.852  27.452  11.582
85337W        W46703  19.683  37.505   4.611
85338W        W46704  39.995  15.304  12.987
85339W        W46705  10.772  20.640  14.368
85340W        W46706   0.253  10.787  11.491
85341W        W46707   3.380   0.782   1.279
85342W        W46708  38.351   1.395   0.398
85343W        W46709   9.202  30.484  13.972
85344W        W46710  36.096   1.451   4.245
85345W        W46711  31.960  25.603   3.695
85346W        W46712  24.173  24.007   3.824
85347W        W46713  37.391  42.325   2.759
85348W        W46714  43.960  22.217  12.852
85349W        W46715  31.621  24.579  10.422
85350W        W46716   5.356  38.420   2.416
85351W        W46717  11.203  17.562   3.195
85352W        W46718  10.795   7.823   2.371
85353W        W46719  18.167  35.398  12.465
85354W        W46720  38.982  32.937   0.332
85355W        W46721  40.960  32.035   3.316
85356W        W46722  11.634  25.972  13.410
85357W        W46723  41.846  37.519   3.790
85358W        W46724  30.032  15.684   0.482
85359W        W46725   6.721  12.344  12.034
85360W        W46726  12.145   7.356   4.162
85361W        W46727  12.672   4.902   3.709
85362W        W46728  12.670  31.436  12.971
85363W        W46729  21.545  30.535   0.266
85364W        W46730  32.448  44.337  12.350
85365W        W46731   5.279  18.097   2.831
85366W        W46732  14.289   5.345  11.515
85367W        W46733  33.537  36.499  11.962
85368W        W46734  18.783  38.949   3.343
85369W        W46735  36.895   1.416   3.825
85370W        W46736  36.477   0.293   3.847
85371W        W46737  12.332   8.699   0.818
85372W        W46738  36.368  26.992  11.379
85373W        W46739  43.989  19.188  14.985
85374W        W46740  29.123  44.492  12.453
85375W        W46741  34.106  21.092   4.780
85376W        W46742  42.947  12.845  13.308
85377W        W46743  39.321  12.793  11.471
85378W        W46744   4.735  28.089   4.203
85379W        W46745  19.087   7.896  14.497
85380W        W46746  39.863  16.235  14.489
85381W        W46747  34.911  33.573   1.804
85382W        W46748  44.894   6.743  13.393
85383W        W46749   1.786  16.257  11.944
85384W        W46750  24.603   9.751  12.521
85385W        W46751  42.976  23.071  13.443
85386W        W46752  33.620   6.328  12.926
85387W        W46753  19.575  41.531  11.561
85388W        W46754   1.395  38.058   2.357
85389W        W46755  39.336  29.459   2.205
85390W        W46756  29.075  37.922  11.410
85391W        W46757  28.539   7.779  11.515
85392W        W46758  15.732  19.073  12.026
85393W        W46759   7.871  18.205  11.521
85394W        W46760  37.984   9.801   1.392
85395W        W46761  14.210   7.858   2.753
85396W        W46762  30.020  36.090  11.387
85397W        W46763  29.520  39.829  13.869
85398W        W46764  17.087  25.625  12.059
85399W        W46765  16.150  31.452  13.410
85400W        W46766   7.318  20.685   2.238
85401W        W46767  38.871  38.340   3.157
85402W        W46768  23.068  17.721   1.773
85403W        W46769  32.067  15.143  13.966
85404W        W46770  36.942  18.273  13.957
85405W        W46771   8.291  33.606   3.657
85406W        W46772  23.661  40.843   0.460
85407W        W46773  11.636  40.919   1.863
85408W        W46774  27.624  31.523   3.179
85409W        W46775  12.773  43.949  14.997
85410W        W46776  16.733  25.710  14.812
85411W        W46777  31.002  28.639   2.724
85412W        W46778   3.277  26.136   2.821
85413W        W46779   3.454  18.272  14.463
85414W        W46780  36.874  29.977  13.498
85415W        W46781  44.469  30.504  13.957
85416W        W46782   4.851  33.475  10.590
85417W        W46783  14.763  37.510  11.103
85418W        W46784  19.713   0.427  11.054
85419W        W46785  34.558  14.733   0.870
85420W        W46786   8.878   9.844   2.714
85421W        W46787  33.062  14.113   1.865
85422W        W46788  27.194  25.541  10.596
85423W        W46789   6.306  26.625  12.837
85424W        W46790  28.998   3.915   3.634
85425W        W46791   4.263  12.837  13.830
85426W        W46792  16.591  17.627   0.868
85427W        W46793  41.527  40.304  14.941
85428W        W46794  36.902  37.528   0.810
85429W        W46795  33.039  18.239   4.264
85430W        W46796   8.694  24.031  13.531
85431W        W46797  43.406  13.658  10.467
85432W        W46798  25.561  17.652   3.865
85433W        W46799  43.467  42.957   0.483
85434W        W46800  16.287  24.496   2.785
85435W        W46801   2.886  27.155  14.784
85436W        W46802   2.759  16.232  12.362
85437W        W46803  42.975  15.644   1.263
85438W        W46804   5.687  16.255  12.958
85439W        W46805  26.698  10.257  11.400
85440W        W46806   1.777  23.634   4.710
85441W        W46807  23.220  19.082  12.354
85442W        W46808   6.338   4.732   2.381
85443W        W46809  15.145  30.646  13.014
85444W        W46810  26.581  34.991   4.755
85445W        W46811  10.794   4.388  10.412
85446W        W46812  35.584  27.954   0.478
85447W        W46813  11.698  41.819   2.393
85448W        W46814  24.084  16.140   2.224
85449W        W46815  17.685   9.742  13.404
85450W        W46816  16.082  13.642  11.417
85451W        W46817   4.862   1.293   2.410
85452W        W46818  34.969  25.624  13.508
85453W        W46819   2.337  37.086  14.984
85454W        W46820  44.350  33.617   3.318
85455W        W46821  25.619  41.367  13.546
85456W        W46822  34.035  18.691   2.361
85457W        W46823  10.653   0.464   2.389
85458W        W46824   7.415  23.500  14.296
85459W        W46825   6.849  19.115   0.302
85460W        W46826  22.734  22.721  14.275
85461W        W46827  11.778  10.250   9.931
85462W        W46828  25.711  18.188   0.881
85463W        W46829   1.780  31.531   2.663
85464W        W46830  31.604  22.689  14.842
85465W        W46831  25.552  22.224   1.263
85466W        W46832  34.001  32.455   2.718
85467W        W46833  44.425  40.854   4.656
85468W        W46834   0.981  43.515  10.442
85469W        W46835  37.430  28.085  11.464
85470W        W46836  29.003  16.106  12.077
85471W        W46837   5.377  11.757  11.114
85472W        W46838   3.351  44.913   3.810
85473W        W46839  13.165  12.712   9.970
85474W        W46840   4.765  22.054  11.938
85475W        W46841   0.278  20.663  10.980
85476W        W46842   6.283  16.716   0.412
85477W        W46843  42.897  21.576   2.876
85478W        W46844   4.259  12.764   1.737
85479W        W46845  16.725   1.763   1.410
85480W        W46846   5.700   7.783  14.420
85481W        W46847  11.234  43.276  13.846
85482W        W46848  17.608  35.571  14.997
85483W        W46849   0.294  33.945   4.330
85484W        W46850  13.843   5.427   1.780
85485W        W46851  31.479   0.862   4.156
85486W        W46852  39.359  31.547   4.789
85487W        W46853   6.212  30.498   1.355
85488W        W46854  25.059  21.598   4.174
85489W        W46855  25.697  16.214  12.873
85490W        W46856   0.775  18.221   1.449
85491W        W46857  16.072   1.345   0.362
85492W        W46858  33.471  40.479   3.679
85493W        W46859   6.877  44.900  14.411
85494W        W46860   8.823   9.777  12.045
85495W        W46861   4.881  34.901  12.891
85496W        W46862  16.238  22.612  14.998
85497W        W46863  15.754  15.131   4.157
85498W        W46864   0.816  15.115  14.302
85499W        W46865  36.002  20.677   0.874
85500W        W46866  43.440  22.197   3.747
85501W        W46867   6.874  33.452   3.274
85502W        W46868   0.806  34.492  14.429
85503W        W46869  18.584  12.160  10.930
85504W        W46870   6.402  44.285  12.350
85505W        W46871  23.695  25.476   3.636
85506W        W46872   5.368   4.323  14.791
85507W        W46873  26.655  38.992   1.372
85508W        W46874  20.167  27.532   1.284
85509W        W46875  35.532  10.303  10.978
85510W        W46876   5.344  34.954   2.404
85511W        W46877  14.217  26.049  14.986
85512W        W46878  41.536  38.380   4.758
85513W        W46879  43.507  14.311  13.901
85514W        W46880  26.044   1.743   2.413
85515W        W46881   6.299  40.892  13.316
85516W        W46882  18.597  31.403  12.984
85517W        W46883  10.174  38.826   1.267
85518W        W46884   4.791   2.961   4.220
85519W        W46885  37.022  16.295   0.296
85520W        W46886   2.728   9.270  10.633
85521W        W46887  11.854  15.720   1.708
85522W        W46888  14.772  43.865   1.845
85523W        W46889  14.620  26.016   3.351
85524W        W46890   1.920  26.035  14.508
85525W        W46891  40.854  25.619   2.268
85526W        W46892  28.092   1.309   1.815
85527W        W46893   1.741  38.037   2.674
85528W        W46894  22.182   0.355  14.957
85529W        W46895  17.134   7.668  12.019
85530W        W46896   6.347   7.740  11.867
85531W        W46897  28.092  16.162  10.448
85532W        W46898   3.866  42.848   5.135
85533W        W46899  37.859  27.967  11.926
85534W        W46900  21.148  33.542  14.782
85535W        W46901  33.607  20.054  11.044
85536W        W46902  16.082  17.715   3.664
85537W        W46903  17.180  27.105   0.297
85538W        W46904  24.674  21.527  11.032
85539W        W46905  18.252  30.063  13.420
85540W        W46906  43.299  29.543  11.026
85541W        W46907  26.952   1.431   4.342
85542W        W46908  44.963  15.304  10.952
85543W        W46909  12.121  42.310   2.850
85544W        W46910   7.377  25.709  13.013
85545W        W46911   9.183  40.999   1.348
85546W        W46912  30.965  10.866   2.734
85547W        W46913  26.678  19.165   4.125
85548W        W46914   3.865  33.129  11.423
85549W        W46915  21.229  17.073   0.758
85550W        W46916  20.744  38.991   4.671
85551W        W46917  34.376   1.969  10.927
85552W        W46918   1.773  26.533  13.043
85553W        W46919  44.904  37.382   2.315
85554W        W46920  26.026  13.820   4.631
85555W        W46921   7.788  44.807   0.284
85556W        W46922  29.521  39.537  14.847
85557W        W46923  26.026  11.238   3.382
85558W        W46924  17.264   1.330  12.015
85559W        W46925  24.503  14.649   4.132
85560W        W46926   6.719  34.036   2.777
85561W        W46927  21.710  28.128  12.427
85562W        W46928  16.258  10.666   2.756
85563W        W46929  20.205  33.088   4.704
85564W        W46930  30.525  10.230   2.717
85565W        W46931  20.142  16.165  12.565
85566W        W46932  43.511  35.977  14.970
85567W        W46933  16.790   2.859   3.638
85568W        W46934  33.914  35.506   3.681
85569W        W46935  12.780  34.570  11.516
85570W        W46936  25.205  34.070  13.008
85571W        W46937   6.845  18.557   1.284
85572W        W46938   7.895  44.363   1.851
85573W        W46939  22.122  25.985  11.073
85574W        W46940  44.495  23.120  13.011
85575W        W46941   5.789   2.288  12.078
85576W        W46942   9.328  17.279  12.473
85577W        W46943  15.318  33.436  11.553
85578W        W46944  37.354  31.636   4.724
85579W        W46945  23.665  10.634  11.004
85580W        W46946  35.034   8.821  10.034
85581W        W46947  10.188   7.705  10.589
85582W        W46948  10.873  37.964  13.439
85583W        W46949  31.410  36.884  12.370
85584W        W46950  34.966  23.992  13.832
85585W        W46951  28.105   6.680   3.661
85586W        W46952  36.845   4.275  11.372
85587W        W46953  17.578   0.301  14.912
85588W        W46954  12.759  28.670   1.911
85589W        W46955  37.047  15.598   0.780
85590W        W46956   7.904  29.929  11.916
85591W        W46957  41.462  41.904  12.579
85592W        W46958  32.514  38.562  14.002
85593W        W46959  31.138  26.461   0.916
85594W        W46960  39.963  38.932  11.122
85595W        W46961  32.613  43.465  11.053
85596W        W46962  32.541  40.429  14.813
85597W        W46963  15.083  44.360  10.954
85598W        W46964  11.725  23.699   1.833
85599W        W46965  20.145  19.264  10.453
85600W        W46966   6.408  37.850   1.738
85601W        W46967  38.966  42.286   2.331
85602W        W46968  37.877  44.492  14.989
85603W        W46969  38.339  42.791  11.912
85604W        W46970   8.353  32.079   4.254
85605W        W46971  11.295  26.541  12.540
85606W        W46972  32.009  10.278   4.740
85607W        W46973  15.690   2.798  14.974
85608W        W46974  10.684  42.886  10.579
85609W        W46975   7.874  36.568   3.229
85610W        W46976  29.576  33.989   4.157
85611W        W46977  27.043   5.846   1.704
85612W        W46978  15.206  40.447  12.890
85613W        W46979  38.406  42.790  11.541
85614W        W46980  31.984   8.378  11.962
85615W        W46981  37.074   3.881   1.759
85616W        W46982  44.359  40.851   0.897
85617W        W46983  33.398  38.431  12.837
85618W        W46984   2.862  20.209   4.831
85619W        W46985  12.770  35.865  14.795
85620W        W46986  42.346  17.596  11.076
85621W        W46987  44.280  28.156  12.052
85622W        W46988  39.006   1.394   2.251
85623W        W46989  40.502  15.164  12.975
85624W        W46990  29.109  40.496   0.729
85625W        W46991  35.080  41.936   5.731
85626W        W46992  12.773  26.483   3.662
85627W        W46993  43.009  22.740  11.424
85628W        W46994  23.148   4.320  14.760
85629W        W46995  19.688   1.754   1.217
85630W        W46996  27.990  19.694   1.846
85631W        W46997  12.835  38.914   2.208
85632W        W46998  44.270  17.728   0.812
85633W        W46999  42.894   7.320   0.351
85634W        W47000  31.410  37.533  12.493
85635W        W47001  43.470  21.589  13.019
85636W        W47002  10.140  16.800  13.317
85637W        W47003  34.550  20.085  14.888
85638W        W47004   6.412  35.080   2.314
85639W        W47005  13.805   9.875   2.699
85640W        W47006  41.457  37.575   3.819
85641W        W47007  34.943  21.026   2.404
85642W        W47008   3.337   2.813   4.315
85643W        W47009  30.416  20.637  13.543
85644W        W47010  28.659   7.738   2.806
85645W        W47011  18.279   4.702  11.906
85646W        W47012  32.995  40.327  14.940
85647W        W47013  27.047  11.674   1.712
85648W        W47014  31.511  17.604   1.232
85649W        W47015  23.615  38.003  10.930
85650W        W47016  43.943  10.692   1.717
85651W        W47017   5.764   4.772   4.651
85652W        W47018  38.360   0.748   2.301
85653W        W47019  12.181  18.260  11.488
85654W        W47020  18.057  29.538   1.339
85655W        W47021  11.322  20.190   0.777
85656W        W47022  17.256  43.000  10.898
85657W        W47023   2.423  31.024  14.394
85658W        W47024   5.721  40.483   2.196
85659W        W47025  11.352  22.590  11.942
85660W        W47026  10.305  19.066   0.875
85661W        W47027   0.774  38.038   4.146
85662W        W47028   0.956  13.615  14.787
85663W        W47029  19.048   4.737   0.257
85664W        W47030  34.434  36.023   3.748
85665W        W47031  23.212  17.088  10.554
85666W        W47032   9.149  25.574  12.481
85667W        W47033  32.496  19.230   4.326
85668W        W47034   6.880   8.765   4.161
85669W        W47035   1.405  14.185   4.700
85670W        W47036  30.511   4.222  13.814
85671W        W47037   9.329  38.967   2.239
85672W        W47038   5.254  34.065   1.236
85673W        W47039   5.776  18.228   4.702
85674W        W47040  27.107  28.994  13.952
85675W        W47041  42.418  41.453  12.942
85676W        W47042  24.545  44.885  11.940
85677W        W47043  26.133  12.833   1.370
85678W        W47044  10.757   1.390  12.404
85679W        W47045   8.744  28.072  12.903
85680W        W47046  26.486  38.564  13.942
85681W        W47047   5.688  27.641  14.800
85682W        W47048  44.374   4.341   4.717
85683W        W47049  12.710  34.486  10.061
85684W        W47050  43.816   8.391   2.302
85685W        W47051   6.256  15.611  14.277
85686W        W47052   5.777   6.297   0.880
85687W        W47053   0.386  14.689  14.783
85688W        W47054  44.490  21.669   3.734
85689W        W47055   8.796  14.213   0.728
85690W        W47056  17.641   3.831   4.203
85691W        W47057  40.499   1.249  13.929
85692W        W47058  18.191   9.812  13.064
85693W        W47059  21.606  19.604   2.820
85694W        W47060  11.641  16.077  13.887
85695W        W47061  17.630  15.230  11.542
85696W        W47062  16.210   3.454   3.321
85697W        W47063  26.536  11.369   0.938
85698W        W47064   3.799  28.119   9.667
85699W        W47065  44.966  44.463   0.821
85700W        W47066  22.654  17.134   5.215
85701W        W47067   3.899  20.623  14.332
85702W        W47068  37.518  32.054  11.003
85703W        W47069  22.591  38.345   1.856
85704W        W47070  29.097  24.678  11.979
85705W        W47071  32.621   7.337   0.364
85706W        W47072   2.441   3.913   5.236
85707W        W47073  39.431  41.515   1.215
85708W        W47074  28.468  44.812  12.938
85709W        W47075  36.947   6.899  10.474
85710W        W47076  32.477   8.725   3.221
85711W        W47077  33.383  12.765  11.945
85712W        W47078  17.598  37.532   1.701
85713W        W47079  11.284  15.733  13.442
85714W        W47080  32.997  43.401   0.759
85715W        W47081  43.399  24.039  13.851
85716W        W47082   6.377  12.349  13.519
85717W        W47083  26.189  18.261  14.773
85718W        W47084  31.077  44.291   1.427
85719W        W47085  34.552  19.256   2.220
85720W        W47086   8.823   1.855  14.444
85721W        W47087  24.565  39.416   2.795
85722W        W47088  25.515  32.093   0.753
85723W        W47089  14.095  28.558   3.645
85724W        W47090  13.140  38.834  10.436
85725W        W47091  34.555   4.394  12.885
85726W        W47092  42.996  43.486   4.146
85727W        W47093  17.633  35.541   9.929
85728W        W47094  30.926  31.045   0.437
85729W        W47095  34.457  32.899  13.024
85730W        W47096   3.383  31.420  10.478
85731W        W47097  24.579  23.584  11.389
85732W        W47098  28.932  37.481  12.033
85733W        W47099   2.821  43.355   2.417
85734W        W47100  44.767   7.909  11.918
85735W        W47101  33.038  20.641  12.867
85736W        W47102  11.303   8.866   3.832
85737W        W47103  41.528  33.961   4.794
85738W        W47104   0.409  23.205  13.534
85739W        W47105   3.367   6.907   9.986
85740W        W47106   2.233  43.914   2.270
85741W        W47107  38.354  12.349   1.919
85742W        W47108  25.547  14.125  13.323
85743W        W47109  16.729  35.559  14.280
85744W        W47110  22.195  11.260  13.849
85745W        W47111  17.134  20.142  14.897
85746W        W47112  22.163  33.071  14.930
85747W        W47113  26.502   5.383  10.463
85748W        W47114  34.949  35.925   2.262
85749W        W47115   6.732  16.620   0.257
85750W        W47116  42.487  41.978   4.336
85751W        W47117   7.387   3.865  13.988
85752W        W47118   0.314  34.549  10.559
85753W        W47119  39.896  35.875   3.350
85754W        W47120   7.385  25.967  12.975
85755W        W47121   7.719  20.156  13.838
85756W        W47122  18.714  37.983   0.341
85757W        W47123   2.776   8.368  10.973
85758W        W47124  24.146   8.881   0.471
85759W        W47125  13.245   3.863   0.429
85760W        W47126  19.649   1.780  12.031
85761W        W47127  36.053   4.815   4.183
85762W        W47128  34.975   4.386  14.327
85763W        W47129  30.595  41.434  14.488
85764W        W47130  21.096  37.838   2.408
85765W        W47131  31.010  37.461  14.865
85766W        W47132  13.619  37.479  11.897
85767W        W47133   2.310  11.713   2.757
85768W        W47134   3.401  28.438  14.390
85769W        W47135  10.757  10.854  13.803
85770W        W47136  26.627   8.273   3.296
85771W        W47137  24.174   8.274  11.534
85772W        W47138  36.877   9.864  11.586
85773W        W47139  18.182  36.564   0.927
85774W        W47140  39.528   7.316   0.943
85775W        W47141  16.638  20.052   0.926
85776W        W47142  39.866   8.222  13.871
85777W        W47143   1.823  17.270  14.979
85778W        W47144  29.547   9.760  14.378
85779W        W47145  34.507   0.936   2.270
85780W        W47146  15.275  40.873   2.269
85781W        W47147  11.764   4.434   3.271
85782W        W47148  23.614  18.232   0.328
85783W        W47149  15.289   1.953   0.334
85784W        W47150  18.693  10.855  11.582
85785W        W47151  12.346  22.145   4.735
85786W        W47152   6.182  11.253  10.941
85787W        W47153  24.991   9.686  12.506
85788W        W47154  38.419  16.601   0.343
85789W        W47155  19.116  23.149   1.853
85790W        W47156  20.141  35.066  10.960
85791W        W47157  30.436  35.012  11.486
85792W        W47158   1.369  18.622  12.384
85793W        W47159  24.511  13.657   3.207
85794W        W47160   6.771  41.447   2.224
85795W        W47161  27.507  24.571  10.976
85796W        W47162  44.000  36.921   4.650
85797W        W47163  15.806  34.586   1.795
85798W        W47164  36.975  36.352   0.825
85799W        W47165   5.795  13.670   0.393
85800W        W47166   8.387  39.031  13.846
85801W        W47167  11.860  14.230   0.389
85802W        W47168   1.798   7.385  13.891
85803W        W47169  36.576   4.746  14.017
85804W        W47170  11.621   9.314  12.980
85805W        W47171   8.766  21.540   4.688
85806W        W47172  36.987  13.842  14.484
85807W        W47173  35.029  13.289  10.600
85808W        W47174  10.833  21.633  11.990
85809W        W47175  36.956  29.027  12.995
85810W        W47176   7.368  23.562   2.853
85811W        W47177  36.858  33.126  10.992
85812W        W47178  24.129  42.869   4.193
85813W        W47179  24.617   9.649   4.721
85814W        W47180  14.229  33.923  14.020
85815W        W47181   9.801   3.360  11.944
85816W        W47182  29.467  33.121   1.923
85817W        W47183  38.955  25.563  14.973
85818W        W47184  43.847  14.299   3.229
85819W        W47185  31.062   5.805   4.236
85820W        W47186   6.373   0.768  14.499
85821W        W47187  44.784  28.665  11.491
85822W        W47188  34.481   9.272  11.872
85823W        W47189   9.719   5.717  14.481
85824W        W47190  44.826  12.332   2.370
85825W        W47191   1.480  11.702   0.458
85826W        W47192   2.386  16.778   1.696
85827W        W47193   5.838   3.862  13.380
85828W        W47194  25.027  12.772   4.175
85829W        W47195  27.975  38.360  12.087
85830W        W47196   8.283  25.683   3.259
85831W        W47197  37.525   5.407  10.619
85832W        W47198  12.703  40.911   2.786
85833W        W47199  44.943  17.275  10.508
85834W        W47200   2.409  39.404  11.021
85835W        W47201  40.914  25.210   5.322
85836W        W47202  20.263  23.609  13.466
85837W        W47203  31.417   1.318   4.316
85838W        W47204  32.908  16.681   0.915
85839W        W47205   1.779  18.734  12.095
85840W        W47206  13.826  32.589   1.317
85841W        W47207  33.061  28.498   2.742
85842W        W47208  19.756  26.611   2.892
85843W        W47209   5.374  35.987  11.003
85844W        W47210  11.733   9.309   4.809
85845W        W47211  31.494  24.062   5.083
85846W        W47212  18.158  11.810   3.255
85847W        W47213   2.259  18.150  12.935
85848W        W47214  28.483  27.184   2.830
85849W        W47215  31.618  42.326   3.733
85850W        W47216   2.752  34.931  12.935
85851W        W47217  43.282   0.363  11.107
85852W        W47218   5.795  36.872   0.479
85853W        W47219   6.730   0.963   2.698
85854W        W47220  33.577  19.760   0.359
85855W        W47221  39.550  18.585  14.803
85856W        W47222   2.406  33.510   2.218
85857W        W47223  40.854  38.831  10.047
85858W        W47224  38.883  43.836  14.974
85859W        W47225  23.543  11.646   0.900
85860W        W47226  35.370  32.115   4.288
85861W        W47227  21.640  43.985  11.023
85862W        W47228   4.208  25.525  13.972
85863W        W47229  17.294  31.100   2.746
85864W        W47230  21.619  21.200   2.321
85865W        W47231  16.318  23.526  12.452
85866W        W47232   1.309  38.023  13.511
85867W        W47233  24.659  13.240  12.935
85868W        W47234   9.653  34.375  12.047
85869W        W47235   8.717  43.418  11.595
85870W        W47236  36.555  44.336  11.582
85871W        W47237   0.805  10.291  12.426
85872W        W47238  11.149  21.112  10.037
85873W        W47239  11.744  21.167  11.422
85874W        W47240  38.358  21.717  11.526
85875W        W47241   9.327  19.110  11.118
85876W        W47242  15.727  37.539   1.725
85877W        W47243   5.916  37.574   4.326
85878W        W47244  21.074  21.753   1.439
85879W        W47245  34.071   3.786  12.084
85880W        W47246   2.423   7.219  10.962
85881W        W47247   0.958  11.639  12.503
85882W        W47248  17.134  27.684   3.368
85883W        W47249  44.341   2.435   0.247
85884W        W47250  33.534  14.211  13.339
85885W        W47251  41.529  21.165  14.945
85886W        W47252   4.265  33.543   1.324
85887W        W47253  37.975  24.601   1.359
85888W        W47254  44.900  42.900   4.159
85889W        W47255   1.275  19.563  14.786
85890W        W47256  19.125  33.016  13.003
85891W        W47257  28.092  12.622   3.322
85892W        W47258  18.703  14.615  13.996
85893W        W47259  43.884  23.699   4.307
85894W        W47260  31.996  25.477  10.609
85895W        W47261  32.025   6.419  10.579
85896W        W47262  16.219   7.721  11.464
85897W        W47263  10.169  21.233   5.091
85898W        W47264  25.963  17.574  11.995
85899W        W47265  11.181   8.769   1.859
85900W        W47266  19.262  21.726  14.896
85901W        W47267  15.233   6.720  13.403
85902W        W47268   9.704  44.836   2.772
85903W        W47269  20.572  25.049   4.203
85904W        W47270   4.396  22.520   1.753
85905W        W47271  44.901   6.707   4.701
85906W        W47272  15.318  40.477   4.213
85907W        W47273  34.868   4.339  12.872
85908W        W47274  30.658   3.319  10.605
85909W        W47275  41.970  22.540   0.435
85910W        W47276   8.390  37.444  11.461
85911W        W47277  23.593  21.587   3.870
85912W        W47278   2.459   3.358   1.371
85913W        W47279  22.650  31.425   4.216
85914W        W47280  19.724  38.027   1.824
85915W        W47281   4.849  10.321   0.297
85916W        W47282   9.380  16.234   1.429
85917W        W47283   4.258  36.079   1.872
85918W        W47284  24.077  29.435   4.784
85919W        W47285  36.916  39.401  11.890
85920W        W47286   2.950  40.302  14.793
85921W        W47287  22.580   5.687   0.842
85922W        W47288   4.319  32.132  11.515
85923W        W47289   7.363  27.976  11.463
85924W        W47290   3.813  43.396  10.896
85925W        W47291  19.613   7.337  11.942
85926W        W47292  24.708   0.462   1.923
85927W        W47293  18.277  42.973   3.725
85928W        W47294  18.104  27.667  13.416
85929W        W47295   8.179  23.566  13.318
85930W        W47296   9.388  38.332  13.913
85931W        W47297  35.463   7.668   3.730
85932W        W47298  31.501  23.697  11.874
85933W        W47299  40.030  42.861  14.290
85934W        W47300  24.172   5.194   5.247
85935W        W47301  22.107  13.177  11.434
85936W        W47302   3.915  15.622  13.986
85937W        W47303  23.187   7.237  14.489
85938W        W47304   6.200  38.386   4.146
85939W        W47305  44.414  28.554   9.661
85940W        W47306  30.536  38.952   2.349
85941W        W47307   6.679  35.957  13.436
85942W        W47308  26.535   1.289   2.734
85943W        W47309  11.689   7.789  11.876
85944W        W47310   5.209   5.877   0.945
85945W        W47311  23.712   8.668  14.330
85946W        W47312  42.454   7.798  14.379
85947W        W47313   8.166  28.501   1.366
85948W        W47314  31.948  42.888   3.725
85949W        W47315   2.876  18.173  10.110
85950W        W47316  21.635  36.851  14.412
85951W        W47317  25.573  13.334   0.885
85952W        W47318   1.428  41.797   2.221
85953W        W47319   9.385   5.346   1.832
85954W        W47320  40.393  23.031  14.979
85955W        W47321  33.567  12.203   1.223
85956W        W47322  33.401  19.744   2.392
85957W        W47323  31.900  42.397   1.420
85958W        W47324  42.508   1.272  14.426
85959W        W47325  33.970  33.539   0.357
85960W        W47326  34.055  14.317   4.290
85961W        W47327  25.592  38.373  14.312
85962W        W47328  20.073  20.724   1.217
85963W        W47329  38.521  22.995  11.537
85964W        W47330  25.597   1.827  10.544
85965W        W47331  36.388   6.801  14.917
85966W        W47332  19.709   6.224   4.304
85967W        W47333  23.227   4.397  12.934
85968W        W47334  12.155  15.693  11.411
85969W        W47335  28.931  25.150  13.928
85970W        W47336  13.642  42.859  14.987
85971W        W47337  22.503  25.583  12.480
85972W        W47338  14.741  41.961  13.952
85973W        W47339  30.461   8.796   5.150
85974W        W47340  44.956   3.755  13.547
85975W        W47341  12.336  26.561  13.002
85976W        W47342  21.102  44.274   3.662
85977W        W47343  33.940  17.561  13.512
85978W        W47344  13.636  44.992  12.460
85979W        W47345  11.709  34.900   2.294
85980W        W47346  11.308  11.667   0.745
85981W        W47347  29.432  42.896   0.359
85982W        W47348  41.883  17.632  14.318
85983W        W47349   6.908   6.704  14.366
85984W        W47350  23.080  40.037  12.451
85985W        W47351  31.546  31.959  11.450
85986W        W47352  24.181  19.632   3.692
85987W        W47353  33.424  36.429   1.418
85988W        W47354  41.803  32.990   4.633
85989W        W47355   5.777  19.683   1.825
85990W        W47356  12.230  40.423   3.646
85991W        W47357  16.170   5.221  14.760
85992W        W47358  26.638  23.117  13.528
85993W        W47359  24.973  43.943  10.994
85994W        W47360  17.620  33.436  11.007
85995W        W47361   1.345   7.255   0.802
85996W        W47362  34.464  19.126   1.352
85997W        W47363  29.654  28.993  14.848
85998W        W47364  29.487  14.133  14.302
85999W        W47365  22.724  24.047   2.717
86000W        W47366  38.001  25.582  13.948
86001W        W47367  24.067   7.866  12.966
86002W        W47368  42.448  44.984   3.184
86003W        W47369  29.987  24.662  13.520
86004W        W47370   8.259  19.541  10.512
86005W        W47371  19.737  18.583   1.252
86006W        W47372  35.449   4.864  12.395
86007W        W47373  19.654  25.545  10.938
86008W        W47374  13.756  39.982   2.681
86009W        W47375  39.428   6.775  12.036
86010W        W47376  31.120  15.625  10.088
86011W        W47377   9.809   0.914   2.758
86012W        W47378  43.415  19.682  14.896
86013W        W47379  15.309  38.536  11.562
86014W        W47380   2.235   1.757   5.294
86015W        W47381  24.033  16.811  12.453
86016W        W47382  18.195   6.213   0.883
86017W        W47383  29.498  43.450  11.446
86018W        W47384  14.218  41.919  13.391
86019W        W47385  29.431  44.270  14.334
86020W        W47386  41.456  24.623   4.703
86021W        W47387   7.329  10.311   4.714
86022W        W47388  32.547  11.671  13.382
86023W        W47389  16.114  42.012  13.507
86024W        W47390  13.802  41.523   3.651
86025W        W47391   3.218  34.441  13.477
86026W        W47392  32.503   6.317   1.917
86027W        W47393  21.132  20.636  12.421
86028W        W47394  18.604  39.993   3.802
86029W        W47395  12.613  17.637  10.948
86030W        W47396  34.941  38.039  13.339
86031W        W47397   9.320  35.856   0.809
86032W        W47398  30.450  29.087  13.427
86033W        W47399   5.270  14.165   0.300
86034W        W47400  36.884  27.943   0.743
86035W        W47401  33.033   7.315   3.385
86036W        W47402  11.177  39.946   3.273
86037W        W47403  30.019  41.999  14.394
86038W        W47404   1.326  36.351  14.392
86039W        W47405   8.789  21.543  13.333
86040W        W47406  15.166  40.000   0.375
86041W        W47407  42.377  29.153   1.417
86042W        W47408   8.326  32.412  14.475
86043W        W47409  41.463  22.560   3.250
86044W        W47410  25.638  30.070   3.693
86045W        W47411  40.813  41.392   0.731
86046W        W47412  14.282   7.203  11.903
86047W        W47413   1.872  20.029  14.775
86048W        W47414  11.300  17.770  11.452
86049W        W47415  44.756  23.059   1.864
86050W        W47416  35.963   0.757  11.024
86051W        W47417  25.079  35.519   1.759
86052W        W47418  16.257  14.117   0.263
86053W        W47419   0.957  25.970  10.506
86054W        W47420  16.615  23.503  12.480
86055W        W47421  22.591  43.973   4.779
86056W        W47422  37.067  28.456   4.672
86057W        W47423  20.590   1.781  14.886
86058W        W47424  28.527  27.690   1.794
86059W        W47425  27.584  25.683   3.696
86060W        W47426   0.380  10.172   2.315
86061W        W47427  11.664  41.437  10.105
86062W        W47428  27.477  23.532   1.935
86063W        W47429  44.950  25.970  13.891
86064W        W47430  34.107  38.899   0.417
86065W        W47431   2.934  37.974  13.385
86066W        W47432   1.822  41.810   2.832
86067W        W47433  26.128  35.003   2.404
86068W        W47434  35.503  30.621  10.497
86069W        W47435  15.243  29.435   4.219
86070W        W47436  15.197   0.274  12.033
86071W        W47437   7.381   7.187  13.529
86072W        W47438  28.932  35.485   2.865
86073W        W47439  19.211  16.288  10.065
86074W        W47440  35.518  19.535   1.261
86075W        W47441   7.376   3.284  10.504
86076W        W47442  38.864  20.525  10.908
86077W        W47443  42.367  33.928  13.520
86078W        W47444  16.761  18.719   4.255
86079W        W47445  35.450   7.748   1.408
86080W        W47446  29.037  26.953  10.487
86081W        W47447  10.650  34.877   1.252
86082W        W47448  29.137  28.437  10.528
86083W        W47449  35.109  27.076   3.221
86084W        W47450   9.253   0.902   1.428
86085W        W47451  20.666   9.691   1.237
86086W        W47452  42.925  36.488  13.803
86087W        W47453   0.286  40.480   2.713
86088W        W47454  43.472   9.684   3.736
86089W        W47455  25.557  15.609  13.528
86090W        W47456  10.658  39.842  12.962
86091W        W47457   2.472   4.745  14.382
86092W        W47458  20.699  12.194  10.494
86093W        W47459  31.951  24.640  12.064
86094W        W47460  22.239  25.104   0.250
86095W        W47461  26.063  41.950  12.555
86096W        W47462  34.443  36.501  12.931
86097W        W47463  23.644  22.093  13.402
86098W        W47464  40.402  37.376   4.284
86099W        W47465  44.870  35.402   3.288
86100W        W47466  33.567   3.327   0.357
86101W        W47467  13.153   6.852   4.329
86102W        W47468   9.358   6.260  12.385
86103W        W47469  43.897   4.319   0.378
86104W        W47470  30.561  31.634  14.827
86105W        W47471  41.892  25.184  13.918
86106W        W47472  38.408  24.633  12.905
86107W        W47473  26.484   5.237   1.742
86108W        W47474   0.915  13.316   2.273
86109W        W47475  38.384  44.948  13.026
86110W        W47476  18.159  21.214   0.382
86111W        W47477  38.361  25.974  13.354
86112W        W47478  18.643  28.057   9.953
86113W        W47479   6.708  33.051  14.894
86114W        W47480  36.572  25.153  11.481
86115W        W47481  37.066  37.847  14.838
86116W        W47482   7.381   8.239  14.792
86117W        W47483  20.045  10.264  10.090
86118W        W47484  22.741  28.166  14.860
86119W        W47485  29.943  13.278  13.993
86120W        W47486  32.082  43.004   3.296
86121W        W47487  26.584  20.714   4.337
86122W        W47488  15.188  41.415  12.065
86123W        W47489  28.582  18.763  11.005
86124W        W47490  39.361   3.775  10.975
86125W        W47491  18.062  30.590   3.798
86126W        W47492  25.102  30.993   4.670
86127W        W47493   8.381  26.077  13.403
86128W        W47494  43.788  38.043   0.274
86129W        W47495  42.296  21.193  12.530
86130W        W47496  11.681  33.065  14.836
86131W        W47497  10.264   1.842  13.399
86132W        W47498  43.981  17.710  13.861
86133W        W47499  11.275  31.986   2.305
86134W        W47500  36.463  26.703  11.072
86135W        W47501  32.406  22.640   0.332
86136W        W47502  20.665  37.490   1.717
86137W        W47503  35.420  29.528  10.921
86138W        W47504  11.299  44.788  12.991
86139W        W47505  27.678   0.886   0.923
86140W        W47506  21.055  43.803  12.035
86141W        W47507  38.458  27.064  12.868
86142W        W47508  42.481  28.615   2.901
86143W        W47509  23.104  18.607   2.400
86144W        W47510  22.241   3.925  11.865
86145W        W47511  24.533  13.173   4.719
86146W        W47512  11.243  42.998   4.151
86147W        W47513   5.330  26.965  11.595
86148W        W47514  29.020  42.966  10.632
86149W        W47515  37.459  20.768   2.342
86150W        W47516  11.311  30.587   4.147
86151W        W47517  36.562  35.902  12.067
86152W        W47518   3.919  15.726  13.548
86153W        W47519   3.871  35.460  10.995
86154W        W47520  13.812  26.136   1.896
86155W        W47521   8.783   1.795   0.880
86156W        W47522   0.281  40.918   3.750
86157W        W47523  10.749  17.692   0.331
86158W        W47524  19.139  10.187  12.405
86159W        W47525  33.622  24.643   9.959
86160W        W47526  25.974   1.297   3.800
86161W        W47527  40.038  13.836  10.421
86162W        W47528   7.901  29.013   0.378
86163W        W47529   3.874  22.603  12.390
86164W        W47530  32.474  19.100   3.382
86165W        W47531  44.472  17.636   0.387
86166W        W47532   8.830  23.088   2.243
86167W        W47533   2.905  26.694   4.755
86168W        W47534  19.780  30.056   2.870
86169W        W47535   3.775  33.954   1.439
86170W        W47536  35.601  42.816   3.318
86171W        W47537   7.901   8.682  13.941
86172W        W47538  21.101  18.632   3.292
86173W        W47539  41.522  25.088   2.389
86174W        W47540   7.912  12.346  13.818
86175W        W47541  33.959  28.093   0.830
86176W        W47542   5.879  19.731  11.505
86177W        W47543   7.344   4.291   9.546
86178W        W47544  38.371  34.100   0.906
86179W        W47545  35.970  14.332  12.501
86180W        W47546  29.043   2.771  13.422
86181W        W47547  17.641  28.037   0.883
86182W        W47548  44.997  14.659  12.436
86183W        W47549  19.661  11.357   2.860
86184W        W47550  33.064  21.228   2.243
86185W        W47551   5.415  11.700  11.992
86186W        W47552  14.644  38.005   4.303
86187W        W47553  32.061   1.731   2.706
86188W        W47554  17.689  18.072  13.810
86189W        W47555  12.644  19.667  12.961
86190W        W47556   5.377  37.930  10.949
86191W        W47557  21.086  24.602  13.935
86192W        W47558  12.152   0.492   1.719
86193W        W47559   4.209  22.175   2.674
86194W        W47560   4.734   7.341  11.556
86195W        W47561   4.388  33.036  12.440
86196W        W47562  36.950   2.298  13.817
86197W        W47563  42.865  11.252   1.921
86198W        W47564  10.804  30.569   4.796
86199W        W47565  36.939   7.816   3.741
86200W        W47566  25.016  19.715   1.863
86201W        W47567  21.682  25.595   0.803
86202W        W47568  14.754  26.991  12.987
86203W        W47569  11.643   7.195   3.630
86204W        W47570  22.142   7.753   2.775
86205W        W47571   2.773  22.718   0.279
86206W        W47572  30.567  23.116  12.512
86207W        W47573  19.153  34.375   4.616
86208W        W47574  13.281  32.129   5.582
86209W        W47575   6.422  12.642   0.771
86210W        W47576  41.469  15.616  11.968
86211W        W47577   5.924   0.252   3.290
86212W        W47578   2.923  20.564   0.299
86213W        W47579  33.029  41.444   0.883
86214W        W47580  15.665   1.439   5.316
86215W        W47581  14.203   4.915  11.054
86216W        W47582  13.826  30.547   0.379
86217W        W47583  28.167  37.835  10.101
86218W        W47584   0.264  42.512   1.417
86219W        W47585  31.449  27.583  14.781
86220W        W47586  38.475   3.243  11.582
86221W        W47587   9.243  12.740  14.297
86222W        W47588   5.915   8.360   1.721
86223W        W47589  22.541   1.472   3.641
86224W        W47590  41.794  42.426   2.210
86225W        W47591  23.003  16.201   3.866
86226W        W47592   8.356   9.801  13.934
86227W        W47593  44.300  35.398  12.437
86228W        W47594  17.288  31.512  13.855
86229W        W47595  39.413  11.243   2.232
86230W        W47596  27.026  33.059  14.777
86231W        W47597  11.853  34.479   4.210
86232W        W47598  37.387  15.734  14.291
86233W        W47599  31.944  40.538  13.398
86234W        W47600  14.629   2.465  13.338
86235W        W47601  29.979  22.078   4.838
86236W        W47602   9.308  15.277  12.873
86237W        W47603  41.890  12.277   4.285
86238W        W47604  32.525  32.078   2.699
86239W        W47605  24.593   7.882  11.086
86240W        W47606  17.237  12.706  11.905
86241W        W47607  18.725  34.995   2.342
86242W        W47608  25.515  13.344   4.663
86243W        W47609  12.655  10.868   4.331
86244W        W47610  40.805  21.755  10.531
86245W        W47611   3.322   4.899  12.944
86246W        W47612  19.673   2.440  14.813
86247W        W47613  37.883  29.446  11.935
86248W        W47614   7.215  34.597   2.269
86249W        W47615  31.487   6.807  12.437
86250W        W47616  19.210   0.841   3.279
86251W        W47617  36.862  35.998  12.826
86252W        W47618   4.797  16.709  12.359
86253W        W47619   1.965  16.077   2.211
86254W        W47620   7.673  32.100   0.307
86255W        W47621  44.879  10.217  13.883
86256W        W47622  18.055  29.115   1.351
86257W        W47623  16.812  41.451   3.735
86258W        W47624  30.457  10.703   0.737
86259W        W47625  34.412   5.371   0.349
86260W        W47626  31.431  40.813   4.837
86261W        W47627  23.217   1.286   2.184
86262W        W47628  43.883   6.733  12.350
86263W        W47629  14.753  14.226  13.350
86264W        W47630   4.768   1.821   1.790
86265W        W47631  27.587  23.501  13.523
86266W        W47632  30.596  39.383  10.595
86267W        W47633  16.136  35.461  12.029
86268W        W47634  33.956  21.143  13.461
86269W        W47635  40.924  38.959   4.147
86270W        W47636   2.273  32.391   3.799
86271W        W47637  29.983  15.197  13.418
86272W        W47638   9.232  15.666   1.903
86273W        W47639  12.715  39.410  13.498
86274W        W47640   6.337  30.140  10.100
86275W        W47641  30.093   1.768   1.268
86276W        W47642  20.751  40.825  10.454
86277W        W47643  11.267  15.703   3.267
86278W        W47644  44.790  22.641   4.624
86279W        W47645  28.973  34.085  12.350
86280W        W47646  14.726  28.586  14.894
86281W        W47647  34.937   8.313  12.376
86282W        W47648  43.897  33.107   2.748
86283W        W47649  15.749  18.584  10.922
86284W        W47650  19.701  13.179   4.142
86285W        W47651  26.981  27.452  11.868
86286W        W47652  14.649   9.388   1.412
86287W        W47653  18.560  20.203  12.548
86288W        W47654  20.031  12.206   2.719
86289W        W47655  21.042  32.585   9.950
86290W        W47656   5.225  17.573   0.786
86291W        W47657   9.393  13.772  12.852
86292W        W47658  26.181  44.300   0.290
86293W        W47659  12.292  36.373   2.354
86294W        W47660  34.928  17.256  12.357
86295W        W47661  14.209  33.502  14.917
86296W        W47662  39.479   9.276   2.411
86297W        W47663   7.884  16.649   1.804
86298W        W47664   2.902  37.375   4.832
86299W        W47665  20.547  13.780   4.722
86300W        W47666  12.339  39.972  11.570
86301W        W47667  40.956  16.178  12.443
86302W        W47668   7.838  27.943   3.706
86303W        W47669  42.980   8.188   1.219
86304W        W47670  37.046   2.309  12.921
86305W        W47671  32.011  38.875  14.865
86306W        W47672  39.989   7.370  11.501
86307W        W47673   2.827  21.579   0.828
86308W        W47674   0.265  16.183   1.407
86309W        W47675  21.619  23.564  13.949
86310W        W47676  33.968   8.195  14.485
86311W        W47677  37.566   0.945  11.476
86312W        W47678  40.841  12.318  11.899
86313W        W47679  16.670  11.667   1.416
86314W        W47680  31.594  30.456   1.434
86315W        W47681   3.793  14.201   4.212
86316W        W47682  10.289   4.871  13.027
86317W        W47683  29.944  25.562  11.420
86318W        W47684  25.963   6.404  10.912
86319W        W47685  28.143  31.989  13.521
86320W        W47686  20.607   3.793   4.832
86321W        W47687   1.421  36.422   2.334
86322W        W47688  11.840  41.318   3.259
86323W        W47689   0.974  16.316   2.731
86324W        W47690  23.577  29.088   0.305
86325W        W47691  34.996  38.339  11.090
86326W        W47692  15.604  12.327  13.426
86327W        W47693   0.929   4.447  12.480
86328W        W47694  35.368   1.806  13.064
86329W        W47695  11.333  29.528  14.805
86330W        W47696  13.158  17.270  10.488
86331W        W47697  28.484  11.749   2.213
86332W        W47698  27.536  26.699  14.297
86333W        W47699  33.479  25.216  10.127
86334W        W47700  27.510  40.376   2.778
86335W        W47701  16.653  17.636   1.926
86336W        W47702   2.436  33.130  12.350
86337W        W47703   3.860  12.688   5.211
86338W        W47704  36.065  42.854  13.314
86339W        W47705   0.485  37.456  11.080
86340W        W47706  36.465  43.408  10.893
86341W        W47707  23.230  29.638   0.347
86342W        W47708  12.783  30.444   4.124
86343W        W47709  37.908  23.012   1.248
86344W        W47710  21.107  36.526   2.874
86345W        W47711  35.505  14.814   1.839
86346W        W47712  21.101  26.995   0.333
86347W        W47713   7.320  21.535   3.304
86348W        W47714   5.816  14.101   3.225
86349W        W47715  25.623   7.776   4.119
86350W        W47716  41.007  37.399   4.308
86351W        W47717  42.919  36.355  13.056
86352W        W47718  40.832  36.532   1.248
86353W        W47719  29.460  36.024   2.244
86354W        W47720  40.380  10.369   0.900
86355W        W47721  31.571  15.249   3.808
86356W        W47722  41.465   0.819  12.468
86357W        W47723   9.214  23.724   4.727
86358W        W47724  37.028   0.861   4.645
86359W        W47725  35.869  18.217   0.823
86360W        W47726  26.991  17.097   4.769
86361W        W47727  33.998  29.925   4.159
86362W        W47728  17.717  27.478  13.325
86363W        W47729  24.002  32.931  14.370
86364W        W47730  17.567   3.888   1.317
86365W        W47731  13.333  33.456  11.398
86366W        W47732  28.128  43.926   1.270
86367W        W47733  11.734  21.748   2.667
86368W        W47734  36.033  23.104  13.479
86369W        W47735  28.465  10.756   4.813
86370W        W47736  44.943  27.618  14.422
86371W        W47737  23.000  20.717  12.963
86372W        W47738  42.415   1.757  11.457
86373W        W47739  34.097   6.695   4.202
86374W        W47740   7.201  16.295  14.411
86375W        W47741  39.371  28.639  14.012
86376W        W47742  37.004  26.581  14.483
86377W        W47743  33.030  11.138   3.222
86378W        W47744  12.357  34.004   4.754
86379W        W47745  34.523  27.676   0.791
86380W        W47746  32.046  18.592  14.370
86381W        W47747  30.627  28.933   2.258
86382W        W47748  24.717  41.524  11.538
86383W        W47749   7.239   2.763  13.890
86384W        W47750  39.348   3.839   1.824
86385W        W47751  39.961   6.267   3.246
86386W        W47752  17.569  20.602   4.312
86387W        W47753  35.862  31.955   4.679
86388W        W47754  15.581  14.779  12.530
86389W        W47755   5.291  19.046   4.770
86390W        W47756  20.058   4.838   3.166
86391W        W47757  25.498  15.172   0.898
86392W        W47758  36.442  42.828   4.743
86393W        W47759  43.793  36.472  11.119
86394W        W47760  39.484  27.450   1.745
86395W        W47761  28.621  17.091   1.267
86396W        W47762   7.675  15.250   1.801
86397W        W47763  10.753  36.387   1.902
86398W        W47764  34.542  13.129   1.900
86399W        W47765   7.673  27.508  14.297
86400W        W47766  25.092   1.973  14.011
86401W        W47767  27.190  42.448  11.524
86402W        W47768  21.091  42.930  12.986
86403W        W47769  28.675  23.123   3.373
86404W        W47770  13.134  10.824  10.976
86405W        W47771  10.853  32.453   5.630
86406W        W47772   2.782   8.187  12.066
86407W        W47773  11.236   7.223  13.428
86408W        W47774  30.061  20.151   3.367
86409W        W47775  28.482  39.874  12.009
86410W        W47776  13.344  35.012   0.286
86411W        W47777  36.070  19.590   0.377
86412W        W47778  41.031  27.595   1.774
86413W        W47779  26.507   1.950  10.535
86414W        W47780  27.051   3.927   0.866
86415W        W47781  17.288  19.682  11.467
86416W        W47782  32.131  39.968   9.606
86417W        W47783  42.467  38.490  14.774
86418W        W47784   5.802  12.301  14.454
86419W        W47785  20.769  17.211  14.470
86420W        W47786  17.616  22.637  11.427
86421W        W47787  37.501  40.950  13.928
86422W        W47788   4.360   2.371  12.915
86423W        W47789  28.681  42.949   2.211
86424W        W47790   9.846  44.286  12.475
86425W        W47791   8.174  34.939  14.383
86426W        W47792  31.937  21.643   1.229
86427W        W47793  32.556  44.767   4.160
86428W        W47794  37.064  15.796  12.426
86429W        W47795  43.446  18.170   0.781
86430W        W47796   8.300  25.041  12.396
86431W        W47797  38.340  44.962  10.509
86432W        W47798  10.296  23.492   0.433
86433W        W47799  22.512  37.853   4.629
86434W        W47800  14.731  39.871   0.909
86435W        W47801  35.559  19.562  14.466
86436W        W47802   4.388  41.863   3.380
86437W        W47803  23.203  14.214  12.506
86438W        W47804  44.972  32.399  13.819
86439W        W47805   9.244   4.431  10.508
86440W        W47806   5.216  31.473  10.421
86441W        W47807  16.774  14.757  11.995
86442W        W47808  34.529   8.829   4.819
86443W        W47809  12.222  39.449   3.326
86444W        W47810  18.260  28.100   2.775
86445W        W47811  15.712  36.067   3.382
86446W        W47812  43.376  24.130  14.295
86447W        W47813  32.997  43.938  13.995
86448W        W47814  33.589  34.035  12.861
86449W        W47815  42.789   6.185  12.058
86450W        W47816  44.781  10.346  12.352
86451W        W47817  37.489  41.009   0.896
86452W        W47818  12.339  24.143   3.747
86453W        W47819  20.551  18.233  11.869
86454W        W47820   3.458   9.239   3.209
86455W        W47821  24.721  34.422  13.057
86456W        W47822  37.839   2.876  12.539
86457W        W47823   8.223  39.319   2.395
86458W        W47824  30.429  21.093   5.117
86459W        W47825  21.211  23.592   3.279
86460W        W47826  34.433  27.516   1.934
86461W        W47827  24.164  43.494  13.795
86462W        W47828   4.882  27.076  12.907
86463W        W47829  31.050  22.142  12.095
86464W        W47830  40.961  23.158  13.791
86465W        W47831  30.127  42.007  13.469
86466W        W47832  15.794  11.801  14.474
86467W        W47833  13.724  24.003  10.423
86468W        W47834  35.428  38.462   1.916
86469W        W47835  25.558  44.306  12.086
86470W        W47836  44.305  24.015  13.435
86471W        W47837  44.312  23.735   2.209
86472W        W47838   0.430  21.536   4.681
86473W        W47839  43.902  34.079   2.231
86474W        W47840  36.986   9.750  14.809
86475W        W47841  22.529   2.307  11.103
86476W        W47842  38.071  28.980  14.936
86477W        W47843  26.202  25.162  11.498
86478W        W47844  35.930  34.452  10.634
86479W        W47845  30.996   1.923  10.951
86480W        W47846  37.425  12.843  10.994
86481W        W47847  26.133  31.639  10.584
86482W        W47848  38.363  10.304   0.387
86483W        W47849  43.514  23.735  12.937
86484W        W47850  44.832   7.318   4.247
86485W        W47851  15.096  26.138  10.414
86486W        W47852   2.756  29.936   0.820
86487W        W47853  11.814  20.647  10.616
86488W        W47854  34.112  16.805  12.958
86489W        W47855  38.568   1.832  10.567
86490W        W47856   0.482  31.461   4.145
86491W        W47857   5.395  32.995   0.303
86492W        W47858  38.972  29.547   3.779
86493W        W47859  18.775  21.674   1.729
86494W        W47860  42.938  35.978   2.875
86495W        W47861  25.559  22.192  12.385
86496W        W47862  41.829  36.878  13.481
86497W        W47863  14.651  17.249  11.429
86498W        W47864  22.023   3.345  14.024
86499W        W47865  29.616  16.192   4.715
86500W        W47866   4.384  19.780  10.436
86501W        W47867  11.802   3.391   3.750
86502W        W47868   5.373  19.627  14.346
86503W        W47869  23.581  26.678   0.870
86504W        W47870  33.533  16.217  12.007
86505W        W47871  33.547  10.689   4.790
86506W        W47872  20.601  24.212  13.833
86507W        W47873  30.650  19.262   4.774
86508W        W47874  40.516   4.835   4.748
86509W        W47875  32.467  25.989  14.784
86510W        W47876  44.295   5.820   0.269
86511W        W47877  12.126  44.347  13.801
86512W        W47878   6.260  17.192   0.243
86513W        W47879   5.881  36.544   0.393
86514W        W47880   3.399  41.915   0.259
86515W        W47881   7.849  24.530   1.872
86516W        W47882  25.611  40.929   1.852
86517W        W47883  30.951  33.584   0.289
86518W        W47884  27.455  33.919  14.509
86519W        W47885  30.438   3.353  11.080
86520W        W47886  42.884  33.439   4.756
86521W        W47887  39.869   1.903  14.906
86522W        W47888  30.535   8.227   4.703
86523W        W47889  33.420  42.311   3.349
86524W        W47890  34.472  16.162   0.346
86525W        W47891  43.950  30.157   3.708
86526W        W47892  42.941  44.785   0.893
86527W        W47893   5.388  12.124   1.377
86528W        W47894  22.248  39.043   0.399
86529W        W47895  26.133  40.946   3.383
86530W        W47896  30.112  32.634   0.264
86531W        W47897  16.106   7.182  12.824
86532W        W47898  35.575  29.041  12.392
86533W        W47899  22.608   7.203   4.722
86534W        W47900  42.896   6.685  14.892
86535W        W47901  26.131  25.523   1.736
86536W        W47902   4.743  18.671   0.335
86537W        W47903  31.006   4.443  10.643
86538W        W47904   3.391  24.591   0.898
86539W        W47905  11.623  38.367  11.021
86540W        W47906  33.442  29.088   3.265
86541W        W47907  19.053  26.662  11.491
86542W        W47908  13.780  39.858   4.777
86543W        W47909  12.717  15.325   2.771
86544W        W47910  36.083  14.218   1.363
86545W        W47911   6.691  27.964   2.739
86546W        W47912  24.504  19.043  11.031
86547W        W47913  36.443  18.626  12.984
86548W        W47914  11.309  16.166   2.684
86549W        W47915   8.195   1.398  13.445
86550W        W47916  23.590  21.620  12.541
86551W        W47917  12.212   0.411  10.408
86552W        W47918   7.203  37.532  10.636
86553W        W47919  44.458  44.929  10.990
86554W        W47920  29.115  27.523  10.895
86555W        W47921  10.311  41.013  14.290
86556W        W47922   2.811  40.952   3.329
86557W        W47923   5.428  34.474   2.410
86558W        W47924  21.172   9.162  13.544
86559W        W47925  25.665  27.632  13.838
86560W        W47926  18.735  44.798  11.607
86561W        W47927  33.006  44.290   2.241
86562W        W47928  33.404  22.163  12.376
86563W        W47929  24.090  26.559   3.792
86564W        W47930  12.755   1.920   4.266
86565W        W47931  32.931   5.728  14.972
86566W        W47932  28.621  22.703  11.527
86567W        W47933  39.391  19.199   4.179
86568W        W47934  32.901   8.170   0.387
86569W        W47935  16.147   7.239  10.921
86570W        W47936  18.053  11.142   2.258
86571W        W47937  22.542  10.775   3.326
86572W        W47938  23.680  13.716  13.967
86573W        W47939  23.175   1.761  10.970
86574W        W47940  31.492  37.964   2.664
86575W        W47941  30.578  30.112  11.118
86576W        W47942  22.578  34.007   1.308
86577W        W47943  25.118  24.499  14.986
86578W        W47944  38.387  39.385  13.412
86579W        W47945  25.567  20.632  13.420
86580W        W47946  13.846  34.543  13.010
86581W        W47947  25.551  44.928   1.744
86582W        W47948   4.247  34.553  14.001
86583W        W47949   3.754  20.063   1.927
86584W        W47950   9.227  29.494   0.255
86585W        W47951  34.963  16.790   4.641
86586W        W47952  37.959  43.386  11.107
86587W        W47953  30.909  31.643  10.919
86588W        W47954   4.736  42.949   2.739
86589W        W47955  22.672  38.361   3.211
86590W        W47956  38.030   2.353  13.450
86591W        W47957  17.246   6.865  14.348
86592W        W47958  39.890  35.021   0.788
86593W        W47959  11.311  35.363   2.216
86594W        W47960  36.472  39.889   2.899
86595W        W47961  15.140  44.757  13.376
86596W        W47962   4.764  20.211  10.482
86597W        W47963  14.615  43.836  12.482
86598W        W47964  23.992   4.341   0.350
86599W        W47965  28.009  10.273   3.762
86600W        W47966  17.274  24.543  14.824
86601W        W47967   3.406  21.063   4.675
86602W        W47968  43.449  29.988  14.763
86603W        W47969  42.986  43.009   4.598
86604W        W47970  11.813  18.175   0.771
86605W        W47971  27.020  24.605  12.508
86606W        W47972  29.575   0.907  14.795
86607W        W47973  22.527  30.599  14.391
86608W        W47974  17.155  19.764   3.871
86609W        W47975  21.250  40.913  11.478
86610W        W47976  41.787   5.867  13.446
86611W        W47977   9.239  38.480   3.155
86612W        W47978  18.631  29.430   2.858
86613W        W47979   3.425   9.283  14.412
86614W        W47980  23.214  17.603   2.855
86615W        W47981   6.910  20.250   0.866
86616W        W47982   7.807  22.725  12.473
86617W        W47983  32.953  18.591   1.776
86618W        W47984  15.792   7.862  12.989
86619W        W47985  24.521  29.117   0.282
86620W        W47986   6.744  23.526   1.815
86621W        W47987  14.667   2.890  10.419
86622W        W47988  22.155  36.542   0.451
86623W        W47989  12.683  29.525   2.264
86624W        W47990  15.696  19.763   1.335
86625W        W47991   9.659   7.676   3.806
86626W        W47992   7.353  33.965  14.767
86627W        W47993  24.071  36.044   2.669
86628W        W47994  32.430   1.357   2.812
86629W        W47995  33.105  41.374  10.094
86630W        W47996  33.570  32.497   1.416
86631W        W47997   6.697  29.155  13.801
86632W        W47998  27.999  18.240   1.358
86633W        W47999   9.267  31.043  14.323
86634W        W48000  27.516  36.082   3.839
86635W        W48001  32.066  29.615   4.671
86636W        W48002  26.548  11.209  10.130
86637W        W48003  31.958  28.450  10.911
86638W        W48004  14.683   4.806   1.914
86639W        W48005  41.805   5.261   3.641
86640W        W48006   6.188  38.473  12.079
86641W        W48007  44.358  21.535  11.955
86642W        W48008  13.152  27.673   0.864
86643W        W48009  28.483  20.068   5.110
86644W        W48010  33.568  40.931  14.941
86645W        W48011  40.388   4.903   2.260
86646W        W48012  32.560  23.079   0.923
86647W        W48013  16.601  27.492   0.329
86648W        W48014  30.965  27.148  12.421
86649W        W48015  35.939  18.118  14.361
86650W        W48016  26.191   8.861   4.732
86651W        W48017   9.712  15.818  12.046
86652W        W48018   3.755  27.646   5.215
86653W        W48019  25.132   9.796   2.667
86654W        W48020  40.493  19.093   0.259
86655W        W48021  27.951  22.747  12.569
86656W        W48022   6.754  20.633   3.855
86657W        W48023  43.773  20.254   2.404
86658W        W48024   8.825  36.968   4.324
86659W        W48025  23.614  12.636   4.622
86660W        W48026  35.045  44.479   0.483
86661W        W48027  33.921  19.663   1.862
86662W        W48028   4.288  12.264   0.356
86663W        W48029  37.846  16.709  13.001
86664W        W48030  33.018  26.517   0.332
86665W        W48031  34.385   6.691  12.476
86666W        W48032  12.679  34.071   0.784
86667W        W48033  39.428  43.326  11.430
86668W        W48034  31.501  19.251   4.233
86669W        W48035  20.275   5.758   0.295
86670W        W48036  19.543  11.686  11.884
86671W        W48037   7.384  30.635  13.902
86672W        W48038  38.462   0.834  13.447
86673W        W48039  11.244   4.297   1.343
86674W        W48040  18.606  29.050  12.503
86675W        W48041  13.267  14.757  14.030
86676W        W48042  20.748  16.201  12.486
86677W        W48043  14.655  35.402   3.174
86678W        W48044  10.365  13.192   3.226
86679W        W48045  23.191  40.844   4.328
86680W        W48046  12.654  12.643  12.846
86681W        W48047  17.753  21.735  12.569
86682W        W48048  32.107  30.556   1.749
86683W        W48049  33.045  19.663  12.975
86684W        W48050  14.641  36.569   0.276
86685W        W48051  40.005  41.406  12.422
86686W        W48052   4.702  42.472  14.500
86687W        W48053  23.067  39.964   0.435
86688W        W48054  10.825   9.724  11.581
86689W        W48055  40.474  15.712   3.739
86690W        W48056  32.580   7.714   2.212
86691W        W48057  43.384  24.185  13.009
86692W        W48058  11.710  28.979  13.859
86693W        W48059  22.676  30.567   4.819
86694W        W48060   5.778  34.460  11.044
86695W        W48061  21.733  26.056  11.380
86696W        W48062  43.864  31.421   1.829
86697W        W48063   0.450  20.731   3.151
86698W        W48064   0.465   3.310   5.174
86699W        W48065   8.751  11.779  14.962
86700W        W48066  38.049  18.112   2.859
86701W        W48067  27.510  24.191   2.373
86702W        W48068  23.006  34.066   0.470
86703W        W48069  38.001  40.861  11.109
86704W        W48070  26.626  30.995  14.501
86705W        W48071  38.417   1.392  11.498
86706W        W48072  22.692  12.203  12.004
86707W        W48073  44.974  18.159   4.147
86708W        W48074  42.424  12.627  12.903
86709W        W48075  30.647  31.100  12.448
86710W        W48076  40.813  26.602  14.371
86711W        W48077   4.238   2.737   4.149
86712W        W48078  27.689  30.480   3.369
86713W        W48079  23.037  22.603  13.815
86714W        W48080  17.736  28.461   3.288
86715W        W48081   0.447  34.538  12.031
86716W        W48082  42.312  35.062   0.831
86717W        W48083  39.421  42.395  14.497
86718W        W48084  18.248  24.076  11.027
86719W        W48085  14.215  16.669  13.505
86720W        W48086  32.622   2.924  11.972
86721W        W48087   5.788  28.991   2.355
86722W        W48088  14.208  13.615  13.056
86723W        W48089  19.047  14.315  10.118
86724W        W48090  40.001   5.263   0.925
86725W        W48091   3.421  12.197   2.244
86726W        W48092  38.909  25.102   2.879
86727W        W48093  39.440  17.560   4.327
86728W        W48094   0.437  30.909  12.861
86729W        W48095  21.138  10.360  12.845
86730W        W48096  19.154  27.477  13.370
86731W        W48097  12.675  27.567  13.891
86732W        W48098   0.420  22.504   1.261
86733W        W48099  36.357  23.615   4.314
86734W        W48100   1.784  13.711   3.804
86735W        W48101  35.380   1.310   0.909
86736W        W48102  36.426   4.393   4.159
86737W        W48103  24.658  39.466   0.736
86738W        W48104  25.038   3.903   1.265
86739W        W48105  15.221  20.728   4.598
86740W        W48106  36.950  43.450   2.242
86741W        W48107  33.883  35.107  12.403
86742W        W48108  17.115  19.075  12.404
86743W        W48109   1.911  29.133   4.708
86744W        W48110  25.654  33.450  13.998
86745W        W48111  26.579   0.861  12.492
86746W        W48112  16.241   8.249   4.617
86747W        W48113   5.777   6.833   2.213
86748W        W48114  16.211  14.771  13.537
86749W        W48115  38.397  44.789   0.337
86750W        W48116  26.508   6.815  11.865
86751W        W48117  30.161   9.809   2.331
86752W        W48118  21.681  32.095   0.440
86753W        W48119  11.768  30.038   4.816
86754W        W48120  30.555  15.317   3.244
86755W        W48121  13.674  18.737   2.866
86756W        W48122  13.707  27.103  11.992
86757W        W48123  37.341  20.055  13.044
86758W        W48124  38.035  20.671   3.182
86759W        W48125  35.029  22.193   1.414
86760W        W48126  40.538   5.737   2.372
86761W        W48127   6.236  22.568  10.900
86762W        W48128  13.844  37.350   9.981
86763W        W48129  17.604  34.567  11.991
86764W        W48130  19.738  22.176   0.384
86765W        W48131  24.002  14.188  13.030
86766W        W48132  40.945  33.086   3.189
86767W        W48133  19.605  18.117  13.055
86768W        W48134  23.505  30.469  14.408
86769W        W48135  26.478  29.627   0.344
86770W        W48136  27.470  32.896   0.813
86771W        W48137   8.711  20.086  14.461
86772W        W48138  15.197  10.210  13.463
86773W        W48139   1.867  29.086  10.460
86774W        W48140  13.119  44.477  12.095
86775W        W48141  26.598  30.451  10.594
86776W        W48142   8.189   8.774  13.320
86777W        W48143  25.645  11.193   0.408
86778W        W48144   1.340  26.125   5.087
86779W        W48145  38.935   5.209  10.531
86780W        W48146  27.462   4.349  11.095
86781W        W48147   5.352   4.356  14.421
86782W        W48148  30.477  32.081   2.735
86783W        W48149   2.797  29.977  13.953
86784W        W48150  37.949  16.187  11.013
86785W        W48151   3.885   0.916  12.381
86786W        W48152  24.153  25.611   0.423
86787W        W48153  21.580  28.501  11.560
86788W        W48154  37.887  35.107   4.642
86789W        W48155   3.768  25.549  14.815
86790W        W48156   9.822  38.504   2.270
86791W        W48157  26.096  31.143  13.489
86792W        W48158  41.347  27.671  14.388
86793W        W48159  28.512  27.107  12.063
86794W        W48160  14.666   0.299   1.309
86795W        W48161   0.874  44.807   1.238
86796W        W48162  30.999   5.821   1.377
86797W        W48163  28.563  20.628   0.959
86798W        W48164   1.436  27.096  12.899
86799W        W48165   1.803  36.980  11.612
86800W        W48166  18.191  26.039   2.859
86801W        W48167   2.965  25.131   2.857
86802W        W48168  22.140   1.294   4.165
86803W        W48169  39.042   0.419  11.979
86804W        W48170  23.599   1.339   3.197
86805W        W48171   4.918  40.539   0.804
86806W        W48172  25.973  33.615   0.310
86807W        W48173   7.783  14.789   0.362
86808W        W48174   9.720  32.595  12.899
86809W        W48175  40.324  37.368   1.236
86810W        W48176   1.448  18.235   3.786
86811W        W48177  22.613  41.375   0.939
86812W        W48178   9.201  32.456  11.479
86813W        W48179  39.493  16.807  14.474
86814W        W48180  16.616  30.499   4.158
86815W        W48181  23.649  10.763   1.303
86816W        W48182  40.493  12.298  13.032
86817W        W48183  40.944  36.048   3.315
86818W        W48184   0.442  38.907  14.454
86819W        W48185  35.436   8.662  11.403
86820W        W48186  22.165  21.188  12.839
86821W        W48187  28.029  11.834   9.937
86822W        W48188  32.958   6.286  11.547
86823W        W48189  22.209   6.379   2.755
86824W        W48190  33.397   1.374   0.966
86825W        W48191  37.954  21.587   0.452
86826W        W48192  33.929  34.078   1.732
86827W        W48193  15.107  25.197  11.859
86828W        W48194  36.971  39.337   1.349
86829W        W48195  12.268   0.971  13.953
86830W        W48196  12.791  13.759   5.181
86831W        W48197   6.414  12.243   2.666
86832W        W48198  33.568   7.331   4.660
86833W        W48199  10.314  28.517  14.382
86834W        W48200  19.706  15.220   1.862
86835W        W48201  27.692  43.957  13.893
86836W        W48202  36.967  35.477   1.373
86837W        W48203  28.145  17.071  13.051
86838W        W48204  39.395  33.409   2.817
86839W        W48205  40.459  10.340  14.019
86840W        W48206   6.293  34.071   0.941
86841W        W48207  25.473  30.428   3.290
86842W        W48208  10.848   7.238  13.792
86843W        W48209   7.249  11.198  11.866
86844W        W48210  42.947  15.797  12.458
86845W        W48211  42.300  37.877  11.122
86846W        W48212  15.693   7.382  11.063
86847W        W48213  11.274  41.930   0.330
86848W        W48214  34.581  28.652  11.965
86849W        W48215  38.984  33.010   0.873
86850W        W48216  31.558  18.254  10.504
86851W        W48217   8.722  23.198  11.484
86852W        W48218  25.695   4.213  12.890
86853W        W48219  12.784  14.125   2.357
86854W        W48220  43.014  10.874   1.388
86855W        W48221  27.030   5.826  13.331
86856W        W48222  15.718  18.546  14.924
86857W        W48223   1.796  20.224   3.728
86858W        W48224  11.258  38.943   4.263
86859W        W48225  22.091  41.378   2.246
86860W        W48226   2.451  30.983  12.844
86861W        W48227  25.977  16.573   3.210
86862W        W48228  14.224  11.728   4.630
86863W        W48229  24.661  13.189   2.389
86864W        W48230  14.322  38.548   2.863
86865W        W48231  35.556   8.242   2.331
86866W        W48232  22.676  37.881  13.430
86867W        W48233  17.224   8.399   4.122
86868W        W48234  36.029  10.155   4.800
86869W        W48235  15.808   7.680   3.747
86870W        W48236  17.153  18.185   5.230
86871W        W48237  43.515  11.712  11.066
86872W        W48238  24.073  11.828   3.322
86873W        W48239  22.074  30.135   3.201
86874W        W48240  18.627  41.959   4.648
86875W        W48241  37.394  32.135  13.834
86876W        W48242  43.801  28.522  12.460
86877W        W48243  22.128   6.823   4.276
86878W        W48244  20.050  34.977   1.887
86879W        W48245  24.595  34.935   4.250
86880W        W48246  34.965  23.065  13.859
86881W        W48247  33.482  15.592   2.302
86882W        W48248  20.197  20.225   1.399
86883W        W48249  25.543  34.386  12.517
86884W        W48250   9.312   6.341   1.829
86885W        W48251  23.137  44.948  14.341
86886W        W48252  41.948  10.813  11.999
86887W        W48253  16.153   5.751   4.117
86888W        W48254  20.083  34.546  14.858
86889W        W48255  12.205  12.156   2.350
86890W        W48256   8.231  36.849  12.566
86891W        W48257  41.456  39.494  13.360
86892W        W48258  10.183  25.658   4.818
86893W        W48259  18.155  18.253   4.282
86894W        W48260   7.355  17.109   0.282
86895W        W48261  43.399  27.637  11.093
86896W        W48262  39.058  18.697  13.847
86897W        W48263  29.611   5.912  12.348
86898W        W48264  35.931   4.427  11.012
86899W        W48265  22.058  32.435   3.304
86900W        W48266   5.412  19.772  13.315
86901W        W48267  38.010  17.620  14.992
86902W        W48268  38.016  17.162   3.687
86903W        W48269   3.716  15.208  11.066
86904W        W48270  16.208  12.653  14.347
86905W        W48271  36.469  18.281   2.679
86906W        W48272  12.175  10.310   4.600
86907W        W48273   0.463  32.892   1.297
86908W        W48274  34.498  32.097   4.214
86909W        W48275   7.830   6.858   2.682
86910W        W48276   4.410  19.595   1.762
86911W        W48277  32.572   2.260  10.480
86912W        W48278  10.829  35.978   2.219
86913W        W48279   0.272  17.727  11.941
86914W        W48280   8.403   8.357  13.960
86915W        W48281   9.387  37.860   2.816
86916W        W48282  14.793  32.037   3.237
86917W        W48283  18.288  34.555   3.167
86918W        W48284   2.788   5.218   0.755
86919W        W48285   1.289  11.331   1.907
86920W        W48286  41.341  38.002   4.662
86921W        W48287   1.249  33.884   0.743
86922W        W48288  28.600  40.026   4.316
86923W        W48289  40.479   7.241   3.726
86924W        W48290  35.479  29.468  12.561
86925W        W48291  14.690  22.677   2.411
86926W        W48292  25.698  37.932  12.015
86927W        W48293  23.518  16.206   2.254
86928W        W48294  35.481  13.349  12.993
86929W        W48295  31.138  20.671   1.278
86930W        W48296  30.017  24.001  10.601
86931W        W48297   0.288   0.917   4.678
86932W        W48298  42.020   5.854  10.632
86933W        W48299   4.269  28.951   9.624
86934W        W48300   8.674   4.703   2.242
86935W        W48301  22.020  31.093  13.957
86936W        W48302  37.886   8.674   1.703
86937W        W48303  20.083  21.253  14.972
86938W        W48304  36.429  20.045  11.128
86939W        W48305  20.185  16.709   3.225
86940W        W48306   6.861   8.854   3.244
86941W        W48307  29.550  29.085  13.334
86942W        W48308   7.377  31.124  13.036
86943W        W48309  25.962  26.151  14.463
86944W        W48310  42.389   6.785   2.380
86945W        W48311   2.261  26.510   0.787
86946W        W48312  37.498   1.413   3.372
86947W        W48313  20.556  41.823   1.264
86948W        W48314  31.933  11.194  11.418
86949W        W48315   7.872  11.234   4.127
86950W        W48316  21.692   0.365  13.808
86951W        W48317  31.108   4.240   1.718
86952W        W48318  18.667  35.868  10.571
86953W        W48319  34.954  31.552   0.369
86954W        W48320  44.874  40.022  12.078
86955W        W48321  12.358  24.707   4.620
86956W        W48322   3.924  26.485   1.907
86957W        W48323  39.516  29.502  14.999
86958W        W48324   7.787  41.504   2.405
86959W        W48325  13.208  36.893   2.336
86960W        W48326  29.046  40.485   1.328
86961W        W48327  21.731  36.579   5.796
86962W        W48328  17.285  24.048  13.953
86963W        W48329  29.083  43.329   1.338
86964W        W48330  37.476   7.279  12.956
86965W        W48331  24.175  23.055   4.774
86966W        W48332  37.902  21.529  11.978
86967W        W48333  27.156  23.645  13.816
86968W        W48334  42.465  37.368   0.897
86969W        W48335  27.940  40.052  13.532
86970W        W48336  27.640   2.899   1.302
86971W        W48337  32.069  12.195   1.880
86972W        W48338  13.184   4.785   9.951
86973W        W48339  27.147   5.230   1.718
86974W        W48340  36.591  13.305   4.239
86975W        W48341  18.081  16.683   0.768
86976W        W48342  29.171  10.340   2.726
86977W        W48343  39.973  38.968   3.826
86978W        W48344  30.497  17.684   9.923
86979W        W48345  42.966   3.825   1.826
86980W        W48346  28.512  27.535  12.885
86981W        W48347  31.470   3.423  12.365
86982W        W48348  22.710  27.629   1.401
86983W        W48349  31.633  32.945  11.070
86984W        W48350  34.428  40.983   3.257
86985W        W48351   1.906   4.846  13.476
86986W        W48352  41.325  39.830  11.041
86987W        W48353   0.479   5.287  10.548
86988W        W48354   0.449  24.167   4.194
86989W        W48355   9.352  32.125  10.899
86990W        W48356  34.581  12.855   4.836
86991W        W48357  39.557   1.890  10.423
86992W        W48358   0.325  13.211  13.390
86993W        W48359   8.350  35.462   0.841
86994W        W48360  21.046  42.829   0.873
86995W        W48361   2.433  26.120  14.957
86996W        W48362   9.872  13.109  11.978
86997W        W48363  22.238  11.346   4.318
86998W        W48364  36.492  37.550  13.504
86999W        W48365   8.737   6.732   0.406
87000W        W48366  41.517  17.263  12.920
87001W        W48367  38.479   7.270   2.323
87002W        W48368   5.275  26.961   2.309
87003W        W48369  13.301   0.812  10.644
87004W        W48370  31.540   6.341   0.451
87005W        W48371  15.753  19.655   5.178
87006W        W48372  30.917  17.260   5.267
87007W        W48373   9.713  28.934  14.875
87008W        W48374  26.973  10.314  12.025
87009W        W48375  22.542  31.928  11.083
87010W        W48376   9.820  41.932   3.732
87011W        W48377   6.389  17.068   0.919
87012W        W48378  37.903   9.182   3.802
87013W        W48379   0.787  30.464  10.916
87014W        W48380  31.031   9.325  14.390
87015W        W48381   7.820  33.968  12.381
87016W        W48382  17.271  24.002   1.380
87017W        W48383   2.379  36.965   3.838
87018W        W48384  39.408  42.892   0.755
87019W        W48385  37.955  39.485   0.429
87020W        W48386  25.165  42.017  10.470
87021W        W48387   1.931  39.515  11.574
87022W        W48388   0.380   2.751   3.231
87023W        W48389  24.072  39.010   0.367
87024W        W48390  30.593  14.281  13.824
87025W        W48391  18.219  23.543  12.854
87026W        W48392  25.469  22.216  11.025
87027W        W48393  33.605  27.514  14.408
87028W        W48394   4.319  36.918   4.228
87029W        W48395   4.725  30.937  14.887
87030W        W48396  14.629  43.991  13.996
87031W        W48397  31.939  28.139  11.061
87032W        W48398  37.380   5.380  14.322
87033W        W48399  13.286   0.919   4.173
87034W        W48400  28.481   4.251  12.462
87035W        W48401   3.851   1.325   4.791
87036W        W48402  16.277  12.616  12.064
87037W        W48403  35.372  33.993   0.874
87038W        W48404  39.051  30.551   1.881
87039W        W48405  41.036   7.825  11.014
87040W        W48406  16.163   7.323   3.182
87041W        W48407  35.016  24.607   4.293
87042W        W48408  26.088  33.055  12.523
87043W        W48409  38.333  43.975   2.844
87044W        W48410  40.470  18.635   0.797
87045W        W48411  35.561   8.757  14.426
87046W        W48412  34.091  37.061   4.249
87047W        W48413   5.372  22.095  11.049
87048W        W48414   9.673   2.467  13.793
87049W        W48415  28.526  42.304  10.900
87050W        W48416   7.218   2.759  12.447
87051W        W48417  38.516  20.254   4.805
87052W        W48418  43.994  37.426  13.357
87053W        W48419  37.503  44.754   3.304
87054W        W48420  25.516  44.503  13.863
87055W        W48421  43.008  36.913  14.400
87056W        W48422  29.958  21.586  13.900
87057W        W48423  35.070   2.843   2.407
87058W        W48424  43.770   2.261   1.760
87059W        W48425   8.383   8.764  13.871
87060W        W48426   7.892  32.962   1.217
87061W        W48427  27.570   3.833   1.822
87062W        W48428  18.606  26.978  11.911
87063W        W48429  35.542   4.212   2.722
87064W        W48430  25.566  43.484   2.720
87065W        W48431  24.593  17.721   1.355
87066W        W48432  10.780  16.600   0.247
87067W        W48433  29.447  31.513  10.970
87068W        W48434   7.898   3.422  14.471
87069W        W48435  13.247   0.805   4.822
87070W        W48436  25.150  14.094  14.861
87071W        W48437  24.577  23.203  11.556
87072W        W48438  13.739  26.003  10.516
87073W        W48439   8.361   8.196  11.005
87074W        W48440  12.311  22.253  11.888
87075W        W48441  15.720   2.796   1.773
87076W        W48442  11.270  36.545  10.889
87077W        W48443   2.758  37.082   2.753
87078W        W48444  35.014  34.880   1.322
87079W        W48445  12.723   0.940   0.353
87080W        W48446  10.771  43.512  11.016
87081W        W48447   3.404  11.185  12.073
87082W        W48448  30.971   7.892  14.362
87083W        W48449  38.968  26.972   4.219
87084W        W48450  13.225  41.362  11.937
87085W        W48451  34.497  33.578   3.737
87086W        W48452  43.471  33.969  11.471
87087W        W48453  15.161  17.557  12.962
87088W        W48454   2.425  39.432  13.465
87089W        W48455  15.136   4.210   1.909
87090W        W48456  36.007  41.408  12.092
87091W        W48457  28.482  34.935  12.978
87092W        W48458  11.700   7.306   0.406
87093W        W48459  27.969   5.256   2.822
87094W        W48460   4.785  28.974   4.680
87095W        W48461  16.574  24.977   1.368
87096W        W48462  31.418  19.609   1.366
87097W        W48463   3.778  14.290  12.958
87098W        W48464   5.221   2.926  12.954
87099W        W48465  18.760  40.812   3.710
87100W        W48466  42.351  28.472   3.835
87101W        W48467  23.071  24.100   0.765
87102W        W48468   8.374  41.996  10.621
87103W        W48469  26.536   7.734  12.057
87104W        W48470  24.574   6.280  12.480
87105W        W48471  32.059   2.741  13.957
87106W        W48472   4.874  33.003  14.478
87107W        W48473  26.132  30.492   1.366
87108W        W48474  10.799  32.060   5.112
87109W        W48475  39.019  35.358   1.787
87110W        W48476  26.550  30.931   0.325
87111W        W48477  38.849  12.842  13.963
87112W        W48478  27.472   1.469   0.299
87113W        W48479   9.311  34.370   4.661
87114W        W48480  25.217  13.819   0.476
87115W        W48481  16.211   0.979  11.009
87116W        W48482  34.595  38.529  13.871
87117W        W48483  16.163  18.592   0.951
87118W        W48484   7.397  17.766  10.582
87119W        W48485  35.882  14.821   3.341
87120W        W48486  12.832  26.016  11.515
87121W        W48487  34.010   9.795   0.782
87122W        W48488  10.694   4.827  13.015
87123W        W48489  29.430   3.826  14.956
87124W        W48490  19.252  23.535   4.645
87125W        W48491  18.091  25.215   0.760
87126W        W48492   9.248   3.448  10.033
87127W        W48493  24.674  37.013   1.448
87128W        W48494  34.405  20.541  11.005
87129W        W48495  17.801  32.528   0.465
87130W        W48496  32.475  18.718  14.831
87131W        W48497  31.926   8.834  10.438
87132W        W48498  25.031  10.776   1.403
87133W        W48499  37.569  19.144   4.717
87134W        W48500  17.645  13.665  14.344
87135W        W48501  23.653  22.523  12.340
87136W        W48502  24.511   1.338   4.628
87137W        W48503  12.261  44.329   0.328
87138W        W48504  44.455   2.304   1.361
87139W        W48505   6.254   2.746   1.342
87140W        W48506  18.772   6.374  13.868
87141W        W48507  14.711  35.410  10.574
87142W        W48508  16.180   5.294  10.494
87143W        W48509  39.911  25.145   3.232
87144W        W48510  25.679  16.627   4.222
87145W        W48511  11.339  21.573  11.916
87146W        W48512   1.928  11.836  13.795
87147W        W48513  31.426  13.302  13.029
87148W        W48514  34.109  21.593  10.622
87149W        W48515  34.370  42.969  13.340
87150W        W48516  37.412  21.720   3.812
87151W        W48517   4.379  22.231   4.209
87152W        W48518  33.972  20.692  11.408
87153W        W48519  21.052  31.104   2.345
87154W        W48520  36.081   9.383   0.880
87155W        W48521  34.899  20.191  12.971
87156W        W48522  35.865  21.129  10.452
87157W        W48523   6.818  26.972   1.312
87158W        W48524  41.472  30.599   4.639
87159W        W48525  43.324   5.390  12.537
87160W        W48526   0.952  34.495  11.530
87161W        W48527  13.684  12.243  12.420
87162W        W48528  41.507   3.268   1.791
87163W        W48529  14.635   2.379  14.984
87164W        W48530   5.759  32.410  14.322
87165W        W48531  12.140   4.742   1.325
87166W        W48532   1.364   3.429  13.453
87167W        W48533   3.824  21.255  14.955
87168W        W48534  12.351  39.381   1.882
87169W        W48535  13.684   2.450  10.552
87170W        W48536  27.679  42.445   3.746
87171W        W48537  13.149   8.829   3.635
87172W        W48538  26.540   3.724  14.500
87173W        W48539   1.259   8.829  13.920
87174W        W48540  32.908  19.100  13.790
87175W        W48541   7.890   5.201   2.819
87176W        W48542  33.009  18.176  13.931
87177W        W48543  35.516  13.650   0.248
87178W        W48544  33.526  16.643  10.952
87179W        W48545  34.483  43.890   4.126
87180W        W48546  12.317  12.134   1.313
87181W        W48547   5.341   3.394  14.441
87182W        W48548  10.289   3.714   4.204
87183W        W48549   4.723  31.073   0.384
87184W        W48550  34.878  25.026  10.080
87185W        W48551  21.543   0.764  11.594
87186W        W48552   0.334   0.306   3.353
87187W        W48553  23.028  29.151   1.917
87188W        W48554  19.216  29.654   1.729
87189W        W48555   2.830   8.219  13.929
87190W        W48556  13.606   5.837   3.684
87191W        W48557   8.384  43.384   1.793
87192W        W48558  15.270  42.314  10.467
87193W        W48559  40.484  28.149   3.146
87194W        W48560   8.725   1.363   4.246
87195W        W48561  15.692   4.755   0.324
87196W        W48562  41.001  14.262  13.884
87197W        W48563  12.314  38.466   3.262
87198W        W48564   6.208  24.219  13.472
87199W        W48565  18.230   2.856  13.965
87200W        W48566  27.670  39.907  10.947
87201W        W48567  13.834  41.855  13.479
87202W        W48568  35.985  10.286   1.892
87203W        W48569  22.099  43.823  10.933
87204W        W48570  32.097  30.938  11.427
87205W        W48571  32.480   8.382   2.893
87206W        W48572   4.825  38.430  11.922
87207W        W48573  36.516  37.871  13.385
87208W        W48574  13.635  19.203   3.189
87209W        W48575  18.699  15.648  13.368
87210W        W48576   9.672  25.657  13.351
87211W        W48577  18.279  28.071  13.382
87212W        W48578  34.923  16.122   1.320
87213W        W48579   6.781  24.177   0.412
87214W        W48580  12.821  12.355   1.732
87215W        W48581   0.292  44.917  12.501
87216W        W48582  42.378   2.862  10.590
87217W        W48583  15.800  23.677   0.735
87218W        W48584   0.939  32.968   2.391
87219W        W48585  23.691  38.858  11.037
87220W        W48586  17.173  12.131   2.760
87221W        W48587  21.696  30.064  14.948
87222W        W48588  36.423  41.922  14.790
87223W        W48589  42.500  26.171  10.462
87224W        W48590  26.061  29.020  14.324
87225W        W48591  15.782  37.049   0.808
87226W        W48592  34.098  13.717   0.742
87227W        W48593  12.119  24.571   2.674
87228W        W48594  27.977  14.305   0.468
87229W        W48595  44.470   0.786  10.492
87230W        W48596  36.508  11.172   1.250
87231W        W48597  27.587   1.925  11.901
87232W        W48598   5.893  36.009  12.432
87233W        W48599   5.782  11.800  12.484
87234W        W48600  34.036  26.609   2.287
87235W        W48601   7.273   2.294   0.437
87236W        W48602   8.198   8.745  10.979
87237W        W48603  25.157  42.290   2.664
87238W        W48604  34.462  32.105  10.405
87239W        W48605  29.629  15.654   0.386
87240W        W48606   7.208   9.772  12.449
87241W        W48607  33.395  22.247   0.434
87242W        W48608  30.071  42.291  14.996
87243W        W48609  21.531   5.410  11.046
87244W        W48610  30.617   0.251   2.285
87245W        W48611  13.140  22.522   0.865
87246W        W48612   1.947  37.001   1.397
87247W        W48613  29.987  31.033  12.062
87248W        W48614  27.061  15.629   1.392
87249W        W48615  40.462  30.651   1.761
87250W        W48616  20.548  17.246  10.981
87251W        W48617  19.614  38.499  14.833
87252W        W48618  25.166  34.460  13.513
87253W        W48619  10.202  18.701  14.872
87254W        W48620  34.076  18.090  14.794
87255W        W48621  44.327  37.560   1.695
87256W        W48622  30.640  17.706   3.673
87257W        W48623  14.302  28.044  10.519
87258W        W48624  11.140   2.282  11.082
87259W        W48625   7.319  33.476   1.352
87260W        W48626  16.695  18.069   2.694
87261W        W48627  44.863   4.246  13.446
87262W        W48628   9.882  26.015  10.614
87263W        W48629   6.800  35.921   0.339
87264W        W48630  36.494  18.620  12.060
87265W        W48631  35.479   2.298   2.803
87266W        W48632  15.231  30.621  12.409
87267W        W48633  43.375  15.648   4.639
87268W        W48634  26.554  21.692  10.572
87269W        W48635   9.840  16.707   0.480
87270W        W48636  12.348  40.968   2.187
87271W        W48637  24.139  30.573   0.846
87272W        W48638  13.144   0.762   3.242
87273W        W48639  23.003  43.860  10.432
87274W        W48640   8.794  15.096   9.452
87275W        W48641   9.246   6.857   0.303
87276W        W48642  19.668  13.118   1.864
87277W        W48643   4.883  20.029   0.476
87278W        W48644   9.708  27.613  14.402
87279W        W48645   7.851  26.504  11.403
87280W        W48646  21.665   0.858   0.261
87281W        W48647  25.665  44.815  10.920
87282W        W48648  41.847  16.160   0.306
87283W        W48649   0.385   3.810   0.770
87284W        W48650  23.584  31.151  13.865
87285W        W48651  36.452   5.311  10.431
87286W        W48652  27.610  29.921   1.758
87287W        W48653   8.293   3.710   1.287
87288W        W48654  12.787  12.131   4.630
87289W        W48655  15.702  22.232  10.414
87290W        W48656   4.347  40.408  10.632
87291W        W48657  21.549   8.661  13.825
87292W        W48658   6.880  37.003  12.995
87293W        W48659  20.616  26.469   3.651
87294W        W48660   1.794  11.244  10.476
87295W        W48661  33.130  29.577  13.962
87296W        W48662  29.424   7.374  10.122
87297W        W48663  42.990  24.097   2.688
87298W        W48664  32.627  18.144   2.683
87299W        W48665   0.886  23.696   0.908
87300W        W48666  29.458  40.468   3.689
87301W        W48667  11.698   1.457  14.932
87302W        W48668  24.632  15.233   2.739
87303W        W48669  26.095  19.086  13.984
87304W        W48670   0.917  40.373   2.410
87305W        W48671  40.466  32.063  14.325
87306W        W48672  20.083  13.680  12.988
87307W        W48673  43.808  25.648   2.728
87308W        W48674  28.673  23.500  14.401
87309W        W48675  27.507   5.332   5.632
87310W        W48676  33.443  13.195   2.230
87311W        W48677  28.005  43.882   4.269
87312W        W48678  26.979  36.492  11.407
87313W        W48679  29.468  41.818   2.669
87314W        W48680  34.916  16.708  11.896
87315W        W48681   5.865  20.528   2.677
87316W        W48682  20.659   8.398   1.758
87317W        W48683  34.025  21.635  12.969
87318W        W48684   3.283  23.145  10.573
87319W        W48685  15.090   3.887  10.424
87320W        W48686  40.033   9.682   0.376
87321W        W48687  24.123  15.137   3.793
87322W        W48688  44.915  41.293   2.824
87323W        W48689  14.225  33.124  12.481
87324W        W48690  42.940   4.295  14.798
87325W        W48691  31.072  20.273   0.957
87326W        W48692  18.158  28.589   4.642
87327W        W48693  35.445  44.449   1.857
87328W        W48694  31.911  27.187  10.413
87329W        W48695  10.752  23.020  10.564
87330W        W48696  24.641   0.334   4.115
87331W        W48697  31.442  40.955  10.576
87332W        W48698  22.117  22.638  11.108
87333W        W48699  34.946  12.143   3.299
87334W        W48700   5.812  10.851  11.904
87335W        W48701  23.119   2.231   1.771
87336W        W48702  14.796  29.985  13.933
87337W        W48703   1.796   3.329   3.788
87338W        W48704  23.604  20.209  13.406
87339W        W48705   7.740  42.880   9.933
87340W        W48706  43.019  35.976  14.392
87341W        W48707  22.101   0.887  12.942
87342W        W48708  38.489  25.588  11.013
87343W        W48709  12.163   1.389   4.161
87344W        W48710  33.005  24.049   3.185
87345W        W48711  19.063  42.434   1.790
87346W        W48712   5.377  37.506  12.403
87347W        W48713   0.288   6.825   0.891
87348W        W48714  33.101  15.264  12.554
87349W        W48715  39.422   2.245  12.561
87350W        W48716  37.074  35.586   2.891
87351W        W48717  28.131   3.871  13.517
87352W        W48718  44.865  35.957   4.814
87353W        W48719  19.758  42.373  11.030
87354W        W48720  15.159  17.209  12.457
87355W        W48721  27.485  19.594   5.145
87356W        W48722  16.631  32.601   1.713
87357W        W48723  24.075  33.492   1.445
87358W        W48724  39.493  38.551   0.419
87359W        W48725  35.068  35.893  12.545
87360W        W48726  36.951  22.237  14.463
87361W        W48727  14.796   6.886  13.374
87362W        W48728  37.351  38.992  10.508
87363W        W48729  41.808  34.475   4.236
87364W        W48730  43.894   1.786  12.919
87365W        W48731   2.790  12.762  12.836
87366W        W48732   0.250  34.607  11.495
87367W        W48733   8.709  36.998   0.834
87368W        W48734   2.753  38.840   2.329
87369W        W48735  11.634  31.041   0.833
87370W        W48736  20.699  43.337  14.364
87371W        W48737   1.415  19.069   3.150
87372W        W48738  23.064   2.326  11.920
87373W        W48739  41.856   4.853  14.953
87374W        W48740  19.270  43.516   4.703
87375W        W48741  21.618  31.067  12.378
87376W        W48742  10.776  33.502   1.243
87377W        W48743  22.209  11.709   4.295
87378W        W48744   0.300  30.940  14.994
87379W        W48745   7.298  18.587   2.812
87380W        W48746   7.764  31.427  11.433
87381W        W48747  11.193   3.900  10.921
87382W        W48748  34.005  30.539   2.717
87383W        W48749   0.308   3.785  12.867
87384W        W48750  34.956  34.083   0.942
87385W        W48751  13.300   3.816   4.311
87386W        W48752  43.810  39.819  12.493
87387W        W48753   2.902   5.797   1.888
87388W        W48754   9.721  29.533   4.271
87389W        W48755   9.823  33.083  12.444
87390W        W48756  44.869  44.950   0.267
87391W        W48757   1.354  20.589  14.377
87392W        W48758  34.911  21.086  14.299
87393W        W48759  41.430  39.555  14.001
87394W        W48760  18.273  24.648   3.683
87395W        W48761  37.427  22.685  12.354
87396W        W48762  22.203  20.559  14.992
87397W        W48763  40.949   0.455  11.925
87398W        W48764  39.836  41.421   4.642
87399W        W48765   4.818  42.458  10.468
87400W        W48766   9.389  29.003   4.656
87401W        W48767  41.968  43.318  13.488
87402W        W48768  25.100  42.804   1.452
87403W        W48769  10.340   0.399  13.520
87404W        W48770  18.569  17.651  13.888
87405W        W48771  35.996  25.200   2.290
87406W        W48772   0.348  37.340   3.742
87407W        W48773  26.634  24.016   2.231
87408W        W48774  16.104  16.581  13.379
87409W        W48775  24.004   2.367  14.967
87410W        W48776   9.865   8.731  10.968
87411W        W48777   1.804  31.900  12.517
87412W        W48778   8.893  32.970  14.962
87413W        W48779   0.453  29.476  10.427
87414W        W48780  43.807  12.262   4.203
87415W        W48781   8.272   6.829   0.960
87416W        W48782  21.214   0.845  11.933
87417W        W48783   2.829  11.813  12.911
87418W        W48784  30.559  39.431   3.732
87419W        W48785  44.318  23.991   4.233
87420W        W48786  38.055   7.884   3.179
87421W        W48787  22.571  31.403  10.483
87422W        W48788  26.550  42.430  14.367
87423W        W48789  44.917  34.043   0.952
87424W        W48790  20.608  42.518  14.345
87425W        W48791  37.529  20.106  12.505
87426W        W48792  43.881  43.941   3.189
87427W        W48793  25.138   8.819  10.135
87428W        W48794   6.318   1.843   2.246
87429W        W48795   5.326  44.419  11.537
87430W        W48796  34.491  23.067   2.378
87431W        W48797  42.466   9.695  10.587
87432W        W48798   2.805  40.458   3.219
87433W        W48799  19.147  39.047   0.774
87434W        W48800  14.647  35.852  13.045
87435W        W48801  38.521   4.219   1.326
87436W        W48802  37.553   5.874   0.861
87437W        W48803  39.442   6.325   3.297
87438W        W48804  28.041  26.195  14.436
87439W        W48805  37.432  32.050   2.225
87440W        W48806  39.875  13.797   2.860
87441W        W48807   0.852   9.235  14.975
87442W        W48808  39.878  27.655  14.942
87443W        W48809   8.382  14.162   0.931
87444W        W48810  30.950  16.081  14.333
87445W        W48811   6.874  14.761  12.992
87446W        W48812  40.799   6.423  12.382
87447W        W48813  36.045  37.485  12.540
87448W        W48814  30.643  43.316   4.797
87449W        W48815  40.340   9.711   1.444
87450W        W48816  44.483  31.903  12.451
87451W        W48817   6.225  24.182  14.338
87452W        W48818  26.530   2.916   4.834
87453W        W48819   7.358   1.973   1.266
87454W        W48820  19.715  33.933  14.786
87455W        W48821  32.940  29.659  12.857
87456W        W48822  37.457  31.643   1.414
87457W        W48823  16.194  38.555   3.771
87458W        W48824  40.343  19.743   4.656
87459W        W48825  10.221  23.038   4.775
87460W        W48826  29.570  28.036  12.039
87461W        W48827  23.043  28.520  13.548
87462W        W48828   7.712  23.679   1.699
87463W        W48829  39.429  16.293   4.656
87464W        W48830  40.339  24.006  14.006
87465W        W48831   6.249  36.397   0.927
87466W        W48832  38.961  26.577   1.297
87467W        W48833   5.770   4.441   3.183
87468W        W48834  41.914  19.156  14.872
87469W        W48835  16.593  16.586  12.858
87470W        W48836   8.364   8.271   2.326
87471W        W48837  44.830  14.719   2.221
87472W        W48838  15.270  25.506  12.546
87473W        W48839  10.827  14.187  11.123
87474W        W48840  33.447  22.543   1.289
87475W        W48841  39.516  12.125   4.718
87476W        W48842  33.536  21.562   0.346
87477W        W48843   8.373  26.534   4.697
87478W        W48844  36.954  44.835   1.702
87479W        W48845   0.878  24.535  13.496
87480W        W48846   2.256  20.150  12.383
87481W        W48847  43.439  12.283  14.799
87482W        W48848  18.669  28.435   1.742
87483W        W48849   1.309  32.006  12.347
87484W        W48850   0.404   8.363   2.832
87485W        W48851  23.537  28.946   9.978
87486W        W48852   7.229  18.781  11.574
87487W        W48853  35.072  33.041  12.952
87488W        W48854   5.387  23.701  10.417
87489W        W48855  16.222  28.183   4.649
87490W        W48856  23.139   6.800   0.415
87491W        W48857  24.219  21.017   2.226
87492W        W48858  35.453  10.256   1.735
87493W        W48859  33.105  19.688  11.429
87494W        W48860   6.802  14.593   2.336
87495W        W48861  13.240  39.840   3.250
87496W        W48862  16.754  20.572   0.440
87497W        W48863  15.692  17.598   0.819
87498W        W48864  10.647  16.194   2.347
87499W        W48865  26.460  14.289  10.475
87500W        W48866   0.357  21.017  14.841
87501W        W48867  42.867   2.347   2.690
87502W        W48868  14.762  31.549   3.864
87503W        W48869  41.510   6.864  14.778
87504W        W48870  22.543  28.144  13.979
87505W        W48871  38.551  13.843  11.112
87506W        W48872  32.523  35.409   3.287
87507W        W48873  42.303   8.185   3.169
87508W        W48874  43.791  26.151   1.349
87509W        W48875  31.563  24.192  12.861
87510W        W48876  23.683   1.305  14.945
87511W        W48877  42.821  30.001   0.334
87512W        W48878  20.105  11.166  11.078
87513W        W48879  35.039  23.984   4.822
87514W        W48880  27.686  18.053   0.285
87515W        W48881  38.537  19.194  14.876
87516W        W48882  12.822  30.535  11.882
87517W        W48883  32.923  33.423   1.797
87518W        W48884  10.873  11.350  11.934
87519W        W48885  40.401  22.068  13.908
87520W        W48886  42.861  43.475  11.476
87521W        W48887  15.170  22.198  11.117
87522W        W48888   9.807  16.787  10.510
87523W        W48889  23.649  40.355  13.841
87524W        W48890  43.783  30.459  14.455
87525W        W48891  16.733  36.952   2.737
87526W        W48892  14.323  26.087   3.211
87527W        W48893  42.314  40.808   0.346
87528W        W48894  30.106   9.657  14.836
87529W        W48895   8.186  24.097  13.896
87530W        W48896  26.626  36.895   1.292
87531W        W48897  19.542  35.074   9.456
87532W        W48898  26.102   2.363   3.250
87533W        W48899  40.498   8.241  10.432
87534W        W48900   4.270  23.675   2.837
87535W        W48901  15.185   9.702  11.061
87536W        W48902  18.771  31.647  14.296
87537W        W48903  15.236  29.459  11.517
87538W        W48904  42.792  32.934   0.756
87539W        W48905  43.447  11.844  14.321
87540W        W48906  15.681  11.711   2.899
87541W        W48907  17.161  41.996  11.446
87542W        W48908   7.707  15.131   0.941
87543W        W48909  34.424  12.691   0.408
87544W        W48910  11.244  20.550   1.385
87545W        W48911  23.624   6.317  14.837
87546W        W48912   7.693  22.531   3.638
87547W        W48913  35.369  13.646   2.800
87548W        W48914  21.745  32.950   2.890
87549W        W48915  37.944  24.982   3.342
87550W        W48916   5.314  11.164   3.287
87551W        W48917   4.347  16.780  14.778
87552W        W48918   7.716   5.806   0.459
87553W        W48919  43.368  12.162  14.393
87554W        W48920  21.082  32.970   1.820
87555W        W48921   3.766  35.542   4.706
87556W        W48922  39.887  30.930   4.677
87557W        W48923  12.778  41.352  12.061
87558W        W48924  29.116  12.187   2.801
87559W        W48925  42.415  43.367  13.309
87560W        W48926  41.501  22.512   3.675
87561W        W48927  44.853   3.308  12.069
87562W        W48928  38.942  35.360   2.762
87563W        W48929  13.628  21.548   0.850
87564W        W48930  28.444  30.926   0.747
87565W        W48931  10.646   7.194   1.736
87566W        W48932  39.472  23.086   3.726
87567W        W48933  20.140   6.204  14.005
87568W        W48934  14.136  34.069  11.405
87569W        W48935  19.055  12.773  14.847
87570W        W48936  26.592  13.815   1.909
87571W        W48937  27.608  11.350   1.725
87572W        W48938   0.830  39.345  12.466
87573W        W48939   3.282  19.264  11.441
87574W        W48940   7.783   6.849   4.306
87575W        W48941  29.637  15.220  11.457
87576W        W48942  32.107   3.757   2.684
87577W        W48943  24.023   9.335  12.854
87578W        W48944  44.484  25.075   1.703
87579W        W48945   2.816  41.894  14.017
87580W        W48946  38.950  35.546   3.790
87581W        W48947   0.355  11.787   0.755
87582W        W48948  44.967  22.203  11.956
87583W        W48949  14.205  36.947  11.092
87584W        W48950  31.440  12.716  12.401
87585W        W48951  31.949   1.970  11.074
87586W        W48952  15.290  35.898   3.214
87587W        W48953  14.702  35.014  12.871
87588W        W48954  43.377  31.940  11.111
87589W        W48955  18.700  36.034   2.768
87590W        W48956  25.141  29.060   4.212
87591W        W48957  21.694   4.330   1.436
87592W        W48958  20.746  27.685   0.775
87593W        W48959  16.116  35.066  10.588
87594W        W48960  38.549  32.031   1.410
87595W        W48961   9.794  20.523   2.855
87596W        W48962   7.841  36.843  10.988
87597W        W48963   4.245  37.868  14.966
87598W        W48964  15.718  25.471  14.283
87599W        W48965  38.461  32.462   1.705
87600W        W48966  24.119  23.048   3.358
87601W        W48967  32.961   7.673  11.598
87602W        W48968  29.981  33.455   1.278
87603W        W48969  15.770  13.210  13.823
87604W        W48970   6.691  25.080  14.442
87605W        W48971  22.110  22.722   0.327
87606W        W48972   0.307  27.052  14.979
87607W        W48973  21.632  38.383   4.619
87608W        W48974  12.325  17.611  12.036
87609W        W48975  18.227   2.926   2.715
87610W        W48976  19.246  41.340  12.423
87611W        W48977  30.543  31.522   0.438
87612W        W48978  14.189  26.096   2.888
87613W        W48979  41.896  16.318  14.408
87614W        W48980  26.968  30.929   2.384
87615W        W48981  39.982  16.155  12.894
87616W        W48982  44.270  38.999  13.952
87617W        W48983  43.824   5.380  13.921
87618W        W48984  14.826  25.501  12.485
87619W        W48985  39.368  22.998  12.427
87620W        W48986  26.692   1.927  13.435
87621W        W48987  21.637   3.840   4.613
87622W        W48988   0.410  14.183   2.280
87623W        W48989  39.016  22.626  14.836
87624W        W48990  21.691  42.890   1.260
87625W        W48991  20.635  20.227   3.165
87626W        W48992  18.060   0.770  13.911
87627W        W48993  37.901  27.555  10.459
87628W        W48994  23.112   1.393   1.763
87629W        W48995  17.778  26.642  14.470
87630W        W48996  11.813  35.082   2.830
87631W        W48997  31.458  14.263  13.533
87632W        W48998  26.988  19.555  11.537
87633W        W48999  41.369  24.702   4.136
87634W        W49000  15.690  36.484   5.161
87635W        W49001  19.057  29.668  11.454
87636W        W49002   7.877   5.204   4.120
87637W        W49003  28.956  28.071   1.422
87638W        W49004  43.433  25.637   4.793
87639W        W49005  21.532   5.228   0.379
87640W        W49006  36.560  11.166   1.787
87641W        W49007  11.749  27.955  14.357
87642W        W49008  18.548  34.048  11.525
87643W        W49009  37.490  24.150   1.420
87644W        W49010  20.232  23.548   3.843
87645W        W49011  22.066  36.360  14.427
87646W        W49012   9.188  18.772  10.584
87647W        W49013  31.013   8.733   9.967
87648W        W49014  14.206  12.250  13.036
87649W        W49015  27.042   1.355   3.267
87650W        W49016  27.020  31.902  12.393
87651W        W49017   9.371   4.711   3.774
87652W        W49018  30.983  20.110   2.721
87653W        W49019   7.299  11.651  11.098
87654W        W49020  13.155   5.244   3.353
87655W        W49021   0.424  32.535  12.917
87656W        W49022  32.552  28.615  14.021
87657W        W49023   4.252  37.364   3.191
87658W        W49024  23.086  23.048   0.379
87659W        W49025   9.352  36.875   2.365
87660W        W49026  15.110  18.749   2.221
87661W        W49027  13.665  31.524  12.557
87662W        W49028  43.970  24.661  11.592
87663W        W49029  34.395  34.424   4.170
87664W        W49030  12.626  32.603   0.778
87665W        W49031  12.284  16.205   5.639
87666W        W49032  43.514  35.508   2.287
87667W        W49033  14.835   4.422  11.513
87668W        W49034  27.961   7.882   3.285
87669W        W49035   5.244   5.870  11.909
87670W        W49036   8.669  11.866  13.816
87671W        W49037   0.778  16.230   4.312
87672W        W49038   1.351  39.936  13.005
87673W        W49039  13.697   0.357  10.923
87674W        W49040  16.087  29.649  13.849
87675W        W49041  10.315  42.440  14.790
87676W        W49042  30.959  29.151   1.822
87677W        W49043  30.576   6.796   0.891
87678W        W49044   1.348  41.898  11.887
87679W        W49045  35.870  22.647  12.857
87680W        W49046  38.370  28.452  13.330
87681W        W49047  23.585  22.635   4.121
87682W        W49048  42.420  15.623  11.999
87683W        W49049  12.314  24.139  12.996
87684W        W49050  40.971  34.037   0.862
87685W        W49051  17.681  29.642  13.952
87686W        W49052  41.895  20.767  13.309
87687W        W49053  15.223   1.940  12.384
87688W        W49054  22.721  28.060  10.520
87689W        W49055   3.390  39.552   0.420
87690W        W49056  29.934  31.145  13.037
87691W        W49057  12.777  32.132   3.722
87692W        W49058  16.182   4.325  14.003
87693W        W49059   5.365  35.894  14.315
87694W        W49060  30.469  44.985  14.009
87695W        W49061   3.352  42.287   0.878
87696W        W49062   4.895   5.438   0.255
87697W        W49063  21.175   3.385  13.032
87698W        W49064  20.618   6.794   1.331
87699W        W49065  19.284  32.052  12.076
87700W        W49066  37.382  24.481  14.018
87701W        W49067   8.343  36.385   2.875
87702W        W49068  26.051   5.415   2.876
87703W        W49069  40.028  28.104   2.732
87704W        W49070  14.302  36.994   1.301
87705W        W49071  25.637  15.656  12.963
87706W        W49072   4.906  30.110  13.313
87707W        W49073  32.624  23.174   3.319
87708W        W49074  43.863  10.260   2.239
87709W        W49075   6.254  21.529  14.341
87710W        W49076  27.537  39.038  10.631
87711W        W49077  23.579  23.042   4.649
87712W        W49078  18.114  26.126   4.641
87713W        W49079  12.255   6.210   9.925
87714W        W49080  13.259  37.365  13.526
87715W        W49081  37.895  10.747   3.750
87716W        W49082   9.394  14.814  11.525
87717W        W49083  42.378   4.420  14.783
87718W        W49084  26.489  31.069  14.826
87719W        W49085  25.517  26.051  10.459
87720W        W49086  11.363  12.308   0.466
87721W        W49087   9.861  28.959   0.295
87722W        W49088  17.257  14.203   4.354
87723W        W49089  33.381   3.294   2.740
87724W        W49090  38.356  29.575  10.911
87725W        W49091   4.431  20.601   2.271
87726W        W49092  22.526  37.888   3.708
87727W        W49093  34.892  15.668  10.525
87728W        W49094  12.720  14.713  10.008
87729W        W49095  37.548   4.893  14.801
87730W        W49096  41.978   6.784  11.506
87731W        W49097   4.417  44.848   1.430
87732W        W49098   2.336  21.710   1.903
87733W        W49099  29.429  30.469  13.996
87734W        W49100  10.351   6.219  14.494
87735W        W49101  39.440  11.333  14.851
87736W        W49102  26.638  39.350   0.316
87737W        W49103  28.158  41.794   1.740
87738W        W49104  31.464  21.690  13.985
87739W        W49105  32.538  23.233  11.053
87740W        W49106  34.586  25.545  11.428
87741W        W49107   0.301  16.778   3.699
87742W        W49108   5.710   1.900   4.613
87743W        W49109   4.909  31.896   0.738
87744W        W49110  12.145  43.953  14.017
87745W        W49111  44.426  25.026  12.885
87746W        W49112  16.245  38.328  14.764
87747W        W49113  43.009  42.364   4.834
87748W        W49114  29.948  40.972  14.438
87749W        W49115   1.401  10.719  12.466
87750W        W49116  23.234  17.704   4.341
87751W        W49117   7.764  34.888  11.578
87752W        W49118   0.352  24.152  12.044
87753W        W49119   7.778   2.264   0.959
87754W        W49120  24.655  40.400  11.552
87755W        W49121  30.551  42.390  14.340
87756W        W49122  42.382  20.203   1.290
87757W        W49123   9.824  23.009   4.771
87758W        W49124  10.368   3.301   4.300
87759W        W49125  43.440   3.278   0.409
87760W        W49126  39.503  35.513  14.984
87761W        W49127  35.507   5.915   1.835
87762W        W49128  22.080  34.043   0.952
87763W        W49129   3.411   9.179   4.169
87764W        W49130  13.193   2.785   2.416
87765W        W49131  35.489  19.236   4.833
87766W        W49132  37.007   0.907   3.660
87767W        W49133  27.055  18.692  13.976
87768W        W49134  13.771  34.402   3.650
87769W        W49135  25.665  24.174  10.425
87770W        W49136   9.380  33.129   0.880
87771W        W49137  41.968  41.797   3.762
87772W        W49138  21.530   5.377  13.935
87773W        W49139   9.827  31.035   1.897
87774W        W49140  39.464   0.887   2.217
87775W        W49141   8.196  39.418   4.768
87776W        W49142  22.744  34.556   2.708
87777W        W49143  10.694   2.778   1.313
87778W        W49144  27.133  13.679  14.872
87779W        W49145  17.254   3.448   1.831
87780W        W49146  32.024  39.995  12.376
87781W        W49147   7.182  43.901  13.363
87782W        W49148  36.012   3.916   2.392
87783W        W49149  38.341  10.732  14.925
87784W        W49150  31.947  16.201   0.734
87785W        W49151   2.430  15.110   4.186
87786W        W49152  40.350  36.434   3.844
87787W        W49153  39.367  29.157  10.957
87788W        W49154  18.054  26.457  14.772
87789W        W49155  29.622  20.226  11.051
87790W        W49156  32.141  23.204  10.621
87791W        W49157  11.828  30.096   2.856
87792W        W49158  44.933  12.354  12.492
87793W        W49159  24.656  41.038  12.869
87794W        W49160   2.372  30.651  11.032
87795W        W49161  20.655  43.846   4.668
87796W        W49162  14.098   2.308   1.307
87797W        W49163  38.039  17.772  12.499
87798W        W49164  28.524  32.562   0.787
87799W        W49165  37.523  12.220   2.367
87800W        W49166  16.092   1.808  10.926
87801W        W49167   3.309   7.177   2.759
87802W        W49168  13.269  30.422  11.989
87803W        W49169  12.682  22.627  13.868
87804W        W49170  32.545   6.858   1.361
87805W        W49171  18.645  28.932   0.954
87806W        W49172  15.780  41.790  12.415
87807W        W49173  30.504  20.748  11.394
87808W        W49174  28.590  43.359  13.442
87809W        W49175  13.288  12.812   2.852
87810W        W49176  29.515   9.664  14.859
87811W        W49177  21.069  14.793  13.440
87812W        W49178   7.373  38.003   0.838
87813W        W49179  19.181  44.980  12.509
87814W        W49180  28.574  22.071  11.383
87815W        W49181  38.897  36.918   2.231
87816W        W49182  15.726  28.451   2.381
87817W        W49183  33.472   3.391  10.425
87818W        W49184  31.088  23.209  13.540
87819W        W49185  32.904   4.432   3.729
87820W        W49186   9.727  41.424  14.943
87821W        W49187  28.562   6.769   2.889
87822W        W49188  20.589  28.551   4.122
87823W        W49189  16.198  16.709  11.564
87824W        W49190  42.431   2.963   4.194
87825W        W49191   9.275   5.887   0.893
87826W        W49192  14.201   6.696  14.974
87827W        W49193   3.220  19.227  13.948
87828W        W49194  33.603  24.161  13.400
87829W        W49195  21.205  36.360   2.391
87830W        W49196   0.841   3.877   0.826
87831W        W49197  21.610  27.994  11.537
87832W        W49198  18.250  16.793  10.974
87833W        W49199  37.953  31.559   1.737
87834W        W49200  15.667  16.642  10.101
87835W        W49201  10.851  20.645  11.439
87836W        W49202  11.174  15.712  12.512
87837W        W49203  40.880   2.866  11.422
87838W        W49204  21.652  25.496  13.836
87839W        W49205  37.469  24.492  12.485
87840W        W49206  11.285  30.647   3.849
87841W        W49207  35.077  31.614  11.859
87842W        W49208  38.498  27.580   4.695
87843W        W49209  41.789  43.402   3.763
87844W        W49210   5.290  14.619  12.541
87845W        W49211  14.774  18.271  13.963
87846W        W49212   1.856  14.778  12.081
87847W        W49213  24.530  11.171   3.212
87848W        W49214  23.566  36.876  14.337
87849W        W49215  33.578  22.093  10.599
87850W        W49216  35.416  36.481  12.373
87851W        W49217  38.942   4.360  10.485
87852W        W49218  13.620   0.331  11.980
87853W        W49219  16.652  38.041   4.624
87854W        W49220  35.026  23.045   2.900
87855W        W49221  16.767  32.937  12.560
87856W        W49222   8.207  19.607   2.225
87857W        W49223  24.150  14.301  11.973
87858W        W49224  39.825   3.234   4.833
87859W        W49225   5.246  41.296  14.331
87860W        W49226   3.817  32.911  12.464
87861W        W49227  36.380  13.735   0.921
87862W        W49228  17.305   0.362  13.323
87863W        W49229  27.521  18.062   3.869
87864W        W49230  28.148  44.000   0.371
87865W        W49231  39.374  30.517   2.902
87866W        W49232  23.216   4.238  11.992
87867W        W49233  27.540  36.845   4.689
87868W        W49234   4.292  44.381   0.842
87869W        W49235  26.203  34.479  10.599
87870W        W49236  27.501  21.598  11.074
87871W        W49237  27.944   4.920   2.313
87872W        W49238  19.705   3.361  13.348
87873W        W49239   1.761  23.181   2.355
87874W        W49240  24.148  37.530  10.058
87875W        W49241   0.838  22.510   1.864
87876W        W49242   9.232  12.203   1.720
87877W        W49243  43.775  13.777  14.331
87878W        W49244  41.477  21.548   3.673
87879W        W49245  28.643   5.851  11.554
87880W        W49246  14.681  18.074   4.349
87881W        W49247  32.082  41.477   2.896
87882W        W49248  21.694   4.335  12.371
87883W        W49249  24.655  40.501   1.724
87884W        W49250  42.283  39.413  10.998
87885W        W49251  32.418  20.639  12.511
87886W        W49252  43.978  11.319   0.731
87887W        W49253  21.693  32.918   1.384
87888W        W49254  27.102   8.733   4.260
87889W        W49255  41.406  24.007   3.360
87890W        W49256   2.962   0.897  11.889
87891W        W49257  41.962  41.420   4.204
87892W        W49258  44.973   7.392   0.243
87893W        W49259  19.274  25.602  11.493
87894W        W49260  33.512  25.029   1.853
87895W        W49261   7.186  36.534  11.586
87896W        W49262   8.897  30.137  14.027
87897W        W49263  23.233  34.922   1.283
87898W        W49264  41.350  41.901  13.459
87899W        W49265   1.928  42.782   2.313
87900W        W49266   9.327  10.325   0.743
87901W        W49267  19.066  43.512  12.876
87902W        W49268  34.873  39.452   0.876
87903W        W49269  39.953  11.205   1.360
87904W        W49270  38.492   8.767   4.148
87905W        W49271  34.935  14.334   0.342
87906W        W49272  19.210   4.938   4.278
87907W        W49273   7.753  14.315   0.350
87908W        W49274  42.492  32.957  10.495
87909W        W49275  28.121  21.686   5.190
87910W        W49276  33.927  42.333   3.779
87911W        W49277  18.248  14.235   5.109
87912W        W49278  14.221  38.877   3.743
87913W        W49279   7.204  15.223  11.522
87914W        W49280  28.671   3.410   4.616
87915W        W49281  34.953  30.488  10.577
87916W        W49282  28.526   4.934   4.623
87917W        W49283  10.871  15.646   3.280
87918W        W49284  33.961  22.216  14.967
87919W        W49285  30.484  14.687  13.018
87920W        W49286  33.387   2.885   2.820
87921W        W49287  22.656  12.289  13.900
87922W        W49288  36.379   7.344  10.892
87923W        W49289  21.574  14.722   3.294
87924W        W49290  40.478  33.970   2.296
87925W        W49291  28.078  40.802   0.476
87926W        W49292   7.295  42.475   0.394
87927W        W49293   6.379   8.243  14.896
87928W        W49294  30.590   1.298  13.856
87929W        W49295  41.441  39.017  12.564
87930W        W49296   3.277   4.384  14.275
87931W        W49297  27.682  41.841  13.967
87932W        W49298  42.354   6.784   4.221
87933W        W49299  41.920  28.968  11.927
87934W        W49300   3.215  27.147  14.416
87935W        W49301  30.561  21.119  14.967
87936W        W49302  30.104  16.163  12.832
87937W        W49303  14.221  12.614  10.545
87938W        W49304  30.527  17.750  11.129
87939W        W49305  38.488  15.823   2.894
87940W        W49306  43.826  31.539  13.483
87941W        W49307  28.621  28.040   1.757
87942W        W49308  33.903   4.757  12.566
87943W        W49309  40.952   6.876   3.739
87944W        W49310  18.134  10.652  14.462
87945W        W49311  42.355  37.863   2.314
87946W        W49312  24.707  37.940  12.343
87947W        W49313  16.736   4.292  10.572
87948W        W49314  16.803  43.825   3.235
87949W        W49315   6.728  32.932  14.355
87950W        W49316  13.638  40.917   2.265
87951W        W49317  25.549  39.384   4.798
87952W        W49318  24.508   8.751   5.117
87953W        W49319  14.143   4.228  11.898
87954W        W49320  22.252  27.013  12.986
87955W        W49321  33.099  16.223  12.561
87956W        W49322  42.964   3.323  14.948
87957W        W49323  19.277  32.019  10.931
87958W        W49324  37.958  17.627   1.858
87959W        W49325   0.362   9.335   2.320
87960W        W49326  42.513   0.320   1.811
87961W        W49327   3.931   0.878  12.894
87962W        W49328  10.669   0.894   1.842
87963W        W49329   8.205   0.409  11.015
87964W        W49330  30.424  16.097  12.974
87965W        W49331   3.722   8.395   2.208
87966W        W49332   4.761  13.308  10.924
87967W        W49333  42.376  15.681   3.675
87968W        W49334  31.013  24.527  12.043
87969W        W49335  44.337  21.039   3.858
87970W        W49336  21.698   5.282  10.512
87971W        W49337  39.432  39.476  14.427
87972W        W49338  18.734  29.440  12.871
87973W        W49339  13.121   3.797   1.256
87974W        W49340  32.072   6.917  14.507
87975W        W49341  30.525   9.392  14.995
87976W        W49342  25.985   1.959   9.930
87977W        W49343   0.770  30.138  13.394
87978W        W49344  25.624  39.900  14.815
87979W        W49345  38.498  10.233   0.864
87980W        W49346  13.791  10.219  12.342
87981W        W49347  44.799   4.342   4.804
87982W        W49348  35.469  44.891  13.015
87983W        W49349  25.653  14.749  13.461
87984W        W49350   0.279  26.178   0.333
87985W        W49351  43.827  39.536   2.673
87986W        W49352  31.444  28.505   4.782
87987W        W49353  30.485  32.939   0.904
87988W        W49354  24.518  40.385   2.178
87989W        W49355  20.698  22.532  13.864
87990W        W49356   8.271  24.557  10.914
87991W        W49357   0.353   7.361  14.474
87992W        W49358  24.135  11.833  13.003
87993W        W49359  20.150  17.193  11.093
87994W        W49360  33.436  39.037  10.513
87995W        W49361  43.276  39.418  13.470
87996W        W49362  23.646  33.579  13.402
87997W        W49363  10.157  17.610  14.019
87998W        W49364  10.802   5.919   4.643
87999W        W49365  32.024  21.110  12.456
88000W        W49366  37.916  35.574  12.047
88001W        W49367  30.999  33.444  14.890
88002W        W49368  13.225  34.882  14.488
88003W        W49369  35.937  44.421  14.887
88004W        W49370  20.610  37.055  14.926
88005W        W49371  39.814  21.126   3.759
88006W        W49372  14.682  22.191  13.879
88007W        W49373  18.680   0.965   0.748
88008W        W49374   7.369  28.646   3.308
88009W        W49375  44.368  11.222  11.955
88010W        W49376   3.364  16.084  14.863
88011W        W49377  35.037  21.054   4.799
88012W        W49378   1.934  25.703  12.415
88013W        W49379  28.488  10.771  12.957
88014W        W49380  33.571  25.532  10.918
88015W        W49381  37.970  40.506  12.352
88016W        W49382   4.942  14.230   3.227
88017W        W49383  36.387  16.175  11.423
88018W        W49384  37.420  16.614   0.870
88019W        W49385  23.209  15.695   1.447
88020W        W49386  24.642   8.282   0.881
88021W        W49387   9.260  15.728   2.698
88022W        W49388  15.777   3.319   3.862
88023W        W49389  29.577   9.718  12.514
88024W        W49390  29.488   5.885   3.222
88025W        W49391   8.781   0.824  10.897
88026W        W49392  20.189  13.759   0.325
88027W        W49393  43.796  27.009  14.797
88028W        W49394   1.276  44.345  12.863
88029W        W49395   1.923  24.007   3.746
88030W        W49396  16.108   5.196   3.165
88031W        W49397   6.226  42.925  13.052
88032W        W49398  13.290  40.522   2.203
88033W        W49399   3.883  17.160  10.944
88034W        W49400  25.219  24.151  11.466
88035W        W49401   0.751  18.545  12.914
88036W        W49402  38.033  43.391  10.431
88037W        W49403   3.322  11.330  14.415
88038W        W49404   9.717  41.977  12.382
88039W        W49405  15.113  40.511  11.515
88040W        W49406  35.953   3.461   0.460
88041W        W49407   5.245  17.728  11.057
88042W        W49408   1.308  25.049  12.015
88043W        W49409   5.399  16.130  12.866
88044W        W49410  10.841  40.529   1.263
88045W        W49411   3.313  42.917  13.840
88046W        W49412   6.831  20.187   2.232
88047W        W49413   0.443  36.872  12.464
88048W        W49414   6.878  20.241   1.382
88049W        W49415  28.108  18.087  11.000
88050W        W49416  20.637  22.711   1.715
88051W        W49417   0.263  44.778  12.867
88052W        W49418  13.777   9.343   4.197
88053W        W49419   8.317  17.584   1.911
88054W        W49420   3.298  18.566  11.949
88055W        W49421  21.663  42.790   3.151
88056W        W49422  15.632   4.817   4.259
88057W        W49423  41.811  19.730  14.921
88058W        W49424  15.715   2.779   2.333
88059W        W49425  41.458  40.925  12.931
88060W        W49426  38.065   2.830   0.304
88061W        W49427  19.605  32.054   2.813
88062W        W49428  35.408  42.951  14.812
88063W        W49429   3.331   3.927  11.970
88064W        W49430   8.358   5.902   0.280
88065W        W49431   5.427  17.218  11.080
88066W        W49432  28.665  14.192  12.981
88067W        W49433  31.127  43.506   1.697
88068W        W49434  31.591  38.467  11.378
88069W        W49435   3.854  22.135   4.259
88070W        W49436  35.105  42.334   0.851
88071W        W49437  25.598  33.900  11.067
88072W        W49438  17.070  11.134  11.885
88073W        W49439  23.984  35.862   1.729
88074W        W49440   5.793  19.538  12.367
88075W        W49441  39.857  41.018  11.079
88076W        W49442  25.102  29.439   2.682
88077W        W49443  25.015   0.430   2.798
88078W        W49444  28.527  35.918   3.165
88079W        W49445   4.868  42.487   3.760
88080W        W49446  27.005  12.362  11.454
88081W        W49447  42.358  21.061  10.053
88082W        W49448  25.635   9.250   0.839
88083W        W49449  30.461   4.727  12.860
88084W        W49450  30.062  43.796   0.869
88085W        W49451  42.924  33.571  11.610
88086W        W49452  25.165  44.346  11.941
88087W        W49453  23.108   2.735   2.398
88088W        W49454  43.495  43.363   1.227
88089W        W49455   0.444  34.028   3.154
88090W        W49456  35.956  18.083   3.825
88091W        W49457  43.394  22.614   0.269
88092W        W49458  35.015   5.920   2.326
88093W        W49459  30.590  18.193   9.548
88094W        W49460  17.566  18.588  13.891
88095W        W49461  42.458  38.343  10.423
88096W        W49462  36.941  25.160   2.682
88097W        W49463  11.829  20.665   4.736
88098W        W49464  20.165   6.191   0.373
88099W        W49465  41.295  20.257  13.895
88100W        W49466   5.920  10.269   2.411
88101W        W49467   9.226  25.084   1.280
88102W        W49468   3.444  36.930   3.367
88103W        W49469  16.195  11.836  14.842
88104W        W49470  12.655  31.044  11.046
88105W        W49471  17.171   8.379  14.887
88106W        W49472   7.857  18.137   0.888
88107W        W49473  42.346  24.672   0.740
88108W        W49474  19.064  14.829   3.867
88109W        W49475  30.153  24.990  12.482
88110W        W49476  37.878  26.034  14.875
88111W        W49477  28.091   3.940  13.847
88112W        W49478  12.615   3.807   3.778
88113W        W49479  41.813  24.099   0.381
88114W        W49480  34.581   7.834   4.202
88115W        W49481  26.046   2.811   0.473
88116W        W49482   9.869  19.577  10.605
88117W        W49483  40.028  26.118   2.357
88118W        W49484  23.650  32.127   0.859
88119W        W49485  40.803   9.710  10.428
88120W        W49486  44.993  16.175   2.753
88121W        W49487   6.773  32.530  11.086
88122W        W49488  20.757  43.329   1.888
88123W        W49489  27.560   0.797  13.929
88124W        W49490   3.458  36.074   0.470
88125W        W49491  42.029  12.813  14.285
88126W        W49492  15.202  32.455   3.304
88127W        W49493   6.334  40.797   4.279
88128W        W49494  22.234  10.859   0.383
88129W        W49495  32.530  30.125   0.394
88130W        W49496  40.865  31.919  13.330
88131W        W49497   9.301  17.559  12.380
88132W        W49498  11.667  35.065  12.923
88133W        W49499  12.214  10.146  12.929
88134W        W49500   9.278  33.037   4.324
88135W        W49501   6.341  18.699  14.770
88136W        W49502  14.758  18.769  14.494
88137W        W49503   7.724   7.814  11.532
88138W        W49504  16.698   3.410   2.180
88139W        W49505  11.638   1.454   0.850
88140W        W49506   2.771  19.764   2.702
88141W        W49507   1.293   9.348  12.429
88142W        W49508  13.613   1.740  12.026
88143W        W49509  15.111  18.146  11.859
88144W        W49510   1.385   3.331   4.177
88145W        W49511  17.256  39.329  12.078
88146W        W49512  39.844  11.270  14.452
88147W        W49513   7.799  14.788  11.052
88148W        W49514  16.600  30.134  14.973
88149W        W49515  36.953  26.632   2.871
88150W        W49516   1.433  18.051   3.308
88151W        W49517  35.485   7.700  12.997
88152W        W49518   3.352  38.419  13.053
88153W        W49519  33.963  19.092   9.629
88154W        W49520  28.109  20.690   4.615
88155W        W49521  43.813  24.500   1.310
88156W        W49522  10.353  15.244   4.600
88157W        W49523  24.594  15.653   3.737
88158W        W49524  25.581  35.522   4.728
88159W        W49525  11.187   8.787  12.579
88160W        W49526   7.854   4.321   2.686
88161W        W49527   9.227  15.101   9.648
88162W        W49528   7.671  32.596  12.091
88163W        W49529  18.660  39.018  12.088
88164W        W49530   5.250  26.650   2.886
88165W        W49531  14.197  38.037  12.558
88166W        W49532  39.986  35.904   4.270
88167W        W49533  29.448  24.673  14.397
88168W        W49534  31.038  21.641   1.367
88169W        W49535   8.286   6.841  10.562
88170W        W49536   3.774  24.586  14.029
88171W        W49537  36.542   9.728  14.410
88172W        W49538  19.553  31.039  13.919
88173W        W49539   1.957  42.499   2.730
88174W        W49540  36.573  29.610   0.760
88175W        W49541   6.274  25.111   1.383
88176W        W49542  31.527  13.626  11.086
88177W        W49543  13.784  37.350  12.895
88178W        W49544  20.632  29.175   0.424
88179W        W49545   8.683  18.574  14.821
88180W        W49546  16.654  35.940  13.956
88181W        W49547  36.415  14.668  11.493
88182W        W49548   8.252  43.371   2.782
88183W        W49549   5.718  35.902   3.320
88184W        W49550  38.848  31.563  12.017
88185W        W49551  20.542   4.247  11.497
88186W        W49552  36.457  19.540   2.888
88187W        W49553  10.254  18.076   3.832
88188W        W49554  23.143  19.088   3.759
88189W        W49555  44.981  31.042  14.305
88190W        W49556  36.399  16.256   0.850
88191W        W49557  39.424   2.308  12.083
88192W        W49558   8.781  23.031  13.979
88193W        W49559  11.298  43.403  11.859
88194W        W49560   0.978  42.978   1.369
88195W        W49561   3.436  20.232   1.869
88196W        W49562  11.351  41.838  14.488
88197W        W49563   4.798  17.787   2.775
88198W        W49564   3.350   4.842   1.430
88199W        W49565   4.269  33.603  10.961
88200W        W49566  11.127  13.236   1.896
88201W        W49567  34.505  42.293   3.278
88202W        W49568  12.358  12.317  11.959
88203W        W49569  28.525  29.946  14.454
88204W        W49570   1.937  29.550  12.998
88205W        W49571  14.134  10.178  13.981
88206W        W49572  21.736  32.446  13.323
88207W        W49573  37.056  27.139  12.578
88208W        W49574  32.950  22.586  12.431
88209W        W49575  24.078   0.911  13.831
88210W        W49576  27.653  11.190  14.906
88211W        W49577   8.662  30.568  11.531
88212W        W49578  14.590  42.920   2.385
88213W        W49579  44.976  32.496   4.231
88214W        W49580  37.869  14.714   0.771
88215W        W49581  18.215   9.669  12.462
88216W        W49582  15.601   2.859   3.866
88217W        W49583  23.216   7.207   3.213
88218W        W49584  21.216  24.630  12.985
88219W        W49585  28.523   5.899  11.094
88220W        W49586  29.081  41.812  14.464
88221W        W49587  39.839  23.671   4.759
88222W        W49588  39.817  37.514  13.358
88223W        W49589  28.561  28.551  14.388
88224W        W49590  25.083  16.754  11.007
88225W        W49591  43.773  37.525   1.783
88226W        W49592   5.365  35.037  11.381
88227W        W49593  15.769   0.407   1.264
88228W        W49594  43.480  14.129   3.840
88229W        W49595  15.706  36.063   4.641
88230W        W49596  31.626   8.881  13.339
88231W        W49597  25.037  44.475  14.339
88232W        W49598  39.829  15.144  12.092
88233W        W49599  18.060  37.998  13.319
88234W        W49600  12.242  24.163   1.790
88235W        W49601   0.344  38.471   1.262
88236W        W49602  13.778  33.461   1.724
88237W        W49603  17.125  12.324  10.433
88238W        W49604   6.244  42.351  14.308
88239W        W49605  17.276  28.623   4.636
88240W        W49606  17.716  13.302   1.723
88241W        W49607  31.148  16.766   0.260
88242W        W49608   7.816  17.700  14.373
88243W        W49609  39.366  14.665  12.921
88244W        W49610  43.312  43.930  14.884
88245W        W49611  15.589  23.108  12.942
88246W        W49612   7.249  31.525   1.926
88247W        W49613   0.807  31.624  11.527
88248W        W49614  44.927   0.263  12.532
88249W        W49615   9.180  35.960   5.251
88250W        W49616   6.416  28.053  14.012
88251W        W49617  25.624  20.645  10.933
88252W        W49618   5.807  23.512   0.822
88253W        W49619  14.617  36.514  14.286
88254W        W49620  41.482  26.553  11.402
88255W        W49621  28.536  33.019   4.240
88256W        W49622  33.418  16.118  10.901
88257W        W49623  22.669  25.012   5.159
88258W        W49624   7.207   0.882   2.682
88259W        W49625  23.019  16.175   4.700
88260W        W49626  22.717  42.944   2.848
88261W        W49627   1.972  25.541  14.909
88262W        W49628  31.020  27.942  10.959
88263W        W49629  43.834  27.641  14.360
88264W        W49630  17.302  37.041  12.997
88265W        W49631  15.776  40.350  11.519
88266W        W49632  43.398  36.953  13.361
88267W        W49633  22.578  10.381   4.603
88268W        W49634   1.782  21.614   3.726
88269W        W49635  40.440  34.416   2.736
88270W        W49636  35.490  43.950   2.295
88271W        W49637  34.549  22.634   1.247
88272W        W49638   3.428   2.240  13.979
88273W        W49639  21.208  12.141   2.326
88274W        W49640  18.175  15.682   2.367
88275W        W49641  26.604  35.004  13.849
88276W        W49642  28.486  22.664   4.155
88277W        W49643   5.931  15.192   1.741
88278W        W49644   9.700  16.671   3.369
88279W        W49645  41.521  10.706   3.746
88280W        W49646  32.594  17.244  14.506
88281W        W49647  42.418  39.461   2.865
88282W        W49648  24.132  18.121   3.308
88283W        W49649  35.508   8.679   2.188
88284W        W49650  12.671  40.029  10.923
88285W        W49651  24.584  17.792  10.930
88286W        W49652  38.958  12.164   4.144
88287W        W49653   5.711  24.551   3.767
88288W        W49654  10.248  27.018  10.473
88289W        W49655  20.153  39.827  14.318
88290W        W49656  32.073  42.427   4.682
88291W        W49657   0.773  40.393   2.839
88292W        W49658  16.250  13.752   2.761
88293W        W49659  42.850  14.675  10.545
88294W        W49660   8.197  23.107  12.998
88295W        W49661   9.375  20.060  13.987
88296W        W49662  19.262   1.976  11.435
88297W        W49663  19.112  36.408  13.400
88298W        W49664  38.455  28.587   4.823
88299W        W49665  19.282  39.329   0.810
88300W        W49666   4.744   3.768   0.845
88301W        W49667   6.426  35.418  14.499
88302W        W49668  29.121  17.242   3.256
88303W        W49669  44.497   2.301  12.841
88304W        W49670  26.958  42.373   0.438
88305W        W49671  21.219  11.778  14.862
88306W        W49672   7.247  21.224  14.448
88307W        W49673   4.908  22.123  12.417
88308W        W49674  11.249  24.204   4.207
88309W        W49675  38.963  37.525   1.793
88310W        W49676  13.833  17.771  10.422
88311W        W49677  10.144  41.335  10.923
88312W        W49678  22.019  28.126  12.928
88313W        W49679  24.634  11.244  13.038
88314W        W49680  29.016  37.857  13.321
88315W        W49681  29.583   6.800   3.309
88316W        W49682   6.861  12.267   0.468
88317W        W49683  22.740  33.087  11.878
88318W        W49684  25.150   3.886  11.891
88319W        W49685  16.661  32.478   0.877
88320W        W49686  19.090  21.596  10.514
88321W        W49687  12.806  29.975  11.373
88322W        W49688  36.426  26.695   1.710
88323W        W49689   2.898   8.855  11.914
88324W        W49690   7.277  20.634  13.955
88325W        W49691  25.577  39.912  14.501
88326W        W49692  23.156  27.944   5.286
88327W        W49693  44.475  37.841  14.308
88328W        W49694  10.351  44.988   3.266
88329W        W49695  38.434   5.933  11.004
88330W        W49696  10.259   0.890  11.587
88331W        W49697  40.340  19.739  10.541
88332W        W49698  17.750  39.006  13.803
88333W        W49699  29.427  18.642  10.417
88334W        W49700   3.313  21.108   2.698
88335W        W49701   4.765   5.812  12.576
88336W        W49702  27.147   5.351   2.781
88337W        W49703  34.419  15.223  14.993
88338W        W49704   5.698  21.712  12.417
88339W        W49705  34.872  30.659  13.876
88340W        W49706  32.938  10.342  11.489
88341W        W49707  11.756   5.906   2.376
88342W        W49708  11.362   4.721  11.123
88343W        W49709  26.003  13.349  13.013
88344W        W49710  31.409  37.901   2.202
88345W        W49711  26.057  43.375   1.755
88346W        W49712   1.369   0.302  11.445
88347W        W49713  40.889  22.566   0.816
88348W        W49714  39.506   0.462  12.927
88349W        W49715  34.105   5.311  13.941
88350W        W49716   0.401  35.551   3.301
88351W        W49717  21.697  29.524  14.353
88352W        W49718  38.988   8.692   4.791
88353W        W49719  16.087  44.789  14.515
88354W        W49720  32.565  42.480  14.321
88355W        W49721  14.330  27.128  11.941
88356W        W49722  40.855  32.491   2.726
88357W        W49723  44.504  18.236   1.238
88358W        W49724  14.788  27.090  10.483
88359W        W49725  10.218   9.169   0.467
88360W        W49726   6.382  26.057  11.919
88361W        W49727  30.494  15.682  12.879
88362W        W49728  11.253  29.031   3.248
88363W        W49729  44.462  38.978   0.423
88364W        W49730  22.688  39.845   1.266
88365W        W49731  44.802  35.956   2.807
88366W        W49732  37.488  30.465  13.812
88367W        W49733  17.791   8.393   2.296
88368W        W49734   0.383   7.874  13.799
88369W        W49735  13.169  13.264   5.211
88370W        W49736  30.078  10.250   2.342
88371W        W49737  20.051  14.809   4.816
88372W        W49738  10.747  40.433  14.369
88373W        W49739  44.824  21.134  12.824
88374W        W49740   7.352  24.492   4.336
88375W        W49741  16.193  36.927  14.908
88376W        W49742  35.106   5.202  10.443
88377W        W49743  28.978  38.955  10.409
88378W        W49744  17.681   7.379  11.434
88379W        W49745   7.394  13.259  14.831
88380W        W49746   9.701  15.252  12.908
88381W        W49747  27.686  23.672  14.793
88382W        W49748  13.722  39.982  13.473
88383W        W49749  25.962  13.602   1.860
88384W        W49750  40.014   0.819   4.132
88385W        W49751  25.471  41.485  14.291
88386W        W49752  17.569   6.298   0.874
88387W        W49753  30.439  14.833   4.620
88388W        W49754  19.179   8.378   0.425
88389W        W49755  42.023  12.144  13.836
88390W        W49756  23.238  14.680   1.695
88391W        W49757  22.056  38.415   1.935
88392W        W49758  40.399  36.431  14.763
88393W        W49759  43.280  36.427   0.431
88394W        W49760  41.528  18.154  14.466
88395W        W49761  40.861   4.433   2.329
88396W        W49762  44.298  43.351  10.989
88397W        W49763  44.361  15.187  12.502
88398W        W49764  26.032  26.009  10.615
88399W        W49765  34.413  18.226  14.864
88400W        W49766   4.828  29.481   0.837
88401W        W49767  30.519  22.236  12.081
88402W        W49768  16.181  22.107   3.740
88403W        W49769  39.432  22.162   4.801
88404W        W49770  21.206  22.183  13.921
88405W        W49771   4.299   7.750   4.182
88406W        W49772  28.624  35.433   1.319
88407W        W49773  21.706  21.521  14.509
88408W        W49774  23.031   7.229   0.798
88409W        W49775  20.559  21.066   0.812
88410W        W49776  11.234  20.712  12.957
88411W        W49777  13.602  19.567  12.360
88412W        W49778  36.372   4.841   3.245
88413W        W49779  42.376  18.640   2.716
88414W        W49780  22.591   5.400   4.701
88415W        W49781  18.100  32.594   0.349
88416W        W49782  10.691   9.692  10.575
88417W        W49783   5.320  40.323  11.491
88418W        W49784  14.630  31.616   5.241
88419W        W49785  38.418  28.086  13.021
88420W        W49786   8.255  23.026  11.070
88421W        W49787  12.820  32.566   1.854
88422W        W49788  29.473  35.424   3.734
88423W        W49789  10.138  15.266  13.880
88424W        W49790  38.057  24.227   3.710
88425W        W49791  24.126   0.333   3.169
88426W        W49792  43.354   4.784   3.189
88427W        W49793  13.814  17.572   4.152
88428W        W49794  10.378  16.587   1.436
88429W        W49795  15.716  34.536   2.770
88430W        W49796  12.117  22.593   0.839
88431W        W49797  22.746  14.782  14.780
88432W        W49798  32.594  32.021   1.860
88433W        W49799  26.992   6.827  11.976
88434W        W49800  41.789  39.464  14.899
88435W        W49801  43.924  26.690  14.298
88436W        W49802  24.566  10.169  11.454
88437W        W49803  44.791  33.545  13.005
88438W        W49804  35.875  35.980  11.560
88439W        W49805  31.125  14.243  10.896
88440W        W49806  10.381   1.377   3.376
88441W        W49807  25.543  34.537   2.849
88442W        W49808  24.223   9.182   4.144
88443W        W49809  34.945  33.889   2.773
88444W        W49810  21.628   9.175   1.826
88445W        W49811  38.549  17.272  11.485
88446W        W49812  30.931  13.719   3.146
88447W        W49813  36.403  40.440  12.373
88448W        W49814  21.191   5.757   4.803
88449W        W49815  19.255   0.431  14.445
88450W        W49816  39.347  11.338   1.348
88451W        W49817  35.552  40.968   1.737
88452W        W49818  18.772  34.079   2.396
88453W        W49819  30.530   6.228  10.990
88454W        W49820  34.928  19.251   4.730
88455W        W49821  32.431   9.332  12.905
88456W        W49822  36.504  38.474   4.173
88457W        W49823  16.677  39.360   4.725
88458W        W49824  22.044  16.810   1.905
88459W        W49825  31.612  29.601  12.041
88460W        W49826  29.038  37.338   2.870
88461W        W49827  40.349  37.530   3.684
88462W        W49828  40.983  12.236   0.440
88463W        W49829  25.651  14.215   1.728
88464W        W49830  28.134  11.671   1.377
88465W        W49831  25.164   8.386   3.180
88466W        W49832  18.175  40.825  13.869
88467W        W49833  17.268   6.875   3.639
88468W        W49834  17.185   8.674  10.052
88469W        W49835  19.160  25.044  14.820
88470W        W49836  42.361  37.072   0.399
88471W        W49837  12.734  43.492   0.844
88472W        W49838  32.928  27.562   3.822
88473W        W49839  18.270  21.675   0.761
88474W        W49840  16.764   7.206  10.968
88475W        W49841  10.694   1.882   4.655
88476W        W49842  14.780  22.707   4.705
88477W        W49843  36.411   2.372  14.830
88478W        W49844  15.086   6.819  14.408
88479W        W49845  29.537  15.678  11.522
88480W        W49846   7.891  11.333   3.664
88481W        W49847  15.716  42.485  13.399
88482W        W49848   6.390   3.953  11.380
88483W        W49849  17.621  22.576   4.817
88484W        W49850  13.758   0.820  14.471
88485W        W49851   0.753  25.122   4.309
88486W        W49852  36.459   3.253  13.315
88487W        W49853  25.561  17.697  13.912
88488W        W49854   2.902   8.848   1.862
88489W        W49855   2.337  27.637   2.180
88490W        W49856   9.675  44.853  14.375
88491W        W49857   9.156  31.966  13.409
88492W        W49858  33.550   4.420   3.295
88493W        W49859  39.016   6.915   1.447
88494W        W49860   2.383  28.481  10.539
88495W        W49861  41.448  38.360   3.641
88496W        W49862   4.826  11.730   2.701
88497W        W49863  43.366  26.111  11.495
88498W        W49864   0.948  39.525   1.805
88499W        W49865  17.737  32.044   0.410
88500W        W49866  19.203  13.826  12.430
88501W        W49867   9.212  18.254   0.269
88502W        W49868  29.584  27.975  14.013
88503W        W49869   3.850  21.563   0.461
88504W        W49870  39.015  23.670   3.286
88505W        W49871   2.725   9.678  12.954
88506W        W49872  15.135  23.665   4.779
88507W        W49873  17.564  30.916   1.735
88508W        W49874  24.495  18.627  10.430
88509W        W49875   8.329  32.081   1.285
88510W        W49876  18.719  21.157   1.802
88511W        W49877  32.041   6.204   1.890
88512W        W49878  30.491   4.214   3.720
88513W        W49879   4.215  30.458  10.956
88514W        W49880  35.562   3.439   4.805
88515W        W49881  16.659  25.978   3.831
88516W        W49882  13.270  17.188  12.431
88517W        W49883  32.141  39.392  13.835
88518W        W49884  15.595  21.569  12.092
88519W        W49885  22.071  13.233  14.926
88520W        W49886   6.213  27.101   2.781
88521W        W49887   0.896   9.396  12.016
88522W        W49888   7.823  18.605  14.486
88523W        W49889   4.836  13.814  13.354
88524W        W49890  38.881  17.789   1.767
88525W        W49891  35.402   5.714   3.340
88526W        W49892  14.594   9.295  13.493
88527W        W49893   2.824  30.126  14.765
88528W        W49894   8.264  10.714  12.841
88529W        W49895  42.850  14.736   1.885
88530W        W49896  31.960  34.590  10.039
88531W        W49897  22.236  40.492   3.269
88532W        W49898  40.873  19.771  12.342
88533W        W49899  40.829   0.905   2.297
88534W        W49900  24.707   4.938  11.586
88535W        W49901  11.792  27.664  10.520
88536W        W49902  13.686  43.297  12.913
88537W        W49903  14.142  13.319   3.166
88538W        W49904  21.637  18.106   0.886
88539W        W49905  21.161  42.427  10.909
88540W        W49906  41.843  42.880   3.849
88541W        W49907   4.231  34.522   1.305
88542W        W49908  35.360  23.079   2.702
88543W        W49909  31.579  43.328  13.976
88544W        W49910  43.460  33.080  12.064
88545W        W49911  22.631  10.166   2.739
88546W        W49912  18.246  11.776  12.870
88547W        W49913   8.368  40.494   3.786
88548W        W49914   4.735  11.193  10.160
88549W        W49915  35.470   9.234   1.705
88550W        W49916  13.625  38.057  13.383
88551W        W49917  41.836  11.636  14.834
88552W        W49918   1.752   8.406   3.287
88553W        W49919  24.017  20.600  13.847
88554W        W49920   3.897  32.972   4.207
88555W        W49921  42.387   9.203  11.552
88556W        W49922  44.977   4.397  14.963
88557W        W49923  42.340  34.890  13.523
88558W        W49924  19.728  15.657  12.998
88559W        W49925  37.047  26.203   1.354
88560W        W49926  10.644   0.284  11.588
88561W        W49927  20.668   4.787  14.498
88562W        W49928  42.480  28.469   2.380
88563W        W49929   8.342  39.883   4.310
88564W        W49930  32.076  41.799  13.522
88565W        W49931  18.764  11.736  14.844
88566W        W49932  16.274  24.207  11.429
88567W        W49933   8.272  39.544  13.506
88568W        W49934  13.177  23.021   3.769
88569W        W49935   1.769   5.904  11.036
88570W        W49936  12.221  23.677   1.344
88571W        W49937  41.998  24.120  11.399
88572W        W49938   4.930   2.915  11.065
88573W        W49939  29.005  30.519   3.632
88574W        W49940  39.036  28.519   4.350
88575W        W49941  27.971  33.031   1.356
88576W        W49942   4.905  37.378   4.773
88577W        W49943  44.435   6.185   1.742
88578W        W49944  29.973  38.335   4.311
88579W        W49945  21.692  18.594   4.636
88580W        W49946  33.970  38.348   3.276
88581W        W49947  13.159  35.887   0.776
88582W        W49948  37.487  31.946  12.475
88583W        W49949  27.682   5.706   1.264
88584W        W49950   3.344  42.854  14.315
88585W        W49951   8.397  35.866   2.718
88586W        W49952  44.003  37.012  13.894
88587W        W49953   0.351  29.564   0.417
88588W        W49954  14.118  14.238   4.337
88589W        W49955  27.005  20.740   0.857
88590W        W49956  34.084  26.512  11.936
88591W        W49957  24.709  11.355   2.840
88592W        W49958   6.779  19.073  11.090
88593W        W49959  35.102   7.398   1.308
88594W        W49960  35.592  41.933   2.364
88595W        W49961   9.182  29.925   3.187
88596W        W49962  16.779  19.662  12.856
88597W        W49963  44.983  16.628  14.989
88598W        W49964  43.821  38.029   4.267
88599W        W49965  36.458  12.677   4.331
88600W        W49966  24.670  19.146  10.550
88601W        W49967  15.246  23.512   4.333
88602W        W49968  17.175  20.154   4.635
88603W        W49969   1.876  26.651  11.869
88604W        W49970  23.151  13.248  12.407
88605W        W49971  13.178  36.061  12.933
88606W        W49972  26.957  31.953   0.285
88607W        W49973  14.607   2.912  12.570
88608W        W49974  14.735  35.600   0.405
88609W        W49975  37.971   1.260   0.446
88610W        W49976   9.247  29.637  14.282
88611W        W49977  33.979  12.321   4.605
88612W        W49978   8.238   1.756   4.143
88613W        W49979  34.446  27.511   3.690
88614W        W49980  23.061  11.325   3.272
88615W        W49981  11.686  30.489   4.823
88616W        W49982   7.882  29.573  10.091
88617W        W49983  24.007  29.465   3.245
88618W        W49984  37.040   6.852   4.316
88619W        W49985   5.927  12.178  14.902
88620W        W49986   2.379  29.161   0.921
88621W        W49987  15.309  17.306   2.220
88622W        W49988  35.562  10.331  10.617
88623W        W49989  15.164  12.616  13.020
88624W        W49990  34.455  35.950  12.934
88625W        W49991  43.858  39.370  14.885
88626W        W49992  43.809   4.750  11.887
88627W        W49993   2.448  30.558   3.188
88628W        W49994  34.517  29.664  12.987
88629W        W49995  25.194   4.294   1.870
88630W        W49996   2.372  44.500  11.925
88631W        W49997  31.581   8.855   0.376
88632W        W49998  42.925  33.520   3.232
88633W        W49999  28.485  35.892  14.480
88634W        W50000  31.098   1.250  13.449
88635W        W50001  13.755  16.110  11.477
88636W        W50002  18.084  16.279  14.973
88637W        W50003   1.764  17.682   0.303
88638W        W50004  35.966  44.974   2.777
88639W        W50005  15.196  37.862   2.180
88640W        W50006   2.932  44.455   1.277
88641W        W50007  34.485  11.788   1.880
88642W        W50008   6.303  33.895   4.765
88643W        W50009  14.132  21.214   3.231
88644W        W50010  11.220   9.376  12.575
88645W        W50011  35.865  43.392   4.145
88646W        W50012  18.252  19.219  10.514
88647W        W50013   1.927   1.832  14.851
88648W        W50014  18.663  26.565   0.907
88649W        W50015  26.131  23.211   4.189
88650W        W50016  36.383   2.361  10.903
88651W        W50017  35.466  29.946   2.885
88652W        W50018   7.836  28.644  14.414
88653W        W50019  14.305   2.961   4.782
88654W        W50020  41.832  18.238  13.976
88655W        W50021  22.701   8.326  13.446
88656W        W50022  44.388   4.736   1.806
88657W        W50023  41.495  23.013  14.005
88658W        W50024  40.450  37.347   3.243
88659W        W50025   0.905  22.726   1.418
88660W        W50026  40.807  31.126  12.010
88661W        W50027  25.665  13.293  10.956
88662W        W50028  29.024  16.760  12.911
88663W        W50029  11.257  36.044  12.377
88664W        W50030  24.545  14.624  13.958
88665W        W50031   7.706  29.980   4.679
88666W        W50032  23.063  44.420   2.740
88667W        W50033  39.353  36.036   2.765
88668W        W50034  30.623  27.056  12.569
88669W        W50035  27.102  26.658  14.447
88670W        W50036   0.763   8.401   3.700
88671W        W50037  35.104  40.841  11.930
88672W        W50038   9.801  22.100  14.806
88673W        W50039  14.596  34.564  12.940
88674W        W50040  40.009  40.503  14.333
88675W        W50041  19.276  42.327  11.399
88676W        W50042  38.022   7.218  11.040
88677W        W50043   1.806  16.208  12.916
88678W        W50044  33.065  32.053   4.759
88679W        W50045  31.089  33.577   2.780
88680W        W50046   4.280   1.858   2.867
88681W        W50047  43.916  16.708   0.405
88682W        W50048   5.199   8.206   4.799
88683W        W50049  44.438  13.789  12.466
88684W        W50050  39.981  11.794  14.872
88685W        W50051  21.541   7.408  14.283
88686W        W50052  11.809  35.448   9.653
88687W        W50053   1.436  17.685   3.216
88688W        W50054  11.667  43.387  11.375
88689W        W50055  27.091  24.091  11.923
88690W        W50056  36.520   9.875   2.850
88691W        W50057  29.964  38.054  14.950
88692W        W50058  35.945   7.341   3.162
88693W        W50059  44.407  40.932  10.625
88694W        W50060   0.782  15.114  13.046
88695W        W50061  14.095  42.351  10.641
88696W        W50062  39.001  43.797  11.974
88697W        W50063   3.923  43.299   4.759
88698W        W50064  39.031   4.813  14.848
88699W        W50065  42.986  10.821  14.407
88700W        W50066  25.090  11.777   3.631
88701W        W50067  28.182   6.830  12.534
88702W        W50068  40.312   5.202  10.905
88703W        W50069  27.164  11.339  11.474
88704W        W50070  13.306   5.305   4.313
88705W        W50071  41.509   4.309   4.354
88706W        W50072  13.817  35.980   2.726
88707W        W50073  17.732  18.612   3.725
88708W        W50074  24.682  16.652   0.413
88709W        W50075   8.840   6.221   5.306
88710W        W50076  22.033  24.724   2.802
88711W        W50077   5.886  16.771   9.516
88712W        W50078  32.515  44.753  12.940
88713W        W50079  32.435  17.197  10.578
88714W        W50080  31.060  35.946  12.085
88715W        W50081  19.126  18.751   0.472
88716W        W50082  31.644  29.665   3.814
88717W        W50083   1.919   7.370   2.728
88718W        W50084   3.833  19.098  14.354
88719W        W50085   0.358  36.091   0.463
88720W        W50086  10.649  37.518  14.353
88721W        W50087  35.921  14.160   0.849
88722W        W50088   3.734   4.747  14.416
88723W        W50089  23.239  20.091   1.437
88724W        W50090  13.673  25.567  13.797
88725W        W50091  38.068  30.606   2.705
88726W        W50092  42.414  27.090  12.980
88727W        W50093  43.828  35.560  11.902
88728W        W50094  32.509  28.553   0.369
88729W        W50095  35.437  38.464  13.371
88730W        W50096   3.389  13.181   0.323
88731W        W50097  36.470  38.355   3.751
88732W        W50098  29.574  42.465   4.742
88733W        W50099  17.670  20.180   1.705
88734W        W50100  42.943   3.372  13.932
88735W        W50101  33.100   6.221   4.283
88736W        W50102  12.321  31.548  11.112
88737W        W50103  35.411  44.831   4.150
88738W        W50104  31.621  40.981   1.794
88739W        W50105  16.579  12.224  13.818
88740W        W50106  27.469  42.836  12.421
88741W        W50107   1.736   1.297  12.407
88742W        W50108  30.037  28.182  13.944
88743W        W50109   7.760  17.788   4.329
88744W        W50110  15.136  14.171  14.943
88745W        W50111  10.192   6.832   3.750
88746W        W50112  38.513  19.174   4.654
88747W        W50113  24.119  23.219  13.805
88748W        W50114  26.188   1.953   3.870
88749W        W50115  17.565  37.455  11.965
88750W        W50116   6.730  26.040  14.321
88751W        W50117  32.061  27.161   1.880
88752W        W50118   2.463   5.434   4.668
88753W        W50119   2.276   2.391  14.312
88754W        W50120  40.319  41.864   1.928
88755W        W50121  28.474  33.893   2.798
88756W        W50122  38.512  16.615  13.426
88757W        W50123  35.409  25.039   2.773
88758W        W50124   0.808  11.719   4.652
88759W        W50125  27.126   9.173  10.997
88760W        W50126  30.498  30.055   4.288
88761W        W50127  34.923  10.256   9.979
88762W        W50128  21.207  36.981  13.925
88763W        W50129   7.307  25.500  12.340
88764W        W50130   2.762  37.086  14.407
88765W        W50131   0.247  10.194   1.339
88766W        W50132  24.567  25.551  13.044
88767W        W50133  32.572  28.629   3.314
88768W        W50134   8.835  34.464   1.737
88769W        W50135   1.951  29.924   3.794
88770W        W50136  42.388  37.083  13.406
88771W        W50137   6.706  27.475  13.024
88772W        W50138   3.894  36.368   3.717
88773W        W50139   4.450   4.931   1.773
88774W        W50140  43.829  41.387   1.753
88775W        W50141  41.463  31.553   2.388
88776W        W50142  33.549  27.484  11.386
88777W        W50143  37.404  25.619  10.606
88778W        W50144  42.332  31.098   1.219
88779W        W50145  20.568   6.282   4.174
88780W        W50146   3.858  21.255  12.529
88781W        W50147  37.578   7.315   3.165
88782W        W50148   7.297  15.656  12.888
88783W        W50149   2.805  42.864  13.957
88784W        W50150  35.928   7.775  13.434
88785W        W50151  41.909  27.641   3.869
88786W        W50152  34.944  24.651   3.797
88787W        W50153  21.213  16.122  11.951
88788W        W50154   8.801  28.661   2.348
88789W        W50155  31.092  25.482  11.093
88790W        W50156  15.782  44.470  11.981
88791W        W50157  12.792  15.310  11.943
88792W        W50158  26.531  42.287  13.009
88793W        W50159  28.634  20.037  10.010
88794W        W50160  34.026   0.349  13.881
88795W        W50161  37.052  13.767  12.505
88796W        W50162  16.270  23.534   3.344
88797W        W50163  24.656  21.108  14.512
88798W        W50164   0.328  31.646   3.826
88799W        W50165   1.468  37.034  12.024
88800W        W50166   5.739   6.389  10.550
88801W        W50167  40.389   9.150  11.983
88802W        W50168  38.979   1.389  13.799
88803W        W50169   6.379   3.225  11.553
88804W        W50170  22.067  30.114  12.539
88805W        W50171  23.990  44.403  12.342
88806W        W50172  20.534  17.249   0.323
88807W        W50173  28.994  32.975   2.299
88808W        W50174  25.708  38.937  10.048
88809W        W50175   0.415  39.064   1.398
88810W        W50176   0.879   6.730   0.291
88811W        W50177  25.115  24.195   2.400
88812W        W50178  17.750  26.610   3.212
88813W        W50179   5.857  25.120  12.847
88814W        W50180  25.544   1.438  12.539
88815W        W50181  29.157  24.162  14.881
88816W        W50182  17.076  42.962  11.437
88817W        W50183  25.053  17.285  11.454
88818W        W50184  38.328  38.474   1.864
88819W        W50185  32.502  22.744  14.414
88820W        W50186   3.860   0.428  10.126
88821W        W50187  20.733  38.934   3.286
88822W        W50188  28.126   6.710   2.253
88823W        W50189   4.797  15.286  11.475
88824W        W50190  30.976  42.462  11.856
88825W        W50191  36.092  23.537   1.816
88826W        W50192   1.805  40.810  13.816
88827W        W50193  23.238  40.483  13.050
88828W        W50194  29.081  44.305   4.149
88829W        W50195  14.743  35.954  11.878
88830W        W50196  42.319  13.828  11.569
88831W        W50197  22.537  24.035   1.369
88832W        W50198  42.457   0.872   4.115
88833W        W50199  26.653  13.765  13.877
88834W        W50200  43.375  36.566  12.911
88835W        W50201  43.976  30.988   1.763
88836W        W50202  18.222   0.785   1.915
88837W        W50203  44.816   8.187  12.913
88838W        W50204  22.160  18.131   0.833
88839W        W50205  16.741  38.448   2.766
88840W        W50206  30.069   2.287  13.940
88841W        W50207  34.055  23.171   2.835
88842W        W50208  40.427   6.919   2.675
88843W        W50209  12.298  26.193   3.270
88844W        W50210  41.428  11.139   3.246
88845W        W50211   2.312  12.845  10.547
88846W        W50212  21.248  41.830  13.534
88847W        W50213  22.026  28.470  10.406
88848W        W50214   7.174  38.501  11.005
88849W        W50215   1.879  22.509  12.971
88850W        W50216  21.223  11.635   4.803
88851W        W50217   8.776  20.662   4.786
88852W        W50218   6.298  20.233  13.529
88853W        W50219   5.384  19.052   9.543
88854W        W50220  22.134  32.416   2.803
88855W        W50221  19.692  13.209  10.405
88856W        W50222  26.595  33.984   2.361
88857W        W50223  40.029  11.714   1.853
88858W        W50224  35.862  22.157   2.883
88859W        W50225  25.100  37.495   0.330
88860W        W50226  38.380  38.862  13.928
88861W        W50227  26.138  25.011  14.876
88862W        W50228   1.904  20.145   1.722
88863W        W50229  30.604  39.933   1.404
88864W        W50230   0.836  20.071  14.390
88865W        W50231  15.135  34.584   1.791
88866W        W50232  12.168  19.242   4.827
88867W        W50233  24.199   5.925   0.774
88868W        W50234   0.802  21.652  12.002
88869W        W50235  19.210   2.409  13.966
88870W        W50236  36.466  19.183  12.896
88871W        W50237  18.693  31.640   2.734
88872W        W50238  36.544   9.854  11.463
88873W        W50239  33.400  23.033   2.837
88874W        W50240   0.461   9.344  12.995
88875W        W50241  17.090  23.185   4.147
88876W        W50242  27.686  33.492   4.820
88877W        W50243  15.657   9.388  12.096
88878W        W50244  12.277   4.940   2.828
88879W        W50245  32.137  12.614  10.616
88880W        W50246  33.028  28.988  14.975
88881W        W50247  30.096  44.311   4.598
88882W        W50248  39.880  19.710  12.995
88883W        W50249  17.299   7.897  14.923
88884W        W50250  15.790  13.732   2.321
88885W        W50251  19.636  39.328  14.026
88886W        W50252  32.541  20.524  12.046
88887W        W50253  16.625  32.437   0.483
88888W        W50254  38.828   9.263  12.983
88889W        W50255  26.972  17.227  11.505
88890W        W50256  33.037  37.990  14.931
88891W        W50257  20.760   0.813   3.833
88892W        W50258  21.578  37.058   0.903
88893W        W50259   5.843  42.462  13.868
88894W        W50260  16.080  28.129   2.706
88895W        W50261  24.156   9.347  13.351
88896W        W50262  44.479  24.591   2.407
88897W        W50263  11.806   1.393  13.466
88898W        W50264  23.001  25.621  12.497
88899W        W50265  31.582  38.890   1.284
88900W        W50266  33.073  43.872  14.479
88901W        W50267  40.383   5.847   1.357
88902W        W50268  35.944  44.958   2.402
88903W        W50269   3.255   4.932   2.207
88904W        W50270  18.743  37.581   3.322
88905W        W50271   4.943  14.143  14.336
88906W        W50272  39.560  21.126  14.935
88907W        W50273  32.127  14.224   0.842
88908W        W50274  21.586  12.167  12.573
88909W        W50275  28.947  13.246   2.227
88910W        W50276  24.009  18.753  13.834
88911W        W50277   0.896  35.032  12.865
88912W        W50278   3.395  35.474  13.441
88913W        W50279  37.488   5.829  13.403
88914W        W50280  30.587  25.614  12.376
88915W        W50281  36.088  33.032  12.904
88916W        W50282  27.993   0.799   4.222
88917W        W50283  13.273  35.045  12.366
88918W        W50284  35.963  39.052  11.922
88919W        W50285  22.733  32.073  11.866
88920W        W50286  25.485  25.687   0.479
88921W        W50287   7.881  14.113  11.095
88922W        W50288  34.579  14.698  10.990
88923W        W50289  13.797  26.972  14.894
88924W        W50290   0.372  42.379   1.795
88925W        W50291  42.522  36.945   3.255
88926W        W50292  20.227  13.602   3.791
88927W        W50293  23.732  33.420   2.325
88928W        W50294  40.516  41.027  11.017
88929W        W50295   2.243  14.802   3.840
88930W        W50296  12.138   4.430   1.393
88931W        W50297  12.666   2.296   4.229
88932W        W50298   8.345  21.144  12.960
88933W        W50299   0.750  39.041   4.777
88934W        W50300  10.682  21.636   2.839
88935W        W50301   5.907  14.210   0.298
88936W        W50302  29.543  10.729   0.286
88937W        W50303  22.206  31.526  12.012
88938W        W50304  29.528  43.349  12.458
88939W        W50305   5.690   9.174   1.213
88940W        W50306   6.343  33.928  12.851
88941W        W50307  33.996   4.858   1.853
88942W        W50308  38.477  11.784   4.651
88943W        W50309  20.054  28.633  13.799
88944W        W50310  19.246   7.839   2.727
88945W        W50311  22.563   9.343  12.889
88946W        W50312  16.144   8.352   3.262
88947W        W50313  34.003   8.316   1.446
88948W        W50314  43.274   3.432   3.275
88949W        W50315   8.230  11.718  12.484
88950W        W50316  25.590  27.046  12.404
88951W        W50317   9.649  28.070  12.371
88952W        W50318  17.173  27.491  10.101
88953W        W50319  34.573  13.742   1.282
88954W        W50320   5.712  19.108   3.732
88955W        W50321  28.630  35.008  14.330
88956W        W50322  28.463  28.033   5.601
88957W        W50323  21.745  42.780  12.408
88958W        W50324  26.646  44.335   0.461
88959W        W50325  10.862  16.757  10.943
88960W        W50326   3.247  41.386   3.816
88961W        W50327   3.269  37.393   3.277
88962W        W50328   1.288   3.412   1.799
88963W        W50329  23.036  30.991  14.907
88964W        W50330  11.692  27.457  12.989
88965W        W50331  11.752   5.761  11.097
88966W        W50332   7.323  40.334  12.377
88967W        W50333   0.745  21.619   1.381
88968W        W50334  19.161   1.356   1.835
88969W        W50335  21.196  37.405  14.765
88970W        W50336  14.218  15.297   2.887
88971W        W50337  32.092  13.728   3.658
88972W        W50338  28.019   4.753   1.932
88973W        W50339  16.289  25.136  14.022
88974W        W50340  32.011  44.300  10.431
88975W        W50341  22.216   4.773   0.291
88976W        W50342   3.842   2.903   3.811
88977W        W50343  23.063  10.639  14.332
88978W        W50344  23.164   5.404   1.831
88979W        W50345  44.382  40.340   0.287
88980W        W50346  20.072  15.267   0.799
88981W        W50347  26.612  27.529   0.461
88982W        W50348  11.248  40.967   2.274
88983W        W50349  13.602  19.226   0.370
88984W        W50350  43.357  16.757  14.428
88985W        W50351  43.354  37.032   3.762
88986W        W50352  33.116   7.195  10.974
88987W        W50353   3.405  39.007  13.503
88988W        W50354  10.718  14.273   2.416
88989W        W50355  11.827  34.574   4.612
88990W        W50356   2.240  16.604   3.765
88991W        W50357   9.344  26.611  11.963
88992W        W50358   8.248  34.010  11.385
88993W        W50359  19.560  44.450  12.006
88994W        W50360  43.385  31.646  14.964
88995W        W50361  43.937   7.208  10.970
88996W        W50362  26.125  17.705   0.844
88997W        W50363  36.499  41.938  11.561
88998W        W50364  30.104  24.602   3.702
88999W        W50365   7.849  12.143   4.630
89000W        W50366  25.685   0.431   2.405
89001W        W50367  40.376  36.005  11.121
89002W        W50368  19.748  21.078   5.273
89003W        W50369   9.794  16.596   0.951
89004W        W50370   0.266  32.511  11.033
89005W        W50371  24.154   3.911  11.534
89006W        W50372  14.827  31.035  13.913
89007W        W50373  17.128  15.816   5.215
89008W        W50374  33.594  26.057  10.894
89009W        W50375  31.928  18.124   2.328
89010W        W50376  27.981  37.983  14.006
89011W        W50377  10.638  15.631  13.488
89012W        W50378   9.230   3.870  13.432
89013W        W50379  13.152  20.709   2.185
89014W        W50380  18.572   5.323   4.834
89015W        W50381  22.071  12.266   0.323
89016W        W50382   8.835  37.436   2.386
89017W        W50383  31.131  35.027   1.750
89018W        W50384  38.559  17.606   3.190
89019W        W50385  23.544  12.288   0.767
89020W        W50386   1.806  34.435  14.937
89021W        W50387   3.715  43.387   2.830
89022W        W50388  33.461  43.903  12.027
89023W        W50389   4.721  10.251  13.834
89024W        W50390  18.083  32.496   3.357
89025W        W50391  37.070   7.813   0.444
89026W        W50392  35.492  10.781   4.774
89027W        W50393  17.162  18.289   0.451
89028W        W50394  14.751  24.045   1.812
89029W        W50395  28.054  18.683   3.267
89030W        W50396   8.216   0.405   1.450
89031W        W50397  15.275   7.697  14.930
89032W        W50398   8.258  14.612   2.693
89033W        W50399  34.976  39.877   0.732
89034W        W50400  13.213  39.362   3.293
89035W        W50401   1.263  10.724  10.446
89036W        W50402  40.839  36.993   1.890
89037W        W50403  24.113  34.381  11.021
89038W        W50404  16.126   9.358  13.001
89039W        W50405   0.797  21.135  11.507
89040W        W50406  23.724  30.126  13.982
89041W        W50407   5.274  12.785   9.952
89042W        W50408  24.623   3.278  12.850
89043W        W50409  17.668  42.457   1.918
89044W        W50410   3.348  10.302   0.395
89045W        W50411  14.620  13.800   1.844
89046W        W50412  12.231  35.058   0.823
89047W        W50413   5.426  32.625   3.671
89048W        W50414  34.519  35.030  10.941
89049W        W50415  39.431  34.425   0.867
89050W        W50416  36.901  23.528  13.853
89051W        W50417  25.567  30.940   4.795
89052W        W50418  26.606  13.290   4.260
89053W        W50419   9.344  24.045  13.510
89054W        W50420  23.104   0.396  10.490
89055W        W50421  23.515  27.010  13.513
89056W        W50422  33.123  14.816   3.318
89057W        W50423  33.937  29.625   1.385
89058W        W50424  29.065  28.015  13.929
89059W        W50425  10.269  24.987  11.565
89060W        W50426  23.145  10.163  10.508
89061W        W50427  44.397  30.080   2.898
89062W        W50428  43.839   7.838   4.659
89063W        W50429  14.102  14.272  11.530
89064W        W50430  31.579   6.679   2.810
89065W        W50431  42.353  35.578   0.918
89066W        W50432   0.396  13.819  12.984
89067W        W50433  41.334  30.441  13.010
89068W        W50434  31.966  28.131  12.940
89069W        W50435   5.215  38.858   0.332
89070W        W50436  16.174  24.588  13.994
89071W        W50437  15.316  13.343   0.839
89072W        W50438  27.583  23.191   0.355
89073W        W50439  31.124  24.137   4.323
89074W        W50440  16.298  15.140   9.951
89075W        W50441  14.310  38.554  12.490
89076W        W50442  26.013  39.054  14.802
89077W        W50443  11.664  38.895   4.211
89078W        W50444  16.235  37.483  14.481
89079W        W50445  10.378  24.697  10.423
89080W        W50446  22.223  44.766  14.450
89081W        W50447  11.671  31.518  11.121
89082W        W50448  21.163   0.327   4.314
89083W        W50449  26.982  11.628  14.460
89084W        W50450  29.005  11.735   0.324
89085W        W50451  15.330  36.915   0.854
89086W        W50452  29.922  32.557   3.821
89087W        W50453  17.063  25.153  14.884
89088W        W50454  18.678   7.884  11.884
89089W        W50455  12.632  26.051   2.817
89090W        W50456  39.972  27.607   0.389
89091W        W50457  41.455  27.629   2.345
89092W        W50458  35.365  34.592   1.233
89093W        W50459  23.693  37.886  12.901
89094W        W50460  31.927  44.345   4.758
89095W        W50461  16.318  40.956   4.779
89096W        W50462  39.992   0.481   1.257
89097W        W50463  27.619  23.996  14.923
89098W        W50464   4.241  23.147   3.677
89099W        W50465  34.975  31.081  13.314
89100W        W50466  28.560   7.743   0.423
89101W        W50467  20.083  33.542   5.118
89102W        W50468  26.696  32.465  14.871
89103W        W50469  42.372  30.968  13.493
89104W        W50470  21.023  25.069   1.851
89105W        W50471  30.645  39.448   4.737
89106W        W50472  33.586   9.878   0.957
89107W        W50473  18.616  37.337  12.441
89108W        W50474   3.946  10.729  12.073
89109W        W50475  34.089   2.823  12.893
89110W        W50476  16.213  36.021  13.509
89111W        W50477  16.280  17.289   5.222
89112W        W50478  39.060  34.392   4.210
89113W        W50479   4.282  29.029   2.845
89114W        W50480   1.911   5.255  13.333
89115W        W50481  29.656   0.865   0.915
89116W        W50482  31.578  18.562   0.414
89117W        W50483  23.044  11.138   0.437
89118W        W50484  42.465  33.524  13.942
89119W        W50485  21.244  25.511   1.897
89120W        W50486   5.367  10.763   0.732
89121W        W50487  30.104   3.935  13.880
89122W        W50488  34.587  42.949   2.699
89123W        W50489  24.641   8.901  14.461
89124W        W50490  11.854  32.103  13.828
89125W        W50491  41.797  27.101  13.542
89126W        W50492  16.768  23.698   1.758
89127W        W50493  40.359  42.430  13.987
89128W        W50494  10.343   2.745   1.911
89129W        W50495   7.896  27.964  12.883
89130W        W50496  40.322  13.105  11.121
89131W        W50497  32.091  14.336  11.407
89132W        W50498   0.377  16.791  10.445
89133W        W50499   5.257  24.135   4.650
89134W        W50500  40.459   1.413   0.466
89135W        W50501  44.274  32.890   1.924
89136W        W50502  14.205  36.061   2.292
89137W        W50503  10.350  30.436  14.365
89138W        W50504   2.460  19.646   5.133
89139W        W50505   4.900  28.047  12.078
89140W        W50506  41.471  37.884  12.849
89141W        W50507   7.230  41.513  13.801
89142W        W50508   9.820  24.600   3.657
89143W        W50509  18.680  15.812   4.828
89144W        W50510   5.334  12.321   2.856
89145W        W50511   3.893  25.688  12.861
89146W        W50512  10.697  25.039   1.419
89147W        W50513  12.660  14.642  11.537
89148W        W50514   3.843  34.517   4.631
89149W        W50515  21.075   3.774   1.351
89150W        W50516  40.389  39.050   3.194
89151W        W50517  21.083  11.240  10.064
89152W        W50518  24.988   3.810   2.309
89153W        W50519  11.667  37.031  14.486
89154W        W50520   0.386   7.849   3.153
89155W        W50521  22.123  23.050   1.810
89156W        W50522  10.180  19.283  14.982
89157W        W50523  35.091  44.447   1.389
89158W        W50524  32.491  42.020   1.354
89159W        W50525  21.728   4.829  14.867
89160W        W50526   6.907  26.673   3.149
89161W        W50527  27.999  15.160   0.830
89162W        W50528  16.144  38.500   1.320
89163W        W50529  11.859  28.094   0.439
89164W        W50530   4.799  37.890  14.336
89165W        W50531   6.697  15.706   3.362
89166W        W50532  29.156  29.022   2.210
89167W        W50533  34.567  41.526  12.892
89168W        W50534  20.654  15.591   9.972
89169W        W50535  17.639   5.267   0.775
89170W        W50536  28.969  42.988   4.694
89171W        W50537  25.575   1.860  11.567
89172W        W50538   1.327  33.491   0.910
89173W        W50539  39.492  10.726   3.820
89174W        W50540   1.804  42.870  14.297
89175W        W50541   0.457  26.649   0.910
89176W        W50542  27.017  43.019  12.862
89177W        W50543  18.097  15.308  11.396
89178W        W50544  39.436  31.108  11.046
89179W        W50545  29.578  17.278  14.351
89180W        W50546   6.801  33.382   4.672
89181W        W50547  44.902  39.856  14.794
89182W        W50548  24.207  23.711   2.812
89183W        W50549  24.151   0.989  13.329
89184W        W50550   8.730   3.768   1.251
89185W        W50551  20.708  36.855   3.685
89186W        W50552  20.733  22.238  14.891
89187W        W50553  35.092  38.336   2.293
89188W        W50554  12.279   2.325   1.319
89189W        W50555   7.251  25.104  12.865
89190W        W50556   6.235  36.887  13.412
89191W        W50557  28.010  26.062   0.336
89192W        W50558  30.573  21.580  10.480
89193W        W50559  11.247  31.932   0.782
89194W        W50560  31.456   6.718  14.993
89195W        W50561  32.922  20.523  13.513
89196W        W50562  13.600  16.737  14.888
89197W        W50563   2.259  40.894   3.152
89198W        W50564   0.292   2.919  10.916
89199W        W50565  42.858  30.546   0.824
89200W        W50566  25.679  19.554  14.500
89201W        W50567  11.278  25.193   3.672
89202W        W50568  19.285  34.984   1.738
89203W        W50569  24.673  35.579  14.022
89204W        W50570  22.516  37.409  13.035
89205W        W50571  22.719   7.766  12.825
89206W        W50572   1.368  33.396  11.418
89207W        W50573  18.245  17.656  13.422
89208W        W50574  25.052  44.933   0.767
89209W        W50575  25.508  18.122  11.886
89210W        W50576  22.067   8.350   1.323
89211W        W50577  43.922   7.759   2.395
89212W        W50578  43.343  17.595  14.806
89213W        W50579  40.807  11.157   4.120
89214W        W50580  40.911  32.940  14.483
89215W        W50581   0.309  13.674   2.758
89216W        W50582  33.477  25.009   4.829
89217W        W50583  43.919  40.459  13.345
89218W        W50584   2.926  40.995  12.385
89219W        W50585   5.225  11.303   0.837
89220W        W50586  36.074   0.419   1.710
89221W        W50587  16.249  22.089  14.876
89222W        W50588  20.701  40.818  13.479
89223W        W50589  26.983  41.435  12.523
89224W        W50590  10.239   6.418  14.916
89225W        W50591  42.024   0.414  12.073
89226W        W50592  12.670  26.485  10.947
89227W        W50593  29.481   6.807   2.252
89228W        W50594  16.118  27.139  12.024
89229W        W50595  12.270  15.116  12.953
89230W        W50596  40.833   8.861  14.304
89231W        W50597  20.761  34.044  13.517
89232W        W50598  20.722   7.688   0.820
89233W        W50599  15.161  21.119  14.990
89234W        W50600  26.532  13.840   3.212
89235W        W50601  37.444  20.232   5.096
89236W        W50602  31.102  40.797  12.577
89237W        W50603  44.492  10.711  11.917
89238W        W50604   8.729  37.455   3.782
89239W        W50605  38.870   8.241   2.773
89240W        W50606   5.318  21.051   0.433
89241W        W50607  14.773   1.378   0.329
89242W        W50608  37.052  10.294  10.946
89243W        W50609  35.025  43.513   1.243
89244W        W50610  41.393  34.089  14.293
89245W        W50611  13.726  13.723   9.996
89246W        W50612  27.017   7.884  12.445
89247W        W50613   3.374  39.853  11.957
89248W        W50614  25.138   8.390  14.395
89249W        W50615  26.583  10.142   1.436
89250W        W50616  29.523   1.816   4.329
89251W        W50617  31.410  17.558   3.675
89252W        W50618  17.627  13.301   0.399
89253W        W50619  19.735  12.726   1.429
89254W        W50620  44.915   0.765  10.566
89255W        W50621  37.571  38.420   3.793
89256W        W50622  44.834  14.639   4.737
89257W        W50623  31.443   3.714   1.893
89258W        W50624  22.145  25.058   2.296
89259W        W50625  44.297  28.446  12.012
89260W        W50626  41.329  29.058  11.094
89261W        W50627  32.103  27.580  13.421
89262W        W50628  10.683  10.173  14.336
89263W        W50629  12.653  16.166  14.959
89264W        W50630   1.379  39.320  11.591
89265W        W50631  11.179  14.286   3.755
89266W        W50632  42.333   6.848  11.579
89267W        W50633  12.665  41.309  12.975
89268W        W50634  40.487  11.627   5.136
89269W        W50635  33.581   1.313   1.876
89270W        W50636  30.068  15.137   1.211
89271W        W50637  26.636   0.908   4.328
89272W        W50638   6.923  32.610  12.934
89273W        W50639  20.676  42.382  11.914
89274W        W50640  14.193   3.751   4.354
89275W        W50641   3.823  44.960  10.483
89276W        W50642   9.760  35.362  14.012
89277W        W50643  25.186  42.471   1.876
89278W        W50644  31.967  25.636   0.898
89279W        W50645  40.478  13.312   1.409
89280W        W50646  34.065   1.956  11.532
89281W        W50647  29.601   8.271  11.081
89282W        W50648  19.118  18.747   3.775
89283W        W50649   9.320  37.854   0.953
89284W        W50650   8.664  40.915   0.937
89285W        W50651  27.559   1.295   1.422
89286W        W50652  34.411  22.501  14.779
89287W        W50653  24.682  23.234   2.720
89288W        W50654  44.400  31.963   0.370
89289W        W50655  42.458  26.044   4.618
89290W        W50656  29.960  20.058   3.765
89291W        W50657  37.022   9.878  12.429
89292W        W50658   7.865   7.233   1.381
89293W        W50659  30.067  43.871   1.861
89294W        W50660  14.255  13.600   4.208
89295W        W50661  34.969  16.763  13.015
89296W        W50662   1.306  31.522   4.758
89297W        W50663  44.455  10.369  13.329
89298W        W50664  32.073  31.568   3.373
89299W        W50665  11.205  43.922   4.724
89300W        W50666   5.258  24.506  12.855
89301W        W50667   3.241  12.808   1.225
89302W        W50668  16.165  20.076   1.360
89303W        W50669  27.077   7.398   2.855
89304W        W50670   6.834  16.242  13.492
89305W        W50671  44.361  24.180   3.295
89306W        W50672  33.394  15.222   2.280
89307W        W50673  38.481  11.790  14.022
89308W        W50674   8.711  39.849  13.425
89309W        W50675  29.455  19.658   2.710
89310W        W50676   9.176  24.087   2.221
89311W        W50677  29.632  12.163   4.734
89312W        W50678   1.387  26.660  14.440
89313W        W50679  11.227  32.968   1.384
89314W        W50680  36.567  10.327   0.388
89315W        W50681  12.620  27.158   1.391
89316W        W50682  18.550  21.101  10.572
89317W        W50683   4.425  25.199  11.508
89318W        W50684  17.192  36.874   1.861
89319W        W50685  41.038  34.500   0.419
89320W        W50686   1.808   7.860  14.990
89321W        W50687   5.433  23.175  10.501
89322W        W50688   9.671  42.984  10.579
89323W        W50689  31.982   5.219  11.916
89324W        W50690  33.425  30.550  10.522
89325W        W50691  37.511  38.509   1.799
89326W        W50692  16.808  31.606   1.859
89327W        W50693   8.294  37.848   1.763
89328W        W50694   9.227  39.809  14.787
89329W        W50695  16.644  15.680  12.400
89330W        W50696  39.535  29.063  13.470
89331W        W50697  31.060  10.638  11.455
89332W        W50698   5.371  40.893  13.060
89333W        W50699  31.412   9.781  14.024
89334W        W50700  19.610  16.599   2.311
89335W        W50701  34.373  20.151   2.305
89336W        W50702  13.280  28.987   2.887
89337W        W50703  42.975  43.999  10.539
89338W        W50704  28.028  21.172  11.373
89339W        W50705  37.979  25.189  12.391
89340W        W50706   3.797  18.602   3.859
89341W        W50707   2.866  13.754   4.756
89342W        W50708  10.190  33.506  14.772
89343W        W50709  21.676  39.915   3.690
89344W        W50710  11.191  22.027  14.930
89345W        W50711   2.738   7.783  14.766
89346W        W50712   8.711   0.855   2.793
89347W        W50713  14.715  34.040  14.490
89348W        W50714  36.528   8.178   3.773
89349W        W50715  17.742  33.507  13.904
89350W        W50716  42.296  22.217  13.821
89351W        W50717  28.629  26.588   2.662
89352W        W50718  16.764  32.450  12.029
89353W        W50719  42.020  26.547  10.435
89354W        W50720  27.085  10.193   0.304
89355W        W50721  31.553  40.520   4.304
89356W        W50722  36.425  33.607  14.951
89357W        W50723   5.906  29.644  13.535
89358W        W50724  40.955  35.906   1.405
89359W        W50725   3.408  15.297   2.711
89360W        W50726  32.408  24.554  13.436
89361W        W50727  19.673   2.231   2.819
89362W        W50728   7.792  15.823  11.943
89363W        W50729   7.786  44.941  12.559
89364W        W50730  10.157  25.484  12.826
89365W        W50731  29.632  33.029  12.874
89366W        W50732  36.970  29.443  11.875
89367W        W50733  11.255  37.072   0.351
89368W        W50734  22.681  35.525   0.436
89369W        W50735  22.139  33.907   3.325
89370W        W50736  33.600  14.125  14.513
89371W        W50737  41.873  18.670  10.527
89372W        W50738  29.443  14.784  14.857
89373W        W50739  30.001  27.131  11.570
89374W        W50740  14.592  41.020   0.769
89375W        W50741  43.966  38.371  10.953
89376W        W50742  31.082   6.251   4.312
89377W        W50743  39.556   6.187  14.861
89378W        W50744  37.394  10.773  12.833
89379W        W50745  18.692   7.838   0.372
89380W        W50746  25.632  38.074   0.884
89381W        W50747  35.964  41.422   2.870
89382W        W50748  17.766   1.301  10.974
89383W        W50749   2.846  15.246  12.883
89384W        W50750  19.764  31.534   3.283
89385W        W50751  39.449  15.316   3.312
89386W        W50752  28.477   8.841  12.920
89387W        W50753  16.791  20.610   2.673
89388W        W50754  26.681  41.414   0.868
89389W        W50755  31.019   8.745   1.275
89390W        W50756  28.557  36.428  13.360
89391W        W50757   5.414   4.898   2.728
89392W        W50758  42.965  44.373  14.394
89393W        W50759   4.792  31.472   3.270
89394W        W50760   8.836  32.024  12.409
89395W        W50761  27.971  12.183   3.632
89396W        W50762  33.527  31.444   0.350
89397W        W50763  16.231  11.798   0.839
89398W        W50764  23.651  33.409   0.320
89399W        W50765  17.128  41.521   3.747
89400W        W50766  31.530  17.167   0.940
89401W        W50767  37.026  22.628   4.697
89402W        W50768  13.693  15.327   5.687
89403W        W50769   8.402   7.778   4.704
89404W        W50770  21.532   5.344   2.744
89405W        W50771  14.155  43.764   0.448
89406W        W50772  35.960  34.475  14.410
89407W        W50773  31.907  41.445  11.022
89408W        W50774  32.618   5.819   0.904
89409W        W50775  32.928  23.586  10.989
89410W        W50776  31.986  32.886  13.539
89411W        W50777   6.916  21.175  11.610
89412W        W50778  38.862   4.285   2.236
89413W        W50779  14.334   1.869   1.705
89414W        W50780  23.017  10.748   2.847
89415W        W50781  27.001  19.190  13.393
89416W        W50782  31.046  23.549  11.559
89417W        W50783   2.399  32.028  10.931
89418W        W50784  43.886  12.147   0.824
89419W        W50785  19.675  44.816   1.257
89420W        W50786  15.747   6.374  12.412
89421W        W50787  22.179  12.292  12.465
89422W        W50788  16.094  33.034   1.812
89423W        W50789  43.465  18.624  11.610
89424W        W50790  23.517   6.787   1.868
89425W        W50791  41.414  39.863  13.519
89426W        W50792  24.590   6.395  14.366
89427W        W50793  10.242  28.595  14.819
89428W        W50794  14.249  16.259   2.185
89429W        W50795   9.873  24.607   1.340
89430W        W50796  26.513  15.610  11.416
89431W        W50797  42.003   2.286   4.344
89432W        W50798  13.298  20.089   4.225
89433W        W50799  42.943  11.160   4.149
89434W        W50800  21.747  29.611   4.634
89435W        W50801  15.721  37.415   3.685
89436W        W50802   3.861  32.100   3.224
89437W        W50803   0.453   7.219   0.477
89438W        W50804  34.915  10.766  12.985
89439W        W50805  25.064  40.017  12.895
89440W        W50806   1.367  30.573   3.306
89441W        W50807  38.496  20.522  13.023
89442W        W50808  28.021  20.175  14.956
89443W        W50809  41.846  15.231   2.204
89444W        W50810  35.994  40.864  14.362
89445W        W50811   8.845  36.852   3.257
89446W        W50812  14.644   1.847   2.220
89447W        W50813  39.856  40.308  10.447
89448W        W50814  37.874  27.114   3.190
89449W        W50815  26.584  35.087  13.447
89450W        W50816  10.302   7.679   0.895
89451W        W50817  39.349  36.430  11.899
89452W        W50818  16.101  43.850   2.784
89453W        W50819   4.421  31.985   1.441
89454W        W50820  37.517  23.637   3.320
89455W        W50821  25.133  42.371   3.711
89456W        W50822  25.043  15.600  11.516
89457W        W50823  19.676  28.973   4.632
89458W        W50824  33.937   0.776  11.423
89459W        W50825  29.658   8.781  12.378
89460W        W50826  25.566  21.035  13.812
89461W        W50827   6.908   9.380  10.991
89462W        W50828  20.237   6.849   3.646
89463W        W50829  12.164  43.405  12.348
89464W        W50830  43.284  18.688  14.459
89465W        W50831   6.694  14.792   0.935
89466W        W50832  26.627  20.719  14.887
89467W        W50833  11.846  25.119  12.851
89468W        W50834  19.254  21.662   3.306
89469W        W50835   2.944  10.864  14.492
89470W        W50836  42.436   5.701   2.891
89471W        W50837  27.635  36.402   1.271
89472W        W50838  42.339  20.593   2.209
89473W        W50839   2.733  15.189  12.094
89474W        W50840   1.420  15.635   3.633
89475W        W50841  26.585  31.921  13.898
89476W        W50842  31.450   6.291  13.043
89477W        W50843  21.693  11.359  11.481
89478W        W50844  13.704  38.456   2.757
89479W        W50845   2.241  43.345  12.982
89480W        W50846  34.029   2.227  12.010
89481W        W50847  32.496  39.382  14.449
89482W        W50848  40.486  41.862   0.337
89483W        W50849  26.679  15.584   0.418
89484W        W50850  15.185  32.434   1.884
89485W        W50851  26.688  40.924  11.377
89486W        W50852  34.591  29.426  11.543
89487W        W50853  20.223  35.915  13.849
89488W        W50854  16.226  20.591  11.549
89489W        W50855  43.410  31.454   0.925
89490W        W50856   8.806   1.408   0.467
89491W        W50857   0.460  24.613   4.712
89492W        W50858  12.155  43.843  10.977
89493W        W50859   7.758  35.403  12.823
89494W        W50860  15.609  28.100   2.416
89495W        W50861  12.341   1.875   0.812
89496W        W50862  20.226   5.815   1.727
89497W        W50863  41.946  34.573  11.988
89498W        W50864   1.955   1.256  13.052
89499W        W50865  39.856   0.333  12.349
89500W        W50866  25.625  21.191   3.205
89501W        W50867  10.183  32.569  10.585
89502W        W50868   8.654  39.936   0.784
89503W        W50869  31.913  15.621   2.696
89504W        W50870   6.226   5.345  12.862
89505W        W50871  26.460   0.868  12.834
89506W        W50872  19.748  13.629   3.673
89507W        W50873  18.624  36.553  14.007
89508W        W50874  14.285  26.026  10.605
89509W        W50875  36.064   4.712   1.429
89510W        W50876   0.980  41.011  10.523
89511W        W50877   3.875   9.310   2.353
89512W        W50878  23.705  23.006   3.852
89513W        W50879   3.854   2.755   2.260
89514W        W50880  20.258  23.193   0.909
89515W        W50881   7.845  37.014  11.503
89516W        W50882  38.427  15.127   0.359
89517W        W50883  12.298  37.477  10.458
89518W        W50884  31.999   1.470  11.040
89519W        W50885  34.525  35.492   0.342
89520W        W50886   4.850  25.527   3.845
89521W        W50887  17.127  42.925   3.815
89522W        W50888  30.004  44.005  11.502
89523W        W50889  27.687  24.612  14.793
89524W        W50890  23.194  36.464   1.290
89525W        W50891  14.317  33.455  10.068
89526W        W50892   9.657  41.531  13.923
89527W        W50893  14.217  32.427   1.271
89528W        W50894  33.432  20.751  12.007
89529W        W50895  17.560  34.997   0.853
89530W        W50896  25.586  42.778   4.180
89531W        W50897  17.195  26.028  10.494
89532W        W50898  30.652  25.644  13.810
89533W        W50899   1.423  24.607   4.169
89534W        W50900  22.578  42.336   3.386
89535W        W50901  28.609   7.335   2.205
89536W        W50902  27.459  31.498  12.855
89537W        W50903  20.093  26.195   1.373
89538W        W50904  23.984  14.101   3.227
89539W        W50905  30.422   3.327  12.860
89540W        W50906  28.610  34.498  12.996
89541W        W50907  37.086  19.577   0.449
89542W        W50908  24.596  29.053  14.453
89543W        W50909   8.166  20.247  12.993
89544W        W50910  37.521  36.513   1.353
89545W        W50911   5.199   0.790  14.770
89546W        W50912  31.927  13.680   2.702
89547W        W50913   4.914  32.052   1.337
89548W        W50914  17.078  32.996  14.339
89549W        W50915  16.133  20.566  14.850
89550W        W50916  27.514  12.673   3.366
89551W        W50917  31.451  21.715   0.735
89552W        W50918  38.371  41.313   3.325
89553W        W50919  15.626  22.557   1.827
89554W        W50920  44.444  41.814  14.474
89555W        W50921   3.930   0.826   2.285
89556W        W50922  12.178  42.474  14.847
89557W        W50923  20.087  20.203  12.572
89558W        W50924  29.942   6.789  11.078
89559W        W50925  38.327  17.597   0.853
89560W        W50926  31.499  27.570  12.552
89561W        W50927  26.558  24.619  10.981
89562W        W50928  35.951  38.837   4.150
89563W        W50929  24.123  15.620  14.800
89564W        W50930  44.803  27.043   2.782
89565W        W50931   6.191  19.740   3.269
89566W        W50932  31.495  20.714   3.669
89567W        W50933   3.827  32.934  14.823
89568W        W50934  11.369  38.920  11.612
89569W        W50935   8.706  44.479   2.233
89570W        W50936  27.048  35.469   3.234
89571W        W50937  26.126  37.428  10.910
89572W        W50938  17.736  12.291   3.215
89573W        W50939  39.324   0.388  13.937
89574W        W50940  30.028  36.857   1.758
89575W        W50941  32.950   9.374   0.778
89576W        W50942  30.603   8.235   2.862
89577W        W50943   6.717  30.598  12.552
89578W        W50944   2.752   3.902   1.892
89579W        W50945   1.775  31.025  14.438
89580W        W50946  27.549  38.990   3.713
89581W        W50947  42.887  12.781   0.438
89582W        W50948  18.582  36.864   0.818
89583W        W50949  21.164  26.465   4.322
89584W        W50950  38.400  18.615  11.015
89585W        W50951  24.661  25.087  10.484
89586W        W50952  33.617  18.750   3.276
89587W        W50953  30.960  12.322  12.886
89588W        W50954   5.832  18.177   3.335
89589W        W50955  22.520  25.965  11.106
89590W        W50956   7.266  26.121  13.899
89591W        W50957   9.767  28.588   3.696
89592W        W50958  37.038  35.487  10.561
89593W        W50959  18.122  38.884   0.439
89594W        W50960  26.531  36.061   2.761
89595W        W50961  44.956  17.718  12.567
89596W        W50962   2.909  39.047   3.651
89597W        W50963  27.196  16.166  14.944
89598W        W50964   2.295  18.255   4.639
89599W        W50965  43.514  26.541   3.290
89600W        W50966  44.977  42.370   0.327
89601W        W50967  30.590  22.615   5.279
89602W        W50968  39.326  18.575  13.048
89603W        W50969   8.376  27.537   1.801
89604W        W50970  27.688  25.994   1.228
89605W        W50971  36.964   5.382  13.528
89606W        W50972  41.906  43.391   1.304
89607W        W50973   9.355  18.585   2.754
89608W        W50974  11.707   2.829  10.998
89609W        W50975  19.607   5.734   1.699
89610W        W50976  31.056  28.604  10.963
89611W        W50977  41.850  35.402   2.844
89612W        W50978  22.128  34.935  13.386
89613W        W50979   1.923   3.380  11.056
89614W        W50980  40.413  16.298   2.740
89615W        W50981  25.195   3.433   3.354
89616W        W50982  15.603  18.259  14.911
89617W        W50983  23.582  11.270  11.916
89618W        W50984   4.228  12.651   2.878
89619W        W50985  41.941   9.361  14.927
89620W        W50986  39.317  24.105  13.932
89621W        W50987  11.816  20.205  11.979
89622W        W50988  23.638  14.821   4.239
89623W        W50989   2.873  34.458   0.929
89624W        W50990   1.959  42.957   3.693
89625W        W50991  24.033   9.796  12.570
89626W        W50992   7.731  14.323  14.814
89627W        W50993  22.192  24.666   0.914
89628W        W50994  18.180  31.504  14.905
89629W        W50995  15.648  37.078   4.719
89630W        W50996  39.982  16.643   3.834
89631W        W50997  43.335  35.914  12.930
89632W        W50998   0.964  18.109  12.364
89633W        W50999   4.761  24.613   3.304
89634W        W51000  30.528  24.162   5.101
89635W        W51001  41.867  38.470   0.811
89636W        W51002   6.918   2.421  11.596
89637W        W51003   8.223   6.327  13.916
89638W        W51004  43.273   6.734  12.007
89639W        W51005  38.518  12.641   1.248
89640W        W51006  29.027  33.592  12.872
89641W        W51007   6.796  33.059  11.863
89642W        W51008  35.950  26.207  10.471
89643W        W51009  34.022  38.018   5.288
89644W        W51010  20.584   1.868   0.766
89645W        W51011  33.931  20.720   3.309
89646W        W51012  21.130  35.397   3.381
89647W        W51013  15.235  31.931  13.826
89648W        W51014  31.918  19.042   5.220
89649W        W51015   1.362  40.842  13.954
89650W        W51016  39.047  38.519  12.093
89651W        W51017  41.927  38.985   3.355
89652W        W51018  35.079  41.312  13.954
89653W        W51019   2.468  41.429   2.693
89654W        W51020  38.849  33.077   4.352
89655W        W51021  25.512  11.810  14.916
89656W        W51022  39.011  40.852  12.459
89657W        W51023   8.226  20.168  14.278
89658W        W51024  37.072  25.017  11.401
89659W        W51025  25.650  25.139  11.925
89660W        W51026  17.753  15.202   3.280
89661W        W51027  34.017  34.564  14.321
89662W        W51028  29.603  35.390  13.876
89663W        W51029  20.085   1.964   5.161
89664W        W51030  14.220  21.513   1.712
89665W        W51031   2.262  32.046   1.872
89666W        W51032  20.697  24.643  13.473
89667W        W51033  15.306  32.021   2.828
89668W        W51034   4.298  40.339   4.613
89669W        W51035  18.077  15.323   5.646
89670W        W51036  15.195  18.069   3.352
89671W        W51037  30.432  13.830  11.372
89672W        W51038  26.516  34.049  14.995
89673W        W51039  40.512  13.160   1.813
89674W        W51040  13.818  12.344   1.780
89675W        W51041  27.119  19.274   4.726
89676W        W51042  41.000  24.210  12.871
89677W        W51043   1.740  15.137   0.749
89678W        W51044  22.164  26.526  14.008
89679W        W51045  26.630  15.635   3.663
89680W        W51046  34.609   5.882  12.427
89681W        W51047  37.496  32.886   4.729
89682W        W51048   1.452  15.655   2.849
89683W        W51049  17.711   4.827  13.925
89684W        W51050  33.984  30.001  11.554
89685W        W51051  31.981  37.416   5.129
89686W        W51052  20.524   7.369  14.405
89687W        W51053  27.495  18.267  12.021
89688W        W51054   0.427   5.254  12.361
89689W        W51055  34.518   9.228   3.345
89690W        W51056  21.024   5.358   1.743
89691W        W51057   9.289  29.938   0.884
89692W        W51058  40.340  29.429  10.903
89693W        W51059   4.838   0.873   4.809
89694W        W51060  12.279  33.077   1.769
89695W        W51061  10.695  27.988   1.363
89696W        W51062  38.850  32.540   1.397
89697W        W51063  24.038  11.156   4.161
89698W        W51064   2.929   7.799   2.676
89699W        W51065  18.633   6.857  14.389
89700W        W51066  30.476  41.420   5.258
89701W        W51067  12.121  27.580  14.437
89702W        W51068  17.098  34.411  13.378
89703W        W51069   3.929   0.782   1.219
89704W        W51070  22.574  11.627  10.089
89705W        W51071  23.722  37.535  11.558
89706W        W51072   7.878  41.888  10.991
89707W        W51073  26.046  28.636   0.242
89708W        W51074   5.737  41.792  14.904
89709W        W51075  34.530  23.730   2.315
89710W        W51076   7.225  35.951  12.900
89711W        W51077  17.196  18.116  10.545
89712W        W51078  37.905  15.294  14.829
89713W        W51079  44.780  37.046   1.829
89714W        W51080  38.544  26.628   2.408
89715W        W51081  43.299   3.442  12.571
89716W        W51082  18.752  40.853   1.309
89717W        W51083  39.451  39.024  13.310
89718W        W51084  42.951  29.494   2.859
89719W        W51085  28.932  32.917  14.512
89720W        W51086  24.646  19.097  13.006
89721W        W51087   5.348  33.040  13.327
89722W        W51088  14.240  32.967   0.876
89723W        W51089  12.269   2.396  11.063
89724W        W51090  36.002   0.978   4.683
89725W        W51091   0.820   8.177  12.909
89726W        W51092  30.641   9.249   1.781
89727W        W51093   7.779  35.461   2.785
89728W        W51094  29.613  33.079   4.839
89729W        W51095  36.358  23.050   1.389
89730W        W51096  19.275  16.254   0.418
89731W        W51097  36.098   2.836   3.727
89732W        W51098  22.016  31.495   3.357
89733W        W51099   3.453  39.414  10.616
89734W        W51100  19.181  37.461   4.113
89735W        W51101   6.790  34.446  12.053
89736W        W51102  27.026  36.398  13.887
89737W        W51103  11.275  27.092   4.688
89738W        W51104  14.255  14.132   1.419
89739W        W51105  21.031  11.863  12.410
89740W        W51106   0.884  13.608  12.570
89741W        W51107  15.150  27.456  11.390
89742W        W51108  22.614   9.175  14.391
89743W        W51109  36.478  23.100   3.685
89744W        W51110  39.060  42.382   3.325
89745W        W51111  44.392  24.596   1.873
89746W        W51112  14.811  11.807   4.613
89747W        W51113  39.040  33.983  13.982
89748W        W51114   9.873   6.372   1.372
89749W        W51115  44.456  15.308   3.303
89750W        W51116  30.957  13.118  11.469
89751W        W51117  28.491  26.496   5.142
89752W        W51118  41.859  41.295  10.022
89753W        W51119  22.635  33.442   2.871
89754W        W51120  43.327  40.807   2.410
89755W        W51121  42.791   6.317   3.216
89756W        W51122  32.546  22.599   2.272
89757W        W51123  26.636   8.388   4.733
89758W        W51124  18.231   3.861  10.952
89759W        W51125  42.914   6.730  11.969
89760W        W51126  29.531  22.511   2.877
89761W        W51127  14.256  28.978   1.781
89762W        W51128  42.434  15.734  11.446
89763W        W51129  29.550  24.556  10.499
89764W        W51130  30.938   8.686   0.468
89765W        W51131  21.667   6.283  13.344
89766W        W51132  28.087  31.475  10.569
89767W        W51133  25.474  27.639   3.830
89768W        W51134  43.454   3.296   0.780
89769W        W51135  22.063   3.459  14.370
89770W        W51136   3.774  25.496  12.390
89771W        W51137  13.151  14.096   5.150
89772W        W51138  33.118  27.480  12.910
89773W        W51139   5.690  29.528   4.269
89774W        W51140   6.847  12.772   5.727
89775W        W51141   9.394  31.510   3.802
89776W        W51142   9.671  31.135  11.520
89777W        W51143  15.297   4.428  13.047
89778W        W51144   2.394  22.168   3.224
89779W        W51145  13.141  22.645  12.058
89780W        W51146  29.520  26.114  11.421
89781W        W51147  33.037  30.588  10.472
89782W        W51148  24.684  24.673   4.140
89783W        W51149   9.376   3.279   4.218
89784W        W51150  14.828  28.515  12.377
89785W        W51151   0.781  40.810   4.625
89786W        W51152  34.426  40.852   2.893
89787W        W51153  17.594  30.119  12.448
89788W        W51154   5.195   0.821  13.467
89789W        W51155  23.675  21.084   0.814
89790W        W51156  31.952  13.123  13.868
89791W        W51157  23.116  34.462   0.756
89792W        W51158  35.485  12.334  12.380
89793W        W51159  30.931  14.759  14.800
89794W        W51160  33.997   4.285   1.292
89795W        W51161  34.558  26.110  14.405
89796W        W51162  31.430   9.672  14.322
89797W        W51163  25.679   2.782  13.535
89798W        W51164   3.403  34.114   2.797
89799W        W51165  18.102  22.692   2.676
89800W        W51166  43.497  13.769   3.270
89801W        W51167  28.513   8.894   2.362
89802W        W51168   4.758   7.771  11.559
89803W        W51169  15.270  37.059  11.858
89804W        W51170  26.540  33.384  12.999
89805W        W51171  38.003  43.374  12.387
89806W        W51172  31.522   7.395  11.555
89807W        W51173  18.273  12.320  13.501
89808W        W51174  44.401   6.860  13.922
89809W        W51175  21.513  21.600   4.346
89810W        W51176  42.980   7.210   4.248
89811W        W51177  41.382  11.367  13.523
89812W        W51178  16.218  37.576   2.791
89813W        W51179  25.549  34.480  13.974
89814W        W51180  22.253  20.632   3.630
89815W        W51181  28.074  19.710   1.230
89816W        W51182   2.232  14.679   3.166
89817W        W51183  35.871  36.093   4.648
89818W        W51184  20.062   1.784   2.241
89819W        W51185   3.353  28.013  12.363
89820W        W51186  40.959  35.929   3.845
89821W        W51187  26.678   7.407  14.921
89822W        W51188  15.737   8.311  12.982
89823W        W51189   7.373  13.720  12.901
89824W        W51190  44.977   2.890   2.327
89825W        W51191  34.984  39.997  14.482
89826W        W51192  44.809  26.986  12.893
89827W        W51193  25.157  11.209   1.368
89828W        W51194  33.996  20.098   3.250
89829W        W51195   7.178   5.791  14.345
89830W        W51196  14.639  18.559   0.790
89831W        W51197  16.600  24.144  12.082
89832W        W51198  28.551  40.448  12.381
89833W        W51199  23.176  12.736   4.344
89834W        W51200   4.708  43.370  12.025
89835W        W51201  18.682  35.416  13.928
89836W        W51202  15.731  18.247   3.363
89837W        W51203  29.632   0.293   4.327
89838W        W51204  14.675   7.729  13.499
89839W        W51205  14.810  21.751   1.734
89840W        W51206  16.569  28.166   3.353
89841W        W51207  40.943  33.915   0.290
89842W        W51208  20.548  38.043   4.165
89843W        W51209  34.385  42.462   2.704
89844W        W51210   8.849  32.500   2.828
89845W        W51211  19.116   9.721  13.059
89846W        W51212  37.449  21.653  13.351
89847W        W51213  11.259  26.685   4.784
89848W        W51214  11.254  35.023   3.267
89849W        W51215   4.208   8.241   1.259
89850W        W51216  35.588  37.830   0.885
89851W        W51217  26.578   0.796   1.335
89852W        W51218  18.278  34.549   0.465
89853W        W51219  27.523   8.856   1.228
89854W        W51220  11.805  30.423  13.393
89855W        W51221  42.316  36.485  11.588
89856W        W51222   6.216  43.374   2.776
89857W        W51223  28.493  12.319   1.382
89858W        W51224   7.346  26.673   3.693
89859W        W51225   0.480  37.008   1.329
89860W        W51226  29.015  31.501   1.838
89861W        W51227  31.056  37.433   0.426
89862W        W51228  25.502  30.570   1.933
89863W        W51229   5.694  20.256   0.960
89864W        W51230  30.456  26.645  14.956
89865W        W51231  14.283  12.264  11.478
89866W        W51232  12.128  15.145  10.918
89867W        W51233   9.715  12.254   4.796
89868W        W51234  26.473   7.295   0.416
89869W        W51235  44.898  35.401   4.301
89870W        W51236  39.961  34.498   1.840
89871W        W51237  12.712  33.575   1.882
89872W        W51238  36.096   7.374   4.836
89873W        W51239  14.295  25.705   5.310
89874W        W51240   5.766   9.877   2.248
89875W        W51241  39.560  11.345  11.490
89876W        W51242  37.545   2.405   2.226
89877W        W51243   7.860   5.317  11.605
89878W        W51244  14.812   0.797   2.683
89879W        W51245   3.341   9.349   2.213
89880W        W51246  38.479  15.143   4.776
89881W        W51247  42.314  24.647   1.875
89882W        W51248  23.697  30.483   3.320
89883W        W51249  24.503  25.652   2.294
89884W        W51250  16.751  41.009  13.885
89885W        W51251  19.771  36.862  10.563
89886W        W51252   2.393   4.897  13.932
89887W        W51253  18.723  29.029   2.877
89888W        W51254  13.833   8.675  12.376
89889W        W51255   3.385  13.118   2.786
89890W        W51256  21.688   9.210   3.716
89891W        W51257  36.364  17.230   0.886
89892W        W51258   0.444  19.612   0.959
89893W        W51259  17.735  26.997  14.905
89894W        W51260  38.429   1.915   0.803
89895W        W51261  23.125  36.872   0.342
89896W        W51262   2.273  23.156  12.027
89897W        W51263  40.902  12.259  10.486
89898W        W51264  14.189  12.340   3.256
89899W        W51265  14.766  33.947  13.045
89900W        W51266  36.408  41.914  13.876
89901W        W51267  18.637  18.726   0.318
89902W        W51268   1.291   7.883   0.828
89903W        W51269  17.573  29.977   3.811
89904W        W51270  15.707   5.697  10.951
89905W        W51271   9.744  36.486  13.844
89906W        W51272  12.749  25.645   4.123
89907W        W51273  22.154  40.446  13.363
89908W        W51274  19.678  33.618  12.066
89909W        W51275  32.012  12.295  14.456
89910W        W51276  39.988   6.919  12.357
89911W        W51277  43.458  13.604  11.546
89912W        W51278  40.829  31.404  12.382
89913W        W51279  31.648   1.247   4.773
89914W        W51280  13.605  41.920   1.238
89915W        W51281  31.522  29.979   1.398
89916W        W51282   2.793  12.145  12.527
89917W        W51283  12.132  22.107  13.953
89918W        W51284  10.292   5.381   3.740
89919W        W51285  38.494  37.075   0.945
89920W        W51286  34.573  44.811  12.439
89921W        W51287  33.894  10.321  10.523
89922W        W51288   6.314  27.170   1.399
89923W        W51289  23.028  25.468  12.920
89924W        W51290  41.019  36.447   0.294
89925W        W51291  24.655  34.470  10.546
89926W        W51292  39.367   3.354   5.108
89927W        W51293  42.014  17.098   4.667
89928W        W51294  32.405  18.167   2.416
89929W        W51295   0.934  25.145  10.111
89930W        W51296  38.919  27.599  14.488
89931W        W51297  25.601  29.518   1.857
89932W        W51298  44.858  30.487   3.648
89933W        W51299  28.513  22.186  12.964
89934W        W51300  18.258  41.293   4.658
89935W        W51301  25.190  22.166   1.299
89936W        W51302  21.646  23.025  13.056
89937W        W51303   7.334  41.479  13.400
89938W        W51304  11.824  42.418   1.888
89939W        W51305  21.065  32.933  14.843
89940W        W51306  34.613   8.340  12.097
89941W        W51307  38.075  24.988  10.062
89942W        W51308  25.984  30.092  11.957
89943W        W51309  25.208   8.656   1.328
89944W        W51310   4.292  23.592   0.270
89945W        W51311   1.742  27.578  12.379
89946W        W51312  28.983  10.298  13.043
89947W        W51313  17.265   0.777   5.210
89948W        W51314  25.132  15.616  13.858
89949W        W51315  43.837  13.841   0.342
89950W        W51316  17.258  21.025   0.430
89951W        W51317  17.282   1.770   4.283
89952W        W51318  14.245  43.450   3.779
89953W        W51319  10.245  37.378   4.268
89954W        W51320  36.477   4.751   1.744
89955W        W51321  42.382  13.825  13.844
89956W        W51322  31.135  10.728  14.829
89957W        W51323  26.181  23.648  11.380
89958W        W51324   7.287  30.072   0.245
89959W        W51325  35.938  32.938  12.456
89960W        W51326  41.814  44.821  10.958
89961W        W51327  32.496  18.677  14.409
89962W        W51328  42.436   5.313   2.328
89963W        W51329  40.042  35.969  11.433
89964W        W51330  34.879  34.499  10.952
89965W        W51331  23.528  44.773   4.699
89966W        W51332  30.124  23.690  11.433
89967W        W51333  20.708   3.893  13.932
89968W        W51334  35.052  15.811   2.771
89969W        W51335  21.218  36.509   4.293
89970W        W51336  19.177  14.213  12.542
89971W        W51337  16.763  16.746   4.761
89972W        W51338  18.162  30.424  14.395
89973W        W51339   4.399  39.325  14.491
89974W        W51340  25.676   7.853  12.403
89975W        W51341  27.134  44.472  10.943
89976W        W51342  42.377  42.958  11.093
89977W        W51343   6.731  36.974   4.609
89978W        W51344  29.576  35.533  13.384
89979W        W51345  13.112  15.280  13.959
89980W        W51346  18.631  11.146  11.052
89981W        W51347   0.917  38.880  13.537
89982W        W51348  38.420   9.732  13.922
89983W        W51349   2.229  32.407  11.429
89984W        W51350  14.284  26.620   2.247
89985W        W51351  23.645  35.453  12.546
89986W        W51352  40.038  27.631  10.630
89987W        W51353   6.891  23.701  11.883
89988W        W51354  43.330  41.362   2.285
89989W        W51355  39.482  13.189   3.651
89990W        W51356  41.441  12.667   2.204
89991W        W51357  16.312  33.091  14.356
89992W        W51358   5.391  37.548   2.741
89993W        W51359  15.179   3.911   2.285
89994W        W51360  14.209  34.491   5.188
89995W        W51361  12.642   6.918   2.717
89996W        W51362   3.343  28.046   0.480
89997W        W51363  39.865  20.737  10.493
89998W        W51364  15.628  13.291   0.939
89999W        W51365  39.446   8.745  11.991
90000W        W51366  32.060  26.094  10.928
90001W        W51367  39.360  31.930   2.321
90002W        W51368  23.578  37.875   0.899
90003W        W51369  29.083   3.329   3.803
90004W        W51370  22.104   1.337   3.727
90005W        W51371   2.409  21.148   1.791
90006W        W51372  36.982   8.340   4.136
90007W        W51373  34.939   1.326  10.413
90008W        W51374  42.960  14.176  14.478
90009W        W51375  31.623  13.344  11.559
90010W        W51376  17.235  19.735  10.941
90011W        W51377  17.295   5.887  11.097
90012W        W51378  35.396  11.678   1.286
90013W        W51379  16.722   0.293  14.782
90014W        W51380  27.464  18.573  10.963
90015W        W51381   7.242  43.867   2.395
90016W        W51382   6.236  31.002  11.575
90017W        W51383  35.057  41.355  11.935
90018W        W51384  40.545  20.186  13.341
90019W        W51385  43.932  30.126   9.596
90020W        W51386  38.980   9.848   3.314
90021W        W51387   1.350  31.943   1.279
90022W        W51388   4.217  23.074  11.395
90023W        W51389  19.749   0.928  13.890
90024W        W51390  28.500  14.212  10.982
90025W        W51391  24.723   3.952  11.429
90026W        W51392  11.829  20.746   3.279
90027W        W51393  36.044   8.739   0.774
90028W        W51394   5.872  14.819  10.955
90029W        W51395  20.676  15.292  14.761
90030W        W51396  29.434  16.130   1.323
90031W        W51397   4.930  38.913   1.231
90032W        W51398   4.227  38.458  10.890
90033W        W51399  38.959   9.771  13.346
90034W        W51400  28.133  43.482   1.886
90035W        W51401  33.558  16.633  12.940
90036W        W51402  19.543  22.623  10.986
90037W        W51403  28.646   5.773  10.583
90038W        W51404  27.499  31.481  14.403
90039W        W51405  21.544  19.587   0.470
90040W        W51406   3.720  13.690   3.232
90041W        W51407  33.958   7.175   2.242
90042W        W51408   4.340  21.688   4.286
90043W        W51409  36.912  20.669  13.412
90044W        W51410   4.282  24.542   4.238
90045W        W51411  23.083  41.413   4.648
90046W        W51412  43.295   2.860   0.443
90047W        W51413  35.556   3.794   3.630
90048W        W51414  28.074  24.196   3.719
90049W        W51415  10.283   4.850   4.730
90050W        W51416  28.469   4.237   0.832
90051W        W51417  31.568  17.281  11.564
90052W        W51418   0.334  44.322   3.828
90053W        W51419  17.219  17.573  11.055
90054W        W51420  25.099  22.169   4.831
90055W        W51421  13.777  35.905   3.848
90056W        W51422   3.429  43.429  11.448
90057W        W51423  26.588   1.367  13.315
90058W        W51424   3.733  11.268   3.675
90059W        W51425  38.374   2.416   1.852
90060W        W51426  15.083  35.960  10.542
90061W        W51427  12.118   3.732   3.331
90062W        W51428  25.539  14.245   1.381
90063W        W51429  14.764  18.579   1.862
90064W        W51430  20.619  43.486  11.393
90065W        W51431  20.671  32.937  13.515
90066W        W51432  35.587  14.753   0.438
90067W        W51433  43.835  21.608   2.241
90068W        W51434  16.260  15.672   0.315
90069W        W51435  27.971  23.539   0.334
90070W        W51436  44.955  38.050   4.336
90071W        W51437  29.455  41.001  12.437
90072W        W51438   6.707  40.377  11.468
90073W        W51439   2.868   0.909  12.480
90074W        W51440  39.862   8.892   2.748
90075W        W51441  44.914  38.948   0.886
90076W        W51442  13.772  20.245   4.187
90077W        W51443  43.003   5.826  10.939
90078W        W51444  40.431  14.608   2.885
90079W        W51445  23.677   6.780  13.432
90080W        W51446  31.037  35.385  11.493
90081W        W51447  31.555  29.582   1.930
90082W        W51448  39.555  31.964   0.950
90083W        W51449  28.994  17.147  11.074
90084W        W51450   1.757  27.580  10.928
90085W        W51451  12.825   7.298  13.361
90086W        W51452  40.520  32.454  10.542
90087W        W51453  39.459   6.701  10.941
90088W        W51454  31.495  17.764   9.998
90089W        W51455  16.234   4.922   3.826
90090W        W51456   3.832  23.495   1.322
90091W        W51457   8.696  10.323  13.515
90092W        W51458   2.938  15.235  13.878
90093W        W51459  36.919  25.158   3.756
90094W        W51460  34.024  11.656   1.313
90095W        W51461  17.626  16.118   1.744
90096W        W51462  35.389  33.397   2.676
90097W        W51463  35.596  42.836   2.376
90098W        W51464  19.206  10.837   4.129
90099W        W51465  15.271  30.594  11.120
90100W        W51466  33.434  10.268   2.668
90101W        W51467   5.394   2.264  11.016
90102W        W51468  20.090   5.839  10.592
90103W        W51469  40.920  18.187   3.346
90104W        W51470  23.690   0.366   4.619
90105W        W51471  21.673  17.630  11.479
90106W        W51472  29.939  42.869   4.276
90107W        W51473  30.002   9.377   0.882
90108W        W51474  33.043  40.494  13.504
90109W        W51475  39.958   0.349   1.909
90110W        W51476  23.729  32.434  12.877
90111W        W51477  11.249   1.880   0.460
90112W        W51478  14.247   7.285  13.885
90113W        W51479  26.600  22.673  11.861
90114W        W51480  10.731  17.128   4.745
90115W        W51481  41.448  17.150  12.010
90116W        W51482   1.281   2.943   3.818
90117W        W51483  38.948  19.159   4.599
90118W        W51484  20.037   0.884   1.812
90119W        W51485   2.885  10.676  11.561
90120W        W51486  13.622  28.028   2.874
90121W        W51487  20.523  30.114  10.529
90122W        W51488  15.789  41.926   0.372
90123W        W51489  28.120  25.108   1.278
90124W        W51490  23.142  13.618   0.882
90125W        W51491   5.876  26.195   3.382
90126W        W51492  27.190   4.809   1.425
90127W        W51493  14.105  27.979   1.764
90128W        W51494  16.205  43.311  12.495
90129W        W51495  42.516  39.980   0.754
90130W        W51496  32.541  32.486   1.445
90131W        W51497  29.158   2.291  14.964
90132W        W51498  10.337  34.070   3.146
90133W        W51499   1.395  21.252  12.924
90134W        W51500  24.592  20.042  10.527
90135W        W51501  12.623  13.610   3.734
90136W        W51502  32.895  24.122  14.488
90137W        W51503  27.555  31.553   4.838
90138W        W51504   2.309  42.994  10.018
90139W        W51505   2.281  19.571  10.589
90140W        W51506  30.966   0.379  10.411
90141W        W51507  24.987  39.986  12.003
90142W        W51508  36.551  31.611  10.474
90143W        W51509  12.332  39.438  12.002
90144W        W51510   7.844   1.416   0.753
90145W        W51511  39.348  22.160  11.922
90146W        W51512  36.574  33.089  13.021
90147W        W51513  11.738   3.782   4.327
90148W        W51514  11.822  29.985  12.993
90149W        W51515  33.600  40.446   2.295
90150W        W51516  32.124   7.823  12.066
90151W        W51517   1.923  38.031   3.832
90152W        W51518  36.419  42.289   0.840
90153W        W51519  22.073   6.339  14.783
90154W        W51520  37.404  30.952   1.897
90155W        W51521   0.971  21.212  10.033
90156W        W51522  14.218  22.027  13.913
90157W        W51523  10.713  11.220   4.150
90158W        W51524   1.241  42.798   2.861
90159W        W51525  20.082  39.472   4.141
90160W        W51526  39.014  43.328  14.512
90161W        W51527  20.712  19.713   4.149
90162W        W51528   0.386   9.743   4.281
90163W        W51529  26.148   7.245   1.339
90164W        W51530   7.694  21.668   4.733
90165W        W51531  19.151  33.030   2.831
90166W        W51532  23.176  16.810  12.573
90167W        W51533   5.800  32.005  13.057
90168W        W51534  38.030  44.791  14.862
90169W        W51535  15.746   0.951  11.905
90170W        W51536  20.715  15.187  11.466
90171W        W51537  42.025   7.382  13.000
90172W        W51538  37.859  23.026  12.926
90173W        W51539  11.213  33.071   5.691
90174W        W51540  35.557  22.154   2.300
90175W        W51541  26.085  40.981  14.914
90176W        W51542   5.846  19.587  13.357
90177W        W51543  33.951  23.164  11.038
90178W        W51544  13.777  37.529  14.874
90179W        W51545  24.707  35.434   0.377
90180W        W51546  34.068  13.118   0.445
90181W        W51547  25.217  34.500  11.069
90182W        W51548  19.730  32.137  12.406
90183W        W51549  42.438  15.170   3.797
90184W        W51550  10.787   5.212   1.912
90185W        W51551  40.482  26.605   0.422
90186W        W51552  36.943  38.901  11.092
90187W        W51553  29.578  34.550  14.373
90188W        W51554  43.951  18.122   3.361
90189W        W51555   4.818  41.812   1.243
90190W        W51556   2.769  29.493   0.422
90191W        W51557  12.709   1.471   3.671
90192W        W51558  24.492  25.657   0.933
90193W        W51559  30.961  36.064  10.949
90194W        W51560  41.414  19.695  12.501
90195W        W51561  31.420  40.024   5.596
90196W        W51562   3.749  25.023  13.794
90197W        W51563  40.927  19.162   3.831
90198W        W51564   4.393   9.674   4.756
90199W        W51565  37.504   6.846  14.957
90200W        W51566  34.110  44.342  13.454
90201W        W51567  19.165   8.673  13.413
90202W        W51568  20.656   4.292   4.168
90203W        W51569   9.316  23.096  12.067
90204W        W51570  39.560  32.604   2.752
90205W        W51571  39.007  22.538  13.361
90206W        W51572  40.430  26.137  13.523
90207W        W51573  21.518  19.643   3.291
90208W        W51574   1.778  42.796  12.829
90209W        W51575  22.025   2.945  13.940
90210W        W51576  18.696  42.985   0.326
90211W        W51577  17.162  14.309  10.985
90212W        W51578  20.204  42.292   2.895
90213W        W51579  38.407  37.336  11.508
90214W        W51580   5.240   4.863   0.369
90215W        W51581   5.721   6.809   0.853
90216W        W51582  14.276  15.623  12.554
90217W        W51583  23.164  30.511   5.245
90218W        W51584  42.996  12.765  10.940
90219W        W51585  12.845  27.982  10.445
90220W        W51586  40.376   1.855  10.140
90221W        W51587  29.100   5.729  11.399
90222W        W51588  29.447  40.001  11.377
90223W        W51589  12.312  39.430  13.844
90224W        W51590  19.230  28.635   2.828
90225W        W51591  42.976  36.351  14.394
90226W        W51592  29.566  31.411   0.920
90227W        W51593   5.323  34.987  12.405
90228W        W51594  19.662   7.795  14.994
90229W        W51595  11.166  12.244  11.959
90230W        W51596  41.507  21.262  10.630
90231W        W51597   1.772  40.368   0.482
90232W        W51598   3.409   3.400  13.546
90233W        W51599   8.897  20.050   0.840
90234W        W51600  15.099  26.196   1.231
90235W        W51601  22.605  28.500  12.409
90236W        W51602  10.184  35.926  11.586
90237W        W51603  30.132  42.986  11.461
90238W        W51604  38.021  11.278   4.355
90239W        W51605  24.711  39.376  10.512
90240W        W51606  16.147   4.698  14.826
90241W        W51607   8.340  40.444  11.399
90242W        W51608  16.299  38.399   0.366
90243W        W51609  38.869  24.190   1.775
90244W        W51610  21.743   0.812  14.851
90245W        W51611   4.303  38.564  13.016
90246W        W51612  27.124  30.562  12.406
90247W        W51613  34.008  18.224  11.478
90248W        W51614  34.435  13.169  13.470
90249W        W51615  14.658   3.768  13.433
90250W        W51616  27.572  35.600  13.547
90251W        W51617   3.863  37.576  11.443
90252W        W51618  40.548  22.023   3.249
90253W        W51619  20.091   8.185  14.988
90254W        W51620  27.137   6.815   2.869
90255W        W51621  20.223   3.445   2.692
90256W        W51622  13.332   5.370  11.587
90257W        W51623  23.655   1.895  10.124
90258W        W51624  20.098  28.031   2.760
90259W        W51625  29.145  25.579  13.868
90260W        W51626  14.644   9.205  10.570
90261W        W51627  19.152  42.332   4.320
90262W        W51628  13.229  26.050   0.940
90263W        W51629  41.009  12.302  14.770
90264W        W51630  38.435  10.711   0.287
90265W        W51631  14.642  33.397  11.548
90266W        W51632  13.642  30.065   4.757
90267W        W51633  29.087  11.634   2.199
90268W        W51634  20.668   0.801  11.988
90269W        W51635  24.159  41.926   3.156
90270W        W51636  18.729  37.952   1.708
90271W        W51637  29.508  42.029  14.844
90272W        W51638  43.832   0.851  12.889
90273W        W51639   2.912   9.178  14.835
90274W        W51640   0.910  20.068  13.390
90275W        W51641  42.422  19.273  13.821
90276W        W51642   5.256   5.332   3.187
90277W        W51643  30.492  32.963   2.406
90278W        W51644  42.466   0.912  10.926
90279W        W51645  37.872  42.446   4.623
90280W        W51646   4.269  19.274  13.026
90281W        W51647  13.629  24.657   4.836
90282W        W51648  40.850  21.546   1.273
90283W        W51649   2.722  10.849  13.380
90284W        W51650  42.522  36.844   1.279
90285W        W51651   2.264  33.389  13.403
90286W        W51652  14.153  39.492  11.867
90287W        W51653   3.730  31.631   2.869
90288W        W51654  13.788   9.815  11.924
90289W        W51655  23.729  22.060  10.549
90290W        W51656  21.738  15.143   3.276
90291W        W51657  33.034  18.547   1.348
90292W        W51658  44.259  33.498   1.270
90293W        W51659  32.479   6.920   0.327
90294W        W51660  25.492  24.497   0.456
90295W        W51661  32.079  14.096   0.373
90296W        W51662  31.000  14.161   0.935
90297W        W51663  36.960  25.187   0.274
90298W        W51664  20.268   9.885  12.856
90299W        W51665  38.015  14.107  12.896
90300W        W51666  15.585  32.602  13.521
90301W        W51667  31.486  31.056  10.956
90302W        W51668  28.507  17.263  10.431
90303W        W51669  17.720  10.194  12.895
90304W        W51670  22.075  24.126  11.959
90305W        W51671  20.178  26.586  13.414
90306W        W51672  13.215  16.757  12.449
90307W        W51673  28.044  33.550  10.142
90308W        W51674   3.293  35.447   0.890
90309W        W51675   9.654  34.049  11.997
90310W        W51676  44.868  19.194  10.943
90311W        W51677  38.049  35.525   3.714
90312W        W51678  10.735  19.773   3.199
90313W        W51679  42.341  14.314  14.447
90314W        W51680  14.173  18.545  14.928
90315W        W51681  21.080  19.629   2.867
90316W        W51682  43.773   9.739   0.956
90317W        W51683  31.923   0.425   1.261
90318W        W51684  39.834  13.803   1.385
90319W        W51685  15.154  33.979   0.844
90320W        W51686  26.963  20.605  14.847
90321W        W51687  23.010   8.262  13.007
90322W        W51688  35.452   3.361   3.792
90323W        W51689  28.096  10.243  11.499
90324W        W51690   1.296   0.760   1.330
90325W        W51691  24.708   5.340   0.362
90326W        W51692   1.373   9.873  14.015
90327W        W51693  35.595  12.313   3.154
90328W        W51694  41.992  43.778   1.840
90329W        W51695  13.706  24.206   4.149
90330W        W51696   9.662   9.231  11.093
90331W        W51697   7.235  22.219   3.150
90332W        W51698  30.592   0.749  10.491
90333W        W51699  22.722  22.133  11.472
90334W        W51700  21.106  35.861   3.261
90335W        W51701  30.589  26.472  10.455
90336W        W51702  44.874  31.085  10.121
90337W        W51703   6.366  39.943   1.907
90338W        W51704  42.513  41.000  10.973
90339W        W51705  24.056   8.898   0.758
90340W        W51706  23.071  22.112  10.611
90341W        W51707  43.425  41.000   2.773
90342W        W51708   9.682   3.954   2.714
90343W        W51709  28.024  34.906  13.362
90344W        W51710  22.561  37.055  12.945
90345W        W51711   4.233  44.883   2.810
90346W        W51712  21.522  34.539   2.287
90347W        W51713  16.075  13.711   4.255
90348W        W51714  32.536  24.537  13.839
90349W        W51715  38.849   6.270   5.300
90350W        W51716  27.479  43.474   0.841
90351W        W51717  38.427  19.074  12.503
90352W        W51718  20.152   6.423  11.117
90353W        W51719  10.778  17.111  13.042
90354W        W51720  11.753  21.176  12.461
90355W        W51721  35.445  43.309  10.438
90356W        W51722  22.175  39.501  14.848
90357W        W51723  32.633   9.304   4.606
90358W        W51724   3.801  12.786  12.848
90359W        W51725  10.643   6.285  12.491
90360W        W51726  33.954  19.599   3.366
90361W        W51727  15.676  15.754   9.998
90362W        W51728  20.719   3.436   3.848
90363W        W51729  15.130  24.566  13.947
90364W        W51730  21.224  29.534  11.915
90365W        W51731  20.092  34.015  11.453
90366W        W51732  19.160   1.785   1.792
90367W        W51733  29.083  19.045   4.249
90368W        W51734  11.303   7.808   2.315
90369W        W51735  24.641  31.902  13.448
90370W        W51736  28.089  37.348  10.458
90371W        W51737  13.691  28.548   0.794
90372W        W51738  12.238  12.742  14.472
90373W        W51739  18.155  38.062  12.085
90374W        W51740  38.355  38.903  12.466
90375W        W51741  25.510  15.675  11.912
90376W        W51742  41.469  30.917  12.515
90377W        W51743  27.520  23.041   3.181
90378W        W51744  16.209  27.631   0.744
90379W        W51745   5.227  23.549  13.988
90380W        W51746  20.685  11.838  14.322
90381W        W51747   5.794  29.957   3.660
90382W        W51748  20.187   5.734  13.810
90383W        W51749  36.557  40.024  12.962
90384W        W51750   7.211  23.212   3.849
90385W        W51751  33.095   7.807   3.814
90386W        W51752   0.874  22.996  13.544
90387W        W51753  14.225   9.350  12.506
90388W        W51754  13.695  39.558   3.272
90389W        W51755  14.324  10.849   0.790
90390W        W51756  17.775   2.794   0.834
90391W        W51757  39.413  34.954  14.334
90392W        W51758  18.638  38.387  12.006
90393W        W51759  14.707  29.476  14.328
90394W        W51760  25.522   5.353   1.883
90395W        W51761  17.791  10.299  13.817
90396W        W51762   6.723  39.365   2.900
90397W        W51763  13.680  44.370   0.818
90398W        W51764  40.451   2.439  13.358
90399W        W51765  44.878  12.659  14.323
90400W        W51766  29.110   1.243  11.485
90401W        W51767  29.479  27.986  12.359
90402W        W51768  12.721   1.252   1.425
90403W        W51769  19.144  41.822   4.820
90404W        W51770  13.176  11.780  12.382
90405W        W51771  43.019  30.112   0.833
90406W        W51772   2.886  43.990   0.259
90407W        W51773   7.719   2.400   3.313
90408W        W51774  11.779  34.451  14.009
90409W        W51775   8.249  37.841  13.327
90410W        W51776  43.418  18.730  14.883
90411W        W51777  19.730  28.083  14.018
90412W        W51778  34.377  21.562  11.440
90413W        W51779  25.616  17.094   4.339
90414W        W51780  44.953   9.187  13.000
90415W        W51781  12.769  20.742  10.614
90416W        W51782   2.929  11.355   2.270
90417W        W51783  34.456  32.391   3.739
90418W        W51784  21.629  22.664   0.873
90419W        W51785  10.268   1.820  13.818
90420W        W51786  34.911  14.824  13.798
90421W        W51787  16.607  17.277   1.262
90422W        W51788  29.578  23.630   0.348
90423W        W51789  34.431  13.265   0.762
90424W        W51790  31.506  15.714  12.501
90425W        W51791  29.470  39.357  14.296
90426W        W51792  12.660  35.021  12.852
90427W        W51793   9.842  13.741  13.891
90428W        W51794  35.524  37.049  12.884
90429W        W51795  44.841  17.250   2.797
90430W        W51796  29.125  27.615   5.613
90431W        W51797  16.132   1.894   3.168
90432W        W51798  20.046  42.958  12.015
90433W        W51799  28.605  14.704   2.222
90434W        W51800  39.979   5.830  12.568
90435W        W51801   6.415  32.947   1.386
90436W        W51802  35.924  44.788   1.280
90437W        W51803  42.914  40.922   2.686
90438W        W51804  16.613  34.043  10.077
90439W        W51805  34.078  15.233   2.399
90440W        W51806  43.431  18.767   2.781
90441W        W51807  30.579  41.934   2.276
90442W        W51808  38.394  22.242   1.780
90443W        W51809  36.958  40.487  13.044
90444W        W51810  40.514   2.240  12.060
90445W        W51811  42.853  33.583  14.384
90446W        W51812  27.984  23.145   4.625
90447W        W51813  18.788  22.717  13.322
90448W        W51814  31.146  38.353   4.253
90449W        W51815  24.057   9.707   4.165
90450W        W51816  15.144   4.753   1.314
90451W        W51817  36.442  31.020   2.296
90452W        W51818   7.897  38.846  14.907
90453W        W51819  40.924  20.734  14.428
90454W        W51820  43.429  41.305  13.791
90455W        W51821  10.175   9.223   5.152
90456W        W51822  35.596   5.278  11.925
90457W        W51823  20.081  24.153   0.846
90458W        W51824   4.764  10.233   2.405
90459W        W51825  18.059  24.158   2.850
90460W        W51826  34.986   5.412  11.581
90461W        W51827  15.120  28.578  10.930
90462W        W51828  12.674  18.079   2.785
90463W        W51829  22.006  42.785  12.031
90464W        W51830   2.308   1.924   0.871
90465W        W51831   0.907  40.953   0.471
90466W        W51832  32.503  39.828   9.520
90467W        W51833  39.813   8.724  11.380
90468W        W51834  23.558  28.076  13.845
90469W        W51835  35.545  43.992   5.265
90470W        W51836   5.756  28.101   1.299
90471W        W51837  35.998   0.920   4.221
90472W        W51838  12.631  13.178   1.935
90473W        W51839  10.195   1.324  11.018
90474W        W51840  38.852  11.312  12.088
90475W        W51841  22.125  10.767   2.717
90476W        W51842  13.688  41.871  11.400
90477W        W51843   3.426  26.036  12.839
90478W        W51844  42.873  25.092  14.511
90479W        W51845  38.942  39.461   4.759
90480W        W51846  30.133  28.021  14.792
90481W        W51847  33.103   4.844   1.248
90482W        W51848  40.825   5.879   2.799
90483W        W51849  41.467  32.945   4.647
90484W        W51850  10.187  12.161  12.463
90485W        W51851  34.518  44.782   2.692
90486W        W51852  43.293  16.209  10.961
90487W        W51853  23.994  20.151   4.624
90488W        W51854  19.283   0.830  12.972
90489W        W51855  13.806  40.538  12.943
90490W        W51856  40.896  23.077   0.351
90491W        W51857   8.177  28.160  14.279
90492W        W51858  17.669  41.009  12.946
90493W        W51859  20.525  32.017   0.371
90494W        W51860  36.581  38.478   4.678
90495W        W51861  42.966   8.368   4.290
90496W        W51862  15.199  37.474   3.312
90497W        W51863   5.785  29.041  14.283
90498W        W51864  23.128  20.557   1.834
90499W        W51865  18.201  10.318  11.037
90500W        W51866  17.098  15.737   1.443
90501W        W51867  16.194   2.843  10.517
90502W        W51868  27.190  33.913   0.274
90503W        W51869  23.614  34.985  11.920
90504W        W51870  44.919  42.020  10.576
90505W        W51871  11.316  36.480  13.867
90506W        W51872  12.233  29.520  14.384
90507W        W51873  10.650  43.768  13.436
90508W        W51874  29.657  12.146   0.367
90509W        W51875  34.915  36.387   4.133
90510W        W51876  38.973   5.310   2.418
90511W        W51877  23.091  18.251  14.841
90512W        W51878  31.082  24.001   2.327
90513W        W51879  31.522   5.742   2.723
90514W        W51880  18.091  22.146  10.983
90515W        W51881  36.936  12.740  13.493
90516W        W51882  23.238  37.087  12.049
90517W        W51883  23.189  18.657   0.468
90518W        W51884  23.647  39.420   4.773
90519W        W51885  20.046  27.530   0.360
90520W        W51886   0.266  19.539   2.878
90521W        W51887  10.229   0.980   1.892
90522W        W51888   9.666   4.885   2.812
90523W        W51889  14.312  35.385   3.700
90524W        W51890   6.257   0.404  14.913
90525W        W51891  31.095  39.530   2.299
90526W        W51892   4.367  16.654  11.426
90527W        W51893  32.934  18.675   4.327
90528W        W51894   9.191  34.567  12.091
90529W        W51895  13.802   3.885   4.683
90530W        W51896  12.845  18.148  10.999
90531W        W51897  42.352  42.017   2.896
90532W        W51898  19.535  42.835  11.937
90533W        W51899  20.147  32.532   0.281
90534W        W51900  31.901   9.809   3.806
90535W        W51901  31.615  26.485   2.687
90536W        W51902   1.285  15.745   1.294
90537W        W51903  43.361   2.243   4.309
90538W        W51904  41.026  35.057   0.873
90539W        W51905   1.913  10.787  11.409
90540W        W51906   3.215  14.264  13.969
90541W        W51907  37.015  40.549   9.565
90542W        W51908   3.829   6.857  12.573
90543W        W51909   8.891  32.630  12.415
90544W        W51910  28.591   0.476  13.033
90545W        W51911  40.031  10.762  13.880
90546W        W51912   3.883  12.807  14.858
90547W        W51913  26.645  43.365  10.630
90548W        W51914  44.819  18.591  14.515
90549W        W51915  40.470  12.612  13.365
90550W        W51916  11.146  11.832  11.469
90551W        W51917  40.881  35.379  12.069
90552W        W51918   1.755  25.639   4.705
90553W        W51919  10.654  30.058   2.859
90554W        W51920   9.706  34.520   4.292
90555W        W51921  22.137  24.094  13.981
90556W        W51922  35.387   2.734   4.728
90557W        W51923  41.314   7.266  11.566
90558W        W51924   2.787  11.356  13.052
90559W        W51925  12.193  33.581   0.752
90560W        W51926  36.066  29.662   2.184
90561W        W51927  14.588  11.363  13.889
90562W        W51928  31.487   4.246  14.952
90563W        W51929   7.193  17.209  12.070
90564W        W51930  18.640  28.011   1.783
90565W        W51931  25.706   6.716  11.026
90566W        W51932   7.407  19.674   4.798
90567W        W51933  29.073  21.669  11.895
90568W        W51934  37.543  31.113   4.328
90569W        W51935  38.997  30.529  12.967
90570W        W51936  20.205   2.767  14.990
90571W        W51937   7.334   2.822  10.537
90572W        W51938  33.403  10.211  14.433
90573W        W51939  17.071  20.054   1.896
90574W        W51940  10.169  14.297   0.763
90575W        W51941  43.846  17.108  12.029
90576W        W51942  42.291  11.701   0.831
90577W        W51943   1.426  23.104  13.015
90578W        W51944   8.665   4.770   4.831
90579W        W51945  39.062  15.220   2.900
90580W        W51946  40.419  23.552   2.806
90581W        W51947  34.102   9.177  10.430
90582W        W51948   7.858  10.373   1.870
90583W        W51949   9.883  31.061   0.243
90584W        W51950  28.953  15.607  13.416
90585W        W51951  19.250  24.092   4.234
90586W        W51952   7.904  11.845   1.795
90587W        W51953   2.883  44.324  13.057
90588W        W51954  26.505  12.302   3.344
90589W        W51955  17.134  25.029  10.424
90590W        W51956   3.931   6.901  14.812
90591W        W51957  14.293  39.913   3.203
90592W        W51958  38.070   5.306  11.487
90593W        W51959  16.612  21.155  14.879
90594W        W51960  15.714  15.256  11.935
90595W        W51961  41.867  14.817  14.998
90596W        W51962   4.283  42.972   3.719
90597W        W51963   6.209  29.152   1.305
90598W        W51964  34.892  32.495  12.936
90599W        W51965  10.210  21.728  12.427
90600W        W51966   8.788  31.010  12.544
90601W        W51967   4.759  23.092  13.503
90602W        W51968   1.324   4.850  11.548
90603W        W51969  18.604  21.218   4.793
90604W        W51970  42.485   1.911  12.843
90605W        W51971  16.636  23.162   3.829
90606W        W51972   6.270   9.286   2.201
90607W        W51973  38.036  24.096  12.403
90608W        W51974  41.492  41.036  10.463
90609W        W51975  37.891  41.420   9.996
90610W        W51976  34.420  10.874  11.982
90611W        W51977  16.156  15.305   2.809
90612W        W51978  23.053  16.610   1.817
90613W        W51979  28.607  29.039  11.475
90614W        W51980  44.493  13.249   3.279
90615W        W51981  24.722  38.989  11.427
90616W        W51982  35.950   5.765   4.653
90617W        W51983  13.144  43.993  12.849
90618W        W51984  41.313  42.343   4.658
90619W        W51985   1.886  31.126   3.776
90620W        W51986   3.355  27.644  14.835
90621W        W51987  31.039  25.634  10.498
90622W        W51988  17.235  37.499  12.344
90623W        W51989  29.445  32.135  11.092
90624W        W51990  43.799  24.055   4.281
90625W        W51991  20.195  12.829  13.010
90626W        W51992  40.425  24.209  10.930
90627W        W51993  40.348  35.466   3.224
90628W        W51994  25.534   9.815  14.882
90629W        W51995  26.625  16.249   0.334
90630W        W51996  30.475   1.403   2.900
90631W        W51997  38.996  31.942   1.429
90632W        W51998   3.252   6.372  13.863
90633W        W51999  34.971  16.123  10.405
90634W        W52000  16.290   8.716   2.295
90635W        W52001  16.200  42.813  10.502
90636W        W52002   9.309  30.917   0.813
90637W        W52003  19.657  13.323   5.209
90638W        W52004  24.517  18.057   1.737
90639W        W52005   3.915   8.740  14.919
90640W        W52006  19.674  11.631   2.262
90641W        W52007  30.425   8.887  13.382
90642W        W52008   4.879  32.415  10.996
90643W        W52009   1.396   5.727  11.879
90644W        W52010  29.081  33.493  11.058
90645W        W52011  21.233   2.292  14.473
90646W        W52012  22.621  11.625  12.901
90647W        W52013  34.443   3.938   1.834
90648W        W52014  11.812  17.225  13.845
90649W        W52015  41.797  36.454  12.580
90650W        W52016  14.303  25.145   3.343
90651W        W52017  41.881  28.129  14.000
90652W        W52018  31.637  24.987  14.329
90653W        W52019  40.948  16.172   0.374
90654W        W52020  28.146  29.048   2.218
90655W        W52021  16.709  13.636  14.863
90656W        W52022  26.501  25.610   5.299
90657W        W52023  23.063  10.245   2.802
90658W        W52024  17.569  30.995  11.476
90659W        W52025  41.004  28.680  13.376
90660W        W52026  32.987  33.082   1.280
90661W        W52027  14.790  27.996   2.831
90662W        W52028  24.130  13.167   2.419
90663W        W52029  27.957  14.181  12.540
90664W        W52030  27.483  43.448  14.917
90665W        W52031  31.924  44.417  12.089
90666W        W52032  30.098   0.257  11.972
90667W        W52033   1.813   9.175   4.170
90668W        W52034   1.756  33.070  13.965
90669W        W52035  35.574  14.228  12.884
90670W        W52036  37.054  26.554  12.936
90671W        W52037  19.680  43.849  10.998
90672W        W52038  22.117  13.204   3.677
90673W        W52039  23.698  39.933   1.749
90674W        W52040  32.070  13.130   3.314
90675W        W52041  14.103  12.829  14.353
90676W        W52042  40.982  22.075   3.194
90677W        W52043  14.283  34.404   4.665
90678W        W52044  44.974  27.125  10.915
90679W        W52045  23.142   2.424   4.289
90680W        W52046  35.989  27.663  10.631
90681W        W52047   7.339  24.111  14.878
90682W        W52048  12.696  13.695   1.386
90683W        W52049  36.450  34.108  12.016
90684W        W52050   5.786   2.742   0.440
90685W        W52051  34.898   1.313   3.204
90686W        W52052   2.423  32.034   5.254
90687W        W52053  38.977   6.745   4.612
90688W        W52054  10.697  41.940   0.373
90689W        W52055  22.049   9.256  13.498
90690W        W52056   1.372  32.059  14.392
90691W        W52057  21.058  23.099  12.476
90692W        W52058  32.614  39.951  12.441
90693W        W52059  39.999  37.001  12.061
90694W        W52060  13.626   5.205  14.813
90695W        W52061  32.394   3.230  14.332
90696W        W52062  30.942   4.718   3.155
90697W        W52063   1.957  15.317  14.419
90698W        W52064  34.515  38.417   2.837
90699W        W52065   5.274  23.236   1.338
90700W        W52066  13.168  43.919  11.046
90701W        W52067  28.459  39.968   0.834
90702W        W52068   6.919  38.886  12.859
90703W        W52069  32.622  11.207   2.842
90704W        W52070  21.093  29.510  10.434
90705W        W52071  37.434  25.981   1.907
90706W        W52072  43.374  13.347  14.403
90707W        W52073  25.119  34.425   0.293
90708W        W52074  17.754  30.500   2.879
90709W        W52075  42.998  10.172  10.632
90710W        W52076  18.718  12.682   4.674
90711W        W52077  35.104   6.306   0.426
90712W        W52078  35.983  14.593  13.380
90713W        W52079  34.029   4.916  13.866
90714W        W52080   8.881  15.264   5.780
90715W        W52081   9.333  44.881  11.896
90716W        W52082  19.590  24.587   2.709
90717W        W52083  19.191  29.048   4.754
90718W        W52084  18.135  25.034   2.309
90719W        W52085  16.113  41.987   2.745
90720W        W52086   5.354  11.284   2.755
90721W        W52087  38.471  10.288   1.864
90722W        W52088   6.308  44.501  12.945
90723W        W52089  20.250  25.208  12.525
90724W        W52090  22.643  14.650  12.876
90725W        W52091  15.674  30.551  13.371
90726W        W52092   0.373  39.500  13.052
90727W        W52093   4.362  43.764   0.316
90728W        W52094  20.107  27.149   2.885
90729W        W52095  32.557   6.883  12.363
90730W        W52096   4.313  14.685  13.483
90731W        W52097  17.154  42.324  10.558
90732W        W52098  41.339  17.166   4.625
90733W        W52099   0.875   0.437   2.684
90734W        W52100  12.821  31.473  13.368
90735W        W52101  14.830  29.509  11.975
90736W        W52102   4.236  15.171  11.513
90737W        W52103  14.200  27.447   3.332
90738W        W52104  10.793   4.365   1.777
90739W        W52105  13.701  22.598  10.617
90740W        W52106  43.503  40.323   2.308
90741W        W52107  36.014   2.469   3.697
90742W        W52108   4.317  10.820  13.045
90743W        W52109  10.158   2.445   3.636
90744W        W52110  35.102   9.205   3.730
90745W        W52111  21.684  21.092   1.309
90746W        W52112   9.187  18.759  11.892
90747W        W52113  17.789  42.359   3.732
90748W        W52114  13.713  29.011  14.027
90749W        W52115  20.628   5.271  13.796
90750W        W52116  10.175  43.963   4.291
90751W        W52117  10.234   4.403  14.323
90752W        W52118  26.485  37.541  14.394
90753W        W52119  41.789  11.866  12.915
90754W        W52120   7.415  33.082   2.206
90755W        W52121  24.180  15.267  12.479
90756W        W52122  31.996   9.731  14.883
90757W        W52123   0.922  15.682  14.923
90758W        W52124  14.622  41.983   2.859
90759W        W52125  40.502  14.274  13.005
90760W        W52126  10.725  22.996   4.267
90761W        W52127  36.048  43.904   1.335
90762W        W52128  17.693  43.006   4.209
90763W        W52129  28.135  32.573  14.294
90764W        W52130   0.838  39.058  14.992
90765W        W52131   9.217  10.251  14.444
90766W        W52132   8.212  27.955  10.450
90767W        W52133   4.350  39.338   0.849
90768W        W52134  20.581  21.207  13.384
90769W        W52135  38.383  28.649   3.187
90770W        W52136  30.969  13.617  11.941
90771W        W52137  24.154  35.941  11.858
90772W        W52138  40.833  38.955   0.362
90773W        W52139   4.448  27.992   1.333
90774W        W52140  24.599  30.990   3.812
90775W        W52141  20.551  42.842  11.929
90776W        W52142  15.112  11.700   2.829
90777W        W52143  11.240  29.599  13.854
90778W        W52144   4.301  16.704   3.794
90779W        W52145   1.885  21.044   4.717
90780W        W52146  13.733  14.732  12.381
90781W        W52147   0.893   2.966  11.578
90782W        W52148  32.893  29.616   0.391
90783W        W52149  17.671   1.813  13.960
90784W        W52150  35.560  44.898   2.720
90785W        W52151   1.930  16.168  14.363
90786W        W52152  39.973  18.586   0.920
90787W        W52153  44.921  13.307   4.605
90788W        W52154  32.606  21.244  11.430
90789W        W52155  41.004   3.301  11.855
90790W        W52156  16.146  11.312  12.948
90791W        W52157   6.404   5.384  12.430
90792W        W52158  44.796  44.977  14.873
90793W        W52159  14.777  24.166  13.359
90794W        W52160   2.833  36.404  12.395
90795W        W52161  26.161  43.976   4.827
90796W        W52162  43.018  22.199   9.988
90797W        W52163  29.578  34.489  12.466
90798W        W52164  35.938  37.455   1.845
90799W        W52165   6.742  28.070   0.388
90800W        W52166   9.259  12.719  13.412
90801W        W52167   0.405   6.837   1.444
90802W        W52168  37.546   2.911  10.531
90803W        W52169   6.407  19.658  12.967
90804W        W52170  22.694  14.604  11.536
90805W        W52171  19.571  40.345   4.180
90806W        W52172  19.778  20.044  13.392
90807W        W52173  38.338  14.749  12.888
90808W        W52174  22.719  32.987   1.757
90809W        W52175  31.042  28.932  14.962
90810W        W52176   6.404  25.013   2.389
90811W        W52177  21.583  17.742  12.031
90812W        W52178  44.785  31.500  11.943
90813W        W52179  42.351   1.290  12.950
90814W        W52180  22.720  35.470   3.807
90815W        W52181  43.324  34.533  13.006
90816W        W52182  32.020  41.040  12.967
90817W        W52183  31.506  35.930   0.852
90818W        W52184  23.634  31.904  11.554
90819W        W52185  31.076  31.989  12.831
90820W        W52186  17.228   9.665   0.250
90821W        W52187  28.473  29.661  14.297
90822W        W52188  15.188  36.868   1.931
90823W        W52189  38.902   7.378  11.000
90824W        W52190   7.894   5.731   2.325
90825W        W52191  28.059  23.686   2.370
90826W        W52192  22.100  35.086  11.119
90827W        W52193  32.131  43.505   3.841
90828W        W52194  22.561  34.932  12.925
90829W        W52195  20.742  19.621   3.347
90830W        W52196   3.274   0.878   3.274
90831W        W52197  39.869   5.274  11.978
90832W        W52198   6.315  11.723  13.422
90833W        W52199  25.552  33.565  11.404
90834W        W52200  38.406  40.470   0.319
90835W        W52201  28.446   9.864  13.000
90836W        W52202  18.679  28.006   0.922
90837W        W52203  34.006  27.059   4.348
90838W        W52204   3.388  26.480   4.124
90839W        W52205  39.964  30.543   0.469
90840W        W52206  10.284  44.820  14.020
90841W        W52207   1.914   5.761  13.904
90842W        W52208  28.552  11.807  11.593
90843W        W52209  18.111  18.150  14.776
90844W        W52210   4.906   7.767  14.374
90845W        W52211  14.118  28.001   5.088
90846W        W52212   8.745   0.884  14.469
90847W        W52213   3.436  18.073   4.212
90848W        W52214  37.837  19.217  10.431
90849W        W52215  32.035  31.480   2.199
90850W        W52216   9.286   7.735   1.398
90851W        W52217  38.392  12.644  10.536
90852W        W52218   8.836  13.292   5.087
90853W        W52219   9.694   8.690  14.448
90854W        W52220   4.720   8.795   0.758
90855W        W52221  16.584  21.084   0.350
90856W        W52222  39.960  36.065  14.841
90857W        W52223   3.716  32.008   1.714
90858W        W52224  16.670  16.193   4.711
90859W        W52225  10.334  34.578   1.891
90860W        W52226   3.391  24.555  12.045
90861W        W52227  37.563   8.856  14.867
90862W        W52228  42.947  24.656   3.729
90863W        W52229  36.859  40.856  13.983
90864W        W52230  29.099   0.947  11.071
90865W        W52231  22.711  28.039   1.767
90866W        W52232  21.065  42.301   3.300
90867W        W52233   2.428  21.124  14.432
90868W        W52234  18.657  13.197   1.369
90869W        W52235  41.403  20.552  14.425
90870W        W52236   6.330  38.944   4.735
90871W        W52237  29.986  30.028  13.945
90872W        W52238  14.674  20.549  14.503
90873W        W52239  21.092  10.302  10.533
90874W        W52240  38.072  40.437   3.699
90875W        W52241  40.874   4.751   3.753
90876W        W52242  21.711  41.876  11.995
90877W        W52243  38.836  17.192   2.727
90878W        W52244  12.173  12.717  11.908
90879W        W52245  23.567  16.696  10.581
90880W        W52246  37.878  40.993   0.471
90881W        W52247  36.566  41.308   4.675
90882W        W52248  14.190  14.267  10.404
90883W        W52249   4.824   7.671  13.929
90884W        W52250  25.049  36.050  10.066
90885W        W52251  39.317  12.135  14.423
90886W        W52252   8.317  23.522   1.834
90887W        W52253  34.099  27.063   1.317
90888W        W52254  33.621   8.776   0.421
90889W        W52255  39.550  38.480  14.411
90890W        W52256   0.471   3.723   4.328
90891W        W52257  42.383  41.040   3.863
90892W        W52258  16.145  27.676   4.286
90893W        W52259  36.872  40.918  10.005
90894W        W52260   9.184   4.420  11.037
90895W        W52261  13.740  37.381  13.939
90896W        W52262  14.695  11.272  10.928
90897W        W52263   4.255  25.516  10.976
90898W        W52264  39.509   3.409  10.634
90899W        W52265  25.157  24.205   1.269
90900W        W52266  14.615   4.867   1.241
90901W        W52267  21.092  32.394   3.277
90902W        W52268  28.451   2.248  12.014
90903W        W52269  43.860  27.136   9.635
90904W        W52270  19.126   9.711  14.487
90905W        W52271  17.690  41.530  14.974
90906W        W52272  26.509  16.648  13.812
90907W        W52273  34.413   1.425  13.513
90908W        W52274  17.178  13.272  12.348
90909W        W52275  30.632   9.358  12.474
90910W        W52276  15.621  25.534   4.626
90911W        W52277  39.964  12.791  11.970
90912W        W52278  40.512  41.493  12.056
90913W        W52279  11.169  36.953  14.759
90914W        W52280  26.660  16.255   1.397
90915W        W52281  21.623  31.944   3.277
90916W        W52282  38.979  12.315  12.351
90917W        W52283  43.410  34.546   3.186
90918W        W52284  39.876   9.732  12.351
90919W        W52285  36.929   4.296   0.798
90920W        W52286  33.467  22.714  13.462
90921W        W52287  41.009  31.606   3.742
90922W        W52288  30.439   5.869   3.785
90923W        W52289  31.951  20.575   2.735
90924W        W52290  18.733  41.366  13.911
90925W        W52291  43.425   2.395  14.894
90926W        W52292   3.433   4.412  13.962
90927W        W52293   2.370  42.458  10.559
90928W        W52294  23.535  26.619   3.800
90929W        W52295   2.850   8.844   4.794
90930W        W52296   1.242   2.385   1.437
90931W        W52297  27.108   4.848   0.265
90932W        W52298  15.707  30.606  11.444
90933W        W52299  27.604  42.422   1.746
90934W        W52300   7.356  41.328   1.852
90935W        W52301  40.379  24.993  14.994
90936W        W52302   3.894  26.096  13.875
90937W        W52303  29.116  34.961  10.609
90938W        W52304  41.040   4.212   4.685
90939W        W52305  35.473  39.464   3.316
90940W        W52306  38.540  35.083  10.459
90941W        W52307  44.451  34.887   0.760
90942W        W52308  18.087  40.866   2.371
90943W        W52309  36.065  29.004   1.241
90944W        W52310  40.047  44.970   1.922
90945W        W52311  35.902  41.350   1.909
90946W        W52312  28.528  28.509   3.656
90947W        W52313   0.491   8.252  13.938
90948W        W52314  41.824   2.340   2.248
90949W        W52315  24.488  14.248   4.648
90950W        W52316   6.793  10.861  12.578
90951W        W52317   3.723  33.966   2.402
90952W        W52318  22.683   7.842  11.517
90953W        W52319  12.317  38.543  13.047
90954W        W52320  28.083   8.829  14.995
90955W        W52321  40.848  44.468  10.998
90956W        W52322  14.698   1.397  10.991
90957W        W52323  31.068   1.401   1.322
90958W        W52324  43.903   3.888   4.769
90959W        W52325  12.360  19.163   2.679
90960W        W52326   3.327  19.209  10.900
90961W        W52327  16.737   5.765   4.127
90962W        W52328  27.977  11.750   5.258
90963W        W52329  39.451   2.793   3.656
90964W        W52330  11.153  35.920  13.051
90965W        W52331  25.190  17.736  11.373
90966W        W52332   0.436  31.492   0.830
90967W        W52333  19.728  29.101  11.100
90968W        W52334  18.682  19.112  13.806
90969W        W52335  19.556  43.389  11.495
90970W        W52336  30.480  32.929  11.606
90971W        W52337  38.861  30.444   4.341
90972W        W52338  35.917  20.765  11.097
90973W        W52339   9.346  37.528  13.423
90974W        W52340  17.644  17.617   2.780
90975W        W52341  44.852  39.315  11.392
90976W        W52342  35.874   0.480   0.344
90977W        W52343  23.122  12.185  12.057
90978W        W52344  10.313  12.674  10.012
90979W        W52345  15.653  39.330  13.420
90980W        W52346  31.065  25.967  13.846
90981W        W52347  25.008  10.727  13.435
90982W        W52348  43.356  31.471  14.347
90983W        W52349   3.722  30.647   0.298
90984W        W52350  31.940  40.982  13.516
90985W        W52351  17.079  22.594  11.955
90986W        W52352  14.223   7.756  13.840
90987W        W52353  24.680   4.444  14.479
90988W        W52354   5.729  14.797  12.913
90989W        W52355  32.468   1.922  12.035
90990W        W52356  37.060  31.961  10.491
90991W        W52357  40.911  13.624  12.963
90992W        W52358  24.056  29.542  14.769
90993W        W52359  43.958  43.989   4.144
90994W        W52360  31.060  43.334   2.836
90995W        W52361  31.110  31.143   2.902
90996W        W52362  39.850   6.841  14.409
90997W        W52363  26.651  29.559  12.981
90998W        W52364  29.117  29.063  11.927
90999W        W52365  32.425  19.252  11.537
91000W        W52366  18.590   8.337  13.415
91001W        W52367  20.130   2.456   0.483
91002W        W52368   2.431  15.815   1.709
91003W        W52369   0.982   9.696   3.818
91004W        W52370  43.343   2.455   2.897
91005W        W52371  40.997  25.491   3.802
91006W        W52372  12.288  36.045  10.411
91007W        W52373  34.063  12.205  14.858
91008W        W52374  11.699  19.621   4.599
91009W        W52375  10.814   8.661   1.239
91010W        W52376  21.113  12.850   2.712
91011W        W52377  12.789  16.695  13.462
91012W        W52378  39.044   7.713  12.986
91013W        W52379  44.486  27.563   3.844
91014W        W52380   4.302  28.489   2.314
91015W        W52381   2.418  13.830   2.895
91016W        W52382   1.952  13.201  13.798
91017W        W52383  29.430   5.314  13.974
91018W        W52384  32.972  27.062  11.967
91019W        W52385   3.767   8.787   3.840
91020W        W52386   3.455  40.355   1.901
91021W        W52387  36.889  38.899  14.003
91022W        W52388  19.091  31.518   1.742
91023W        W52389  27.499  11.817  11.003
91024W        W52390  43.776  14.143  13.309
91025W        W52391  23.241  24.078   4.763
91026W        W52392   0.400  13.269  11.109
91027W        W52393   9.889   0.249   4.673
91028W        W52394  41.501  29.123  11.867
91029W        W52395  23.635  17.264   0.857
91030W        W52396  29.502  32.430   4.352
91031W        W52397  24.141   6.891  12.471
91032W        W52398   3.935  23.229  13.480
91033W        W52399   4.376  27.674   9.992
91034W        W52400  12.346  35.438  10.116
91035W        W52401   1.948   4.897  10.599
91036W        W52402   9.324  23.136  10.894
91037W        W52403  18.592  43.445  13.339
91038W        W52404  19.150  18.061  12.455
91039W        W52405  19.709  36.425  14.889
91040W        W52406  17.217   2.408  12.085
91041W        W52407  19.076  22.647  12.873
91042W        W52408  27.585  42.323  14.474
91043W        W52409  23.607  20.210   0.887
91044W        W52410  19.742  11.708  13.519
91045W        W52411  36.958  43.416   3.858
91046W        W52412   5.746  42.824   5.162
91047W        W52413   9.703   5.299  12.852
91048W        W52414  31.971  27.682   2.813
91049W        W52415  22.178  29.955  14.491
91050W        W52416  22.743  27.099   1.393
91051W        W52417   9.287  36.561   4.221
91052W        W52418  12.778  31.145  11.882
91053W        W52419  44.005  41.374  12.992
91054W        W52420  18.722  24.707   0.901
91055W        W52421   7.863  31.117   4.811
91056W        W52422  18.668  42.869  13.940
91057W        W52423  27.960  16.754   4.118
91058W        W52424  38.495   3.315  13.036
91059W        W52425  40.875  26.985  13.316
91060W        W52426  25.651  39.451  13.397
91061W        W52427   5.254  22.117   3.386
91062W        W52428  32.982  24.018   4.262
91063W        W52429  24.045  23.628   0.353
91064W        W52430  39.990  28.477   0.938
91065W        W52431  30.040  25.002   0.783
91066W        W52432  16.169  38.555  12.358
91067W        W52433  30.616  42.523  14.866
91068W        W52434   3.857  29.158  12.434
91069W        W52435  17.222   8.776  12.489
91070W        W52436   1.840  12.265  14.458
91071W        W52437  32.989  15.212   2.903
91072W        W52438  37.994  37.529   4.272
91073W        W52439   5.812  42.444   1.376
91074W        W52440   0.359  43.411  10.513
91075W        W52441  33.528  25.471  11.889
91076W        W52442  37.872  22.085  14.472
91077W        W52443  14.753  25.211   1.371
91078W        W52444  19.207  30.917  10.934
91079W        W52445  30.055  43.323  13.040
91080W        W52446  33.481   3.913   0.419
91081W        W52447   5.370  32.604  11.868
91082W        W52448   3.263  36.469  12.511
91083W        W52449  10.145  37.000  14.467
91084W        W52450  21.617   7.808  13.437
91085W        W52451  39.022  31.020  11.437
91086W        W52452   7.894   2.295   3.772
91087W        W52453  10.798  20.166  10.526
91088W        W52454  14.741  43.327   1.239
91089W        W52455  42.527  42.415  11.515
91090W        W52456  12.278   4.387   2.403
91091W        W52457  18.194   7.798   1.359
91092W        W52458   8.785  26.101  12.452
91093W        W52459  37.940  33.064   2.273
91094W        W52460  25.678  15.582   2.821
91095W        W52461   3.246   8.859   2.302
91096W        W52462  19.162   2.350   1.703
91097W        W52463  27.469  33.567  10.420
91098W        W52464  20.596  44.971  13.421
91099W        W52465  12.305   7.300  11.958
91100W        W52466  28.547  37.939  14.295
91101W        W52467  21.638   9.883   1.791
91102W        W52468   3.324   3.347  10.080
91103W        W52469  21.072  34.909  14.318
91104W        W52470   0.428  35.379   2.291
91105W        W52471   8.870  13.708   0.759
91106W        W52472  23.984  17.151  11.116
91107W        W52473  34.543  44.286   4.318
91108W        W52474   0.491  34.597  14.802
91109W        W52475  11.865  13.315  12.342
91110W        W52476  33.980  20.053  11.456
91111W        W52477  44.905  29.491   2.351
91112W        W52478  18.236  32.918   0.473
91113W        W52479  43.018  10.858   4.828
91114W        W52480  36.367   7.214   0.899
91115W        W52481  25.050  44.783   2.221
91116W        W52482  38.058  37.009  13.953
91117W        W52483  11.759  36.523  10.475
91118W        W52484  22.125  43.824  12.526
91119W        W52485  40.410   7.863  10.898
91120W        W52486  42.457  40.452  14.453
91121W        W52487  40.386   3.220   2.808
91122W        W52488  44.399   7.171   1.718
91123W        W52489   9.704  22.028   4.217
91124W        W52490   5.694  30.628   1.834
91125W        W52491  34.885  39.821  11.554
91126W        W52492  21.056  25.078  13.339
91127W        W52493  42.940  40.535   2.235
91128W        W52494  14.273  36.902   3.155
91129W        W52495  30.151  17.248  13.006
91130W        W52496   5.921  20.558  11.553
91131W        W52497  19.617   8.836  13.966
91132W        W52498  27.539  33.117  12.008
91133W        W52499  30.494  31.941   3.819
91134W        W52500   2.787  10.338  11.072
91135W        W52501   4.248  33.097   3.259
91136W        W52502   0.917  18.208   3.827
91137W        W52503  28.944  24.983   4.751
91138W        W52504   6.871  37.001  12.579
91139W        W52505  35.373   7.222  14.965
91140W        W52506  22.566  16.639   2.700
91141W        W52507  34.107   1.805   4.750
91142W        W52508  26.585  41.527  10.108
91143W        W52509  40.520  12.816  12.072
91144W        W52510   2.894  29.022  12.425
91145W        W52511   0.361  15.196  10.565
91146W        W52512  31.609  25.029   2.274
91147W        W52513  37.438  32.449  12.857
91148W        W52514   4.854  33.502   1.337
91149W        W52515  43.329  21.694  10.926
91150W        W52516  32.104  16.647  14.974
91151W        W52517  30.973  31.981  14.504
91152W        W52518   5.787  21.713  14.855
91153W        W52519  25.579  10.349  12.972
91154W        W52520  13.159  15.822  14.428
91155W        W52521  38.479  27.691  14.486
91156W        W52522  25.608  28.136  11.535
91157W        W52523   8.278  11.133  13.897
91158W        W52524  37.366  44.363   3.204
91159W        W52525   2.955  20.576   2.728
91160W        W52526  13.235  41.364   1.799
91161W        W52527  24.025  13.604  14.770
91162W        W52528  43.017  18.675   1.897
91163W        W52529  32.603  37.422   3.814
91164W        W52530  43.279   7.705  11.491
91165W        W52531  43.357   8.717   3.682
91166W        W52532  14.213  27.680   4.670
91167W        W52533   8.743   9.787   4.343
91168W        W52534  16.085  44.907   3.788
91169W        W52535  44.769  16.586  13.936
91170W        W52536  24.030  17.628  13.060
91171W        W52537  21.621  42.843   0.310
91172W        W52538  33.057  21.071  14.386
91173W        W52539   7.392  29.451   3.356
91174W        W52540  10.697   0.389   3.691
91175W        W52541  10.726  18.713  14.456
91176W        W52542  22.586  11.751   0.361
91177W        W52543  24.583  35.990  11.490
91178W        W52544  21.547  27.147  12.093
91179W        W52545   4.858  27.563   0.354
91180W        W52546  23.511  36.399  11.009
91181W        W52547  13.260  16.780   4.276
91182W        W52548  23.624  11.230   0.841
91183W        W52549  25.177  29.925  12.417
91184W        W52550   3.942  16.084  12.904
91185W        W52551  26.508  22.042   4.734
91186W        W52552   7.837  32.552  12.511
91187W        W52553  32.584  32.050   4.147
91188W        W52554  44.856  35.008  13.918
91189W        W52555  18.206  30.456  10.467
91190W        W52556   9.717  38.465   3.684
91191W        W52557  37.901   3.220   4.763
91192W        W52558  14.117  22.531   4.152
91193W        W52559   0.300   9.711  10.503
91194W        W52560  37.516  32.514   2.404
91195W        W52561  22.121  20.662   4.223
91196W        W52562  11.344   6.368   2.299
91197W        W52563  29.539  34.465   0.338
91198W        W52564  26.693  18.242  11.373
91199W        W52565  19.096  10.269   3.174
91200W        W52566  17.102  35.369   1.326
91201W        W52567   9.355  44.813  12.883
91202W        W52568  29.512  43.006   3.354
91203W        W52569  12.272  11.744   3.265
91204W        W52570  37.571  11.136   1.343
91205W        W52571  44.830   9.189  11.499
91206W        W52572  38.983  27.138  12.927
91207W        W52573   1.798  16.720   0.245
91208W        W52574  24.013  36.387  13.973
91209W        W52575  42.809  31.506   2.880
91210W        W52576  28.604  21.163   3.832
91211W        W52577  34.913  33.586  12.947
91212W        W52578  14.778  17.568   3.172
91213W        W52579  29.548  12.238  12.505
91214W        W52580  40.940   5.764   1.290
91215W        W52581  33.129  22.558  11.922
91216W        W52582   8.227  23.531  13.875
91217W        W52583  15.798  17.798   3.827
91218W        W52584  40.327  18.208  13.835
91219W        W52585  21.557  12.714  13.048
91220W        W52586  17.668  13.616  13.856
91221W        W52587  44.762  27.183  13.942
91222W        W52588  22.130  42.782  11.603
91223W        W52589  20.211  35.496  14.342
91224W        W52590  33.612   5.850   1.354
91225W        W52591  28.022  44.317   4.644
91226W        W52592  16.740  17.191  11.379
91227W        W52593  13.234  33.065   2.738
91228W        W52594  26.008  27.472  13.343
91229W        W52595  14.135  23.138  13.883
91230W        W52596  16.585  42.438  10.524
91231W        W52597   6.188  24.530   1.879
91232W        W52598  30.050  43.886  10.980
91233W        W52599  17.223  18.623   3.182
91234W        W52600  35.016  34.114   4.658
91235W        W52601   1.248   3.345   3.762
91236W        W52602  13.784  14.338  14.434
91237W        W52603  27.102   9.237   2.334
91238W        W52604  26.999  33.525  12.362
91239W        W52605  36.584  20.699  14.450
91240W        W52606  38.002  30.950   3.300
91241W        W52607  38.393  36.987  12.559
91242W        W52608  13.248  36.375   2.414
91243W        W52609   2.319  11.656   0.854
91244W        W52610  36.581  27.969  13.800
91245W        W52611  19.666  15.738   3.201
91246W        W52612  14.288  16.135   0.811
91247W        W52613  17.597  36.969   1.862
91248W        W52614   8.729  32.986   1.344
91249W        W52615  34.053  23.147   2.201
91250W        W52616  23.594  34.573   2.399
91251W        W52617   8.790  14.178  13.944
91252W        W52618  25.977   2.332  13.409
91253W        W52619   2.860  25.516  13.909
91254W        W52620  14.672  22.626  10.918
91255W        W52621   7.699  42.850  13.501
91256W        W52622   1.829  34.472  12.462
91257W        W52623  29.163   6.276  12.998
91258W        W52624  37.078  29.165  13.548
91259W        W52625  12.714  18.592   0.793
91260W        W52626  18.208   2.257  10.517
91261W        W52627  30.463  24.492  10.644
91262W        W52628  41.451  12.684   0.324
91263W        W52629  12.236  13.185   4.772
91264W        W52630  18.217  28.967   2.331
91265W        W52631  41.400  39.910   4.772
91266W        W52632  31.132  32.951   1.791
91267W        W52633  36.889   9.180  10.626
91268W        W52634  36.001  11.727   5.175
91269W        W52635  27.002  16.099  12.474
91270W        W52636  12.668   9.281  13.924
91271W        W52637   4.382  39.046  10.575
91272W        W52638  33.621  30.629  14.774
91273W        W52639   9.273  11.828  11.497
91274W        W52640   8.823  16.298   2.382
91275W        W52641  17.584   3.426   2.347
91276W        W52642  41.839  30.048  11.909
91277W        W52643  13.773  31.100  11.123
91278W        W52644  11.736  13.616  13.349
91279W        W52645  35.909  29.011  12.079
91280W        W52646  35.917  18.202  12.493
91281W        W52647  24.069  16.582  11.481
91282W        W52648   2.467  39.387  11.490
91283W        W52649   1.242  38.324   2.877
91284W        W52650  25.189   2.319   4.617
91285W        W52651  39.436  44.994  14.462
91286W        W52652  12.662  42.324   0.936
91287W        W52653  18.767  15.708   1.801
91288W        W52654  25.572  41.305  10.929
91289W        W52655   7.217  27.959  10.987
91290W        W52656   0.481   3.898   1.351
91291W        W52657   2.887  33.912   1.890
91292W        W52658  34.382   1.294   2.759
91293W        W52659  23.596  37.514   0.390
91294W        W52660  40.884   5.864  14.992
91295W        W52661   0.393   3.786   3.238
91296W        W52662  30.924   8.163  13.822
91297W        W52663  28.086   6.705   2.727
91298W        W52664  42.807   7.230   3.795
91299W        W52665  11.860  41.464   4.219
91300W        W52666  31.035   3.934  12.555
91301W        W52667   9.673  22.537   4.605
91302W        W52668  44.292  39.831  14.832
91303W        W52669   7.750  38.561   1.864
91304W        W52670   0.251  11.775  11.891
91305W        W52671   2.817  23.512  14.482
91306W        W52672   1.907  43.387  10.554
91307W        W52673  40.402   6.906  10.951
91308W        W52674  38.997  29.930  13.515
91309W        W52675  23.158  19.662   4.243
91310W        W52676   9.716  30.594   0.404
91311W        W52677  44.839  42.421   4.652
91312W        W52678   6.348   8.849  10.500
91313W        W52679  29.072  37.539  10.405
91314W        W52680   7.746  41.018   4.757
91315W        W52681  23.108  27.081   4.349
91316W        W52682  39.412  39.880   1.302
91317W        W52683  17.210  29.142  11.004
91318W        W52684  32.533  37.830   3.760
91319W        W52685  31.128  38.873   4.760
91320W        W52686   5.268   6.701   3.760
91321W        W52687  31.134  44.321   1.745
91322W        W52688  31.042  15.582   0.253
91323W        W52689  28.670  20.172  10.956
91324W        W52690  33.132  25.651   3.658
91325W        W52691   8.866  25.978  10.434
91326W        W52692  20.536  33.571   2.215
91327W        W52693   1.953  29.034  11.380
91328W        W52694   4.771  31.121  13.547
91329W        W52695  26.979  34.915   2.711
91330W        W52696  36.860  32.567  12.966
91331W        W52697  35.063   2.255   1.444
91332W        W52698  38.384  16.140  14.997
91333W        W52699   2.878  31.546  10.031
91334W        W52700  44.933   4.346   2.666
91335W        W52701  26.593  27.120  10.567
91336W        W52702   9.165  13.114  13.528
91337W        W52703  26.124  33.124   1.732
91338W        W52704  34.096  29.547   3.293
91339W        W52705  32.981  10.642  10.637
91340W        W52706   2.941   5.225  11.944
91341W        W52707  34.372  39.490  11.477
91342W        W52708  11.186   5.751   3.790
91343W        W52709  15.198   1.829   3.787
91344W        W52710   8.396  31.406   2.250
91345W        W52711  23.053  23.682  14.018
91346W        W52712  42.810  23.090   3.754
91347W        W52713  28.477  40.801   0.769
91348W        W52714  39.410  34.984  11.997
91349W        W52715  12.252   7.201   3.716
91350W        W52716   0.295  11.147   3.747
91351W        W52717  25.987  13.624  13.801
91352W        W52718   9.235  37.416  14.433
91353W        W52719  36.908  12.663   2.781
91354W        W52720  32.061  14.771   3.264
91355W        W52721  37.514  30.642  10.606
91356W        W52722   1.290  15.730  11.422
91357W        W52723  10.803  30.546   2.726
91358W        W52724  27.530   3.921  13.444
91359W        W52725  40.928  26.060   3.151
91360W        W52726  43.942  33.030  13.813
91361W        W52727  16.297  13.736  10.118
91362W        W52728  35.389  34.600  11.954
91363W        W52729  37.019  41.039   2.757
91364W        W52730  37.912   3.262   0.834
91365W        W52731  32.898  28.546   1.831
91366W        W52732  24.714  29.600   1.712
91367W        W52733  32.055  24.050   3.731
91368W        W52734   6.184  11.686  14.864
91369W        W52735  19.198  22.127  12.445
91370W        W52736  28.087  41.795  11.390
91371W        W52737  15.582   2.267   3.791
91372W        W52738  24.056  33.119  13.850
91373W        W52739  28.678  34.595  12.061
91374W        W52740  17.730  17.735   4.156
91375W        W52741  16.680  23.239  11.027
91376W        W52742  42.334  10.822  12.507
91377W        W52743  21.170  25.177  11.607
91378W        W52744  10.186   0.265  10.482
91379W        W52745  35.006   2.340   4.653
91380W        W52746   5.309  39.837   4.209
91381W        W52747  16.257  42.395  14.505
91382W        W52748  10.170   6.890  11.579
91383W        W52749  12.197   4.839  13.483
91384W        W52750  17.154  31.543   1.277
91385W        W52751  16.235  12.353   3.282
91386W        W52752  21.031   2.955  14.358
91387W        W52753  36.904  16.262   1.408
91388W        W52754  14.819  24.143  10.571
91389W        W52755  43.972  15.243  14.773
91390W        W52756  26.695  36.500  10.897
91391W        W52757  16.087   0.320   2.307
91392W        W52758  12.214  19.570   0.963
91393W        W52759  38.957  32.435  10.927
91394W        W52760  16.768  43.395  14.438
91395W        W52761  28.158  23.499  10.919
91396W        W52762  22.132  43.329   1.823
91397W        W52763  11.712  30.066  14.775
91398W        W52764  32.001   5.713  13.804
91399W        W52765  33.007  31.422   2.306
91400W        W52766  29.998  41.965  10.428
91401W        W52767  19.066   1.852   3.306
91402W        W52768  10.822  14.705   3.221
91403W        W52769  19.725   2.433  13.059
91404W        W52770  32.047  44.824  13.323
91405W        W52771  26.122  18.178   1.423
91406W        W52772  34.514  26.120  11.977
91407W        W52773  43.844   0.958  11.415
91408W        W52774   5.814  26.472   1.265
91409W        W52775  19.179  34.393   3.219
91410W        W52776  12.760   1.414  13.353
91411W        W52777  31.454  19.059  13.971
91412W        W52778   2.739  11.835  13.962
91413W        W52779   3.742   7.397   1.746
91414W        W52780  21.728   8.194  12.835
91415W        W52781  35.981  18.709   3.667
91416W        W52782  32.906  12.781  11.111
91417W        W52783  27.097  20.552  10.576
91418W        W52784  16.237  20.141   1.808
91419W        W52785   8.670  25.178  12.081
91420W        W52786  14.618  35.871   9.935
91421W        W52787  31.943  16.694   1.839
91422W        W52788   4.225  20.051   2.846
91423W        W52789  21.203   3.424  14.281
91424W        W52790  14.824  17.127   1.281
91425W        W52791   9.320   0.414   2.848
91426W        W52792  11.837   3.729   0.386
91427W        W52793  30.556  31.994   1.434
91428W        W52794  23.623   6.410   3.851
91429W        W52795  32.082   9.651   3.207
91430W        W52796  15.136  41.411   0.290
91431W        W52797   9.859  44.409   4.189
91432W        W52798  28.035  17.736   9.924
91433W        W52799  29.629  24.563   1.296
91434W        W52800   9.828  33.463   3.807
91435W        W52801  23.113   3.339  12.532
91436W        W52802  36.986   7.812   2.267
91437W        W52803  22.536  25.608  13.365
91438W        W52804  24.503  28.622  12.385
91439W        W52805  17.704   8.892  14.303
91440W        W52806  22.235  29.611  12.997
91441W        W52807  37.001  11.305   4.324
91442W        W52808   8.835   8.850   4.154
91443W        W52809   6.190  44.436   1.214
91444W        W52810  40.315  23.037  11.444
91445W        W52811  14.115  21.081   9.932
91446W        W52812  28.571  28.141   3.679
91447W        W52813  11.780  23.211   0.877
91448W        W52814  10.840  35.109  11.053
91449W        W52815  21.214  28.460   1.390
91450W        W52816  33.495  35.878  12.957
91451W        W52817   4.810  43.923  11.100
91452W        W52818   1.833  24.482   2.325
91453W        W52819  33.622  33.418   4.740
91454W        W52820   9.643  25.139  12.431
91455W        W52821   6.241  44.397  14.948
91456W        W52822   6.821  38.448  11.106
91457W        W52823  14.757  13.607  10.075
91458W        W52824   6.347  34.388   1.387
91459W        W52825   2.291  36.021   9.919
91460W        W52826  30.553  34.588   3.307
91461W        W52827  20.078  23.734   1.402
91462W        W52828  24.606   3.810   0.401
91463W        W52829  33.893  29.036   4.116
91464W        W52830  23.071  40.845   3.315
91465W        W52831  11.268  28.116  11.540
91466W        W52832  14.184   9.305  11.934
91467W        W52833   7.400  43.989  11.095
91468W        W52834  22.196  12.120  11.457
91469W        W52835  14.678  38.513  11.508
91470W        W52836  38.428  30.086   3.162
91471W        W52837  37.394  36.416   4.347
91472W        W52838   1.900  17.125   4.829
91473W        W52839  12.264  41.858   4.743
91474W        W52840  17.101  30.503  12.419
91475W        W52841  26.128  12.351   2.333
91476W        W52842  27.566  19.133  11.563
91477W        W52843  34.112  36.400   2.185
91478W        W52844  27.987   6.911  10.894
91479W        W52845  19.121  17.566  10.998
91480W        W52846   7.250  37.946   4.611
91481W        W52847  40.306   3.869  11.382
91482W        W52848  30.566  14.157   2.288
91483W        W52849  43.443  19.139  11.920
91484W        W52850   8.735  28.979   4.689
91485W        W52851   7.864  40.856  11.874
91486W        W52852  38.507  15.644   0.386
91487W        W52853  41.352  17.250   0.792
91488W        W52854  32.636   7.743  12.518
91489W        W52855   9.277  23.027   1.740
91490W        W52856   8.374  36.945   4.735
91491W        W52857  17.169   6.819  10.896
91492W        W52858   2.437   2.724   0.801
91493W        W52859  36.065   0.319  12.959
91494W        W52860  23.123   1.284  10.928
91495W        W52861  44.768   5.838   2.731
91496W        W52862  10.316  39.979   1.806
91497W        W52863  12.126   2.851   1.374
91498W        W52864  18.059  36.471   9.943
91499W        W52865   6.375  20.109  14.787
91500W        W52866   9.313   9.815   0.752
91501W        W52867  32.027  24.015  11.965
91502W        W52868  36.097  40.044  10.092
91503W        W52869   7.765   7.754   2.757
91504W        W52870   3.405   1.268   1.218
91505W        W52871   7.410   8.832  13.443
91506W        W52872  13.611  33.604   2.202
91507W        W52873  29.953   7.788  14.395
91508W        W52874  37.868  11.680   9.953
91509W        W52875  14.172  34.911  11.537
91510W        W52876  12.224   6.419  13.408
91511W        W52877  23.492  43.870   3.862
91512W        W52878  23.635   1.247  12.342
91513W        W52879   2.280  30.978  12.450
91514W        W52880  33.116  41.484   5.166
91515W        W52881   4.404  31.493   1.409
91516W        W52882   4.251  34.390   4.682
91517W        W52883  41.301  23.230   1.816
91518W        W52884  27.673  31.029   4.798
91519W        W52885  43.388  11.355  12.829
91520W        W52886  26.099  36.559  11.057
91521W        W52887  30.035  16.268   1.789
91522W        W52888   2.291  12.745   3.683
91523W        W52889  29.125  24.668  13.417
91524W        W52890   9.782   3.899  11.057
91525W        W52891  34.942  41.491   5.283
91526W        W52892  14.271  15.824  13.330
91527W        W52893   6.286  21.526  10.631
91528W        W52894  21.093  11.755  11.416
91529W        W52895   9.874  26.572  14.764
91530W        W52896  38.516  11.621  12.488
91531W        W52897  37.987   7.761   2.738
91532W        W52898   4.724   9.153  14.320
91533W        W52899  16.288  25.009   0.934
91534W        W52900   3.742  15.296  10.587
91535W        W52901  41.003  39.501  12.579
91536W        W52902  31.543  20.168   0.389
91537W        W52903  37.900  40.039  10.960
91538W        W52904  33.998   2.439  14.883
91539W        W52905  41.324  28.054   2.843
91540W        W52906  26.514  19.055  11.525
91541W        W52907   0.886  20.621  14.880
91542W        W52908   9.256  32.993   2.183
91543W        W52909  16.267  30.641   2.661
91544W        W52910  34.026  25.532   3.216
91545W        W52911  10.708   5.815   0.907
91546W        W52912  27.071  33.484  14.955
91547W        W52913  36.440  35.861   5.173
91548W        W52914   4.802  40.480   1.926
91549W        W52915  32.428  18.265   4.218
91550W        W52916  20.135  39.021   4.678
91551W        W52917  36.991  35.562  13.973
91552W        W52918  31.528  35.403  14.309
91553W        W52919  20.260  39.812  12.990
91554W        W52920  38.043  26.514  13.454
91555W        W52921  40.955  25.153   3.168
91556W        W52922  17.712  11.181  10.547
91557W        W52923  11.271  10.709   2.703
91558W        W52924  26.035  30.009  12.455
91559W        W52925  23.562  34.391  11.400
91560W        W52926  10.687  40.004  13.454
91561W        W52927  19.272   3.853  10.489
91562W        W52928  37.858  32.971  12.977
91563W        W52929  17.300  38.980   3.650
91564W        W52930   7.840  19.741   4.285
91565W        W52931  13.791  41.841   0.914
91566W        W52932  24.991  37.536   2.791
91567W        W52933  33.397  22.548   0.921
91568W        W52934  42.446  11.787   2.274
91569W        W52935  42.462  13.336  13.031
91570W        W52936  29.064  32.081  14.372
91571W        W52937  31.512   0.897  14.506
91572W        W52938  22.249  26.067  10.521
91573W        W52939  43.469  27.129   3.629
91574W        W52940   5.213   7.275  13.527
91575W        W52941   7.349   8.317   0.394
91576W        W52942   6.401  31.494   1.434
91577W        W52943  42.393  20.064  12.931
91578W        W52944   2.895  22.145   1.211
91579W        W52945  26.104  22.706   3.267
91580W        W52946  26.471  17.623  11.580
91581W        W52947  24.600  38.334   1.350
91582W        W52948  21.073  10.844  13.938
91583W        W52949  34.097   5.723   2.865
91584W        W52950  30.650  27.021  10.535
91585W        W52951  26.104   6.705  11.389
91586W        W52952  10.316  18.206  13.887
91587W        W52953  42.921  31.484   4.331
91588W        W52954  39.937  26.686  11.050
91589W        W52955   1.905  32.091   2.281
91590W        W52956  36.388   5.874   4.684
91591W        W52957  20.538  13.833  13.939
91592W        W52958  25.174  36.093  14.428
91593W        W52959  44.296   2.420  14.946
91594W        W52960  25.127  12.658  11.084
91595W        W52961  11.187  23.140   4.751
91596W        W52962  23.021  27.947   2.832
91597W        W52963  14.801  32.101   2.326
91598W        W52964  22.135  27.991   1.297
91599W        W52965  28.027   9.329  14.508
91600W        W52966  11.214  22.591  14.999
91601W        W52967  33.069  22.528   4.700
91602W        W52968  19.644  31.535  12.973
91603W        W52969  23.204  20.585  11.608
91604W        W52970  39.542  39.388  11.604
91605W        W52971  18.782  12.318   0.273
91606W        W52972  31.588   3.323   4.166
91607W        W52973  43.490  21.730   1.233
91608W        W52974  16.750  39.975  11.553
91609W        W52975  28.603  38.462  14.964
91610W        W52976  42.840  29.046   0.347
91611W        W52977  43.947  38.338   2.264
91612W        W52978  38.454  11.226  14.295
91613W        W52979  19.062  26.147  10.918
91614W        W52980   1.834   4.236   0.928
91615W        W52981   2.912  27.975   3.679
91616W        W52982  36.588  41.027   1.931
91617W        W52983  23.500  11.782  11.461
91618W        W52984   5.872  30.625   2.202
91619W        W52985  13.342   4.443   1.396
91620W        W52986  28.601  11.191   0.911
91621W        W52987   3.374  28.640  11.054
91622W        W52988  37.504  39.929  11.613
91623W        W52989  31.929  43.840  14.950
91624W        W52990  20.665  24.685  14.284
91625W        W52991  25.501  17.795  11.547
91626W        W52992  33.083  13.297   3.849
91627W        W52993  33.554  13.277   0.797
91628W        W52994   9.731  44.925  10.941
91629W        W52995  25.689  41.309   5.185
91630W        W52996  37.480  12.824  14.787
91631W        W52997  37.548   1.880  12.043
91632W        W52998   2.838  16.716  14.388
91633W        W52999  11.311  40.829   4.334
91634W        W53000  41.325   1.461  12.070
91635W        W53001   8.336   5.906   3.698
91636W        W53002   0.836   3.286   5.310
91637W        W53003  40.820  32.905   3.657
91638W        W53004  15.626  19.568   3.740
91639W        W53005  14.275  11.338   1.730
91640W        W53006  17.139   6.239  11.121
91641W        W53007  32.916  44.436  14.786
91642W        W53008  28.011  27.567   2.351
91643W        W53009  44.919   6.207  13.023
91644W        W53010  43.389  33.396  14.032
91645W        W53011  40.007   0.438   4.193
91646W        W53012  37.416  31.959  12.847
91647W        W53013  28.454   1.263   2.893
91648W        W53014  11.623  37.908  10.595
91649W        W53015  40.043  28.087  12.494
91650W        W53016   1.273  42.775  11.541
91651W        W53017   5.267  13.825   2.341
91652W        W53018   0.374  33.495  12.050
91653W        W53019  16.194  22.995  10.912
91654W        W53020  14.234  41.018   3.233
91655W        W53021  13.792  11.254   4.287
91656W        W53022  22.162  35.981  14.351
91657W        W53023   5.843  10.333   0.362
91658W        W53024  22.065  32.136  14.336
91659W        W53025  37.033  18.647   0.923
91660W        W53026  25.571  21.718   1.289
91661W        W53027  19.705  32.992   2.674
91662W        W53028  43.483   7.695  13.042
91663W        W53029   2.814   4.941  12.939
91664W        W53030  29.614  38.454  12.885
91665W        W53031  32.126  33.019   0.742
91666W        W53032   2.406  37.937  14.871
91667W        W53033  14.662  29.933   1.383
91668W        W53034  18.197  17.761  12.540
91669W        W53035  33.075  11.757   3.866
91670W        W53036   5.750  38.920   4.299
91671W        W53037   1.838   9.311  14.807
91672W        W53038  40.342  42.323   4.834
91673W        W53039  20.092  40.320   3.736
91674W        W53040  22.703  31.948   0.779
91675W        W53041  16.284  43.481   4.194
91676W        W53042  42.804  23.703   3.862
91677W        W53043  30.978  30.150   2.258
91678W        W53044  31.484  17.080  12.381
91679W        W53045  22.044   0.413  14.447
91680W        W53046  32.420  33.879   0.478
91681W        W53047  20.718  15.219   3.185
91682W        W53048  28.984   7.847  13.322
91683W        W53049   7.760  28.965  13.998
91684W        W53050  19.062  40.815   0.746
91685W        W53051  13.670  36.412   9.467
91686W        W53052  37.385   2.396  14.498
91687W        W53053   7.795  10.814  11.921
91688W        W53054  30.092  40.797  11.117
91689W        W53055   0.869  24.044  14.777
91690W        W53056   0.974  39.018  11.503
91691W        W53057  17.182  26.667   1.434
91692W        W53058  13.147  42.496  11.857
91693W        W53059  37.843   0.890  13.356
91694W        W53060   8.214  19.552   1.769
91695W        W53061   9.187   9.705  11.534
91696W        W53062  30.055  24.573   0.939
91697W        W53063  21.730   4.700   0.887
91698W        W53064  31.080  12.168  14.298
91699W        W53065  38.416  29.645  12.927
91700W        W53066  17.256  13.314  13.307
91701W        W53067  18.546  22.252   2.389
91702W        W53068  12.335  41.459   4.679
91703W        W53069   6.744  19.200   5.630
91704W        W53070  33.556  41.928  11.933
91705W        W53071   7.768  22.126  14.796
91706W        W53072  18.598   2.277  12.884
91707W        W53073  39.388  23.496  10.553
91708W        W53074  39.985  24.230  10.569
91709W        W53075  29.038  23.605   1.281
91710W        W53076  10.341  13.125   2.739
91711W        W53077  31.102  38.427  11.522
91712W        W53078  39.960  33.970  14.348
91713W        W53079  31.464  16.277  10.597
91714W        W53080  34.518  19.772  13.385
91715W        W53081  30.991  23.004   1.352
91716W        W53082  25.580   9.204  12.933
91717W        W53083  39.911  17.146   4.747
91718W        W53084  31.943  30.429  13.958
91719W        W53085  41.339  31.146  13.839
91720W        W53086  42.466   1.970   4.657
91721W        W53087  10.633  25.210   2.187
91722W        W53088  13.126  24.634   2.810
91723W        W53089  25.166  35.101  10.918
91724W        W53090   5.200  36.399   0.913
91725W        W53091  25.626  24.023   2.793
91726W        W53092  39.548  42.281  11.010
91727W        W53093  30.594  22.669   2.784
91728W        W53094   6.349  35.395   4.211
91729W        W53095  24.142   7.725  11.956
91730W        W53096   3.440  14.633   3.255
91731W        W53097  14.305  10.209   0.400
91732W        W53098   0.912  40.374  10.579
91733W        W53099   6.752  29.489   2.311
91734W        W53100  24.048  32.505  13.453
91735W        W53101  23.578  21.700  11.467
91736W        W53102  25.149  44.953  13.854
91737W        W53103  18.668   9.824  14.909
91738W        W53104   4.916   0.283  11.877
91739W        W53105  33.406  16.113  13.450
91740W        W53106   9.667  19.691  14.323
91741W        W53107  22.539  27.092  10.478
91742W        W53108   8.658  38.071  11.117
91743W        W53109  18.119  38.973   1.252
91744W        W53110  34.040  33.048   3.151
91745W        W53111  30.972   2.775  12.844
91746W        W53112   9.784  16.214   1.877
91747W        W53113  44.826   0.918   4.277
91748W        W53114   3.895   7.679   0.329
91749W        W53115  42.409   3.744  13.484
91750W        W53116  29.632  39.009  14.861
91751W        W53117  18.273  23.179   1.843
91752W        W53118  35.564   5.690   2.237
91753W        W53119  34.940   3.452  11.506
91754W        W53120  32.090   2.751   2.863
91755W        W53121  42.013  30.498  11.030
91756W        W53122   5.904  10.233   1.770
91757W        W53123  36.548  38.513   0.868
91758W        W53124   7.175   4.767   4.816
91759W        W53125  16.105  33.031  13.359
91760W        W53126  31.045  31.644   4.602
91761W        W53127  43.955  37.395  11.436
91762W        W53128  17.180  10.243  12.079
91763W        W53129   3.898  39.541   3.738
91764W        W53130  16.588   6.705  12.854
91765W        W53131  40.470  34.555   4.347
91766W        W53132  41.530   7.181  11.986
91767W        W53133  20.588  14.238   0.393
91768W        W53134  39.397  37.019   2.828
91769W        W53135  23.633   4.758   1.303
91770W        W53136   0.917  34.482   0.928
91771W        W53137  16.129   0.857   2.886
91772W        W53138  15.259  26.046   4.653
91773W        W53139  42.338   5.808  13.383
91774W        W53140  32.108  40.041   4.326
91775W        W53141  33.959  34.397   2.216
91776W        W53142  21.560  14.269  14.845
91777W        W53143  31.913  31.553   1.911
91778W        W53144  22.169  35.448   1.797
91779W        W53145  36.400  38.060  10.524
91780W        W53146  15.110   1.334  11.956
91781W        W53147  42.290  13.283  14.766
91782W        W53148  37.038  37.070   2.824
91783W        W53149  26.173   3.240  12.035
91784W        W53150  40.920  38.846  10.941
91785W        W53151  18.088   1.831   4.781
91786W        W53152  30.951  11.186  11.105
91787W        W53153  39.866  34.409  12.855
91788W        W53154  39.318  19.093  10.574
91789W        W53155  17.150  37.475  10.031
91790W        W53156  31.909  20.754  12.008
91791W        W53157  22.510  15.283   2.662
91792W        W53158  11.703   3.908  11.120
91793W        W53159  38.375  19.663   1.772
91794W        W53160  19.654  19.086   3.657
91795W        W53161  22.583  42.931   4.261
91796W        W53162  44.407   8.335  14.774
91797W        W53163  37.538   3.389   2.333
91798W        W53164  20.068  33.404  10.636
91799W        W53165  19.179  16.636   3.635
91800W        W53166   1.817  17.252   0.733
91801W        W53167  27.011  14.295   1.738
91802W        W53168   5.430   2.902   5.195
91803W        W53169  39.480  41.340   4.220
91804W        W53170  43.835  26.079  11.553
91805W        W53171  42.868   8.866   2.377
91806W        W53172  33.405  20.227  14.903
91807W        W53173  27.618  24.056   1.819
91808W        W53174  11.274  10.731  11.077
91809W        W53175  18.616  38.024  11.454
91810W        W53176   4.861   9.280  11.478
91811W        W53177  34.897  33.612   3.155
91812W        W53178  15.265  24.105   0.358
91813W        W53179  34.888  39.056   2.902
91814W        W53180   8.695   2.946   5.181
91815W        W53181  16.679  34.600   1.399
91816W        W53182  16.273  14.330   3.738
91817W        W53183  26.663   0.909   3.185
91818W        W53184  42.973  13.272  11.423
91819W        W53185  42.875   9.282  13.487
91820W        W53186  10.239  37.468  12.829
91821W        W53187  33.074  41.800   5.249
91822W        W53188   4.423  21.570   3.214
91823W        W53189  23.149  29.655   9.991
91824W        W53190   5.793  40.961  12.385
91825W        W53191  29.982  32.499  11.514
91826W        W53192  16.093   3.283  11.503
91827W        W53193   1.750  22.527  11.044
91828W        W53194   7.702   4.915  14.902
91829W        W53195  22.522  20.678  14.893
91830W        W53196  32.408  31.576   3.637
91831W        W53197  25.201  12.836  12.351
91832W        W53198   2.367  40.457  14.311
91833W        W53199  36.371  24.126   4.607
91834W        W53200  36.441  29.557  12.930
91835W        W53201  23.059   2.964  11.404
91836W        W53202  43.320  43.922   3.815
91837W        W53203  17.786  14.293  14.862
91838W        W53204  27.677   9.335   0.763
91839W        W53205  40.823  21.209  12.572
91840W        W53206  27.073  27.594   1.349
91841W        W53207  36.853  37.538  13.454
91842W        W53208  33.387  12.636  12.972
91843W        W53209  28.112  38.955   5.183
91844W        W53210   4.728  30.114   3.780
91845W        W53211  40.330  20.571  12.873
91846W        W53212  20.256   4.852   3.678
91847W        W53213  14.338  14.286   5.122
91848W        W53214  32.895  38.039  12.451
91849W        W53215  21.212  28.999   1.364
91850W        W53216  42.835  31.589   3.773
91851W        W53217  12.818   0.972  11.397
91852W        W53218   4.725  25.109   1.760
91853W        W53219   0.967  26.522  12.448
91854W        W53220   1.397  24.621  13.449
91855W        W53221  27.646  35.858  11.484
91856W        W53222  41.817   6.424   0.769
91857W        W53223   9.722   7.701  14.370
91858W        W53224  27.478  27.048   9.523
91859W        W53225  43.791  15.620   0.949
91860W        W53226  21.689  17.227   1.821
91861W        W53227  32.419  34.492   0.922
91862W        W53228  36.461  35.452  13.399
91863W        W53229  21.199  42.446  11.856
91864W        W53230  44.263  38.998   5.256
91865W        W53231   5.934  12.841   3.259
91866W        W53232   6.732  10.258   0.798
91867W        W53233   7.888  27.130  13.912
91868W        W53234  38.972  27.094   1.849
91869W        W53235  26.991   6.712   3.735
91870W        W53236  39.550  31.444  14.329
91871W        W53237  41.513  43.290  14.310
91872W        W53238  37.931  34.543  14.380
91873W        W53239  23.202   7.902   1.869
91874W        W53240  12.614  27.958   2.871
91875W        W53241  24.525  42.416  13.950
91876W        W53242   5.256  17.121  11.608
91877W        W53243   1.453  21.606   1.759
91878W        W53244  15.809  12.302   2.675
91879W        W53245  41.314  16.695   2.771
91880W        W53246   4.923  10.645   5.212
91881W        W53247   2.298   8.323  11.561
91882W        W53248  29.943  29.919  10.977
91883W        W53249   6.781  39.331  11.599
91884W        W53250  40.328   6.867   3.203
91885W        W53251  16.760  41.966  13.353
91886W        W53252  41.819  36.097  14.863
91887W        W53253  37.875  16.592  12.537
91888W        W53254   9.392  15.105   4.160
91889W        W53255  18.106  30.488   2.853
91890W        W53256  25.621  13.810   4.703
91891W        W53257   1.375  38.400  12.036
91892W        W53258  32.055  37.442  12.349
91893W        W53259  13.186  22.676  10.126
91894W        W53260  43.843  14.289   4.752
91895W        W53261  33.101  21.745  10.457
91896W        W53262  20.658  31.036   0.439
91897W        W53263   6.263  18.775  13.531
91898W        W53264  24.035  19.714   4.801
91899W        W53265  24.585   7.904  12.968
91900W        W53266  29.974   5.257   4.189
91901W        W53267  15.275  20.648   0.889
91902W        W53268  35.413  40.317  12.875
91903W        W53269  21.053  23.526   4.783
91904W        W53270  20.197  30.504   1.830
91905W        W53271   4.425  10.671   3.715
91906W        W53272  26.670   1.452   1.275
91907W        W53273  32.085  23.579  13.910
91908W        W53274  12.279  25.980  12.053
91909W        W53275  18.624  30.455   3.379
91910W        W53276   2.237  43.910  13.034
91911W        W53277   4.376  23.081   2.381
91912W        W53278  18.703  11.316   1.917
91913W        W53279   7.396  27.027  12.488
91914W        W53280  18.084  39.064   2.269
91915W        W53281  30.025  40.521   4.329
91916W        W53282  38.013   5.828   4.134
91917W        W53283  41.824   9.650  11.563
91918W        W53284   1.845  23.667   3.202
91919W        W53285  22.226  18.787  11.925
91920W        W53286  24.130   4.302  12.904
91921W        W53287  33.553  27.034   5.108
91922W        W53288  34.380   6.253  14.479
91923W        W53289   1.789  36.903   1.875
91924W        W53290  10.641   1.433   4.806
91925W        W53291  19.164  27.617   4.637
91926W        W53292   6.792   5.734   0.470
91927W        W53293  32.498  25.497   4.734
91928W        W53294  18.113   6.342  12.019
91929W        W53295  12.849  42.395  11.972
91930W        W53296  26.102  41.930  12.851
91931W        W53297   0.760  18.673  11.418
91932W        W53298  25.559  34.531  14.414
91933W        W53299  35.005   7.336   0.370
91934W        W53300  18.779  39.048   2.836
91935W        W53301  19.075  41.919  12.968
91936W        W53302  25.104  27.666   4.351
91937W        W53303  41.878  18.604   0.859
91938W        W53304   5.904   6.185  10.057
91939W        W53305  19.655  35.860   0.761
91940W        W53306  10.263  41.495   3.641
91941W        W53307  22.712  25.625  14.880
91942W        W53308  40.976   4.822  11.542
91943W        W53309  39.987  24.984  11.044
91944W        W53310  35.001   9.669  13.524
91945W        W53311  38.389   2.444  13.898
91946W        W53312   1.419  13.842   3.349
91947W        W53313  16.151  11.679  10.905
91948W        W53314  14.616   1.473  12.899
91949W        W53315   1.836   5.788  11.498
91950W        W53316   8.675  41.943  11.471
91951W        W53317  31.031  20.589  10.942
91952W        W53318  42.348  32.392  14.449
91953W        W53319  40.325  38.932  14.379
91954W        W53320  17.739  39.484  10.404
91955W        W53321  39.000  29.476   3.259
91956W        W53322  30.085   1.331  14.773
91957W        W53323  11.741  10.242  12.565
91958W        W53324  41.895  39.951   3.722
91959W        W53325   4.229  44.316  13.362
91960W        W53326  29.475   4.804   1.829
91961W        W53327  10.829  27.455   3.269
91962W        W53328  42.388   0.900   3.810
91963W        W53329  15.733  25.692   0.326
91964W        W53330   3.909  34.990  13.853
91965W        W53331  11.353  29.462  10.519
91966W        W53332  29.098  30.590  12.900
91967W        W53333  28.932  26.976   1.801
91968W        W53334  20.735  12.789   1.266
91969W        W53335  38.373   4.721  11.086
91970W        W53336  38.420  19.242  13.506
91971W        W53337  13.823   8.705  10.470
91972W        W53338  19.573  32.460   1.406
91973W        W53339   9.279  36.420  10.473
91974W        W53340   1.437  38.872  12.535
91975W        W53341  36.073  12.178   4.196
91976W        W53342  41.312  26.179   1.895
91977W        W53343  21.261  28.118   0.261
91978W        W53344   7.682  21.091   4.615
91979W        W53345  17.800  44.950   4.282
91980W        W53346  22.051  41.363  14.907
91981W        W53347   5.206  33.417   2.835
91982W        W53348  19.147  17.781  12.383
91983W        W53349  11.692   3.950  10.073
91984W        W53350  28.181  15.822   0.898
91985W        W53351  18.248   9.354   2.415
91986W        W53352  41.002  40.460   3.849
91987W        W53353  28.569  38.988   2.706
91988W        W53354  38.978   1.399  13.547
91989W        W53355   5.852  24.542   4.157
91990W        W53356  42.825  35.544   4.182
91991W        W53357  44.877  20.273   3.161
91992W        W53358  34.895  36.960  14.931
91993W        W53359   8.852  31.072   4.309
91994W        W53360  41.490  18.790  12.954
91995W        W53361  29.637  28.440   3.753
91996W        W53362  40.514  38.361  14.842
91997W        W53363  29.667  14.596   0.415
91998W        W53364   2.236   6.191   3.261
91999W        W53365  14.310  18.580   2.687
92000W        W53366   4.801   5.231  12.003
92001W        W53367  28.108  22.065   9.962
92002W        W53368  12.291  26.494  13.915
92003W        W53369   1.913  42.509   1.811
92004W        W53370  21.693  36.473  11.394
92005W        W53371   4.345  14.628   2.767
92006W        W53372  15.173  11.348  10.535
92007W        W53373  40.402  33.897  11.470
92008W        W53374  13.141  31.527   3.339
92009W        W53375  23.111  23.002  12.396
92010W        W53376  37.538  18.077   4.686
92011W        W53377  41.333  38.410   0.367
92012W        W53378  26.591  24.153  12.069
92013W        W53379  30.641  41.019   4.652
92014W        W53380  12.711  32.964   3.338
92015W        W53381  20.567   8.356  11.988
92016W        W53382  26.688  19.745   9.935
92017W        W53383  28.127   8.304   4.221
92018W        W53384  22.079  29.937   0.874
92019W        W53385  44.885  30.659  13.495
92020W        W53386   3.829   4.843  10.457
92021W        W53387  12.793   0.435  10.517
92022W        W53388   6.275  23.698   1.868
92023W        W53389  17.795  20.032   4.135
92024W        W53390  36.564  24.150   0.381
92025W        W53391  17.174  34.401  12.365
92026W        W53392  24.691  12.855  11.516
92027W        W53393  36.994  42.976   5.208
92028W        W53394  28.166  23.494   5.198
92029W        W53395  37.439   0.398  12.458
92030W        W53396  17.090  39.861  12.374
92031W        W53397  28.443  20.525   2.329
92032W        W53398   8.175  36.578  14.998
92033W        W53399   2.385  16.312   1.855
92034W        W53400  42.964  34.561   1.715
92035W        W53401   9.218   8.355  14.481
92036W        W53402  26.574  11.847  10.447
92037W        W53403   3.848   6.703   4.624
92038W        W53404  12.266  17.693   4.184
92039W        W53405  39.954   5.722  11.598
92040W        W53406  24.569  14.229  11.515
92041W        W53407  16.237  22.075   3.231
92042W        W53408  14.663  40.051   1.430
92043W        W53409  38.457  32.077  12.873
92044W        W53410   5.217   6.369  11.591
92045W        W53411  25.092  11.673   5.142
92046W        W53412  27.593  20.193   5.735
92047W        W53413  36.494  18.251  10.946
92048W        W53414  27.456  43.908   3.820
92049W        W53415   9.708  22.039  13.976
92050W        W53416  33.121  15.263  12.077
92051W        W53417   3.795  16.316  14.362
92052W        W53418  31.633  29.627  14.884
92053W        W53419  23.034  18.053   1.247
92054W        W53420  43.011  28.680   4.762
92055W        W53421  26.195  42.340   3.343
92056W        W53422   8.181   6.803  14.506
92057W        W53423  23.599  15.720   4.337
92058W        W53424  25.158  34.052   9.604
92059W        W53425  26.663  16.718  10.129
92060W        W53426   2.735  20.656   4.688
92061W        W53427   3.315  34.989  10.425
92062W        W53428   2.325   4.407  12.029
92063W        W53429  11.661  24.225   4.711
92064W        W53430   6.698  17.685   0.840
92065W        W53431  44.363   4.340  12.903
92066W        W53432  17.190  28.446   0.383
92067W        W53433  36.505   9.365  11.402
92068W        W53434  34.582  36.510  10.603
92069W        W53435  11.289  25.526   4.150
92070W        W53436  20.578  37.434  10.935
92071W        W53437  40.048   8.167   0.354
92072W        W53438   9.818  27.574   4.722
92073W        W53439  23.557  35.422  13.471
92074W        W53440  38.967  32.478  11.473
92075W        W53441  36.054   5.270   0.356
92076W        W53442  32.626  43.918  14.821
92077W        W53443   5.876  43.436   3.820
92078W        W53444  18.684  29.611   3.308
92079W        W53445  22.121  32.507   0.873
92080W        W53446  15.691  23.048   3.190
92081W        W53447  21.129  11.766  13.910
92082W        W53448  19.193   0.489   0.285
92083W        W53449  25.523  29.437  10.407
92084W        W53450  35.560  36.078  13.413
92085W        W53451  33.596  29.038   1.889
92086W        W53452  38.503   0.770   0.332
92087W        W53453  17.710  35.584  11.525
92088W        W53454  12.249  43.851  14.343
92089W        W53455  26.557  33.611   2.767
92090W        W53456  44.758  37.060  13.809
92091W        W53457  29.056  33.990  11.895
92092W        W53458   4.852  33.017   4.762
92093W        W53459  38.486  18.106  14.320
92094W        W53460  15.150   1.964   1.275
92095W        W53461  37.471   8.379  14.513
92096W        W53462  26.660  17.228   4.283
92097W        W53463  33.501  18.728  11.473
92098W        W53464  32.055  20.720   0.791
92099W        W53465  17.679   9.311   0.341
92100W        W53466   1.372  29.929   2.277
92101W        W53467   1.325   9.327   2.303
92102W        W53468  13.716   7.238   1.342
92103W        W53469  36.584  33.423   2.787
92104W        W53470   0.823  36.507  14.356
92105W        W53471  15.671  14.827  14.010
92106W        W53472   2.358  29.077   4.334
92107W        W53473  34.486  43.459   5.259
92108W        W53474  36.474  38.375   5.322
92109W        W53475  30.973  24.516   4.820
92110W        W53476  10.817  36.405   1.327
92111W        W53477  27.635  39.847  14.488
92112W        W53478  34.865  15.253   4.782
92113W        W53479  15.230  35.927   2.668
92114W        W53480  41.367   9.185   3.287
92115W        W53481   9.376   3.880  14.342
92116W        W53482   1.945  30.131   1.935
92117W        W53483   5.256  15.197  13.950
92118W        W53484  24.584   4.812  12.870
92119W        W53485  31.621  12.272   3.172
92120W        W53486   3.859   6.235  11.516
92121W        W53487  17.790  35.072   5.136
92122W        W53488  37.558   2.280   4.772
92123W        W53489  44.005  28.650   1.328
92124W        W53490  13.680   0.317   3.172
92125W        W53491  37.046  17.795   4.837
92126W        W53492  12.660  10.202  13.324
92127W        W53493   6.692  42.032  12.464
92128W        W53494  29.126  35.921  14.516
92129W        W53495   5.361  44.288   2.383
92130W        W53496  34.954  24.621   0.941
92131W        W53497  38.984  40.346   1.265
92132W        W53498   4.912  11.148  10.915
92133W        W53499  34.105  19.705  13.391
92134W        W53500  24.108  24.592  11.612
92135W        W53501  32.021  10.355   1.812
92136W        W53502  29.075  33.916  14.867
92137W        W53503  21.094   0.303  11.017
92138W        W53504  16.104  26.645  12.087
92139W        W53505  19.122  17.758   4.354
92140W        W53506   0.858  37.060   3.862
92141W        W53507  41.040  14.226   2.744
92142W        W53508  14.632  42.791   4.187
92143W        W53509   1.835   4.909   3.829
92144W        W53510  21.114  20.196   3.213
92145W        W53511  40.375  39.044  11.085
92146W        W53512   3.786  39.833   3.645
92147W        W53513  36.582  17.074   1.781
92148W        W53514  26.205  24.121  13.933
92149W        W53515  18.244   7.882  13.539
92150W        W53516   2.727  37.506   2.823
92151W        W53517  29.017   9.348  13.337
92152W        W53518  31.153  43.021  13.059
92153W        W53519   4.219   2.803   3.855
92154W        W53520  30.416  42.965   0.424
92155W        W53521  37.952  32.135  14.781
92156W        W53522  27.043  34.045   3.660
92157W        W53523  21.532   5.381  14.957
92158W        W53524  42.298  37.477   1.212
92159W        W53525  14.647  17.065   2.753
92160W        W53526  21.096  16.669   9.920
92161W        W53527  12.742  25.203   1.214
92162W        W53528   9.376  25.493  13.504
92163W        W53529   2.366  31.442   1.253
92164W        W53530   8.791  21.609   1.408
92165W        W53531  24.507  28.672   0.827
92166W        W53532   4.797  22.744  10.573
92167W        W53533  42.922  30.083   4.811
92168W        W53534  26.572  34.052   1.748
92169W        W53535   0.457  38.440  14.321
92170W        W53536   5.895  13.708   2.224
92171W        W53537  18.051  43.986  10.914
92172W        W53538  28.543  30.952  11.974
92173W        W53539  43.351   6.377  14.345
92174W        W53540   2.247  29.030  11.593
92175W        W53541  41.480  34.092   3.335
92176W        W53542   2.732  32.501   0.876
92177W        W53543  17.100  28.532   4.336
92178W        W53544  22.250  28.528  12.935
92179W        W53545  14.305  21.067   4.117
92180W        W53546   1.822  22.174  10.991
92181W        W53547   9.371  23.041   1.394
92182W        W53548  39.066  17.168  13.005
92183W        W53549  22.561  18.663  13.043
92184W        W53550  13.665  11.709   1.228
92185W        W53551   6.814  36.892   3.257
92186W        W53552  35.965  23.684  11.542
92187W        W53553   6.778  33.415  12.490
92188W        W53554   0.425   2.885   3.633
92189W        W53555  34.895  28.090   1.348
92190W        W53556   4.426  30.536  11.891
92191W        W53557  40.925  10.179   0.917
92192W        W53558  44.846  19.660   2.835
92193W        W53559   9.651  12.821  11.544
92194W        W53560  11.642   8.798  13.436
92195W        W53561   8.401  37.503   3.385
92196W        W53562  38.356   5.928   3.691
92197W        W53563  39.391  19.738   3.355
92198W        W53564  16.656   7.190  14.806
92199W        W53565  29.448   9.788  10.890
92200W        W53566   7.716   5.265  13.510
92201W        W53567   7.412  44.387  11.592
92202W        W53568  15.808  21.745   3.371
92203W        W53569  39.902  11.291  10.616
92204W        W53570  26.972  41.008  14.944
92205W        W53571  23.666  26.978   0.742
92206W        W53572  30.514  11.793  13.899
92207W        W53573  35.957  27.670   2.231
92208W        W53574  42.282   9.694  11.439
92209W        W53575   3.816  17.688   0.844
92210W        W53576  36.930  22.656  13.019
92211W        W53577   8.892  44.852  11.018
92212W        W53578   1.867  18.189   4.299
92213W        W53579  44.922  39.454  14.850
92214W        W53580  25.585  25.044  13.979
92215W        W53581   6.221   7.697   3.787
92216W        W53582  28.545  30.502  11.527
92217W        W53583  23.607  20.089  11.485
92218W        W53584  12.707  39.539  11.468
92219W        W53585   8.860   7.846   2.306
92220W        W53586  21.634  11.214  14.374
92221W        W53587  44.322  30.066  10.588
92222W        W53588  26.681   5.871  14.988
92223W        W53589  27.070  24.651  14.030
92224W        W53590  34.390   0.259  14.443
92225W        W53591  36.933  29.575   1.898
92226W        W53592  42.989  29.942  12.967
92227W        W53593   3.301  13.747   2.769
92228W        W53594  41.007   7.870   4.186
92229W        W53595   8.287  38.952  13.413
92230W        W53596  34.952   2.260   3.653
92231W        W53597   4.208   0.743  12.087
92232W        W53598  37.419  16.628  12.035
92233W        W53599  12.163  37.078  11.984
92234W        W53600   1.827  11.219   2.284
92235W        W53601  24.721  31.594   0.800
92236W        W53602   7.686  40.818  14.295
92237W        W53603   9.660  41.804   0.775
92238W        W53604  25.125  30.936   2.719
92239W        W53605  26.688  36.064  10.484
92240W        W53606  43.833  21.642  14.866
92241W        W53607  18.277  27.195   4.710
92242W        W53608  34.054  18.726   3.211
92243W        W53609  15.247  16.279   1.796
92244W        W53610  38.974  30.423   2.285
92245W        W53611  21.720   3.819   4.152
92246W        W53612  24.152  23.021  14.997
92247W        W53613  15.745   9.662   1.256
92248W        W53614  16.673  37.981   2.800
92249W        W53615  15.645  40.921  11.885
92250W        W53616   3.857  33.007   0.319
92251W        W53617   7.319  39.814  12.412
92252W        W53618  37.081   3.438  11.991
92253W        W53619   9.256  27.116  10.897
92254W        W53620  41.988  43.289   2.277
92255W        W53621  25.661  43.422   3.759
92256W        W53622   9.787  14.115  12.361
92257W        W53623   9.677  31.484  12.997
92258W        W53624  15.669  24.057   2.256
92259W        W53625  43.514  16.293  11.406
92260W        W53626  40.417   9.335   3.193
92261W        W53627  32.632  21.660   1.379
92262W        W53628  21.717  26.016   4.790
92263W        W53629  41.386  39.481  12.083
92264W        W53630  18.549   1.448  12.513
92265W        W53631  11.668  43.365  10.929
92266W        W53632  32.009  33.914   3.334
92267W        W53633  31.464  37.059  11.037
92268W        W53634  30.029  24.174   4.723
92269W        W53635  11.766   2.758  13.956
92270W        W53636  29.498  44.457  13.448
92271W        W53637  26.963  34.499  12.478
92272W        W53638   4.700  10.867   2.357
92273W        W53639  40.379  18.610  14.878
92274W        W53640  11.195  43.506  10.509
92275W        W53641  17.154  10.328   2.350
92276W        W53642  37.494  39.853  14.474
92277W        W53643  28.439  36.976  13.385
92278W        W53644  26.503   3.423  12.005
92279W        W53645  32.988  36.566  11.573
92280W        W53646  41.370  31.462  14.002
92281W        W53647   7.394  42.475  12.048
92282W        W53648  40.525  31.617   1.373
92283W        W53649   0.941  26.034  10.944
92284W        W53650   3.741  29.662   2.342
92285W        W53651  26.006  15.313   4.320
92286W        W53652  30.028  42.838  13.909
92287W        W53653  22.546   8.880   2.338
92288W        W53654  21.135  27.026   4.235
92289W        W53655  41.459  10.856   1.384
92290W        W53656  34.438  12.637   3.149
92291W        W53657  20.621  35.420  13.479
92292W        W53658   4.854  18.575   0.808
92293W        W53659   3.712  22.060  14.313
92294W        W53660   5.282  19.169   3.268
92295W        W53661  15.289  24.554   3.693
92296W        W53662  13.611   5.224  10.981
92297W        W53663  34.121   0.461   2.376
92298W        W53664   1.950  28.461   4.627
92299W        W53665  37.983   4.357   3.374
92300W        W53666  40.983  39.818   2.666
92301W        W53667  22.652  21.595   1.404
92302W        W53668   7.904  25.627   1.736
92303W        W53669  42.295  30.950   3.771
92304W        W53670  19.546  31.934  10.615
92305W        W53671  32.886  15.144   4.341
92306W        W53672  28.499  25.979   2.809
92307W        W53673  42.451  20.565   0.733
92308W        W53674   1.441  30.646  13.808
92309W        W53675  36.997  11.762   2.342
92310W        W53676  24.662  16.222  12.351
92311W        W53677  29.604  42.912  11.518
92312W        W53678   4.937   9.723   0.896
92313W        W53679  13.721  25.579   3.315
92314W        W53680   9.696   0.924   4.598
92315W        W53681  40.908   2.371  11.035
92316W        W53682  12.137  40.810   3.274
92317W        W53683  21.184  37.561   5.247
92318W        W53684  15.168   4.425   4.686
92319W        W53685   4.913  19.732   1.240
92320W        W53686  36.906  19.715   4.771
92321W        W53687  16.114  42.432  11.892
92322W        W53688  17.674  30.095   3.231
92323W        W53689  42.879  14.140  11.989
92324W        W53690  39.811  15.679  13.011
92325W        W53691   6.750  34.561  13.464
92326W        W53692  28.474   6.845   0.285
92327W        W53693  32.415  35.523   2.692
92328W        W53694  21.521  19.258   2.300
92329W        W53695   1.406  11.718  13.494
92330W        W53696  39.840  25.149  10.449
92331W        W53697   7.393  33.062   0.442
92332W        W53698   3.833  12.661  14.460
92333W        W53699  42.807   9.864  10.904
92334W        W53700  26.130   7.278   3.265
92335W        W53701  20.086  18.246   2.317
92336W        W53702  28.027  22.678   0.380
92337W        W53703  22.732  22.250  11.064
92338W        W53704  27.670  23.012  12.514
92339W        W53705  18.778   6.743  11.576
92340W        W53706  17.102  17.629   1.805
92341W        W53707  21.739  34.998   1.893
92342W        W53708  33.888  14.762  14.386
92343W        W53709  21.597   4.267   3.347
92344W        W53710   4.258   6.275   4.127
92345W        W53711  24.629  42.924   4.215
92346W        W53712  42.358  39.820   2.260
92347W        W53713  10.384   7.845   2.755
92348W        W53714  23.036   4.912   0.809
92349W        W53715  35.391  12.663  12.362
92350W        W53716  14.332   9.301   1.419
92351W        W53717  11.701  14.640   4.750
92352W        W53718  33.984   7.357   0.259
92353W        W53719  40.826   6.696  12.979
92354W        W53720  24.581  14.270   3.836
92355W        W53721  30.976  19.634   3.761
92356W        W53722  24.597   1.757  11.003
92357W        W53723  36.042   2.916   0.855
92358W        W53724  41.400  12.241  12.008
92359W        W53725  11.152  40.899   2.793
92360W        W53726   7.329  27.542  14.866
92361W        W53727  33.621  15.708   3.856
92362W        W53728  33.938   6.392  13.994
92363W        W53729  41.359  26.588  13.310
92364W        W53730  29.520  14.706   1.344
92365W        W53731   5.933   1.295  11.097
92366W        W53732  43.420  28.583  11.515
92367W        W53733  42.495   8.289  11.377
92368W        W53734  38.016  37.083   3.309
92369W        W53735  33.022   8.356   1.289
92370W        W53736  40.848  42.932  11.875
92371W        W53737  43.334  33.889  14.026
92372W        W53738  12.200  25.697  14.995
92373W        W53739  11.133  13.757  14.496
92374W        W53740  21.130  25.568  14.790
92375W        W53741  42.522  41.950  10.435
92376W        W53742  42.781  14.669   1.296
92377W        W53743   9.713  38.015   2.774
92378W        W53744   5.779  11.685   3.168
92379W        W53745   7.788  33.893   1.237
92380W        W53746  26.700   1.379  12.507
92381W        W53747   6.906   9.349  13.532
92382W        W53748  25.992  27.626   1.350
92383W        W53749   7.201  14.813  13.841
92384W        W53750   3.818   1.905   3.219
92385W        W53751  21.516  13.330  10.500
92386W        W53752  11.817  24.204   0.799
92387W        W53753  28.515  15.208   4.621
92388W        W53754  20.586   8.374   2.198
92389W        W53755  43.971  25.580  13.535
92390W        W53756  37.005  41.402  13.514
92391W        W53757  29.053  12.655   3.248
92392W        W53758  37.355  23.054  14.506
92393W        W53759  30.535  27.522   4.635
92394W        W53760   5.374  40.477   4.762
92395W        W53761   5.427  13.797   3.700
92396W        W53762   5.894  44.767   1.259
92397W        W53763  28.480  12.243   4.153
92398W        W53764   7.718  23.498  11.560
92399W        W53765  33.464  13.350  11.920
92400W        W53766  11.668  29.440  12.554
92401W        W53767  34.011  32.466  12.963
92402W        W53768  41.520   7.864   4.333
92403W        W53769   0.315  39.457   2.895
92404W        W53770  12.703  12.243  12.043
92405W        W53771  13.279  10.148  10.600
92406W        W53772  44.886  10.845   4.249
92407W        W53773  44.461  39.444  11.979
92408W        W53774  43.399  40.538   4.663
92409W        W53775  14.824  21.224  12.514
92410W        W53776  11.364   9.667  10.633
92411W        W53777  16.162   3.904   2.798
92412W        W53778   5.775   2.465  12.426
92413W        W53779  30.970  15.172   2.813
92414W        W53780  37.401  38.031  12.391
92415W        W53781   1.772  30.108   5.762
92416W        W53782  44.983  36.890  10.545
92417W        W53783   5.405  38.360   3.692
92418W        W53784  31.922  31.547  13.045
92419W        W53785   7.409   0.795  13.371
92420W        W53786  34.434  42.941   4.286
92421W        W53787  12.169  26.679  14.484
92422W        W53788  29.103   9.759   2.709
92423W        W53789  22.042  40.418  14.776
92424W        W53790  27.127  22.192   1.284
92425W        W53791  29.085  17.109   4.228
92426W        W53792  38.456  17.280  14.459
92427W        W53793  10.738  32.502  11.908
92428W        W53794  13.816  14.600   0.734
92429W        W53795  21.189  28.058  12.898
92430W        W53796   0.327  25.988  11.862
92431W        W53797  41.316  37.910   1.924
92432W        W53798  17.234  24.599   4.768
92433W        W53799  23.155  22.560   3.730
92434W        W53800   4.444  10.642   0.751
92435W        W53801  18.621  27.627  10.968
92436W        W53802  25.563  13.113   1.333
92437W        W53803  20.225  39.412  14.976
92438W        W53804  26.676  16.220  14.373
92439W        W53805  39.508  39.474   4.288
92440W        W53806  31.090   0.271  13.975
92441W        W53807  19.069   6.263  12.907
92442W        W53808  10.778  21.115  11.047
92443W        W53809  28.676  20.169   3.641
92444W        W53810  19.539  19.730   1.742
92445W        W53811  43.273  22.692   4.155
92446W        W53812   7.728   7.210   1.762
92447W        W53813  29.031  38.474   4.780
92448W        W53814  44.972   4.873   1.211
92449W        W53815   6.916  11.817   4.619
92450W        W53816  29.132  10.220  10.469
92451W        W53817  36.905   6.410   0.278
92452W        W53818   9.725  26.592   0.271
92453W        W53819  30.071   8.859   4.772
92454W        W53820  24.211  11.662   3.719
92455W        W53821  24.687  41.867   0.364
92456W        W53822  33.072  16.649  12.917
92457W        W53823  29.147  43.477  11.979
92458W        W53824  36.998   2.739  13.934
92459W        W53825  17.730  40.406   1.779
92460W        W53826  26.592  41.377   3.736
92461W        W53827  21.554  32.497   3.665
92462W        W53828  44.464   7.888   4.332
92463W        W53829  10.330  14.124   0.287
92464W        W53830   5.826  30.052  12.086
92465W        W53831   8.774  20.131   1.283
92466W        W53832  20.709  13.650  10.995
92467W        W53833  42.424  29.520  13.435
92468W        W53834   4.389  23.152  10.451
92469W        W53835   9.826  31.960  10.551
92470W        W53836  11.859  32.069  12.577
92471W        W53837   2.230  19.761  13.446
92472W        W53838  28.060  23.104   2.669
92473W        W53839  35.438   1.359  10.487
92474W        W53840  20.545  37.886   1.708
92475W        W53841  13.720  38.341  13.929
92476W        W53842   3.301  31.987   0.418
92477W        W53843  18.729   1.768   0.279
92478W        W53844   2.948  42.330  11.997
92479W        W53845  18.762  31.468  11.870
92480W        W53846  16.080  12.154  12.850
92481W        W53847  41.425  15.166  12.899
92482W        W53848  26.643   6.890   0.764
92483W        W53849  29.440  11.163   3.656
92484W        W53850  41.835  13.823   2.235
92485W        W53851  42.004  30.634  12.004
92486W        W53852   0.801  33.014  12.506
92487W        W53853   7.389  12.851  12.515
92488W        W53854  20.729  31.967   4.220
92489W        W53855  40.307   4.370   1.874
92490W        W53856  28.586  10.750  11.585
92491W        W53857  24.653   6.767   3.151
92492W        W53858  23.517  37.381   4.732
92493W        W53859  44.460  16.249   0.851
92494W        W53860  27.679  12.318   1.743
92495W        W53861   4.296  10.836   2.881
92496W        W53862  10.788  16.158   4.211
92497W        W53863  20.714  18.662   3.265
92498W        W53864  13.803  27.669  13.908
92499W        W53865  38.517   7.272   3.249
92500W        W53866  16.295  32.486  10.535
92501W        W53867  18.761   9.655   2.808
92502W        W53868  38.924  19.703   2.857
92503W        W53869  35.098  18.748   1.450
92504W        W53870  27.099  31.444  12.871
92505W        W53871  37.898  19.608   0.416
92506W        W53872  36.042  38.840  14.288
92507W        W53873  15.594  35.459  12.070
92508W        W53874  38.445  43.817   4.659
92509W        W53875  21.024  23.665   2.886
92510W        W53876  42.821  23.042  10.444
92511W        W53877  23.183  26.667   4.816
92512W        W53878  26.618  22.180  14.290
92513W        W53879  20.701   5.230  10.082
92514W        W53880  37.345  15.738   2.292
92515W        W53881  31.632  10.358   2.317
92516W        W53882  34.046   3.773   4.158
92517W        W53883   5.828  29.548   4.833
92518W        W53884  28.948   9.382   2.398
92519W        W53885   2.228  32.117  12.488
92520W        W53886  41.536   0.985   3.204
92521W        W53887  23.057  15.601  12.571
92522W        W53888  34.439  40.849   3.847
92523W        W53889  19.065  27.618  12.405
92524W        W53890  36.477  16.072   4.634
92525W        W53891  19.097  17.576  14.999
92526W        W53892  13.291  19.223   0.285
92527W        W53893  18.185  41.389   0.828
92528W        W53894   1.978  20.248  13.805
92529W        W53895   2.922  14.640   0.436
92530W        W53896  41.393  15.760  14.779
92531W        W53897  21.670  13.109  12.089
92532W        W53898  17.200  16.077  13.905
92533W        W53899  14.202   8.889  11.975
92534W        W53900  35.080  42.861  11.576
92535W        W53901   1.751  38.840  10.612
92536W        W53902  37.403  31.479  10.015
92537W        W53903  32.923  14.098  13.981
92538W        W53904  21.088  11.643   3.278
92539W        W53905  21.204  18.640   3.724
92540W        W53906  11.847  36.083   5.273
92541W        W53907  24.103  21.263  14.844
92542W        W53908   0.438  44.443  12.438
92543W        W53909  44.264   1.753   4.616
92544W        W53910  24.035   3.283  11.377
92545W        W53911   8.709   2.351  12.857
92546W        W53912  11.773   3.756  14.334
92547W        W53913  36.094  34.056   1.212
92548W        W53914  41.325  37.425  13.376
92549W        W53915  37.432   8.186   3.736
92550W        W53916  44.298  28.126  10.468
92551W        W53917  13.683  39.059  12.003
92552W        W53918   4.803   6.909   1.811
92553W        W53919  12.835  17.658   3.646
92554W        W53920  10.874  38.357  13.959
92555W        W53921  28.034   5.326  10.077
92556W        W53922  37.915  30.484  14.462
92557W        W53923   4.359   0.471   0.851
92558W        W53924  20.730  44.489   1.216
92559W        W53925   6.841  11.800  12.359
92560W        W53926  29.498  27.121  10.424
92561W        W53927  25.195  41.899   0.319
92562W        W53928  43.903   2.372   0.879
92563W        W53929  22.505  20.559   0.791
92564W        W53930  33.398  24.493  12.391
92565W        W53931  33.540   6.826   9.994
92566W        W53932  35.472   3.459   1.705
92567W        W53933  11.837  11.164   0.734
92568W        W53934  14.125   8.742   1.714
92569W        W53935  16.300  23.169  12.389
92570W        W53936  44.853   5.846  14.969
92571W        W53937   6.837  13.212  12.433
92572W        W53938   7.375  30.544  14.889
92573W        W53939  33.026  32.571   4.733
92574W        W53940  21.696  32.532   5.764
92575W        W53941  23.534  39.348  14.283
92576W        W53942   8.297  22.051   2.294
92577W        W53943  10.778  29.482   1.239
92578W        W53944  12.772  33.529   1.359
92579W        W53945  15.132  22.243  13.398
92580W        W53946  25.477  11.324  14.368
92581W        W53947  18.178  12.307  10.573
92582W        W53948  23.650  26.182  10.437
92583W        W53949  35.967  16.164   1.274
92584W        W53950  24.982  14.739  10.501
92585W        W53951  36.931  28.042  10.482
92586W        W53952  23.526  43.374  10.997
92587W        W53953  40.456   1.387  12.843
92588W        W53954  15.732   2.333  10.569
92589W        W53955  33.446  26.701   4.750
92590W        W53956  22.115  44.918   0.361
92591W        W53957  30.554  32.490   3.743
92592W        W53958  20.669  37.904   3.225
92593W        W53959  31.999  34.978   2.273
92594W        W53960  25.051  20.098  11.946
92595W        W53961   5.722   8.793   2.903
92596W        W53962  23.236  16.774   4.692
92597W        W53963  11.846   3.739  14.030
92598W        W53964  19.156  34.033   4.813
92599W        W53965  37.379  30.559  12.892
92600W        W53966   5.275  28.551   2.266
92601W        W53967   7.776  38.956   4.187
92602W        W53968  24.648  11.767   0.840
92603W        W53969  34.441  32.033   1.901
92604W        W53970  43.810  13.778  14.029
92605W        W53971  39.509   7.178   4.143
92606W        W53972  34.527  25.113  11.483
92607W        W53973   9.802  38.461   2.709
92608W        W53974  15.771  31.575  14.280
92609W        W53975   3.340  32.070  13.407
92610W        W53976  31.993  22.507   4.717
92611W        W53977   4.389   1.861  13.475
92612W        W53978  21.704   7.867   2.262
92613W        W53979   1.372   6.399   0.937
92614W        W53980  38.455  44.967  13.384
92615W        W53981  13.768  11.755  14.764
92616W        W53982  29.146   8.386  14.908
92617W        W53983  30.911  19.213  13.951
92618W        W53984  43.304  11.807  11.393
92619W        W53985  44.793   5.222   4.337
92620W        W53986  29.597  11.128  12.928
92621W        W53987   8.830   7.682  14.873
92622W        W53988  31.478   1.886   0.910
92623W        W53989   7.315  14.119  11.590
92624W        W53990  10.802  34.601   0.388
92625W        W53991   3.952  23.658   1.738
92626W        W53992  12.656  32.484  11.545
92627W        W53993  29.606  11.283   4.612
92628W        W53994   1.454  18.254  12.898
92629W        W53995  18.117   7.846   4.319
92630W        W53996  41.333  39.963   2.847
92631W        W53997  26.074  40.910  12.401
92632W        W53998  29.927  13.175   0.472
92633W        W53999  34.598  35.444  13.930
92634W        W54000  40.988  15.214  12.855
92635W        W54001   6.365   8.793  12.909
92636W        W54002  18.757  31.031  13.031
92637W        W54003  24.620  40.953  13.466
92638W        W54004  28.568  19.231  13.439
92639W        W54005   0.908  26.587   1.409
92640W        W54006  24.016  13.303  13.898
92641W        W54007  32.607  23.160  11.867
92642W        W54008   4.910  21.208  11.054
92643W        W54009  43.947  18.057   4.698
92644W        W54010  16.794   7.782   4.696
92645W        W54011   8.714  10.650   2.809
92646W        W54012  17.137   8.404   3.757
92647W        W54013   7.703  39.366  12.351
92648W        W54014  39.417  29.430  11.378
92649W        W54015   8.665  44.784   2.366
92650W        W54016   7.896   4.381  12.509
92651W        W54017  18.218  15.744  12.545
92652W        W54018   7.197  19.683  12.452
92653W        W54019  42.955   4.278   3.642
92654W        W54020  28.616  41.515  14.850
92655W        W54021  43.315   2.947  12.979
92656W        W54022  15.118  18.577   1.322
92657W        W54023  21.192  15.198  11.048
92658W        W54024  11.181  30.586  10.565
92659W        W54025  23.649  41.952  14.850
92660W        W54026   9.200  28.958   0.938
92661W        W54027  20.706  23.092   2.304
92662W        W54028  28.638  20.652   1.316
92663W        W54029  25.528  13.671   3.319
92664W        W54030  25.071  44.355   1.906
92665W        W54031  28.675  19.748  13.391
92666W        W54032  38.355   8.395  12.489
92667W        W54033  21.093   9.811   3.325
92668W        W54034  32.108  25.467  13.418
92669W        W54035  44.869  13.291  14.957
92670W        W54036  11.772  36.904  11.069
92671W        W54037  43.844  24.697  10.603
92672W        W54038  36.451  36.961   0.312
92673W        W54039  39.516   0.887   3.670
92674W        W54040  23.215  29.449   5.270
92675W        W54041  25.470  35.932   1.920
92676W        W54042   4.427  33.900  13.362
92677W        W54043  40.344  44.436   1.422
92678W        W54044  26.177  11.216   3.754
92679W        W54045  28.937  34.121  13.801
92680W        W54046   0.954  27.180   0.435
92681W        W54047   3.237  14.185   0.790
92682W        W54048  27.015   2.757  12.459
92683W        W54049  40.419  12.853   1.343
92684W        W54050  25.985  44.787   1.768
92685W        W54051  34.990  13.229  13.314
92686W        W54052  20.725  41.806   1.732
92687W        W54053  19.260  44.293  12.481
92688W        W54054  13.105  41.922   4.685
92689W        W54055   3.944  42.862  11.507
92690W        W54056  42.433   8.893  12.000
92691W        W54057  19.769  43.318   4.304
92692W        W54058  14.609  16.800   1.732
92693W        W54059  40.499  41.991  14.478
92694W        W54060  19.670   2.894  13.351
92695W        W54061  30.593  40.041   0.371
92696W        W54062  30.975  33.008   2.669
92697W        W54063  18.584  30.975   3.667
92698W        W54064   8.213   0.413  13.424
92699W        W54065  23.566  39.514  14.837
92700W        W54066  25.611  22.169  11.549
92701W        W54067  27.942  30.038   1.758
92702W        W54068   8.782  35.363   4.661
92703W        W54069  31.036  37.409   2.698
92704W        W54070  37.539  43.273  13.935
92705W        W54071  10.807   5.854  14.485
92706W        W54072  36.369  31.510  13.507
92707W        W54073  31.141  44.854   3.360
92708W        W54074   7.312   3.274   9.664
92709W        W54075   4.880  23.213   1.816
92710W        W54076  34.546  33.091   4.793
92711W        W54077  16.131  32.005   3.209
92712W        W54078   6.767  21.712  13.960
92713W        W54079  15.170  38.039   1.842
92714W        W54080  18.192  39.849   3.787
92715W        W54081   0.429   0.988  11.905
92716W        W54082  22.652  43.477   2.739
92717W        W54083  10.735  37.553  11.966
92718W        W54084  36.874  44.800  13.963
92719W        W54085  29.652  18.153   4.260
92720W        W54086  32.073   5.722   3.823
92721W        W54087  14.823  12.357  11.508
92722W        W54088  33.394  36.371  14.960
92723W        W54089  29.050  42.367  13.978
92724W        W54090  35.467  39.453   2.365
92725W        W54091  39.834   4.928  14.849
92726W        W54092   4.850  39.004  14.004
92727W        W54093  44.295   5.769   2.244
92728W        W54094  21.259  32.913  14.300
92729W        W54095  15.182   2.771  14.370
92730W        W54096   5.694  42.787   4.620
92731W        W54097  35.072  32.501   0.479
92732W        W54098  16.148  42.956  12.922
92733W        W54099   0.880  21.070   5.318
92734W        W54100  22.508   3.719   2.245
92735W        W54101  13.148  40.449   1.310
92736W        W54102  44.831  39.531   4.240
92737W        W54103  16.750   8.792  13.963
92738W        W54104  26.144   2.271   0.436
92739W        W54105  40.889   8.401   0.409
92740W        W54106  43.919  42.374  12.402
92741W        W54107  44.373  20.641  10.628
92742W        W54108  31.116  41.358   4.703
92743W        W54109  41.986  25.591  12.025
92744W        W54110   7.882  23.181   1.277
92745W        W54111  26.023  34.466  12.073
92746W        W54112   5.226  25.125  10.518
92747W        W54113   1.441  17.078  13.426
92748W        W54114  32.418  12.782  11.403
92749W        W54115   1.249  30.579  14.875
92750W        W54116  42.012   4.808   5.186
92751W        W54117  11.267  33.888   2.218
92752W        W54118  10.362  18.757   3.208
92753W        W54119   8.860  18.765   5.098
92754W        W54120   6.207  23.132   4.268
92755W        W54121  27.671  41.962   1.255
92756W        W54122  43.824  22.621  12.394
92757W        W54123  23.645  42.347  12.579
92758W        W54124  21.196  12.646   0.291
92759W        W54125  19.761  19.245   3.254
92760W        W54126   1.315  19.734   4.142
92761W        W54127  29.465   9.176  12.899
92762W        W54128  33.005  25.202   2.357
92763W        W54129  24.641  37.851  11.110
92764W        W54130  16.197   7.835   4.227
92765W        W54131  20.111  18.192   4.775
92766W        W54132   0.869  32.084   0.430
92767W        W54133  41.455  38.854  12.028
92768W        W54134  38.852  10.749   3.216
92769W        W54135   2.966  34.597  14.030
92770W        W54136  16.619  25.064  12.916
92771W        W54137   0.415   2.341  14.859
92772W        W54138   6.316   6.357  14.982
92773W        W54139  34.062  11.252   4.136
92774W        W54140   5.885  21.663  13.793
92775W        W54141  43.372  43.823   2.406
92776W        W54142  41.818   7.669  13.372
92777W        W54143   3.395  26.502  12.992
92778W        W54144   7.766   2.737   2.890
92779W        W54145  13.659  36.581   2.768
92780W        W54146  29.023   4.736  13.815
92781W        W54147  21.089  20.040  12.014
92782W        W54148  34.374  43.378   0.944
92783W        W54149  25.150  41.479   3.820
92784W        W54150  42.948   9.830   0.750
92785W        W54151  29.075   0.860  10.509
92786W        W54152  24.077   1.946   3.275
92787W        W54153  22.503  25.006   1.861
92788W        W54154  33.535  10.771  11.045
92789W        W54155  13.643  17.202   9.964
92790W        W54156  14.808   7.675   1.917
92791W        W54157  40.025  21.549  11.036
92792W        W54158   3.325  25.473   4.130
92793W        W54159   3.241  12.166  14.961
92794W        W54160  27.448  31.149   0.303
92795W        W54161   3.866   5.759   3.666
92796W        W54162  43.887   5.842  11.889
92797W        W54163  22.056  16.108   2.204
92798W        W54164  39.911  43.395   2.723
92799W        W54165  39.345  34.104   4.824
92800W        W54166  30.555  22.657  13.918
92801W        W54167  34.935  26.118   1.812
92802W        W54168  17.078   7.213  11.080
92803W        W54169  27.610  40.948   0.824
92804W        W54170  25.161  13.607   4.189
92805W        W54171  40.483   0.412  12.004
92806W        W54172  41.333  34.039  14.996
92807W        W54173  25.711  15.125  13.393
92808W        W54174  37.036   7.836  10.934
92809W        W54175  14.791  32.986   3.865
92810W        W54176  37.397  30.009  13.340
92811W        W54177  40.468  38.074   4.647
92812W        W54178  35.913  32.995   4.723
92813W        W54179   0.300   8.221  13.524
92814W        W54180  18.780  44.357   1.229
92815W        W54181   9.384  11.287   3.737
92816W        W54182  42.499  37.569   3.176
92817W        W54183  35.445  22.197  13.950
92818W        W54184  41.883  22.233   1.358
92819W        W54185   0.481   2.409  12.565
92820W        W54186  37.348   6.320  13.473
92821W        W54187  43.446  16.315  13.878
92822W        W54188  36.018  28.524  11.555
92823W        W54189  18.631  42.880   1.806
92824W        W54190  10.751  40.949  12.480
92825W        W54191  26.702  24.672   3.719
92826W        W54192  13.337   9.294  10.892
92827W        W54193   8.728  12.228  11.046
92828W        W54194  20.592  44.867   4.717
92829W        W54195  40.416  43.298  10.921
92830W        W54196  43.273  25.108   2.266
92831W        W54197  44.789   8.804  11.509
92832W        W54198   5.395  38.353  13.370
92833W        W54199  37.581  11.796  10.544
92834W        W54200  37.476  16.710   4.153
92835W        W54201  18.213   1.268  12.382
92836W        W54202  11.201   9.199  12.909
92837W        W54203  27.170   9.844  12.395
92838W        W54204   8.306  12.282   3.350
92839W        W54205   6.846  37.001   3.847
92840W        W54206  38.437   6.870  14.812
92841W        W54207  14.103  19.167  14.855
92842W        W54208   6.801  18.683   1.876
92843W        W54209  28.042  30.147   3.680
92844W        W54210   8.663   3.225  12.913
92845W        W54211  19.156  12.226  12.362
92846W        W54212   5.322  37.016   4.276
92847W        W54213  35.051  36.580  12.533
92848W        W54214  13.768   4.754   2.892
92849W        W54215  10.280  21.711  14.322
92850W        W54216  37.463   4.304   2.854
92851W        W54217  16.745  27.113  14.761
92852W        W54218   4.877  36.999   3.667
92853W        W54219  36.396  29.594   4.613
92854W        W54220  25.168  25.634  13.031
92855W        W54221  43.804  39.977  12.826
92856W        W54222  40.382  15.114  10.515
92857W        W54223  35.562   0.404   4.785
92858W        W54224  10.249  24.597  12.925
92859W        W54225  15.638  44.799   1.341
92860W        W54226   0.450   1.816  11.078
92861W        W54227  35.028  27.653  13.996
92862W        W54228  16.802  36.084  13.403
92863W        W54229  37.850  36.964   2.225
92864W        W54230  16.594  11.729  13.061
92865W        W54231  37.995  15.108  12.954
92866W        W54232  28.966   7.740  10.460
92867W        W54233  38.926  43.387   1.246
92868W        W54234  10.163  30.951  13.019
92869W        W54235  40.040  28.467  10.987
92870W        W54236  35.411   5.746   4.680
92871W        W54237  29.974  28.932   5.208
92872W        W54238   0.417  43.820   1.729
92873W        W54239  33.932  43.496   2.405
92874W        W54240  21.246  36.023  13.346
92875W        W54241  17.248  27.637   3.797
92876W        W54242  28.515   2.251   0.867
92877W        W54243  18.275  14.270  12.948
92878W        W54244  34.603  36.589   4.196
92879W        W54245   8.830  35.030   3.682
92880W        W54246  38.008  13.810   4.835
92881W        W54247  23.604  41.472  12.078
92882W        W54248  30.953  30.143   3.713
92883W        W54249  29.927  13.142  10.917
92884W        W54250  12.198   9.290   4.135
92885W        W54251  38.972  10.181   5.097
92886W        W54252  26.517  32.442  12.982
92887W        W54253  44.916  34.610  14.796
92888W        W54254   6.677  20.522  11.065
92889W        W54255  30.082  14.721   2.283
92890W        W54256   9.193  13.833   2.342
92891W        W54257  35.094  17.759   0.961
92892W        W54258  10.684  13.105  12.915
92893W        W54259   8.776  13.717  14.347
92894W        W54260  26.699  18.198  12.454
92895W        W54261  13.760  11.299   2.415
92896W        W54262  40.518   6.254   1.363
92897W        W54263  31.989   7.681  14.378
92898W        W54264  23.716  16.176  13.059
92899W        W54265   1.344  41.905   0.470
92900W        W54266  35.362  16.117   0.326
92901W        W54267   1.267  21.676  12.936
92902W        W54268  39.906  29.486   3.772
92903W        W54269   9.865  42.949  12.555
92904W        W54270  25.468  19.060   3.177
92905W        W54271  36.089  14.677  11.052
92906W        W54272  30.964  17.063   3.170
92907W        W54273  41.346  12.201   2.403
92908W        W54274  24.162  23.053   1.365
92909W        W54275  11.335  10.328   2.775
92910W        W54276  41.842  34.913  10.444
92911W        W54277  20.612  34.049   3.322
92912W        W54278  33.981  37.852   0.767
92913W        W54279  40.419  18.086   9.946
92914W        W54280  35.985  22.672   0.462
92915W        W54281  44.760  17.802  11.050
92916W        W54282  34.874   5.850  11.954
92917W        W54283  42.792   5.218  10.586
92918W        W54284   7.313  29.001  13.377
92919W        W54285  44.331  41.461  10.436
92920W        W54286  27.690  30.916  14.838
92921W        W54287  15.706   8.329  14.789
92922W        W54288  31.134  25.540   0.924
92923W        W54289  32.480  31.074   2.686
92924W        W54290   1.899  17.733  10.919
92925W        W54291  35.593  33.882  12.937
92926W        W54292  41.432  17.757  10.898
92927W        W54293   0.898   0.766  11.119
92928W        W54294  30.061   6.238   3.148
92929W        W54295  26.456  34.478  13.825
92930W        W54296  27.060  35.880  11.037
92931W        W54297  42.874  26.023  12.495
92932W        W54298  15.248   2.415   0.852
92933W        W54299  29.058  35.599   1.747
92934W        W54300  18.657  18.584   1.295
92935W        W54301  27.470  17.726   2.841
92936W        W54302  42.794   9.661  14.822
92937W        W54303  39.834  37.918  13.487
92938W        W54304  29.040  18.681   4.731
92939W        W54305  43.324   8.841  14.768
92940W        W54306  29.027   8.819  14.327
92941W        W54307  39.018  14.702  11.511
92942W        W54308   5.729   8.719   3.653
92943W        W54309  31.993  14.098  10.605
92944W        W54310  15.126  18.255  11.571
92945W        W54311  20.032  44.790   2.865
92946W        W54312  31.118  36.944   1.772
92947W        W54313  41.820   9.213   2.392
92948W        W54314  23.635   3.762   3.276
92949W        W54315  17.174  25.550  13.517
92950W        W54316  11.820  24.055  14.923
92951W        W54317  36.422  18.607   0.270
92952W        W54318  41.812  34.865  14.366
92953W        W54319  20.529  27.941   3.255
92954W        W54320  36.383  32.950   1.380
92955W        W54321  13.148  21.176   3.631
92956W        W54322  40.348  38.563  12.398
92957W        W54323   9.310  36.470   2.349
92958W        W54324  31.419  18.269  12.863
92959W        W54325  24.529  44.864  11.464
92960W        W54326  40.924  38.478   0.275
92961W        W54327  29.496  21.640  12.568
92962W        W54328  40.308  35.384   0.405
92963W        W54329  40.902   9.313   0.766
92964W        W54330   3.420  24.599   3.796
92965W        W54331  24.606  43.485   3.801
92966W        W54332  41.410   0.908  14.373
92967W        W54333  29.072   6.895   0.929
92968W        W54334  22.623   5.766  12.516
92969W        W54335  19.624  29.489   3.347
92970W        W54336  14.269   5.907   0.381
92971W        W54337  41.842  24.089   2.305
92972W        W54338   4.216  23.074  14.513
92973W        W54339  10.362  12.710   1.764
92974W        W54340  38.821   2.414  14.381
92975W        W54341  17.257  10.169  10.435
92976W        W54342  25.962   9.316   2.868
92977W        W54343  28.089  21.580   3.208
92978W        W54344  41.826   4.868   2.781
92979W        W54345  21.107  36.471   4.606
92980W        W54346   5.310  26.165   2.668
92981W        W54347  28.005  21.609   2.315
92982W        W54348  32.898  31.037  13.372
92983W        W54349  11.817  23.508   3.157
92984W        W54350  11.853  44.901  13.493
92985W        W54351   0.326  17.294   4.137
92986W        W54352  24.555  17.221  14.375
92987W        W54353  25.614  23.717   1.894
92988W        W54354   1.387  39.410  14.326
92989W        W54355  35.860  33.403  11.962
92990W        W54356  41.452  32.952   1.694
92991W        W54357  23.041  39.865  10.495
92992W        W54358  43.931  19.155  12.426
92993W        W54359  41.791  13.191  14.329
92994W        W54360  17.683   3.895  11.899
92995W        W54361  35.475  26.186  13.422
92996W        W54362  30.445  24.610  12.046
92997W        W54363  42.328  10.157   1.736
92998W        W54364  35.575   0.477   0.829
92999W        W54365  13.294  31.414  13.022
93000W        W54366   2.761   1.404   2.703
93001W        W54367  18.578  19.166   2.342
93002W        W54368   7.404  26.651  11.887
93003W        W54369   1.904   0.469   0.441
93004W        W54370   5.393   1.326   4.168
93005W        W54371  29.549  36.089  11.456
93006W        W54372  29.468  18.611  11.120
93007W        W54373   4.708  19.714   0.477
93008W        W54374  35.496  20.738  10.971
93009W        W54375  44.418   4.337  13.448
93010W        W54376  26.996  21.062  14.947
93011W        W54377  13.784  33.493  13.395
93012W        W54378  31.410  34.548   1.699
93013W        W54379   4.844  17.178   3.843
93014W        W54380   1.798  37.854  10.901
93015W        W54381  42.383   0.326   1.264
93016W        W54382  17.617  24.567   1.743
93017W        W54383  32.554  44.331   0.964
93018W        W54384  36.027  11.694  13.348
93019W        W54385  31.906  26.035  12.953
93020W        W54386  44.371  26.170   2.215
93021W        W54387  17.076  40.928   1.742
93022W        W54388  28.058   0.362   9.966
93023W        W54389  24.713  14.298  11.923
93024W        W54390  26.702  19.690  14.444
93025W        W54391  41.377   2.935  14.488
93026W        W54392   2.862  39.914   1.814
93027W        W54393  37.845  38.011   3.262
93028W        W54394  14.214  13.672  13.981
93029W        W54395  15.294  14.284  13.046
93030W        W54396  10.839  10.681  14.762
93031W        W54397  36.518  40.435  13.059
93032W        W54398  32.495  10.748   0.800
93033W        W54399  17.771  15.260   9.566
93034W        W54400  18.150   7.288  14.287
93035W        W54401  15.768   8.703   3.168
93036W        W54402   5.901  24.708  11.073
93037W        W54403  21.645   4.741   1.907
93038W        W54404  22.181  29.038  14.397
93039W        W54405  44.755  29.021  13.379
93040W        W54406  20.229  15.739   5.083
93041W        W54407  26.201  11.210   4.352
93042W        W54408  41.428  25.079  13.981
93043W        W54409  23.047  30.530   2.731
93044W        W54410  26.554  22.694  12.359
93045W        W54411  44.853  12.822  11.477
93046W        W54412  12.723  13.657  10.135
93047W        W54413  35.546  12.785   4.759
93048W        W54414  29.562  26.598  12.540
93049W        W54415  31.418  22.710  14.274
93050W        W54416  26.531   6.814   3.674
93051W        W54417   0.261   6.333  14.453
93052W        W54418  42.976  29.087  14.502
93053W        W54419  38.039   0.756  11.388
93054W        W54420   4.833  30.076   0.304
93055W        W54421  23.132  28.992   2.399
93056W        W54422  11.786   2.848  11.443
93057W        W54423  14.102  17.110   3.752
93058W        W54424  29.558  36.476   2.190
93059W        W54425  38.959  25.474  10.998
93060W        W54426  27.075   1.421   0.321
93061W        W54427  43.844  16.302  12.083
93062W        W54428   6.865   6.845   9.667
93063W        W54429  13.154  41.940  14.282
93064W        W54430  29.102   6.757  14.359
93065W        W54431  17.104  11.251   1.268
93066W        W54432   1.306  27.163  10.071
93067W        W54433  43.461   3.279   4.742
93068W        W54434   2.235   7.317  13.392
93069W        W54435  28.933  25.975  11.435
93070W        W54436  35.559  37.423   2.386
93071W        W54437  21.107  43.845   0.806
93072W        W54438  37.024  12.721  12.504
93073W        W54439  43.504  43.281   2.214
93074W        W54440  25.554  12.801  13.491
93075W        W54441   3.245  11.846   5.151
93076W        W54442  13.245  23.617  14.960
93077W        W54443  14.713   7.888  13.824
93078W        W54444  29.000  24.141   3.805
93079W        W54445   9.719  27.663  11.396
93080W        W54446  15.641  32.579   3.779
93081W        W54447   8.812  39.885  12.057
93082W        W54448  10.814  11.665  10.988
93083W        W54449  17.133  11.718  12.826
93084W        W54450  21.690  31.924  14.011
93085W        W54451  14.209   6.246   1.716
93086W        W54452  11.254  42.325   4.343
93087W        W54453  38.068  43.985   3.295
93088W        W54454  21.183  40.326  13.332
93089W        W54455  18.766  29.978   1.236
93090W        W54456  27.110   0.821  12.088
93091W        W54457   0.924  12.315  12.494
93092W        W54458   7.693   3.278  11.565
93093W        W54459   0.312  44.814   1.324
93094W        W54460  25.494  40.906  11.129
93095W        W54461   2.289  32.064  11.870
93096W        W54462  44.837  25.542   2.694
93097W        W54463  41.461  36.490   3.276
93098W        W54464  12.137   6.284  13.932
93099W        W54465  44.384  37.532  11.985
93100W        W54466  25.195  38.406  14.396
93101W        W54467   7.821   8.321   1.274
93102W        W54468  24.662  40.984   4.742
93103W        W54469  17.651   0.944   0.473
93104W        W54470  31.532   1.883  11.448
93105W        W54471  32.401  26.464   0.405
93106W        W54472  29.951  27.527  14.025
93107W        W54473   4.439  43.506  11.451
93108W        W54474  15.667  24.559  14.331
93109W        W54475  21.206   8.665  12.929
93110W        W54476  27.585  26.187   3.814
93111W        W54477  40.933  10.777   4.131
93112W        W54478  22.590  43.458  11.527
93113W        W54479   2.288  37.936   3.707
93114W        W54480  36.918  32.114  13.972
93115W        W54481  36.982  11.151   0.796
93116W        W54482  36.504   1.915   0.786
93117W        W54483  28.155  42.858  11.394
93118W        W54484  23.993  24.226  14.380
93119W        W54485  25.021  38.039  12.549
93120W        W54486  18.782  20.526  14.422
93121W        W54487  35.083   3.827   0.324
93122W        W54488   0.895   7.366  14.419
93123W        W54489  18.756   4.738   1.893
93124W        W54490  23.721  44.354   0.411
93125W        W54491  14.695  37.031   1.243
93126W        W54492  41.470  38.506   3.209
93127W        W54493  28.113   5.912  14.005
93128W        W54494   7.222  32.606   2.781
93129W        W54495   3.899  39.452  13.315
93130W        W54496  21.082  39.833  10.125
93131W        W54497  21.683  18.744   2.389
93132W        W54498  25.214  18.118   3.186
93133W        W54499  28.472  38.372   4.194
93134W        W54500   3.300  11.275  10.986
93135W        W54501   9.804  30.003   0.394
93136W        W54502   2.777  21.568   3.187
93137W        W54503   2.813   2.464  13.454
93138W        W54504  21.198  37.975  13.543
93139W        W54505  34.876  26.970   3.863
93140W        W54506  23.100  33.385  11.537
93141W        W54507  25.114  31.521   0.383
93142W        W54508  39.478  15.642  14.831
93143W        W54509  20.079  10.340   2.786
93144W        W54510   3.363  23.608   2.781
93145W        W54511   1.966  37.028   4.806
93146W        W54512  18.728  18.173   0.869
93147W        W54513  44.983  41.392  11.047
93148W        W54514  40.461   1.257  11.971
93149W        W54515  31.562  40.025  14.438
93150W        W54516  25.104  26.507   4.739
93151W        W54517  25.475   8.319  14.888
93152W        W54518  10.802   6.384   4.728
93153W        W54519  41.823  26.071  14.305
93154W        W54520  27.626  39.365   0.783
93155W        W54521  35.976  15.767  11.886
93156W        W54522  36.477  22.227  11.881
93157W        W54523  32.019  16.276  13.336
93158W        W54524   2.825  20.574  14.022
93159W        W54525   0.254  17.595   1.902
93160W        W54526  40.316  34.024   3.816
93161W        W54527  42.964  40.981   0.448
93162W        W54528  13.206  13.700  12.068
93163W        W54529  18.204  38.827  11.101
93164W        W54530  16.654  26.137  12.031
93165W        W54531  19.155  32.068  13.908
93166W        W54532  42.926   0.879  13.470
93167W        W54533  11.732  33.077  14.304
93168W        W54534  26.972  19.118   0.836
93169W        W54535  42.417  35.083   1.831
93170W        W54536   5.860  33.564   1.436
93171W        W54537  43.775  14.742  11.919
93172W        W54538  39.031  25.217  13.392
93173W        W54539  38.842  14.716  13.948
93174W        W54540   7.806  36.975  12.909
93175W        W54541   7.760  12.245  13.438
93176W        W54542  39.884  35.878   3.858
93177W        W54543  14.295  19.056   0.399
93178W        W54544  34.972  44.282   0.853
93179W        W54545   5.814  19.779  12.887
93180W        W54546   1.916  14.825   3.672
93181W        W54547  14.264  44.988  10.509
93182W        W54548  22.061  28.623   1.384
93183W        W54549   6.826  31.997   0.964
93184W        W54550  24.557   1.904  14.029
93185W        W54551  16.591  10.166   1.215
93186W        W54552  24.706  42.841  14.928
93187W        W54553  33.411  29.074  13.452
93188W        W54554   4.785  11.327  12.080
93189W        W54555  30.091   5.747  10.935
93190W        W54556   1.474  29.161  14.779
93191W        W54557   2.872   2.430   3.373
93192W        W54558   4.771  18.216  10.917
93193W        W54559  28.134  29.601  12.977
93194W        W54560  10.340  33.544  11.126
93195W        W54561  20.239  24.578   2.384
93196W        W54562  37.366  41.836   2.299
93197W        W54563   4.273  32.111  10.952
93198W        W54564  29.949  17.671  14.771
93199W        W54565  22.672  24.185   3.338
93200W        W54566   9.363  20.567   4.681
93201W        W54567   5.799  38.869  12.488
93202W        W54568   7.229  24.613   1.257
93203W        W54569  24.185   9.359  11.096
93204W        W54570  14.146   8.276   1.289
93205W        W54571   8.297  20.623   3.298
93206W        W54572  15.584  13.640  11.892
93207W        W54573   6.705  40.455   4.768
93208W        W54574  19.698  35.878   0.270
93209W        W54575  23.064  32.958  10.433
93210W        W54576  38.878  34.891  12.077
93211W        W54577  30.967  36.500  12.904
93212W        W54578  17.574  34.912  14.456
93213W        W54579  27.583  25.665   1.877
93214W        W54580  26.659  19.066   3.695
93215W        W54581  29.172   8.769   1.323
93216W        W54582  31.642   6.227   4.700
93217W        W54583  44.295  19.619   3.666
93218W        W54584  13.649  13.604  14.459
93219W        W54585  14.185   0.878   0.300
93220W        W54586  41.009  42.904  12.981
93221W        W54587   1.274  44.998   4.152
93222W        W54588  40.508   2.308  12.344
93223W        W54589  19.665  30.503  12.915
93224W        W54590  40.043   1.287   1.877
93225W        W54591  20.535  25.522   3.218
93226W        W54592   9.840  33.881  12.855
93227W        W54593  14.737  27.075  11.893
93228W        W54594  41.407  39.419   1.919
93229W        W54595  12.137  27.494  12.981
93230W        W54596  10.294   8.312   2.885
93231W        W54597  23.030   5.309   2.797
93232W        W54598  32.438  16.629  10.949
93233W        W54599  21.647  16.621  13.518
93234W        W54600  28.032   8.306  12.502
93235W        W54601   3.375   7.178  11.076
93236W        W54602  19.762  34.946   1.854
93237W        W54603  34.410   1.853   3.810
93238W        W54604  32.899  39.467   2.846
93239W        W54605  20.537  41.351  10.993
93240W        W54606  42.965  40.919  11.466
93241W        W54607  17.681  16.605  12.431
93242W        W54608   4.830   4.774   0.865
93243W        W54609  40.350   9.305  12.524
93244W        W54610  25.976  41.913   3.847
93245W        W54611  18.679  25.504   2.895
93246W        W54612  13.206   9.680  10.983
93247W        W54613  33.490   8.759  12.360
93248W        W54614  25.555  39.922  13.364
93249W        W54615  31.490   8.726   1.221
93250W        W54616   2.348  14.791  10.527
93251W        W54617  25.027  30.999   4.275
93252W        W54618  15.587  36.951  11.417
93253W        W54619  18.235  24.108   0.863
93254W        W54620  27.566  20.108  13.501
93255W        W54621  10.187  14.699   0.405
93256W        W54622  24.686  10.706  11.542
93257W        W54623  35.365  39.384   2.794
93258W        W54624  38.977  10.201  13.905
93259W        W54625  23.148   9.723   4.307
93260W        W54626  34.968  14.127   0.796
93261W        W54627  41.369  16.096  13.938
93262W        W54628  19.217  17.635   3.800
93263W        W54629  42.029  10.669   2.246
93264W        W54630  16.722   3.773  10.617
93265W        W54631  39.519  19.595   0.909
93266W        W54632  40.374  19.047   1.732
93267W        W54633  26.086   1.756  13.968
93268W        W54634  30.015  14.616  11.004
93269W        W54635  16.313  26.044   2.288
93270W        W54636  11.169  16.701  12.937
93271W        W54637  33.537   9.884   1.836
93272W        W54638  38.526  36.537   4.164
93273W        W54639  20.712  12.186  13.002
93274W        W54640   6.705  21.743  12.576
93275W        W54641  11.628  33.080  12.959
93276W        W54642   3.764  40.524   4.245
93277W        W54643  22.540  32.961   4.173
93278W        W54644  12.241  39.812   3.188
93279W        W54645  38.494  14.720   1.738
93280W        W54646   3.304  38.887  13.865
93281W        W54647  30.014  41.031   0.323
93282W        W54648  14.299  40.396   3.258
93283W        W54649  19.741  44.761  14.414
93284W        W54650  26.055   6.877   3.673
93285W        W54651   2.348  20.074  13.471
93286W        W54652  29.141   3.949  13.317
93287W        W54653  15.317  10.849  12.479
93288W        W54654  40.368  21.131   0.417
93289W        W54655  28.620  39.920   3.277
93290W        W54656  37.054  31.014   3.772
93291W        W54657   9.205  12.657   4.160
93292W        W54658  31.431  40.444  12.924
93293W        W54659  39.515  24.675   3.316
93294W        W54660  43.818   6.299   1.340
93295W        W54661  33.399  42.473  12.958
93296W        W54662  34.558  30.542  11.874
93297W        W54663  27.025  33.064  10.440
93298W        W54664  10.384   4.242   4.763
93299W        W54665   7.689   5.831   0.925
93300W        W54666  29.023   1.259   4.122
93301W        W54667  14.168   5.237   1.826
93302W        W54668   0.304  26.052   1.857
93303W        W54669  29.111  35.871   4.820
93304W        W54670  11.353  37.011  13.920
93305W        W54671  30.535  34.027  14.506
93306W        W54672  18.295  21.691   3.256
93307W        W54673  35.369  30.050  11.912
93308W        W54674  42.410   2.322   0.361
93309W        W54675  10.794  37.415  14.779
93310W        W54676  42.855  18.780   0.432
93311W        W54677   9.318  25.709  11.398
93312W        W54678  24.028  21.538  13.348
93313W        W54679  20.719   0.973   2.224
93314W        W54680  32.900  37.361   2.826
93315W        W54681   6.378  25.155   1.865
93316W        W54682   4.334  12.784  14.335
93317W        W54683  28.052  24.480   0.787
93318W        W54684   1.738  14.618  10.510
93319W        W54685  11.287  23.224   1.273
93320W        W54686   3.371  43.964   3.341
93321W        W54687  38.994  34.538   0.767
93322W        W54688  23.216  40.546  14.485
93323W        W54689  12.275   3.856   0.470
93324W        W54690  16.737  11.266  11.604
93325W        W54691  44.943  43.397  12.483
93326W        W54692  44.291  20.673   3.259
93327W        W54693  10.329  15.732   5.299
93328W        W54694  15.242  19.540  14.429
93329W        W54695  34.565   7.300   2.864
93330W        W54696  12.270   8.380   3.785
93331W        W54697  36.387  34.398  14.340
93332W        W54698  34.957  13.740  14.302
93333W        W54699  13.177  18.095  11.437
93334W        W54700  38.571  16.661  14.397
93335W        W54701  43.433   0.962  10.001
93336W        W54702  34.470  13.283   4.798
93337W        W54703  42.023  25.984   1.896
93338W        W54704  20.108  26.177   3.654
93339W        W54705  36.380  25.970  11.432
93340W        W54706  13.131  12.270   0.967
93341W        W54707  19.577  41.460  13.362
93342W        W54708  28.026  33.524   1.327
93343W        W54709  15.083  38.420   2.767
93344W        W54710  19.140  13.146  10.548
93345W        W54711   8.760  11.317   4.332
93346W        W54712   8.678   8.303  14.276
93347W        W54713  31.987   2.466  12.997
93348W        W54714   7.340  11.257  14.433
93349W        W54715  31.638  38.006  14.370
93350W        W54716  28.035  41.839   3.659
93351W        W54717  34.980  35.476  14.285
93352W        W54718  33.465  11.781   4.260
93353W        W54719  11.792  20.650   2.220
93354W        W54720  17.663  17.223   0.363
93355W        W54721   1.919  22.642  13.442
93356W        W54722  28.160   7.803  12.876
93357W        W54723  36.934  17.720   2.821
93358W        W54724  25.185  19.176  10.631
93359W        W54725  34.514  26.533  13.947
93360W        W54726   7.379  36.489  11.016
93361W        W54727  39.036  30.992  14.791
93362W        W54728  24.072   4.375  12.043
93363W        W54729  14.255   5.336  12.406
93364W        W54730  24.693   1.478   9.632
93365W        W54731  37.909   2.746  14.356
93366W        W54732   9.795  23.570  13.812
93367W        W54733  39.528  36.856  12.538
93368W        W54734  31.467  44.944   0.274
93369W        W54735  15.093   4.933   4.239
93370W        W54736  25.962  21.533  13.465
93371W        W54737  40.505  28.186  13.923
93372W        W54738  38.490   2.415  14.777
93373W        W54739  25.601  28.145  12.551
93374W        W54740   3.270  13.845  14.455
93375W        W54741  23.009   4.377  13.972
93376W        W54742  18.179   1.360   2.274
93377W        W54743  41.980   3.330  13.050
93378W        W54744   6.309   9.761  11.391
93379W        W54745  40.949   7.373  12.032
93380W        W54746  41.461  31.526  11.930
93381W        W54747   5.247  17.693   2.397
93382W        W54748  41.375  32.954   2.242
93383W        W54749  25.104  26.486  14.483
93384W        W54750  36.406  18.776   2.395
93385W        W54751  21.690  43.454   3.680
93386W        W54752   9.725  12.150  10.916
93387W        W54753  37.856   3.940  12.579
93388W        W54754  38.424  37.440   0.324
93389W        W54755  25.709  14.328   4.284
93390W        W54756  30.148  25.172  11.376
93391W        W54757  35.901  41.482   2.322
93392W        W54758   7.692   3.394   4.799
93393W        W54759  21.743  21.104   0.747
93394W        W54760  36.042  34.095  12.503
93395W        W54761   1.758   2.863   4.690
93396W        W54762   8.749  23.036  12.383
93397W        W54763  42.904  16.150  14.026
93398W        W54764  24.081  42.397  12.360
93399W        W54765  36.356  18.562  14.789
93400W        W54766  24.634  35.917   3.689
93401W        W54767   8.404   5.257  13.831
93402W        W54768   9.291  11.862   1.895
93403W        W54769  30.153  22.110  12.923
93404W        W54770  28.539   9.317  14.883
93405W        W54771  24.989  10.241   0.778
93406W        W54772   3.927  20.638  12.972
93407W        W54773  30.112  35.493   3.272
93408W        W54774  25.680   1.864  12.456
93409W        W54775   3.900  41.319   0.259
93410W        W54776  27.636   3.917  14.367
93411W        W54777  18.564   4.228   0.838
93412W        W54778  40.010   2.858   4.148
93413W        W54779  17.253  34.587  10.069
93414W        W54780  31.945  32.533  14.875
93415W        W54781  17.730  22.623   2.807
93416W        W54782  33.074  13.255  11.417
93417W        W54783  43.294  39.459  11.478
93418W        W54784  37.857   9.741  14.366
93419W        W54785   0.961  14.758  12.415
93420W        W54786  37.456   4.260  11.427
93421W        W54787  27.175   5.774   4.780
93422W        W54788   0.408  35.402   1.231
93423W        W54789  38.839  11.211  14.463
93424W        W54790  39.043  18.276   4.264
93425W        W54791  35.038  18.745   4.289
93426W        W54792  41.392  10.221  11.492
93427W        W54793  15.136  12.261  10.896
93428W        W54794  13.273  41.804   2.336
93429W        W54795  40.419  22.150  10.409
93430W        W54796  12.650  15.242   1.369
93431W        W54797  32.424  41.474  13.901
93432W        W54798  10.160  43.881   0.802
93433W        W54799  34.925  32.964  14.427
93434W        W54800  34.570  37.406  12.556
93435W        W54801  10.642  16.701   1.340
93436W        W54802  23.559  18.279  11.077
93437W        W54803  35.852   0.267   2.329
93438W        W54804  11.170  11.678  13.462
93439W        W54805  14.212  22.097  14.823
93440W        W54806  41.495  39.529   2.381
93441W        W54807  14.681  27.627  14.867
93442W        W54808  19.159  36.944   1.842
93443W        W54809  11.786  40.480   1.889
93444W        W54810   2.896  38.934  12.432
93445W        W54811   2.294  42.402   1.279
93446W        W54812  14.660  23.182   1.734
93447W        W54813  33.460  27.571  13.048
93448W        W54814   6.388  28.046  10.487
93449W        W54815  24.217  27.501  10.482
93450W        W54816  38.395   6.416  12.568
93451W        W54817  25.498  40.387   3.201
93452W        W54818   5.889  37.928  14.950
93453W        W54819  30.503  41.908   0.733
93454W        W54820  22.747  29.658  13.918
93455W        W54821   0.407  26.533  10.516
93456W        W54822  35.440  24.548   2.682
93457W        W54823   8.194  26.998   3.341
93458W        W54824  27.588   7.881   2.739
93459W        W54825  22.554  29.658  12.988
93460W        W54826  42.929   5.425   2.776
93461W        W54827  41.350   5.717  11.007
93462W        W54828  34.908  34.101  10.984
93463W        W54829   0.310  15.245  12.424
93464W        W54830  33.456  32.897  11.105
93465W        W54831   1.835  27.589   3.738
93466W        W54832  37.376  39.859   9.666
93467W        W54833  43.278  35.551   4.194
93468W        W54834  32.052  28.155   2.328
93469W        W54835  19.042  19.745  12.851
93470W        W54836  30.639  28.448  12.924
93471W        W54837  10.877  33.049   3.277
93472W        W54838  29.480  16.292   1.800
93473W        W54839  36.067   0.367  10.937
93474W        W54840  34.545  21.551  11.047
93475W        W54841  33.071  15.703  12.578
93476W        W54842  39.843  10.379  11.593
93477W        W54843  24.031  22.109   2.703
93478W        W54844   8.754  40.924  13.376
93479W        W54845  37.934  36.927  10.581
93480W        W54846  32.987  44.837  12.909
93481W        W54847   6.898  31.499   1.360
93482W        W54848  23.568  31.935   4.806
93483W        W54849  31.954  11.703   1.833
93484W        W54850  33.962  42.793   3.196
93485W        W54851  26.604  39.058  12.926
93486W        W54852  29.025  27.500  13.887
93487W        W54853  32.119   3.286   3.264
93488W        W54854   0.808   0.257   3.195
93489W        W54855  15.822  17.280  10.442
93490W        W54856  36.918  21.116  11.006
93491W        W54857  28.615   4.699  12.503
93492W        W54858   8.776  23.651   4.277
93493W        W54859  11.279  36.070   4.767
93494W        W54860  37.930  30.122  13.957
93495W        W54861  13.170  38.402  14.338
93496W        W54862  44.395  31.079   2.279
93497W        W54863   9.327  41.479   2.276
93498W        W54864  15.795  36.569  10.890
93499W        W54865  35.441  40.500   2.283
93500W        W54866   3.853  20.605   0.849
93501W        W54867  39.463  17.580   0.298
93502W        W54868  10.149  17.281  11.567
93503W        W54869   8.205  39.501   0.273
93504W        W54870  17.109  36.985  14.811
93505W        W54871  10.722  41.976   3.362
93506W        W54872  30.560  17.245  12.060
93507W        W54873  23.171   7.702   3.857
93508W        W54874   5.889   0.810  12.349
93509W        W54875  10.814   5.230  12.428
93510W        W54876  38.458  27.510  11.474
93511W        W54877  11.371  39.899   4.303
93512W        W54878  10.708  42.348   4.770
93513W        W54879  30.154  39.938   0.444
93514W        W54880  29.428   0.782   4.701
93515W        W54881  12.345  42.508   1.252
93516W        W54882  14.813  31.993   0.251
93517W        W54883  18.288   6.831  12.569
93518W        W54884  43.390  42.781   5.231
93519W        W54885  44.897  12.618  12.450
93520W        W54886   3.344  33.469  10.644
93521W        W54887   0.333  31.511   1.281
93522W        W54888  23.033  24.095   3.344
93523W        W54889  29.082   7.365  13.058
93524W        W54890  26.457  42.984   3.851
93525W        W54891  12.244  12.353   3.325
93526W        W54892  41.299  25.642  14.332
93527W        W54893  32.489  44.876  12.463
93528W        W54894   8.339  20.687  11.465
93529W        W54895   6.840   0.877   2.249
93530W        W54896  36.479  23.625   2.863
93531W        W54897   2.317  11.216  12.847
93532W        W54898   7.352  13.306  11.585
93533W        W54899  18.639   3.435  10.005
93534W        W54900  15.131  32.901  14.816
93535W        W54901   7.417  41.403   0.796
93536W        W54902  40.050  13.629  14.309
93537W        W54903  28.980  30.551  14.321
93538W        W54904  24.602  12.729  10.489
93539W        W54905  33.041  16.718   2.893
93540W        W54906  43.493  27.669   2.203
93541W        W54907  29.638  16.119  12.515
93542W        W54908  35.951  27.474  11.066
93543W        W54909  27.194  28.584  11.965
93544W        W54910  34.557  35.963   2.775
93545W        W54911  23.224  27.646   4.345
93546W        W54912  14.746  35.375  14.819
93547W        W54913  13.624  12.660  10.504
93548W        W54914  11.300  35.071   1.877
93549W        W54915  15.732  35.359   1.351
93550W        W54916  26.954  35.972   4.692
93551W        W54917  38.074  21.127   3.183
93552W        W54918  41.351  42.922   3.755
93553W        W54919  40.985  15.819  12.975
93554W        W54920  21.629  26.112  12.862
93555W        W54921  20.223  37.418   2.892
93556W        W54922  28.635  18.178  13.384
93557W        W54923  19.266   6.221  14.017
93558W        W54924  32.904  19.624   9.923
93559W        W54925  11.771  20.157  13.820
93560W        W54926  39.949  42.299   3.739
93561W        W54927  34.615  41.789  10.890
93562W        W54928  24.084  21.715   4.604
93563W        W54929  25.161   2.271   0.753
93564W        W54930  31.523  19.277  14.380
93565W        W54931  22.738  34.025  13.930
93566W        W54932  10.254  21.621   3.666
93567W        W54933  12.759  13.269  12.447
93568W        W54934  31.048  37.574   5.202
93569W        W54935  16.317  24.202   0.952
93570W        W54936  15.798  24.598   4.823
93571W        W54937  41.411  19.106  12.859
93572W        W54938   1.384  42.472   4.731
93573W        W54939  23.625  24.530  13.968
93574W        W54940  23.148  31.903   4.143
93575W        W54941   4.715  11.175   3.721
93576W        W54942  31.897  33.000   1.858
93577W        W54943  24.204  28.118   0.363
93578W        W54944  13.799  14.662   9.437
93579W        W54945  22.140   1.751   4.668
93580W        W54946   3.930  17.571   4.671
93581W        W54947  35.063  37.999   5.095
93582W        W54948  10.161  38.009  14.372
93583W        W54949  20.167  26.543  10.993
93584W        W54950  27.680  33.071  14.825
93585W        W54951  37.346   3.397  14.459
93586W        W54952  33.382  32.080   2.281
93587W        W54953  32.594   5.893   1.212
93588W        W54954  41.518  12.745  11.968
93589W        W54955   5.892   6.395   1.924
93590W        W54956  15.096  29.081   1.870
93591W        W54957  37.427  37.945   1.391
93592W        W54958  27.187   2.741  11.441
93593W        W54959  44.375   9.280   2.259
93594W        W54960   2.281  29.986   3.211
93595W        W54961  39.430  14.237  12.052
93596W        W54962   7.822  16.597   3.705
93597W        W54963   3.841  25.032   2.760
93598W        W54964  23.071  13.137   1.324
93599W        W54965  37.073  14.328   2.670
93600W        W54966  10.646  32.071  12.033
93601W        W54967  21.259  14.328  11.950
93602W        W54968   8.832  29.092  11.410
93603W        W54969  24.618  15.651  13.336
93604W        W54970   0.338   8.328  10.571
93605W        W54971  29.993  30.635   1.890
93606W        W54972   6.293  17.214   3.270
93607W        W54973  43.927  37.580  10.444
93608W        W54974  44.974   0.325  13.804
93609W        W54975   6.708  16.183   0.294
93610W        W54976  29.511  25.994  13.023
93611W        W54977  15.156  36.880  14.864
93612W        W54978   5.337  15.160   0.956
93613W        W54979  12.185   8.341  14.883
93614W        W54980  24.616  34.599   0.934
93615W        W54981   7.725  42.986   1.707
93616W        W54982  37.895  40.384   4.323
93617W        W54983   9.231  41.498   4.631
93618W        W54984   9.754  32.066  13.503
93619W        W54985   4.795   1.803  11.995
93620W        W54986   4.892  19.734  13.943
93621W        W54987  40.351  13.329  13.426
93622W        W54988  37.895  43.781  12.015
93623W        W54989  39.840  18.195  10.436
93624W        W54990   2.352  19.265  10.546
93625W        W54991   4.395  19.743  12.854
93626W        W54992  20.180  30.574  13.450
93627W        W54993   1.239  26.190   0.817
93628W        W54994   8.858  24.547   2.272
93629W        W54995   3.953   3.385   5.089
93630W        W54996  30.160   1.280  12.035
93631W        W54997  43.329  12.225  11.051
93632W        W54998  17.149  27.559  10.972
93633W        W54999  16.760   9.246  12.914
93634W        W55000  26.003  19.765   2.328
93635W        W55001  10.144  38.526  14.464
93636W        W55002   4.764   1.375   3.337
93637W        W55003  35.043   2.226   2.692
93638W        W55004   3.257   3.395  11.027
93639W        W55005  41.436  11.272  14.761
93640W        W55006  28.466  40.921   3.641
93641W        W55007  32.987  13.670  13.960
93642W        W55008  36.930   8.897  12.357
93643W        W55009  14.739  42.377   4.753
93644W        W55010  19.083  22.707  10.487
93645W        W55011  36.532   9.770   1.353
93646W        W55012  39.419  39.825  11.127
93647W        W55013  17.064  27.626  12.460
93648W        W55014  15.176   8.860  14.860
93649W        W55015  13.660  42.029  12.447
93650W        W55016  41.531  37.023  14.829
93651W        W55017  22.227  15.622  11.518
93652W        W55018   9.274   8.887  11.109
93653W        W55019   0.329  23.200   4.330
93654W        W55020  25.057   0.768   1.408
93655W        W55021  37.030  25.551  14.422
93656W        W55022  17.635  16.127  11.869
93657W        W55023  20.035   9.210  13.833
93658W        W55024  38.521   4.384  11.467
93659W        W55025  26.650  17.773  14.484
93660W        W55026  40.507  21.124  11.568
93661W        W55027  14.619  38.403   0.933
93662W        W55028  34.918   5.934  14.336
93663W        W55029  14.620  29.063  13.850
93664W        W55030  27.630  26.117  13.880
93665W        W55031  13.650  33.455  13.864
93666W        W55032  37.873   7.804  11.008
93667W        W55033  31.604  44.295  13.826
93668W        W55034  31.144  28.594   0.418
93669W        W55035  43.933  11.132  11.497
93670W        W55036   3.894  37.428  14.507
93671W        W55037   0.390  10.323   4.263
93672W        W55038  43.950  27.483   1.391
93673W        W55039   3.422   1.418   3.682
93674W        W55040  29.104  34.494  10.422
93675W        W55041   3.827   7.208  10.515
93676W        W55042  25.084  29.075  11.456
93677W        W55043  42.456  42.509   2.330
93678W        W55044  39.987  37.552   1.386
93679W        W55045   2.415  28.154  12.879
93680W        W55046  44.823  20.034   2.755
93681W        W55047  27.087  15.669   1.784
93682W        W55048   8.209  36.473  13.033
93683W        W55049  34.113  41.481  11.540
93684W        W55050  10.140  19.724   4.761
93685W        W55051  44.757   4.356  11.548
93686W        W55052  41.412  33.011   3.673
93687W        W55053  26.526  38.351   1.701
93688W        W55054  42.323  15.819  13.520
93689W        W55055  30.538  28.525  14.394
93690W        W55056   3.246  11.672  11.535
93691W        W55057  18.650  29.518   4.147
93692W        W55058  43.338  21.612  10.471
93693W        W55059  13.155  34.987  14.004
93694W        W55060  10.295  30.468   0.808
93695W        W55061  19.184  19.047  14.834
93696W        W55062   7.183  38.475   0.421
93697W        W55063  10.798  10.152  12.019
93698W        W55064  35.477  10.343   0.402
93699W        W55065  10.188  29.479  12.420
93700W        W55066  44.992  13.735   1.353
93701W        W55067  29.062  41.312   1.290
93702W        W55068   7.879  39.936   0.383
93703W        W55069  26.069  38.932   4.309
93704W        W55070  13.779  29.501   2.829
93705W        W55071   5.793  35.461   0.465
93706W        W55072  21.572  36.577  14.914
93707W        W55073  37.987  14.712   4.353
93708W        W55074  30.078   8.248   3.272
93709W        W55075  43.877  25.015  12.565
93710W        W55076  23.225  41.015   4.760
93711W        W55077  27.462  13.235  14.304
93712W        W55078  32.563  17.264  14.788
93713W        W55079   3.726  33.961   4.634
93714W        W55080  30.930  41.475  10.082
93715W        W55081  32.403  42.849   2.889
93716W        W55082  29.515  20.260   2.886
93717W        W55083   3.380  22.731  12.447
93718W        W55084  13.146   0.394  13.929
93719W        W55085  41.797  30.569   2.353
93720W        W55086  33.414  10.741  11.422
93721W        W55087  28.564   6.812  14.772
93722W        W55088  34.978  27.602  14.347
93723W        W55089  14.326  15.631  13.001
93724W        W55090  25.150  44.478   3.374
93725W        W55091  38.406  22.203  12.466
93726W        W55092  44.957  34.889  10.160
93727W        W55093   1.860  38.431   2.753
93728W        W55094  42.477  37.945  14.014
93729W        W55095  10.246  34.480   2.392
93730W        W55096  30.972  28.084  12.040
93731W        W55097  33.045  27.953   0.951
93732W        W55098  35.903  24.655   3.170
93733W        W55099  11.252  15.709   3.821
93734W        W55100  32.054  39.364   1.755
93735W        W55101  19.259  43.847  14.435
93736W        W55102   5.224  26.489   0.762
93737W        W55103  10.269  23.055  13.396
93738W        W55104  22.507  35.530  13.925
93739W        W55105   9.245  39.522  10.622
93740W        W55106  10.187  42.955  12.342
93741W        W55107  20.165   0.425   0.337
93742W        W55108  14.646   7.694   0.784
93743W        W55109  12.219  29.662   4.694
93744W        W55110   4.309  34.873   2.842
93745W        W55111   4.741  26.602   1.287
93746W        W55112  20.117  36.545   0.399
93747W        W55113  31.542   3.721   0.338
93748W        W55114  16.683  35.073   2.284
93749W        W55115  28.601  39.330  14.876
93750W        W55116  37.344  22.012   2.185
93751W        W55117  44.400   2.943   4.719
93752W        W55118  34.486  38.406   9.558
93753W        W55119  31.139  26.679   2.735
93754W        W55120  30.433  34.420  11.440
93755W        W55121  42.796  37.421  14.816
93756W        W55122  22.160  34.946   2.822
93757W        W55123  21.050  33.985  11.980
93758W        W55124  41.977  36.979  12.047
93759W        W55125  27.168  40.820   3.722
93760W        W55126  32.634  31.510  13.366
93761W        W55127  15.682  16.219  13.311
93762W        W55128  27.525   1.823   4.744
93763W        W55129  40.455  42.973  12.550
93764W        W55130   8.679  14.792  13.834
93765W        W55131  18.182   8.822   0.749
93766W        W55132  11.731  43.981   2.252
93767W        W55133  18.696  18.291   1.332
93768W        W55134   2.952  44.373  13.352
93769W        W55135  34.534  21.134  10.620
93770W        W55136  19.218   6.419   3.329
93771W        W55137  32.935  37.510  10.153
93772W        W55138  17.125  27.580   1.374
93773W        W55139   1.966   6.915   3.743
93774W        W55140  41.844  31.055   0.780
93775W        W55141  16.227  18.699   2.691
93776W        W55142  28.625   0.815   2.408
93777W        W55143  36.924  35.461  13.310
93778W        W55144  12.714   5.883  12.373
93779W        W55145  31.509  20.639  14.362
93780W        W55146   9.849   4.360  11.047
93781W        W55147   2.423  21.165   1.220
93782W        W55148  35.003  40.893  11.563
93783W        W55149   1.953  13.139  10.909
93784W        W55150  13.154  33.943   0.851
93785W        W55151  42.349  32.454  13.999
93786W        W55152   9.206  24.538   3.707
93787W        W55153  13.219  17.279   3.683
93788W        W55154   8.655   2.962   4.738
93789W        W55155  37.484  24.604  11.376
93790W        W55156  41.868  27.449  14.797
93791W        W55157  35.992  37.063  11.447
93792W        W55158   6.304   2.458  14.370
93793W        W55159   2.359  40.497  12.400
93794W        W55160  37.447  17.583  13.510
93795W        W55161  18.754   5.706   1.852
93796W        W55162  37.440  32.076   4.721
93797W        W55163  36.413  34.083  14.991
93798W        W55164  22.236   7.879  14.430
93799W        W55165  37.452  24.722  12.977
93800W        W55166  17.271  12.325   4.687
93801W        W55167  25.648   9.368  13.411
93802W        W55168  26.661   9.851   1.823
93803W        W55169  37.404  29.143   4.771
93804W        W55170  18.087  43.443   0.284
93805W        W55171  30.093  13.686   0.893
93806W        W55172   6.404  17.657  12.949
93807W        W55173  16.754  32.068   2.692
93808W        W55174   9.855  38.843   4.825
93809W        W55175  14.269  35.105   2.355
93810W        W55176  13.705  17.678  13.045
93811W        W55177  36.896  40.030  11.867
93812W        W55178  44.492  35.379  12.036
93813W        W55179  32.462   7.390  13.903
93814W        W55180  44.789  30.417  12.969
93815W        W55181   7.211  20.032  10.544
93816W        W55182  16.092  14.617   1.743
93817W        W55183  39.483  34.992   3.320
93818W        W55184  32.496  10.638  13.545
93819W        W55185  43.323  27.667   3.805
93820W        W55186  28.167  19.218   1.922
93821W        W55187   7.721  33.524   1.435
93822W        W55188   1.971  26.571  11.462
93823W        W55189  33.029  17.096  14.817
93824W        W55190   7.857   3.721  11.869
93825W        W55191  30.518  11.127  11.986
93826W        W55192  34.564   7.174  13.520
93827W        W55193  40.492   5.708  12.437
93828W        W55194  25.634  33.048   2.250
93829W        W55195  34.615  11.856   3.747
93830W        W55196  24.580  39.533  11.579
93831W        W55197   3.919  33.100  11.942
93832W        W55198  11.655   5.333   2.320
93833W        W55199  36.063  31.605   4.687
93834W        W55200  12.771  41.523  13.384
93835W        W55201   8.731  40.987   1.409
93836W        W55202  29.569  39.366  10.604
93837W        W55203  33.012  43.937   1.922
93838W        W55204   1.333  20.525   1.762
93839W        W55205  19.633  39.383   4.796
93840W        W55206  42.896  29.582  11.039
93841W        W55207   5.800   7.877   0.249
93842W        W55208   7.725  12.144   0.477
93843W        W55209  40.926  30.937   4.667
93844W        W55210  13.261  13.330  13.015
93845W        W55211  26.662  35.873   3.299
93846W        W55212  14.159  42.442  14.788
93847W        W55213  40.518  11.698  11.011
93848W        W55214  32.451  44.800   1.825
93849W        W55215  40.326  36.403   2.317
93850W        W55216  33.454  20.114  13.817
93851W        W55217   3.913  42.816   3.185
93852W        W55218  41.008  19.664   3.271
93853W        W55219  35.004  10.260  13.409
93854W        W55220  18.634  16.736  14.891
93855W        W55221  21.708  30.615  10.995
93856W        W55222  11.237   5.391  12.503
93857W        W55223  33.432  44.346  10.584
93858W        W55224  12.161  11.169  14.315
93859W        W55225  11.627  31.519   2.300
93860W        W55226  25.010  31.066   0.796
93861W        W55227   1.369  23.211  14.284
93862W        W55228   8.258  27.143   4.835
93863W        W55229   8.220  22.583  11.879
93864W        W55230  21.089  30.638  12.058
93865W        W55231  24.216  35.051   4.273
93866W        W55232   4.788  30.427  12.877
93867W        W55233   4.387  26.190   4.172
93868W        W55234  33.478  29.081  14.317
93869W        W55235  24.054   3.229  13.492
93870W        W55236  24.614  28.520  14.826
93871W        W55237   3.372  40.548  14.953
93872W        W55238   6.243  11.217  14.491
93873W        W55239  35.527  15.231   2.370
93874W        W55240   6.388  29.973   2.759
93875W        W55241  12.204  22.099   3.648
93876W        W55242  21.162  43.391  11.881
93877W        W55243   8.763  22.130  12.844
93878W        W55244   3.381   3.924  14.882
93879W        W55245  42.475   6.877  13.350
93880W        W55246  22.717  34.871   2.332
93881W        W55247  25.110  15.775   3.215
93882W        W55248   8.707  28.063   1.236
93883W        W55249   5.228  44.009  13.525
93884W        W55250   3.876  38.431   4.235
93885W        W55251  27.003  24.538   0.834
93886W        W55252  17.235  41.993   4.833
93887W        W55253  36.910  12.663  10.892
93888W        W55254  13.661  16.134   0.394
93889W        W55255   7.820  30.462   0.869
93890W        W55256  27.011  34.506   4.121
93891W        W55257  14.807  44.382   5.308
93892W        W55258  25.092  34.947   3.332
93893W        W55259  38.492  31.628   4.780
93894W        W55260  11.297  29.471   1.876
93895W        W55261  33.890  33.446  13.429
93896W        W55262   4.699  39.830  10.580
93897W        W55263  37.895  33.078   0.733
93898W        W55264  43.455   1.927  12.879
93899W        W55265  31.114  29.495  10.050
93900W        W55266  36.402  22.683   1.402
93901W        W55267  17.066  12.120   1.428
93902W        W55268  27.992  33.130   1.842
93903W        W55269  34.870  26.657   4.246
93904W        W55270  22.223  43.293   3.752
93905W        W55271  41.304   4.361  14.380
93906W        W55272  16.620   1.301   0.295
93907W        W55273   1.966  32.610  10.431
93908W        W55274  16.708   1.747  11.869
93909W        W55275  41.980  40.487  10.498
93910W        W55276  34.017  17.599  14.504
93911W        W55277   9.818   9.333  14.314
93912W        W55278   9.655  37.872  10.931
93913W        W55279  24.629  40.836   0.795
93914W        W55280  37.839  17.594  14.019
93915W        W55281   9.656  44.272   3.350
93916W        W55282  17.077   3.226  13.523
93917W        W55283   2.908  13.820  12.043
93918W        W55284  38.405  24.581  13.411
93919W        W55285  23.547  11.706   4.603
93920W        W55286  11.366   3.219   0.378
93921W        W55287  44.782  18.270   0.755
93922W        W55288  32.487  29.109   1.711
93923W        W55289  16.723  10.633   4.607
93924W        W55290  44.007  44.791   3.809
93925W        W55291  44.449   0.268  14.397
93926W        W55292  30.622   2.759   0.464
93927W        W55293  22.737  26.656  14.435
93928W        W55294  20.135  22.636   2.246
93929W        W55295   0.309  22.525   1.903
93930W        W55296  24.014  37.464  12.943
93931W        W55297  23.726   3.461  14.282
93932W        W55298  20.074  10.150   4.309
93933W        W55299  32.610  14.818   3.824
93934W        W55300  40.975  25.199  10.605
93935W        W55301  31.606  27.472  10.988
93936W        W55302   6.396   3.282   0.482
93937W        W55303  38.489   1.935  14.781
93938W        W55304   5.291  29.430   2.229
93939W        W55305  36.536  20.120   2.781
93940W        W55306  33.417  19.073  10.605
93941W        W55307  17.302  24.575   1.351
93942W        W55308  24.128  26.166   3.699
93943W        W55309  27.472  21.221   1.394
93944W        W55310  33.530   7.328  13.364
93945W        W55311  23.151  21.596  12.992
93946W        W55312   4.263  37.529   5.165
93947W        W55313  15.821   4.358   2.720
93948W        W55314  21.158  11.199   4.807
93949W        W55315  31.943  38.049   3.367
93950W        W55316  29.158  41.456  14.489
93951W        W55317  24.106  14.158  10.137
93952W        W55318  10.703   3.848  10.487
93953W        W55319  42.290   3.846  10.921
93954W        W55320  41.930  25.622  13.426
93955W        W55321  15.200  27.080   3.703
93956W        W55322  12.744  39.841   0.864
93957W        W55323  30.486  12.139  12.046
93958W        W55324  39.906  15.168   0.943
93959W        W55325  36.414  19.159   0.756
93960W        W55326  42.821   3.290   1.774
93961W        W55327  21.034  43.906   2.401
93962W        W55328   1.259   2.961   0.382
93963W        W55329   3.901  38.859  14.476
93964W        W55330  13.277  32.141  14.954
93965W        W55331  22.028  23.148   0.883
93966W        W55332  23.620  42.350   1.866
93967W        W55333  10.271  16.675  11.435
93968W        W55334  25.612   6.740   2.215
93969W        W55335  21.139   4.331   4.294
93970W        W55336  19.085   3.456  14.884
93971W        W55337  15.220  44.804  10.550
93972W        W55338   8.200  33.403   0.800
93973W        W55339   2.326  21.045   5.189
93974W        W55340  30.933  43.986   2.888
93975W        W55341  33.975   8.751   3.379
93976W        W55342  22.537  33.589  13.499
93977W        W55343  36.041  34.063   2.294
93978W        W55344  18.210  23.162  13.916
93979W        W55345   8.278  18.176   0.735
93980W        W55346  12.243  15.707  10.971
93981W        W55347  37.479  43.386   3.234
93982W        W55348  32.110  29.920   4.803
93983W        W55349  13.240   7.299   1.869
93984W        W55350   7.705  23.195   2.356
93985W        W55351  36.016  12.171   0.729
93986W        W55352  31.440  21.232   5.793
93987W        W55353  18.703  44.331  12.543
93988W        W55354  35.406  44.427  12.565
93989W        W55355  26.611  17.777   4.690
93990W        W55356  33.539  20.679  11.564
93991W        W55357   1.942  18.612   4.724
93992W        W55358  35.526  11.867   1.809
93993W        W55359   7.753  33.391  11.409
93994W        W55360  44.334  29.505   0.478
93995W        W55361  21.122  26.542  10.045
93996W        W55362   3.795  34.380   3.688
93997W        W55363  16.567  13.846  14.384
93998W        W55364   0.915  43.279  14.919
93999W        W55365  29.059  41.850  13.872
94000W        W55366  18.124  32.599   3.703
94001W        W55367  11.628  40.798  14.333
94002W        W55368   4.831   4.833   2.374
94003W        W55369  14.252  44.861   3.764
94004W        W55370  19.693  37.885   1.363
94005W        W55371  22.137  33.487  10.010
94006W        W55372  35.371   3.742  14.491
94007W        W55373  37.366  39.844   3.857
94008W        W55374  14.202  31.017   4.293
94009W        W55375  28.565  34.064  12.404
94010W        W55376  39.943  20.596  13.425
94011W        W55377   4.895  33.127   9.966
94012W        W55378  17.115  18.221   0.817
94013W        W55379  29.927  13.776   4.130
94014W        W55380  38.406   5.358  14.371
94015W        W55381  26.192  38.920  13.365
94016W        W55382  41.984  12.725   4.277
94017W        W55383   8.888  30.963  11.416
94018W        W55384  40.464   5.853   3.785
94019W        W55385  14.095  30.575   3.277
94020W        W55386  42.474  22.644   0.830
94021W        W55387  14.282  25.121   1.908
94022W        W55388   2.391  32.027   1.332
94023W        W55389  36.989  25.593  13.894
94024W        W55390   9.267  33.484   2.201
94025W        W55391  11.333  14.660  11.572
94026W        W55392  31.100  34.527  10.928
94027W        W55393   6.319  26.027   1.928
94028W        W55394  26.994   5.266  14.017
94029W        W55395  19.233   6.312  12.363
94030W        W55396  12.848  28.453  14.940
94031W        W55397   3.866  19.106  11.029
94032W        W55398  29.460  32.949   0.756
94033W        W55399  33.979  27.194   0.803
94034W        W55400  43.332  20.069   2.839
94035W        W55401  28.672  34.046   3.810
94036W        W55402  27.490  34.963  13.824
94037W        W55403  28.101  22.626  12.963
94038W        W55404  38.941  20.178   0.259
94039W        W55405  28.939  18.130  12.069
94040W        W55406  13.273  29.100   1.231
94041W        W55407  37.919  12.161   0.472
94042W        W55408  12.773   3.461  13.361
94043W        W55409  15.733   3.332  10.488
94044W        W55410  35.077   7.239  10.923
94045W        W55411  29.460  15.145   4.823
94046W        W55412  32.069  18.765  10.453
94047W        W55413  35.441  14.834  13.459
94048W        W55414  13.804  25.096  14.001
94049W        W55415  15.161  11.207   1.277
94050W        W55416  18.695  33.066  14.291
94051W        W55417   9.162  14.668  14.761
94052W        W55418   3.820  18.692   1.388
94053W        W55419  38.365  19.212   2.755
94054W        W55420  11.705  16.230   4.162
94055W        W55421  33.063  11.658  14.426
94056W        W55422  42.006  19.592   1.878
94057W        W55423   7.397  29.161   1.443
94058W        W55424   4.331  39.398   1.235
94059W        W55425  35.942  22.028   3.805
94060W        W55426  32.971  17.788   3.167
94061W        W55427   8.246   0.320   1.806
94062W        W55428   5.209  37.984  11.987
94063W        W55429   1.441   5.249   0.936
94064W        W55430  29.102   9.742  11.094
94065W        W55431  18.095  28.568   3.658
94066W        W55432  25.139   1.928  11.868
94067W        W55433  39.973  10.653   1.881
94068W        W55434  24.979  19.194   3.197
94069W        W55435   7.236   6.726  14.866
94070W        W55436  44.974  29.158  14.417
94071W        W55437  36.416  15.587  10.085
94072W        W55438  42.323   8.356  13.359
94073W        W55439   2.439  28.591   0.246
94074W        W55440  30.998  26.995  10.425
94075W        W55441  33.401  12.164  11.395
94076W        W55442  16.187   5.298  11.377
94077W        W55443  17.082   5.865   1.410
94078W        W55444  25.064  13.686  14.923
94079W        W55445  35.594  36.552   0.856
94080W        W55446  13.623  29.155   0.765
94081W        W55447  31.064  14.306   3.792
94082W        W55448  29.551   8.399  12.530
94083W        W55449   1.472  21.162   4.126
94084W        W55450  20.213   8.861  10.551
94085W        W55451   9.672  44.855  13.909
94086W        W55452  13.802  14.212  13.456
94087W        W55453  12.177  39.870  14.442
94088W        W55454   5.687  16.798  13.957
94089W        W55455  22.239  34.486  14.765
94090W        W55456   9.319  38.936  13.970
94091W        W55457   3.872  10.767   1.719
94092W        W55458  17.306  19.052   3.824
94093W        W55459   2.721  22.100  10.901
94094W        W55460  35.581  39.833  12.362
94095W        W55461  30.535   0.972   3.375
94096W        W55462  43.885  37.086   1.397
94097W        W55463  42.363  11.271   2.726
94098W        W55464  21.524  24.975  10.586
94099W        W55465  20.135  41.339   1.735
94100W        W55466  40.351   8.851   2.797
94101W        W55467  19.726  33.045   5.111
94102W        W55468  27.060   4.436  13.344
94103W        W55469  17.628  41.824  13.491
94104W        W55470  19.633  15.767  10.902
94105W        W55471   8.360  42.405  13.369
94106W        W55472  25.508  33.022  12.087
94107W        W55473  42.415  13.771  12.066
94108W        W55474  27.664  20.187   2.389
94109W        W55475  25.676  43.804   3.243
94110W        W55476  12.312   8.195   4.709
94111W        W55477  43.363  25.068  11.956
94112W        W55478  14.805  11.729  14.762
94113W        W55479  39.367  20.531   0.776
94114W        W55480   5.900  18.096  11.987
94115W        W55481  22.679  38.365   2.337
94116W        W55482  41.966  34.580  14.324
94117W        W55483  28.591  18.672  10.449
94118W        W55484  25.115  36.081   3.211
94119W        W55485  16.186   4.899  11.381
94120W        W55486   1.903  34.399   4.646
94121W        W55487  32.908  39.378  12.062
94122W        W55488  26.200  33.530   3.646
94123W        W55489  10.783  21.121   2.806
94124W        W55490  12.283  20.574   2.770
94125W        W55491  20.077  11.800  12.862
94126W        W55492   1.831  14.314  11.007
94127W        W55493   8.406  30.535   2.815
94128W        W55494  43.513  10.699   0.400
94129W        W55495  40.441  17.257  13.410
94130W        W55496   3.756  42.472  13.447
94131W        W55497  17.732  11.828  10.475
94132W        W55498   1.273  16.774   1.247
94133W        W55499   8.197  19.644  14.933
94134W        W55500  41.301  30.051   0.925
94135W        W55501  42.311   4.445   2.362
94136W        W55502  38.357  42.833   0.321
94137W        W55503  10.267  30.421   1.732
94138W        W55504  18.208  30.474   0.899
94139W        W55505  14.305  21.098  13.369
94140W        W55506  34.461   2.434   4.291
94141W        W55507   4.740  34.498  10.481
94142W        W55508  40.025   9.688  14.492
94143W        W55509  34.453   4.320  14.967
94144W        W55510  37.375  42.341  14.923
94145W        W55511   9.287  43.280  12.538
94146W        W55512   5.810  25.071  14.307
94147W        W55513  43.964  32.423  14.314
94148W        W55514   4.230  43.940   4.251
94149W        W55515  37.008  44.872   4.641
94150W        W55516  17.128  40.430  12.993
94151W        W55517  20.725   5.424  13.488
94152W        W55518  37.561  31.591   3.348
94153W        W55519  34.390  38.374   2.192
94154W        W55520   0.815  11.824  14.000
94155W        W55521  11.862  21.107  11.114
94156W        W55522   9.249  19.636   0.922
94157W        W55523  22.540   8.808   2.896
94158W        W55524  15.254  31.639   2.814
94159W        W55525  19.768  11.335  14.811
94160W        W55526  22.622  41.875   4.689
94161W        W55527  23.696  39.838   1.430
94162W        W55528  15.230  24.700  10.567
94163W        W55529  28.455  38.949   0.875
94164W        W55530   4.252  11.342   3.331
94165W        W55531  23.717  11.843   2.284
94166W        W55532   6.330  44.757  11.866
94167W        W55533  22.572   6.348   1.247
94168W        W55534  21.609  34.063  14.463
94169W        W55535  40.412  22.009   0.776
94170W        W55536  13.155   8.397  12.088
94171W        W55537  22.134  16.229   4.278
94172W        W55538  27.154  40.546   3.303
94173W        W55539  38.909  18.601   4.241
94174W        W55540   3.921  17.276  11.396
94175W        W55541  43.379  21.700   0.253
94176W        W55542  24.067   5.930  13.909
94177W        W55543   5.406  21.675  11.076
94178W        W55544  40.852  29.629  12.990
94179W        W55545  24.698  36.556   3.637
94180W        W55546   8.309   5.384  11.526
94181W        W55547  39.384   4.891  14.024
94182W        W55548  43.940  27.995  12.004
94183W        W55549   5.303   8.833  14.780
94184W        W55550   2.959  16.309   0.868
94185W        W55551  37.431  10.696   0.864
94186W        W55552  28.581  18.157   2.332
94187W        W55553  15.780  19.134  12.845
94188W        W55554  32.609  13.610  13.461
94189W        W55555  30.100  23.212   0.760
94190W        W55556  40.033  15.677   4.151
94191W        W55557  18.669  18.784  10.604
94192W        W55558  17.233   1.966  10.120
94193W        W55559  36.962  29.047   0.442
94194W        W55560  30.441  18.085  10.536
94195W        W55561  22.681  31.635   0.417
94196W        W55562   7.264  22.743   2.872
94197W        W55563  19.754   5.301   4.653
94198W        W55564   5.239  33.543   2.225
94199W        W55565   7.240  36.847   1.262
94200W        W55566   7.185  17.590  14.962
94201W        W55567  17.080   5.876  12.923
94202W        W55568  32.604  32.142  12.572
94203W        W55569  30.484  25.467   2.345
94204W        W55570  37.409  24.074   5.111
94205W        W55571   9.859   6.402  11.866
94206W        W55572  18.169  20.146  14.460
94207W        W55573  26.493  29.627  14.294
94208W        W55574  37.072  38.380  10.457
94209W        W55575  29.060  19.074   0.955
94210W        W55576  30.507  28.065  14.368
94211W        W55577  33.887   8.707   2.820
94212W        W55578  23.086  25.571  11.425
94213W        W55579  42.287  44.866  14.849
94214W        W55580   7.181   0.250  13.410
94215W        W55581  39.884   9.244   2.408
94216W        W55582  44.758  19.610   1.712
94217W        W55583  40.423  12.123   1.758
94218W        W55584  14.610  42.851  10.924
94219W        W55585  20.556  39.904  14.906
94220W        W55586  39.028   9.831  12.947
94221W        W55587  25.183  18.638   2.851
94222W        W55588  15.152  42.848   1.307
94223W        W55589   3.263  12.316  12.924
94224W        W55590  17.069   8.725  13.968
94225W        W55591  31.404  16.591   3.362
94226W        W55592  28.974  31.130  14.803
94227W        W55593  44.318  30.580  10.944
94228W        W55594   5.303  23.554   3.691
94229W        W55595  18.548  20.698  13.337
94230W        W55596  12.224  22.096  14.393
94231W        W55597  11.784  23.219  10.637
94232W        W55598  32.138  44.415  12.860
94233W        W55599  12.300  34.613   2.813
94234W        W55600  37.882  37.425   2.333
94235W        W55601   7.772   2.311  14.852
94236W        W55602  13.694  42.811   1.705
94237W        W55603  14.141  38.977   3.253
94238W        W55604  23.994  22.588   4.120
94239W        W55605  41.473   4.719  12.437
94240W        W55606  19.115   9.692   3.772
94241W        W55607  30.964  44.966   2.749
94242W        W55608  22.508  37.080   2.688
94243W        W55609  19.096  38.537   1.447
94244W        W55610  44.455  32.592   2.853
94245W        W55611   5.773  40.519  10.455
94246W        W55612  28.948   9.150  13.848
94247W        W55613  16.180  36.069  10.449
94248W        W55614  38.435   9.388   4.597
94249W        W55615  19.706   2.751  10.434
94250W        W55616  34.046  12.711  13.904
94251W        W55617  11.352  15.172   1.249
94252W        W55618  13.753  42.910  11.612
94253W        W55619  36.870  11.305  14.828
94254W        W55620   6.775  24.549   0.950
94255W        W55621  34.009   3.910  12.384
94256W        W55622  38.916  22.009   1.410
94257W        W55623  10.663  39.934  11.995
94258W        W55624  15.308  43.283  14.474
94259W        W55625  30.079  10.335   1.826
94260W        W55626  20.740   6.246   4.686
94261W        W55627   3.876   2.823  11.399
94262W        W55628  17.656  34.116   3.296
94263W        W55629  27.680   1.911  11.512
94264W        W55630  34.869  34.104   1.851
94265W        W55631  22.209  30.628   1.828
94266W        W55632  44.362  26.981   3.675
94267W        W55633   8.259   8.173  12.883
94268W        W55634  15.234  25.129  14.969
94269W        W55635  14.299  35.390   2.742
94270W        W55636  44.408   8.872  14.851
94271W        W55637  22.220  27.567  11.566
94272W        W55638  34.026  36.422   1.818
94273W        W55639  16.304  22.668   3.152
94274W        W55640   4.303  22.501  11.904
94275W        W55641  27.546   7.788  12.356
94276W        W55642  35.398  37.370  14.329
94277W        W55643  43.912  39.460   3.294
94278W        W55644  27.645  26.541   1.259
94279W        W55645  11.168  30.528  12.475
94280W        W55646  40.976  20.646   3.281
94281W        W55647  20.185  39.921   0.364
94282W        W55648  35.395  38.385   1.323
94283W        W55649  28.515  25.598  14.895
94284W        W55650   8.879  37.912   2.781
94285W        W55651   4.450  39.986  12.896
94286W        W55652  16.774  37.369   4.704
94287W        W55653   1.768  26.491   9.997
94288W        W55654  16.616  43.990  14.345
94289W        W55655  42.936  29.951   1.249
94290W        W55656  13.303  20.623  14.406
94291W        W55657  33.406  27.138   4.198
94292W        W55658  32.891  34.989  13.061
94293W        W55659  39.326  17.657   1.854
94294W        W55660  16.777  28.956  13.815
94295W        W55661   2.310  15.261   4.707
94296W        W55662   2.824  28.628   2.373
94297W        W55663  25.010  41.968  13.038
94298W        W55664   1.809  27.985   0.275
94299W        W55665   1.371   5.426  13.457
94300W        W55666  20.541  26.010   2.806
94301W        W55667  23.095   6.891  12.032
94302W        W55668  10.149  13.106  10.417
94303W        W55669  12.193   9.344   2.776
94304W        W55670  22.577   4.302  13.048
94305W        W55671  31.008  32.077   3.159
94306W        W55672   4.899  17.139   2.193
94307W        W55673  19.121  41.387   0.942
94308W        W55674  38.448  39.395  10.991
94309W        W55675  30.005   8.230   1.732
94310W        W55676  31.602  40.351   0.821
94311W        W55677  26.557  42.839  10.465
94312W        W55678   3.821   1.463  12.533
94313W        W55679   3.756   9.759   4.685
94314W        W55680  20.664  16.692   1.352
94315W        W55681  15.244  37.969  11.084
94316W        W55682  13.184  13.840   2.887
94317W        W55683  30.950  36.364   1.877
94318W        W55684  26.023  27.173  14.297
94319W        W55685  36.560  19.219   2.354
94320W        W55686   7.193  12.642   1.717
94321W        W55687   7.709  42.789  10.928
94322W        W55688  38.070  10.694   2.806
94323W        W55689  30.629  11.859   0.735
94324W        W55690   6.389  26.205  14.368
94325W        W55691  37.433   6.686   0.315
94326W        W55692  40.828  13.175  12.994
94327W        W55693  37.841  26.026  13.956
94328W        W55694  13.749  12.190   4.773
94329W        W55695   7.317  42.379  13.045
94330W        W55696  32.516  36.923  13.990
94331W        W55697  39.350  10.340   2.271
94332W        W55698  22.201  24.548   3.313
94333W        W55699  27.551   4.262   4.623
94334W        W55700   7.370  36.535   1.890
94335W        W55701   1.454  34.467   0.370
94336W        W55702  29.629  16.640   0.268
94337W        W55703   0.304  24.525   0.412
94338W        W55704  12.649  18.152   4.182
94339W        W55705  33.554  41.870  13.972
94340W        W55706  22.119  34.003  12.892
94341W        W55707  37.348  37.995  13.023
94342W        W55708  39.525  31.620   3.150
94343W        W55709  44.821  19.161   4.635
94344W        W55710  31.137   3.894   2.837
94345W        W55711   7.414   0.437   1.429
94346W        W55712  44.980  27.997  14.898
94347W        W55713  38.987  32.536  14.450
94348W        W55714  27.041  11.854   4.132
94349W        W55715  19.102  10.860   0.827
94350W        W55716  37.079  12.179  11.540
94351W        W55717  23.165  15.094  13.928
94352W        W55718  42.472  17.680  11.935
94353W        W55719  29.990  14.333   1.724
94354W        W55720  20.260  28.076   4.213
94355W        W55721  42.795  33.055  11.069
94356W        W55722   0.473  20.690  11.388
94357W        W55723  14.697   2.269  11.872
94358W        W55724  44.768   1.863   2.373
94359W        W55725  23.565  10.362  14.980
94360W        W55726  20.056  39.818   2.262
94361W        W55727   2.886   7.381  12.045
94362W        W55728  35.904  44.354   2.817
94363W        W55729  17.770  30.435   3.341
94364W        W55730  26.095  35.055   1.757
94365W        W55731  41.394  42.464  13.528
94366W        W55732  11.283  27.594  14.391
94367W        W55733  29.624  32.607  13.939
94368W        W55734   0.976  12.747  14.514
94369W        W55735  18.273   9.858   1.918
94370W        W55736  25.163   6.744  12.975
94371W        W55737  10.867  15.200   0.791
94372W        W55738  23.599  30.979  14.364
94373W        W55739  39.026   8.366   4.819
94374W        W55740  40.336  27.460   0.335
94375W        W55741  37.505   4.901   1.357
94376W        W55742  31.416   7.700  10.440
94377W        W55743  15.818   6.233   5.293
94378W        W55744  27.491   5.705  12.973
94379W        W55745  26.663  24.548  13.920
94380W        W55746  14.798   6.712  11.527
94381W        W55747  37.495  13.215  13.057
94382W        W55748  19.042   3.730  11.984
94383W        W55749  41.829  25.597   2.754
94384W        W55750  40.413  22.056  12.919
94385W        W55751  34.391  29.643   3.847
94386W        W55752  22.531  10.650  12.405
94387W        W55753  37.484   3.329   1.886
94388W        W55754  18.763   2.787   1.849
94389W        W55755  37.045  28.498   2.250
94390W        W55756  26.602  44.351   3.197
94391W        W55757   9.685   4.727  12.381
94392W        W55758  22.013  13.698  11.522
94393W        W55759  23.548   1.842  12.383
94394W        W55760  29.490  22.226  11.431
94395W        W55761  43.985  30.642  12.934
94396W        W55762  15.196  28.493   0.855
94397W        W55763  43.504   4.726  13.037
94398W        W55764  34.055   4.781  14.989
94399W        W55765  36.849   4.802  12.973
94400W        W55766  28.514  27.668   4.315
94401W        W55767  38.009  32.515   3.339
94402W        W55768   5.439   0.287   4.681
94403W        W55769  13.317   7.900   2.892
94404W        W55770   5.722  34.372  11.372
94405W        W55771  42.365  25.691   0.307
94406W        W55772  31.421  38.948  14.979
94407W        W55773  25.536  26.563  14.028
94408W        W55774  11.203   6.235  11.562
94409W        W55775  24.622  30.939  10.569
94410W        W55776  43.785  23.560  10.508
94411W        W55777  18.091  13.790   1.876
94412W        W55778  27.949  42.972   3.203
94413W        W55779  33.927  30.416   2.341
94414W        W55780  13.614  39.000   0.350
94415W        W55781  24.698  37.913   2.227
94416W        W55782  16.074  14.290   2.809
94417W        W55783  42.507   6.210  12.357
94418W        W55784  38.843  27.476  12.843
94419W        W55785  28.032  38.951   9.921
94420W        W55786  40.548  29.667  11.979
94421W        W55787  10.840  26.574  13.921
94422W        W55788  37.846   6.791  13.401
94423W        W55789  38.414  22.519  13.384
94424W        W55790  31.942  33.555   0.769
94425W        W55791  16.566  19.614   0.931
94426W        W55792  33.130  11.731  12.976
94427W        W55793  37.975  40.320   0.277
94428W        W55794  17.256  11.178   4.671
94429W        W55795  27.197  19.167   4.272
94430W        W55796   9.383  18.068  10.601
94431W        W55797  20.571   5.758  13.929
94432W        W55798  21.689   7.243  13.895
94433W        W55799  37.004   2.735   4.731
94434W        W55800  33.418  21.116   1.898
94435W        W55801  15.619  20.567  11.451
94436W        W55802  35.885  28.522   3.357
94437W        W55803  30.642  39.064  12.345
94438W        W55804  33.078  40.442  12.414
94439W        W55805  24.644  35.098  12.093
94440W        W55806  19.706   8.216  13.479
94441W        W55807  29.497  41.043  13.483
94442W        W55808  18.246  21.685   4.217
94443W        W55809  17.734  41.797   0.885
94444W        W55810  44.888   6.239  14.509
94445W        W55811  23.226  27.192   3.321
94446W        W55812  37.085  29.425  14.330
94447W        W55813  33.497  16.173   0.801
94448W        W55814  29.981   9.780  12.998
94449W        W55815  23.556  36.477   2.258
94450W        W55816  12.828  31.425  11.486
94451W        W55817   4.799  40.004  12.060
94452W        W55818   5.437  43.292  12.484
94453W        W55819  21.166  10.871  14.885
94454W        W55820  26.679  32.104   1.395
94455W        W55821  42.955  30.096   2.794
94456W        W55822  34.449  40.482   4.639
94457W        W55823  20.572   4.438  13.043
94458W        W55824  29.170   7.786   0.910
94459W        W55825   8.212  14.260   2.848
94460W        W55826  35.886  26.104  14.390
94461W        W55827  36.358  34.510   4.774
94462W        W55828  39.048  14.116  13.811
94463W        W55829   4.793   6.857   2.886
94464W        W55830  15.769   3.894   0.262
94465W        W55831   2.420  24.671  11.897
94466W        W55832  13.255  37.490   0.444
94467W        W55833  27.543  26.081  12.947
94468W        W55834  17.075  30.088   3.221
94469W        W55835   0.849  41.428  11.913
94470W        W55836  34.923  26.517  10.954
94471W        W55837  18.638  15.754  10.433
94472W        W55838  38.994  30.003  11.109
94473W        W55839  13.668  14.180   9.488
94474W        W55840  26.163  23.154  11.078
94475W        W55841  41.802   3.347  12.407
94476W        W55842  13.157  29.627  14.838
94477W        W55843   1.412  13.236   2.685
94478W        W55844  19.067  20.078  14.375
94479W        W55845   2.350  22.619  11.423
94480W        W55846  42.305  10.356   3.696
94481W        W55847  29.475  13.131  13.931
94482W        W55848  12.335  13.174  10.602
94483W        W55849   2.910  41.965   1.355
94484W        W55850  21.649  22.204  13.823
94485W        W55851  28.153  40.923  11.999
94486W        W55852  43.937  19.538   0.814
94487W        W55853   0.918  42.026  14.328
94488W        W55854  33.488  44.303  14.021
94489W        W55855  29.552  36.905   4.201
94490W        W55856   6.830  25.707   0.446
94491W        W55857  17.247  33.475  11.905
94492W        W55858  23.222  18.171  11.387
94493W        W55859   5.331  26.169   4.764
94494W        W55860  30.162  29.035   0.936
94495W        W55861   7.788   1.375  14.002
94496W        W55862  37.035   5.217   0.860
94497W        W55863  11.202  40.380   1.264
94498W        W55864   6.391  24.105   0.450
94499W        W55865  13.773   9.699  10.917
94500W        W55866  44.798  27.471   0.262
94501W        W55867   7.339  27.968   1.859
94502W        W55868  17.289  19.769   4.632
94503W        W55869  36.391  26.192   0.761
94504W        W55870   9.158  34.888  14.994
94505W        W55871  38.912  28.542   5.097
94506W        W55872  20.738  22.128  10.448
94507W        W55873  21.198  43.825  14.328
94508W        W55874  35.041  21.580   3.181
94509W        W55875  18.739  25.187   3.375
94510W        W55876  23.143  22.587  10.996
94511W        W55877  27.582  44.009  11.411
94512W        W55878  38.009  30.441   3.200
94513W        W55879   5.266   2.904   3.383
94514W        W55880  19.700  29.656   1.245
94515W        W55881  34.392  39.358   3.190
94516W        W55882  33.467  35.943  14.444
94517W        W55883  27.563  34.550   0.746
94518W        W55884   6.369  41.919  11.476
94519W        W55885  44.369  17.117   0.754
94520W        W55886  43.831  38.917   0.948
94521W        W55887  19.658  39.008   3.181
94522W        W55888  10.858  18.216   5.088
94523W        W55889   3.284  44.909   1.910
94524W        W55890  42.878  40.964   2.362
94525W        W55891  42.399  17.284  13.397
94526W        W55892  39.979   5.272  14.804
94527W        W55893  39.503  11.218  12.407
94528W        W55894  28.523  42.320   2.408
94529W        W55895   6.381  30.034  12.076
94530W        W55896  35.439  29.524   2.810
94531W        W55897  26.047  33.488  12.519
94532W        W55898  30.653  13.155  14.014
94533W        W55899  42.425   6.320   1.396
94534W        W55900  28.993  30.923   3.188
94535W        W55901  35.062  28.132  13.389
94536W        W55902  40.012  13.641  14.779
94537W        W55903   0.951  21.687  12.913
94538W        W55904  38.858  12.226   3.195
94539W        W55905  35.107  22.612  13.916
94540W        W55906   8.362   5.803  11.445
94541W        W55907  12.191  43.376   3.700
94542W        W55908  18.622  34.599   2.762
94543W        W55909  38.387   5.920   0.332
94544W        W55910  42.017  11.281  11.985
94545W        W55911  39.908  12.815  14.788
94546W        W55912  16.766  24.198   0.866
94547W        W55913  33.508   1.474  11.550
94548W        W55914  40.854   3.879   1.407
94549W        W55915  28.093  13.322  12.021
94550W        W55916  35.384  15.807  12.481
94551W        W55917  19.563  34.598  14.830
94552W        W55918  27.579  24.668   1.378
94553W        W55919   9.394   5.885  13.469
94554W        W55920  15.085   1.819   2.413
94555W        W55921  32.412  23.678  14.978
94556W        W55922  17.759  21.516   0.852
94557W        W55923   4.908   6.372  12.860
94558W        W55924  32.986  15.247   3.789
94559W        W55925  12.249   5.422   3.642
94560W        W55926  16.238   5.807  14.014
94561W        W55927  19.775   6.719   0.262
94562W        W55928  12.269  42.335   0.479
94563W        W55929   5.892  39.926   1.826
94564W        W55930   9.728  10.676  12.566
94565W        W55931   6.713  13.738  11.117
94566W        W55932  14.148  42.466  12.523
94567W        W55933  23.564   2.359   5.684
94568W        W55934  31.079  17.291  10.495
94569W        W55935  24.677  22.194   0.839
94570W        W55936  40.456   2.729  10.519
94571W        W55937  27.634  22.565  14.510
94572W        W55938   6.377   3.327  12.003
94573W        W55939  30.592  34.477  13.849
94574W        W55940  40.966   2.896   4.626
94575W        W55941  33.998  11.806   3.675
94576W        W55942  30.584  11.813  14.811
94577W        W55943   7.290  27.012   0.473
94578W        W55944  10.214  22.656   2.789
94579W        W55945  35.456  35.063  11.076
94580W        W55946  18.083  15.132   1.876
94581W        W55947   4.435  39.946   1.364
94582W        W55948  41.526  27.179   4.297
94583W        W55949  44.344   3.276   0.883
94584W        W55950  28.519  44.449   3.831
94585W        W55951   7.671  40.415   4.729
94586W        W55952  17.244  12.639   0.920
94587W        W55953  23.991  29.981   2.358
94588W        W55954   7.250   1.276  13.510
94589W        W55955  37.459  13.729   0.875
94590W        W55956  25.544  20.119  10.946
94591W        W55957  33.575  41.413  14.501
94592W        W55958   3.735  42.838   4.177
94593W        W55959  16.575  31.087   1.276
94594W        W55960  20.095   8.851  10.138
94595W        W55961   6.858  38.422   3.240
94596W        W55962  25.063   8.396   4.666
94597W        W55963   3.389  35.086  14.499
94598W        W55964  27.005  26.596   1.709
94599W        W55965  37.882  40.899  14.323
94600W        W55966  17.664  11.729   3.384
94601W        W55967  38.841  35.465  12.863
94602W        W55968  31.639  11.842   3.781
94603W        W55969  41.788  42.346   1.705
94604W        W55970  22.024   4.906  12.886
94605W        W55971  23.128  20.720   0.427
94606W        W55972  36.069  14.800  12.828
94607W        W55973  14.606  40.898  12.067
94608W        W55974  22.507  16.776   0.327
94609W        W55975   8.699   3.328  14.455
94610W        W55976  31.430  31.586   4.144
94611W        W55977   5.433  22.556  12.888
94612W        W55978  32.899  29.649  11.115
94613W        W55979  30.088  10.325   0.932
94614W        W55980   2.299   1.792   0.484
94615W        W55981  10.739  17.074   3.737
94616W        W55982  30.163  41.464   1.712
94617W        W55983  27.603  44.792  12.532
94618W        W55984   8.865  14.237   0.469
94619W        W55985  33.067  28.996   4.151
94620W        W55986  31.618  24.485   0.912
94621W        W55987  36.581  17.726   1.211
94622W        W55988   7.680  39.355  12.000
94623W        W55989  22.140  17.672  11.580
94624W        W55990  21.115  17.169  13.514
94625W        W55991   6.236  37.553   0.442
94626W        W55992  37.041  31.407  14.865
94627W        W55993  25.066   3.436  12.493
94628W        W55994  10.675  17.216  11.459
94629W        W55995  42.298   7.186  10.551
94630W        W55996   2.888  16.192  11.002
94631W        W55997  26.642  37.530   3.681
94632W        W55998   5.233  30.593  11.485
94633W        W55999  27.992  11.624  14.328
94634W        W56000  33.091  21.076  11.067
94635W        W56001  33.602  27.154   1.875
94636W        W56002  38.845  30.130   2.845
94637W        W56003  36.000   5.264   1.341
94638W        W56004   7.760  30.924  11.466
94639W        W56005  10.189  16.117   0.837
94640W        W56006  42.497  22.198  13.438
94641W        W56007  44.880   8.366   2.415
94642W        W56008  40.003  35.398   4.142
94643W        W56009  17.746  11.715  11.091
94644W        W56010  30.060   7.349   0.355
94645W        W56011  19.640  25.056   1.428
94646W        W56012  42.521  20.037  14.939
94647W        W56013  36.430  11.856   3.851
94648W        W56014  35.540  35.583  13.950
94649W        W56015  36.533  44.842  11.023
94650W        W56016  42.967  10.353  10.009
94651W        W56017  39.440  35.540  14.467
94652W        W56018  14.191   2.861   0.940
94653W        W56019  43.281  33.089   1.447
94654W        W56020   4.902  34.906   3.168
94655W        W56021  14.124  17.638  12.548
94656W        W56022  17.693   1.263  12.505
94657W        W56023  13.106   3.444  10.122
94658W        W56024  30.501  28.078  10.420
94659W        W56025  19.160  40.525   4.628
94660W        W56026  32.138  10.867  12.390
94661W        W56027  26.654   3.278   2.282
94662W        W56028  15.166   2.807   2.288
94663W        W56029   3.376  25.152  12.433
94664W        W56030  25.531  38.350   2.336
94665W        W56031  27.095  38.050  10.479
94666W        W56032   8.381   8.896   2.277
94667W        W56033  41.823  36.013   4.271
94668W        W56034  17.686  31.990   1.724
94669W        W56035  29.983   0.435   4.696
94670W        W56036  11.849  36.978  11.494
94671W        W56037   3.216  21.206   4.229
94672W        W56038   6.849  20.055  12.382
94673W        W56039  12.611  44.465   2.703
94674W        W56040  11.843  42.347   3.174
94675W        W56041  10.205  38.541  12.967
94676W        W56042  25.116  19.556   0.868
94677W        W56043  29.471   8.281  13.546
94678W        W56044  16.166   4.433   3.649
94679W        W56045  17.219  25.494   0.319
94680W        W56046  38.377  16.678  12.403
94681W        W56047  35.894  16.678  12.441
94682W        W56048  16.241  42.907   0.764
94683W        W56049   1.938  31.605  11.876
94684W        W56050  29.640  15.253  14.866
94685W        W56051  17.138  17.731   0.347
94686W        W56052  33.907  12.296   1.864
94687W        W56053  18.083   3.907   4.598
94688W        W56054   0.399  16.717   1.811
94689W        W56055  12.248  12.716  10.519
94690W        W56056  22.143  33.537   9.436
94691W        W56057  34.007  36.553  13.938
94692W        W56058  40.327  21.104  10.135
94693W        W56059  38.024  16.705  10.984
94694W        W56060  28.166   6.857   5.124
94695W        W56061  24.008  12.681  13.315
94696W        W56062  36.078   1.974  13.061
94697W        W56063   2.921   3.321  12.426
94698W        W56064  23.995  21.657  11.129
94699W        W56065  27.622  41.993   3.730
94700W        W56066  39.529  33.623   3.644
94701W        W56067  13.200  43.868   0.746
94702W        W56068   5.887  39.506   1.888
94703W        W56069  19.562  12.744   0.961
94704W        W56070  30.572  35.063  14.508
94705W        W56071  33.044  42.369  13.809
94706W        W56072  29.004  25.556  11.563
94707W        W56073  14.798  32.139  11.581
94708W        W56074  18.603   5.298   0.861
94709W        W56075   3.362  26.523  13.921
94710W        W56076  13.661  14.127   3.814
94711W        W56077   9.233  23.029   0.952
94712W        W56078  24.120  10.284  13.487
94713W        W56079  35.917  25.501  11.965
94714W        W56080  25.070  13.236  14.428
94715W        W56081  26.056  17.623   0.358
94716W        W56082  41.475   6.868  12.548
94717W        W56083  24.710  19.700  14.307
94718W        W56084  23.230  11.206   4.838
94719W        W56085  15.634   2.813   2.853
94720W        W56086  16.631  23.060  13.994
94721W        W56087  30.453  18.727  13.869
94722W        W56088  23.064  18.280   2.243
94723W        W56089  13.264  37.463   1.810
94724W        W56090  23.199  33.523   5.156
94725W        W56091  32.606  32.416  10.944
94726W        W56092  15.200  26.659   1.923
94727W        W56093  29.077  43.363  11.544
94728W        W56094   7.796   6.351   1.424
94729W        W56095   6.247  23.597  10.948
94730W        W56096  33.092  37.011  13.936
94731W        W56097  18.695  32.637   3.802
94732W        W56098  25.705  32.945   0.242
94733W        W56099  36.933   5.747   4.257
94734W        W56100   2.421  16.153  14.383
94735W        W56101   8.230  26.656  13.028
94736W        W56102   3.862   6.352   1.911
94737W        W56103  16.288   7.388   1.804
94738W        W56104  19.684  35.884  11.423
94739W        W56105  20.101  18.069  11.424
94740W        W56106  42.950  14.168  14.766
94741W        W56107  29.590  19.227   4.811
94742W        W56108   0.854   1.781   4.304
94743W        W56109  11.169  30.428  11.505
94744W        W56110  19.188  19.142   4.821
94745W        W56111   7.892   0.350   2.251
94746W        W56112  34.370  12.142   2.896
94747W        W56113  15.154  37.057  12.939
94748W        W56114  30.623   4.432  10.441
94749W        W56115  10.740  20.222   2.705
94750W        W56116  10.368  32.565   2.822
94751W        W56117  20.604   5.419  11.508
94752W        W56118   1.851  26.085  14.983
94753W        W56119  28.564   3.901   1.911
94754W        W56120  23.019   3.423  13.399
94755W        W56121  31.020  19.262  11.604
94756W        W56122  18.749  32.393  12.348
94757W        W56123  15.274  20.722   3.186
94758W        W56124  15.108   5.800  14.801
94759W        W56125  44.764  30.443   1.784
94760W        W56126  30.631   0.794  11.513
94761W        W56127  16.708  44.901  10.553
94762W        W56128  19.775   8.389  12.441
94763W        W56129  26.958  18.593   1.372
94764W        W56130  26.592  14.749   0.801
94765W        W56131  28.930  34.542   4.829
94766W        W56132   0.857   3.259  14.856
94767W        W56133  34.070  10.320  13.547
94768W        W56134  27.607  23.614  10.586
94769W        W56135  33.022  14.314  14.928
94770W        W56136  10.350  26.133   1.795
94771W        W56137  35.943  20.725  13.315
94772W        W56138   7.706  44.834   2.179
94773W        W56139  33.060   5.214  13.548
94774W        W56140  22.672  37.086  14.444
94775W        W56141   2.444  30.002  11.468
94776W        W56142  30.037  42.017  10.958
94777W        W56143  12.711  33.013  11.897
94778W        W56144  22.045  17.754  10.989
94779W        W56145   3.864  33.962  10.949
94780W        W56146  21.550  44.273   0.886
94781W        W56147  32.522  37.392  13.515
94782W        W56148  24.061  19.085  12.962
94783W        W56149  15.741  22.144   0.390
94784W        W56150  25.087  35.919   1.929
94785W        W56151  42.953  36.849   1.753
94786W        W56152   8.746  19.155   4.211
94787W        W56153   3.949   7.729  13.017
94788W        W56154   5.320  11.672   0.465
94789W        W56155  13.177  41.394   4.145
94790W        W56156   7.743  30.944  13.913
94791W        W56157  23.719  24.671   3.796
94792W        W56158  44.287  31.469   4.159
94793W        W56159  31.614   2.337  12.496
94794W        W56160  12.766  18.756  10.529
94795W        W56161  23.557  40.831   3.350
94796W        W56162  21.557  32.493  10.558
94797W        W56163  24.623  29.011   1.776
94798W        W56164  26.498   3.349   0.786
94799W        W56165  13.169  33.476  13.965
94800W        W56166  37.408  23.989   2.234
94801W        W56167   1.407   5.415   0.441
94802W        W56168   8.782  18.111  14.367
94803W        W56169  21.630  42.416  11.375
94804W        W56170  39.493  44.982  13.972
94805W        W56171  22.728  17.709  13.018
94806W        W56172  11.135  27.982  10.948
94807W        W56173  16.206  23.172   3.147
94808W        W56174  36.368   1.800  13.343
94809W        W56175  31.635  27.154  13.318
94810W        W56176  28.967  20.641  11.592
94811W        W56177  44.938  36.013   5.226
94812W        W56178  14.320  20.679  13.977
94813W        W56179  22.179  12.117   3.765
94814W        W56180  28.055  13.725  11.412
94815W        W56181   7.346  21.733   1.370
94816W        W56182  34.507  42.986   5.240
94817W        W56183   5.761   4.909  14.314
94818W        W56184   3.879  23.722  13.345
94819W        W56185  15.158  44.336   3.275
94820W        W56186  18.632   2.834  10.562
94821W        W56187   7.361  43.918  14.325
94822W        W56188  41.943  34.894  11.587
94823W        W56189  32.446  21.085  12.491
94824W        W56190   6.196  41.428  14.947
94825W        W56191  22.674   1.258   3.382
94826W        W56192  27.593   5.235  14.995
94827W        W56193  10.779   1.288  10.546
94828W        W56194  12.230  35.879   1.352
94829W        W56195  11.347  24.692  14.025
94830W        W56196  43.443  41.346   4.160
94831W        W56197  33.109   6.228  11.064
94832W        W56198  40.419  39.936   2.260
94833W        W56199  19.126   8.266  12.475
94834W        W56200  37.020  12.214   4.322
94835W        W56201  12.193  36.007   4.799
94836W        W56202   3.741  13.772   0.824
94837W        W56203   5.263  12.182   1.771
94838W        W56204  20.272   7.408   4.815
94839W        W56205  43.308   4.309   3.283
94840W        W56206  15.281  43.017   4.635
94841W        W56207  40.454  31.052   2.296
94842W        W56208  41.979  43.317  11.579
94843W        W56209  35.997  12.802  12.092
94844W        W56210  36.071  37.883  11.588
94845W        W56211  44.413   4.701   1.366
94846W        W56212  37.888  24.156   2.282
94847W        W56213  11.288  15.681  14.388
94848W        W56214  17.271  12.279   2.414
94849W        W56215   3.332  40.941  12.895
94850W        W56216  12.755  39.468  10.936
94851W        W56217  10.311  30.521   0.381
94852W        W56218  44.373  42.946   0.875
94853W        W56219  44.843  23.155   3.811
94854W        W56220  21.179  21.754   1.803
94855W        W56221   3.412  37.991   2.330
94856W        W56222   3.720  37.033   4.611
94857W        W56223  18.714  12.253  14.967
94858W        W56224  41.438  37.401  10.545
94859W        W56225  16.307  26.097   3.202
94860W        W56226  26.183  10.795   0.795
94861W        W56227  31.004   6.714   1.762
94862W        W56228  44.849  37.849  10.977
94863W        W56229  42.815  43.387   3.252
94864W        W56230  34.116  32.137   4.170
94865W        W56231  33.018  16.697   4.249
94866W        W56232   2.318   7.851   2.251
94867W        W56233  12.306  35.517   3.307
94868W        W56234  36.999   1.322   4.161
94869W        W56235  34.926  35.440  13.912
94870W        W56236  40.981  26.596  12.081
94871W        W56237  27.035  11.310   3.732
94872W        W56238   4.271   8.239   3.645
94873W        W56239  32.568  23.985  12.498
94874W        W56240  26.598  27.151   1.741
94875W        W56241   3.245  21.635  10.916
94876W        W56242   9.790  25.031  10.513
94877W        W56243  33.904  44.861  12.566
94878W        W56244  17.284   0.957  12.441
94879W        W56245  13.320   5.887   2.665
94880W        W56246  15.776   8.656   1.834
94881W        W56247  14.121   0.296   1.258
94882W        W56248  35.455  22.232   3.375
94883W        W56249  18.136  39.895  14.994
94884W        W56250  44.403  11.156   1.929
94885W        W56251  16.752   2.824   0.376
94886W        W56252  43.494   5.770   4.785
94887W        W56253  40.353  35.600   2.239
94888W        W56254   9.705  27.086   4.771
94889W        W56255  15.276  38.346  11.090
94890W        W56256  35.586  27.542  13.995
94891W        W56257  41.370  32.513   3.725
94892W        W56258  16.170  43.857  12.428
94893W        W56259  19.121  20.662  12.472
94894W        W56260  21.749  37.984   3.344
94895W        W56261   7.359   5.751   3.641
94896W        W56262  16.307  32.056   0.827
94897W        W56263  26.039  11.703  12.523
94898W        W56264  36.519  22.505  14.880
94899W        W56265   0.341  37.470  11.964
94900W        W56266  10.827   6.679   1.913
94901W        W56267   0.250  16.734   4.192
94902W        W56268  36.549  30.425   5.189
94903W        W56269   5.811  10.842  12.397
94904W        W56270  36.085   3.866  13.326
94905W        W56271  20.570  29.608  13.500
94906W        W56272  22.543  43.790   0.347
94907W        W56273  13.836  32.417   2.340
94908W        W56274   7.799   9.834   0.342
94909W        W56275  20.682  28.055  13.469
94910W        W56276  33.518  32.097   9.948
94911W        W56277  27.983  23.159  13.397
94912W        W56278  15.317  36.929  13.839
94913W        W56279  34.101  30.995   1.922
94914W        W56280   3.749  40.996  12.922
94915W        W56281  43.862  28.109  13.437
94916W        W56282  13.778   7.792   1.839
94917W        W56283  25.086  38.360   3.648
94918W        W56284  21.644   4.762   3.200
94919W        W56285  40.385   6.783   1.276
94920W        W56286   8.838  34.428   0.896
94921W        W56287  20.272  25.170  14.841
94922W        W56288  11.136  36.509   0.404
94923W        W56289  34.927  25.636   0.433
94924W        W56290  33.090  22.717  13.338
94925W        W56291   1.456  16.177  13.915
94926W        W56292  10.811  17.156   4.342
94927W        W56293  26.650  38.417   0.247
94928W        W56294  29.082   2.962  10.427
94929W        W56295  25.649  11.239   4.128
94930W        W56296  35.425  41.823   1.827
94931W        W56297   8.683   1.951   2.218
94932W        W56298  32.052  38.915   2.331
94933W        W56299  25.141   5.200   1.867
94934W        W56300  26.107  24.081  14.890
94935W        W56301  36.937  19.707  12.410
94936W        W56302   3.865  38.850  13.037
94937W        W56303   4.718  39.502  10.522
94938W        W56304  39.968  10.157   0.331
94939W        W56305  39.997  44.854   0.336
94940W        W56306  24.587   5.704   2.341
94941W        W56307   8.262  36.001   2.417
94942W        W56308  23.653  26.683  13.396
94943W        W56309  12.623  28.139   1.806
94944W        W56310  19.674  13.281   0.743
94945W        W56311  38.507  36.498  14.867
94946W        W56312  31.147   1.932   1.211
94947W        W56313  11.291  35.018  13.522
94948W        W56314   4.799  29.511  10.156
94949W        W56315  14.244  43.855   2.901
94950W        W56316  30.456  36.069   0.343
94951W        W56317  28.112  21.734  12.464
94952W        W56318  39.917   9.798   0.871
94953W        W56319  24.490  18.737   2.222
94954W        W56320  39.974  22.543  11.998
94955W        W56321  14.795  21.730  14.911
94956W        W56322   7.185   8.842   4.608
94957W        W56323  21.158  32.470   3.714
94958W        W56324  38.399  18.719   0.287
94959W        W56325  43.290  17.671   2.393
94960W        W56326  10.314  39.428   4.270
94961W        W56327  33.072  30.419  12.982
94962W        W56328  26.529  34.398   5.242
94963W        W56329  14.601   7.275   0.461
94964W        W56330   4.831  17.784   4.202
94965W        W56331  37.532  42.908  14.901
94966W        W56332  38.434  35.883  11.475
94967W        W56333   0.399  35.031  12.453
94968W        W56334  23.685   4.881   3.748
94969W        W56335  14.119  37.436   4.277
94970W        W56336   9.164  18.169   2.335
94971W        W56337   7.759  20.617   3.630
94972W        W56338  40.473  15.320  13.521
94973W        W56339  19.541  34.400   1.844
94974W        W56340  19.732  44.991  10.951
94975W        W56341  30.462  11.852  14.359
94976W        W56342  40.909  35.561   4.676
94977W        W56343  22.028  32.032  11.993
94978W        W56344   3.939  16.207   1.426
94979W        W56345  20.710  42.306   1.789
94980W        W56346  24.603  24.057   1.905
94981W        W56347   6.841  28.619   2.342
94982W        W56348  12.641  26.996  11.383
94983W        W56349  21.654   9.826   0.817
94984W        W56350  17.566  39.959  13.972
94985W        W56351  19.164  43.999   0.395
94986W        W56352   7.668  24.007   4.142
94987W        W56353  32.547  25.615   0.867
94988W        W56354  19.698   5.775   2.374
94989W        W56355  13.235  30.608  11.018
94990W        W56356  42.029  23.234   3.291
94991W        W56357  43.980  22.043   3.351
94992W        W56358  28.976  40.005   3.357
94993W        W56359  43.996  19.696  10.498
94994W        W56360  11.856  41.491   4.759
94995W        W56361  44.394   4.729   0.954
94996W        W56362  16.211  32.930   1.377
94997W        W56363  33.567  17.206  13.508
94998W        W56364  26.568  20.079  14.466
94999W        W56365  13.340  43.841   3.300
95000W        W56366  29.522   3.265   4.819
95001W        W56367  21.178  19.109   4.721
95002W        W56368  27.476  33.130  14.388
95003W        W56369  18.547   0.476   1.408
95004W        W56370  19.657   9.159  14.017
95005W        W56371  25.524  20.560  14.367
95006W        W56372  31.929  28.644   2.419
95007W        W56373  44.349  10.143  11.448
95008W        W56374  43.909  43.283   4.120
95009W        W56375  25.553   4.918  13.050
95010W        W56376   8.667  39.443  13.412
95011W        W56377  15.813   4.799  14.027
95012W        W56378  28.480   3.917   2.862
95013W        W56379  37.957   9.237  12.466
95014W        W56380  16.186  18.576  13.366
95015W        W56381  10.856   8.324   1.400
95016W        W56382   4.731  19.057  10.595
95017W        W56383  35.444   2.865  12.442
95018W        W56384   4.315  32.623   0.460
95019W        W56385  18.613  35.985   4.212
95020W        W56386  39.928  26.546   2.290
95021W        W56387  19.132  33.097   4.834
95022W        W56388  21.639   2.736   0.959
95023W        W56389   0.967  13.802   0.373
95024W        W56390   4.766  32.006   3.660
95025W        W56391  25.575  36.577   2.186
95026W        W56392  32.915  11.223   3.781
95027W        W56393  18.104  30.423   4.600
95028W        W56394  27.548  36.359  10.552
95029W        W56395  23.545  14.768   3.749
95030W        W56396  17.267  19.689  12.476
95031W        W56397  38.830  13.704  13.454
95032W        W56398  36.431  37.343   9.967
95033W        W56399  17.713   7.813   0.340
95034W        W56400  34.391  13.640  12.398
95035W        W56401  22.687  13.185   2.390
95036W        W56402  12.314   0.282  12.848
95037W        W56403  25.508  30.422   0.933
95038W        W56404  10.172   3.429   1.818
95039W        W56405  32.104  29.536   1.892
95040W        W56406  35.946  41.449   0.747
95041W        W56407  35.402   4.312  10.466
95042W        W56408  33.068  33.601   0.807
95043W        W56409  39.442  44.826  14.864
95044W        W56410  22.091  36.936   0.372
95045W        W56411  38.929  26.623  11.923
95046W        W56412  22.558   0.346   0.736
95047W        W56413  38.481  20.609  11.453
95048W        W56414  21.206  33.110   3.860
95049W        W56415   5.241  12.612   5.234
95050W        W56416  28.974  30.104  14.856
95051W        W56417   5.299  22.581  14.417
95052W        W56418  32.443  11.207  11.382
95053W        W56419  30.027   6.844   3.731
95054W        W56420   3.742  41.972  13.040
95055W        W56421  35.911   9.207  12.029
95056W        W56422   1.412  33.109   4.134
95057W        W56423  16.598  43.279   2.886
95058W        W56424  40.905  23.597  13.411
95059W        W56425   0.331  11.699  13.004
95060W        W56426   5.784  20.040  12.447
95061W        W56427  14.115  39.410  13.350
95062W        W56428  15.633   9.212   3.235
95063W        W56429  19.540  24.507  14.953
95064W        W56430  12.794  24.566  10.637
95065W        W56431  19.212   4.883   3.216
95066W        W56432  20.573   9.837   0.845
95067W        W56433  24.531  17.086  11.457
95068W        W56434  29.641  38.466   1.867
95069W        W56435  28.442  19.683   3.242
95070W        W56436  29.473  14.129  11.420
95071W        W56437  36.566  17.648   2.308
95072W        W56438  13.244  12.673   4.299
95073W        W56439  28.460  10.337   2.692
95074W        W56440   2.935   2.446  11.970
95075W        W56441  44.821  22.107  14.846
95076W        W56442  32.540  14.231  11.967
95077W        W56443   2.346  10.757  11.442
95078W        W56444  21.511  33.389   4.652
95079W        W56445  29.479  14.177  12.987
95080W        W56446  29.465  11.289  12.076
95081W        W56447   8.812   6.829   4.677
95082W        W56448  21.141   1.773   4.279
95083W        W56449   9.691  20.709   3.771
95084W        W56450  42.484   7.328   1.218
95085W        W56451  31.906   6.878  10.932
95086W        W56452  10.837   8.861   0.399
95087W        W56453  42.403   1.285   3.632
95088W        W56454  35.011  43.415   2.818
95089W        W56455   4.766  21.756   4.787
95090W        W56456  11.709  24.673  12.451
95091W        W56457   6.341   7.910   5.091
95092W        W56458  10.254  11.336   3.221
95093W        W56459   9.236  43.465   1.849
95094W        W56460  25.681  16.074  10.973
95095W        W56461  23.572  10.315   2.810
95096W        W56462   6.363  19.167  14.334
95097W        W56463  14.604  11.359  13.400
95098W        W56464   8.760  43.805  14.456
95099W        W56465  28.951  41.790   4.611
95100W        W56466   8.317  34.115   2.755
95101W        W56467  32.043   9.328   0.366
95102W        W56468  33.074  11.355   4.749
95103W        W56469  15.622  16.594   3.310
95104W        W56470   2.778  22.077   2.250
95105W        W56471  21.218  32.927   4.808
95106W        W56472   4.434  12.335  10.513
95107W        W56473  17.199  16.236  12.450
95108W        W56474  20.200  21.219   1.261
95109W        W56475  13.159  40.917   1.392
95110W        W56476  39.052  19.041   2.890
95111W        W56477  11.758  16.588   0.917
95112W        W56478  43.884   9.759   3.331
95113W        W56479   8.738  33.440  12.966
95114W        W56480  40.518   4.204   0.965
95115W        W56481  30.094   9.694  10.965
95116W        W56482   1.952   7.302   1.934
95117W        W56483  23.071   6.323   3.182
95118W        W56484  34.373  18.697  13.433
95119W        W56485  18.689  17.563  10.511
95120W        W56486  30.089  26.196  11.383
95121W        W56487  12.271  30.447   2.299
95122W        W56488   3.746  36.397   1.868
95123W        W56489  11.331  11.209   1.306
95124W        W56490  22.017   5.223  13.871
95125W        W56491  27.549   8.256   4.745
95126W        W56492   0.961  33.962   1.338
95127W        W56493  33.984  28.569   0.748
95128W        W56494  26.068   7.717  11.040
95129W        W56495  41.945  36.865  12.372
95130W        W56496  21.664   1.354   0.844
95131W        W56497  18.242   4.860  11.398
95132W        W56498   6.834  40.515  12.529
95133W        W56499  13.607  31.566   0.258
95134W        W56500  33.494  35.379  14.317
95135W        W56501   8.719  33.984  11.049
95136W        W56502  13.667   8.268   1.222
95137W        W56503  24.027  17.798   2.211
95138W        W56504  24.658  12.780   3.238
95139W        W56505  43.423  13.290  13.434
95140W        W56506  11.747   2.807   4.300
95141W        W56507  11.183  41.488  12.472
95142W        W56508  23.718  40.364  12.076
95143W        W56509  32.503  41.370   2.237
95144W        W56510  41.297   1.873  13.833
95145W        W56511   6.736  43.391  13.829
95146W        W56512  31.550   1.316  12.559
95147W        W56513  20.531   3.769  14.369
95148W        W56514  17.729  34.476  14.853
95149W        W56515   9.704  15.696  10.942
95150W        W56516  33.588   3.307  14.789
95151W        W56517  20.562   7.695   2.327
95152W        W56518  30.140  34.018  10.455
95153W        W56519  32.566  16.765   2.797
95154W        W56520  29.086  39.904   4.137
95155W        W56521  43.411  33.060  12.399
95156W        W56522   4.755  13.654   9.974
95157W        W56523  33.575  22.202  11.045
95158W        W56524  34.114  34.055   1.245
95159W        W56525  27.065  28.956   1.819
95160W        W56526  11.714  15.132   3.856
95161W        W56527  34.517   0.314  10.603
95162W        W56528  10.788   9.339  11.951
95163W        W56529  18.106  11.623  11.426
95164W        W56530  29.613   2.245   0.825
95165W        W56531  25.674  24.480   0.865
95166W        W56532  34.582  21.562  12.041
95167W        W56533  23.176   9.233  14.341
95168W        W56534  20.262  26.118   2.826
95169W        W56535   7.405  39.427  13.984
95170W        W56536   0.885  29.978   0.304
95171W        W56537  13.751  13.284  14.773
95172W        W56538   0.750  35.037   3.784
95173W        W56539  27.111  18.259  14.841
95174W        W56540  37.493  32.122   4.216
95175W        W56541   0.270   0.902   1.324
95176W        W56542  38.347  12.750   2.679
95177W        W56543  41.876  12.185  12.432
95178W        W56544  11.265   1.759   3.150
95179W        W56545  11.373  39.964  11.380
95180W        W56546  14.244  20.249   5.243
95181W        W56547  35.959  25.564   3.712
95182W        W56548  20.528  35.420  11.599
95183W        W56549  32.443  29.138   3.794
95184W        W56550  37.854  41.307   0.947
95185W        W56551   6.186  20.250  12.972
95186W        W56552  13.113  16.713  14.929
95187W        W56553  32.519  30.959   3.741
95188W        W56554   0.855   6.269  13.922
95189W        W56555  25.494  24.562   2.833
95190W        W56556   8.369   0.378   0.847
95191W        W56557  31.523   4.944  13.467
95192W        W56558  34.433   9.815  14.919
95193W        W56559  40.871  27.562  14.288
95194W        W56560  13.734  13.150  12.912
95195W        W56561   6.343  42.370  12.010
95196W        W56562  39.956  22.702  10.571
95197W        W56563  26.155  34.954  12.969
95198W        W56564  10.771   2.367   1.834
95199W        W56565  30.617  12.754   0.363
95200W        W56566   5.299  22.121   4.203
95201W        W56567  42.454   6.230  11.523
95202W        W56568   2.894   8.292  14.427
95203W        W56569  34.884  34.414   1.433
95204W        W56570  35.044  15.251  14.300
95205W        W56571  22.707   4.290  12.390
95206W        W56572  28.127  44.754   2.795
95207W        W56573  16.711  35.560   0.774
95208W        W56574   6.293  13.716   4.812
95209W        W56575  22.191   7.701   1.751
95210W        W56576   0.945  33.616   3.648
95211W        W56577  11.723  44.348  14.969
95212W        W56578  30.607   6.679  11.994
95213W        W56579   8.866  29.487   3.382
95214W        W56580  22.137  23.734  13.954
95215W        W56581  12.177  36.427  12.544
95216W        W56582  41.322  30.645   2.399
95217W        W56583  17.801   5.298  12.543
95218W        W56584  11.194  10.671   1.714
95219W        W56585   9.392  27.652   3.807
95220W        W56586  24.025  25.997  10.991
95221W        W56587  41.392  12.237  11.579
95222W        W56588   4.773  33.444   4.665
95223W        W56589  21.520  31.504   3.719
95224W        W56590  33.882  39.324  14.407
95225W        W56591  18.195  43.406   1.354
95226W        W56592  25.133  12.642  13.960
95227W        W56593  41.807  43.791   2.308
95228W        W56594  30.050  22.015   0.299
95229W        W56595  32.132  42.422  10.484
95230W        W56596  42.800   1.247  11.910
95231W        W56597  25.536  15.781   1.895
95232W        W56598  41.409   6.820  10.492
95233W        W56599  14.684  29.566  11.471
95234W        W56600  27.561  38.559  12.824
95235W        W56601  30.594  34.870   4.151
95236W        W56602   6.709  40.429   3.266
95237W        W56603  21.044  39.808   1.266
95238W        W56604   7.203  44.478   3.704
95239W        W56605  37.564  39.917   2.808
95240W        W56606  41.811  35.022   4.307
95241W        W56607  17.702  34.560  14.303
95242W        W56608  32.907  26.694  10.569
95243W        W56609  44.263  13.167  13.537
95244W        W56610  25.524  25.668  14.904
95245W        W56611  23.523  15.640   3.770
95246W        W56612  32.125  40.410   1.902
95247W        W56613   5.294  28.061   2.695
95248W        W56614  19.727  38.501  13.005
95249W        W56615   3.720  27.521   3.704
95250W        W56616  25.537  18.644   2.776
95251W        W56617   1.860  43.408  14.830
95252W        W56618  29.650  24.169  12.435
95253W        W56619   7.677  42.857   4.155
95254W        W56620  26.494  27.506   2.848
95255W        W56621  14.599  20.541  12.991
95256W        W56622   1.317  37.840   3.707
95257W        W56623   9.866  18.284  12.840
95258W        W56624  26.510  19.540   3.662
95259W        W56625  22.599  34.981   2.856
95260W        W56626  20.133   8.675  14.803
95261W        W56627  39.546   4.789   3.805
95262W        W56628   9.806  35.075   1.813
95263W        W56629  14.100  27.109  11.002
95264W        W56630  35.920  27.611  13.970
95265W        W56631   9.756  24.647   2.864
95266W        W56632  15.119  15.193  12.524
95267W        W56633  10.345  37.989  12.357
95268W        W56634  22.139  25.128  14.989
95269W        W56635  21.161  27.116  13.358
95270W        W56636  19.772  37.001   2.321
95271W        W56637  32.061  43.942  10.153
95272W        W56638   1.255  20.225  12.827
95273W        W56639  44.468  10.215  14.002
95274W        W56640   5.265  16.212  12.412
95275W        W56641  37.082  12.656   1.771
95276W        W56642  32.117  38.835  10.031
95277W        W56643  11.827  17.668  12.065
95278W        W56644  11.687  13.805  12.999
95279W        W56645   4.727  28.668   1.814
95280W        W56646   2.244   2.908  12.361
95281W        W56647  22.690  26.112  12.578
95282W        W56648   0.348   8.671  13.431
95283W        W56649  32.607  19.716   1.341
95284W        W56650   9.688  31.033   0.958
95285W        W56651  27.979   1.291   1.218
95286W        W56652  21.524  38.409   3.706
95287W        W56653   6.761  13.615  11.913
95288W        W56654  24.170  36.526   2.771
95289W        W56655   1.870  39.971   0.858
95290W        W56656  42.931  14.823  11.504
95291W        W56657  42.465  14.643   1.435
95292W        W56658  22.996  14.796   0.326
95293W        W56659   2.247  11.208  12.471
95294W        W56660   0.968  44.968   0.462
95295W        W56661   3.411   8.343   0.790
95296W        W56662  18.184  39.557   4.276
95297W        W56663  20.029  15.593   4.125
95298W        W56664   7.281  11.844   3.322
95299W        W56665  12.731  36.572   0.914
95300W        W56666   3.742  34.876   1.850
95301W        W56667  37.007   2.411   3.773
95302W        W56668  17.207  20.099  11.411
95303W        W56669  24.154  15.670  12.881
95304W        W56670  12.645  15.667   9.972
95305W        W56671  40.500  39.897   3.238
95306W        W56672   8.859  16.218  12.512
95307W        W56673   7.833  20.572   0.787
95308W        W56674  20.640   5.389   0.780
95309W        W56675   7.903  42.831   2.839
95310W        W56676   8.877  41.910   4.823
95311W        W56677  38.501   6.216  10.532
95312W        W56678  40.033  20.266   3.237
95313W        W56679   5.811  11.748  11.466
95314W        W56680  23.709  22.099   0.753
95315W        W56681  22.088  12.150   1.284
95316W        W56682   9.888  37.341  11.002
95317W        W56683  20.028   3.391   3.785
95318W        W56684  41.950  18.136   0.926
95319W        W56685  36.018  33.486   2.674
95320W        W56686  26.964   1.265  10.465
95321W        W56687  21.022  19.571  11.456
95322W        W56688  30.557   4.828  14.908
95323W        W56689  44.351  13.338   4.202
95324W        W56690  41.468   4.209   0.358
95325W        W56691  43.996  36.445   3.298
95326W        W56692  16.768  42.525   1.363
95327W        W56693  44.981  30.487   4.211
95328W        W56694   1.388  35.998   4.333
95329W        W56695  42.805  15.639   3.833
95330W        W56696  15.093  39.889   3.844
95331W        W56697   4.795  19.219   2.392
95332W        W56698  37.370  14.193  12.480
95333W        W56699   5.215   9.806   3.703
95334W        W56700  22.147  20.269  14.925
95335W        W56701  44.263   1.323  11.895
95336W        W56702  39.902  39.320   0.901
95337W        W56703   3.391  42.922  10.942
95338W        W56704  21.034  24.539  12.408
95339W        W56705   5.787   0.776  13.817
95340W        W56706   6.310  32.403  13.376
95341W        W56707  37.917  39.883   2.882
95342W        W56708   8.883  37.469  12.031
95343W        W56709  37.970   1.278   1.730
95344W        W56710   4.933  39.530   3.650
95345W        W56711   2.879  24.158   0.833
95346W        W56712   1.777  16.686  11.480
95347W        W56713  26.637  20.708   1.737
95348W        W56714  38.846  16.208  11.500
95349W        W56715  34.109  41.415   2.391
95350W        W56716  24.113  12.773  14.978
95351W        W56717  43.440  18.113   1.299
95352W        W56718  36.025  34.432  14.792
95353W        W56719  24.117   5.702   4.706
95354W        W56720  42.300  26.691   4.777
95355W        W56721  19.155  37.438  11.950
95356W        W56722  38.943  10.675  11.890
95357W        W56723  24.185   2.848   2.806
95358W        W56724   1.907  21.059  12.888
95359W        W56725  43.858  30.119  11.404
95360W        W56726  40.016  29.660  14.845
95361W        W56727  24.043  27.174  13.839
95362W        W56728  33.993  31.442  11.445
95363W        W56729  26.185  13.650   0.728
95364W        W56730  21.104  26.037   1.247
95365W        W56731  17.092  20.595   2.419
95366W        W56732  25.216  26.464  13.800
95367W        W56733  44.777  37.540   4.148
95368W        W56734  37.055  27.528   0.840
95369W        W56735   4.746  14.709   4.611
95370W        W56736  21.049  21.107   5.263
95371W        W56737  35.460  32.467   4.792
95372W        W56738  26.051   1.878   2.773
95373W        W56739  11.259  17.642  14.492
95374W        W56740  38.821  39.434   1.897
95375W        W56741  32.896  29.475   3.317
95376W        W56742  35.917  38.513  14.345
95377W        W56743  12.797  41.042   0.912
95378W        W56744  34.441  40.895   4.169
95379W        W56745  44.276  13.342  13.063
95380W        W56746  25.482   8.348  13.507
95381W        W56747  14.193  41.393   2.902
95382W        W56748  23.039  31.498  14.384
95383W        W56749  14.220  12.135   4.332
95384W        W56750  24.723   7.207  14.364
95385W        W56751  43.440  18.132   0.323
95386W        W56752   4.722  10.825   0.456
95387W        W56753   7.360  39.825  12.878
95388W        W56754  34.494  34.558  11.600
95389W        W56755  33.397  42.395  13.375
95390W        W56756  35.398  20.105   2.827
95391W        W56757  42.999  38.541   2.664
95392W        W56758  34.098  24.017  10.611
95393W        W56759   3.853  14.742  10.980
95394W        W56760  44.405  12.333   0.880
95395W        W56761  35.498  43.453   5.614
95396W        W56762  36.852  41.883  10.576
95397W        W56763  31.590  10.754   0.857
95398W        W56764  31.488  42.417  11.979
95399W        W56765  42.940  17.802  11.514
95400W        W56766  18.171  32.142   2.245
95401W        W56767  32.117   8.825   2.306
95402W        W56768  32.131  13.675   4.305
95403W        W56769  31.968  11.146  14.343
95404W        W56770  25.186   9.305  11.480
95405W        W56771  14.731  23.050  11.013
95406W        W56772  17.790   4.364   1.786
95407W        W56773  25.580  37.454  11.380
95408W        W56774  34.881  30.655  11.047
95409W        W56775  44.264  40.830  13.365
95410W        W56776  15.143  36.361   4.651
95411W        W56777  11.710  34.013  13.428
95412W        W56778  38.036  34.600   0.431
95413W        W56779   6.365  36.942  12.836
95414W        W56780  27.675  30.047  14.399
95415W        W56781  39.321   9.850   0.937
95416W        W56782  33.421   1.426  13.318
95417W        W56783   1.475   7.255  10.949
95418W        W56784   0.287  29.934   0.937
95419W        W56785  42.783   3.392  11.903
95420W        W56786  10.160  14.752   9.928
95421W        W56787   4.714  12.706  13.471
95422W        W56788  28.542  35.487  10.446
95423W        W56789  22.539   8.773   3.704
95424W        W56790  37.832  23.138  11.123
95425W        W56791   6.283  18.081   1.242
95426W        W56792  17.616   9.163  14.315
95427W        W56793  22.140  29.008   3.659
95428W        W56794   4.918  34.867   4.642
95429W        W56795  21.723  33.446   0.918
95430W        W56796  31.020  35.586   3.323
95431W        W56797   1.305   0.442   0.268
95432W        W56798  21.682   1.308  10.904
95433W        W56799   5.284  21.724  12.424
95434W        W56800  28.594   2.374   0.293
95435W        W56801  27.180  15.692   3.195
95436W        W56802  28.990  33.474  12.412
95437W        W56803  29.012   8.170  10.999
95438W        W56804  25.637   5.929  10.475
95439W        W56805  36.979  39.933  13.363
95440W        W56806  37.459  27.027  11.124
95441W        W56807  16.288  35.902   3.782
95442W        W56808   0.895  42.336   2.763
95443W        W56809  37.442  10.229   1.897
95444W        W56810  11.822  26.695  10.557
95445W        W56811  38.555   9.854  12.400
95446W        W56812  20.636  26.979  11.539
95447W        W56813  29.584  28.629  12.403
95448W        W56814  24.131   9.748  10.975
95449W        W56815  44.294   7.412  11.497
95450W        W56816  15.675  17.639   1.243
95451W        W56817  43.861  13.682   2.695
95452W        W56818  15.257  16.761  10.476
95453W        W56819  35.571   6.225   3.645
95454W        W56820  19.644  40.819   3.258
95455W        W56821  26.554   3.741  13.894
95456W        W56822  31.044  28.974  13.030
95457W        W56823  20.260  16.794  14.455
95458W        W56824  25.574  40.012  12.993
95459W        W56825  24.115  26.015  11.942
95460W        W56826  18.638  36.544   5.164
95461W        W56827  38.029  34.930   0.467
95462W        W56828  34.021  12.658  11.974
95463W        W56829   7.756  22.542  12.945
95464W        W56830   5.216  22.624   3.219
95465W        W56831   9.677  11.777   1.859
95466W        W56832  30.624  39.363  13.372
95467W        W56833  33.382  40.326   0.290
95468W        W56834   8.372  11.335  10.974
95469W        W56835  33.614  15.817   3.327
95470W        W56836   3.291  28.986  12.957
95471W        W56837  25.132  18.123  11.986
95472W        W56838  26.544   0.926   0.892
95473W        W56839  23.018  11.791  13.326
95474W        W56840  42.322  26.632   0.364
95475W        W56841   6.406  19.677  13.816
95476W        W56842  10.732   4.747   2.316
95477W        W56843  25.602   9.776  10.536
95478W        W56844  43.861  26.962   4.146
95479W        W56845  15.250  29.151   1.424
95480W        W56846  15.251  24.186   0.886
95481W        W56847  23.651  41.020   1.771
95482W        W56848  41.896  11.770   3.374
95483W        W56849  22.084   7.732  11.585
95484W        W56850  17.193  12.855  13.484
95485W        W56851  25.080   1.970  14.376
95486W        W56852  42.013  14.114   9.975
95487W        W56853   5.310  10.218   4.171
95488W        W56854  17.112  33.386   3.851
95489W        W56855  25.619  17.274   0.412
95490W        W56856  36.012   5.268  13.442
95491W        W56857  31.909  11.630   2.729
95492W        W56858  37.457  24.110  14.386
95493W        W56859  18.170  11.770  10.435
95494W        W56860  38.907  32.426   4.772
95495W        W56861  15.796  44.924  14.450
95496W        W56862  38.442  41.291  12.430
95497W        W56863  18.215  24.650  11.891
95498W        W56864   4.886   6.386  10.475
95499W        W56865  18.269  29.648  12.981
95500W        W56866  35.602  44.885   1.279
95501W        W56867  40.981   9.879   2.680
95502W        W56868  33.989  37.556  13.020
95503W        W56869   6.895   7.787   9.931
95504W        W56870  44.456  39.907  10.412
95505W        W56871  36.483  25.555  10.468
95506W        W56872  30.649  11.819  12.053
95507W        W56873   8.771  32.045   0.773
95508W        W56874  18.194  27.951   4.214
95509W        W56875  37.931  40.417  10.915
95510W        W56876   0.298  24.147   0.776
95511W        W56877  17.196   5.912  14.832
95512W        W56878   8.160  23.644  12.054
95513W        W56879  43.780  13.290   2.327
95514W        W56880  20.051  29.040   3.635
95515W        W56881   6.739  22.074   4.141
95516W        W56882  40.438   8.344   3.666
95517W        W56883  14.281   8.833   1.447
95518W        W56884  33.962  38.465   1.767
95519W        W56885   1.955  19.692  14.299
95520W        W56886  18.187  43.967  12.006
95521W        W56887  18.761   6.197   5.203
95522W        W56888   3.721   5.217  14.846
95523W        W56889  24.712   5.813   0.874
95524W        W56890  32.076  39.335  11.532
95525W        W56891  33.125  14.665  11.377
95526W        W56892  16.113   4.367   2.734
95527W        W56893  35.013  17.605  10.497
95528W        W56894  44.268  32.410   0.415
95529W        W56895  39.975  14.827   2.237
95530W        W56896  42.945  14.727   2.884
95531W        W56897  34.555   7.682  12.056
95532W        W56898   2.300  27.544   3.721
95533W        W56899  31.530  43.447  12.902
95534W        W56900  31.987  25.582  11.492
95535W        W56901  34.055  12.122  12.373
95536W        W56902  18.694  35.375  12.855
95537W        W56903  26.464  24.553  13.379
95538W        W56904  32.516  24.072   3.738
95539W        W56905   3.330   6.898  10.567
95540W        W56906  37.491  32.978   3.152
95541W        W56907  33.931  14.274   4.712
95542W        W56908  11.721   6.736   1.710
95543W        W56909  17.650  13.234   2.750
95544W        W56910   3.324  10.797   2.800
95545W        W56911  12.750  32.571   2.785
95546W        W56912  42.845  12.757   2.698
95547W        W56913  39.385  29.026   4.270
95548W        W56914  17.682  43.293  13.979
95549W        W56915  17.061  26.510  12.440
95550W        W56916  14.828   6.921   0.438
95551W        W56917   0.372  29.109  13.043
95552W        W56918  20.674  27.171   3.819
95553W        W56919  25.665  35.576  14.441
95554W        W56920  25.155   0.312  12.909
95555W        W56921  42.309   3.715  14.281
95556W        W56922  26.174  34.581   3.159
95557W        W56923  12.775  44.291   2.182
95558W        W56924  21.088   6.282  12.398
95559W        W56925  42.927  21.128  12.369
95560W        W56926  41.378  33.040  12.965
95561W        W56927  41.041  14.193   4.291
95562W        W56928  38.443   2.320   0.839
95563W        W56929  18.780  32.617   3.219
95564W        W56930   1.390   3.436  12.345
95565W        W56931   0.485   6.262   3.685
95566W        W56932   2.837  25.059  13.461
95567W        W56933  18.585  10.222  12.370
95568W        W56934  31.460  11.277   0.425
95569W        W56935  39.325  32.612  10.925
95570W        W56936  28.978  29.017   1.329
95571W        W56937  33.976  25.079  11.928
95572W        W56938  37.488  39.852  13.944
95573W        W56939  20.237  29.122  11.425
95574W        W56940  19.283  32.101  14.289
95575W        W56941  43.291  11.152   4.290
95576W        W56942  40.474  22.609  11.029
95577W        W56943   4.268   0.352   2.405
95578W        W56944   2.325  23.669   2.321
95579W        W56945   7.712   0.249   4.617
95580W        W56946   6.199  38.999   1.782
95581W        W56947  38.924  18.711  11.914
95582W        W56948  29.510  21.752  11.534
95583W        W56949   3.292  44.792  13.936
95584W        W56950  27.060   6.297   4.665
95585W        W56951  21.553  11.630   3.693
95586W        W56952  35.860  27.010  11.602
95587W        W56953   3.259  39.844  12.452
95588W        W56954   6.849   7.372   9.920
95589W        W56955  31.051  33.124   4.663
95590W        W56956  17.794  32.014   3.738
95591W        W56957   2.828  24.594   3.281
95592W        W56958  12.654  19.128  13.916
95593W        W56959  21.067  30.057  14.417
95594W        W56960   9.379  39.410   3.371
95595W        W56961  28.042  33.890  12.406
95596W        W56962  36.006  17.077  11.071
95597W        W56963   1.794  36.923  12.345
95598W        W56964  14.829  43.874  10.507
95599W        W56965  22.216  35.933   4.774
95600W        W56966  23.609   8.401  13.356
95601W        W56967  43.280   5.774  11.865
95602W        W56968  16.221  33.036   2.664
95603W        W56969  44.935  22.720  11.052
95604W        W56970  28.101  30.447  12.894
95605W        W56971  11.355  16.089  14.430
95606W        W56972   8.882  31.979   2.767
95607W        W56973  11.734   9.682   3.198
95608W        W56974  27.675   0.947  12.984
95609W        W56975  19.177  20.156   3.387
95610W        W56976  32.905   9.312   0.321
95611W        W56977  44.844   1.917   3.736
95612W        W56978  41.893   5.796   0.431
95613W        W56979  14.665  21.235  10.006
95614W        W56980  34.896   3.262  11.122
95615W        W56981  36.529  14.680   0.342
95616W        W56982  41.305  28.160  13.480
95617W        W56983  32.121   5.828  14.489
95618W        W56984  11.809   0.853   2.718
95619W        W56985  24.103  17.073   0.340
95620W        W56986  14.626  35.457  14.277
95621W        W56987  17.798   4.258  13.971
95622W        W56988   8.673   9.822  10.469
95623W        W56989  44.934  11.836  10.070
95624W        W56990   1.758  35.084  14.316
95625W        W56991  33.441  11.860  12.535
95626W        W56992  36.089   5.732   4.293
95627W        W56993  20.265  32.438  10.985
95628W        W56994  10.693  25.567  12.440
95629W        W56995  33.421  14.698  13.984
95630W        W56996   1.735  10.302  13.390
95631W        W56997  32.489  38.916  11.469
95632W        W56998  40.464   5.717   1.789
95633W        W56999   3.281  16.184  11.595
95634W        W57000   5.284   8.306  10.465
95635W        W57001  33.129  37.025   2.668
95636W        W57002  23.685  24.505   3.339
95637W        W57003  16.684   4.935   4.161
95638W        W57004  27.610  40.537   1.312
95639W        W57005  28.091   3.413   0.832
95640W        W57006   3.723   0.916   4.336
95641W        W57007   1.314  35.975  12.069
95642W        W57008  39.544  25.062  10.450
95643W        W57009  18.268  23.490   3.210
95644W        W57010  20.138   4.258   2.689
95645W        W57011  28.454  11.169  13.354
95646W        W57012   7.303   9.322  12.411
95647W        W57013  24.075  35.009   2.389
95648W        W57014  43.421  17.644   4.285
95649W        W57015  29.962  40.985   2.418
95650W        W57016  20.618  28.964  14.329
95651W        W57017   1.319  18.615  10.634
95652W        W57018  21.533  23.082   0.814
95653W        W57019  39.885  24.098   0.274
95654W        W57020  35.078  12.120  13.040
95655W        W57021   8.699   1.421   3.300
95656W        W57022   4.315  29.465  12.527
95657W        W57023   6.418  24.003   4.260
95658W        W57024  44.329   2.926  12.455
95659W        W57025   7.668  40.517   1.434
95660W        W57026  38.327  25.634   4.766
95661W        W57027  40.355  16.283   1.900
95662W        W57028   1.825   9.277  11.916
95663W        W57029  11.771  10.647   2.181
95664W        W57030  17.247  23.168  11.955
95665W        W57031   1.890  38.443   4.204
95666W        W57032  32.434  40.315  13.355
95667W        W57033   3.827   9.724  13.962
95668W        W57034   5.778  21.210   2.398
95669W        W57035  41.478  21.586   3.237
95670W        W57036  16.628   5.318  10.625
95671W        W57037   4.809  10.261   2.878
95672W        W57038  38.445  31.442   3.282
95673W        W57039  33.486  17.137  10.636
95674W        W57040  27.977  12.642   2.255
95675W        W57041  10.353   0.350   0.953
95676W        W57042  27.073  15.729  12.406
95677W        W57043  19.136   3.358  11.112
95678W        W57044   5.793  30.457  10.540
95679W        W57045  18.684   8.368  14.778
95680W        W57046  27.521   3.288   4.637
95681W        W57047  29.157  39.545  11.500
95682W        W57048  15.091  27.645   2.379
95683W        W57049  24.028  18.255   1.906
95684W        W57050  12.279   6.242   1.332
95685W        W57051  22.242  16.224  12.047
95686W        W57052   6.420  24.998   4.644
95687W        W57053  41.867  20.645  12.340
95688W        W57054  16.197   9.758   4.716
95689W        W57055  35.023   1.830  10.614
95690W        W57056  30.429  34.570  13.468
95691W        W57057  17.234  20.604  10.999
95692W        W57058  18.246  20.229  13.395
95693W        W57059  19.236  35.960   4.601
95694W        W57060  37.897  19.146  12.844
95695W        W57061   5.696  30.478   4.759
95696W        W57062  26.654   2.278  13.444
95697W        W57063  21.623   8.239  13.810
95698W        W57064  23.121  25.129  12.999
95699W        W57065  41.809   0.799   1.263
95700W        W57066  38.834   4.289  12.063
95701W        W57067   9.390  22.550  12.353
95702W        W57068  26.678  16.662  13.461
95703W        W57069  41.799  38.379  12.477
95704W        W57070  16.144  24.599  12.052
95705W        W57071  14.280   6.707   4.344
95706W        W57072  25.498  25.597  10.967
95707W        W57073  28.181  35.586  11.913
95708W        W57074  17.717  11.786  12.003
95709W        W57075  34.905  42.958   1.361
95710W        W57076  19.267  30.148  12.087
95711W        W57077   0.262  32.895   3.297
95712W        W57078  17.260  19.266  14.282
95713W        W57079   6.772  19.649   1.874
95714W        W57080  25.151  35.066   3.770
95715W        W57081  44.899  30.029  10.911
95716W        W57082  32.027   3.236   3.683
95717W        W57083  19.240  38.560   3.739
95718W        W57084  17.648  28.442  14.317
95719W        W57085  35.374  32.033   2.889
95720W        W57086  11.700  30.951   0.434
95721W        W57087   9.221  29.546   1.851
95722W        W57088   4.808   3.254  12.828
95723W        W57089  42.446   6.719   1.776
95724W        W57090  33.893  42.432  10.921
95725W        W57091  28.935   1.915   0.288
95726W        W57092  22.117  34.610  12.890
95727W        W57093   2.255  14.214   9.942
95728W        W57094  36.430   3.417  12.550
95729W        W57095  10.650   5.918  14.951
95730W        W57096  35.108  24.575   4.597
95731W        W57097   7.801   6.234  10.406
95732W        W57098  18.101  40.331   3.186
95733W        W57099  18.593  32.494   0.913
95734W        W57100  35.994  41.032   2.294
95735W        W57101  24.132  29.920   2.887
95736W        W57102   4.395  13.311   0.353
95737W        W57103  41.886  11.181  12.463
95738W        W57104  37.083  41.920   2.857
95739W        W57105  39.891  17.802  12.085
95740W        W57106  36.034  42.970  13.876
95741W        W57107  33.056  18.585  12.487
95742W        W57108   7.789  35.978  12.507
95743W        W57109  40.500   2.364   4.795
95744W        W57110  31.096  14.110  13.313
95745W        W57111  23.228  36.045   2.786
95746W        W57112  31.120  34.400  12.833
95747W        W57113  43.307  33.969   1.419
95748W        W57114  13.678  29.931   3.858
95749W        W57115  19.180  36.010  12.471
95750W        W57116  19.068  38.908   4.679
95751W        W57117  41.931  24.181  13.418
95752W        W57118  18.791  23.189   0.352
95753W        W57119   6.189  23.526  12.968
95754W        W57120   4.221  14.795   2.279
95755W        W57121   3.303   3.432  12.850
95756W        W57122  41.361  38.433  11.583
95757W        W57123  28.136  21.052  14.435
95758W        W57124   4.444  30.462  11.518
95759W        W57125  22.164  26.065   4.239
95760W        W57126   2.325   4.378  10.559
95761W        W57127  18.260  13.246  11.865
95762W        W57128  19.744  38.380  11.022
95763W        W57129  29.981  14.188   0.293
95764W        W57130  16.134  36.876   0.792
95765W        W57131  18.687  30.526   0.822
95766W        W57132   5.810   4.872  11.387
95767W        W57133  13.732  36.447   4.158
95768W        W57134   8.893   9.221  14.463
95769W        W57135   0.853  21.672   0.775
95770W        W57136  26.072  25.164  13.330
95771W        W57137  19.251  35.541   5.742
95772W        W57138  20.699  31.626   3.836
95773W        W57139  16.269  36.870   2.722
95774W        W57140   4.387  37.417  13.015
95775W        W57141  33.624   9.242   5.173
95776W        W57142  14.125  37.991  14.354
95777W        W57143  15.694  15.085   3.834
95778W        W57144   0.818  29.042   2.278
95779W        W57145  13.265  36.952  11.121
95780W        W57146   9.228   5.332   3.247
95781W        W57147  29.148  36.075   2.257
95782W        W57148  21.516  43.014   2.258
95783W        W57149  10.736  33.939  13.329
95784W        W57150  19.686  44.446   3.266
95785W        W57151  35.424  30.552  14.024
95786W        W57152   1.954   0.871   2.694
95787W        W57153   6.804  37.868   3.664
95788W        W57154  13.125  33.411  14.876
95789W        W57155  18.550   8.674  13.314
95790W        W57156  12.780  39.495  13.968
95791W        W57157  33.593  28.044   3.696
95792W        W57158   9.829  28.954   2.774
95793W        W57159  39.336  24.092   2.290
95794W        W57160  21.547  36.865   2.197
95795W        W57161  11.698  11.288   3.337
95796W        W57162  30.557  35.525  10.456
95797W        W57163  33.007  20.561   0.813
95798W        W57164  23.651  38.920  13.056
95799W        W57165  26.558  38.897   1.759
95800W        W57166   9.645  30.585  10.987
95801W        W57167   2.777  13.716  13.894
95802W        W57168  27.008   8.406  11.026
95803W        W57169  44.354   1.917  13.057
95804W        W57170   9.871   1.420   2.831
95805W        W57171  34.414  18.561  14.934
95806W        W57172   5.773   8.329  11.966
95807W        W57173  27.175  34.110  13.889
95808W        W57174  17.266  44.319  10.095
95809W        W57175  22.661  24.998   2.333
95810W        W57176  42.793  33.542   1.760
95811W        W57177  26.105  36.531  14.313
95812W        W57178  24.590  24.118  12.379
95813W        W57179   5.370   7.392  12.910
95814W        W57180  31.614  18.296   3.793
95815W        W57181  11.237  22.501   4.327
95816W        W57182   0.299  43.483   4.152
95817W        W57183  26.146  39.497   2.268
95818W        W57184  16.669  42.436   3.195
95819W        W57185   5.782  24.603  14.958
95820W        W57186  44.979  20.190   3.813
95821W        W57187  38.991  26.034  10.435
95822W        W57188  15.244  35.063   4.622
95823W        W57189  19.113  43.291   0.936
95824W        W57190  19.138  38.500  11.105
95825W        W57191   2.855   7.863  10.992
95826W        W57192  31.584  23.620   2.716
95827W        W57193   0.834  31.975  13.042
95828W        W57194  39.551  28.575   2.903
95829W        W57195   9.773  26.585  13.479
95830W        W57196  39.407  30.156   0.955
95831W        W57197  22.125  27.027  14.797
95832W        W57198  27.660  36.536  10.970
95833W        W57199   0.283  19.768  14.992
95834W        W57200   8.258  40.034  10.636
95835W        W57201   1.932  43.007   3.320
95836W        W57202  18.189  31.071   2.240
95837W        W57203  40.491  42.511   1.286
95838W        W57204  22.166   2.372   2.391
95839W        W57205   0.332  41.803   2.770
95840W        W57206  41.024   4.271   0.481
95841W        W57207  39.502   8.663   4.334
95842W        W57208  31.135  21.134   5.592
95843W        W57209  27.119  29.466   2.695
95844W        W57210  18.203  19.556  12.082
95845W        W57211  36.420  35.982  14.884
95846W        W57212   8.808  41.895   4.157
95847W        W57213   5.279  23.107   3.706
95848W        W57214  28.659   2.920  13.000
95849W        W57215  11.211   9.808  11.512
95850W        W57216  13.609   7.856  12.063
95851W        W57217  13.715  29.074  14.495
95852W        W57218  25.611  35.440  14.991
95853W        W57219  34.005  20.672   1.701
95854W        W57220  41.402  27.454   3.776
95855W        W57221  18.748  27.997  11.565
95856W        W57222   9.221   7.791   2.847
95857W        W57223  42.442  39.809  14.008
95858W        W57224   1.268  25.059   2.416
95859W        W57225   9.340  12.166   0.421
95860W        W57226  19.636  23.233   1.354
95861W        W57227   2.260   6.871   3.843
95862W        W57228   1.868  20.544  12.047
95863W        W57229  17.137   5.280   1.760
95864W        W57230  13.112  30.430   3.709
95865W        W57231  41.885  44.838  14.511
95866W        W57232  41.307  38.004   2.290
95867W        W57233   0.820  40.864   4.141
95868W        W57234  24.590  13.675  12.873
95869W        W57235   1.833  41.316   2.740
95870W        W57236  24.627   9.881  13.414
95871W        W57237  16.160  14.800   3.174
95872W        W57238  24.022   5.425   3.639
95873W        W57239  37.451   5.308   4.605
95874W        W57240  28.056   8.331   0.912
95875W        W57241  38.402  36.884   3.786
95876W        W57242  32.469  16.182  10.892
95877W        W57243  35.399  38.525   2.822
95878W        W57244   3.809  23.097  14.782
95879W        W57245  24.978  41.414  11.982
95880W        W57246   5.791  13.167  12.516
95881W        W57247  21.718  39.825   0.819
95882W        W57248  32.056   1.293   3.856
95883W        W57249  10.241   0.935  12.429
95884W        W57250   6.269   9.256   3.340
95885W        W57251   1.398  28.558   2.183
95886W        W57252  44.346  41.002   2.669
95887W        W57253   8.733  13.607  13.059
95888W        W57254   7.901  18.760  14.873
95889W        W57255  39.454  31.627   1.881
95890W        W57256   8.275  34.107  10.929
95891W        W57257   0.367  17.766  13.853
95892W        W57258  20.073  33.060   0.319
95893W        W57259  26.052  25.544  13.063
95894W        W57260  10.794  10.290  13.857
95895W        W57261   3.303  27.494   3.192
95896W        W57262   4.890  24.703  13.840
95897W        W57263   7.279  29.606  11.453
95898W        W57264   4.233  38.980   1.241
95899W        W57265   4.802  17.627  14.005
95900W        W57266  11.271  13.149  11.041
95901W        W57267  24.684  30.426  12.470
95902W        W57268  43.002  20.092   2.791
95903W        W57269  12.854   3.362  11.922
95904W        W57270  25.145  13.275   4.264
95905W        W57271  14.242  14.795  13.503
95906W        W57272  22.544   7.417   3.286
95907W        W57273  28.459  19.650   3.726
95908W        W57274  38.024  12.749   5.218
95909W        W57275  44.426  24.148   0.366
95910W        W57276  13.174  41.345   2.406
95911W        W57277  36.426  19.271   3.679
95912W        W57278   2.369   7.783  11.521
95913W        W57279  18.650  15.295  10.961
95914W        W57280  15.814  43.994  10.154
95915W        W57281  12.234  42.916   2.216
95916W        W57282  37.999  41.538   3.652
95917W        W57283  18.626  30.027   1.757
95918W        W57284  34.945  42.301   9.540
95919W        W57285   6.691  32.480   2.283
95920W        W57286  25.584   8.830  12.459
95921W        W57287  26.063   6.312  12.085
95922W        W57288  42.908  25.071   3.339
95923W        W57289  37.565  40.371  11.954
95924W        W57290  17.077  21.626   0.770
95925W        W57291  27.106  44.282  11.401
95926W        W57292  27.008   2.720   1.406
95927W        W57293  23.078  41.970   4.345
95928W        W57294  29.550  27.049   9.543
95929W        W57295  20.610  43.499   1.339
95930W        W57296  28.954  33.489   2.194
95931W        W57297  38.935  12.647   0.308
95932W        W57298  32.057  43.979   4.119
95933W        W57299  24.160  12.664  10.947
95934W        W57300  13.186  22.701   2.862
95935W        W57301  40.441  24.572   0.318
95936W        W57302  34.905  15.105   2.770
95937W        W57303  36.975   2.887   1.837
95938W        W57304  25.188  44.009   2.197
95939W        W57305   6.830   2.727   4.769
95940W        W57306  14.768  34.906  10.946
95941W        W57307   5.785  44.295   4.803
95942W        W57308  11.135  36.389  12.368
95943W        W57309  40.986  10.138  12.845
95944W        W57310   1.953  21.071   5.263
95945W        W57311  34.865  21.228   3.642
95946W        W57312   9.862  17.093   2.318
95947W        W57313   5.230  35.923  13.307
95948W        W57314   5.320  28.131   1.834
95949W        W57315  43.913  15.639   3.805
95950W        W57316  35.076  22.111  13.034
95951W        W57317  25.101  30.425  14.992
95952W        W57318  28.617  30.585  13.969
95953W        W57319  23.643   7.864  10.091
95954W        W57320  35.862  41.864  12.571
95955W        W57321  35.852   1.469  14.775
95956W        W57322  16.248  16.633   3.817
95957W        W57323  37.524  13.802   2.248
95958W        W57324  34.572  37.055  14.345
95959W        W57325  26.482  30.591  13.041
95960W        W57326  31.567   1.903   3.186
95961W        W57327  27.062  30.546   1.322
95962W        W57328  33.618  43.004  14.956
95963W        W57329  33.913  44.932  13.432
95964W        W57330  41.300  25.080   1.823
95965W        W57331  14.601  42.864  11.967
95966W        W57332  37.876  16.694   4.306
95967W        W57333  30.471  39.937  10.978
95968W        W57334  38.883  43.911   1.844
95969W        W57335   0.377  15.822  10.980
95970W        W57336  37.339  17.256   4.236
95971W        W57337  42.393  22.101   0.445
95972W        W57338  26.516  13.109   3.832
95973W        W57339  15.773  30.439  10.012
95974W        W57340  17.716   2.304  13.959
95975W        W57341   3.933  11.785   0.418
95976W        W57342  25.172  38.847  11.528
95977W        W57343  39.997   9.376  12.060
95978W        W57344  31.975   2.803  10.450
95979W        W57345  34.112  44.907   2.673
95980W        W57346   1.749  19.060   3.722
95981W        W57347  18.761  18.778  12.091
95982W        W57348  11.354  11.254   0.861
95983W        W57349  34.504  29.959   4.331
95984W        W57350  25.660  42.917   1.730
95985W        W57351  13.739   8.824  13.829
95986W        W57352  13.689  23.599   4.714
95987W        W57353  41.851  11.273   0.963
95988W        W57354  23.056  16.243   4.233
95989W        W57355  38.493  33.501  13.792
95990W        W57356   5.417   1.255  12.374
95991W        W57357   9.224  38.432   0.875
95992W        W57358   3.773   2.298   4.130
95993W        W57359   3.919  15.107   1.391
95994W        W57360  14.215   8.363   4.777
95995W        W57361  40.017   8.752  14.369
95996W        W57362  40.364   1.800   2.349
95997W        W57363  22.133   1.850  11.124
95998W        W57364  43.371  22.715   1.722
95999W        W57365   7.357   0.751   0.782
96000W        W57366  32.632  42.283   1.344
96001W        W57367   7.718  36.929  10.607
96002W        W57368  20.154  36.955  12.069
96003W        W57369   3.236  21.702   3.379
96004W        W57370  29.008  27.638   9.582
96005W        W57371   0.366  10.175  11.993
96006W        W57372  23.502  27.611  10.613
96007W        W57373  33.528  34.558  13.918
96008W        W57374  36.349  29.451  10.406
96009W        W57375  26.981   0.947   9.936
96010W        W57376  38.955  44.439   0.434
96011W        W57377   9.658  29.092  12.397
96012W        W57378  33.057  23.213  12.032
96013W        W57379  18.138   4.708  13.475
96014W        W57380  27.621   0.989   4.209
96015W        W57381  16.648   2.226  14.920
96016W        W57382   6.800  28.603  14.818
96017W        W57383  22.566   2.251   3.339
96018W        W57384   6.850  19.194  13.458
96019W        W57385  21.139   7.388   9.973
96020W        W57386  35.516  42.437  14.789
96021W        W57387  36.357  43.300   2.419
96022W        W57388  36.924  40.931   1.730
96023W        W57389   2.433  16.096  12.412
96024W        W57390   5.249  12.294  11.515
96025W        W57391  11.828  33.422   4.157
96026W        W57392  13.601  28.494   2.305
96027W        W57393  13.708  35.510   4.696
96028W        W57394  16.264  42.370   2.704
96029W        W57395  10.270  28.118   2.294
96030W        W57396  42.784  35.928  10.125
96031W        W57397  36.438  14.181  12.417
96032W        W57398  14.150  26.480  11.448
96033W        W57399   1.869  15.160   1.706
96034W        W57400   8.405  18.685  11.597
96035W        W57401  22.056  23.234  14.419
96036W        W57402  24.692  22.191  10.636
96037W        W57403  28.183  19.198  12.985
96038W        W57404  16.165  24.577   3.731
96039W        W57405  28.133  44.947   2.194
96040W        W57406   8.192  10.138  13.497
96041W        W57407   8.195  40.509  10.923
96042W        W57408  27.996   8.250  10.155
96043W        W57409  29.063   3.813  10.565
96044W        W57410  12.180  36.587  14.869
96045W        W57411  35.025  30.565   0.426
96046W        W57412  41.502  43.837   2.770
96047W        W57413  11.171  40.955   1.900
96048W        W57414  42.838   5.391  11.378
96049W        W57415  24.674  21.181   2.785
96050W        W57416   9.351  17.104  14.382
96051W        W57417   5.266  11.360   2.264
96052W        W57418  22.220  27.598   3.689
96053W        W57419  34.027  28.084   1.378
96054W        W57420   5.260   9.325  11.079
96055W        W57421  10.373   6.790   2.867
96056W        W57422  14.118  13.839  11.596
96057W        W57423  16.573  23.584  14.510
96058W        W57424  11.734  17.161   1.321
96059W        W57425  22.052  20.655  12.416
96060W        W57426  11.202  44.360  13.034
96061W        W57427  33.018   3.954  10.983
96062W        W57428   4.400   6.848  14.377
96063W        W57429  27.453  41.348  13.488
96064W        W57430  30.908  14.757  11.014
96065W        W57431  13.272  30.931  14.297
96066W        W57432  16.783  40.910  12.546
96067W        W57433  29.159  33.095   3.274
96068W        W57434  37.031  33.036  10.523
96069W        W57435  26.189  39.477  13.045
96070W        W57436   9.673  33.485  12.517
96071W        W57437  42.019   8.198  13.857
96072W        W57438  32.083  34.948  13.376
96073W        W57439  29.983  21.524   4.239
96074W        W57440   1.398  42.960   2.387
96075W        W57441  39.925  32.082  13.943
96076W        W57442  44.467  26.132  11.864
96077W        W57443  11.821   8.401  12.062
96078W        W57444  24.010  42.804   0.301
96079W        W57445  24.022  15.626   0.388
96080W        W57446  22.525  19.773   3.810
96081W        W57447  43.402  38.379   3.324
96082W        W57448  25.579  20.701   4.761
96083W        W57449   3.874  24.137  10.941
96084W        W57450  37.506  26.190   4.205
96085W        W57451   4.840  36.024  11.001
96086W        W57452   3.783   6.236  13.841
96087W        W57453  34.908  27.984   3.698
96088W        W57454  34.576   3.335   3.746
96089W        W57455  34.475  43.431  12.004
96090W        W57456  20.147  20.755   2.193
96091W        W57457  21.222  35.456   5.254
96092W        W57458   0.827  40.907   3.381
96093W        W57459   8.787  35.041  12.556
96094W        W57460  35.880   5.707  10.601
96095W        W57461  38.395   7.257  12.560
96096W        W57462  17.583  27.069   0.451
96097W        W57463  18.064  15.628   2.722
96098W        W57464  11.331  16.096   3.687
96099W        W57465  10.232  18.067  11.507
96100W        W57466  12.718  40.835   4.749
96101W        W57467   8.402  44.810  10.983
96102W        W57468   8.269  23.697   3.260
96103W        W57469  43.842  41.386  11.404
96104W        W57470  21.681  17.063   2.339
96105W        W57471  44.345   2.786  11.873
96106W        W57472  12.283   0.276   2.669
96107W        W57473   1.788  29.080  13.367
96108W        W57474  42.925  15.135  11.436
96109W        W57475  27.955   7.305   9.962
96110W        W57476  29.538  33.550  11.551
96111W        W57477  31.931  16.178   3.811
96112W        W57478  27.117  23.668  12.979
96113W        W57479   4.305  21.190  14.912
96114W        W57480  18.554   1.776  13.897
96115W        W57481   8.303  27.546  10.916
96116W        W57482  21.702  24.040  10.507
96117W        W57483  32.618  28.454  12.068
96118W        W57484  27.653   1.480   1.768
96119W        W57485  18.602  43.450  11.432
96120W        W57486  36.528   9.364   4.233
96121W        W57487  19.657  16.186  14.300
96122W        W57488   9.644   0.784  14.845
96123W        W57489  30.019  15.135   0.792
96124W        W57490  11.792  33.522   2.399
96125W        W57491  20.100  17.066   4.315
96126W        W57492   5.900  35.993  13.976
96127W        W57493   3.909   1.915   1.867
96128W        W57494  15.289  11.270   0.458
96129W        W57495  42.448  39.853  12.832
96130W        W57496  14.595   4.324   3.154
96131W        W57497  43.419  44.321   1.429
96132W        W57498   2.254  41.786   2.270
96133W        W57499  34.935   6.277  10.084
96134W        W57500   5.366  14.282  12.958
96135W        W57501  21.734  21.146   4.268
96136W        W57502  32.140  42.323  14.490
96137W        W57503  31.565  11.623   0.346
96138W        W57504   5.401   1.378   2.330
96139W        W57505  23.509  32.476  13.916
96140W        W57506  15.739  25.986  13.988
96141W        W57507  38.913  37.465  10.921
96142W        W57508  16.228   6.900  11.404
96143W        W57509  23.651   8.704  13.474
96144W        W57510  37.019  41.324   5.156
96145W        W57511  29.491  19.097  11.912
96146W        W57512  16.602  18.748  12.085
96147W        W57513  37.074   2.359   4.764
96148W        W57514  21.069  38.064  10.505
96149W        W57515   9.864  26.153  11.501
96150W        W57516  42.307  31.020  13.940
96151W        W57517  14.787  23.528  11.016
96152W        W57518  20.245  42.957  14.856
96153W        W57519  27.062  26.689   3.202
96154W        W57520  14.130  14.699   4.212
96155W        W57521  13.608  44.820   2.717
96156W        W57522  39.959  16.621   4.627
96157W        W57523  32.967  27.676   2.306
96158W        W57524  38.870  44.826  11.067
96159W        W57525  19.632  35.563   4.310
96160W        W57526  27.026  16.658   1.925
96161W        W57527  29.116  40.527  14.387
96162W        W57528  44.815  32.442   3.326
96163W        W57529  13.698  10.217  11.911
96164W        W57530  11.624  31.056   4.740
96165W        W57531   0.764  39.885  12.034
96166W        W57532  12.135  25.156   2.185
96167W        W57533   6.217  36.464  10.515
96168W        W57534   5.803  43.952  12.034
96169W        W57535  37.073  18.134   2.417
96170W        W57536  26.591  32.494   0.266
96171W        W57537  29.601  32.137  11.500
96172W        W57538  28.155  41.416   4.777
96173W        W57539  20.757  18.233  10.430
96174W        W57540   9.219   0.466   1.232
96175W        W57541  39.060  26.047  10.151
96176W        W57542  12.351  20.626  12.420
96177W        W57543  39.438   7.179  11.495
96178W        W57544  31.130   8.799  11.387
96179W        W57545  22.733  13.276   3.250
96180W        W57546  43.846   4.856  14.497
96181W        W57547  15.578  42.871  13.823
96182W        W57548  13.310  33.938   1.294
96183W        W57549  37.870  29.438  14.930
96184W        W57550   4.326  24.663   2.302
96185W        W57551  32.427  11.687   0.292
96186W        W57552   9.756  37.351  12.549
96187W        W57553  34.498   2.271  11.402
96188W        W57554  20.727  26.607  11.550
96189W        W57555  15.260  19.612   0.795
96190W        W57556  38.824  21.257   1.912
96191W        W57557  34.919  29.052   3.770
96192W        W57558  12.727  31.006   4.599
96193W        W57559   9.775  24.673  10.933
96194W        W57560  19.588  35.448  13.501
96195W        W57561   0.946  43.950   4.798
96196W        W57562  33.541  18.234   3.678
96197W        W57563  15.774   5.369  10.532
96198W        W57564  37.988   6.191   2.269
96199W        W57565  43.898  21.099   0.942
96200W        W57566  39.351  12.828  13.884
96201W        W57567  20.610  40.530  14.350
96202W        W57568  19.778   3.384   3.752
96203W        W57569  34.100  26.965  11.014
96204W        W57570  17.746  27.545   3.819
96205W        W57571  20.561   7.252   0.471
96206W        W57572  12.733  25.105  10.483
96207W        W57573  31.409  35.044  10.621
96208W        W57574  10.198  29.942   1.403
96209W        W57575  28.435   2.296   2.389
96210W        W57576   4.893  40.446  10.893
96211W        W57577  20.202  19.650   3.645
96212W        W57578  15.120  24.178  14.003
96213W        W57579   6.375  20.664   2.699
96214W        W57580  42.906  35.486  13.837
96215W        W57581   5.833  36.960  10.929
96216W        W57582  24.128   6.414   1.704
96217W        W57583   7.825   3.927   2.202
96218W        W57584  18.202   2.332   1.899
96219W        W57585  16.076  32.112  10.914
96220W        W57586  10.148   5.420  12.092
96221W        W57587  38.952  40.970  14.958
96222W        W57588  27.588  20.176  13.982
96223W        W57589   3.888  16.642   2.329
96224W        W57590  23.032  25.212  14.466
96225W        W57591  33.126  13.211  10.491
96226W        W57592  32.557  26.470  12.411
96227W        W57593   7.894  10.874  12.477
96228W        W57594  32.408  33.493  11.058
96229W        W57595  12.723  22.244   3.338
96230W        W57596  15.768  14.640   0.841
96231W        W57597  20.071  28.120  13.986
96232W        W57598  13.775  38.508  13.469
96233W        W57599  44.479  26.106  10.535
96234W        W57600  44.858  42.974  12.868
96235W        W57601  35.574  35.977   4.704
96236W        W57602  31.924  13.788   1.728
96237W        W57603  12.629   7.327  13.041
96238W        W57604   7.358  32.564   1.905
96239W        W57605  11.632  33.958  10.482
96240W        W57606  22.088  13.757   2.764
96241W        W57607  20.206  23.112  10.994
96242W        W57608  14.797  37.856  12.993
96243W        W57609  10.380   9.758   2.719
96244W        W57610   9.812  27.983   3.268
96245W        W57611  40.366  36.542   4.192
96246W        W57612  20.133  40.865  11.870
96247W        W57613  19.655  42.986  13.803
96248W        W57614  11.267  42.290  12.984
96249W        W57615  10.679  21.208  11.465
96250W        W57616  42.876  29.487   4.826
96251W        W57617  11.242  15.250   4.599
96252W        W57618  38.863  28.497  12.876
96253W        W57619  18.126  39.941  11.527
96254W        W57620  27.639  40.348  11.459
96255W        W57621  27.566  20.038   0.370
96256W        W57622  44.446  19.730   2.244
96257W        W57623  25.031  17.236  14.850
96258W        W57624  39.517  18.715   3.867
96259W        W57625  18.117   1.882   2.761
96260W        W57626  26.484  34.542  13.522
96261W        W57627  38.502  13.112   3.284
96262W        W57628  42.355   9.208  14.993
96263W        W57629  19.732   7.287   1.816
96264W        W57630  34.383  24.007  12.549
96265W        W57631  11.737  38.451   0.338
96266W        W57632  24.722  43.953  12.986
96267W        W57633  33.118  40.900   0.906
96268W        W57634  22.197  27.621  12.846
96269W        W57635  12.220  31.058   4.778
96270W        W57636  13.154   6.692  10.947
96271W        W57637  21.157   1.373  12.989
96272W        W57638   0.349  38.892  10.545
96273W        W57639  25.625   3.926  11.609
96274W        W57640   6.211  27.689  12.409
96275W        W57641  30.629  42.945   2.366
96276W        W57642   9.171  42.972  10.413
96277W        W57643  14.823   6.387  14.781
96278W        W57644  14.703   3.939   4.755
96279W        W57645  44.295   9.750  10.457
96280W        W57646   5.217  19.100  13.363
96281W        W57647   4.424  34.004   2.741
96282W        W57648  14.830   5.264  14.367
96283W        W57649  17.689  40.037  12.487
96284W        W57650  13.347  11.225   3.375
96285W        W57651  44.887  32.398   3.744
96286W        W57652  21.249  13.829  10.471
96287W        W57653  33.883  10.801   4.255
96288W        W57654  39.547  27.078   4.326
96289W        W57655  21.154  44.856  13.444
96290W        W57656  36.399  43.965  13.814
96291W        W57657  28.051  37.953   1.840
96292W        W57658  43.397   2.324  12.428
96293W        W57659   9.317  13.743   1.336
96294W        W57660  39.521  25.520  11.508
96295W        W57661  42.511   3.796   1.400
96296W        W57662   8.404  26.598   3.735
96297W        W57663  43.925  28.509  14.840
96298W        W57664   5.876   6.776  10.143
96299W        W57665  11.338   1.921   4.120
96300W        W57666  42.284  29.623   3.147
96301W        W57667  23.545  34.468   0.914
96302W        W57668  15.770  35.552  12.452
96303W        W57669   5.863  16.602  11.569
96304W        W57670  30.049   0.916   3.654
96305W        W57671  29.095  17.135  11.861
96306W        W57672   3.369  26.672   0.409
96307W        W57673   7.352  23.703   0.916
96308W        W57674  26.536  29.542  10.143
96309W        W57675  38.026  21.222  13.401
96310W        W57676  40.033   4.916   4.602
96311W        W57677   6.296  30.066   2.254
96312W        W57678  14.105  15.314  11.601
96313W        W57679   1.892  34.939  14.899
96314W        W57680   5.823   4.412  14.415
96315W        W57681  29.948   3.772  12.085
96316W        W57682  17.266   0.785   1.701
96317W        W57683   8.876  17.156  13.463
96318W        W57684  43.923  20.266   3.637
96319W        W57685  13.197   2.860  11.862
96320W        W57686  10.246  44.418   2.313
96321W        W57687  31.152  13.656  12.969
96322W        W57688  30.577   9.729   4.341
96323W        W57689  36.366   4.816  12.040
96324W        W57690  32.081  33.433   0.271
96325W        W57691   9.759  24.094  12.395
96326W        W57692   9.392  14.651  10.128
96327W        W57693  36.925  14.324  12.856
96328W        W57694  32.626  30.564   1.761
96329W        W57695  38.463  17.195   0.415
96330W        W57696  36.356  10.792  11.532
96331W        W57697   7.835  11.764   0.944
96332W        W57698   5.710   4.718   1.257
96333W        W57699  43.809  26.028  12.873
96334W        W57700  38.480  36.410  10.999
96335W        W57701  35.477  11.744   0.367
96336W        W57702  32.048  42.826   1.344
96337W        W57703  20.239   2.833  11.002
96338W        W57704  14.594  35.563   2.881
96339W        W57705   8.767  43.931  12.505
96340W        W57706  41.868  15.580  13.509
96341W        W57707  14.653  27.031  14.381
96342W        W57708  12.144  32.547   3.226
96343W        W57709  30.116   1.928  12.558
96344W        W57710  38.511  11.246   0.433
96345W        W57711  39.351  43.496   2.384
96346W        W57712  44.391  20.625  12.423
96347W        W57713  33.050   5.204   0.454
96348W        W57714  12.136  37.943   1.229
96349W        W57715  40.349   6.393  14.868
96350W        W57716  21.187  22.501  12.453
96351W        W57717  36.061   5.211   3.244
96352W        W57718  30.626  22.156   4.714
96353W        W57719  21.129  16.804   2.315
96354W        W57720  12.353  23.020  11.471
96355W        W57721  36.087  14.224   0.348
96356W        W57722   5.697  22.698   0.798
96357W        W57723  31.563  11.228   4.118
96358W        W57724  32.917  18.554  14.863
96359W        W57725  37.527  32.391  12.529
96360W        W57726  33.581  39.554  11.449
96361W        W57727  17.245  33.961  10.619
96362W        W57728  31.435  41.974   4.667
96363W        W57729   2.417   7.308   2.840
96364W        W57730  26.502  33.552   3.216
96365W        W57731   3.418  17.598   2.797
96366W        W57732  44.493  20.743   1.744
96367W        W57733  27.151  22.103  11.464
96368W        W57734  35.462  24.979  11.601
96369W        W57735  20.169  30.081   0.876
96370W        W57736  34.529  37.424  14.349
96371W        W57737  18.571  10.245   5.265
96372W        W57738  43.840  38.037  12.542
96373W        W57739  31.023   9.769  13.441
96374W        W57740  21.603  14.124  13.793
96375W        W57741  29.040   7.836   1.838
96376W        W57742  10.874  19.623   2.867
96377W        W57743  42.967   3.458  12.875
96378W        W57744  35.935  26.582   9.926
96379W        W57745  27.037  16.697   0.257
96380W        W57746  37.027   9.813   2.897
96381W        W57747  34.595   4.336  12.383
96382W        W57748   8.691  34.012   0.269
96383W        W57749  37.054  38.877  11.561
96384W        W57750  24.015  13.298  14.897
96385W        W57751  24.555  28.436   2.237
96386W        W57752  12.135  11.237   4.121
96387W        W57753  29.629   4.260   0.804
96388W        W57754  30.140  18.587   5.299
96389W        W57755   2.942  24.683   4.332
96390W        W57756  33.992  21.204   4.181
96391W        W57757   2.800  44.467  13.897
96392W        W57758   1.378  37.541  11.393
96393W        W57759  27.162  11.372   1.697
96394W        W57760  28.558  43.358  11.953
96395W        W57761  13.692  25.120  13.001
96396W        W57762   6.273  26.067   1.252
96397W        W57763  38.842  32.409   3.685
96398W        W57764  28.136  16.790  11.450
96399W        W57765  29.958  30.557  11.408
96400W        W57766  43.924   0.822  10.897
96401W        W57767  31.066  21.166   3.814
96402W        W57768  33.067   5.784  14.390
96403W        W57769  10.302   6.791  13.995
96404W        W57770  24.218   0.471  10.481
96405W        W57771  28.007  34.535  12.504
96406W        W57772   8.260   6.392  14.764
96407W        W57773   2.418  33.570  14.367
96408W        W57774  32.621  25.056   0.917
96409W        W57775   0.389  15.254  13.876
96410W        W57776   8.747  38.362  10.525
96411W        W57777   4.925  16.588  14.886
96412W        W57778  44.367   7.829   3.152
96413W        W57779  33.609   2.724   5.290
96414W        W57780   4.743  37.039  12.362
96415W        W57781   5.367   1.435   0.963
96416W        W57782  38.837  20.706   1.791
96417W        W57783   5.865   5.868   1.772
96418W        W57784  38.344  43.836  11.907
96419W        W57785  40.813   7.831  12.444
96420W        W57786  16.767   8.699  11.015
96421W        W57787  24.184   4.907  12.540
96422W        W57788   2.785   9.378   1.927
96423W        W57789  19.616  21.059  12.059
96424W        W57790  25.640  27.954   3.773
96425W        W57791  27.187  22.159  13.797
96426W        W57792  10.254   2.471   2.215
96427W        W57793  23.600  41.365   4.330
96428W        W57794  15.260  16.662  10.992
96429W        W57795  30.594  25.474  12.824
96430W        W57796   6.742  16.171   1.900
96431W        W57797   3.832   9.364  13.398
96432W        W57798  43.452  17.713  11.598
96433W        W57799  25.581  32.508  12.340
96434W        W57800   3.767  35.571  13.939
96435W        W57801  25.069  29.661  12.862
96436W        W57802  32.530   7.731  11.978
96437W        W57803   3.853  13.813   0.324
96438W        W57804  42.464   4.886   3.651
96439W        W57805   3.923  44.811  12.056
96440W        W57806   4.401  29.982   3.271
96441W        W57807  26.070  33.886  13.927
96442W        W57808  34.865  37.453  12.503
96443W        W57809  26.652  19.658  12.355
96444W        W57810   5.271  18.294  12.457
96445W        W57811  33.929   6.801   3.806
96446W        W57812  15.212   6.404  14.984
96447W        W57813  22.741  39.354  10.556
96448W        W57814   4.317  32.508  13.353
96449W        W57815   9.335  12.286  11.375
96450W        W57816  19.243  19.664  12.526
96451W        W57817  28.495  11.286   1.329
96452W        W57818  31.094   0.850  14.915
96453W        W57819  43.984  20.074  12.426
96454W        W57820  43.484   2.433  13.383
96455W        W57821   9.321  36.494  11.042
96456W        W57822  19.161  30.013   4.346
96457W        W57823  15.654  37.020   3.654
96458W        W57824  31.940  32.107   2.277
96459W        W57825  32.420  17.250   3.323
96460W        W57826  34.420  32.449   0.476
96461W        W57827  13.727  32.624   1.916
96462W        W57828  34.065  36.379  11.553
96463W        W57829  43.397   2.409   2.204
96464W        W57830  28.163   3.330  13.512
96465W        W57831   2.274  40.501  10.544
96466W        W57832  32.945  35.410  11.434
96467W        W57833  25.565  43.018  14.758
96468W        W57834   8.756   6.346   0.881
96469W        W57835  22.701  32.625  11.966
96470W        W57836  30.570  21.753  13.467
96471W        W57837  22.746  34.987  13.931
96472W        W57838  30.043  26.481  14.903
96473W        W57839  21.183  20.611   1.927
96474W        W57840   1.426  30.450  10.413
96475W        W57841  23.100  33.477   4.688
96476W        W57842   9.814  10.743  11.506
96477W        W57843   6.713  38.892   2.694
96478W        W57844  23.609  30.527   0.788
96479W        W57845  30.088   1.972  11.906
96480W        W57846   7.220  33.553   4.321
96481W        W57847   4.424  41.425   2.206
96482W        W57848  12.725  11.212   3.158
96483W        W57849  22.165  18.278   1.394
96484W        W57850  31.540   7.866  14.988
96485W        W57851   2.747   6.690  13.993
96486W        W57852  17.228  43.825   2.217
96487W        W57853  32.891  42.025   3.749
96488W        W57854  23.015  38.908   2.377
96489W        W57855   4.735  42.987  10.515
96490W        W57856  22.638  41.508  10.995
96491W        W57857  32.889  36.573  14.308
96492W        W57858  27.956  13.108   1.428
96493W        W57859  20.727  12.204   4.323
96494W        W57860  17.575   4.927  14.942
96495W        W57861  23.239  13.248  10.906
96496W        W57862  32.499   3.421  14.808
96497W        W57863  24.990  20.587   3.290
96498W        W57864  21.758  38.492  14.861
96499W        W57865  27.599  16.611  13.050
96500W        W57866  17.115  36.045  13.963
96501W        W57867  25.199   1.391   4.232
96502W        W57868  41.941  39.325   4.151
96503W        W57869  36.372   4.782   2.759
96504W        W57870  24.611  41.012  11.117
96505W        W57871  14.132  22.233   2.728
96506W        W57872  15.647   6.714  13.515
96507W        W57873  15.191  13.660   4.181
96508W        W57874  30.058  38.075  14.019
96509W        W57875  36.856  32.063  14.762
96510W        W57876   2.816  15.755   2.241
96511W        W57877  32.995  31.968  12.490
96512W        W57878  28.466  14.194  12.028
96513W        W57879  15.590  16.583  12.093
96514W        W57880  21.037  25.193  10.988
96515W        W57881  42.991  22.697   0.787
96516W        W57882  24.013  11.659  14.819
96517W        W57883  35.921  19.139  11.006
96518W        W57884  26.509  21.241   3.174
96519W        W57885  42.522  23.178   1.860
96520W        W57886  40.372  30.505  12.987
96521W        W57887   0.324   9.705   0.880
96522W        W57888  40.825  15.816  13.932
96523W        W57889  16.227  27.629   4.699
96524W        W57890  11.756   9.827  12.405
96525W        W57891  37.954  31.107   0.887
96526W        W57892   0.758  23.205  12.880
96527W        W57893  25.115   4.914  12.839
96528W        W57894  13.693  18.766  14.023
96529W        W57895  17.578  34.482  10.146
96530W        W57896  14.127  30.453  13.461
96531W        W57897   2.729  33.122  11.003
96532W        W57898   1.445  13.741  14.466
96533W        W57899  37.438  11.719   0.936
96534W        W57900  24.636   5.915   5.729
96535W        W57901  16.624  33.991   0.355
96536W        W57902  14.607  31.152  10.629
96537W        W57903  41.930  35.953  12.947
96538W        W57904  18.185  18.737   1.231
96539W        W57905  21.170  16.802  11.128
96540W        W57906  36.478  38.015  12.905
96541W        W57907  36.048   0.776  13.855
96542W        W57908  41.828  41.520  11.545
96543W        W57909  36.005  21.033   3.223
96544W        W57910  22.113   8.871  12.064
96545W        W57911  14.210  22.598   1.259
96546W        W57912  14.636  19.537   4.690
96547W        W57913  36.843  28.668   1.315
96548W        W57914  40.819  18.113   0.346
96549W        W57915  28.011  37.558  11.085
96550W        W57916  21.701  15.716   1.846
96551W        W57917  43.951  14.256   4.184
96552W        W57918  40.880  39.895   3.222
96553W        W57919  15.116  34.416  13.470
96554W        W57920  18.103   7.205   1.361
96555W        W57921  26.073  37.374  14.924
96556W        W57922  27.581   3.936   4.196
96557W        W57923  27.450  37.409   3.789
96558W        W57924  41.319  26.038  12.571
96559W        W57925  20.524   1.276   2.749
96560W        W57926  19.536   6.290  11.930
96561W        W57927  28.039  34.468   2.709
96562W        W57928  12.292   3.395  10.636
96563W        W57929  19.647  35.576  11.476
96564W        W57930   5.338  14.595  14.331
96565W        W57931  13.234  37.492  11.510
96566W        W57932  40.869  19.156   1.898
96567W        W57933  26.695  43.006  12.430
96568W        W57934  28.596  38.863  12.447
96569W        W57935  26.654  21.574   2.230
96570W        W57936  40.868  35.919  14.430
96571W        W57937  37.084  44.356  14.457
96572W        W57938  11.810  11.742  14.361
96573W        W57939  13.297  18.090   4.621
96574W        W57940   0.802  12.227   0.463
96575W        W57941  22.651  10.727   0.864
96576W        W57942   4.814  13.732  12.975
96577W        W57943  35.362  22.132  12.466
96578W        W57944  21.053   8.812  10.576
96579W        W57945  33.112  24.582  10.926
96580W        W57946   0.300  17.266  10.532
96581W        W57947  37.446  18.576   2.204
96582W        W57948   9.290  32.054  11.421
96583W        W57949  32.048   7.875  11.585
96584W        W57950   7.251  21.193   2.793
96585W        W57951  17.788  31.583   3.259
96586W        W57952  42.948  14.733   0.313
96587W        W57953   1.424  24.107  14.008
96588W        W57954  19.629  10.358   1.794
96589W        W57955  11.637  44.828   0.763
96590W        W57956  10.792  26.520  11.060
96591W        W57957  33.390  10.239   4.749
96592W        W57958  44.870  13.719   4.354
96593W        W57959  30.010   9.327  10.921
96594W        W57960  26.015  16.649  14.818
96595W        W57961  13.736  14.611   0.348
96596W        W57962  16.588  20.651  13.501
96597W        W57963  18.593  14.272  13.883
96598W        W57964  39.001  29.090   1.831
96599W        W57965  12.248  14.823  10.115
96600W        W57966  11.155  32.125  11.867
96601W        W57967  19.675  21.569  13.473
96602W        W57968  25.134  42.786  14.345
96603W        W57969  35.008   7.731  12.471
96604W        W57970  44.820  13.323   0.840
96605W        W57971   3.849  32.031  12.031
96606W        W57972  27.481  29.550   2.725
96607W        W57973  13.303   0.864   0.390
96608W        W57974  34.457  11.252  11.006
96609W        W57975  35.550  22.508   1.422
96610W        W57976  10.793   4.858  11.868
96611W        W57977  30.466  13.635  12.058
96612W        W57978  11.203  13.233   2.394
96613W        W57979  29.521  35.505   4.717
96614W        W57980   4.741  40.502   4.287
96615W        W57981   9.754  39.381  13.029
96616W        W57982  25.137   7.699  11.549
96617W        W57983  36.347  19.053  13.830
96618W        W57984  22.074  30.420   0.843
96619W        W57985  21.698   8.388   1.443
96620W        W57986   0.976  42.392   0.335
96621W        W57987   3.839  36.072  14.414
96622W        W57988  36.395  16.195   2.759
96623W        W57989   2.747  41.889  14.413
96624W        W57990  23.585  31.610   2.900
96625W        W57991  20.745  23.677  13.353
96626W        W57992  11.789   9.179  13.425
96627W        W57993  16.260  12.342  11.945
96628W        W57994   1.944   0.812   4.757
96629W        W57995  39.870  37.037   3.286
96630W        W57996  17.746  31.408  14.917
96631W        W57997  17.137  44.424   3.803
96632W        W57998   3.215   6.799   1.721
96633W        W57999  41.313  39.497  10.942
96634W        W58000   7.678  33.615   3.647
96635W        W58001  21.650  21.541   2.311
96636W        W58002  10.836  32.446  14.813
96637W        W58003  31.945   8.346   0.758
96638W        W58004   3.433  27.496   1.303
96639W        W58005  13.191  37.996   4.213
96640W        W58006  30.577  12.173   2.233
96641W        W58007  11.745   7.732   5.236
96642W        W58008  34.392  17.091   4.216
96643W        W58009  34.613  39.497   0.483
96644W        W58010  44.923   6.405  14.994
96645W        W58011  29.634  13.173  12.870
96646W        W58012  34.994  28.499   3.793
96647W        W58013  18.739  22.088  14.769
96648W        W58014   0.328   1.915   4.781
96649W        W58015  37.354  12.815  10.446
96650W        W58016   9.766  43.896  10.565
96651W        W58017  16.283  28.629  13.017
96652W        W58018  41.465  37.917  13.470
96653W        W58019  43.292  25.642   0.346
96654W        W58020  20.240  10.178  13.828
96655W        W58021  25.188  41.877   3.797
96656W        W58022  18.630  27.188   4.135
96657W        W58023   0.959  32.469  12.012
96658W        W58024  17.212  16.189  12.927
96659W        W58025  24.543  16.737   3.326
96660W        W58026  26.493  38.545   2.810
96661W        W58027   2.343  16.092   4.160
96662W        W58028  27.058  43.334  14.459
96663W        W58029  39.929  40.938  14.902
96664W        W58030  37.508   3.265  12.441
96665W        W58031   6.762   6.897   1.784
96666W        W58032  13.300  10.727   4.114
96667W        W58033   8.668  38.897  13.422
96668W        W58034  20.567   8.372  11.096
96669W        W58035  30.447   3.396  13.520
96670W        W58036   7.853  19.656  10.036
96671W        W58037  22.680  10.804   1.825
96672W        W58038  10.278  12.640   2.725
96673W        W58039  28.980  22.104  11.008
96674W        W58040   5.294  12.827   4.636
96675W        W58041   1.814   3.823   2.689
96676W        W58042  12.282  26.206   0.949
96677W        W58043  42.950  15.252   4.279
96678W        W58044  39.015  44.503  13.521
96679W        W58045  25.176   5.895   3.316
96680W        W58046  27.027  22.547  10.466
96681W        W58047   3.457  42.503  13.046
96682W        W58048   9.832  27.625  13.994
96683W        W58049  16.199  12.208   5.197
96684W        W58050  16.205  17.591   2.325
96685W        W58051  36.468  42.014  10.951
96686W        W58052  19.557  38.880   4.639
96687W        W58053  32.592  14.102   2.364
96688W        W58054  42.371   1.462  13.464
96689W        W58055   9.274  20.635  13.521
96690W        W58056  37.867  22.594  11.087
96691W        W58057  29.147  26.522  13.980
96692W        W58058  33.938  33.993  12.457
96693W        W58059  31.089  16.687   1.306
96694W        W58060   3.304  25.648   0.334
96695W        W58061  25.212  23.579  12.923
96696W        W58062  35.870   1.465   1.215
96697W        W58063  39.461  42.524  14.872
96698W        W58064  31.002  11.151   0.477
96699W        W58065   8.393  19.178   0.954
96700W        W58066  15.767   5.435  14.275
96701W        W58067  34.579  39.326   5.644
96702W        W58068  19.063  43.882   4.813
96703W        W58069   8.756  11.789  10.556
96704W        W58070  25.657   2.941  11.560
96705W        W58071  23.150  13.167   3.700
96706W        W58072  33.094  22.163  13.936
96707W        W58073   3.438   6.861   1.311
96708W        W58074  42.385  21.755   2.219
96709W        W58075  25.701   5.860   0.757
96710W        W58076  10.812  16.145  13.329
96711W        W58077  14.304   0.252   2.177
96712W        W58078  24.532  27.110  13.997
96713W        W58079  15.583  39.896  12.914
96714W        W58080  20.172  36.585  13.882
96715W        W58081  44.275  37.065  13.378
96716W        W58082   1.840   9.669  12.994
96717W        W58083  19.720   0.334   3.861
96718W        W58084  13.331  39.856  14.024
96719W        W58085  37.468   3.796  11.051
96720W        W58086  11.129  25.620   4.692
96721W        W58087   8.895  32.454   3.646
96722W        W58088  33.109  17.195   3.189
96723W        W58089  14.664  26.057  13.957
96724W        W58090  28.515   5.229  12.928
96725W        W58091  12.261  25.070  14.471
96726W        W58092  42.391  14.251  11.884
96727W        W58093  15.606  23.644  11.004
96728W        W58094  31.932  41.836   2.869
96729W        W58095  28.603  15.259   0.848
96730W        W58096  13.840  23.149   4.736
96731W        W58097  40.930   1.364  12.472
96732W        W58098  31.471   0.425  11.015
96733W        W58099  39.014  34.913  12.846
96734W        W58100  42.378  11.238  13.326
96735W        W58101   2.425  42.807  13.454
96736W        W58102  22.612   1.901   3.323
96737W        W58103   2.917  35.554  11.930
96738W        W58104  38.952   0.765  10.106
96739W        W58105  38.944  22.502  12.577
96740W        W58106  22.192  16.794  10.949
96741W        W58107  25.577  35.852   2.331
96742W        W58108  40.994  43.907   0.301
96743W        W58109  12.839  38.894   1.311
96744W        W58110   5.388   6.346  14.319
96745W        W58111  40.927   4.893  13.899
96746W        W58112  35.928  11.657  12.969
96747W        W58113   8.341  18.150  10.611
96748W        W58114  34.583  35.080   0.784
96749W        W58115  26.996  33.973  11.569
96750W        W58116  33.082  44.967  11.011
96751W        W58117  33.975   9.659  14.864
96752W        W58118   7.252  13.184   2.733
96753W        W58119  22.632  41.875  14.799
96754W        W58120  19.670  11.762  10.424
96755W        W58121  31.010  11.838   1.393
96756W        W58122  35.089  16.605   4.278
96757W        W58123   0.758   5.933  13.957
96758W        W58124  16.664  16.777  10.921
96759W        W58125   6.232   4.405  10.909
96760W        W58126  28.945  12.342   3.736
96761W        W58127   6.313  36.579   4.682
96762W        W58128  40.832   0.330   3.229
96763W        W58129  31.905  37.358   0.776
96764W        W58130   7.742  37.383  11.107
96765W        W58131   8.230  30.051   2.234
96766W        W58132  37.530  36.847   1.289
96767W        W58133  42.815  15.762   2.363
96768W        W58134  12.311  13.834   0.913
96769W        W58135   4.400  18.080  10.962
96770W        W58136   2.863  33.443  11.907
96771W        W58137  32.034   0.880  10.552
96772W        W58138  30.648  18.097   3.257
96773W        W58139  38.341   3.877  13.824
96774W        W58140  29.582  12.645   0.275
96775W        W58141  26.684  40.884   3.340
96776W        W58142  39.353  11.861  12.865
96777W        W58143   2.844  32.627  12.478
96778W        W58144  43.860  38.452   3.285
96779W        W58145  40.895  33.540  14.513
96780W        W58146  34.518  27.610  13.041
96781W        W58147  21.136  39.357  11.586
96782W        W58148  35.933   9.875  13.796
96783W        W58149  18.158   0.882  14.790
96784W        W58150  24.644  30.090  14.466
96785W        W58151  43.933  33.097   1.887
96786W        W58152   0.758   3.809  12.010
96787W        W58153  39.316  10.770   0.849
96788W        W58154  34.109  34.597  10.542
96789W        W58155  15.281  34.008   1.335
96790W        W58156  10.255  30.044   3.815
96791W        W58157  11.794  36.008   0.445
96792W        W58158  34.923  30.153   4.117
96793W        W58159  39.845  17.764   2.810
96794W        W58160   0.914  31.629   2.819
96795W        W58161   3.752  44.004   4.296
96796W        W58162  43.972   7.257  14.936
96797W        W58163  33.539  32.046   0.285
96798W        W58164  27.527  25.188  12.945
96799W        W58165   2.439  15.648  11.071
96800W        W58166  14.754  44.363  14.424
96801W        W58167  15.175  26.611   1.396
96802W        W58168  20.665   3.771   0.408
96803W        W58169  27.098   3.374  14.304
96804W        W58170  34.535  16.072  13.332
96805W        W58171   9.318   6.285  12.048
96806W        W58172   3.270   0.760   0.914
96807W        W58173  43.337  12.836   1.835
96808W        W58174   0.283  12.627   0.467
96809W        W58175  37.372  38.446  13.875
96810W        W58176  33.901  38.414   4.150
96811W        W58177  31.635  25.603  11.952
96812W        W58178  24.057  33.467   2.809
96813W        W58179  40.044   8.317  12.469
96814W        W58180  35.015  19.699  13.854
96815W        W58181  16.141  11.853   3.257
96816W        W58182  18.555  13.141   9.921
96817W        W58183  35.920   3.933   0.869
96818W        W58184  42.880  30.025  12.053
96819W        W58185  30.923  26.991  12.885
96820W        W58186  38.981  12.828   3.227
96821W        W58187   0.370   2.408  12.067
96822W        W58188   2.432  30.599  10.615
96823W        W58189  35.502   2.393  11.082
96824W        W58190  22.237  36.985  10.079
96825W        W58191   0.817   4.208  11.568
96826W        W58192  35.981   5.262   1.882
96827W        W58193  12.142  21.533   1.755
96828W        W58194  36.989  12.761  11.415
96829W        W58195  20.073  22.599   1.726
96830W        W58196  22.569  19.042  12.348
96831W        W58197   8.264  29.468   3.636
96832W        W58198  42.331  39.353  13.351
96833W        W58199   8.390  18.705   4.621
96834W        W58200   7.181  28.004   1.289
96835W        W58201  21.585  29.029  13.802
96836W        W58202  28.170  29.003  13.475
96837W        W58203  40.976  27.447  14.805
96838W        W58204  14.324  20.159   0.457
96839W        W58205  19.079   3.458   2.414
96840W        W58206  38.909  34.394  10.966
96841W        W58207   3.264  29.434  11.564
96842W        W58208  27.618  44.981   1.809
96843W        W58209  44.358  36.856   9.920
96844W        W58210   1.385  14.719   3.340
96845W        W58211   9.359  35.031  12.911
96846W        W58212  22.212  39.504   4.793
96847W        W58213  28.534  25.076   1.757
96848W        W58214  26.577  36.379  14.316
96849W        W58215  24.979   7.276   2.740
96850W        W58216  33.489   3.720   4.724
96851W        W58217  29.977   9.836  13.429
96852W        W58218  37.975  29.005   3.667
96853W        W58219  26.047   9.280  14.830
96854W        W58220  14.304  42.460   1.400
96855W        W58221   6.703  43.891  10.461
96856W        W58222  26.158  36.576   0.255
96857W        W58223  35.442  18.077  11.904
96858W        W58224  39.536  10.816  14.931
96859W        W58225  26.673  25.138   1.931
96860W        W58226  23.085  17.145   1.275
96861W        W58227  41.436  13.139   4.654
96862W        W58228  25.150  19.666   2.736
96863W        W58229  29.524  11.226   0.437
96864W        W58230  42.893  12.232  13.858
96865W        W58231  16.145  12.856   3.198
96866W        W58232  39.488  39.930   2.223
96867W        W58233  13.690  10.255  14.920
96868W        W58234  11.360   6.262  14.406
96869W        W58235  41.384   6.782   2.792
96870W        W58236  37.060  38.946   1.742
96871W        W58237  43.293  39.409  13.060
96872W        W58238  24.076  24.144   2.302
96873W        W58239  36.458   4.896  13.432
96874W        W58240  29.531  10.746   2.691
96875W        W58241  23.711  13.159  13.021
96876W        W58242   4.267  39.951  10.617
96877W        W58243  38.417  29.036  10.465
96878W        W58244   4.379  22.619  10.637
96879W        W58245  27.087   1.765  10.892
96880W        W58246  32.542  37.577  14.449
96881W        W58247  11.863  17.770   3.300
96882W        W58248  35.078   6.182   3.723
96883W        W58249  34.508  14.623   3.666
96884W        W58250  30.491   4.306  12.987
96885W        W58251  26.573  12.849  11.374
96886W        W58252  16.600  38.860  12.526
96887W        W58253  37.524  20.077   4.134
96888W        W58254  34.527  38.563   3.324
96889W        W58255  28.095  39.450  14.446
96890W        W58256  44.789  15.227   2.842
96891W        W58257  27.971   9.215  12.543
96892W        W58258  17.152  18.616   5.100
96893W        W58259  13.732  27.122  13.870
96894W        W58260   0.884  44.428  12.020
96895W        W58261   6.760  11.757  12.954
96896W        W58262   9.670  19.189   3.682
96897W        W58263  14.148   7.179  13.441
96898W        W58264  26.967  16.240  10.919
96899W        W58265  30.994  11.831   9.936
96900W        W58266  39.049  17.195  13.833
96901W        W58267  22.186  21.706   4.614
96902W        W58268  12.119   7.823   0.283
96903W        W58269  25.642  28.184  13.053
96904W        W58270  22.213  20.272  11.576
96905W        W58271  20.099  15.615  11.046
96906W        W58272  19.201  19.590  14.814
96907W        W58273  43.498  16.131  12.449
96908W        W58274  41.903  38.386   2.291
96909W        W58275  27.954   7.752   4.755
96910W        W58276  22.619  44.463  10.452
96911W        W58277  10.774  32.023  11.041
96912W        W58278  10.271  11.227  12.453
96913W        W58279  37.356   8.843   2.866
96914W        W58280  11.634  15.579  13.907
96915W        W58281  13.711  12.683   0.859
96916W        W58282  19.718  10.704   0.847
96917W        W58283  44.261  18.777  13.444
96918W        W58284  32.939  16.172   1.782
96919W        W58285   8.376  18.059  10.994
96920W        W58286  19.078   1.269   1.404
96921W        W58287  24.122  19.575   0.798
96922W        W58288  12.173  20.109  12.936
96923W        W58289   0.463  23.189   0.908
96924W        W58290  39.816  21.746   3.363
96925W        W58291  43.810  11.732  14.816
96926W        W58292  23.599   2.436  14.789
96927W        W58293  35.103  29.505  14.812
96928W        W58294   7.351  43.379  11.517
96929W        W58295  25.576  10.309  11.040
96930W        W58296  17.681  13.768   2.698
96931W        W58297   8.882  34.374  14.996
96932W        W58298  14.682  27.587  13.832
96933W        W58299   0.788   2.917  10.578
96934W        W58300  33.015  26.636   5.107
96935W        W58301  32.091  18.268   2.792
96936W        W58302  23.715  18.753   3.278
96937W        W58303  12.138   6.230   4.328
96938W        W58304  23.068  20.594   3.699
96939W        W58305  18.599  28.675   3.835
96940W        W58306  36.091  12.132  12.505
96941W        W58307  18.154  19.771  13.440
96942W        W58308   9.812   8.203   1.359
96943W        W58309  19.603  35.049   2.839
96944W        W58310  29.015  14.609  14.027
96945W        W58311  11.223   2.795  11.452
96946W        W58312  30.511  36.030   0.860
96947W        W58313  30.079  17.559   1.707
96948W        W58314  16.301   9.724   3.656
96949W        W58315  30.576  38.866   4.204
96950W        W58316  43.463   5.403  12.933
96951W        W58317  16.749  34.975  12.464
96952W        W58318   2.834  19.239   0.369
96953W        W58319  33.621   5.438   0.744
96954W        W58320  13.312  20.735   3.198
96955W        W58321   6.401   0.412   2.334
96956W        W58322  13.808  27.970   4.627
96957W        W58323  21.230   9.694   2.383
96958W        W58324  41.497  43.958   3.828
96959W        W58325  21.651  44.368  12.506
96960W        W58326  40.823   6.406  11.427
96961W        W58327  25.610  35.889  11.902
96962W        W58328  27.670  44.853   3.819
96963W        W58329  39.447  23.217  14.443
96964W        W58330  41.868  31.522   1.889
96965W        W58331  17.571  14.634  13.799
96966W        W58332  40.840  38.396   4.127
96967W        W58333   1.891   7.745   1.224
96968W        W58334  18.100  15.162   2.689
96969W        W58335  41.944  25.205   0.949
96970W        W58336   9.259  38.482   2.729
96971W        W58337   3.945   1.466   3.747
96972W        W58338  29.977   4.854  12.389
96973W        W58339  23.189  34.594  11.012
96974W        W58340  35.988   9.785   4.265
96975W        W58341   0.802  13.757  11.406
96976W        W58342  14.289  23.151  10.962
96977W        W58343  15.321  43.355   4.227
96978W        W58344  16.289   7.291   4.746
96979W        W58345  14.097   1.799  11.452
96980W        W58346  10.793  14.188   1.430
96981W        W58347  42.798  40.433   1.308
96982W        W58348  10.719  17.231  13.347
96983W        W58349   5.764  32.522  11.923
96984W        W58350  27.452  15.302   3.188
96985W        W58351  16.281  15.648  12.924
96986W        W58352  38.523  38.365   1.262
96987W        W58353   9.658  32.950  14.277
96988W        W58354   0.356  32.484   1.279
96989W        W58355  31.020   8.260   4.145
96990W        W58356  32.435  28.661   1.897
96991W        W58357  26.643  17.125   5.179
96992W        W58358  32.959  17.712  10.909
96993W        W58359   2.791  19.260   1.236
96994W        W58360  44.803   2.332   2.224
96995W        W58361   3.877  24.485  13.541
96996W        W58362   8.784   9.372   2.812
96997W        W58363  24.117  42.987  10.611
96998W        W58364  37.459  37.075   4.297
96999W        W58365  40.492  43.786   2.839
97000W        W58366   6.912  29.600   1.898
97001W        W58367  15.689  32.504  11.086
97002W        W58368  23.197  37.903   4.337
97003W        W58369  13.124  42.381   4.113
97004W        W58370  40.865  40.989  14.515
97005W        W58371  11.274   8.219   2.290
97006W        W58372  40.507  11.361  15.000
97007W        W58373  14.684  34.957   5.708
97008W        W58374  25.198  18.216   0.327
97009W        W58375  23.011  43.344  12.840
97010W        W58376   3.769  39.898  11.961
97011W        W58377  21.026   2.755  11.409
97012W        W58378  28.999  26.686   3.685
97013W        W58379  23.490  12.619   3.253
97014W        W58380   9.815  37.398  14.932
97015W        W58381  38.571  33.981  14.516
97016W        W58382  32.961  39.847  12.482
97017W        W58383  19.139  21.120   4.799
97018W        W58384  34.991  13.725   2.246
97019W        W58385   1.465  11.343  14.961
97020W        W58386  18.209   5.333  14.894
97021W        W58387  20.106   1.311  14.852
97022W        W58388  40.509  40.317  11.436
97023W        W58389  40.415  21.170  10.594
97024W        W58390  20.102  16.252  13.904
97025W        W58391   2.300  41.346  12.541
97026W        W58392   2.262  24.094  13.879
97027W        W58393  30.429   7.783  14.460
97028W        W58394  31.903  40.321   3.653
97029W        W58395  42.506  31.038  10.549
97030W        W58396  42.862  32.432  12.079
97031W        W58397   2.260  44.292  13.314
97032W        W58398  14.706  31.014   5.744
97033W        W58399  12.328  11.815  12.574
97034W        W58400  26.695  41.977  14.458
97035W        W58401  28.474   0.310   2.392
97036W        W58402  12.845  20.237   3.271
97037W        W58403  42.521  18.158  14.836
97038W        W58404  30.076  36.467  12.939
97039W        W58405   1.871  34.022   1.410
97040W        W58406   4.368   9.359   1.326
97041W        W58407  12.840  11.328  12.994
97042W        W58408  43.847  27.045   2.699
97043W        W58409   6.891  13.295  12.010
97044W        W58410  15.697   2.244  12.056
97045W        W58411   6.901  38.485  13.469
97046W        W58412   6.203  21.604  13.982
97047W        W58413  15.095  25.168   4.604
97048W        W58414  10.851  35.361   4.280
97049W        W58415  24.718  26.992   3.384
97050W        W58416  23.097  20.234   2.853
97051W        W58417  40.998  38.936  10.640
97052W        W58418  36.038  33.611  11.607
97053W        W58419  18.788  20.118  14.503
97054W        W58420   4.266   9.273  14.435
97055W        W58421  24.585  26.613  13.431
97056W        W58422   9.841  31.609  14.466
97057W        W58423   6.182  10.771   1.904
97058W        W58424  39.962  43.883   1.258
97059W        W58425  39.438  41.988   4.791
97060W        W58426  18.726  32.589   2.184
97061W        W58427   2.447  35.046  13.444
97062W        W58428  29.088  15.818  11.916
97063W        W58429  10.814  13.302   3.204
97064W        W58430   4.844  30.421   0.254
97065W        W58431  20.085  22.134  13.368
97066W        W58432  43.974  30.599  10.435
97067W        W58433   9.806  26.204   4.188
97068W        W58434  31.963  24.596  12.391
97069W        W58435  26.961  31.036   0.431
97070W        W58436  16.708  33.037  14.947
97071W        W58437  23.031   1.477   0.272
97072W        W58438  10.698  23.518   2.189
97073W        W58439   4.853  15.243  12.515
97074W        W58440  10.700  20.067   4.246
97075W        W58441  43.930  31.470  11.094
97076W        W58442  27.103   4.400  14.448
97077W        W58443  40.355  40.321  11.015
97078W        W58444   4.835  26.182  10.559
97079W        W58445  36.393  11.141   4.707
97080W        W58446  20.671  27.128  11.872
97081W        W58447   2.465  21.246  12.359
97082W        W58448   4.892  34.611  11.990
97083W        W58449   8.218  19.156   3.746
97084W        W58450  42.867  41.336  14.929
97085W        W58451  36.388  24.544  14.314
97086W        W58452  30.606  20.104   1.432
97087W        W58453  41.991  35.987  14.385
97088W        W58454  35.989  33.583  14.802
97089W        W58455  37.022  44.846  12.574
97090W        W58456   4.931  19.281  13.001
97091W        W58457  18.138  13.264   0.309
97092W        W58458  42.453   2.330  14.417
97093W        W58459  32.077   5.247   1.713
97094W        W58460  27.484  36.092   2.297
97095W        W58461  13.330  10.805  13.910
97096W        W58462   7.860  14.645  12.388
97097W        W58463  21.149  22.086  11.059
97098W        W58464   8.871  16.703   1.443
97099W        W58465  30.584   7.300   0.300
97100W        W58466  23.096  19.594  14.497
97101W        W58467  33.536   3.438   1.745
97102W        W58468  30.610  33.085  14.876
97103W        W58469  21.181  12.839  14.762
97104W        W58470  44.956   2.740  11.533
97105W        W58471   2.424   5.757  14.866
97106W        W58472  10.369  41.500   3.265
97107W        W58473  25.068   5.893  13.540
97108W        W58474   4.892  38.567   0.344
97109W        W58475   8.406  34.940   3.654
97110W        W58476   2.963   2.795  11.875
97111W        W58477  17.177   0.786   3.271
97112W        W58478   1.929   0.816  13.985
97113W        W58479   7.890  42.512   3.706
97114W        W58480  39.931  32.945   3.382
97115W        W58481   4.216   5.432  10.529
97116W        W58482  35.450   4.777   0.949
97117W        W58483  34.113   5.801  14.462
97118W        W58484  36.544  33.489   9.968
97119W        W58485  33.064   6.848   2.346
97120W        W58486  22.060  33.454  12.565
97121W        W58487  29.461  29.080   4.143
97122W        W58488  36.545   4.741   9.994
97123W        W58489  18.055  44.397   9.961
97124W        W58490   0.932  43.397  14.336
97125W        W58491  27.154   7.859  13.048
97126W        W58492   3.889  22.657   2.301
97127W        W58493  13.301  30.549  14.372
97128W        W58494  28.070  39.500   4.129
97129W        W58495  39.934  26.070   1.841
97130W        W58496  23.229   8.170  13.546
97131W        W58497  13.681  44.497   0.350
97132W        W58498  30.032   0.388   3.782
97133W        W58499   8.169  28.162   1.404
97134W        W58500  24.210  38.972  10.914
97135W        W58501  31.118  12.812   2.277
97136W        W58502  27.192   8.709  14.001
97137W        W58503  41.443  43.467   4.796
97138W        W58504   5.275  31.590   1.325
97139W        W58505  31.445  39.436   3.635
97140W        W58506  37.850  15.756  11.380
97141W        W58507  23.493   7.909   1.232
97142W        W58508   4.897  17.064  12.994
97143W        W58509  24.628  19.049   2.877
97144W        W58510  36.039  30.164   3.629
97145W        W58511  22.224   7.737  12.463
97146W        W58512  28.075  24.625   0.425
97147W        W58513  15.718  38.067  11.868
97148W        W58514  44.977  17.559   2.888
97149W        W58515  27.468  29.669  13.515
97150W        W58516   1.246  24.518   3.181
97151W        W58517  29.620  41.452   5.157
97152W        W58518  11.179  32.024  14.395
97153W        W58519  28.442  28.507   9.481
97154W        W58520  36.425   5.843  13.028
97155W        W58521  39.374   3.795  14.494
97156W        W58522  21.165  41.330  14.974
97157W        W58523  15.206  14.102  12.003
97158W        W58524  28.675   6.413  12.431
97159W        W58525  32.561  24.145   0.424
97160W        W58526  25.064  43.348   3.814
97161W        W58527  26.532  31.624  12.427
97162W        W58528  20.203  18.061  14.957
97163W        W58529  31.141  13.700  11.087
97164W        W58530  17.669  12.767  12.382
97165W        W58531  35.383  30.495  11.403
97166W        W58532  16.568  34.967  11.520
97167W        W58533  21.681   5.693   1.258
97168W        W58534  27.486  13.717  13.828
97169W        W58535  18.265  34.068  12.455
97170W        W58536  13.174   2.367   1.923
97171W        W58537  19.686  11.151  11.385
97172W        W58538  33.510   5.767  10.471
97173W        W58539   6.768  27.476  11.415
97174W        W58540  23.083   9.738   0.865
97175W        W58541  29.935  19.677   1.389
97176W        W58542  39.029  31.606  13.510
97177W        W58543   8.189  13.196  13.926
97178W        W58544  21.647  34.584  10.902
97179W        W58545  25.187  33.626   1.842
97180W        W58546  29.175  13.816   4.815
97181W        W58547  40.031  17.786   1.242
97182W        W58548  10.263  38.327  11.459
97183W        W58549  43.954  21.714   0.264
97184W        W58550  44.884   6.833  13.846
97185W        W58551  23.146  37.477   2.242
97186W        W58552   9.655  40.017  13.408
97187W        W58553  18.136   9.870  14.480
97188W        W58554  13.680   0.771  13.957
97189W        W58555  42.331  42.842  14.404
97190W        W58556  41.029  44.365  12.372
97191W        W58557  31.076  15.680   3.261
97192W        W58558  42.491   2.448  14.793
97193W        W58559  22.674  30.651  11.490
97194W        W58560  40.434  16.639   4.243
97195W        W58561  27.005  28.550   0.879
97196W        W58562  22.205   1.906   3.368
97197W        W58563   5.798  41.383  13.998
97198W        W58564  31.994   6.305  12.567
97199W        W58565  31.489  36.361  10.927
97200W        W58566   2.891  27.670  14.791
97201W        W58567  35.583  39.539   4.721
97202W        W58568  22.661   8.244  14.763
97203W        W58569  26.002  15.146   3.737
97204W        W58570   2.762  43.363  11.108
97205W        W58571  12.657   3.832   1.788
97206W        W58572   4.837  36.352  10.509
97207W        W58573   3.273  40.370   3.277
97208W        W58574   4.425  28.993  11.471
97209W        W58575  15.302   0.380   4.827
97210W        W58576  44.971  37.955  13.335
97211W        W58577  40.444  36.404  13.372
97212W        W58578  44.806  16.655   4.186
97213W        W58579  25.621  20.032   3.194
97214W        W58580  10.380  44.492   4.317
97215W        W58581   6.782  28.528  11.527
97216W        W58582  38.963  44.827   4.347
97217W        W58583  29.666  27.067   3.298
97218W        W58584  39.946  14.671  14.411
97219W        W58585  13.151  28.519   3.300
97220W        W58586   3.365  25.492  13.880
97221W        W58587   7.807  27.609   0.827
97222W        W58588  29.460  28.933  12.929
97223W        W58589  29.628   1.859   5.212
97224W        W58590   0.787  35.863   1.858
97225W        W58591  42.398  29.513   4.710
97226W        W58592  37.534  40.965  11.522
97227W        W58593  36.996  40.886  13.536
97228W        W58594  22.548  15.101   4.252
97229W        W58595   5.903  21.066   3.690
97230W        W58596  14.256  15.157   0.475
97231W        W58597  39.500  42.880  10.976
97232W        W58598   8.346  43.886   3.319
97233W        W58599   9.330  22.550  10.893
97234W        W58600  16.624  18.132   9.657
97235W        W58601  17.121   6.353  14.276
97236W        W58602   6.818  42.976   0.483
97237W        W58603  35.089   5.206   4.660
97238W        W58604   0.936  12.835   0.908
97239W        W58605   4.920  23.057  14.818
97240W        W58606  14.730  17.684   1.250
97241W        W58607  39.367  44.344  14.761
97242W        W58608  15.724  14.588  10.947
97243W        W58609  23.608  28.466  10.920
97244W        W58610  35.984  17.134  13.435
97245W        W58611  31.487   8.263  10.474
97246W        W58612  22.159  33.111  12.377
97247W        W58613   1.797  17.194  12.950
97248W        W58614  23.540  31.111   1.746
97249W        W58615  35.013  32.562  14.003
97250W        W58616  15.635  38.561  12.923
97251W        W58617  27.192  23.161   2.774
97252W        W58618  12.667   2.797  12.488
97253W        W58619   1.795  13.717  11.542
97254W        W58620  10.373  22.998  11.510
97255W        W58621   8.882  27.030  13.355
97256W        W58622  39.041  15.299   4.317
97257W        W58623  13.171   8.892  14.976
97258W        W58624  43.399  23.705   0.798
97259W        W58625  36.853  30.936  14.955
97260W        W58626   9.736  18.079   3.675
97261W        W58627  27.999  33.110  10.419
97262W        W58628  35.877   9.779   3.221
97263W        W58629   0.278  12.781  11.538
97264W        W58630  21.063  18.125  13.959
97265W        W58631  35.936  37.921   2.903
97266W        W58632  38.365  14.701   0.750
97267W        W58633   3.947  31.623   2.207
97268W        W58634  24.540   7.683  13.504
97269W        W58635  43.796  38.021  13.546
97270W        W58636  34.921  38.456  13.444
97271W        W58637  42.790  14.764   0.874
97272W        W58638   3.754  31.527  13.926
97273W        W58639  30.078   5.699   1.417
97274W        W58640  12.173  24.680  11.038
97275W        W58641  11.313  33.405   4.796
97276W        W58642  17.131  39.922   3.740
97277W        W58643  26.047  44.290   1.832
97278W        W58644  37.528  31.535  12.463
97279W        W58645  39.359   6.416   3.639
97280W        W58646  34.073  23.172   1.312
97281W        W58647  19.242   4.237  12.926
97282W        W58648   5.834  21.704   3.683
97283W        W58649  31.626  35.964   1.925
97284W        W58650  19.557  37.913  14.981
97285W        W58651  27.033  34.925  11.914
97286W        W58652   5.791   3.336  14.777
97287W        W58653  38.906  30.953  13.502
97288W        W58654   3.938  16.670   2.840
97289W        W58655  43.281  20.257  13.313
97290W        W58656  38.491   2.257  10.608
97291W        W58657  35.473  17.144   0.359
97292W        W58658  39.836  40.942  10.615
97293W        W58659  34.477  20.630   2.813
97294W        W58660  31.133  17.075  11.993
97295W        W58661  40.535  11.371  13.513
97296W        W58662   2.766  10.669  10.554
97297W        W58663  41.030  20.694   2.253
97298W        W58664  32.079   3.762   0.327
97299W        W58665  36.403  43.842  11.938
97300W        W58666  15.253  30.983  14.871
97301W        W58667  30.614  38.405  13.538
97302W        W58668   8.784  27.075   1.308
97303W        W58669   3.292  36.475   1.406
97304W        W58670  36.576  14.237   0.875
97305W        W58671  14.142  12.779   2.205
97306W        W58672   8.686   9.267   1.879
97307W        W58673  30.923  42.973   0.415
97308W        W58674  14.120  36.936  12.350
97309W        W58675  16.293  23.656  14.927
97310W        W58676  15.305  29.449  13.391
97311W        W58677   4.789  19.634  12.977
97312W        W58678  11.771  20.210  12.564
97313W        W58679  15.791  35.064   0.260
97314W        W58680  42.522   7.836  13.340
97315W        W58681  13.698  17.153  14.294
97316W        W58682   2.395  21.032   0.962
97317W        W58683  22.621  16.638   1.760
97318W        W58684  37.046  32.924  14.308
97319W        W58685  14.098  26.069  12.374
97320W        W58686  41.824  35.494   0.323
97321W        W58687  26.972  15.628   2.334
97322W        W58688  31.460  43.469  10.132
97323W        W58689  39.933   7.890  10.517
97324W        W58690  44.900  24.195   1.379
97325W        W58691  28.544  37.475   1.760
97326W        W58692  33.972  11.370   1.743
97327W        W58693   5.264  42.933   2.849
97328W        W58694  34.382   6.418  13.375
97329W        W58695   4.903  21.687  14.766
97330W        W58696  28.110  37.549  11.422
97331W        W58697   6.250  23.161   3.798
97332W        W58698   2.782  32.100  14.383
97333W        W58699   2.330  35.549   2.774
97334W        W58700  42.831  29.580   4.281
97335W        W58701  29.659   3.778   2.817
97336W        W58702  20.223  20.698  11.915
97337W        W58703  29.945  13.252   1.919
97338W        W58704  15.611  25.967  12.863
97339W        W58705  42.031  43.898  11.941
97340W        W58706  44.395  22.147  11.557
97341W        W58707   1.789   0.405  12.358
97342W        W58708  23.156  32.495  14.445
97343W        W58709  39.883   1.392   2.705
97344W        W58710  32.068  42.890  14.346
97345W        W58711  11.767  43.428   1.846
97346W        W58712  27.560  28.067   2.768
97347W        W58713  39.019  16.175   2.189
97348W        W58714  23.990  38.490  12.084
97349W        W58715   8.225  24.507  12.019
97350W        W58716   7.313  28.593  13.930
97351W        W58717  42.782  11.323   3.817
97352W        W58718  30.455  10.722   2.854
97353W        W58719  28.023  23.100  13.908
97354W        W58720  31.560   9.388   2.198
97355W        W58721  28.061   7.241  14.495
97356W        W58722  17.801   5.328  13.058
97357W        W58723  20.043  21.133  10.485
97358W        W58724  24.120  38.518   3.757
97359W        W58725  34.607  12.740   2.330
97360W        W58726  27.518  43.374  11.483
97361W        W58727  13.829  38.914  11.532
97362W        W58728  37.875   8.213   3.751
97363W        W58729  29.481   3.336   2.698
97364W        W58730  12.209  11.819  12.824
97365W        W58731  17.178  19.721  13.936
97366W        W58732  32.406  16.793   3.356
97367W        W58733  18.287  17.198   4.718
97368W        W58734  41.301   6.352  10.909
97369W        W58735  15.180  33.450   0.444
97370W        W58736  35.437  30.911  13.427
97371W        W58737  21.097   5.879  12.445
97372W        W58738   3.222  34.023   0.359
97373W        W58739  17.714  11.652  13.812
97374W        W58740  30.596   9.650  10.607
97375W        W58741  37.438  27.967  12.443
97376W        W58742   6.769   7.775  11.400
97377W        W58743   4.220  33.068   1.366
97378W        W58744  27.624  31.408  11.508
97379W        W58745  16.156  12.197  13.887
97380W        W58746  11.809  10.181  12.032
97381W        W58747  38.031   3.771   0.763
97382W        W58748  30.910  11.315   2.870
97383W        W58749  42.381  28.053   4.338
97384W        W58750  18.608  19.598  14.002
97385W        W58751  44.298  13.839  10.480
97386W        W58752   7.733  12.636   2.759
97387W        W58753  42.363  12.718  13.473
97388W        W58754   7.795  10.699   2.837
97389W        W58755  24.568  28.581  12.002
97390W        W58756  15.770  10.143   3.668
97391W        W58757   6.764  36.037  10.581
97392W        W58758  18.050  26.016   0.735
97393W        W58759   4.725  34.014  10.482
97394W        W58760  42.969  33.413  13.350
97395W        W58761  21.073  12.766   2.182
97396W        W58762  41.903  12.359  10.979
97397W        W58763   7.288   6.822   0.284
97398W        W58764   0.950  40.437  13.000
97399W        W58765  42.437  25.559   0.873
97400W        W58766  39.449  10.717  11.954
97401W        W58767   4.764  11.671   4.324
97402W        W58768  10.314  37.970   3.847
97403W        W58769  36.576  36.381  14.993
97404W        W58770  37.905  37.491   3.670
97405W        W58771   1.960  38.964  12.076
97406W        W58772  24.496  12.275   3.843
97407W        W58773   9.699  23.570   4.729
97408W        W58774   8.220  26.080   3.314
97409W        W58775  39.017   4.424   3.847
97410W        W58776  33.547  41.294   0.427
97411W        W58777  10.868  10.347   9.966
97412W        W58778  14.732  34.077  14.761
97413W        W58779  11.666  25.686   1.741
97414W        W58780  16.769   1.967   3.777
97415W        W58781  11.626  33.498   3.745
97416W        W58782   4.820  30.488   3.249
97417W        W58783   3.759  29.115  13.015
97418W        W58784  29.599  32.529  13.521
97419W        W58785  29.961   0.275  14.341
97420W        W58786   9.277  21.755   1.227
97421W        W58787  31.114   2.248   0.325
97422W        W58788  25.069  31.525  12.069
97423W        W58789  23.727  19.717   4.762
97424W        W58790  12.204  22.220   0.454
97425W        W58791  14.826   4.400   4.121
97426W        W58792  17.124  42.386   0.404
97427W        W58793  40.917  42.946  14.773
97428W        W58794   9.292   6.187  14.965
97429W        W58795  12.189  16.102   2.665
97430W        W58796   4.917  13.631  11.382
97431W        W58797  34.023   3.305  14.901
97432W        W58798   0.835  24.572  14.279
97433W        W58799  14.325  39.429  10.948
97434W        W58800  23.497  20.594   1.716
97435W        W58801  21.126  14.608  10.508
97436W        W58802  34.502   2.822  13.936
97437W        W58803  29.494  39.340   2.418
97438W        W58804   8.209  24.130   2.682
97439W        W58805  36.580  21.602  10.579
97440W        W58806  24.072  27.483  13.480
97441W        W58807   2.269  34.895  14.826
97442W        W58808   7.321  32.537  12.462
97443W        W58809  27.150  41.538   0.265
97444W        W58810   0.958  42.929  11.442
97445W        W58811  17.143  19.081   2.331
97446W        W58812  11.811   1.396   3.192
97447W        W58813  34.486  26.186   3.370
97448W        W58814  28.156  27.631  11.862
97449W        W58815  37.509  15.664   0.838
97450W        W58816  12.177  18.606  14.817
97451W        W58817  36.990  30.574   0.312
97452W        W58818  37.414  20.631  10.447
97453W        W58819   6.257  11.838  12.450
97454W        W58820  32.000  29.063   0.922
97455W        W58821  43.356  24.488  14.419
97456W        W58822  17.597   7.885  10.413
97457W        W58823  42.021  34.611  14.841
97458W        W58824  31.543  25.004  12.089
97459W        W58825  29.614   3.270  10.949
97460W        W58826  36.984   9.294   4.683
97461W        W58827  40.007  19.062   3.321
97462W        W58828  38.372   3.328   1.371
97463W        W58829  15.651  42.454  12.930
97464W        W58830  12.663  43.319   4.800
97465W        W58831  19.256  19.688   2.774
97466W        W58832  21.658  32.088   4.221
97467W        W58833  18.288   9.845   4.197
97468W        W58834   9.655  19.674  14.869
97469W        W58835   4.844   5.400   2.783
97470W        W58836   5.866  32.067   3.824
97471W        W58837  33.436  10.732   3.348
97472W        W58838  21.194   6.892  13.056
97473W        W58839   2.406  38.399   2.238
97474W        W58840  11.725  17.762   1.710
97475W        W58841  44.496  18.620   4.147
97476W        W58842  11.800  38.333   3.739
97477W        W58843   4.871  14.284   0.315
97478W        W58844   6.358  38.367   0.464
97479W        W58845   3.225  42.326  13.390
97480W        W58846  28.102  13.172  12.395
97481W        W58847  31.602  10.293   3.754
97482W        W58848   6.376  18.753  12.401
97483W        W58849  11.636   1.823   3.635
97484W        W58850   4.337  35.380  10.964
97485W        W58851   8.189  24.160   1.756
97486W        W58852  12.292  39.037  11.449
97487W        W58853  43.475  33.875  14.914
97488W        W58854   0.832  32.041   3.150
97489W        W58855   1.465  14.174   4.287
97490W        W58856  31.042  33.103  14.964
97491W        W58857   8.850  25.589   2.666
97492W        W58858  33.905   6.703  13.961
97493W        W58859  25.989  28.452   2.229
97494W        W58860  33.928  20.729  11.035
97495W        W58861   9.819  34.483  10.515
97496W        W58862  36.952   4.806   0.290
97497W        W58863   5.703   4.413  11.976
97498W        W58864  14.820   7.272   0.922
97499W        W58865  39.523  21.103   3.349
97500W        W58866  18.760  42.434  10.569
97501W        W58867  22.550  39.495   4.318
97502W        W58868  35.977  32.934   1.267
97503W        W58869   6.737  17.140   4.136
97504W        W58870  38.569  38.986   3.770
97505W        W58871  24.623  43.409   3.344
97506W        W58872  32.917   7.197  11.947
97507W        W58873  29.946   2.771   4.822
97508W        W58874  31.559  12.331  13.041
97509W        W58875  27.009   3.254   1.768
97510W        W58876  36.000  41.879  10.985
97511W        W58877  10.364  34.904   3.302
97512W        W58878  23.560  10.708  12.564
97513W        W58879   5.252  26.069  11.957
97514W        W58880  36.938   5.841   0.344
97515W        W58881   8.388   2.887   2.410
97516W        W58882  35.930  41.016  13.496
97517W        W58883  34.893   9.788  14.980
97518W        W58884  35.440  35.918  14.760
97519W        W58885   4.915   7.779  14.819
97520W        W58886  32.938  39.846   2.699
97521W        W58887  18.649  25.574  14.336
97522W        W58888  13.105  34.475   0.407
97523W        W58889  22.029   8.705  14.952
97524W        W58890  40.874  24.192   2.203
97525W        W58891  33.554  36.978  13.467
97526W        W58892  17.155   3.306   4.317
97527W        W58893  18.713  28.052  13.396
97528W        W58894  18.248  16.597   4.237
97529W        W58895  19.689   0.458  12.535
97530W        W58896   1.304  42.524   1.322
97531W        W58897   4.322  17.269   0.854
97532W        W58898  28.612  24.640  14.313
97533W        W58899  32.585  39.010   4.626
97534W        W58900  28.644   6.855   3.770
97535W        W58901  40.798  29.512   4.692
97536W        W58902  33.044   6.677   0.917
97537W        W58903   3.823  42.283   2.180
97538W        W58904   4.361   9.266  14.896
97539W        W58905  18.133  27.478  11.574
97540W        W58906  34.883  33.535   1.410
97541W        W58907  41.893  21.614   4.160
97542W        W58908  21.171  27.154  11.467
97543W        W58909  39.346   2.284   0.484
97544W        W58910   6.687  11.184  12.417
97545W        W58911  16.811  29.016  10.429
97546W        W58912  40.913  14.817  10.580
97547W        W58913  33.879  12.168   3.645
97548W        W58914  19.681  11.200  10.478
97549W        W58915  21.120   9.760   0.928
97550W        W58916   1.976  19.229  12.843
97551W        W58917  19.537  34.059   9.474
97552W        W58918   0.919  32.561   2.286
97553W        W58919  32.007   7.294  11.517
97554W        W58920  17.593  31.905   4.764
97555W        W58921   4.936   2.793   3.211
97556W        W58922  18.780  11.365   2.260
97557W        W58923  15.228  32.029   0.403
97558W        W58924  19.736  27.552  14.286
97559W        W58925  13.840  11.340  14.434
97560W        W58926  14.810  41.358   2.839
97561W        W58927  24.595  35.574  13.439
97562W        W58928  40.447  40.047   4.127
97563W        W58929  32.423  18.618  13.921
97564W        W58930   5.233  22.176  10.423
97565W        W58931  28.141  33.123   2.726
97566W        W58932  33.030  19.132   2.764
97567W        W58933  39.432  20.240  14.337
97568W        W58934  28.074  32.564  11.858
97569W        W58935  23.197  33.471   1.341
97570W        W58936   8.756  34.990   2.324
97571W        W58937   2.828  21.140   3.686
97572W        W58938  30.910  32.396  14.830
97573W        W58939   1.749  29.535   9.924
97574W        W58940  44.951   0.866  10.959
97575W        W58941  25.679   2.459  13.394
97576W        W58942  15.239  25.113   2.869
97577W        W58943  42.863  12.135   0.879
97578W        W58944  21.178  20.103  13.493
97579W        W58945  21.219  14.782  14.304
97580W        W58946  41.407  23.577  14.765
97581W        W58947  12.682  22.679  11.009
97582W        W58948   5.251  34.008   0.278
97583W        W58949  22.175  36.044   0.389
97584W        W58950  21.730  13.762   2.287
97585W        W58951  33.129   3.868  11.536
97586W        W58952   2.304  29.638   0.871
97587W        W58953  35.934   2.823   4.332
97588W        W58954   2.235  14.186   2.359
97589W        W58955  36.514  14.225   2.730
97590W        W58956  41.821  15.716   2.867
97591W        W58957  19.778  34.491   2.401
97592W        W58958   8.397  37.489   3.649
97593W        W58959  25.053  29.142  12.864
97594W        W58960  19.275  31.642   2.369
97595W        W58961  40.890  12.223  14.358
97596W        W58962  14.630  25.654   0.945
97597W        W58963  31.403   3.365  10.610
97598W        W58964  29.588  27.638   9.970
97599W        W58965  24.054  37.918  12.070
97600W        W58966  43.020  13.834   1.897
97601W        W58967  25.109  44.289   1.243
97602W        W58968  39.052  26.035  13.007
97603W        W58969  29.173   7.357   1.798
97604W        W58970  24.126  43.848  14.830
97605W        W58971  33.924  42.372  13.315
97606W        W58972   2.356  25.523  12.500
97607W        W58973  26.141  25.712   5.099
97608W        W58974  26.169  20.731  14.889
97609W        W58975  20.108  41.904  14.386
97610W        W58976  41.382  27.022   2.848
97611W        W58977  18.703  30.909   4.170
97612W        W58978  26.051  29.660  12.958
97613W        W58979   6.274  36.062   3.831
97614W        W58980  41.837  14.802  11.954
97615W        W58981  19.753  23.195  11.007
97616W        W58982   5.701  24.513   1.377
97617W        W58983  16.648  10.771   1.384
97618W        W58984  25.654  43.303   1.759
97619W        W58985  25.477  22.671  11.938
97620W        W58986   2.793  16.144  14.002
97621W        W58987  18.228   0.765   2.828
97622W        W58988  13.155   8.841   4.135
97623W        W58989  31.041  44.441  13.436
97624W        W58990   0.439  37.571   4.709
97625W        W58991  35.432   1.247   1.368
97626W        W58992  12.821  10.247  11.384
97627W        W58993  26.957   3.461   0.733
97628W        W58994  12.168  31.122   3.221
97629W        W58995  44.909  42.292  12.916
97630W        W58996  22.554  22.646  11.414
97631W        W58997  10.768  33.971   2.178
97632W        W58998  32.930  13.189   1.784
97633W        W58999  28.477   1.795  12.480
97634W        W59000  15.694  30.070   1.923
97635W        W59001  28.469  17.724   2.323
97636W        W59002  26.073  10.369  13.336
97637W        W59003  36.898  24.070  12.991
97638W        W59004  13.249  26.205  14.980
97639W        W59005  21.051   9.386  10.924
97640W        W59006   8.192  21.637  11.906
97641W        W59007   4.405  20.228  10.445
97642W        W59008   8.859  38.336   3.260
97643W        W59009  12.218  44.817   3.683
97644W        W59010   2.233  44.395  11.493
97645W        W59011  19.250  31.903   2.278
97646W        W59012  31.558  31.551   3.214
97647W        W59013  27.683  15.774  11.551
97648W        W59014  36.513  34.966  14.794
97649W        W59015  29.456  16.705  11.468
97650W        W59016  34.013   1.417   1.385
97651W        W59017   6.689  18.725  12.449
97652W        W59018  29.541  32.535  12.406
97653W        W59019  36.518  26.637  14.762
97654W        W59020  19.137  42.777   3.255
97655W        W59021  21.061  27.006  12.400
97656W        W59022  24.698  24.501  13.377
97657W        W59023   5.791  35.562  11.859
97658W        W59024  43.353  43.018   1.813
97659W        W59025  13.261  16.166   4.742
97660W        W59026   5.365  21.174   1.786
97661W        W59027  44.407  13.840  13.504
97662W        W59028   8.350  10.639  12.537
97663W        W59029  27.630   9.761   4.633
97664W        W59030  19.130  24.488   3.322
97665W        W59031   8.714   0.324   1.225
97666W        W59032  24.705  13.328  10.581
97667W        W59033  39.007  43.982  10.135
97668W        W59034  27.016  32.096  13.929
97669W        W59035  11.347   0.859  10.455
97670W        W59036  26.654  34.882  14.291
97671W        W59037   6.329   9.703  10.938
97672W        W59038  41.393   3.843   0.962
97673W        W59039  26.622  19.759   2.869
97674W        W59040   7.336  44.756  10.531
97675W        W59041  10.169  43.441  13.019
97676W        W59042  32.981  37.891   3.338
97677W        W59043  42.869  35.942  12.349
97678W        W59044  26.642   5.430  14.832
97679W        W59045  30.078  29.617   0.863
97680W        W59046   1.955  25.123  14.332
97681W        W59047   2.956  13.230  14.927
97682W        W59048  23.050  16.637   0.378
97683W        W59049  32.453  11.173   0.259
97684W        W59050  40.987   4.774  12.084
97685W        W59051   0.479  25.566  14.828
97686W        W59052  11.179  35.053  10.467
97687W        W59053  29.953   5.750  13.027
97688W        W59054  24.629  22.152  11.477
97689W        W59055  10.851  33.599   0.292
97690W        W59056   5.761  17.207  11.050
97691W        W59057  16.695   9.337  11.592
97692W        W59058  26.119  25.005   4.282
97693W        W59059  23.536  32.592   0.382
97694W        W59060   9.353  36.400  11.400
97695W        W59061  43.905  29.652   0.444
97696W        W59062  21.627  27.593  14.476
97697W        W59063   4.300  20.083   4.134
97698W        W59064  40.961  41.464   3.658
97699W        W59065  40.412  41.942   5.151
97700W        W59066   0.451   6.372   1.429
97701W        W59067  40.467   9.652  14.993
97702W        W59068  42.815  29.656   1.263
97703W        W59069  31.578  36.538  13.527
97704W        W59070  44.773  29.033   3.671
97705W        W59071   4.890  26.607  14.337
97706W        W59072  37.376   6.341   1.297
97707W        W59073  20.742  35.936  10.467
97708W        W59074   1.463  30.111  12.874
97709W        W59075  43.883  41.854   3.702
97710W        W59076  28.019  40.452  10.921
97711W        W59077  34.883   4.394   2.784
97712W        W59078  35.584  23.727  10.463
97713W        W59079   6.913  11.239   4.118
97714W        W59080  12.325  24.507  13.468
97715W        W59081  43.792   2.276  13.930
97716W        W59082  14.618  37.052  10.474
97717W        W59083  31.083  34.477   1.923
97718W        W59084  10.718   7.755   3.378
97719W        W59085   6.361  10.281   1.281
97720W        W59086  19.639   1.826  11.055
97721W        W59087  32.987  39.435   4.803
97722W        W59088   1.291   0.259  10.414
97723W        W59089  34.507   8.831  11.062
97724W        W59090  28.580   5.910   0.438
97725W        W59091  43.952   4.843   1.913
97726W        W59092   5.264  35.107  10.953
97727W        W59093   2.841  42.911   4.760
97728W        W59094   5.382  21.120   4.187
97729W        W59095  18.147  17.674  14.901
97730W        W59096  35.546  11.267   1.815
97731W        W59097  43.917  16.295  10.576
97732W        W59098  28.144  30.578  12.484
97733W        W59099  12.323  20.133  10.498
97734W        W59100  32.406  18.227   0.727
97735W        W59101  43.905  16.584   2.275
97736W        W59102   7.180  12.833   4.773
97737W        W59103  23.674  23.717  13.448
97738W        W59104  18.740  11.841   0.743
97739W        W59105  30.475  44.420   3.343
97740W        W59106  12.265   7.242   1.448
97741W        W59107  36.511  16.648  11.000
97742W        W59108  36.062  24.684  11.528
97743W        W59109  41.023  38.836   1.383
97744W        W59110   7.216  19.688   2.393
97745W        W59111  21.728  34.597  13.377
97746W        W59112  13.689   7.802  14.975
97747W        W59113  41.358   3.315   5.269
97748W        W59114  24.622  18.592   2.790
97749W        W59115  27.050  26.029  13.371
97750W        W59116  37.537  21.665  13.797
97751W        W59117  44.476  10.378  13.038
97752W        W59118  33.445  22.717  10.889
97753W        W59119  27.970  13.137   2.664
97754W        W59120  24.586  39.969   4.140
97755W        W59121  10.758  30.055  13.889
97756W        W59122  16.281  13.714   3.334
97757W        W59123  18.155   4.896   4.348
97758W        W59124  31.928   7.870   3.184
97759W        W59125  34.397  43.447   3.723
97760W        W59126  31.467   6.319   2.858
97761W        W59127  35.600  37.538   2.675
97762W        W59128   2.903   3.458   3.197
97763W        W59129  15.190  26.484  12.011
97764W        W59130  12.217  13.135  14.868
97765W        W59131  27.547  25.977   1.786
97766W        W59132  33.386  34.422  14.427
97767W        W59133  41.380  28.656  13.818
97768W        W59134   5.923   7.805   0.926
97769W        W59135  39.500  34.510   4.322
97770W        W59136  42.301  31.472  12.459
97771W        W59137  16.786  23.008  10.600
97772W        W59138   9.752  26.107  13.515
97773W        W59139   9.835  34.485  14.806
97774W        W59140  24.117   1.261   1.329
97775W        W59141  21.090  35.574   1.802
97776W        W59142  33.483  43.299   1.242
97777W        W59143  10.209   2.819  14.869
97778W        W59144   6.339   8.299  14.497
97779W        W59145  23.988   5.764   9.954
97780W        W59146  12.139  22.030  10.918
97781W        W59147  31.127  13.762  13.462
97782W        W59148  13.833  29.035   2.304
97783W        W59149  13.196   9.784  12.842
97784W        W59150  23.080  30.468  14.357
97785W        W59151  28.010  25.082  13.497
97786W        W59152  33.608   1.969   3.691
97787W        W59153  17.617  20.222  12.887
97788W        W59154  38.863  22.575   2.390
97789W        W59155  14.754  25.061   2.408
97790W        W59156  12.202  28.964   4.733
97791W        W59157  35.374  18.059  13.873
97792W        W59158  33.124   3.830   3.342
97793W        W59159   5.274  43.989  13.897
97794W        W59160  12.613  22.700   4.734
97795W        W59161  25.983  33.599   4.332
97796W        W59162  25.600  24.111  11.538
97797W        W59163   5.383  40.937  10.581
97798W        W59164  35.916  14.329   3.339
97799W        W59165  19.701  38.539   1.391
97800W        W59166  18.558   5.403  13.969
97801W        W59167   0.297  30.509  13.396
97802W        W59168   0.980  34.910   1.222
97803W        W59169  11.169  16.216   1.748
97804W        W59170  21.611   2.821  10.980
97805W        W59171  22.694  12.805  13.421
97806W        W59172  10.145  39.418  14.300
97807W        W59173  44.933   3.402   0.803
97808W        W59174  22.554  41.412   1.697
97809W        W59175  27.445   2.848   2.844
97810W        W59176   6.710   8.729  10.501
97811W        W59177  22.209  35.069  11.428
97812W        W59178  41.043   6.301   3.232
97813W        W59179  34.464   6.806  14.835
97814W        W59180  33.464   5.410   4.597
97815W        W59181  44.497  43.898   4.700
97816W        W59182  43.464  12.674   3.857
97817W        W59183  16.604  34.525   2.826
97818W        W59184  38.546   6.275  11.872
97819W        W59185  43.818  34.536  13.415
97820W        W59186  36.533   1.261  11.423
97821W        W59187   5.281   6.290  10.921
97822W        W59188  36.073  32.988   2.757
97823W        W59189  12.621  39.410   4.154
97824W        W59190   6.911   2.401   4.311
97825W        W59191  30.618  21.201   0.316
97826W        W59192  35.939  29.956   4.291
97827W        W59193  24.526  42.503  14.411
97828W        W59194   9.258  36.922   3.640
97829W        W59195  42.002  22.513   3.677
97830W        W59196   9.333  41.928  11.393
97831W        W59197  10.337  44.931  14.848
97832W        W59198  26.548  14.753   4.703
97833W        W59199  35.093  21.559  11.972
97834W        W59200  20.037   8.822   2.858
97835W        W59201   5.883  31.623  10.904
97836W        W59202  34.935   1.953  13.004
97837W        W59203  25.038   5.687   1.799
97838W        W59204  14.130  11.304  11.871
97839W        W59205  40.439  28.068  12.846
97840W        W59206  25.591  27.179  11.958
97841W        W59207  19.541  17.113  13.487
97842W        W59208   1.465  12.197  13.803
97843W        W59209  29.031  13.259  13.474
97844W        W59210  31.992  32.915  12.416
97845W        W59211  23.039  32.103   3.206
97846W        W59212  36.477  18.087  14.499
97847W        W59213  32.393  38.952   2.369
97848W        W59214  42.823  21.080  10.626
97849W        W59215  37.412  35.479   3.321
97850W        W59216  16.794  17.714   4.349
97851W        W59217  20.625  44.946  10.543
97852W        W59218   1.903  17.191  12.572
97853W        W59219  10.280  39.000  10.545
97854W        W59220  24.150  21.679   1.290
97855W        W59221  14.318  26.176   0.453
97856W        W59222   9.742  16.633  14.939
97857W        W59223  41.943  10.651  12.977
97858W        W59224  16.674  13.333   0.386
97859W        W59225  29.139   3.251  11.411
97860W        W59226  18.197  41.414  12.864
97861W        W59227  44.308  43.909  13.310
97862W        W59228  33.525   0.269   1.278
97863W        W59229  38.435  14.210  11.011
97864W        W59230   0.257  15.300  11.588
97865W        W59231  42.303   3.458  10.897
97866W        W59232  34.425  20.717   4.350
97867W        W59233  17.650  14.748   1.838
97868W        W59234  13.743  43.779   3.161
97869W        W59235  24.556  25.502  14.407
97870W        W59236  40.463  40.807  11.906
97871W        W59237   9.289  33.903   1.242
97872W        W59238  39.826  35.861   1.864
97873W        W59239   8.234  35.073  10.456
97874W        W59240  10.789  29.961  14.452
97875W        W59241  11.666  40.529  10.569
97876W        W59242  33.587  10.328   3.644
97877W        W59243  16.793  21.754   4.632
97878W        W59244   8.862  29.574   0.299
97879W        W59245   8.713  19.764  11.876
97880W        W59246  29.104   2.285   1.377
97881W        W59247  23.183   1.938  13.916
97882W        W59248   6.886   8.163   0.904
97883W        W59249  15.819  41.888   0.903
97884W        W59250  19.574  36.036  12.064
97885W        W59251  22.055  34.035  14.384
97886W        W59252  36.940   3.902  12.936
97887W        W59253  29.004  23.154   3.703
97888W        W59254  42.418  41.022  11.373
97889W        W59255   3.255  28.096   0.840
97890W        W59256  37.928   8.846  10.579
97891W        W59257  37.544   9.315  13.373
97892W        W59258  38.391  23.158  13.899
97893W        W59259  14.290  29.046   4.281
97894W        W59260  11.799  40.887  14.815
97895W        W59261   3.397   0.425   4.661
97896W        W59262  17.677   4.282   4.747
97897W        W59263  24.081  11.796  11.382
97898W        W59264  38.955  21.675   0.727
97899W        W59265  44.422  20.633  12.879
97900W        W59266   2.785   8.388   4.655
97901W        W59267  15.304  24.528   0.438
97902W        W59268  34.446  43.779  11.863
97903W        W59269  43.385  36.079   1.900
97904W        W59270  13.739  11.316   2.772
97905W        W59271  16.583  26.605   1.222
97906W        W59272   5.890  24.155  11.889
97907W        W59273  43.482   4.322   0.383
97908W        W59274   5.333  29.970  13.986
97909W        W59275   4.277   4.734   3.710
97910W        W59276   6.893   3.753   3.817
97911W        W59277  32.980   7.353   2.248
97912W        W59278  12.832   7.796   1.851
97913W        W59279  42.789  27.493   1.700
97914W        W59280  25.145  29.450   1.710
97915W        W59281  14.306  14.100  12.044
97916W        W59282   1.863  11.341  14.324
97917W        W59283  43.449  27.003  10.988
97918W        W59284  17.661   0.958   1.373
97919W        W59285   9.822  44.486   0.820
97920W        W59286  28.097  31.640  13.432
97921W        W59287  15.648  44.878  12.034
97922W        W59288   7.222   1.402   3.685
97923W        W59289  31.500   1.974  13.967
97924W        W59290  44.327   9.690   3.850
97925W        W59291  40.306   3.716   4.156
97926W        W59292  16.270  43.013   4.145
97927W        W59293  15.632  22.067   3.299
97928W        W59294   2.359  14.272  12.381
97929W        W59295  34.909  19.136  11.042
97930W        W59296  27.590  19.740  11.594
97931W        W59297  39.919  34.473   2.666
97932W        W59298  20.523  44.331  11.536
97933W        W59299  41.792   6.733   4.695
97934W        W59300   7.771   9.154   2.721
97935W        W59301  25.200   6.364  11.573
97936W        W59302  12.640  21.236   1.237
97937W        W59303   8.899  33.937  14.787
97938W        W59304   1.435   1.408  13.449
97939W        W59305  37.432   8.816   3.721
97940W        W59306  30.494  39.543   0.733
97941W        W59307  17.761  21.526  13.978
97942W        W59308   7.886  42.461  10.617
97943W        W59309  15.236   0.839   1.410
97944W        W59310  20.734  14.654  12.882
97945W        W59311   0.983  32.442  13.834
97946W        W59312  16.258  14.154  11.869
97947W        W59313  27.671  35.859  10.568
97948W        W59314  40.880  39.385   4.700
97949W        W59315  30.142   9.197   3.867
97950W        W59316  33.054   2.396   4.337
97951W        W59317  29.979  16.131  11.924
97952W        W59318   6.352  22.663  12.001
97953W        W59319  28.025  36.504  11.123
97954W        W59320   7.272  12.271  13.793
97955W        W59321  19.604  19.146   1.774
97956W        W59322   3.892  38.999  12.552
97957W        W59323   7.396  16.642  12.023
97958W        W59324  24.712  41.794   4.650
97959W        W59325  32.411  12.139  12.984
97960W        W59326  30.638  30.522   2.828
97961W        W59327  12.286  37.407   3.794
97962W        W59328  44.964   6.201   0.397
97963W        W59329  37.484   4.206   1.415
97964W        W59330   3.254  38.395   1.333
97965W        W59331  21.671  41.507   2.679
97966W        W59332  27.646  12.672  11.981
97967W        W59333  35.017  28.474  11.525
97968W        W59334  18.284  43.960   1.758
97969W        W59335   0.248  12.202   1.846
97970W        W59336  31.927  37.468   3.838
97971W        W59337  35.890  40.879   3.837
97972W        W59338  16.154  10.272  13.465
97973W        W59339   1.789  11.336   3.667
97974W        W59340  11.339   1.788   0.766
97975W        W59341   1.455  43.461  13.018
97976W        W59342  24.717  40.357   4.201
97977W        W59343  22.733  24.090  13.479
97978W        W59344  27.962  40.038  11.087
97979W        W59345  13.688  34.992  12.956
97980W        W59346  14.820  11.841  10.087
97981W        W59347  19.250  28.499  11.547
97982W        W59348  19.043  43.960  11.490
97983W        W59349  11.850  14.676   0.844
97984W        W59350  36.983  20.052  12.571
97985W        W59351  28.487  30.933   3.314
97986W        W59352   8.226  10.774   4.713
97987W        W59353  44.827  41.991   1.383
97988W        W59354   1.768  24.679  13.948
97989W        W59355   3.342   5.779  10.475
97990W        W59356   6.357  30.011   3.864
97991W        W59357  19.261  19.181   1.411
97992W        W59358  15.620  37.054  13.950
97993W        W59359  24.019  41.883   0.334
97994W        W59360  26.592   1.258   4.631
97995W        W59361   2.441  36.922   0.301
97996W        W59362  26.551   8.721  13.007
97997W        W59363   0.790  11.825   3.200
97998W        W59364  18.136  18.558  13.538
97999W        W59365   6.873  43.492   3.311
98000W        W59366  36.352  41.325  11.127
98001W        W59367  11.854  16.298   1.759
98002W        W59368  40.942  26.199   2.863
98003W        W59369  34.615  37.348  13.856
98004W        W59370  41.860  15.696   1.437
98005W        W59371   5.861  34.939  12.562
98006W        W59372  24.984  18.755  11.023
98007W        W59373  26.097  17.120  11.916
98008W        W59374  18.691  42.497   0.748
98009W        W59375  10.142  22.634   3.685
98010W        W59376   9.680  28.025   2.867
98011W        W59377  31.471   3.336   5.121
98012W        W59378  17.109  38.420  13.933
98013W        W59379  37.940  39.431   4.708
98014W        W59380  26.654  27.183   4.120
98015W        W59381  18.235  23.174   0.960
98016W        W59382   2.367   9.313  11.906
98017W        W59383  16.739  37.059  12.561
98018W        W59384  26.632  23.146   3.317
98019W        W59385  40.805  41.454  11.435
98020W        W59386  20.184  17.190   5.196
98021W        W59387   7.797  27.947   2.397
98022W        W59388  36.409  28.034  14.786
98023W        W59389  24.226   5.368   5.775
98024W        W59390  33.121  30.117  11.417
98025W        W59391  44.827  32.437   1.735
98026W        W59392  14.652  35.910   0.911
98027W        W59393  17.734  35.892  14.363
98028W        W59394  20.644   1.773   1.398
98029W        W59395  18.657  25.138   5.164
98030W        W59396   2.391   2.297  13.005
98031W        W59397  17.267  41.884   4.242
98032W        W59398  10.283  17.108   3.658
98033W        W59399   6.393  22.619   2.733
98034W        W59400  21.622  40.511  11.862
98035W        W59401  31.566  36.084  14.923
98036W        W59402  17.638  35.582  13.331
98037W        W59403  34.872  18.098  10.955
98038W        W59404  44.449   1.959  13.884
98039W        W59405  44.864  30.012  13.840
98040W        W59406  41.511  19.190   0.902
98041W        W59407  16.735  11.211   1.885
98042W        W59408   6.305   0.745  12.928
98043W        W59409  41.009  21.018   4.339
98044W        W59410  36.523   1.278   0.835
98045W        W59411  26.543  40.457  10.975
98046W        W59412   1.305  28.120   1.253
98047W        W59413  23.210  23.681   3.853
98048W        W59414   8.761  19.195  13.944
98049W        W59415   2.354   9.675  13.988
98050W        W59416   3.374  29.994   1.286
98051W        W59417  33.580  31.594   3.374
98052W        W59418   5.369   4.275   3.226
98053W        W59419  27.120  43.965  11.917
98054W        W59420  17.143  28.063  10.472
98055W        W59421  29.156  38.506   1.884
98056W        W59422  26.703  14.126   2.302
98057W        W59423  31.402  30.591  12.424
98058W        W59424  23.226  25.601  14.842
98059W        W59425  32.993  23.082   5.124
98060W        W59426  16.310  37.005  12.823
98061W        W59427  34.909  35.949  11.014
98062W        W59428   2.410   4.420   1.797
98063W        W59429   1.271  25.542   2.862
98064W        W59430   4.854  42.519  11.901
98065W        W59431   4.802  25.566   2.800
98066W        W59432   4.848  32.951  13.454
98067W        W59433  29.948  17.594  12.496
98068W        W59434  18.238  13.112   3.227
98069W        W59435   3.781  43.476   2.347
98070W        W59436  31.574  42.908  13.887
98071W        W59437  40.046  19.731   2.840
98072W        W59438   1.841   6.272  12.371
98073W        W59439  44.375  43.400   3.646
98074W        W59440  28.575  20.122  12.543
98075W        W59441   7.824  21.732  14.930
98076W        W59442  30.503  13.765  13.794
98077W        W59443  24.216  40.414  12.456
98078W        W59444  29.061  44.004  11.562
98079W        W59445   6.699  42.435   0.392
98080W        W59446  38.570  24.091  13.524
98081W        W59447  30.027  18.189   5.224
98082W        W59448  12.271  35.960  11.121
98083W        W59449   4.840  41.326  10.078
98084W        W59450  29.092  15.806   0.394
98085W        W59451  21.225  43.429  10.407
98086W        W59452   6.319  38.558  10.571
98087W        W59453  26.541  43.463  13.483
98088W        W59454  36.522   9.715   3.722
98089W        W59455  19.654  34.106  12.898
98090W        W59456  12.117  42.001  11.531
98091W        W59457  13.763  20.267   1.430
98092W        W59458  25.691  13.630   2.837
98093W        W59459  15.204   5.260   4.781
98094W        W59460  26.574  14.323   0.803
98095W        W59461  44.276  36.915  10.597
98096W        W59462  34.947  34.462  10.508
98097W        W59463  40.381  27.172   0.475
98098W        W59464  15.713   6.788  11.415
98099W        W59465  33.015  25.558   1.914
98100W        W59466  39.503   4.342   0.771
98101W        W59467  11.719  43.839   0.428
98102W        W59468  25.032   5.693   2.762
98103W        W59469  41.933  36.483  10.980
98104W        W59470  25.089  23.713  13.424
98105W        W59471  33.553  26.197   3.160
98106W        W59472  21.572   3.328   4.616
98107W        W59473   8.258   0.954   2.817
98108W        W59474  42.419   7.682  14.910
98109W        W59475  22.693  15.268   4.710
98110W        W59476   6.305   0.846   3.181
98111W        W59477  21.612  44.435   1.776
98112W        W59478  10.315  27.477   4.265
98113W        W59479  33.587  30.644   0.868
98114W        W59480  21.027  31.473  14.503
98115W        W59481  16.166  32.542   0.935
98116W        W59482  24.033  31.053   2.256
98117W        W59483  34.451  42.338  13.897
98118W        W59484  19.634  22.662  11.583
98119W        W59485  43.892  34.909  12.926
98120W        W59486   0.445  31.573   2.694
98121W        W59487  11.251  23.114  13.504
98122W        W59488  30.132  36.006   3.251
98123W        W59489   7.319  17.707  11.909
98124W        W59490   1.892  36.444  13.462
98125W        W59491  36.976  34.394   0.393
98126W        W59492  14.611  40.451  12.380
98127W        W59493  23.719   5.719   3.684
98128W        W59494   3.852   4.386   0.350
98129W        W59495  31.093  18.283   4.253
98130W        W59496  11.629  37.900   0.243
98131W        W59497   3.231   2.277   4.802
98132W        W59498  43.983  27.518   0.825
98133W        W59499  32.970  37.858   4.623
98134W        W59500  10.315  22.218  13.496
98135W        W59501  22.085   7.210  13.478
98136W        W59502  31.406  38.051  12.904
98137W        W59503  14.809  11.363   2.850
98138W        W59504  42.797  44.446  13.058
98139W        W59505  22.168  32.423  11.879
98140W        W59506  42.464  43.346  12.075
98141W        W59507  43.485  18.583  12.507
98142W        W59508  20.704   4.430  12.517
98143W        W59509  21.235  31.100  13.873
98144W        W59510   0.970  41.344   2.366
98145W        W59511  25.595  18.722  12.402
98146W        W59512  16.091  29.049   4.132
98147W        W59513  40.444  22.694  10.512
98148W        W59514  10.287  32.443   0.446
98149W        W59515   6.761  32.052   1.391
98150W        W59516   2.436   4.841  13.382
98151W        W59517   4.221  18.138  12.574
98152W        W59518  37.042   5.934  14.934
98153W        W59519   8.779  37.080   2.414
98154W        W59520  34.899  44.491   4.722
98155W        W59521  19.104  29.449   0.768
98156W        W59522  32.594  22.102  11.572
98157W        W59523  41.470   2.798  11.121
98158W        W59524  31.559  10.155   0.366
98159W        W59525  13.698  14.727   1.831
98160W        W59526  36.480  31.420   0.296
98161W        W59527  43.395  19.087  14.781
98162W        W59528  39.495   0.449   0.280
98163W        W59529   2.298  39.051  13.841
98164W        W59530  37.564  28.099  10.503
98165W        W59531  32.636  44.361  10.547
98166W        W59532  18.757  36.911   0.464
98167W        W59533  27.049   8.777  14.498
98168W        W59534  43.934  30.413  11.391
98169W        W59535  35.484   1.390  13.307
98170W        W59536   7.321  36.463   3.681
98171W        W59537   4.252  39.318  11.981
98172W        W59538   3.281  18.218   0.270
98173W        W59539  37.347  21.234  13.983
98174W        W59540  30.609  14.102  11.052
98175W        W59541   2.375  42.421  11.997
98176W        W59542  35.510  33.625  11.878
98177W        W59543  21.135  41.507  13.948
98178W        W59544  14.648  22.108  12.828
98179W        W59545   1.266  33.903  10.436
98180W        W59546  10.771  44.964   0.403
98181W        W59547   3.225   6.282   4.173
98182W        W59548   5.400  33.921   1.793
98183W        W59549  37.965  16.098  13.877
98184W        W59550   3.421  12.117   4.160
98185W        W59551  20.078  27.009   2.278
98186W        W59552  44.978   6.367  11.904
98187W        W59553  30.541  14.699  14.772
98188W        W59554  35.943  11.350   3.741
98189W        W59555  44.938  14.172   4.620
98190W        W59556  31.435   7.306  13.389
98191W        W59557   6.762  33.544   0.340
98192W        W59558  38.421   0.306  14.960
98193W        W59559  41.415  13.228  12.902
98194W        W59560  44.454  29.973   3.811
98195W        W59561  30.034  36.059  14.444
98196W        W59562  19.151   4.262   4.136
98197W        W59563   7.768  36.861   1.251
98198W        W59564  44.005  17.066  12.501
98199W        W59565  27.963   7.237  14.818
98200W        W59566  33.477  23.500   4.314
98201W        W59567  22.111   6.770  10.605
98202W        W59568  43.443  17.097   0.295
98203W        W59569   5.839  38.518  11.101
98204W        W59570   5.246   9.759  12.554
98205W        W59571  19.737  33.496   0.794
98206W        W59572  10.363  42.850  12.998
98207W        W59573  19.187  14.189  14.293
98208W        W59574  31.900   9.345  10.453
98209W        W59575   8.183  18.117   1.223
98210W        W59576   0.894  13.654   4.637
98211W        W59577   6.796  15.327  13.353
98212W        W59578  10.653   5.845  13.040
98213W        W59579  21.037  15.207  11.464
98214W        W59580  40.406  38.870   4.622
98215W        W59581  40.844   0.848  14.953
98216W        W59582  38.492   2.443  12.975
98217W        W59583   3.434  12.671  12.861
98218W        W59584  42.286  16.276  12.850
98219W        W59585  14.649  43.383  10.994
98220W        W59586   6.332  36.389   1.769
98221W        W59587  40.463  12.289   1.356
98222W        W59588  22.580  16.679  11.938
98223W        W59589   7.889   9.344   4.670
98224W        W59590  33.967   4.877  12.983
98225W        W59591  26.606  36.352  11.467
98226W        W59592  26.146  13.761   3.646
98227W        W59593  20.531  24.156  11.121
98228W        W59594   5.740  29.145  12.522
98229W        W59595  13.841  13.176   4.742
98230W        W59596   0.848  21.120   0.858
98231W        W59597  38.415  14.656  13.443
98232W        W59598  15.325   4.362   1.380
98233W        W59599  33.037  18.242  13.407
98234W        W59600   6.183   3.288  14.342
98235W        W59601  38.041  14.161  11.416
98236W        W59602  22.185  34.100   0.399
98237W        W59603  42.924  29.492  10.467
98238W        W59604  33.423  23.035   1.871
98239W        W59605  37.833  21.566   1.451
98240W        W59606   5.876  25.185   4.301
98241W        W59607   3.239  21.144   2.202
98242W        W59608  18.681   1.733   5.148
98243W        W59609  16.743  44.400   1.866
98244W        W59610  28.974   0.384  11.903
98245W        W59611  31.050  38.050   0.956
98246W        W59612  24.595  10.655   0.932
98247W        W59613  38.058   9.765   3.650
98248W        W59614  28.678   5.250  14.980
98249W        W59615   7.265   8.757  12.459
98250W        W59616  20.718  19.111  13.542
98251W        W59617  43.333   0.373   0.451
98252W        W59618   3.403   1.873  11.500
98253W        W59619  19.140  17.597   2.685
98254W        W59620  22.719  30.164  12.991
98255W        W59621  35.945  43.391   0.408
98256W        W59622  41.923  11.254   1.803
98257W        W59623  25.559   4.273  14.016
98258W        W59624  32.073   1.424   2.275
98259W        W59625  25.469  23.701   4.143
98260W        W59626  23.218  44.357   1.385
98261W        W59627  41.827  31.110   3.382
98262W        W59628  42.031  20.259   2.796
98263W        W59629   5.848  20.165  14.951
98264W        W59630  13.725  26.122   3.233
98265W        W59631  18.293   0.314   1.402
98266W        W59632  35.394  35.510  13.446
98267W        W59633  40.981  37.001  13.850
98268W        W59634   7.700  15.629   0.835
98269W        W59635  19.160  18.278   1.921
98270W        W59636   2.334  12.172   2.819
98271W        W59637  43.877  44.777   1.870
98272W        W59638  18.277  15.822   0.472
98273W        W59639  14.749  18.249  12.966
98274W        W59640  26.477  34.954  11.963
98275W        W59641  15.179  10.767  12.030
98276W        W59642  43.305   0.348  13.023
98277W        W59643  44.883  16.695   0.960
98278W        W59644  37.449  15.259   3.630
98279W        W59645   6.743   0.893  14.313
98280W        W59646  27.554   8.844   3.839
98281W        W59647  30.009  16.760  13.479
98282W        W59648  41.420  44.311  13.841
98283W        W59649  16.747   7.263  11.440
98284W        W59650  24.539   1.753   1.758
98285W        W59651  18.078  32.612   2.364
98286W        W59652  15.122  42.800  10.981
98287W        W59653  37.379  11.858   4.238
98288W        W59654   1.965  24.635  14.794
98289W        W59655  34.424  38.947   3.723
98290W        W59656  39.472  33.954   1.849
98291W        W59657  24.655  44.936  14.378
98292W        W59658  30.617  10.253  11.015
98293W        W59659   9.347  42.809   3.211
98294W        W59660  34.909  38.469  14.963
98295W        W59661  25.128  10.874   4.791
98296W        W59662  28.605  25.061  13.981
98297W        W59663  36.910   9.879   3.384
98298W        W59664  19.544  37.406   9.967
98299W        W59665  22.662   4.713  10.532
98300W        W59666   2.812  18.606  12.376
98301W        W59667  23.563  39.007   4.612
98302W        W59668  10.144  29.093   2.828
98303W        W59669   6.320   0.406  14.453
98304W        W59670   0.269  42.870   2.768
98305W        W59671  33.533  24.051   1.303
98306W        W59672  10.709  31.130   1.857
98307W        W59673  30.005  44.321   2.863
98308W        W59674  26.194  24.977   0.315
98309W        W59675  13.626   1.277  12.848
98310W        W59676  10.686  16.728  14.490
98311W        W59677   2.247  42.992   4.338
98312W        W59678  32.429  40.011  10.137
98313W        W59679  29.052   8.775  10.644
98314W        W59680   4.924  43.923  14.923
98315W        W59681   0.364  11.721   3.189
98316W        W59682  32.445   3.302  13.941
98317W        W59683  11.648   7.364  10.041
98318W        W59684   4.347  27.178  14.299
98319W        W59685  43.279  11.198  13.852
98320W        W59686  16.696  27.510   4.838
98321W        W59687  39.409  28.097   2.835
98322W        W59688   8.368  27.972  14.909
98323W        W59689  31.468  36.083  12.899
98324W        W59690  34.117  14.598   4.120
98325W        W59691  26.074  22.077  14.405
98326W        W59692  37.018  17.654  11.107
98327W        W59693  41.334  11.174  11.580
98328W        W59694  23.692   3.217   3.805
98329W        W59695  43.346  14.173   4.145
98330W        W59696  20.067   3.272   9.980
98331W        W59697   0.966   0.314  14.955
98332W        W59698   9.837  30.542  12.353
98333W        W59699  38.350   3.920   4.780
98334W        W59700  44.894  15.292  13.914
98335W        W59701  44.313  11.131   4.175
98336W        W59702  33.519  38.918   9.568
98337W        W59703   3.858  37.351   3.812
98338W        W59704  25.588  23.730  14.810
98339W        W59705  38.563  14.797   0.297
98340W        W59706  30.448  39.333  11.417
98341W        W59707  20.726  41.386   1.721
98342W        W59708  14.729  18.578   3.235
98343W        W59709  29.065   0.266  13.823
98344W        W59710   5.872  39.364   3.640
98345W        W59711  36.050  41.856   1.325
98346W        W59712   2.416  22.110  12.908
98347W        W59713  29.528  18.257   3.317
98348W        W59714  30.969  38.472   3.351
98349W        W59715  40.399  44.301   4.731
98350W        W59716  10.749   4.790   0.761
98351W        W59717  21.252  10.779   1.298
98352W        W59718  27.147  16.091   0.903
98353W        W59719  13.666  31.022   5.568
98354W        W59720  25.070  39.965  14.919
98355W        W59721  15.201  44.274   1.380
98356W        W59722   4.214  19.576   4.302
98357W        W59723  26.701  44.361  12.982
98358W        W59724  41.458  24.680  10.446
98359W        W59725  23.642  21.635  11.035
98360W        W59726  34.552  40.315  12.999
98361W        W59727  36.001  13.682  13.940
98362W        W59728  10.172  31.973  13.903
98363W        W59729  29.151  36.850  12.011
98364W        W59730  17.720  23.600   1.899
98365W        W59731  24.613  41.862  12.417
98366W        W59732  39.924  10.811   4.738
98367W        W59733  14.300  39.839  13.826
98368W        W59734  22.649  13.247   0.381
98369W        W59735   2.918  31.026  12.352
98370W        W59736   2.375  30.644   2.342
98371W        W59737  30.618   7.258   4.777
98372W        W59738  30.988  26.066  14.480
98373W        W59739  38.939  17.111   3.383
98374W        W59740  20.267   8.310   1.863
98375W        W59741  31.090  39.006   0.796
98376W        W59742  35.592  28.107   2.789
98377W        W59743  25.022  31.976  12.542
98378W        W59744  10.721  31.956  13.323
98379W        W59745  39.403  21.072  11.566
98380W        W59746  44.819   8.271  11.561
98381W        W59747  13.821   2.940  14.781
98382W        W59748  23.627  14.142   3.734
98383W        W59749   4.366  21.117   2.828
98384W        W59750  40.950   0.352  13.888
98385W        W59751   7.904  26.684   1.754
98386W        W59752  21.190  37.462   0.461
98387W        W59753  24.508   8.659   3.330
98388W        W59754  14.295  11.259  14.923
98389W        W59755  22.538  14.819  10.950
98390W        W59756   9.695  42.926  11.109
98391W        W59757  25.645  23.032   2.892
98392W        W59758  17.147   5.828  14.317
98393W        W59759  35.013   4.845   2.205
98394W        W59760  19.680   0.438   0.770
98395W        W59761  34.873   9.173  14.816
98396W        W59762   0.794  30.063  10.503
98397W        W59763  23.132  10.202   4.337
98398W        W59764  43.838  38.024   4.670
98399W        W59765   0.763  37.483   2.872
98400W        W59766  17.763  27.141  13.453
98401W        W59767  44.960   3.945   2.244
98402W        W59768   0.449  18.678  14.969
98403W        W59769  35.497  42.345  12.887
98404W        W59770  33.078  36.924   4.128
98405W        W59771  34.440  36.374   3.310
98406W        W59772  31.075  13.786  14.017
98407W        W59773  14.779  16.640  10.944
98408W        W59774  30.588  20.561  13.054
98409W        W59775  20.170  18.248   3.821
98410W        W59776   2.818  17.078   0.789
98411W        W59777  39.451  42.948   4.344
98412W        W59778   4.750  35.565  12.426
98413W        W59779  39.907  16.132   3.231
98414W        W59780  27.599  29.075   3.654
98415W        W59781  18.165  41.968  12.893
98416W        W59782  41.512  22.685   1.842
98417W        W59783  12.304  20.631  14.826
98418W        W59784  42.944  43.366   2.878
98419W        W59785  33.996  16.296  11.099
98420W        W59786  11.195  29.450  12.543
98421W        W59787  40.330  18.161  14.830
98422W        W59788  42.888  10.175   3.305
98423W        W59789  27.537   5.214  11.424
98424W        W59790  16.175  37.492   0.825
98425W        W59791   8.686   7.398   4.836
98426W        W59792  20.083  39.027   2.234
98427W        W59793  12.147  25.671  11.494
98428W        W59794  27.105  26.018  14.409
98429W        W59795  12.122  25.138  11.501
98430W        W59796  32.414  17.117   2.306
98431W        W59797  25.542  38.485  12.990
98432W        W59798  17.161   7.818   1.422
98433W        W59799  10.153  36.066  14.410
98434W        W59800   4.228  11.311  13.865
98435W        W59801  26.034  35.534   1.866
98436W        W59802  30.141  11.312   1.327
98437W        W59803  38.903  33.077   3.190
98438W        W59804  27.472  21.170  10.455
98439W        W59805  17.074   0.867   1.395
98440W        W59806   9.724   4.820   2.381
98441W        W59807  42.020  22.544  14.412
98442W        W59808  40.915  10.790   4.772
98443W        W59809  20.094   7.272   1.765
98444W        W59810   6.259  14.706  10.540
98445W        W59811  31.996  26.020  10.455
98446W        W59812  41.875  19.207   1.805
98447W        W59813  23.154  28.527   0.808
98448W        W59814  17.190   3.269  10.429
98449W        W59815  28.546  28.534   1.245
98450W        W59816  37.495  26.053   0.383
98451W        W59817  19.697  20.622   3.229
98452W        W59818   2.741   6.350  13.406
98453W        W59819  18.112  12.199   3.282
98454W        W59820  38.408  38.956   2.800
98455W        W59821   4.879  13.277  11.863
98456W        W59822   7.848  12.629  11.608
98457W        W59823  37.500  44.818   1.709
98458W        W59824  42.897  33.908   3.309
98459W        W59825  39.417   3.744   2.289
98460W        W59826  12.825  27.090   3.204
98461W        W59827   4.265  39.442   4.149
98462W        W59828  32.043  24.148  13.051
98463W        W59829  24.588  39.854   1.862
98464W        W59830  10.204  23.600   4.323
98465W        W59831   6.347  33.474  11.565
98466W        W59832   2.848  22.629   3.706
98467W        W59833  42.880   7.179  12.474
98468W        W59834  17.688  40.403   3.692
98469W        W59835  12.728  29.001   2.733
98470W        W59836  24.046  32.090  14.917
98471W        W59837  17.748  17.625  12.402
98472W        W59838  31.080  30.502  10.564
98473W        W59839  31.148  19.156  10.609
98474W        W59840  19.568  25.167  14.871
98475W        W59841  19.280  18.725  13.949
98476W        W59842  12.769  14.155   4.352
98477W        W59843  35.089  37.931  10.110
98478W        W59844  15.621  43.331   0.777
98479W        W59845  38.931  28.077  10.071
98480W        W59846  36.575  12.140   0.808
98481W        W59847  19.630   8.349  11.437
98482W        W59848  32.951   1.891   0.260
98483W        W59849  30.110   7.706  11.100
98484W        W59850  14.207   0.858  13.337
98485W        W59851  42.422  37.573  13.920
98486W        W59852   4.855  11.815   3.787
98487W        W59853  24.588  26.137  13.322
98488W        W59854  24.005  32.111   5.301
98489W        W59855  24.656   8.195  11.382
98490W        W59856  38.425  19.617   2.760
98491W        W59857  14.216  19.149   4.701
98492W        W59858  38.507  21.173  13.832
98493W        W59859  26.687   2.409   5.149
98494W        W59860  28.595   8.219  12.915
98495W        W59861  25.184   4.299  13.377
98496W        W59862  40.444  21.534   3.707
98497W        W59863  38.055  22.161   3.723
98498W        W59864  13.279  27.501   4.353
98499W        W59865  23.105   2.932  14.914
98500W        W59866  36.960  13.318  12.402
98501W        W59867  38.548  25.480  14.021
98502W        W59868  10.183   7.820   3.187
98503W        W59869   2.246  27.569  12.349
98504W        W59870  41.491  31.043   1.384
98505W        W59871  23.022  15.818  11.088
98506W        W59872   1.240  21.198  11.486
98507W        W59873  18.052   6.264   3.736
98508W        W59874  22.659   0.819  10.920
98509W        W59875  29.052  19.712   3.676
98510W        W59876  36.928  35.896  13.461
98511W        W59877  40.931  22.087   1.298
98512W        W59878  40.988  22.649   1.257
98513W        W59879  30.914  15.266  14.467
98514W        W59880   1.345   2.460   0.340
98515W        W59881  41.408  38.568   1.721
98516W        W59882  35.562  32.519   1.445
98517W        W59883  26.621  18.193  12.929
98518W        W59884  39.473  23.159   1.315
98519W        W59885  29.003  27.026  14.837
98520W        W59886   3.461  41.435  10.068
98521W        W59887  19.755  28.457   2.678
98522W        W59888  20.167   2.857   1.252
98523W        W59889  14.312  27.068  10.424
98524W        W59890  34.048   5.246  10.414
98525W        W59891  11.809  23.676   4.191
98526W        W59892  36.358  32.419  13.984
98527W        W59893   2.851  31.050   1.832
98528W        W59894   6.409   9.828  12.943
98529W        W59895  36.923  24.027   1.410
98530W        W59896  15.217  11.736  11.982
98531W        W59897  20.765  21.642   2.667
98532W        W59898  27.042  22.564   1.914
98533W        W59899  20.149   1.408   3.808
98534W        W59900  15.767  11.817   1.878
98535W        W59901   2.346  26.484   5.753
98536W        W59902  37.370  25.682  12.830
98537W        W59903  36.996  42.492   4.221
98538W        W59904  43.928  38.072  11.965
98539W        W59905  12.161  36.431   0.858
98540W        W59906  14.219  37.080  10.076
98541W        W59907  29.117   5.371   0.411
98542W        W59908  37.838  11.195  14.019
98543W        W59909   2.468   2.836  11.958
98544W        W59910  42.359  36.917  10.625
98545W        W59911  12.733  41.027   0.444
98546W        W59912  27.554  22.515  10.450
98547W        W59913  43.928   4.218   4.657
98548W        W59914  15.093  41.914  11.539
98549W        W59915  44.259   1.755  10.603
98550W        W59916  41.453   3.256  12.834
98551W        W59917  14.756   0.914  12.509
98552W        W59918  27.112  22.642  10.109
98553W        W59919  13.608  34.963  11.460
98554W        W59920  39.896  32.058   4.192
98555W        W59921  29.668  33.446  11.101
98556W        W59922  21.058   7.909  12.071
98557W        W59923  19.754   5.838   3.345
98558W        W59924  36.580  44.409   1.893
98559W        W59925  30.498  29.087  11.506
98560W        W59926   0.968  40.006  14.886
98561W        W59927  40.833  41.519  13.539
98562W        W59928  10.338  35.057  12.346
98563W        W59929  44.264  15.170   0.826
98564W        W59930  15.666  17.195  10.972
98565W        W59931   2.328  43.514   0.728
98566W        W59932  28.556  25.647  13.460
98567W        W59933   1.925  31.598  12.839
98568W        W59934  41.372   1.764  12.547
98569W        W59935  10.772   2.311  10.485
98570W        W59936  44.355  38.375   4.202
98571W        W59937  44.933   8.785   2.324
98572W        W59938  13.823  15.322   0.961
98573W        W59939  12.248  28.139   2.414
98574W        W59940  40.370  19.263  14.383
98575W        W59941  41.392   2.431   1.701
98576W        W59942  41.856   3.429  10.639
98577W        W59943   1.732  21.650  11.951
98578W        W59944  37.484  19.752   2.353
98579W        W59945  20.151  42.958  10.596
98580W        W59946  24.564  39.817  13.944
98581W        W59947   0.906  20.148  11.489
98582W        W59948  44.914  10.775   3.645
98583W        W59949   8.184  36.962   1.429
98584W        W59950  30.087  40.468   3.318
98585W        W59951  21.703  21.537   1.834
98586W        W59952  22.101  14.595   0.275
98587W        W59953   2.937   8.735   4.174
98588W        W59954   6.721  27.003  11.594
98589W        W59955  23.696   9.368   0.728
98590W        W59956  21.606   7.674  10.588
98591W        W59957  24.120  12.213  11.880
98592W        W59958  25.160  37.539  11.386
98593W        W59959  13.741  10.693  12.512
98594W        W59960  26.525  31.917  13.422
98595W        W59961   3.402  30.982   3.193
98596W        W59962  43.932  13.680   3.845
98597W        W59963   6.707  30.503   1.294
98598W        W59964  16.284  18.654   2.183
98599W        W59965  30.056  36.002   3.638
98600W        W59966  25.525  23.565   2.209
98601W        W59967   6.187  30.141  13.045
98602W        W59968  30.045  14.636  12.016
98603W        W59969  26.496   6.293   2.787
98604W        W59970  42.461  39.928   1.218
98605W        W59971  38.489  41.886  13.502
98606W        W59972   4.944  36.047   2.875
98607W        W59973  25.161  40.506   1.424
98608W        W59974  37.836  33.540   2.668
98609W        W59975  11.786   3.270   4.319
98610W        W59976   0.761  30.565  12.544
98611W        W59977   6.198  34.998  13.893
98612W        W59978  11.799  19.570  10.529
98613W        W59979  21.225  12.799   5.305
98614W        W59980  32.535  26.104   3.304
98615W        W59981  40.956  38.841  14.787
98616W        W59982  41.910  41.007   0.331
98617W        W59983  21.558   2.358   4.676
98618W        W59984  21.745   2.460   1.446
98619W        W59985  11.337   0.319   0.887
98620W        W59986  39.382  11.821  10.483
98621W        W59987  40.829   4.450  13.471
98622W        W59988  38.392  12.327   3.372
98623W        W59989  32.628  24.631  14.364
98624W        W59990  36.373  32.070   0.822
98625W        W59991   4.434   8.865   2.264
98626W        W59992  36.990   9.759  11.885
98627W        W59993  30.594  27.552   4.178
98628W        W59994  17.287  37.020  10.075
98629W        W59995  11.232  25.000   0.850
98630W        W59996  26.648  20.271  14.764
98631W        W59997  34.527  16.124  13.004
98632W        W59998  23.554  15.119  13.980
98633W        W59999  33.919  11.285  10.468
98634W        W60000  10.689  26.626   2.662
98635W        W60001  17.584  43.809   4.716
98636W        W60002   1.390  41.524   3.736
98637W        W60003  42.493  39.340   0.482
98638W        W60004  15.743  22.568  14.799
98639W        W60005  27.621   2.444   1.360
98640W        W60006  19.069   8.769   3.302
98641W        W60007  32.932  10.207   1.223
98642W        W60008   1.253  36.412   0.404
98643W        W60009  14.760  32.585   1.888
98644W        W60010  18.658  25.134   3.660
98645W        W60011   6.891  43.443  13.325
98646W        W60012  35.379  15.667   3.232
98647W        W60013  40.481  18.148  12.956
98648W        W60014  43.270   5.918   3.668
98649W        W60015  35.863  26.011   1.902
98650W        W60016   4.437  34.576   1.756
98651W        W60017  39.877  41.949   1.804
98652W        W60018   3.872  31.569   4.634
98653W        W60019  37.430  13.289   0.851
98654W        W60020  10.192  10.277  14.823
98655W        W60021   2.425  44.311   1.339
98656W        W60022  41.923   0.809   2.215
98657W        W60023  41.468  34.007   1.698
98658W        W60024  26.521   0.443   4.336
98659W        W60025   5.921  30.087  12.368
98660W        W60026  12.262  11.274  12.860
98661W        W60027  25.584  34.021   2.255
98662W        W60028  17.253  28.060  14.790
98663W        W60029  24.608  41.511  13.498
98664W        W60030  27.625   8.268  10.894
98665W        W60031  31.923  27.176   1.366
98666W        W60032  39.895  27.179  12.487
98667W        W60033  17.290  32.103  11.494
98668W        W60034  39.344  43.870   2.274
98669W        W60035   1.256   2.458   0.861
98670W        W60036  29.967  34.452  12.363
98671W        W60037  40.339  24.226  11.441
98672W        W60038   5.849  44.303   2.333
98673W        W60039  20.153  26.646   3.276
98674W        W60040  44.327   7.347  14.469
98675W        W60041   3.373  36.558   1.900
98676W        W60042  35.874  27.141   1.411
98677W        W60043  24.636  32.142  10.546
98678W        W60044   2.892  38.863  11.873
98679W        W60045  10.671  27.659   0.822
98680W        W60046  35.466   3.276   0.478
98681W        W60047  42.472  12.752  13.950
98682W        W60048   7.364  40.044   1.928
98683W        W60049   8.160  33.107  13.394
98684W        W60050  44.825  37.410  11.962
98685W        W60051  17.234  39.390  10.072
98686W        W60052  24.031  38.821   3.343
98687W        W60053  28.582  27.550  11.411
98688W        W60054  26.066  36.985  12.952
98689W        W60055  11.797  30.550   5.318
98690W        W60056  44.909  38.439  10.936
98691W        W60057   4.442   5.406  14.883
98692W        W60058   0.316  14.789   4.759
98693W        W60059  21.720  41.333  13.900
98694W        W60060   2.967  43.015  14.767
98695W        W60061  29.503  27.587   1.925
98696W        W60062  34.055  36.913  10.416
98697W        W60063  13.179  27.477  10.984
98698W        W60064  32.113   3.406  10.407
98699W        W60065  26.508  20.260  14.030
98700W        W60066   4.337  28.003  12.569
98701W        W60067  17.789   7.287  12.085
98702W        W60068  29.666  28.009   2.760
98703W        W60069   9.289  18.547   0.910
98704W        W60070  12.310  40.991  13.528
98705W        W60071  15.167  36.354   3.167
98706W        W60072  11.179  24.122   2.195
98707W        W60073  34.956  43.837  13.509
98708W        W60074  34.561  41.296  12.410
98709W        W60075  18.077  38.565   3.258
98710W        W60076  35.572  24.018  12.082
98711W        W60077  36.872  44.824  14.444
98712W        W60078   7.774   6.907   3.769
98713W        W60079   9.219  24.606   4.675
98714W        W60080  27.617  25.665   0.814
98715W        W60081  38.852  22.710   0.955
98716W        W60082  29.564  41.839  12.922
98717W        W60083   8.378  17.155  14.406
98718W        W60084  35.432  21.092  13.899
98719W        W60085  21.105  26.608  11.875
98720W        W60086   8.741   0.912  13.356
98721W        W60087  25.193  43.469   2.365
98722W        W60088   0.384  15.634  11.548
98723W        W60089   1.830  19.252  11.538
98724W        W60090  31.139   4.938  14.374
98725W        W60091  37.034  40.307  10.463
98726W        W60092  22.582  30.955   1.383
98727W        W60093  27.532   9.793  14.376
98728W        W60094   8.835  23.540  10.930
98729W        W60095  21.127  21.728  13.446
98730W        W60096  18.624  33.030   2.298
98731W        W60097  34.875   3.831  14.497
98732W        W60098  42.320   5.823  10.592
98733W        W60099  30.526  35.106   4.782
98734W        W60100  15.092   6.225  12.946
98735W        W60101   8.744   5.353   9.436
98736W        W60102  21.179  37.461  10.612
98737W        W60103  14.806  34.493   1.713
98738W        W60104  29.620   6.316  10.896
98739W        W60105   2.923   9.291   4.237
98740W        W60106  25.519   1.886  14.837
98741W        W60107  36.914  30.413  14.982
98742W        W60108   5.333  41.320  12.931
98743W        W60109  13.161   8.744  10.464
98744W        W60110  37.353   8.854  12.391
98745W        W60111   6.769  20.194  10.444
98746W        W60112  28.090  35.595   3.171
98747W        W60113   1.479  15.301   2.231
98748W        W60114  11.649  43.455   2.664
98749W        W60115  30.980   2.404   1.782
98750W        W60116  12.213  29.569   1.830
98751W        W60117  12.718  25.196  11.886
98752W        W60118  20.075  44.829  13.531
98753W        W60119  26.641   2.864   2.802
98754W        W60120  33.414  17.233   1.254
98755W        W60121  19.272  16.204  12.508
98756W        W60122   2.450  22.647   1.710
98757W        W60123  44.883   0.459  11.567
98758W        W60124  14.110  40.929  12.999
98759W        W60125  24.677  12.125   2.867
98760W        W60126   3.740  30.111  13.859
98761W        W60127   9.761  38.504  11.103
98762W        W60128  42.515  44.844   0.732
98763W        W60129  42.861  41.532   4.731
98764W        W60130   4.717  13.736  10.928
98765W        W60131  33.524  35.462   4.700
98766W        W60132  15.653   3.444   1.275
98767W        W60133  31.011  19.674  10.996
98768W        W60134  24.715  10.295  10.632
98769W        W60135  25.073   3.433   3.636
98770W        W60136  37.432  23.508   2.384
98771W        W60137  32.024  26.514   3.649
98772W        W60138  36.589  42.340   2.751
98773W        W60139  36.953  35.893   3.250
98774W        W60140  30.122  39.500  14.904
98775W        W60141   2.824  16.622   3.171
98776W        W60142  12.800  32.097   5.120
98777W        W60143  21.701  24.682  11.951
98778W        W60144   5.223   7.836  13.376
98779W        W60145  29.067  37.046   4.674
98780W        W60146  25.146  26.121  13.998
98781W        W60147   3.906  11.859  12.883
98782W        W60148  21.076  43.514  13.946
98783W        W60149  43.793  17.788  14.387
98784W        W60150   8.358  18.765   5.092
98785W        W60151  12.791  34.613  14.986
98786W        W60152  30.452  32.114  13.409
98787W        W60153  16.218  36.587  14.827
98788W        W60154  25.047  39.463  12.552
98789W        W60155  32.024  38.378   0.742
98790W        W60156  42.945  23.121  13.854
98791W        W60157   8.255  10.276   0.380
98792W        W60158  39.426  19.272  13.841
98793W        W60159  29.096  33.908   1.707
98794W        W60160   0.961   7.701  14.808
98795W        W60161   9.277   5.306   4.735
98796W        W60162  34.478  29.096  10.508
98797W        W60163   0.313  43.883   2.240
98798W        W60164  20.125  28.437  11.109
98799W        W60165   6.411   6.851   2.803
98800W        W60166   3.290  10.362   5.286
98801W        W60167  21.218  17.730  14.472
98802W        W60168  10.275   8.208  12.574
98803W        W60169   4.814  10.357   4.655
98804W        W60170  18.789  29.034  11.392
98805W        W60171  27.043   1.483   1.818
98806W        W60172   2.880   0.800   0.753
98807W        W60173  29.461  25.502  13.958
98808W        W60174  34.565  25.555  13.407
98809W        W60175  29.449  37.339   4.245
98810W        W60176   8.276  43.018  12.399
98811W        W60177   1.915  41.024  14.938
98812W        W60178   8.843  13.764  12.490
98813W        W60179  20.118  31.515   1.907
98814W        W60180  22.221  39.559   3.690
98815W        W60181  39.015  24.226  14.892
98816W        W60182  21.129   7.271   3.342
98817W        W60183   2.963  22.504   4.282
98818W        W60184  16.646  40.969   0.961
98819W        W60185   6.363   8.330  10.638
98820W        W60186  21.547  42.359  10.561
98821W        W60187   0.755   1.865   4.722
98822W        W60188  28.574  14.704  13.829
98823W        W60189  15.224   0.935   3.731
98824W        W60190   1.303  27.097   1.728
98825W        W60191   7.240  22.075  11.532
98826W        W60192  13.305  24.599  13.896
98827W        W60193  29.948   0.946  14.441
98828W        W60194  18.717  36.486  11.907
98829W        W60195  17.199  30.468  11.410
98830W        W60196  17.220  11.243   0.780
98831W        W60197  41.855  32.971  10.891
98832W        W60198  20.079  16.240   0.433
98833W        W60199   7.193  15.622  13.888
98834W        W60200  42.352  40.882   3.204
98835W        W60201  41.519  20.622   2.213
98836W        W60202  40.393  39.399  14.884
98837W        W60203   4.781  29.653   1.859
98838W        W60204  22.682  28.160  13.541
98839W        W60205  30.157  22.639   0.813
98840W        W60206  27.646  10.723   3.647
98841W        W60207  43.274  36.349   3.790
98842W        W60208  33.604   3.304  10.925
98843W        W60209  29.001  34.990   3.192
98844W        W60210  33.068  17.114  14.509
98845W        W60211  10.690  30.565  14.832
98846W        W60212  43.822  25.703   1.241
98847W        W60213  36.579  44.934  13.334
98848W        W60214  20.620  40.491   2.742
98849W        W60215  36.854  38.948  14.438
98850W        W60216  14.304  18.677  14.016
98851W        W60217   2.742  12.301   3.813
98852W        W60218  11.851  11.735   1.415
98853W        W60219   0.347  13.758  14.922
98854W        W60220  37.958  13.117   1.815
98855W        W60221  16.652  27.501  14.904
98856W        W60222   4.393   8.748  12.548
98857W        W60223   6.225  16.239   9.508
98858W        W60224  40.989  44.944  10.645
98859W        W60225   3.740  17.061   2.340
98860W        W60226  12.721  39.932  13.441
98861W        W60227  23.719  37.556  10.576
98862W        W60228  11.677  37.849  14.980
98863W        W60229  26.633  12.779   0.875
98864W        W60230  44.813   4.942   3.258
98865W        W60231  28.065  12.643   1.423
98866W        W60232  28.520  30.062   2.248
98867W        W60233  10.731  16.580   0.959
98868W        W60234  10.296  14.614   4.346
98869W        W60235  34.015  38.510  11.454
98870W        W60236  10.657  13.640   4.271
98871W        W60237  44.479  39.530  11.081
98872W        W60238  28.990  15.153   2.825
98873W        W60239  37.059  21.221   1.316
98874W        W60240  42.292  44.788  11.954
98875W        W60241  32.073  29.529  10.637
98876W        W60242  17.229   8.249  11.970
98877W        W60243   9.840  10.645   3.646
98878W        W60244  40.507   3.441  10.901
98879W        W60245   2.372  31.135   4.621
98880W        W60246  43.431  39.354  12.466
98881W        W60247  42.963   5.193   1.777
98882W        W60248  20.058  44.304   3.216
98883W        W60249  10.792  15.090  11.006
98884W        W60250   1.974  13.697   1.263
98885W        W60251  17.198  19.549   3.277
98886W        W60252  12.678  32.086  10.571
98887W        W60253   1.938  21.201   2.840
98888W        W60254  40.501   8.194  14.912
98889W        W60255  29.157   5.256  12.026
98890W        W60256  10.745  25.025   0.433
98891W        W60257   3.854  43.341   0.847
98892W        W60258   3.783  11.735  10.968
98893W        W60259   4.794   8.701   4.634
98894W        W60260   4.417  31.975   5.206
98895W        W60261   8.233  31.008  12.914
98896W        W60262  41.875   6.286  13.811
98897W        W60263  17.767   2.380  14.352
98898W        W60264  12.201  35.858  13.923
98899W        W60265   4.739   4.889  11.896
98900W        W60266  44.963  17.296  13.437
98901W        W60267  23.206  38.476   0.403
98902W        W60268  30.013  31.974  12.932
98903W        W60269   4.866  29.573   3.774
98904W        W60270  22.578  41.856  13.403
98905W        W60271   5.735  14.715  14.978
98906W        W60272   1.422  14.141  14.820
98907W        W60273  18.076  44.843  10.502
98908W        W60274  24.000   5.363  11.490
98909W        W60275   6.707  26.663   2.366
98910W        W60276   9.769  26.472  10.513
98911W        W60277  22.185  18.629  12.552
98912W        W60278  23.577  22.534  10.935
98913W        W60279  35.481  12.653  11.874
98914W        W60280  16.311  40.880   2.841
98915W        W60281  30.009   9.175   3.187
98916W        W60282  12.315  27.005  11.534
98917W        W60283  15.302  25.211  10.475
98918W        W60284  21.121   6.361   1.358
98919W        W60285  23.986  44.271   0.902
98920W        W60286   8.288   2.358  13.312
98921W        W60287  19.238  42.311  13.547
98922W        W60288  44.881  19.219  10.508
98923W        W60289  36.906  43.337  12.893
98924W        W60290  24.677   5.822   4.660
98925W        W60291   9.159  44.346   0.341
98926W        W60292   6.206   5.819   3.225
98927W        W60293  39.550   6.185  11.018
98928W        W60294  36.403  36.519   3.247
98929W        W60295  27.528   2.781  13.508
98930W        W60296  42.400   9.822   2.715
98931W        W60297   1.844  35.546   4.300
98932W        W60298  40.824  33.051  13.790
98933W        W60299  41.380   6.686   3.252
98934W        W60300  20.203  26.020  11.027
98935W        W60301  20.245   0.321   2.898
98936W        W60302  42.030  36.961   4.210
98937W        W60303  41.982  33.072  13.903
98938W        W60304  34.441  28.169  11.935
98939W        W60305  10.799  28.661  12.025
98940W        W60306  23.565  17.692   2.770
98941W        W60307  33.928  30.104  12.458
98942W        W60308  28.068  34.039  11.498
98943W        W60309  14.732  37.578   5.225
98944W        W60310   5.866  33.061   1.425
98945W        W60311  33.023  13.689   0.402
98946W        W60312  10.873   5.207  12.083
98947W        W60313   7.314  37.013   4.617
98948W        W60314  34.540   3.399   4.348
98949W        W60315  15.780  17.286  10.087
98950W        W60316   0.290  37.352   2.839
98951W        W60317  42.523  27.624  13.509
98952W        W60318  41.801  34.510   1.416
98953W        W60319   1.239  31.607  14.288
98954W        W60320  39.333  35.434   0.355
98955W        W60321   6.800  11.289   0.333
98956W        W60322  17.251  28.555  13.019
98957W        W60323  20.745  21.690   4.207
98958W        W60324  26.000  16.194  14.502
98959W        W60325   9.832  14.178  12.827
98960W        W60326  39.520  26.464  12.354
98961W        W60327  36.033  35.424  14.345
98962W        W60328   4.841  38.552  13.512
98963W        W60329  19.202  13.159   3.756
98964W        W60330   0.422   0.860  14.762
98965W        W60331   1.952  40.996   2.755
98966W        W60332  28.674  15.092   1.444
98967W        W60333  37.895  33.596   3.325
98968W        W60334   9.837  11.727  13.529
98969W        W60335  27.468  16.571  11.916
98970W        W60336  30.558  13.125   5.157
98971W        W60337  21.569   3.898  10.143
98972W        W60338  29.498  26.556   9.564
98973W        W60339   2.320   4.865  12.481
98974W        W60340  35.473  42.920  13.802
98975W        W60341  31.405  15.706   2.384
98976W        W60342  20.196   4.265  10.449
98977W        W60343   5.426  37.841   2.687
98978W        W60344  10.208  14.125  11.475
98979W        W60345  33.577  43.798  13.392
98980W        W60346  43.431   1.439   4.151
98981W        W60347  21.618  39.014   4.179
98982W        W60348  17.557  16.675  14.416
98983W        W60349  34.426   2.738   1.874
98984W        W60350  41.362  40.845   2.323
98985W        W60351  36.907  16.095   3.857
98986W        W60352  15.134  11.343  12.455
98987W        W60353  19.161  25.602   3.821
98988W        W60354  31.024  16.733   3.159
98989W        W60355  22.549  14.191  14.424
98990W        W60356  38.463  13.346  10.980
98991W        W60357  40.848  18.709   4.183
98992W        W60358  23.632  42.515   4.724
98993W        W60359  30.482  10.165   4.744
98994W        W60360   6.198  10.658   2.756
98995W        W60361  20.078  10.334  12.869
98996W        W60362  23.177  15.283  14.805
98997W        W60363  31.628   4.404   3.838
98998W        W60364  21.549  34.452   4.244
98999W        W60365  19.123  42.860  13.023
99000W        W60366  18.557  31.899  11.929
99001W        W60367  34.521   9.258   2.900
99002W        W60368  38.496  11.370   3.765
99003W        W60369  13.253  16.238   0.889
99004W        W60370  23.102  17.108   2.306
99005W        W60371   5.865  20.028   1.436
99006W        W60372  18.172  12.845   4.662
99007W        W60373  14.297  25.496  14.786
99008W        W60374  13.808  36.375  12.008
99009W        W60375  23.207  30.940  14.318
99010W        W60376   8.731  34.910   4.352
99011W        W60377  34.901  28.483  12.569
99012W        W60378  21.075  10.722  13.361
99013W        W60379  20.220   4.307   4.157
99014W        W60380  35.917  27.610   1.442
99015W        W60381   9.869  39.883  10.571
99016W        W60382   6.312  17.711   5.140
99017W        W60383  34.573  41.845   5.777
99018W        W60384   1.424  35.107   3.698
99019W        W60385  13.684  27.690   1.778
99020W        W60386  31.434  39.868   3.313
99021W        W60387  21.213   5.862   3.244
99022W        W60388   3.239  17.198  14.510
99023W        W60389  38.006  14.670  12.842
99024W        W60390  32.892  38.370   4.613
99025W        W60391  24.211   2.394   3.760
99026W        W60392  14.315   7.769   4.130
99027W        W60393  21.030  36.067  11.528
99028W        W60394  21.724  43.423   4.252
99029W        W60395   3.775  25.103   4.652
99030W        W60396  19.172  39.468   2.393
99031W        W60397  37.955  20.607  14.011
99032W        W60398  13.786  26.539  11.088
99033W        W60399  16.158   6.297   4.627
99034W        W60400  22.519   0.835   2.232
99035W        W60401  25.187   9.763  14.903
99036W        W60402  24.531  33.905  12.359
99037W        W60403  40.515  43.367   3.164
99038W        W60404  37.055  19.189   1.720
99039W        W60405  20.128  27.548   2.679
99040W        W60406  36.493  21.660  11.449
99041W        W60407  36.053   9.326  14.501
99042W        W60408  32.006  39.384  11.121
99043W        W60409  11.845  15.128  11.527
99044W        W60410  16.297  29.491   2.868
99045W        W60411  11.838  10.832  10.574
99046W        W60412  27.084  24.521  13.490
99047W        W60413  12.194  35.055   1.331
99048W        W60414  17.630   7.742   2.221
99049W        W60415  22.509  42.887   0.321
99050W        W60416  13.159  38.073  14.837
99051W        W60417  26.652  24.493  12.538
99052W        W60418  21.136  34.940   1.697
99053W        W60419  43.786  23.701  12.875
99054W        W60420   4.332  35.977  11.069
99055W        W60421  27.942  36.570   3.276
99056W        W60422  19.214   4.711  12.418
99057W        W60423  40.961  27.147  11.375
99058W        W60424  20.174  37.347  13.508
99059W        W60425  22.550   1.334   2.838
99060W        W60426  20.109   6.239   0.726
99061W        W60427  23.117  36.874   1.729
99062W        W60428  34.490  44.845   0.856
99063W        W60429  40.018  32.442   3.713
99064W        W60430   3.215   6.188  10.601
99065W        W60431  14.255  26.516  10.491
99066W        W60432  19.660  35.960  10.427
99067W        W60433  26.491  42.293   3.365
99068W        W60434   3.774  14.266   2.765
99069W        W60435  11.767  26.515   1.903
99070W        W60436  35.099  33.470   0.458
99071W        W60437   6.260  39.532  14.785
99072W        W60438  21.093  30.503  12.482
99073W        W60439  33.509  16.786   3.755
99074W        W60440  40.340  39.481  11.008
99075W        W60441  15.163  35.512   9.471
99076W        W60442  43.514  29.161   3.364
99077W        W60443   5.844   7.718  10.512
99078W        W60444  35.971  10.168  12.983
99079W        W60445  42.965  44.327  12.410
99080W        W60446  33.988  34.419  13.889
99081W        W60447  11.294  34.942   4.203
99082W        W60448  16.608  14.639  13.797
99083W        W60449  27.645  37.877  11.095
99084W        W60450  44.996  29.641  13.436
99085W        W60451   8.863   5.232   1.788
99086W        W60452  22.179   3.318   4.228
99087W        W60453   4.314  41.910   4.663
99088W        W60454  33.593   2.776   1.893
99089W        W60455   4.341  29.937   4.676
99090W        W60456   7.364  23.990  10.473
99091W        W60457   6.354  29.106  12.835
99092W        W60458  15.246  40.323  14.447
99093W        W60459   7.832  14.195  12.449
99094W        W60460  17.175  23.671   4.257
99095W        W60461   8.331   4.804  14.981
99096W        W60462  38.049  39.331  10.554
99097W        W60463  27.077   5.298   2.338
99098W        W60464  33.904  38.547   2.848
99099W        W60465  34.406  26.642   3.673
99100W        W60466   7.881  41.986  14.507
99101W        W60467  30.449  28.513   3.165
99102W        W60468  11.662  40.373  13.482
99103W        W60469  44.917  21.084   4.129
99104W        W60470  29.061  13.694  11.092
99105W        W60471  20.272   4.291  14.366
99106W        W60472  22.650  28.966  12.835
99107W        W60473  24.224  26.021   0.930
99108W        W60474  28.123  23.703  13.389
99109W        W60475   2.302  25.009  13.915
99110W        W60476  35.972  22.724  11.600
99111W        W60477  36.534   8.657   0.475
99112W        W60478  44.777  41.029   2.203
99113W        W60479  38.557  37.421   2.406
99114W        W60480  11.694  37.021   1.802
99115W        W60481  38.364  12.153   4.741
99116W        W60482  31.405  22.600   0.471
99117W        W60483  32.055   9.685   0.819
99118W        W60484  38.933  27.524  11.121
99119W        W60485  10.770  35.899  12.431
99120W        W60486  35.413  21.068   0.352
99121W        W60487  42.328  28.044   3.658
99122W        W60488  40.455  29.459   2.278
99123W        W60489  14.160  43.814  12.042
99124W        W60490  22.131   7.717  10.553
99125W        W60491  28.161  31.133   9.517
99126W        W60492  26.158  40.478   2.858
99127W        W60493  23.023  40.877   1.355
99128W        W60494   7.800  14.146   2.765
99129W        W60495  26.024  43.972  11.049
99130W        W60496  27.965   6.413   2.362
99131W        W60497  31.456  31.529  13.344
99132W        W60498   3.351  22.072  12.065
99133W        W60499  33.460  23.492  12.829
99134W        W60500  24.994  17.625   0.902
99135W        W60501   4.378  19.152   1.227
99136W        W60502  23.057  25.211   3.176
99137W        W60503  44.366   0.895  13.395
99138W        W60504  27.018   1.350  13.992
99139W        W60505  34.468  35.370   1.768
99140W        W60506  37.037  27.607  11.456
99141W        W60507   2.467  27.634   4.160
99142W        W60508   9.858  11.149   4.656
99143W        W60509   8.189  17.786  11.004
99144W        W60510  31.507  23.149   5.125
99145W        W60511  27.582  36.033  13.899
99146W        W60512  17.670  27.998  13.885
99147W        W60513  15.811  10.731  10.116
99148W        W60514   6.354  33.478   4.761
99149W        W60515  36.944  31.631  10.526
99150W        W60516  25.629  28.555   9.498
99151W        W60517  23.724  37.958  14.433
99152W        W60518  42.890  26.692  12.511
99153W        W60519  38.408  12.782   1.847
99154W        W60520  21.620  22.060  11.489
99155W        W60521  25.214  23.185  14.313
99156W        W60522   7.218  42.520  13.955
99157W        W60523  25.064  30.415   1.399
99158W        W60524  39.817  41.877   4.792
99159W        W60525   8.809  14.702   2.742
99160W        W60526  12.638  20.565   0.845
99161W        W60527  24.482  42.001   4.117
99162W        W60528  30.586  19.114  10.961
99163W        W60529  24.613   6.840   0.744
99164W        W60530   0.430  40.855   4.286
99165W        W60531  40.013  21.564   3.782
99166W        W60532  14.202   6.391  14.435
99167W        W60533  19.141  24.150  12.054
99168W        W60534  17.588  38.360   1.280
99169W        W60535   3.301  12.158  11.415
99170W        W60536  44.811  33.431   3.182
99171W        W60537  31.454  28.054   2.767
99172W        W60538  42.986   2.296  13.327
99173W        W60539  31.080   6.701  11.904
99174W        W60540   3.835  10.145  14.759
99175W        W60541  25.057  30.431  13.321
99176W        W60542  32.600  26.613  11.879
99177W        W60543  23.627  19.715   1.303
99178W        W60544   8.201  14.259  14.893
99179W        W60545  15.712  14.198  11.457
99180W        W60546  19.725  40.438  11.964
99181W        W60547   0.794  16.096   2.195
99182W        W60548   6.358  33.427  13.485
99183W        W60549  31.602  10.332   4.300
99184W        W60550  24.087  34.567  10.091
99185W        W60551  30.068   3.430  12.889
99186W        W60552  16.173  25.073  11.432
99187W        W60553  34.978  11.286  14.395
99188W        W60554  33.566  19.763  14.771
99189W        W60555  34.108  13.240  12.934
99190W        W60556  38.557   2.764  13.415
99191W        W60557  26.176  36.011   1.910
99192W        W60558  40.934  10.253  11.106
99193W        W60559  15.771  26.090   3.659
99194W        W60560  29.101  11.285   0.468
99195W        W60561  11.258  39.373   2.211
99196W        W60562  28.182  12.167  11.372
99197W        W60563   0.887  38.428   0.800
99198W        W60564   3.931  11.706   3.682
99199W        W60565   5.852   8.185   0.769
99200W        W60566  19.122  13.199   1.914
99201W        W60567  18.646   9.752   0.730
99202W        W60568  26.128  43.416  12.855
99203W        W60569   0.809  32.615   3.696
99204W        W60570  29.453  34.056  11.490
99205W        W60571  43.348  15.668   0.335
99206W        W60572   8.316  30.487   1.251
99207W        W60573  34.979  35.471   2.358
99208W        W60574  42.399  35.548   3.729
99209W        W60575   5.847  30.981   4.711
99210W        W60576  28.102  43.809  13.336
99211W        W60577  42.381  32.964   1.859
99212W        W60578  44.796  16.091   0.833
99213W        W60579   6.816  16.110  12.557
99214W        W60580  22.106   7.268  12.402
99215W        W60581  15.320  44.934   0.342
99216W        W60582   9.375  35.410   0.826
99217W        W60583  44.857  31.152  14.788
99218W        W60584  10.204  22.654  14.510
99219W        W60585  41.969   8.662  10.538
99220W        W60586  10.224  44.950   4.783
99221W        W60587  35.382  26.007   1.829
99222W        W60588  21.589  12.610   3.202
99223W        W60589  12.254  27.653   4.114
99224W        W60590  35.937  34.509   4.620
99225W        W60591  44.259   5.882  12.564
99226W        W60592  35.062  18.547  11.436
99227W        W60593  33.969  19.754  14.968
99228W        W60594  22.180  23.178  13.889
99229W        W60595   4.319  25.148   2.248
99230W        W60596  44.413  21.154  14.318
99231W        W60597  36.980  22.602   2.273
99232W        W60598  22.523  21.513   3.270
99233W        W60599  31.481  14.763  12.455
99234W        W60600  42.926   1.765  12.999
99235W        W60601   8.280  16.789  10.023
99236W        W60602  30.568  10.816   4.811
99237W        W60603   2.775  30.443  14.816
99238W        W60604  42.890  12.169  12.914
99239W        W60605  19.245  14.808  11.972
99240W        W60606   4.915   8.846  10.010
99241W        W60607  37.862  12.157  11.528
99242W        W60608  11.331  16.723   4.660
99243W        W60609  10.153   3.352   4.704
99244W        W60610  35.067  26.580   0.456
99245W        W60611  24.158  15.692  10.966
99246W        W60612  15.197  18.079  13.507
99247W        W60613  39.382  17.657   4.752
99248W        W60614   6.684  18.266   4.310
99249W        W60615  40.824  20.761  12.011
99250W        W60616  32.506  41.392  14.898
99251W        W60617  15.291   2.805   4.265
99252W        W60618  27.506  41.386   3.156
99253W        W60619  10.300  29.649  11.083
99254W        W60620  14.641  31.426  12.342
99255W        W60621  29.523  44.269   0.860
99256W        W60622  35.382  25.641  10.998
99257W        W60623  37.936   2.299   2.894
99258W        W60624  29.636  12.341   1.767
99259W        W60625   0.978   0.384   0.314
99260W        W60626  39.393  13.338   1.730
99261W        W60627  40.911  20.576   1.214
99262W        W60628  19.200  28.936  11.031
99263W        W60629  37.961  21.262  12.447
99264W        W60630  11.218  39.826   0.864
99265W        W60631  18.753  34.460   3.277
99266W        W60632   5.808  31.054  14.931
99267W        W60633  10.247  41.998   2.859
99268W        W60634  33.900  44.993   0.862
99269W        W60635  37.079  39.353  13.488
99270W        W60636  18.287   1.785  11.009
99271W        W60637  21.678  38.394  10.015
99272W        W60638  30.116  42.440   4.319
99273W        W60639  19.625  26.099   1.381
99274W        W60640  24.548  24.638  10.408
99275W        W60641  25.042  39.902  11.401
99276W        W60642  40.876  30.151   1.302
99277W        W60643  30.010  15.774   3.786
99278W        W60644  37.898  37.426  14.934
99279W        W60645   4.895  29.435  10.404
99280W        W60646  42.493   2.770   4.657
99281W        W60647  29.990   9.702   4.296
99282W        W60648  24.108  10.850   0.915
99283W        W60649  16.742   1.473   1.890
99284W        W60650  34.966  10.147  12.409
99285W        W60651   0.849   3.269  12.340
99286W        W60652  11.756   3.280   1.833
99287W        W60653  13.131  35.915   1.771
99288W        W60654   5.255  11.751  13.808
99289W        W60655  30.614  24.019   0.950
99290W        W60656  39.044  39.404  10.923
99291W        W60657  23.231  44.001   4.250
99292W        W60658   0.440   7.277  11.003
99293W        W60659   5.705  23.190  14.471
99294W        W60660   0.423   7.178   3.243
99295W        W60661  25.977  43.854  14.475
99296W        W60662  12.616  38.054   1.367
99297W        W60663   7.279  38.847   1.233
99298W        W60664  43.429  29.529  14.995
99299W        W60665   8.886  27.076  11.544
99300W        W60666   0.482  31.499   0.252
99301W        W60667  25.662  30.454  12.364
99302W        W60668  14.665  18.282   3.237
99303W        W60669   8.243  31.607  11.903
99304W        W60670  39.320   1.357   0.786
99305W        W60671   7.765   6.828   1.230
99306W        W60672  35.077   3.218  14.778
99307W        W60673   1.854   4.405   4.335
99308W        W60674   3.302  27.557  14.509
99309W        W60675   4.920  30.128  10.416
99310W        W60676  22.019  19.544   0.768
99311W        W60677   8.258  34.109   1.380
99312W        W60678  35.524  11.324  14.820
99313W        W60679  27.472  25.574   4.279
99314W        W60680  14.630   1.448  11.914
99315W        W60681  33.586   4.354   2.399
99316W        W60682  14.154  11.227   0.472
99317W        W60683  12.359   4.255  11.412
99318W        W60684   4.889  32.605  11.497
99319W        W60685  30.506  42.513   1.738
99320W        W60686   9.730  42.448  11.925
99321W        W60687  18.678  39.316   3.163
99322W        W60688  32.140  20.613  14.810
99323W        W60689  36.851  40.531  11.438
99324W        W60690   9.159  31.412  13.919
99325W        W60691  12.822   9.274  10.889
99326W        W60692  12.190  29.032  10.608
99327W        W60693  17.151  38.848  11.603
99328W        W60694  23.714   2.823  13.038
99329W        W60695  20.717  23.588  10.910
99330W        W60696   9.839  36.523   1.873
99331W        W60697  39.973  33.499  10.964
99332W        W60698  40.310  22.153   1.369
99333W        W60699  37.491  37.436  10.925
99334W        W60700   5.901  24.639   2.200
99335W        W60701  37.961  32.000   1.283
99336W        W60702   4.267  40.317   2.341
99337W        W60703  35.017  38.027   4.766
99338W        W60704  20.613  24.517   1.336
99339W        W60705   2.729  42.886   4.174
99340W        W60706  42.961  12.288  14.823
99341W        W60707  40.390  35.496  13.418
99342W        W60708  29.935  28.624  12.425
99343W        W60709  11.334   2.857  12.392
99344W        W60710   5.345  18.580   3.723
99345W        W60711  37.997  27.170   1.753
99346W        W60712  21.210   3.258   4.323
99347W        W60713   2.732  23.562   1.835
99348W        W60714  31.535  33.379   1.419
99349W        W60715  34.094  29.066   1.398
99350W        W60716   5.372   8.161  12.349
99351W        W60717  35.876  44.974  10.917
99352W        W60718  31.571  40.367   1.302
99353W        W60719  27.187  25.115   5.183
99354W        W60720  34.541  16.305   4.232
99355W        W60721   9.870  30.616  11.520
99356W        W60722   3.388   1.901   3.719
99357W        W60723  37.876   7.384  13.429
99358W        W60724   2.353  22.215   1.297
99359W        W60725  19.208   8.205   3.817
99360W        W60726  17.575  38.996   1.329
99361W        W60727   2.861   9.854   1.839
99362W        W60728  11.232  12.180   3.752
99363W        W60729  19.683  29.543   4.188
99364W        W60730  20.046   8.358   3.375
99365W        W60731   2.227   0.811  14.851
99366W        W60732   5.309  19.111  12.035
99367W        W60733   7.401   9.357   0.342
99368W        W60734   4.938  29.019  10.454
99369W        W60735  30.429  25.625  14.475
99370W        W60736  32.058  22.236   1.914
99371W        W60737  15.617  21.051  11.523
99372W        W60738  29.474  43.880  13.413
99373W        W60739   5.720  11.305  14.281
99374W        W60740  27.448  29.114  12.070
99375W        W60741   1.301  27.453  14.489
99376W        W60742  15.654  17.571  14.031
99377W        W60743  14.299  36.057  14.024
99378W        W60744  40.454   9.862   4.650
99379W        W60745  22.039  22.533   1.716
99380W        W60746  34.981  24.976  11.545
99381W        W60747  26.677   5.330   3.831
99382W        W60748   2.733  36.547   3.865
99383W        W60749   7.781  11.824  12.408
99384W        W60750  44.898   6.869   1.746
99385W        W60751  43.325   3.907   3.358
99386W        W60752  44.869  24.717  10.443
99387W        W60753  16.224   3.783   0.730
99388W        W60754  37.368  23.053  10.999
99389W        W60755  42.003  23.031  13.001
99390W        W60756  14.274  26.043  13.027
99391W        W60757  41.389  38.406  14.026
99392W        W60758   0.348  22.203  14.917
99393W        W60759   3.457  34.389  11.872
99394W        W60760  37.351  25.214  10.536
99395W        W60761   1.355   0.987   3.668
99396W        W60762   5.819   6.828   0.370
99397W        W60763  13.664  14.632  12.088
99398W        W60764  20.154  12.228  13.346
99399W        W60765  14.214  16.315   1.231
99400W        W60766   9.206   5.277  12.030
99401W        W60767   4.385  33.450   2.877
99402W        W60768   0.301   1.404   3.184
99403W        W60769   8.297  41.296  10.626
99404W        W60770  31.448  39.454  12.357
99405W        W60771   4.919  12.717  11.930
99406W        W60772  29.667  41.849   0.938
99407W        W60773  26.080  28.168  14.989
99408W        W60774  43.298   9.756  12.827
99409W        W60775  16.284  26.545  12.536
99410W        W60776  42.007   6.713   0.894
99411W        W60777  19.577  24.149  14.909
99412W        W60778  11.790  22.032  11.987
99413W        W60779  19.239   2.747   1.934
99414W        W60780   3.849  41.817   2.349
99415W        W60781  29.963  31.099   3.651
99416W        W60782  39.529  22.185  12.410
99417W        W60783  27.135   8.384   4.646
99418W        W60784  26.094  29.559   2.323
99419W        W60785  39.952  35.604  13.817
99420W        W60786   6.279  25.974   2.845
99421W        W60787  22.089  38.922  12.994
99422W        W60788  17.758  23.534  13.029
99423W        W60789  30.452   2.750   0.750
99424W        W60790  38.990  39.051  12.998
99425W        W60791  35.097  31.446   2.280
99426W        W60792  11.856   6.772   2.865
99427W        W60793   5.405  27.512  11.893
99428W        W60794   0.942   6.857  10.937
99429W        W60795   5.243   9.865  10.622
99430W        W60796   5.424  39.885   3.675
99431W        W60797   3.419  18.155  13.968
99432W        W60798  18.610  10.698   0.956
99433W        W60799  24.637  25.542  11.038
99434W        W60800  23.540  19.759  12.005
99435W        W60801  19.712  11.152   0.259
99436W        W60802  25.702  26.086   4.130
99437W        W60803  10.357  32.501  11.446
99438W        W60804   1.426  43.958   0.861
99439W        W60805  13.681  36.908   3.867
99440W        W60806   7.696  22.104   4.239
99441W        W60807  30.649  32.429  11.967
99442W        W60808  15.644  38.897  10.473
99443W        W60809  30.935   9.264   1.841
99444W        W60810  43.358  38.520  14.985
99445W        W60811  10.675  40.377   2.694
99446W        W60812   5.431  21.128   0.865
99447W        W60813  28.106   4.364  10.113
99448W        W60814  13.698  28.167   4.330
99449W        W60815  29.618  41.932  13.800
99450W        W60816  11.687  16.221  12.879
99451W        W60817  28.095  44.320  14.767
99452W        W60818  35.928   3.798   1.890
99453W        W60819  42.475  38.325   0.845
99454W        W60820  39.853  20.676  10.898
99455W        W60821  31.608  21.609   3.697
99456W        W60822  31.029   6.376   3.804
99457W        W60823  30.140  16.777   4.789
99458W        W60824  41.795  14.133  12.372
99459W        W60825   9.284  44.952   1.814
99460W        W60826   2.910  25.219   4.156
99461W        W60827  32.499  43.417   0.364
99462W        W60828  25.525  26.529   3.649
99463W        W60829  39.392  10.319  13.499
99464W        W60830  40.431   8.366   4.258
99465W        W60831  17.740  28.070  12.457
99466W        W60832  40.826   0.877   4.726
99467W        W60833  32.925  24.548   2.254
99468W        W60834  38.027   0.394   0.257
99469W        W60835  38.887  37.849  10.583
99470W        W60836  11.860  40.856   2.257
99471W        W60837   6.785  44.369   4.186
99472W        W60838  30.657  36.990   1.922
99473W        W60839  11.207  27.138  12.375
99474W        W60840  11.137  23.697   0.274
99475W        W60841  42.872  20.527   1.215
99476W        W60842   2.233  31.945   0.852
99477W        W60843   0.314  34.994   2.696
99478W        W60844  30.544  27.137  13.924
99479W        W60845  29.602  14.640  10.618
99480W        W60846  40.541  26.469   2.355
99481W        W60847  28.636  44.296  10.929
99482W        W60848  20.703   8.353  13.964
99483W        W60849   0.910   8.804   1.840
99484W        W60850  35.862  42.349   1.763
99485W        W60851  34.003  31.932  12.426
99486W        W60852   7.271   2.728   0.844
99487W        W60853  17.101  40.904  10.986
99488W        W60854  44.924  26.671   1.318
99489W        W60855  11.839  15.778   0.384
99490W        W60856  20.064   6.347   1.415
99491W        W60857  40.949   7.695   2.678
99492W        W60858   4.727  29.468   0.374
99493W        W60859  15.773  34.531  13.819
99494W        W60860  36.912  17.097  14.379
99495W        W60861   2.933  21.062   4.268
99496W        W60862  19.618  35.009  10.096
99497W        W60863  35.506  23.584   1.713
99498W        W60864  24.035   1.253   2.347
99499W        W60865  39.345  31.141   3.176
99500W        W60866   1.481  15.288  14.451
99501W        W60867   8.357   1.745  11.866
99502W        W60868   7.671  41.475  10.641
99503W        W60869  34.922  36.859   4.680
99504W        W60870  25.511  25.608   0.853
99505W        W60871   9.380  16.777   4.123
99506W        W60872  43.891  16.803   4.308
99507W        W60873  23.676  29.587  12.077
99508W        W60874  30.945   8.788   2.182
99509W        W60875  39.057  39.326   1.366
99510W        W60876  30.566   1.912  11.408
99511W        W60877  36.996  44.261   2.245
99512W        W60878  44.960  11.660   2.687
99513W        W60879  38.014  33.025  13.806
99514W        W60880  43.804  15.297   3.293
99515W        W60881  39.857  13.689   3.826
99516W        W60882  34.550   3.221  14.354
99517W        W60883  43.863  18.292  10.559
99518W        W60884   2.313  22.702  14.868
99519W        W60885   0.743   5.270   0.731
99520W        W60886  17.672  20.531  12.456
99521W        W60887  23.717  33.398  10.494
99522W        W60888   9.649  28.512  14.311
99523W        W60889  37.548  11.219  14.362
99524W        W60890  44.446  28.145   4.125
99525W        W60891  26.202  29.979  11.028
99526W        W60892  19.250  27.456   1.715
99527W        W60893   0.930  28.043   1.290
99528W        W60894  19.761  34.968  13.357
99529W        W60895  10.162  30.023  11.424
99530W        W60896  20.049  14.755  12.556
99531W        W60897  24.627  25.995   4.645
99532W        W60898  36.501  44.465  12.837
99533W        W60899   8.669  38.066  10.642
99534W        W60900   1.892  18.163  14.826
99535W        W60901  24.105  36.540  10.581
99536W        W60902  19.624   2.376  13.355
99537W        W60903  21.621  22.236  13.344
99538W        W60904   0.744  26.002  11.883
99539W        W60905  34.390  39.969  14.504
99540W        W60906  12.697  14.679  12.905
99541W        W60907  38.353  10.371  11.395
99542W        W60908  11.274  11.628   1.799
99543W        W60909  31.451  25.508  13.024
99544W        W60910  38.825   2.258   4.653
99545W        W60911   2.905  28.104  12.381
99546W        W60912  11.129  17.649  12.888
99547W        W60913  38.421  17.584  14.809
99548W        W60914  22.999   1.305  14.988
99549W        W60915   0.882  19.096   2.236
99550W        W60916   3.333  12.754   2.404
99551W        W60917  17.634  30.109  11.567
99552W        W60918  14.593  24.488   2.385
99553W        W60919   3.373  43.950   1.893
99554W        W60920   5.324   8.188  14.930
99555W        W60921   3.256  35.955   2.333
99556W        W60922   1.891  34.524  13.487
99557W        W60923  44.287  28.437   4.165
99558W        W60924  42.816  26.018   1.259
99559W        W60925  20.164   3.888   0.314
99560W        W60926  10.877  10.376   0.932
99561W        W60927  40.395  23.588   4.249
99562W        W60928  16.118  36.574   4.837
99563W        W60929  11.746  34.453   1.261
99564W        W60930  26.686  40.307  14.442
99565W        W60931  29.119   0.842   1.280
99566W        W60932   6.372  42.490   1.373
99567W        W60933  41.491   3.450  11.895
99568W        W60934  24.509   7.721  14.374
99569W        W60935   9.225   4.385   0.287
99570W        W60936  36.887  25.026   4.114
99571W        W60937   0.856  43.978   2.758
99572W        W60938  40.953  13.131  12.088
99573W        W60939   3.363  35.897  11.094
99574W        W60940   1.400  15.300   3.231
99575W        W60941  40.303  23.532   1.901
99576W        W60942  20.131  28.085   3.204
99577W        W60943  19.586  41.357   1.863
99578W        W60944  42.798  11.157  10.969
99579W        W60945  43.008   5.420  13.496
99580W        W60946   6.822  42.285   4.348
99581W        W60947  27.146  12.748  10.006
99582W        W60948  41.001   6.322   1.824
99583W        W60949  13.196  30.032   1.293
99584W        W60950  38.005  21.703  12.463
99585W        W60951  15.594  14.115  10.911
99586W        W60952   5.805  32.083  12.518
99587W        W60953  27.111  34.951  10.057
99588W        W60954  23.660  15.184  14.375
99589W        W60955   1.742  24.683   1.700
99590W        W60956   3.221  11.773   3.724
99591W        W60957  15.743   3.423   4.646
99592W        W60958  44.981   8.356   4.606
99593W        W60959  25.032  40.838  13.445
99594W        W60960   4.319  12.139  10.926
99595W        W60961  10.147  35.489  10.964
99596W        W60962  10.655  24.692   3.696
99597W        W60963   9.178   8.886  10.019
99598W        W60964  11.824  12.749   2.740
99599W        W60965  32.956  23.237  12.973
99600W        W60966  11.364   4.768  10.569
99601W        W60967  35.525  24.015   0.442
99602W        W60968   1.820  34.536  12.900
99603W        W60969  43.945  44.856  11.434
99604W        W60970  33.955  27.607   3.221
99605W        W60971  19.563  18.089  13.913
99606W        W60972  33.532  17.765   1.899
99607W        W60973  40.029  24.202  14.291
99608W        W60974  26.981  21.697  13.885
99609W        W60975  30.020  17.756   4.731
99610W        W60976   7.783  44.003  10.607
99611W        W60977  38.353  24.697   1.435
99612W        W60978  39.544   1.778  13.913
99613W        W60979  21.152  22.055   1.929
99614W        W60980  12.278  40.542  12.567
99615W        W60981  43.949  36.546   0.858
99616W        W60982  38.978   8.882  11.121
99617W        W60983   7.293  18.235  13.021
99618W        W60984  28.032  33.941  12.886
99619W        W60985   5.317  24.079  11.060
99620W        W60986   9.149   5.749   1.376
99621W        W60987  27.595  10.212  11.987
99622W        W60988   0.475  41.492  14.387
99623W        W60989  33.017  19.281   0.909
99624W        W60990  32.591  19.261  13.950
99625W        W60991  11.829  18.619  10.949
99626W        W60992  40.449  12.681  11.589
99627W        W60993  35.475  34.504   0.930
99628W        W60994   9.756   4.299   4.763
99629W        W60995   5.420  31.539   3.745
99630W        W60996   0.318   1.790   1.286
99631W        W60997  23.647  21.139   1.716
99632W        W60998   5.247  16.176   2.841
99633W        W60999  14.786   9.217  11.548
99634W        W61000  19.564  18.099   2.895
99635W        W61001  34.548   7.313   3.357
99636W        W61002   0.910  20.270   3.262
99637W        W61003   1.865   6.367   3.272
99638W        W61004  29.573  19.633  14.407
99639W        W61005  29.988  42.382  13.895
99640W        W61006  15.186  31.455   4.247
99641W        W61007  12.731  26.054  12.990
99642W        W61008  42.393  12.658  10.404
99643W        W61009  43.430  42.444  14.918
99644W        W61010   3.844  39.011  14.955
99645W        W61011  30.954  42.901  11.556
99646W        W61012  16.717  28.587   0.959
99647W        W61013   6.393  42.839  11.886
99648W        W61014  41.829  23.703  12.399
99649W        W61015   4.433  23.996   0.341
99650W        W61016  43.475  34.932   0.858
99651W        W61017  22.135  20.542  14.289
99652W        W61018  21.678  24.131  12.574
99653W        W61019  28.671  42.875  10.984
99654W        W61020  32.103  42.937   5.170
99655W        W61021   4.229   6.866   2.257
99656W        W61022  27.193  10.864   2.387
99657W        W61023  31.911   7.258   1.248
99658W        W61024   5.750  33.512   3.181
99659W        W61025  41.037  16.187   4.739
99660W        W61026  33.439  37.999   1.882
99661W        W61027  26.618  16.261   1.803
99662W        W61028  36.408  26.600   2.245
99663W        W61029  21.610  36.572  14.373
99664W        W61030  44.322  24.598   0.820
99665W        W61031  22.514  40.453   3.332
99666W        W61032  18.716  44.333  11.897
99667W        W61033  13.293  27.061  10.534
99668W        W61034   5.880   0.463   2.786
99669W        W61035  16.240  43.338   2.762
99670W        W61036  22.095  38.946  11.433
99671W        W61037  28.624  33.997  12.070
99672W        W61038  12.343   3.896  11.526
99673W        W61039  20.208  38.387   3.837
99674W        W61040  34.493   7.294  12.031
99675W        W61041  36.442  36.523   4.317
99676W        W61042  35.989  32.918  11.866
99677W        W61043   8.685  14.195  13.539
99678W        W61044  40.047  18.132  10.998
99679W        W61045   6.918  29.574   2.890
99680W        W61046  24.228  16.116   1.865
99681W        W61047  10.286  35.984  11.011
99682W        W61048  23.074  24.612   3.632
99683W        W61049   9.153  33.427  11.906
99684W        W61050   9.890  25.666   2.666
99685W        W61051  36.921  12.227  14.280
99686W        W61052   0.824  29.137  12.963
99687W        W61053  26.133  42.032  14.433
99688W        W61054  24.222  40.005   1.389
99689W        W61055  35.454  36.031   1.246
99690W        W61056  29.085   3.809  14.472
99691W        W61057  10.178   4.791  14.010
99692W        W61058  36.447  41.979   1.776
99693W        W61059  23.735  41.454  10.957
99694W        W61060  37.422   2.469   2.860
99695W        W61061  10.297  18.185   0.356
99696W        W61062  15.263  13.706   0.307
99697W        W61063  22.997  24.647  10.459
99698W        W61064  36.389   5.305   1.795
99699W        W61065  23.600  26.137  10.980
99700W        W61066  19.192  40.546  10.546
99701W        W61067  19.147  15.585   0.916
99702W        W61068  31.969   8.168  14.910
99703W        W61069  37.851   1.894  14.904
99704W        W61070  22.212  18.187   2.405
99705W        W61071  30.496  41.314  13.993
99706W        W61072  27.680  29.645  12.895
99707W        W61073  14.304  22.058  14.277
99708W        W61074   1.271  25.113  10.991
99709W        W61075  29.132  24.190  12.484
99710W        W61076  16.301  17.757  12.018
99711W        W61077   2.906  43.488  12.424
99712W        W61078  10.176  23.140  14.973
99713W        W61079   4.819  38.055   1.212
99714W        W61080  44.007  24.078  14.862
99715W        W61081  32.041   4.712  12.059
99716W        W61082  38.015  21.605   0.886
99717W        W61083   1.442  35.967  10.935
99718W        W61084   4.792   4.888   1.379
99719W        W61085  34.515  28.456   2.281
99720W        W61086  42.904  43.992   0.453
99721W        W61087   3.338  27.010   0.357
99722W        W61088  39.484  15.199  12.391
99723W        W61089   9.646  43.764   1.889
99724W        W61090  20.682  14.241  14.511
99725W        W61091  21.104  31.951  10.421
99726W        W61092  26.007   3.853   4.221
99727W        W61093  13.804  36.399  10.415
99728W        W61094  19.203  15.777  10.080
99729W        W61095  33.012  13.725   0.937
99730W        W61096  20.160  43.994  11.439
99731W        W61097  12.169  21.221  12.360
99732W        W61098  23.047  30.527   2.410
99733W        W61099  43.899  16.595   3.708
99734W        W61100  10.345  30.099  14.391
99735W        W61101   5.312   1.760  12.433
99736W        W61102  43.860   3.247  13.921
99737W        W61103  13.639  20.100  13.917
99738W        W61104  22.024   7.287  14.347
99739W        W61105   9.349   5.770  11.374
99740W        W61106  36.982  19.621  13.462
99741W        W61107  38.502  20.544  14.386
99742W        W61108  39.390   5.242   3.666
99743W        W61109  26.048  13.809  14.487
99744W        W61110  44.390  14.115  10.148
99745W        W61111  40.932  29.029  10.907
99746W        W61112  44.891   5.426   0.835
99747W        W61113  36.980  16.072   3.204
99748W        W61114  42.776  27.607   2.796
99749W        W61115  41.293  42.313   3.318
99750W        W61116   7.213  24.155  12.088
99751W        W61117  23.555   4.728   2.241
99752W        W61118  14.146  20.063   1.248
99753W        W61119  27.538  27.180   0.894
99754W        W61120  16.728  10.158   1.795
99755W        W61121  19.555   8.338  12.025
99756W        W61122   3.231   6.910  13.479
99757W        W61123   7.861  40.814  11.085
99758W        W61124   5.265  16.788   1.804
99759W        W61125  18.118   7.766  12.440
99760W        W61126  14.695  24.604  10.459
99761W        W61127   3.951   1.912  10.533
99762W        W61128   9.365  25.691   1.730
99763W        W61129  42.998  28.149  10.514
99764W        W61130  29.650   8.193  10.405
99765W        W61131  18.246  12.246  11.425
99766W        W61132   2.945  33.108   4.618
99767W        W61133  31.572  33.093   2.203
99768W        W61134   1.923  23.119  12.548
99769W        W61135  12.137  20.641   0.257
99770W        W61136  44.928  41.905  12.376
99771W        W61137  36.412   2.253   0.404
99772W        W61138   2.398   3.369   3.638
99773W        W61139   3.783  22.516   0.957
99774W        W61140  41.859  28.093  12.052
99775W        W61141  28.446  33.526  10.637
99776W        W61142  43.295  32.623  12.941
99777W        W61143  23.195  22.649  14.863
99778W        W61144  38.430  30.520  10.602
99779W        W61145  44.878  31.997   3.182
99780W        W61146  10.695  32.050  10.067
99781W        W61147  36.513  16.588  13.320
99782W        W61148  35.602  34.384   3.374
99783W        W61149  42.350   1.774  11.861
99784W        W61150  19.114  27.462   4.191
99785W        W61151   9.761  12.221   4.240
99786W        W61152  16.265  23.489  11.531
99787W        W61153  12.788  13.790  11.985
99788W        W61154  29.453  35.033   2.362
99789W        W61155   4.925  30.458   3.855
99790W        W61156  36.968  18.621   3.718
99791W        W61157  25.646   0.913  12.449
99792W        W61158  24.531  30.487  10.946
99793W        W61159  32.439  44.339   1.448
99794W        W61160   0.457  33.435  12.560
99795W        W61161  31.614  22.615   5.293
99796W        W61162  35.385  14.698  10.936
99797W        W61163  17.731  17.688   2.384
99798W        W61164  15.752  28.131  14.814
99799W        W61165   9.713  32.131  13.798
99800W        W61166   2.889  40.883   0.467
99801W        W61167  18.220  21.017   2.815
99802W        W61168  38.022  15.295   0.421
99803W        W61169  14.615  43.333   0.910
99804W        W61170  24.110  11.646  14.341
99805W        W61171   8.169  37.386   1.769
99806W        W61172  32.470  34.409   1.253
99807W        W61173   8.381   0.487  14.760
99808W        W61174  24.689  10.356   2.274
99809W        W61175  12.224   2.407  13.394
99810W        W61176  40.382  24.610  12.469
99811W        W61177  19.123   8.801   0.334
99812W        W61178   3.875  35.032   9.962
99813W        W61179  36.455  11.728  12.527
99814W        W61180   9.387  14.127   0.912
99815W        W61181  32.500  19.188   0.860
99816W        W61182  20.144   7.376  13.025
99817W        W61183  28.938  17.581  12.516
99818W        W61184  24.511  14.261   0.448
99819W        W61185  13.245  30.482  11.458
99820W        W61186  31.455  42.970  14.409
99821W        W61187  17.769  15.815   2.789
99822W        W61188  29.923  29.038  14.803
99823W        W61189   1.789  44.390   4.687
99824W        W61190   2.906  29.993  14.349
99825W        W61191  14.287  29.494  10.562
99826W        W61192   1.976  44.429  14.814
99827W        W61193   5.775   5.351  13.032
99828W        W61194  41.306  23.729  12.470
99829W        W61195   4.429  22.054   1.387
99830W        W61196  22.738  14.266  10.097
99831W        W61197  42.821  41.973   1.228
99832W        W61198  29.034   8.781  14.032
99833W        W61199  12.329  21.610  11.080
99834W        W61200  35.987  34.048  11.377
99835W        W61201  28.544   7.229   3.683
99836W        W61202  10.315  30.942  14.343
99837W        W61203  12.824  24.688  12.036
99838W        W61204   3.388  29.109  12.040
99839W        W61205  11.166  39.472  13.040
99840W        W61206  17.602  39.896  10.485
99841W        W61207  29.172  36.914  10.624
99842W        W61208   1.306   2.288  14.331
99843W        W61209  37.377  16.293   0.907
99844W        W61210  21.634  12.290  14.940
99845W        W61211  38.927  12.676  13.338
99846W        W61212   6.391  15.107   0.433
99847W        W61213  11.129  19.154  13.934
99848W        W61214  24.143   0.768   4.273
99849W        W61215   2.909  27.096   0.266
99850W        W61216   9.299  38.434   4.137
99851W        W61217  21.205   6.272   4.206
99852W        W61218  10.796   7.388   1.371
99853W        W61219  18.266   1.258  14.288
99854W        W61220  36.384  22.691  12.834
99855W        W61221  29.065  17.095  10.601
99856W        W61222  39.948  38.446   4.771
99857W        W61223  17.110   0.396  14.301
99858W        W61224  27.533  41.519  13.845
99859W        W61225   9.168  33.522   4.665
99860W        W61226  33.483   4.713   2.230
99861W        W61227  17.683   2.460  13.043
99862W        W61228   9.173  34.613  13.922
99863W        W61229  11.687  18.737   0.454
99864W        W61230   9.279  32.478   0.835
99865W        W61231  35.559   0.384  13.855
99866W        W61232   3.412   5.416  13.449
99867W        W61233  11.272  41.815  14.765
99868W        W61234  27.976   2.926  12.088
99869W        W61235  17.661  39.454   0.408
99870W        W61236  16.778  11.275  13.494
99871W        W61237   7.824  15.666  11.379
99872W        W61238  13.766  31.119   1.890
99873W        W61239  24.493   2.755   2.242
99874W        W61240  15.714  32.928  13.018
99875W        W61241  19.155  11.760   3.744
99876W        W61242  20.079  13.120  11.547
99877W        W61243  24.227  39.318   1.859
99878W        W61244   3.768  19.654  12.429
99879W        W61245  40.936  24.580   3.343
99880W        W61246  39.886   4.843   4.136
99881W        W61247  38.832   6.769   2.210
99882W        W61248   6.863  30.004  13.326
99883W        W61249  33.038   1.467   1.388
99884W        W61250  19.281  30.146   0.247
99885W        W61251  41.939  14.593  11.066
99886W        W61252  39.437  39.538  12.580
99887W        W61253  38.866  14.155  10.917
99888W        W61254  22.609   0.848   1.810
99889W        W61255  18.283  10.165  13.348
99890W        W61256  12.775  33.890  11.453
99891W        W61257  22.234   5.876  14.983
99892W        W61258  41.876   2.861   3.236
99893W        W61259  13.175  23.209   3.368
99894W        W61260   7.363  27.685  10.636
99895W        W61261  39.881   8.263  11.392
99896W        W61262   5.240  41.820  10.471
99897W        W61263  16.722  27.626  12.931
99898W        W61264  44.454  37.932   0.792
99899W        W61265   8.878  12.278  12.344
99900W        W61266  37.558  23.669  10.105
99901W        W61267  31.025  13.652   2.729
99902W        W61268  39.879  25.159   3.781
99903W        W61269  18.253  30.022  10.978
99904W        W61270  20.070   0.877  14.850
99905W        W61271   3.240  27.034  14.957
99906W        W61272  43.968   2.772  12.981
99907W        W61273  39.002   8.681  13.887
99908W        W61274  21.120   5.250  13.795
99909W        W61275  37.440   3.224  11.562
99910W        W61276   5.923   5.905   9.989
99911W        W61277  25.112  41.519  11.560
99912W        W61278  34.018   0.309   2.769
99913W        W61279  28.656  34.102   4.749
99914W        W61280  37.394   4.447   0.782
99915W        W61281   7.805  38.511   0.744
99916W        W61282  10.663  19.049  13.934
99917W        W61283  12.257  26.696  12.005
99918W        W61284  26.513  27.489   5.304
99919W        W61285  33.080  43.790   1.396
99920W        W61286   7.394  42.379  12.511
99921W        W61287  27.165   5.405   1.235
99922W        W61288   4.939  12.287  12.469
99923W        W61289  22.551  24.650   4.815
99924W        W61290  23.206  30.569   0.363
99925W        W61291  43.872  11.127  10.442
99926W        W61292  44.463  37.451   2.675
99927W        W61293  42.396   5.284  12.838
99928W        W61294  26.523   5.241   3.173
99929W        W61295  30.490  16.100   3.787
99930W        W61296  23.010  11.347  13.474
99931W        W61297  43.940   5.689   0.325
99932W        W61298   5.296  38.066  10.547
99933W        W61299   8.258  36.047  11.110
99934W        W61300  39.552  44.792  10.974
99935W        W61301  31.422   2.349   1.238
99936W        W61302  22.176   5.435  11.409
99937W        W61303   8.861  43.293  11.005
99938W        W61304   3.861  32.479  14.771
99939W        W61305   6.896   6.419  14.863
99940W        W61306  24.230  20.632   1.779
99941W        W61307  28.975  33.031  13.439
99942W        W61308   7.783  29.096  11.881
99943W        W61309  21.643  35.997  12.832
99944W        W61310   7.860  22.228   0.345
99945W        W61311  37.444  36.074  11.031
99946W        W61312  17.164   4.776   1.929
99947W        W61313  34.437  23.618   4.187
99948W        W61314  20.264  22.565  14.483
99949W        W61315  33.452  15.221   0.948
99950W        W61316  26.643   3.715   2.301
99951W        W61317  18.630   0.466   1.905
99952W        W61318  13.337  29.115  10.504
99953W        W61319  41.953   8.841  14.357
99954W        W61320  37.572  36.396   2.262
99955W        W61321   8.178  34.899  13.057
99956W        W61322  17.620  41.302  14.431
99957W        W61323   1.958  18.596   2.877
99958W        W61324   2.342  16.771  14.004
99959W        W61325  26.045   5.280  12.468
99960W        W61326  31.477  24.665   3.310
99961W        W61327  33.027   4.748  11.516
99962W        W61328   1.308  11.830  10.461
99963W        W61329  36.437   0.415   0.895
99964W        W61330   6.920  11.820   3.298
99965W        W61331  25.632  32.470  11.541
99966W        W61332  32.634  16.804   2.277
99967W        W61333  29.138  29.548   2.688
99968W        W61334  22.531  20.120   0.841
99969W        W61335  17.104  36.911   3.212
99970W        W61336  16.217  40.909  14.344
99971W        W61337  22.252   5.816   1.252
99972W        W61338  21.065  35.376  13.362
99973W        W61339  12.762  31.410   2.307
99974W        W61340  34.535  34.022   0.923
99975W        W61341   1.897   4.242  12.897
99976W        W61342   2.814  29.476  14.930
99977W        W61343  39.879  40.829   3.685
99978W        W61344   1.361  41.396  10.588
99979W        W61345   0.277  39.399  11.504
99980W        W61346  32.024  26.612   4.711
99981W        W61347  38.482   9.173  11.371
99982W        W61348   1.950  35.085  13.982
99983W        W61349  13.125   4.729   3.347
99984W        W61350  28.067  17.598  11.495
99985W        W61351  36.454  20.251  14.468
99986W        W61352  25.526  31.017   5.275
99987W        W61353  25.147  38.535  14.852
99988W        W61354  40.050   3.736  13.998
99989W        W61355   1.311  16.708   3.381
99990W        W61356  22.610  15.609  12.053
99991W        W61357  18.613  12.262   2.312
99992W        W61358  32.398  21.717   2.263
99993W        W61359   5.915   8.899  12.079
99994W        W61360  23.232  43.001   4.632
99995W        W61361  25.057  20.272  12.365
99996W        W61362  39.545  16.229   2.715
99997W        W61363  33.455  29.093  10.033
99998W        W61364  11.731  22.106  13.323
99999W        W61365   3.244   5.253   2.899
    0W        W61366  30.581  17.160  11.053
    1W        W61367  42.347  11.762   4.775
    2W        W61368  14.191  30.093   4.237
    3W        W61369  15.138  19.114   0.335
    4W        W61370  32.004  10.795   3.333
    5W        W61371  35.561  32.975  12.019
    6W        W61372  21.548  26.541  13.484
    7W        W61373  33.089   0.776   3.653
    8W        W61374  27.655  34.025  12.469
    9W        W61375  20.580  37.845   3.633
   10W        W61376   2.743  44.852  13.821
   11W        W61377   5.388  36.351  12.400
   12W        W61378   3.432  36.014  13.796
   13W        W61379   1.360   6.714  11.921
   14W        W61380   5.296  41.297  14.952
   15W        W61381  14.734  37.878   3.224
   16W        W61382  15.228   1.966  14.436
   17W        W61383   5.702  13.271  10.035
   18W        W61384  22.643  12.824   2.257
   19W        W61385   6.676  33.531   1.921
   20W        W61386  29.107  44.914  11.412
   21W        W61387   2.398  25.217   0.774
   22W        W61388   5.720   6.786   3.292
   23W        W61389  31.531  15.083   4.160
   24W        W61390  24.189  21.263  10.514
   25W        W61391  26.560  15.639   5.144
   26W        W61392  14.173  17.283  12.438
   27W        W61393  17.092  33.478   1.433
   28W        W61394  16.122  16.074   1.756
   29W        W61395  32.469  32.629   4.720
   30W        W61396  29.058  30.591  10.432
   31W        W61397  27.015  40.879   4.323
   32W        W61398  25.987  27.183   3.816
   33W        W61399  34.036  28.949  14.493
   34W        W61400   5.886  26.010  11.957
   35W        W61401   0.335  28.980   1.860
   36W        W61402   3.354  27.096  11.935
   37W        W61403  10.740   5.432   2.784
   38W        W61404  39.457  42.912  10.053
   39W        W61405  39.016   7.705   1.752
   40W        W61406  11.763  12.215  10.511
   41W        W61407  15.675  15.627   0.806
   42W        W61408  41.009  23.208   2.858
   43W        W61409  27.990  10.315   0.285
   44W        W61410   3.880  25.148   5.179
   45W        W61411  35.857  12.795  13.942
   46W        W61412  19.753  15.108   2.411
   47W        W61413  35.075   4.438   3.252
   48W        W61414  23.189  33.387  12.984
   49W        W61415   3.251   1.921   4.625
   50W        W61416  26.486  28.484  13.537
   51W        W61417  34.940  34.598  14.424
   52W        W61418  34.423  44.892   1.816
   53W        W61419  40.816  36.485   2.191
   54W        W61420   1.338  39.338   3.810
   55W        W61421  33.560  16.316  12.500
   56W        W61422  34.395  29.578   4.721
   57W        W61423  10.263  15.155   0.252
   58W        W61424  11.635   6.331  14.796
   59W        W61425   5.716  10.152   4.622
   60W        W61426  24.624  22.725  14.958
   61W        W61427  24.640   0.257   0.429
   62W        W61428  17.279  30.941  14.444
   63W        W61429  43.952  42.949   1.817
   64W        W61430  13.779  36.958  13.805
   65W        W61431  29.558  43.477   3.707
   66W        W61432  39.837  28.561  14.966
   67W        W61433  14.601  29.030   2.851
   68W        W61434  11.798  26.960   3.808
   69W        W61435  30.133  19.174   5.728
   70W        W61436  25.121  39.860   2.879
   71W        W61437   9.876  11.144   0.343
   72W        W61438  31.639  22.021   4.343
   73W        W61439  38.841   7.759   2.668
   74W        W61440  17.753  13.672  13.340
   75W        W61441   5.431   6.787  14.443
   76W        W61442  38.831   5.222   4.129
   77W        W61443  36.088   1.916   2.271
   78W        W61444  41.940  30.515   4.655
   79W        W61445   1.420  43.848   0.391
   80W        W61446  12.825  24.663  11.452
   81W        W61447   0.335   5.730  13.345
   82W        W61448  20.704  12.130   1.790
   83W        W61449  14.265  23.496   2.412
   84W        W61450  39.475  10.821  12.965
   85W        W61451  36.870  15.119   1.431
   86W        W61452  32.582  20.240  11.986
   87W        W61453  10.327  32.083  11.566
   88W        W61454  21.670  41.806  13.434
   89W        W61455   8.785   4.723  10.918
   90W        W61456  20.534  24.210   1.285
   91W        W61457  36.447  33.067  11.498
   92W        W61458  29.584  42.798   0.766
   93W        W61459  26.633  19.712   4.190
   94W        W61460   7.207   2.757   5.089
   95W        W61461  14.642  15.298  14.946
   96W        W61462  40.866  34.587   3.244
   97W        W61463  23.620  15.721   3.180
   98W        W61464   5.730  17.613  12.548
   99W        W61465  11.168  36.952  12.364
  100W        W61466   4.371  41.536  11.992
  101W        W61467  42.325  20.046  12.457
  102W        W61468   8.275   6.923   3.157
  103W        W61469  14.283  17.662   4.152
  104W        W61470  40.014   5.913  11.035
  105W        W61471  37.070  10.830   4.297
  106W        W61472  18.569   8.346   2.217
  107W        W61473  33.517  20.671   1.813
  108W        W61474  36.393   1.919   1.865
  109W        W61475  35.564  33.610  10.555
  110W        W61476  10.181  10.216  12.538
  111W        W61477   6.677  17.736  12.970
  112W        W61478  27.987   7.863  11.066
  113W        W61479  26.555  13.663   3.639
  114W        W61480   0.977  13.279   0.832
  115W        W61481   3.759  42.412   2.748
  116W        W61482  32.103  28.541  10.520
  117W        W61483  29.950  31.606   2.886
  118W        W61484  33.977  28.127   4.199
  119W        W61485  15.194  19.135  11.023
  120W        W61486  34.906  10.869  10.458
  121W        W61487   4.824  20.634  12.363
  122W        W61488   0.871   1.362   3.349
  123W        W61489  11.624  14.160  11.460
  124W        W61490  19.078  16.144   5.264
  125W        W61491  11.153  20.688   1.732
  126W        W61492  23.586  26.157   0.816
  127W        W61493  38.075  22.998   0.956
  128W        W61494  32.451  30.931   1.788
  129W        W61495  17.731  29.950  13.032
  130W        W61496  31.064  41.344   5.092
  131W        W61497  32.056  25.203  11.007
  132W        W61498   4.324  21.553  11.384
  133W        W61499  11.849  24.016   5.292
  134W        W61500  12.313   2.420   4.731
  135W        W61501  18.662   4.253   3.167
  136W        W61502  34.910  42.362   1.408
  137W        W61503  13.614  39.929  11.537
  138W        W61504   7.767  33.126  14.904
  139W        W61505  42.904  43.381   2.390
  140W        W61506  11.775  11.357  11.984
  141W        W61507   1.304  39.542   4.687
  142W        W61508  19.568   7.904  11.915
  143W        W61509  28.552   6.196   1.702
  144W        W61510  28.565   5.382   4.355
  145W        W61511  27.956  27.020   3.222
  146W        W61512  20.047  16.790  12.995
  147W        W61513  30.944  11.819  11.422
  148W        W61514   0.824   8.875  10.546
  149W        W61515  31.570  42.284   0.777
  150W        W61516  38.029  24.689  13.393
  151W        W61517  35.448   9.774   3.787
  152W        W61518   5.428  35.538  12.356
  153W        W61519  36.982   3.339   1.394
  154W        W61520  12.823  43.007   5.285
  155W        W61521  22.724  19.137  11.494
  156W        W61522  36.933  21.209  13.533
  157W        W61523   4.734  29.645   1.423
  158W        W61524  22.599  38.371   4.194
  159W        W61525  23.233  28.950   3.701
  160W        W61526  33.498  33.452   4.228
  161W        W61527  40.039  36.560  13.916
  162W        W61528   5.887   2.416  10.903
  163W        W61529   8.745  18.205  10.970
  164W        W61530  22.520  19.759  11.536
  165W        W61531  15.819  11.631  11.078
  166W        W61532  22.029  44.457   1.862
  167W        W61533  24.078  20.052   3.147
  168W        W61534   1.270  37.929  12.031
  169W        W61535  37.529  41.833  10.543
  170W        W61536  28.076  28.026   2.713
  171W        W61537  27.997  12.146   0.756
  172W        W61538  29.013   3.839  10.981
  173W        W61539   3.223   9.710  13.916
  174W        W61540  19.185  26.616  13.525
  175W        W61541  32.887  23.010  14.796
  176W        W61542  25.110  30.039   0.481
  177W        W61543  30.039  22.744   0.475
  178W        W61544  18.073  22.595  12.433
  179W        W61545  16.085  12.301   2.870
  180W        W61546  22.530  17.263   1.721
  181W        W61547  44.268   1.327   4.804
  182W        W61548  17.307  32.518  13.952
  183W        W61549   8.739   9.247  12.940
  184W        W61550  14.714  20.723  13.332
  185W        W61551  11.728  17.192   4.762
  186W        W61552  14.820  20.767   1.825
  187W        W61553  31.963  31.153  10.440
  188W        W61554  31.585  16.735   3.760
  189W        W61555  21.713  25.483   4.799
  190W        W61556  32.983   8.663  14.339
  191W        W61557  27.056   3.371  13.997
  192W        W61558   4.775   0.841   0.416
  193W        W61559  16.233  44.871  13.374
  194W        W61560  22.081   2.844   3.819
  195W        W61561  32.112  35.994   4.154
  196W        W61562  26.155   5.695  14.507
  197W        W61563  31.456  26.034  14.023
  198W        W61564  37.578   8.286  12.976
  199W        W61565   5.331  41.921   1.744
  200W        W61566   7.756  24.528  14.988
  201W        W61567  11.339  42.017   1.426
  202W        W61568  18.673  29.660  13.935
  203W        W61569  11.790  14.713  11.859
  204W        W61570   8.793  19.623  14.927
  205W        W61571  17.659  31.595   1.268
  206W        W61572  36.849  20.588   0.737
  207W        W61573  20.178   7.398   0.324
  208W        W61574  26.079  16.093   4.684
  209W        W61575  33.560  21.624   4.702
  210W        W61576  17.076  10.680   4.813
  211W        W61577  29.503   9.836  10.455
  212W        W61578  29.992   8.804   4.207
  213W        W61579  24.201   1.955  14.769
  214W        W61580   8.739  38.879   2.744
  215W        W61581  23.529   3.280  13.316
  216W        W61582  35.021   0.747  10.078
  217W        W61583  10.751  32.909   3.776
  218W        W61584  30.625   0.316   2.840
  219W        W61585   8.403  22.671   1.434
  220W        W61586  24.150   7.858  14.369
  221W        W61587  21.064  13.828   2.396
  222W        W61588  10.208  11.845   3.657
  223W        W61589  17.759  42.495   0.274
  224W        W61590  13.268  30.987   1.239
  225W        W61591   1.321  18.090   2.213
  226W        W61592  34.615  26.685  10.501
  227W        W61593  10.825   3.937  14.941
  228W        W61594  41.830   0.857   5.190
  229W        W61595  43.404  21.159   0.333
  230W        W61596  24.984  36.045   3.805
  231W        W61597  18.646   7.201   4.173
  232W        W61598   5.228  37.973  13.348
  233W        W61599  34.871  33.907  11.984
  234W        W61600   3.907   5.271   3.320
  235W        W61601  41.834  20.062  12.569
  236W        W61602   6.194  14.213  11.507
  237W        W61603  30.483  39.818   3.728
  238W        W61604  30.975  30.549   4.213
  239W        W61605   5.812  22.183  14.993
  240W        W61606   4.389   2.227  11.122
  241W        W61607  35.434  23.494  14.831
  242W        W61608  11.693  39.050  11.547
  243W        W61609   9.194  34.430  12.985
  244W        W61610  44.497  10.207  10.925
  245W        W61611  13.807  15.109  11.483
  246W        W61612  23.228  31.610  12.487
  247W        W61613   7.360  15.774  14.922
  248W        W61614  42.422  41.990  12.578
  249W        W61615   9.332  27.021   3.295
  250W        W61616   3.827   4.880  11.497
  251W        W61617   6.713   2.470  12.929
  252W        W61618  44.765   3.248   3.210
  253W        W61619  39.018  26.090  12.348
  254W        W61620   0.843  44.985  10.531
  255W        W61621  27.989  17.307   3.774
  256W        W61622   3.286  10.322  13.486
  257W        W61623  28.150  25.095  10.491
  258W        W61624  13.289  36.554  12.857
  259W        W61625  44.388  27.124   0.894
  260W        W61626   2.824  40.374  12.359
  261W        W61627  40.869  14.176  12.838
  262W        W61628   2.836  20.669   2.345
  263W        W61629  36.400  36.048   2.825
  264W        W61630  22.701  21.041  14.830
  265W        W61631  17.096   1.972   5.188
  266W        W61632  31.447  39.972  11.419
  267W        W61633  18.650  17.192   4.233
  268W        W61634  15.169  27.492  13.059
  269W        W61635   8.691  30.466   4.639
  270W        W61636  31.010  38.997   0.432
  271W        W61637   3.930   3.716   9.459
  272W        W61638   2.859  13.288  12.999
  273W        W61639   8.773  35.368   3.865
  274W        W61640   7.731  23.591   4.693
  275W        W61641   3.903  19.673   4.602
  276W        W61642  26.485  30.600   1.244
  277W        W61643  23.703  39.825   0.293
  278W        W61644  38.561  12.825  12.044
  279W        W61645  16.250  34.908   2.292
  280W        W61646  10.380  39.433  13.795
  281W        W61647  31.588  36.579   4.190
  282W        W61648   6.790  43.897   3.358
  283W        W61649  31.589  17.605  11.124
  284W        W61650  16.740   7.235   3.789
  285W        W61651   4.708  41.928   3.205
  286W        W61652  16.803  29.456   0.931
  287W        W61653   0.408   5.738   0.743
  288W        W61654   9.648   1.733   0.460
  289W        W61655  13.287  15.713   2.322
  290W        W61656  31.476  13.614   3.344
  291W        W61657  29.447  37.081  13.022
  292W        W61658  43.971   5.219  12.398
  293W        W61659  23.127  29.073   2.759
  294W        W61660  19.688  13.695   2.223
  295W        W61661  38.364  35.526  14.915
  296W        W61662  38.900  18.765   1.859
  297W        W61663  30.124  17.724   0.802
  298W        W61664   7.858   2.238  13.360
  299W        W61665  39.547  32.138   1.350
  300W        W61666  42.411  22.180  10.542
  301W        W61667  36.468  34.432  12.975
  302W        W61668  11.188  41.386   0.442
  303W        W61669  38.472  20.700   4.303
  304W        W61670  42.975   4.277   0.333
  305W        W61671   2.781  29.975   4.248
  306W        W61672   7.238   2.435   2.782
  307W        W61673   4.217  34.869  12.872
  308W        W61674  26.508  39.938  11.005
  309W        W61675  29.125  24.525   2.285
  310W        W61676  39.495  43.350   3.854
  311W        W61677  29.996  20.590   2.870
  312W        W61678  33.998  39.527   4.669
  313W        W61679  15.789  37.563   3.161
  314W        W61680  42.313  13.193  13.966
  315W        W61681  43.487  30.090  12.092
  316W        W61682   8.319  43.417   0.857
  317W        W61683  43.326  16.075   1.415
  318W        W61684  39.827  13.728   1.706
  319W        W61685   5.402  37.497   2.230
  320W        W61686  20.073   4.839   2.186
  321W        W61687  30.949  35.091   2.859
  322W        W61688   4.402  38.020   4.713
  323W        W61689  19.236  32.436  11.547
  324W        W61690  11.785  28.674   4.811
  325W        W61691  11.843   0.407   4.696
  326W        W61692   0.970  40.055   1.386
  327W        W61693  17.128  11.246  12.981
  328W        W61694  25.659  18.169   9.941
  329W        W61695  13.660   1.732  13.468
  330W        W61696   9.239   3.449   3.292
  331W        W61697  29.059  24.686   1.321
  332W        W61698  28.630  33.031   0.450
  333W        W61699  27.554   2.906  13.894
  334W        W61700   6.710  41.030  13.369
  335W        W61701   0.307  20.681   1.220
  336W        W61702  35.077  29.509  10.555
  337W        W61703  24.485  30.931   3.263
  338W        W61704  20.673   8.341  12.463
  339W        W61705  13.209  32.026   1.396
  340W        W61706  40.032  12.683  10.945
  341W        W61707  33.528  28.017  13.824
  342W        W61708  24.061  21.083  14.417
  343W        W61709  20.084  10.268   1.731
  344W        W61710  33.085  33.531  14.904
  345W        W61711   5.357  25.668   2.219
  346W        W61712  24.679  33.594  13.326
  347W        W61713   6.347   1.792  14.505
  348W        W61714  23.672  29.070  11.020
  349W        W61715  22.221   5.813  13.042
  350W        W61716  13.635  33.067  13.050
  351W        W61717  34.515  32.977  13.473
  352W        W61718   3.935  21.757   4.787
  353W        W61719  17.625  30.029   1.356
  354W        W61720  33.051  21.556   2.316
  355W        W61721   0.425  27.559  14.351
  356W        W61722  42.480  11.679  10.957
  357W        W61723   4.270  35.361   1.327
  358W        W61724  38.899  37.912  12.051
  359W        W61725  27.483  32.601   3.166
  360W        W61726   1.750  21.102  14.003
  361W        W61727   9.162  16.289   4.181
  362W        W61728  43.327  40.423  14.997
  363W        W61729  31.484  29.167  11.888
  364W        W61730  20.528   3.361   2.850
  365W        W61731  26.624   7.328   4.654
  366W        W61732  31.944  19.267  12.410
  367W        W61733  43.002  40.305   1.717
  368W        W61734  17.659  43.956  13.833
  369W        W61735  22.603  36.844   2.213
  370W        W61736  17.132  44.354   4.263
  371W        W61737  32.001  23.159  12.528
  372W        W61738  28.574  43.978   0.381
  373W        W61739  32.629  23.495  12.861
  374W        W61740  41.359  38.840  11.587
  375W        W61741  28.935  30.111  10.543
  376W        W61742  35.504   7.701   2.330
  377W        W61743  22.219  17.635  13.050
  378W        W61744   4.253  39.049   2.397
  379W        W61745   7.219  11.362  11.031
  380W        W61746  32.053  24.686  14.835
  381W        W61747  21.525  31.144  13.511
  382W        W61748  27.452  34.368  13.431
  383W        W61749  17.671  19.105   0.908
  384W        W61750  36.392   0.369  12.845
  385W        W61751  40.332  28.546  13.400
  386W        W61752  18.664   4.938  12.449
  387W        W61753   6.421  27.570   0.364
  388W        W61754  36.506  35.888  11.056
  389W        W61755   2.860  30.943  14.338
  390W        W61756   0.880   4.286   2.408
  391W        W61757  22.626  41.925   1.376
  392W        W61758  21.197  10.722  12.462
  393W        W61759   2.764  36.409   1.800
  394W        W61760  17.274  26.633  14.901
  395W        W61761  37.406   5.296   0.432
  396W        W61762  24.996  19.569  12.949
  397W        W61763   3.778  25.033  14.815
  398W        W61764  17.792  28.002  11.980
  399W        W61765  33.427  42.830  13.832
  400W        W61766  32.074  35.931   0.318
  401W        W61767  15.801  11.748   3.759
  402W        W61768  11.220  28.546   4.139
  403W        W61769   5.434   8.188   0.331
  404W        W61770  37.452   9.659   2.750
  405W        W61771  36.844  18.777   0.398
  406W        W61772  10.702  32.624   5.147
  407W        W61773  26.466   2.758  14.445
  408W        W61774  34.474   6.321   2.306
  409W        W61775  13.220   5.851  14.907
  410W        W61776  28.447  29.016  11.083
  411W        W61777  44.962   9.787   4.204
  412W        W61778  25.556   4.221  13.402
  413W        W61779   2.408  19.759   0.280
  414W        W61780  13.645  27.077   2.394
  415W        W61781  12.750  29.482  11.920
  416W        W61782  12.307  19.073   1.786
  417W        W61783  33.406  24.077  14.282
  418W        W61784  12.246  14.222   2.871
  419W        W61785   5.425  22.144   0.427
  420W        W61786  41.401  37.577   2.750
  421W        W61787   7.236  16.698   3.818
  422W        W61788  13.285  35.883   0.342
  423W        W61789   2.312  28.995  14.790
  424W        W61790   7.797   0.340   4.148
  425W        W61791   7.894  41.448   1.242
  426W        W61792  30.544  18.137  12.483
  427W        W61793  13.317   4.305   4.682
  428W        W61794   6.317  41.934   4.828
  429W        W61795   7.253  29.449  13.383
  430W        W61796  36.842   5.786   1.880
  431W        W61797   0.378   9.208   4.699
  432W        W61798  22.513   8.281  12.856
  433W        W61799  27.115   2.429   0.859
  434W        W61800  33.611  36.541   4.304
  435W        W61801  27.118  16.086   3.639
  436W        W61802   8.198   3.846   4.644
  437W        W61803  12.292  19.650  13.981
  438W        W61804  25.055  21.109   0.373
  439W        W61805  13.601   6.296  11.435
  440W        W61806  35.586  33.948   4.189
  441W        W61807  22.118  40.514  10.433
  442W        W61808  12.247  23.159   4.678
  443W        W61809   5.707  25.505   0.299
  444W        W61810   5.347   0.430   0.905
  445W        W61811   1.951  40.487   3.859
  446W        W61812   9.237  20.567   0.807
  447W        W61813  17.146   9.330   0.403
  448W        W61814   9.760  38.336   0.742
  449W        W61815  19.637  36.961   4.336
  450W        W61816  20.614  43.320  11.096
  451W        W61817  33.425  18.118   2.392
  452W        W61818  20.572   1.773   1.857
  453W        W61819  40.976  27.466  12.881
  454W        W61820  44.835  18.242   2.363
  455W        W61821  25.110  38.392  10.511
  456W        W61822  15.630  24.124  14.410
  457W        W61823  25.018  31.112   5.206
  458W        W61824  43.470  26.661  14.987
  459W        W61825  30.925  38.414  10.539
  460W        W61826  15.316  43.390   0.250
  461W        W61827  34.421   2.947   1.259
  462W        W61828  14.793  12.309  12.579
  463W        W61829  17.122  31.459  10.946
  464W        W61830  15.127  30.015   2.280
  465W        W61831  16.725  32.485   4.689
  466W        W61832  31.642  37.000  11.561
  467W        W61833   6.678  19.155  10.086
  468W        W61834  24.674   4.750   0.375
  469W        W61835  44.821  40.365   3.724
  470W        W61836   6.772   7.669  10.555
  471W        W61837  13.794  20.567   3.193
  472W        W61838  16.211  35.961   4.788
  473W        W61839  28.613  38.887  10.903
  474W        W61840  42.777  35.083   3.785
  475W        W61841  20.549  44.006  14.476
  476W        W61842  29.016  31.913  11.060
  477W        W61843  33.101  10.655   1.416
  478W        W61844  35.978  40.303  14.430
  479W        W61845  35.525  19.754  13.969
  480W        W61846  38.000   4.342   0.387
  481W        W61847  15.119   8.749  13.458
  482W        W61848  24.588  38.038   2.808
  483W        W61849  36.512   6.828  11.914
  484W        W61850  16.656  29.505  14.349
  485W        W61851  32.887  23.147   2.417
  486W        W61852  17.181  20.135  14.509
  487W        W61853  22.037  19.259   4.154
  488W        W61854  37.982  33.445   9.920
  489W        W61855  27.559  12.687   2.798
  490W        W61856  40.448  38.358   1.398
  491W        W61857   8.367   7.885  14.874
  492W        W61858  25.489  14.238  10.072
  493W        W61859  11.684  20.737   9.931
  494W        W61860  16.779  14.143  12.833
  495W        W61861  27.180  11.867  12.848
  496W        W61862  17.755  23.002  13.800
  497W        W61863  21.255   1.367  12.372
  498W        W61864  15.646  17.252  14.893
  499W        W61865  21.190  23.501   2.412
  500W        W61866   4.389   1.905   4.771
  501W        W61867  44.834  10.785  13.966
  502W        W61868  29.035  14.702   4.629
  503W        W61869   1.389  39.846  12.542
  504W        W61870  43.822   9.873   3.636
  505W        W61871  11.220  15.108  12.447
  506W        W61872   9.764  22.228   0.436
  507W        W61873   5.925   0.953  11.946
  508W        W61874   0.857  16.246   4.653
  509W        W61875  26.952  23.178  10.452
  510W        W61876   7.354  25.660  13.442
  511W        W61877  12.776  33.012  14.846
  512W        W61878   3.792  40.513   1.903
  513W        W61879  42.975  37.506  12.441
  514W        W61880  18.715  16.246  13.835
  515W        W61881  15.628  19.683  10.592
  516W        W61882  15.203  42.031  10.615
  517W        W61883  27.603  23.728   1.353
  518W        W61884  31.616  26.178  12.917
  519W        W61885  31.610  33.015  13.830
  520W        W61886  32.076  39.547   2.317
  521W        W61887  14.197  43.943   2.332
  522W        W61888  16.156   2.448  11.023
  523W        W61889  44.816   0.966  13.333
  524W        W61890  44.265  28.452   3.207
  525W        W61891  12.310  15.296   0.783
  526W        W61892   3.305   2.411  10.563
  527W        W61893   5.401  30.018   2.400
  528W        W61894   0.883  16.181   1.874
  529W        W61895  22.528  29.468   1.403
  530W        W61896   2.416  33.032  11.501
  531W        W61897  29.539  36.497  12.404
  532W        W61898   6.732  14.339   1.362
  533W        W61899  40.519   4.912   3.383
  534W        W61900  43.021  27.116   2.197
  535W        W61901  19.699  41.513   2.416
  536W        W61902  35.475  27.117   3.177
  537W        W61903  42.509  20.202  11.098
  538W        W61904  25.643  26.130   2.194
  539W        W61905  14.227   5.224   0.348
  540W        W61906  37.353  10.654  13.400
  541W        W61907   2.727  17.574   4.805
  542W        W61908   7.881  37.379   3.254
  543W        W61909  21.071   9.717   4.741
  544W        W61910   9.164  24.000  14.303
  545W        W61911  23.528  36.499  14.806
  546W        W61912  11.299  37.874   3.730
  547W        W61913  20.632  30.149   3.705
  548W        W61914  20.246  27.192  12.505
  549W        W61915  18.285  27.672  14.020
  550W        W61916  21.573  30.442  10.445
  551W        W61917   4.776  16.261  13.327
  552W        W61918   1.969  14.250   0.891
  553W        W61919  10.210  15.723   4.737
  554W        W61920  12.296  27.482  12.055
  555W        W61921  36.562  16.688  11.884
  556W        W61922  20.214  21.208  12.460
  557W        W61923  34.520  16.137   2.196
  558W        W61924   4.843   6.783  10.527
  559W        W61925  23.173  20.098  12.471
  560W        W61926  19.191   7.255  12.484
  561W        W61927   7.833   0.286  11.112
  562W        W61928  15.177  32.553  12.870
  563W        W61929  39.840   1.282  11.079
  564W        W61930  35.458  27.060  13.898
  565W        W61931  13.262  10.876   2.750
  566W        W61932   3.936  27.996   2.756
  567W        W61933  23.005   0.310   3.228
  568W        W61934  16.688  29.434   4.603
  569W        W61935  33.113  35.562   4.228
  570W        W61936  13.751  43.287   3.292
  571W        W61937  42.461  26.670   3.761
  572W        W61938  40.482  25.699   4.187
  573W        W61939   9.849  12.799   2.287
  574W        W61940  38.841   8.666   2.808
  575W        W61941  29.562  27.124   4.124
  576W        W61942  39.021  38.327   0.352
  577W        W61943  23.565  12.257   1.290
  578W        W61944  32.629  16.086   0.955
  579W        W61945  21.256   2.301  10.451
  580W        W61946  37.957  30.536   1.806
  581W        W61947  43.378  32.089   1.412
  582W        W61948  14.770  15.267  12.472
  583W        W61949  22.615   1.739   2.310
  584W        W61950  41.327   4.274   3.385
  585W        W61951  38.394  19.549  10.533
  586W        W61952  14.100  44.962  14.875
  587W        W61953  29.545   6.835  13.312
  588W        W61954  29.929   6.386  10.524
  589W        W61955   9.195  36.501   0.420
  590W        W61956  44.822  31.023  12.953
  591W        W61957  39.355   7.349  12.882
  592W        W61958  32.901  42.814  14.419
  593W        W61959  32.543  27.572  13.978
  594W        W61960  41.996  18.143   3.636
  595W        W61961  30.602  35.998   2.782
  596W        W61962  30.461  13.239   4.184
  597W        W61963  38.521  20.124  11.554
  598W        W61964   4.359   7.196  13.438
  599W        W61965   1.253  12.670  11.491
  600W        W61966  34.001  40.034  14.374
  601W        W61967  26.959  18.736   0.353
  602W        W61968  28.670   2.837   0.870
  603W        W61969  29.436   6.412   2.248
  604W        W61970  19.640  17.147   3.644
  605W        W61971  22.040  33.539   1.882
  606W        W61972  16.143  20.658  12.959
  607W        W61973  26.594  34.505   3.153
  608W        W61974  26.660  26.542  14.332
  609W        W61975  19.564  28.018  12.915
  610W        W61976  27.943  27.467  14.351
  611W        W61977  33.946   2.362  13.020
  612W        W61978   9.847  34.391  12.907
  613W        W61979  16.598  40.801  14.440
  614W        W61980  29.430   7.676  14.833
  615W        W61981   9.269   7.815  13.047
  616W        W61982   5.247  27.997   4.119
  617W        W61983  20.699   8.834   3.232
  618W        W61984  15.793  40.464   1.697
  619W        W61985  42.362  40.849  11.877
  620W        W61986  20.227  39.039   1.864
  621W        W61987  43.896  42.413   2.358
  622W        W61988   6.428  25.203  10.034
  623W        W61989  32.980  31.907  10.087
  624W        W61990  21.617  20.549   4.194
  625W        W61991  15.214  17.137   4.315
  626W        W61992  30.163  16.672  11.947
  627W        W61993   2.820   7.328  11.593
  628W        W61994  20.543   6.829   2.240
  629W        W61995  38.922  25.545  12.478
  630W        W61996  25.706  14.307  12.394
  631W        W61997   9.355  12.306   4.175
  632W        W61998  37.041   1.746  14.762
  633W        W61999  37.467  39.905   2.307
  634W        W62000  10.302  12.123  13.372
  635W        W62001  41.444   9.708  13.817
  636W        W62002  37.548  38.828  14.805
  637W        W62003  16.597   1.922  14.464
  638W        W62004  11.352  22.130   2.278
  639W        W62005  33.890  23.202  12.881
  640W        W62006   5.812  14.131   9.495
  641W        W62007  17.575  21.756  10.489
  642W        W62008  17.579  28.139   0.466
  643W        W62009  10.378  20.160   1.723
  644W        W62010  18.771  11.288   4.250
  645W        W62011  31.933  18.688   0.340
  646W        W62012   7.339   0.367   3.288
  647W        W62013  16.087  16.624   3.246
  648W        W62014  33.419   7.749   4.175
  649W        W62015  17.106   5.846   4.178
  650W        W62016  30.426  26.612   5.208
  651W        W62017  14.635   7.717  12.027
  652W        W62018  21.073  20.700  14.851
  653W        W62019  30.127  10.170   0.363
  654W        W62020  13.600   2.415   2.389
  655W        W62021  33.942  38.008  11.886
  656W        W62022  14.104  21.233  10.569
  657W        W62023   2.383  43.991  10.515
  658W        W62024  33.019  39.415  14.302
  659W        W62025  20.727   4.247   3.209
  660W        W62026  13.639  13.141  11.380
  661W        W62027  14.113  14.764   0.729
  662W        W62028  34.477  11.806   3.193
  663W        W62029  29.959   6.370  10.917
  664W        W62030  25.123   2.885   4.337
  665W        W62031  20.062   5.772   2.801
  666W        W62032  36.047   7.171  10.564
  667W        W62033  23.173   1.258  10.446
  668W        W62034  33.067  37.041  11.586
  669W        W62035  18.753   3.852   2.245
  670W        W62036  30.499   0.263  11.989
  671W        W62037  34.439  44.260   2.383
  672W        W62038  16.644  31.555  14.985
  673W        W62039   0.819  35.029   0.442
  674W        W62040   0.875   1.359  11.546
  675W        W62041  22.022  22.065  12.546
  676W        W62042  13.707  33.929  14.923
  677W        W62043  19.079  35.923  13.368
  678W        W62044  23.711  27.677   4.601
  679W        W62045  30.631  34.563   2.753
  680W        W62046  39.976  40.978   0.740
  681W        W62047  34.543   0.883   1.764
  682W        W62048  19.240   0.802  14.910
  683W        W62049  44.937  13.349   2.387
  684W        W62050  35.976  23.674  11.907
  685W        W62051  28.127  21.729   0.825
  686W        W62052  43.969  20.057  14.902
  687W        W62053  26.199  13.250  10.513
  688W        W62054  15.124  41.349  10.577
  689W        W62055   0.785  18.564   4.343
  690W        W62056  35.488  43.484   0.286
  691W        W62057  24.183  30.547   3.217
  692W        W62058  39.830  38.505   2.703
  693W        W62059  31.990  17.777  12.541
  694W        W62060  39.539  26.548   0.380
  695W        W62061  15.191  11.371  13.898
  696W        W62062  34.996   6.276   1.922
  697W        W62063  25.556  39.433  14.779
  698W        W62064  44.976  37.857   1.366
  699W        W62065  42.374  40.871  12.401
  700W        W62066   0.791  39.315   0.269
  701W        W62067   0.315  32.045   0.331
  702W        W62068  35.480  33.615  12.549
  703W        W62069  36.881  35.946   4.834
  704W        W62070  39.885   5.194  14.452
  705W        W62071  22.024  41.007  10.965
  706W        W62072  38.943  22.659   3.371
  707W        W62073   1.900  15.751   1.759
  708W        W62074  41.894  14.612   1.711
  709W        W62075  32.553  19.606   2.850
  710W        W62076  44.275  19.225   3.779
  711W        W62077  35.879  20.610   4.623
  712W        W62078  32.054  19.048   4.714
  713W        W62079  42.866  27.468  13.385
  714W        W62080  29.927  22.028  14.507
  715W        W62081  36.906  25.064   1.306
  716W        W62082   6.711  34.405  10.923
  717W        W62083  20.589  16.798  14.773
  718W        W62084   6.888  35.968   1.433
  719W        W62085   5.338  31.620   3.279
  720W        W62086  34.091  12.168  11.435
  721W        W62087  15.279  41.983  14.507
  722W        W62088  20.043  36.352   4.782
  723W        W62089   2.232  26.504   4.244
  724W        W62090  24.208  23.660  10.641
  725W        W62091  26.469  44.332   4.237
  726W        W62092  23.132  31.061  13.012
  727W        W62093  42.886  42.952  10.892
  728W        W62094   0.794  23.539   2.819
  729W        W62095  17.708  35.483  12.056
  730W        W62096  35.096  34.902   5.187
  731W        W62097  30.977  40.958   4.305
  732W        W62098  38.452  25.134  10.454
  733W        W62099  34.570  43.403  13.877
  734W        W62100   6.302  11.748  14.442
  735W        W62101  13.126  43.476   0.829
  736W        W62102  41.787  33.447   5.190
  737W        W62103  37.855  39.986  14.795
  738W        W62104  25.553  34.397  11.924
  739W        W62105  14.674  23.040  11.590
  740W        W62106  39.394   9.355   0.840
  741W        W62107   3.840   5.804   1.891
  742W        W62108  30.070  38.431   2.260
  743W        W62109  24.040  18.077   0.855
  744W        W62110  33.441   4.806   4.164
  745W        W62111  28.581  22.529   2.207
  746W        W62112  17.175  15.169  13.406
  747W        W62113  16.172  40.364  13.539
  748W        W62114  33.058  27.037   3.342
  749W        W62115   8.322  33.107   3.778
  750W        W62116  19.659  35.878   1.809
  751W        W62117  21.088  25.577  12.462
  752W        W62118   8.840   7.271  10.408
  753W        W62119  39.407  43.361   4.699
  754W        W62120  39.339  12.610  12.923
  755W        W62121  36.967  22.706  11.439
  756W        W62122   1.400  21.199  12.431
  757W        W62123   2.341  33.490   0.318
  758W        W62124  23.150  14.758   1.434
  759W        W62125  39.058  25.987   2.352
  760W        W62126   7.270   1.369   2.772
  761W        W62127  28.965  11.356   1.919
  762W        W62128  28.116  19.678  11.867
  763W        W62129  14.828  22.035   2.374
  764W        W62130   9.832  39.389   3.697
  765W        W62131   3.358  39.340  12.959
  766W        W62132   5.789  42.975  12.072
  767W        W62133  35.038  22.229   4.263
  768W        W62134  10.231  19.677  10.428
  769W        W62135  39.024  20.596  10.411
  770W        W62136  11.779  28.671  14.293
  771W        W62137  37.368  28.064   2.751
  772W        W62138  18.084  30.118   4.195
  773W        W62139  28.677  13.207  13.996
  774W        W62140  23.654  13.192  10.910
  775W        W62141  14.665  24.201  13.896
  776W        W62142  22.669  22.046   4.137
  777W        W62143  31.590  35.388   1.844
  778W        W62144  12.311  43.322  12.964
  779W        W62145  33.971   6.331   1.739
  780W        W62146  25.048  14.621  13.537
  781W        W62147  32.456  34.388  10.494
  782W        W62148  40.363  44.465  12.425
  783W        W62149  41.331  13.655   3.324
  784W        W62150  36.509  11.686   3.164
  785W        W62151  13.761  22.513  11.554
  786W        W62152  38.522   4.319   4.318
  787W        W62153  44.377  33.114  11.420
  788W        W62154  41.520   3.236   4.260
  789W        W62155  41.364  19.166  10.547
  790W        W62156  19.649   4.703   0.451
  791W        W62157  11.839  24.015   0.466
  792W        W62158  19.717  42.496   1.446
  793W        W62159  36.571  14.156   1.759
  794W        W62160  16.648  25.581  14.017
  795W        W62161   0.742  17.238   4.755
  796W        W62162   5.796  12.324  13.898
  797W        W62163  15.309  10.783   1.449
  798W        W62164   9.678   0.813  11.479
  799W        W62165   4.875  33.561   0.428
  800W        W62166  18.760  40.430   0.361
  801W        W62167  42.387  10.221  12.926
  802W        W62168  20.568  42.429   2.680
  803W        W62169  11.127  10.160  12.001
  804W        W62170  27.953  44.494  10.639
  805W        W62171   1.814  38.569   0.760
  806W        W62172  22.047  39.956  10.942
  807W        W62173   5.262   0.969   0.283
  808W        W62174   7.762  21.702  12.402
  809W        W62175   8.881  44.316  13.417
  810W        W62176  17.189  13.122   1.779
  811W        W62177  16.668   1.772   2.360
  812W        W62178  14.605  28.943   3.642
  813W        W62179   6.203  19.059   1.441
  814W        W62180   0.793  25.665  14.895
  815W        W62181   1.960  27.944   0.746
  816W        W62182  12.132  29.982  14.366
  817W        W62183  18.154   3.279   3.229
  818W        W62184  43.295   6.689  13.507
  819W        W62185   7.257   1.904  10.610
  820W        W62186  39.422   3.293  14.952
  821W        W62187  23.541   1.930  10.914
  822W        W62188  11.843  33.518  10.964
  823W        W62189  42.848  14.784   2.202
  824W        W62190  34.995  20.549   3.248
  825W        W62191  14.274  24.575   2.712
  826W        W62192  37.942  14.242  10.611
  827W        W62193  36.852  11.755   3.843
  828W        W62194  14.140  36.426  14.903
  829W        W62195  33.085  27.644   1.842
  830W        W62196  35.383   6.187   0.368
  831W        W62197  17.231  19.178  13.469
  832W        W62198  21.688  24.079  14.885
  833W        W62199  24.064   7.372  12.363
  834W        W62200  37.910   5.794  10.923
  835W        W62201  22.175  20.602   0.315
  836W        W62202  24.684   6.831   3.680
  837W        W62203  37.869  26.659   4.681
  838W        W62204  15.686  41.039   2.290
  839W        W62205  30.020  15.777  12.502
  840W        W62206   9.271  31.938   1.412
  841W        W62207  16.741  22.119   2.882
  842W        W62208  25.008  42.839  13.464
  843W        W62209   9.260  43.342  13.351
  844W        W62210  32.081  28.146   4.286
  845W        W62211  19.045  28.491   4.831
  846W        W62212  18.628  34.562  11.093
  847W        W62213  38.342   8.898  11.907
  848W        W62214  13.177  29.615   0.844
  849W        W62215   4.842  14.152  12.076
  850W        W62216   1.964  21.605  13.876
  851W        W62217  39.558   2.752  14.766
  852W        W62218  25.143  44.899  12.857
  853W        W62219  43.021   1.447  14.894
  854W        W62220  13.186  42.851  11.432
  855W        W62221  25.101  38.505   4.298
  856W        W62222  25.666   1.767  11.882
  857W        W62223  23.523   4.786  14.395
  858W        W62224  35.102   7.817   2.823
  859W        W62225  35.446  14.728   2.179
  860W        W62226  38.542   7.710   3.672
  861W        W62227  37.337   8.364   1.265
  862W        W62228  14.642  40.829  11.081
  863W        W62229  31.605  18.652  12.515
  864W        W62230  40.931  36.356   2.800
  865W        W62231   2.814   4.878   0.447
  866W        W62232  31.929  30.079   3.794
  867W        W62233   8.243  34.470  11.988
  868W        W62234  26.576   7.731  10.422
  869W        W62235  41.978   7.196   3.254
  870W        W62236   1.297  21.685  10.415
  871W        W62237   2.322  10.660   1.380
  872W        W62238  22.247   8.280   2.365
  873W        W62239  28.999   5.226   4.128
  874W        W62240  31.598  11.322   2.859
  875W        W62241  35.945  20.045  12.022
  876W        W62242   9.675  39.059   1.734
  877W        W62243  26.525  25.069  11.386
  878W        W62244  32.613  12.143  12.357
  879W        W62245  32.981  18.575   0.962
  880W        W62246  34.542   1.432   4.318
  881W        W62247  37.966  38.341  11.905
  882W        W62248   5.752  19.569   3.819
  883W        W62249  13.323  43.418   0.275
  884W        W62250  30.432  26.992  14.379
  885W        W62251  13.162   8.260  10.958
  886W        W62252  24.592  27.017  10.134
  887W        W62253  42.383  10.727  10.506
  888W        W62254  12.763   7.813   0.433
  889W        W62255  11.820  12.798  14.466
  890W        W62256  34.101  29.536   2.765
  891W        W62257  18.134  22.155   0.467
  892W        W62258  43.783  24.669   3.832
  893W        W62259  13.300  17.712  11.600
  894W        W62260   8.203  28.507   0.275
  895W        W62261  16.261  24.125   2.859
  896W        W62262  37.406   8.219  13.391
  897W        W62263  32.094  13.334   1.773
  898W        W62264   7.742  42.393   4.334
  899W        W62265  44.436   1.464   4.326
  900W        W62266  12.834  34.065  14.491
  901W        W62267  33.103   1.911  13.407
  902W        W62268  42.521  17.688   4.279
  903W        W62269  20.552   1.754  14.399
  904W        W62270  26.628  18.572   3.325
  905W        W62271  33.445  27.497  12.521
  906W        W62272   9.204  26.641   2.337
  907W        W62273  24.583   3.865  13.314
  908W        W62274  43.791   7.230  10.607
  909W        W62275  19.111  41.008  10.543
  910W        W62276  32.515  21.114  14.323
  911W        W62277   0.371   9.844   4.796
  912W        W62278   0.944  11.653   0.242
  913W        W62279  21.563  16.663   0.872
  914W        W62280   2.764  40.042   4.795
  915W        W62281   9.373   4.897  14.976
  916W        W62282  39.875  37.464  12.412
  917W        W62283  26.073  39.897   0.801
  918W        W62284  27.657   5.700   4.615
  919W        W62285  15.733  41.881   3.765
  920W        W62286  28.939  16.735  13.833
  921W        W62287   5.811  21.245   0.473
  922W        W62288  17.302  33.093  13.001
  923W        W62289  20.581  28.982  13.859
  924W        W62290  23.531  33.078  13.863
  925W        W62291  43.454  44.392  12.011
  926W        W62292  40.030  26.676  13.820
  927W        W62293  22.131   7.313   2.876
  928W        W62294  31.053   0.791  10.590
  929W        W62295  12.268  14.115   0.940
  930W        W62296  41.444  11.296  10.482
  931W        W62297  10.171  23.991   0.824
  932W        W62298   1.952  30.042   2.327
  933W        W62299  43.955  24.080  12.992
  934W        W62300   8.301  11.247   3.734
  935W        W62301  17.737   2.966   4.768
  936W        W62302  18.268   1.776   1.866
  937W        W62303  18.606  39.015   1.335
  938W        W62304  24.724  34.551  13.333
  939W        W62305  34.425  32.983  10.983
  940W        W62306  28.610  15.265  10.470
  941W        W62307  13.788  15.304  13.036
  942W        W62308  31.084  31.405   0.738
  943W        W62309  13.719  31.420  13.406
  944W        W62310   5.699  29.042  13.394
  945W        W62311  28.998   9.330   0.482
  946W        W62312  14.815  20.655   4.763
  947W        W62313  17.602  27.605  12.499
  948W        W62314  23.001   8.835   2.800
  949W        W62315  35.501   5.687  12.833
  950W        W62316  12.851  20.141  10.522
  951W        W62317   5.858   2.787  12.912
  952W        W62318  15.609  11.708   4.693
  953W        W62319  26.063   1.442   0.389
  954W        W62320  28.647  40.477   0.935
  955W        W62321  38.350  38.334   2.756
  956W        W62322   0.441  39.898   3.157
  957W        W62323  44.488  36.427   3.786
  958W        W62324  33.388  26.618  10.984
  959W        W62325  15.617  12.706   9.954
  960W        W62326  43.502  14.296  12.418
  961W        W62327  35.934  14.222   4.631
  962W        W62328  14.783  42.284   0.328
  963W        W62329  42.436  41.372  10.621
  964W        W62330  13.627  16.725   4.205
  965W        W62331   7.274  32.027   2.209
  966W        W62332  14.142  44.405  14.015
  967W        W62333  38.490  38.541   4.197
  968W        W62334   7.371  21.705   0.875
  969W        W62335  27.975  14.334  13.492
  970W        W62336   8.794   3.720  14.796
  971W        W62337   1.855  21.651  14.439
  972W        W62338  39.316   7.322  14.289
  973W        W62339  11.354  34.539  10.018
  974W        W62340  44.806  37.554  13.918
  975W        W62341  43.442  22.525   3.637
  976W        W62342  33.551  38.844  11.526
  977W        W62343  25.626  30.422  11.886
  978W        W62344   8.766   5.856  12.027
  979W        W62345   3.378  42.965   3.665
  980W        W62346   6.358   6.699   9.982
  981W        W62347  24.152   6.703  13.464
  982W        W62348   0.282  42.372   2.901
  983W        W62349  10.207   6.201   4.162
  984W        W62350   9.255   1.258  14.500
  985W        W62351  35.397   4.913   0.332
  986W        W62352  28.608   5.746   0.855
  987W        W62353  14.269  20.731  12.058
  988W        W62354  11.237  34.478   0.425
  989W        W62355   1.304  17.169   0.756
  990W        W62356  34.588   0.267   4.818
  991W        W62357  36.351  39.443  10.540
  992W        W62358  16.755  31.919  12.365
  993W        W62359  17.612  41.018   0.839
  994W        W62360   0.785   1.749   0.759
  995W        W62361   1.838  37.066  10.428
  996W        W62362   5.770  36.978   1.867
  997W        W62363   8.690  30.910  14.939
  998W        W62364   7.322  27.546   1.441
  999W        W62365  29.955  16.144   3.257
 1000W        W62366  17.140  32.034   3.852
 1001W        W62367  33.074  38.004   1.856
 1002W        W62368  22.245   4.906   3.783
 1003W        W62369  22.233  31.969   0.290
 1004W        W62370  22.094  16.670  14.838
 1005W        W62371  37.010  41.024   4.253
 1006W        W62372   3.917   3.748   3.160
 1007W        W62373   7.395   6.683  12.064
 1008W        W62374   8.746  41.831  14.790
 1009W        W62375  13.732  11.736  13.518
 1010W        W62376  32.919  41.015   2.893
 1011W        W62377  11.194   1.416   4.171
 1012W        W62378  13.109  37.435   3.801
 1013W        W62379  24.062  15.281  10.941
 1014W        W62380  40.483  44.009  12.893
 1015W        W62381  19.069  21.230  12.947
 1016W        W62382  18.594  34.431   0.443
 1017W        W62383  12.143  35.979   0.433
 1018W        W62384  40.546   7.362   9.990
 1019W        W62385  20.659  34.066   1.413
 1020W        W62386   0.783  35.489  13.950
 1021W        W62387  13.675  43.995  12.527
 1022W        W62388   1.931  42.427  14.356
 1023W        W62389  44.446  44.833   0.399
 1024W        W62390  16.246  37.970  12.563
 1025W        W62391  19.202   1.765  13.864
 1026W        W62392  12.138  44.309   1.292
 1027W        W62393  40.408   2.873  11.021
 1028W        W62394   0.310  29.164  14.338
 1029W        W62395  25.120  29.511   0.892
 1030W        W62396  19.739  20.075   2.306
 1031W        W62397   7.801  30.604   2.729
 1032W        W62398  20.170  22.039  10.635
 1033W        W62399  29.176   7.263   4.344
 1034W        W62400  33.058  34.405   0.284
 1035W        W62401  19.099  29.425  12.850
 1036W        W62402   1.361  15.241   2.836
 1037W        W62403  12.201   7.769   1.256
 1038W        W62404  19.127  28.572  14.970
 1039W        W62405   3.910  22.229  10.552
 1040W        W62406   8.678   8.697   1.809
 1041W        W62407  26.207  34.481   1.818
 1042W        W62408  26.648  10.817   2.810
 1043W        W62409  21.247   4.704  10.587
 1044W        W62410  13.825  36.388   0.306
 1045W        W62411  21.149  18.600   0.765
 1046W        W62412  41.833  18.628   0.293
 1047W        W62413  20.530  22.100   2.238
 1048W        W62414   8.766   7.309   9.996
 1049W        W62415  36.099  37.429   5.185
 1050W        W62416  28.113  36.055   1.705
 1051W        W62417  43.361  30.624   4.615
 1052W        W62418  26.637  28.608   0.390
 1053W        W62419  41.499  12.255  14.423
 1054W        W62420  15.584  21.570  12.538
 1055W        W62421  10.853  42.500  14.981
 1056W        W62422  44.990  42.820  14.810
 1057W        W62423  36.458  13.143  11.120
 1058W        W62424  40.944  40.382   2.363
 1059W        W62425  36.377  30.635   4.182
 1060W        W62426  24.126  12.666   3.715
 1061W        W62427   1.289  44.812  14.490
 1062W        W62428  16.289  33.548  12.371
 1063W        W62429   1.857  24.224   3.305
 1064W        W62430  40.987  26.634   2.699
 1065W        W62431  15.622  19.574  12.399
 1066W        W62432   7.717  19.569   2.193
 1067W        W62433   0.418   7.755  11.946
 1068W        W62434   9.871  21.610   1.716
 1069W        W62435  43.926  21.201  10.534
 1070W        W62436  33.426  24.516   2.314
 1071W        W62437   4.341  40.531   1.755
 1072W        W62438  31.572  33.920  10.543
 1073W        W62439   8.188  21.739  14.947
 1074W        W62440  27.956  37.942  13.051
 1075W        W62441  22.080  20.102  10.960
 1076W        W62442  41.018  20.551  14.006
 1077W        W62443  15.111   4.235  12.561
 1078W        W62444   8.732  20.142   4.834
 1079W        W62445   0.450  26.123   4.737
 1080W        W62446  33.899   8.364   0.371
 1081W        W62447  23.644  39.445  10.598
 1082W        W62448  18.070   7.279  11.377
 1083W        W62449  33.466  14.228   3.858
 1084W        W62450  17.099  28.022   0.479
 1085W        W62451  31.077  21.136   5.109
 1086W        W62452  20.610   2.731  10.021
 1087W        W62453  42.866  15.268  10.421
 1088W        W62454  19.598   3.815   4.661
 1089W        W62455   0.421   4.424   4.677
 1090W        W62456   8.341  43.375   0.357
 1091W        W62457  12.333  20.044  12.407
 1092W        W62458  12.739  37.907  14.854
 1093W        W62459  39.393  39.971  11.397
 1094W        W62460  39.386   5.690  14.998
 1095W        W62461  39.370   4.245  10.631
 1096W        W62462  44.400  41.039   3.384
 1097W        W62463  12.626  20.216  10.920
 1098W        W62464  20.093  31.121   2.216
 1099W        W62465  17.638   1.318  11.421
 1100W        W62466  35.439  15.161   1.313
 1101W        W62467  28.667  17.680  12.978
 1102W        W62468  22.543  40.974  12.958
 1103W        W62469  20.126  43.340  11.388
 1104W        W62470  36.912  43.381  11.486
 1105W        W62471  25.467  10.257   4.203
 1106W        W62472  36.972  10.160   4.674
 1107W        W62473  19.216  31.416  13.536
 1108W        W62474  40.936   2.863   1.720
 1109W        W62475   2.806  38.410  10.980
 1110W        W62476   7.310  35.023  11.543
 1111W        W62477  34.485  25.063   2.268
 1112W        W62478  17.283  22.627   5.203
 1113W        W62479   7.198  14.326   4.833
 1114W        W62480  19.175  34.552   0.845
 1115W        W62481  28.546  41.433   3.829
 1116W        W62482  19.579  20.765  13.812
 1117W        W62483  44.919  42.382   4.187
 1118W        W62484   3.753  41.019  11.079
 1119W        W62485  35.937  17.758  14.477
 1120W        W62486  37.419   2.825   1.728
 1121W        W62487  36.888  34.065   2.207
 1122W        W62488  43.305  40.490  13.320
 1123W        W62489  33.454  32.582  14.000
 1124W        W62490  12.184  32.945   5.636
 1125W        W62491  21.213  30.607  12.855
 1126W        W62492   1.758   3.832   4.815
 1127W        W62493  33.404  39.346   0.935
 1128W        W62494   2.302  17.166   1.704
 1129W        W62495  20.059  35.952  14.935
 1130W        W62496   5.912  35.039   4.159
 1131W        W62497   7.748   3.831  13.016
 1132W        W62498  25.530   0.449  13.022
 1133W        W62499   1.248  29.448   1.213
 1134W        W62500  27.956   9.183   0.819
 1135W        W62501  18.053   0.260   3.776
 1136W        W62502   5.731  41.021   2.755
 1137W        W62503  26.659   4.700  10.907
 1138W        W62504  21.231  22.200  11.492
 1139W        W62505  36.580   5.771   0.446
 1140W        W62506  14.263  23.017  11.513
 1141W        W62507   1.867   6.787   2.300
 1142W        W62508  42.441  41.339  11.945
 1143W        W62509  43.976   0.342  14.383
 1144W        W62510  40.404  26.020  10.422
 1145W        W62511  32.046  14.827   2.818
 1146W        W62512  19.184  13.630   2.785
 1147W        W62513   7.309  32.048  10.437
 1148W        W62514  21.593  30.988  12.875
 1149W        W62515  21.024   8.278  13.064
 1150W        W62516  30.444  44.846   1.753
 1151W        W62517  28.070  31.911   3.379
 1152W        W62518  40.338  10.692  12.344
 1153W        W62519  20.095  14.702   1.234
 1154W        W62520   9.174  23.159  14.414
 1155W        W62521  28.008  15.742   1.233
 1156W        W62522  10.206  10.740  12.517
 1157W        W62523  29.455   6.282   0.335
 1158W        W62524  26.576  10.138   2.182
 1159W        W62525  39.884   4.302  11.042
 1160W        W62526  31.554   2.812  11.128
 1161W        W62527  26.956  44.940  11.437
 1162W        W62528  19.208  23.075   2.340
 1163W        W62529  42.837   6.363  13.493
 1164W        W62530  26.004  43.983   0.788
 1165W        W62531  42.956  34.060  12.364
 1166W        W62532  33.048   0.763  13.922
 1167W        W62533  36.050   8.698   1.280
 1168W        W62534   6.200  33.062   1.877
 1169W        W62535   4.893   2.752   4.730
 1170W        W62536  10.187   8.292  10.964
 1171W        W62537  20.567  25.627   1.279
 1172W        W62538  11.127  27.567  13.803
 1173W        W62539  20.189  40.398   1.843
 1174W        W62540  41.340  32.618  13.987
 1175W        W62541  38.514  21.644   3.692
 1176W        W62542  41.980  27.083   4.205
 1177W        W62543   5.373  29.598  11.926
 1178W        W62544  42.310   4.724   1.242
 1179W        W62545  23.511  20.071   3.385
 1180W        W62546  10.242   9.791   4.614
 1181W        W62547  17.206  38.855   4.783
 1182W        W62548  39.998  38.928   2.809
 1183W        W62549  39.894  33.047   0.857
 1184W        W62550  22.684  33.478  11.091
 1185W        W62551   7.751  13.119   3.780
 1186W        W62552  36.960   3.895  11.527
 1187W        W62553  35.956   0.804  12.502
 1188W        W62554  21.607  10.861   4.759
 1189W        W62555   5.750   9.886   3.795
 1190W        W62556   9.189   5.882  11.005
 1191W        W62557  26.628   6.811  10.631
 1192W        W62558  36.490  23.088  14.775
 1193W        W62559  43.931  21.689  13.798
 1194W        W62560  15.103  33.573  12.827
 1195W        W62561  34.549  10.816  11.436
 1196W        W62562  44.420  32.601   2.258
 1197W        W62563  34.047  37.388  10.001
 1198W        W62564   2.265  12.650  12.047
 1199W        W62565   5.864  15.581  12.572
 1200W        W62566  13.221  43.382  12.350
 1201W        W62567  34.486   5.244   4.681
 1202W        W62568  30.027  32.501  10.616
 1203W        W62569  34.534  21.160  10.134
 1204W        W62570  21.551  24.547  13.019
 1205W        W62571   6.765  18.783   4.177
 1206W        W62572   5.434  12.636   3.861
 1207W        W62573  35.915  40.394  14.928
 1208W        W62574  32.512   0.910   4.229
 1209W        W62575  31.911  12.821  10.971
 1210W        W62576   3.807  23.604   4.663
 1211W        W62577  21.653  39.535  11.058
 1212W        W62578   9.340  41.798   0.964
 1213W        W62579  42.977   1.890   0.784
 1214W        W62580  44.461   1.330   2.815
 1215W        W62581  19.117  27.022  11.945
 1216W        W62582  36.347  36.027   1.239
 1217W        W62583  22.506   0.861  11.559
 1218W        W62584   0.441   2.798   4.297
 1219W        W62585  40.889  25.662   1.331
 1220W        W62586   3.244  21.745  12.466
 1221W        W62587  27.157  39.981   2.371
 1222W        W62588  16.203  32.898  13.791
 1223W        W62589  32.931   9.297  14.325
 1224W        W62590   5.422  41.987   4.240
 1225W        W62591  23.235   0.445   3.720
 1226W        W62592  20.265  21.117   9.923
 1227W        W62593  37.944  26.988  14.889
 1228W        W62594  12.261  32.989  12.577
 1229W        W62595  28.592  43.470   4.206
 1230W        W62596  15.820   4.288  13.960
 1231W        W62597  42.016  44.411   5.123
 1232W        W62598  11.295  39.989  10.943
 1233W        W62599  41.036  36.974  10.566
 1234W        W62600  14.299   0.440  10.445
 1235W        W62601  34.993  21.074  11.426
 1236W        W62602  10.367  27.658   9.945
 1237W        W62603  18.700  24.048   1.230
 1238W        W62604  30.415  29.919   0.875
 1239W        W62605   2.744   7.189   3.644
 1240W        W62606  32.463  41.823   3.320
 1241W        W62607  34.471  36.517   4.711
 1242W        W62608   6.863  37.860  12.061
 1243W        W62609  21.111  24.170   1.314
 1244W        W62610  11.786  37.895   1.779
 1245W        W62611   1.852  23.534   0.336
 1246W        W62612  37.945  42.008  11.053
 1247W        W62613  36.990  11.814  12.038
 1248W        W62614  27.160  21.030  12.879
 1249W        W62615  10.243  32.511  12.871
 1250W        W62616  34.494  42.471  11.565
 1251W        W62617   3.818  34.110  10.609
 1252W        W62618  27.094  32.634   0.263
 1253W        W62619  14.686  16.656  14.843
 1254W        W62620  24.525  38.339  14.510
 1255W        W62621   4.728  44.800  10.991
 1256W        W62622  13.759  17.756   0.254
 1257W        W62623  31.038   2.830  11.100
 1258W        W62624  34.464  38.374  12.091
 1259W        W62625  21.732  27.607  13.333
 1260W        W62626  16.576  41.515   1.366
 1261W        W62627  38.897  41.437  11.124
 1262W        W62628  27.024   8.816   2.220
 1263W        W62629  32.101  29.569   0.792
 1264W        W62630  35.919  11.133   3.206
 1265W        W62631  28.472  30.918  11.435
 1266W        W62632  34.970   4.876   4.344
 1267W        W62633  11.254   3.924   3.189
 1268W        W62634  41.956  26.990  13.049
 1269W        W62635  43.511   4.713   4.214
 1270W        W62636   8.696  20.722  10.918
 1271W        W62637  11.654  41.985   1.228
 1272W        W62638   0.373  34.476   2.368
 1273W        W62639  27.467  37.572  14.433
 1274W        W62640   7.274   5.739   1.756
 1275W        W62641  24.710  10.766  10.944
 1276W        W62642  25.592  38.933  13.411
 1277W        W62643  23.673  14.140  14.967
 1278W        W62644  23.660   7.699   5.101
 1279W        W62645   1.968  40.373   3.298
 1280W        W62646  10.291   9.671  14.473
 1281W        W62647  14.589  34.440  13.438
 1282W        W62648  24.051  26.058   2.263
 1283W        W62649  39.888  36.939   3.863
 1284W        W62650   6.388  24.646   3.829
 1285W        W62651   3.887  42.918  13.531
 1286W        W62652  11.777  14.718   2.820
 1287W        W62653  37.831  31.095  11.533
 1288W        W62654   5.764  23.727   0.352
 1289W        W62655  25.095  31.468   4.708
 1290W        W62656  44.420  21.055   4.731
 1291W        W62657   0.390  37.850   1.358
 1292W        W62658  18.106  40.015  11.035
 1293W        W62659  18.172  39.063  14.950
 1294W        W62660  22.529   7.714  12.469
 1295W        W62661   1.441   5.740   0.278
 1296W        W62662  34.520   0.863  12.986
 1297W        W62663  19.719  22.012   3.295
 1298W        W62664  16.691  38.868   4.684
 1299W        W62665   5.362  18.665   3.182
 1300W        W62666  38.985  43.897  13.437
 1301W        W62667  29.168  24.113   0.937
 1302W        W62668  15.137  26.016   2.300
 1303W        W62669  19.250   8.172  12.853
 1304W        W62670  30.642  43.459   1.864
 1305W        W62671  24.218  10.306  12.838
 1306W        W62672  42.343  28.119  13.379
 1307W        W62673  22.712  33.406   3.797
 1308W        W62674   1.832  21.191   3.379
 1309W        W62675  28.976  16.109   1.393
 1310W        W62676  43.793  21.087   2.380
 1311W        W62677  15.268  28.930   4.323
 1312W        W62678  23.681   6.850  10.139
 1313W        W62679  20.225  31.007  13.435
 1314W        W62680  14.830   8.796   3.191
 1315W        W62681  26.024  39.940   2.418
 1316W        W62682  25.696  21.683   1.741
 1317W        W62683   1.367  13.127  14.870
 1318W        W62684   8.307  16.242   1.410
 1319W        W62685  33.965  28.479   1.799
 1320W        W62686  20.218  27.997   1.870
 1321W        W62687  27.180  30.586   3.648
 1322W        W62688  41.034   7.334  10.607
 1323W        W62689  38.068  12.845   0.272
 1324W        W62690   5.753  20.768  12.565
 1325W        W62691  36.522  13.846   0.261
 1326W        W62692  36.352  19.620   3.718
 1327W        W62693  32.008  44.759  13.795
 1328W        W62694  10.375  27.448   2.734
 1329W        W62695   8.272  25.962   1.297
 1330W        W62696  23.993  16.566  13.420
 1331W        W62697  22.550  38.893   5.200
 1332W        W62698  31.533  19.261   4.831
 1333W        W62699  37.944   3.456  13.953
 1334W        W62700  19.179  37.919  12.466
 1335W        W62701  26.621  31.577  12.073
 1336W        W62702   0.340  44.426  14.765
 1337W        W62703   7.839  18.692   1.417
 1338W        W62704   5.278  13.191   1.261
 1339W        W62705  15.777  39.887   5.200
 1340W        W62706   3.321  17.191  12.918
 1341W        W62707  15.676  34.072  11.884
 1342W        W62708  11.210  44.811   4.286
 1343W        W62709   2.291  32.077  14.814
 1344W        W62710   7.909  18.590  11.067
 1345W        W62711   6.371   8.860   2.209
 1346W        W62712   2.956  16.729   4.639
 1347W        W62713  24.150   6.255   2.691
 1348W        W62714  14.101  17.588  10.994
 1349W        W62715  32.593  12.324  14.987
 1350W        W62716   7.179  25.035   2.802
 1351W        W62717  28.498  41.364  10.499
 1352W        W62718  34.605   7.268   2.269
 1353W        W62719  16.600  35.417  14.921
 1354W        W62720  10.142  43.975  10.468
 1355W        W62721  36.490  24.665   4.115
 1356W        W62722  44.826  41.527  10.555
 1357W        W62723  17.619   0.327  14.371
 1358W        W62724  16.696  15.294  10.930
 1359W        W62725  32.950  26.148  13.356
 1360W        W62726  28.630  19.702   9.935
 1361W        W62727   3.897  18.167  13.500
 1362W        W62728  42.495  33.411   0.336
 1363W        W62729  14.679  16.804   2.701
 1364W        W62730  39.395  18.554   1.803
 1365W        W62731  31.014  20.257   1.867
 1366W        W62732  30.597   2.418   2.399
 1367W        W62733  15.664  38.482   3.639
 1368W        W62734  15.213  26.967  12.448
 1369W        W62735  28.941  23.644  10.567
 1370W        W62736   0.832  35.597   1.755
 1371W        W62737  43.459  39.928  11.473
 1372W        W62738  43.837  10.323  12.532
 1373W        W62739  34.544  17.794   1.861
 1374W        W62740  44.912  34.420  14.480
 1375W        W62741  10.178  28.630   4.608
 1376W        W62742   8.795  10.345  11.375
 1377W        W62743  30.113  35.530  14.394
 1378W        W62744  15.325   2.394  10.419
 1379W        W62745  39.839   7.254  14.031
 1380W        W62746  18.175  34.087   5.236
 1381W        W62747  36.481  11.673   1.904
 1382W        W62748  44.444   6.363   2.839
 1383W        W62749  16.673  12.654   4.768
 1384W        W62750  39.317  36.350  13.994
 1385W        W62751  19.223  26.668   2.228
 1386W        W62752  43.792  31.620   3.269
 1387W        W62753   9.229   5.336   9.544
 1388W        W62754  21.130  39.995  11.947
 1389W        W62755  18.599  14.676   0.787
 1390W        W62756  15.104  25.099  12.877
 1391W        W62757  16.596  44.482  10.580
 1392W        W62758  40.462  32.441   4.227
 1393W        W62759  30.639  18.579  10.996
 1394W        W62760  42.491  25.122  14.332
 1395W        W62761  40.980  38.928   0.836
 1396W        W62762  19.180   0.756  14.378
 1397W        W62763  21.139  34.553   0.432
 1398W        W62764  10.246  24.640  13.809
 1399W        W62765  30.502  40.393  13.359
 1400W        W62766  44.403  21.569   3.191
 1401W        W62767  35.574  34.961  12.521
 1402W        W62768   1.296  39.899  13.442
 1403W        W62769  36.911  44.989   1.252
 1404W        W62770  10.157   3.251  11.566
 1405W        W62771  17.166  32.476   0.914
 1406W        W62772  28.489  13.677  13.916
 1407W        W62773   0.296  39.436  11.030
 1408W        W62774  34.539   8.217   1.314
 1409W        W62775  30.455  32.540   2.337
 1410W        W62776  19.220  34.894  14.884
 1411W        W62777  10.323  36.458  12.910
 1412W        W62778   9.728  43.934  14.365
 1413W        W62779  10.780  40.405   0.436
 1414W        W62780  19.590  39.915   1.893
 1415W        W62781  22.062   6.265   0.886
 1416W        W62782   5.698  16.702  14.459
 1417W        W62783  35.882  30.042   1.819
 1418W        W62784   8.744  14.725  13.316
 1419W        W62785   1.827  32.983  11.382
 1420W        W62786  25.529  44.772   4.775
 1421W        W62787   7.806  20.704   2.219
 1422W        W62788  20.251  15.750   2.266
 1423W        W62789  33.920  18.124   0.955
 1424W        W62790  21.243  26.955   4.715
 1425W        W62791  11.763   6.307   5.307
 1426W        W62792  30.648  34.431  14.372
 1427W        W62793  10.686  14.706  10.434
 1428W        W62794  23.116   5.381  14.277
 1429W        W62795  28.615  15.148   4.114
 1430W        W62796  14.615   3.355  12.912
 1431W        W62797  17.561  23.595   0.370
 1432W        W62798  17.286  22.619  10.454
 1433W        W62799  11.732  20.534   0.744
 1434W        W62800  43.284  35.077   3.735
 1435W        W62801  42.004  13.766   4.702
 1436W        W62802  37.984  17.141   2.196
 1437W        W62803  21.616  13.107  12.832
 1438W        W62804   2.815  44.342   3.807
 1439W        W62805  35.960  15.148   3.261
 1440W        W62806  28.930  10.815   0.771
 1441W        W62807  42.380  26.045  12.948
 1442W        W62808  36.996  36.039  12.513
 1443W        W62809  43.368  28.505   2.857
 1444W        W62810  27.145  16.604  12.083
 1445W        W62811  19.741  36.903   3.677
 1446W        W62812  11.629  10.241   1.731
 1447W        W62813  15.718  29.960  12.004
 1448W        W62814   2.337  23.048  10.940
 1449W        W62815  41.921  39.493   0.268
 1450W        W62816  39.548  30.013  14.976
 1451W        W62817  15.121  37.354   0.313
 1452W        W62818  14.287  35.027   5.261
 1453W        W62819  42.785  34.895   1.334
 1454W        W62820  30.921  15.767   4.712
 1455W        W62821  42.500  29.951   3.785
 1456W        W62822  11.201  12.855  13.359
 1457W        W62823  32.952   7.413   1.244
 1458W        W62824  19.149  11.803  12.357
 1459W        W62825  18.697  44.385   4.119
 1460W        W62826  14.623  13.325  14.763
 1461W        W62827  42.294  33.405   3.819
 1462W        W62828  26.069  42.979   5.170
 1463W        W62829  32.429  23.649  11.923
 1464W        W62830  34.061  42.954   1.427
 1465W        W62831  32.583  41.430   2.801
 1466W        W62832  37.860   4.783  13.474
 1467W        W62833   2.793  13.301   1.253
 1468W        W62834  30.065  17.659   9.523
 1469W        W62835  22.081  28.546   1.848
 1470W        W62836   8.189  11.645   2.185
 1471W        W62837   3.767  24.622   2.254
 1472W        W62838  23.517  41.317  12.861
 1473W        W62839  29.045   0.254   3.330
 1474W        W62840  10.155  40.993  13.064
 1475W        W62841  22.721  17.641  12.045
 1476W        W62842  30.955  29.528   4.715
 1477W        W62843  10.368  40.392   3.725
 1478W        W62844  12.730  23.133   3.156
 1479W        W62845  10.275   2.299   3.295
 1480W        W62846  44.277  20.752  10.160
 1481W        W62847   9.857  28.955  11.479
 1482W        W62848  27.053  35.399  14.943
 1483W        W62849  13.304  40.344   4.272
 1484W        W62850  31.575  26.095   4.644
 1485W        W62851  35.504   2.946  10.944
 1486W        W62852   7.274   1.304  14.003
 1487W        W62853  31.504  34.393  11.496
 1488W        W62854  42.987  14.736  13.473
 1489W        W62855   2.281  38.534  11.371
 1490W        W62856   2.812  19.247   3.194
 1491W        W62857  20.644  29.536  14.025
 1492W        W62858   4.729  42.320  11.125
 1493W        W62859   0.982  29.970   1.376
 1494W        W62860   8.828   8.683   3.836
 1495W        W62861  42.440  24.553  10.568
 1496W        W62862   9.215  11.744  10.977
 1497W        W62863  31.445  12.753   3.229
 1498W        W62864  28.096  37.043  14.910
 1499W        W62865  42.324  29.077  11.982
 1500W        W62866  26.165   4.884  10.144
 1501W        W62867  31.969  21.249  13.449
 1502W        W62868  28.675   3.433   2.215
 1503W        W62869  37.375  13.732   2.671
 1504W        W62870  20.264  37.943   3.360
 1505W        W62871  11.248  18.568  13.926
 1506W        W62872  19.265  30.939   4.617
 1507W        W62873   8.834   3.412   1.929
 1508W        W62874  39.898  17.717  13.831
 1509W        W62875  44.947  29.620   3.278
 1510W        W62876  21.153   4.388  10.014
 1511W        W62877  39.508  28.655   0.242
 1512W        W62878  43.501   7.744  12.517
 1513W        W62879  24.133  16.755  14.001
 1514W        W62880  11.200  42.393  13.950
 1515W        W62881  32.557   5.839   4.631
 1516W        W62882   6.234  11.749   5.199
 1517W        W62883  22.243   2.896   1.878
 1518W        W62884   9.753   6.881  12.566
 1519W        W62885   7.705   5.435   1.911
 1520W        W62886  19.654  41.921   0.288
 1521W        W62887  12.766  17.065   4.333
 1522W        W62888  22.686  11.315  14.862
 1523W        W62889   0.784  21.110   1.871
 1524W        W62890  29.527  42.854  12.839
 1525W        W62891  16.574  43.771  11.571
 1526W        W62892   6.423  16.212   3.202
 1527W        W62893   6.895  43.490  10.547
 1528W        W62894  12.200  29.541   0.330
 1529W        W62895  22.652  12.252  10.617
 1530W        W62896  29.057  33.995  13.331
 1531W        W62897  21.259  38.966   1.744
 1532W        W62898   0.263  32.585  11.451
 1533W        W62899  13.639  17.716  13.403
 1534W        W62900  18.136   1.801   3.150
 1535W        W62901  11.363   2.906   3.649
 1536W        W62902   9.295   4.219  12.024
 1537W        W62903   9.796  11.865  11.580
 1538W        W62904  36.519  19.198   3.227
 1539W        W62905   0.974   9.850   4.652
 1540W        W62906  31.520   5.355  13.929
 1541W        W62907  39.871  16.140  11.505
 1542W        W62908  19.249  30.496  11.587
 1543W        W62909  17.795  39.539   3.282
 1544W        W62910  40.870  44.967   4.247
 1545W        W62911  19.279  22.123  13.376
 1546W        W62912  13.277  36.492  12.539
 1547W        W62913   6.905  27.488   3.821
 1548W        W62914  34.056  29.644  13.544
 1549W        W62915   1.349  15.234  14.821
 1550W        W62916  27.491  23.659   4.756
 1551W        W62917  33.927   1.254  11.552
 1552W        W62918  36.364   8.761  13.344
 1553W        W62919  33.916  33.549   3.317
 1554W        W62920  44.260  44.294   4.710
 1555W        W62921  17.770  18.730  14.937
 1556W        W62922  42.030  35.065  14.937
 1557W        W62923  21.530  24.082  14.476
 1558W        W62924   7.206  25.202   1.358
 1559W        W62925  41.906  13.344   4.756
 1560W        W62926  27.160   6.829  13.920
 1561W        W62927  23.510  39.039  14.886
 1562W        W62928   9.224  11.195   2.888
 1563W        W62929  32.104  27.958  14.847
 1564W        W62930  39.816   3.297  10.059
 1565W        W62931  41.865   7.716  13.824
 1566W        W62932  27.511   9.752  12.516
 1567W        W62933  22.060  20.116  10.432
 1568W        W62934  43.359  43.882   0.912
 1569W        W62935  13.298  22.239  13.808
 1570W        W62936   3.950  39.493   4.665
 1571W        W62937  38.878  41.960   0.889
 1572W        W62938   3.752  31.531   1.799
 1573W        W62939  35.943  35.419   3.249
 1574W        W62940  17.667  27.690   4.819
 1575W        W62941  28.075  35.048  10.439
 1576W        W62942  21.228  10.201  12.462
 1577W        W62943   5.791   2.783  10.914
 1578W        W62944  22.579  26.680  10.638
 1579W        W62945  42.931   3.328   3.678
 1580W        W62946  26.503   7.859  13.347
 1581W        W62947  41.473  31.527   1.270
 1582W        W62948   0.282  28.475   2.298
 1583W        W62949  32.898  30.915  14.311
 1584W        W62950  40.853  30.511  13.465
 1585W        W62951  11.711  15.677  14.852
 1586W        W62952  20.102   8.835  13.992
 1587W        W62953  34.587   7.739   0.472
 1588W        W62954  29.563  36.864   0.939
 1589W        W62955  18.773  12.788  12.952
 1590W        W62956   5.377  44.419   4.281
 1591W        W62957  39.055  23.124  14.929
 1592W        W62958  22.630  19.166  11.069
 1593W        W62959  30.982  15.318   0.734
 1594W        W62960  22.232  20.720  13.957
 1595W        W62961   9.221  24.207  11.866
 1596W        W62962  30.413  25.159  14.408
 1597W        W62963  43.808  30.575   1.304
 1598W        W62964  29.587  36.569  13.507
 1599W        W62965   6.842  43.366   4.303
 1600W        W62966  38.392   4.885  14.490
 1601W        W62967  24.695   8.189   4.192
 1602W        W62968  25.600  36.954   0.875
 1603W        W62969  37.408  13.692  12.480
 1604W        W62970  21.695  35.892   3.308
 1605W        W62971  16.086  33.979   5.236
 1606W        W62972   2.941  16.714   2.350
 1607W        W62973  11.206  35.459  12.563
 1608W        W62974   4.372  16.681  12.351
 1609W        W62975  16.687  12.205  14.441
 1610W        W62976  16.169  22.102   4.287
 1611W        W62977  38.552  43.767   3.856
 1612W        W62978  40.022  43.842   0.787
 1613W        W62979  27.022  17.568   3.712
 1614W        W62980  23.230  23.536   4.271
 1615W        W62981  14.316  15.578   0.759
 1616W        W62982   8.379  42.396   3.192
 1617W        W62983   6.828  11.829  14.028
 1618W        W62984  10.230  24.648   2.762
 1619W        W62985  12.630  34.924   0.961
 1620W        W62986  20.138  34.869  11.589
 1621W        W62987   8.823  23.684   2.201
 1622W        W62988  17.753   1.777  12.481
 1623W        W62989  30.921   6.794  13.038
 1624W        W62990  11.138  27.059  12.897
 1625W        W62991  26.679  30.514   0.291
 1626W        W62992  25.478  34.022   3.239
 1627W        W62993  27.532  36.409  12.873
 1628W        W62994  20.750  25.042   0.362
 1629W        W62995  20.052  24.165  10.602
 1630W        W62996   7.846  21.234   2.269
 1631W        W62997  26.673  19.134   2.366
 1632W        W62998  11.205  39.956  12.829
 1633W        W62999  40.033  18.061  13.332
 1634W        W63000  23.628  30.031   1.349
 1635W        W63001   5.848   2.836   1.700
 1636W        W63002  29.475  27.037  12.526
 1637W        W63003  16.572  32.940   3.213
 1638W        W63004  40.827  31.953  10.892
 1639W        W63005   9.807  13.292  13.992
 1640W        W63006  11.277  34.945   3.661
 1641W        W63007  34.906  18.695  14.919
 1642W        W63008   1.948   7.235  10.595
 1643W        W63009   7.201   9.856   3.361
 1644W        W63010  18.666  38.011  11.991
 1645W        W63011   8.355  24.209  11.537
 1646W        W63012   1.972   8.875   0.834
 1647W        W63013   1.406  44.363   4.670
 1648W        W63014  18.613  30.966  10.461
 1649W        W63015  33.055  12.658  13.027
 1650W        W63016  43.007  11.741  12.946
 1651W        W63017   7.689  25.648  12.459
 1652W        W63018  39.047  39.907  14.814
 1653W        W63019  43.433  39.524   4.270
 1654W        W63020  40.516   5.836   4.683
 1655W        W63021  11.327  40.911   4.657
 1656W        W63022  30.606  29.580  14.361
 1657W        W63023  18.550  38.361   1.327
 1658W        W63024  35.398   3.798   1.916
 1659W        W63025  43.445  32.585   0.483
 1660W        W63026   0.971  31.432   3.335
 1661W        W63027  19.155  34.483  14.295
 1662W        W63028  32.093  33.464  12.440
 1663W        W63029  43.417  35.388  13.928
 1664W        W63030  37.460   7.716   3.808
 1665W        W63031  21.233  22.090   2.241
 1666W        W63032  26.190  44.797  11.019
 1667W        W63033  23.037  43.872   2.239
 1668W        W63034  15.267  25.496   1.301
 1669W        W63035  19.278  34.075  10.455
 1670W        W63036  27.530   5.895   2.342
 1671W        W63037  34.087  44.960  13.053
 1672W        W63038  21.633   4.774  13.500
 1673W        W63039   6.788  20.745  14.292
 1674W        W63040  34.549  35.560  12.056
 1675W        W63041  36.009   3.932   2.685
 1676W        W63042  43.350  44.436  13.333
 1677W        W63043   2.226   3.736   4.324
 1678W        W63044  32.036  35.064  14.802
 1679W        W63045  14.114  41.948   0.939
 1680W        W63046  40.016  42.892   2.370
 1681W        W63047   5.264  22.111  12.393
 1682W        W63048   5.874  26.573   0.249
 1683W        W63049  24.178   1.413  12.045
 1684W        W63050  21.042  19.230   0.824
 1685W        W63051  44.401   0.392  11.128
 1686W        W63052  24.640  15.239   4.723
 1687W        W63053  37.535  28.133   4.293
 1688W        W63054   2.771  43.514  13.315
 1689W        W63055  22.128   1.433  12.483
 1690W        W63056  32.465  27.600  14.976
 1691W        W63057  13.329  36.842  12.022
 1692W        W63058  10.184  28.140  11.891
 1693W        W63059  38.469  40.992  14.360
 1694W        W63060   2.300  37.964   3.284
 1695W        W63061  22.191  23.517  11.912
 1696W        W63062   2.265  43.892  11.418
 1697W        W63063  42.405   3.716   2.191
 1698W        W63064  11.328  16.264  13.943
 1699W        W63065  24.487   6.184   9.933
 1700W        W63066  13.656  23.220   3.801
 1701W        W63067  21.207  21.569  12.487
 1702W        W63068  10.752  22.058  11.044
 1703W        W63069  41.490  39.508  10.630
 1704W        W63070  28.052  41.427   2.871
 1705W        W63071  36.416  15.601  11.521
 1706W        W63072  11.163  35.982  14.356
 1707W        W63073  27.462  39.047   1.301
 1708W        W63074  13.707   1.330  12.408
 1709W        W63075  14.207   0.787  12.399
 1710W        W63076  42.376  27.578  11.586
 1711W        W63077   9.297  40.904   2.722
 1712W        W63078  18.696  11.178   0.947
 1713W        W63079  15.611  33.438  12.002
 1714W        W63080  32.915   0.292   2.318
 1715W        W63081  21.607  24.055   3.848
 1716W        W63082   0.936  12.196   1.380
 1717W        W63083  24.149   1.250   2.894
 1718W        W63084  37.457   2.952  10.918
 1719W        W63085  43.841  21.712  11.560
 1720W        W63086  18.078   2.372   3.795
 1721W        W63087  33.984  33.128  13.532
 1722W        W63088  12.804   0.914   1.285
 1723W        W63089   2.374  39.917   1.698
 1724W        W63090   6.813   6.870  10.532
 1725W        W63091  18.766  17.577   1.278
 1726W        W63092   2.735  14.269   1.934
 1727W        W63093   0.790  33.487   3.265
 1728W        W63094   9.242  10.183  13.393
 1729W        W63095  32.505   5.888   1.866
 1730W        W63096  41.901  43.461   4.210
 1731W        W63097  24.590  31.612  11.372
 1732W        W63098  27.533  41.346   3.824
 1733W        W63099   7.802  27.083  10.636
 1734W        W63100  39.474  34.103  11.532
 1735W        W63101  13.266  23.631   1.746
 1736W        W63102   0.926  13.329  13.398
 1737W        W63103   3.296   2.230   2.258
 1738W        W63104  31.972  33.977  11.581
 1739W        W63105  10.243  16.088   4.171
 1740W        W63106   1.899   6.767  14.028
 1741W        W63107  36.885  16.787  12.429
 1742W        W63108   9.827  19.711  12.454
 1743W        W63109  31.992   3.411   4.603
 1744W        W63110  26.506  24.085  11.386
 1745W        W63111  15.593  38.467  10.942
 1746W        W63112  21.694  25.012  12.021
 1747W        W63113   3.829   6.718   3.835
 1748W        W63114   5.891  36.879   4.231
 1749W        W63115  30.913   8.175  11.127
 1750W        W63116  17.702  19.643   0.345
 1751W        W63117  16.241  33.933  12.437
 1752W        W63118   2.835  32.969  13.359
 1753W        W63119  22.177  32.471  14.345
 1754W        W63120  17.118   6.189  12.826
 1755W        W63121  17.754  25.539   2.206
 1756W        W63122  36.953  36.909   4.648
 1757W        W63123  16.753  10.173   0.389
 1758W        W63124  15.788  42.879  10.581
 1759W        W63125   8.400  44.812   0.937
 1760W        W63126  16.633  18.161  10.067
 1761W        W63127  21.688  25.568   2.699
 1762W        W63128  28.134  15.194   1.325
 1763W        W63129  16.736  20.106   4.835
 1764W        W63130  19.578  14.793   3.255
 1765W        W63131  26.089  30.048  14.778
 1766W        W63132  24.570  25.196  13.854
 1767W        W63133  44.367  42.502  11.505
 1768W        W63134  42.961  40.819   4.697
 1769W        W63135  25.689  21.591  12.863
 1770W        W63136  10.830  15.092   0.444
 1771W        W63137   1.884  17.199   3.162
 1772W        W63138  27.142  36.008  12.030
 1773W        W63139  20.618  25.126  11.482
 1774W        W63140  11.234  13.282  14.362
 1775W        W63141  10.802  20.762   4.700
 1776W        W63142  42.394   3.323   1.801
 1777W        W63143   9.179  42.520  13.509
 1778W        W63144  16.080   1.866   4.213
 1779W        W63145  30.048  38.837  11.479
 1780W        W63146   5.751  17.263   2.324
 1781W        W63147  18.196  14.215  14.373
 1782W        W63148  40.852  26.144  11.014
 1783W        W63149  14.674   1.320  14.948
 1784W        W63150   0.344  11.866  13.933
 1785W        W63151  37.975  42.290  12.036
 1786W        W63152  35.420   7.234  11.942
 1787W        W63153  23.645  20.671   3.368
 1788W        W63154   1.919   8.656   4.709
 1789W        W63155  31.571  11.773   2.827
 1790W        W63156   6.346  26.690   4.616
 1791W        W63157   4.408  32.560  13.832
 1792W        W63158  36.361  43.358   4.838
 1793W        W63159  28.593   9.158  10.424
 1794W        W63160  13.304   7.304  10.414
 1795W        W63161  17.094  26.668  13.870
 1796W        W63162  43.887  33.892  14.390
 1797W        W63163  30.608  17.243  12.998
 1798W        W63164  10.778  22.652   0.347
 1799W        W63165   8.775  12.641   1.230
 1800W        W63166  23.584  24.136   2.322
 1801W        W63167  18.108  26.147   2.310
 1802W        W63168  16.628  39.861  10.416
 1803W        W63169  41.444  19.737   1.852
 1804W        W63170   9.281  33.016   3.805
 1805W        W63171  15.706  41.510  13.445
 1806W        W63172  14.716   7.232  10.055
 1807W        W63173  19.042  40.861   3.764
 1808W        W63174  21.195  30.587   4.152
 1809W        W63175   9.710  15.141   1.310
 1810W        W63176  15.141  38.464   0.318
 1811W        W63177  18.783   7.729  13.368
 1812W        W63178  37.904   8.337  14.368
 1813W        W63179  11.253   8.711   2.786
 1814W        W63180  40.938   7.670   3.286
 1815W        W63181  21.040  12.210   2.839
 1816W        W63182  22.097  14.647  12.348
 1817W        W63183  17.260  42.980   0.349
 1818W        W63184  31.562  28.981   3.835
 1819W        W63185  39.934  39.891  11.949
 1820W        W63186  26.087   6.263  12.408
 1821W        W63187  21.607  29.167   4.749
 1822W        W63188  12.640  21.613   0.775
 1823W        W63189  39.017  31.477   0.405
 1824W        W63190   6.729  39.328  10.489
 1825W        W63191  39.021  17.203  12.081
 1826W        W63192  30.116   6.324  13.346
 1827W        W63193  38.846  36.064   3.706
 1828W        W63194  39.941   1.251  11.400
 1829W        W63195   1.399  14.191   1.291
 1830W        W63196   1.405  35.085  12.482
 1831W        W63197  33.506  29.046  11.047
 1832W        W63198   9.732  35.108   0.834
 1833W        W63199  41.360  41.013   3.745
 1834W        W63200   9.364   7.849  13.317
 1835W        W63201  21.532  18.270  14.472
 1836W        W63202   7.890   1.946  14.818
 1837W        W63203  20.680  37.050  11.554
 1838W        W63204  28.553  11.369   4.678
 1839W        W63205  36.926   5.788   4.796
 1840W        W63206  35.883  21.598  13.405
 1841W        W63207   6.759  25.102   0.958
 1842W        W63208  29.158  36.860  12.563
 1843W        W63209   3.753  38.541   0.816
 1844W        W63210   0.263  33.430  11.544
 1845W        W63211  29.481   7.232  13.978
 1846W        W63212  14.604   1.450  12.376
 1847W        W63213  29.128   3.793   2.896
 1848W        W63214   2.246  19.271   3.852
 1849W        W63215  25.685  21.590   3.738
 1850W        W63216   0.981  10.789  13.965
 1851W        W63217  13.333  21.688   2.325
 1852W        W63218  37.359   9.376   0.271
 1853W        W63219  21.131  21.055   2.303
 1854W        W63220   0.930  15.260   2.890
 1855W        W63221  33.050   6.310  13.906
 1856W        W63222  35.069  15.234   1.212
 1857W        W63223  13.641  38.827  10.551
 1858W        W63224  19.081  25.671   0.296
 1859W        W63225   9.364   4.327  12.882
 1860W        W63226  19.693  17.666   3.238
 1861W        W63227   3.849   5.211  11.491
 1862W        W63228  36.383  15.238  10.417
 1863W        W63229  21.084  29.964   4.352
 1864W        W63230  42.480  43.485  14.764
 1865W        W63231   9.382  36.872   0.902
 1866W        W63232  21.599  38.517   1.847
 1867W        W63233   6.813  44.464   2.211
 1868W        W63234  30.143  17.081   2.820
 1869W        W63235  41.318  42.401   0.930
 1870W        W63236  29.973  17.671  10.486
 1871W        W63237  37.078  23.590   1.735
 1872W        W63238  39.925  22.604  12.393
 1873W        W63239  36.945  13.716   0.952
 1874W        W63240  13.238  15.659   0.840
 1875W        W63241  29.442   8.270   1.714
 1876W        W63242  22.712  32.956  13.470
 1877W        W63243  16.668   2.454   1.741
 1878W        W63244  27.023  42.440   2.274
 1879W        W63245  19.709  15.100  14.786
 1880W        W63246  31.032  14.122   2.848
 1881W        W63247  23.177  30.623   4.625
 1882W        W63248   7.880  18.194   3.672
 1883W        W63249  43.019  16.650  13.500
 1884W        W63250  44.873  43.938   2.295
 1885W        W63251  41.335  35.596   4.212
 1886W        W63252  30.131  26.084   1.243
 1887W        W63253  43.386  31.943   4.759
 1888W        W63254  32.466   8.817   0.378
 1889W        W63255  12.801   3.758   2.391
 1890W        W63256  13.718   8.765  11.569
 1891W        W63257  42.359  43.766  12.437
 1892W        W63258  39.465  11.201   4.816
 1893W        W63259  24.604  29.084  11.883
 1894W        W63260  23.503  38.409  11.126
 1895W        W63261  12.634  25.983  12.385
 1896W        W63262  14.335  33.469   5.189
 1897W        W63263  38.448  44.881   4.618
 1898W        W63264  20.146  20.531   0.373
 1899W        W63265  26.668   2.383   3.731
 1900W        W63266  11.150   3.739   0.864
 1901W        W63267  26.201  39.005  12.410
 1902W        W63268  44.761  23.143   3.186
 1903W        W63269  42.970   8.812  13.064
 1904W        W63270  11.694  25.703   1.239
 1905W        W63271   5.279   9.194  13.531
 1906W        W63272  20.654  18.553  12.429
 1907W        W63273  34.440  25.670   0.289
 1908W        W63274  11.781   4.775  15.000
 1909W        W63275  14.835   7.808  12.541
 1910W        W63276   9.362  36.940   1.721
 1911W        W63277   1.946  18.117  12.082
 1912W        W63278  42.289   7.901   0.420
 1913W        W63279  27.471   8.317   1.270
 1914W        W63280  10.193  37.447   4.662
 1915W        W63281  30.938  42.438   3.758
 1916W        W63282  18.099  41.006  14.970
 1917W        W63283  13.201  18.169   0.749
 1918W        W63284  12.147  30.069   4.283
 1919W        W63285   7.900  29.608  12.543
 1920W        W63286  25.624   2.858   3.226
 1921W        W63287  33.960   2.821  10.593
 1922W        W63288  20.706  41.886  11.446
 1923W        W63289  24.172  36.983   1.925
 1924W        W63290  15.819  39.557   3.675
 1925W        W63291  27.562  28.571   0.817
 1926W        W63292  19.079  40.925   1.838
 1927W        W63293   4.921  13.756  10.514
 1928W        W63294  35.859  29.143  13.844
 1929W        W63295  14.332  33.384  12.560
 1930W        W63296   5.234  35.056   1.847
 1931W        W63297   4.801  33.550  14.379
 1932W        W63298  34.934  15.591  10.892
 1933W        W63299  20.073  11.695   3.286
 1934W        W63300  44.407  12.231  14.499
 1935W        W63301   0.440   0.393   0.425
 1936W        W63302  14.240  38.857  13.378
 1937W        W63303  27.617  19.537   2.258
 1938W        W63304  36.381  33.093  14.839
 1939W        W63305  28.014  17.660  12.509
 1940W        W63306  38.073  23.207   1.731
 1941W        W63307  25.194  16.811   4.829
 1942W        W63308  41.471  36.560   2.372
 1943W        W63309  41.938   3.460   2.415
 1944W        W63310   8.182  22.737   4.713
 1945W        W63311  38.048  22.667   3.329
 1946W        W63312  13.258  14.291   4.237
 1947W        W63313   5.757  37.979   3.630
 1948W        W63314  13.264  32.134   5.245
 1949W        W63315  30.939   9.809   3.167
 1950W        W63316  30.556  19.688   0.829
 1951W        W63317  44.930   1.874  11.967
 1952W        W63318  30.531   0.325  14.365
 1953W        W63319  13.297  38.365  12.386
 1954W        W63320  42.975  21.550   3.769
 1955W        W63321  42.447  18.620  12.054
 1956W        W63322  17.103  10.301   0.920
 1957W        W63323  31.501  14.206  12.929
 1958W        W63324  22.214  14.651   2.712
 1959W        W63325  38.055  34.886  14.279
 1960W        W63326  19.154  16.677  13.501
 1961W        W63327  26.688  20.044   4.206
 1962W        W63328  13.772  18.768   3.276
 1963W        W63329  36.002  26.038   4.816
 1964W        W63330  14.596  37.405   4.685
 1965W        W63331  20.663  31.579  14.351
 1966W        W63332  32.935  28.445   2.329
 1967W        W63333  16.729   8.291  10.563
 1968W        W63334  17.080  38.561  14.808
 1969W        W63335  40.497   3.412  12.419
 1970W        W63336  24.578  37.392  10.959
 1971W        W63337  17.622  37.443  13.534
 1972W        W63338  29.619  25.596  14.897
 1973W        W63339   3.423  16.654  14.941
 1974W        W63340  38.957   0.307  10.639
 1975W        W63341  24.548  35.101   2.801
 1976W        W63342  38.043  44.483  11.084
 1977W        W63343   8.367  10.340   3.680
 1978W        W63344  39.506  18.651  14.467
 1979W        W63345   9.161  16.109   3.711
 1980W        W63346  15.135  17.748  12.548
 1981W        W63347  32.622  12.655  13.001
 1982W        W63348  34.494  36.861  13.948
 1983W        W63349  31.039  20.113  14.309
 1984W        W63350  14.692   0.410   4.157
 1985W        W63351  44.335  21.214   3.278
 1986W        W63352  40.041  11.282   3.633
 1987W        W63353  41.427  16.121  14.437
 1988W        W63354  27.051  33.038   1.698
 1989W        W63355  43.900  24.724  14.467
 1990W        W63356   6.206   0.492  14.010
 1991W        W63357   7.197  13.756  14.513
 1992W        W63358  28.625   9.773   1.430
 1993W        W63359  24.022  20.737  10.548
 1994W        W63360  13.230  31.920  10.554
 1995W        W63361  44.464  25.086   4.709
 1996W        W63362  13.121  14.274  12.363
 1997W        W63363  12.645  38.916   3.303
 1998W        W63364   3.739  13.197   2.284
 1999W        W63365  30.078  23.052  11.928
 2000W        W63366   2.324  41.313  14.953
 2001W        W63367  33.481  13.756   0.403
 2002W        W63368  32.968  14.668  13.477
 2003W        W63369  16.119   9.235   0.250
 2004W        W63370   3.938  13.737   2.313
 2005W        W63371  32.470  21.609   1.894
 2006W        W63372   6.398  36.063   1.835
 2007W        W63373  21.032  35.534   0.862
 2008W        W63374  28.621  21.075   4.325
 2009W        W63375  20.205  42.938   4.693
 2010W        W63376  39.553  38.536  11.507
 2011W        W63377  34.020  39.879  13.916
 2012W        W63378  13.822  24.051  12.952
 2013W        W63379  36.067   7.905   4.190
 2014W        W63380  10.852  34.483  10.099
 2015W        W63381  11.258  34.414   2.776
 2016W        W63382  24.654  20.037  11.087
 2017W        W63383  43.873  16.241  11.107
 2018W        W63384  22.035  19.605  12.346
 2019W        W63385  16.739  44.974   0.802
 2020W        W63386  26.202   4.931  13.372
 2021W        W63387  11.719  30.522  13.950
 2022W        W63388  34.490  12.325  11.926
 2023W        W63389  22.105  44.301  12.073
 2024W        W63390   5.796  10.749  13.874
 2025W        W63391  29.018  20.177  11.576
 2026W        W63392  40.918  34.504   1.891
 2027W        W63393  14.186   7.712  11.121
 2028W        W63394  20.272  19.588   1.756
 2029W        W63395  14.709  16.610   4.672
 2030W        W63396  36.997  16.685   0.358
 2031W        W63397  26.036  15.600   1.788
 2032W        W63398  38.567  33.575  13.008
 2033W        W63399  12.159  16.251  12.371
 2034W        W63400   2.914  22.648   2.321
 2035W        W63401  39.431   5.829   4.680
 2036W        W63402   1.804   6.391  10.496
 2037W        W63403  40.359  10.169  10.904
 2038W        W63404  21.078  25.602  12.046
 2039W        W63405  27.076  19.584  12.504
 2040W        W63406  36.537  44.836   0.314
 2041W        W63407   4.316  41.401  11.598
 2042W        W63408  33.504  31.000  14.316
 2043W        W63409  32.004  43.515   1.379
 2044W        W63410  28.979   9.205   4.156
 2045W        W63411   3.880  32.915   0.928
 2046W        W63412  12.310  31.086   2.721
 2047W        W63413  33.527   5.225   2.731
 2048W        W63414  32.938  37.034  11.127
 2049W        W63415   5.783   0.928   4.311
 2050W        W63416  37.479  22.084  12.825
 2051W        W63417  43.333  27.999  10.471
 2052W        W63418   8.337  23.113   1.377
 2053W        W63419  43.329   9.193   4.207
 2054W        W63420  26.496  33.480   4.654
 2055W        W63421  39.553   8.272  11.019
 2056W        W63422  33.552  33.934   4.703
 2057W        W63423  26.971  21.664  14.806
 2058W        W63424   4.852   6.684   1.303
 2059W        W63425   5.786  35.041  11.885
 2060W        W63426  11.244  18.702  11.872
 2061W        W63427  26.460  15.181   3.221
 2062W        W63428   5.272  24.589   2.196
 2063W        W63429  15.677   1.739  12.994
 2064W        W63430  27.945  16.299  11.974
 2065W        W63431   2.728   7.760  13.803
 2066W        W63432  31.642  43.441   1.271
 2067W        W63433  19.205   9.864  14.908
 2068W        W63434   9.811  38.886  10.584
 2069W        W63435  41.485  11.751  14.421
 2070W        W63436  15.106  36.926  12.406
 2071W        W63437   0.414  43.783  11.937
 2072W        W63438  20.132   3.270  13.995
 2073W        W63439  18.739  44.348   0.811
 2074W        W63440  22.698  14.737  14.360
 2075W        W63441  18.738  14.315  12.012
 2076W        W63442  14.624   9.762   3.830
 2077W        W63443   0.482  40.947   1.213
 2078W        W63444  35.545  38.042   3.288
 2079W        W63445   5.256   5.337  14.024
 2080W        W63446  26.120  35.438  14.889
 2081W        W63447  42.415   3.453   4.669
 2082W        W63448  24.671  18.100  13.968
 2083W        W63449  31.469  10.208   1.920
 2084W        W63450  30.113   8.894   0.877
 2085W        W63451   2.916  32.621   2.179
 2086W        W63452  17.261   8.190  11.038
 2087W        W63453  24.022  40.474   1.899
 2088W        W63454  30.103  19.249  10.112
 2089W        W63455  25.477  11.863  10.925
 2090W        W63456  15.822  10.188   1.262
 2091W        W63457  29.625  44.851  12.550
 2092W        W63458  27.189  29.967   0.387
 2093W        W63459  25.647  20.750   1.297
 2094W        W63460  23.655  44.457  12.918
 2095W        W63461  15.247  24.999   4.346
 2096W        W63462   5.898   6.350  13.799
 2097W        W63463  36.496  35.063   1.859
 2098W        W63464  16.318  18.158  13.851
 2099W        W63465  28.100  10.803   2.231
 2100W        W63466  13.154   7.679  10.513
 2101W        W63467  43.427  42.360  11.935
 2102W        W63468  20.594  25.099  11.101
 2103W        W63469   4.790  27.675  12.964
 2104W        W63470  37.989   6.855   2.200
 2105W        W63471  39.403  43.862   3.246
 2106W        W63472  33.018  34.899  13.458
 2107W        W63473  23.175   5.251  12.367
 2108W        W63474   6.214  39.877  12.077
 2109W        W63475  40.844   3.405  10.541
 2110W        W63476   0.262  30.018  13.355
 2111W        W63477  36.426  14.612  11.958
 2112W        W63478  26.993  19.674  13.058
 2113W        W63479  16.783  42.841  10.951
 2114W        W63480   2.419   0.333  14.300
 2115W        W63481  30.505  35.990  13.878
 2116W        W63482  26.024   0.453   0.918
 2117W        W63483  15.288   9.865  11.512
 2118W        W63484  20.058   6.330  10.550
 2119W        W63485  12.129  21.657  12.520
 2120W        W63486  39.001  44.331  11.987
 2121W        W63487  34.915   0.291  14.403
 2122W        W63488  21.047  11.658  13.014
 2123W        W63489   7.680   7.408   2.798
 2124W        W63490  28.469   9.820  14.901
 2125W        W63491  30.507   0.882   4.784
 2126W        W63492  42.504  11.239  11.081
 2127W        W63493  15.242  40.390  10.532
 2128W        W63494  34.552   2.444   0.322
 2129W        W63495  43.010  12.292  13.364
 2130W        W63496  16.084  19.068   2.270
 2131W        W63497  36.370   7.176  14.365
 2132W        W63498  12.662  11.858  13.953
 2133W        W63499  13.105  44.334   2.294
 2134W        W63500  27.468  15.233   0.855
 2135W        W63501  22.585   2.288  14.015
 2136W        W63502  34.530  23.180   3.186
 2137W        W63503   6.743  12.351   4.305
 2138W        W63504  37.343   0.273  10.634
 2139W        W63505  41.831  32.083   1.417
 2140W        W63506   6.417  39.843  11.577
 2141W        W63507  31.626  30.654   2.864
 2142W        W63508  26.466   2.932  11.100
 2143W        W63509   4.858   4.795  14.301
 2144W        W63510  21.197  16.161   2.280
 2145W        W63511  23.721   9.744  12.404
 2146W        W63512  42.951  38.386  13.976
 2147W        W63513   7.263  37.425  13.825
 2148W        W63514   7.690   5.329   1.376
 2149W        W63515  27.636  34.451  11.002
 2150W        W63516  14.269  20.681   0.335
 2151W        W63517  28.664   3.426  13.501
 2152W        W63518  14.328   9.868  14.477
 2153W        W63519  26.700  30.112   1.228
 2154W        W63520   7.257  18.670   1.898
 2155W        W63521  42.996  24.118   3.764
 2156W        W63522  32.459  12.287  14.397
 2157W        W63523  35.104   4.378   1.449
 2158W        W63524  13.218  33.904  12.860
 2159W        W63525  22.551  32.526   0.791
 2160W        W63526  20.598  30.465  12.560
 2161W        W63527  44.429  38.861   0.741
 2162W        W63528  13.160  26.966   4.143
 2163W        W63529  13.164  26.672  14.439
 2164W        W63530  35.578   8.762  13.511
 2165W        W63531  39.854   8.366   4.148
 2166W        W63532  28.975  23.571  13.846
 2167W        W63533   6.300  18.273  12.937
 2168W        W63534  25.708  43.946  10.463
 2169W        W63535   3.424  10.775   4.301
 2170W        W63536  13.770   5.824   2.291
 2171W        W63537  14.214   4.711   3.277
 2172W        W63538  19.256  33.941   3.840
 2173W        W63539  31.042  27.055   3.653
 2174W        W63540  23.510   9.189  13.993
 2175W        W63541  25.202  36.872   3.199
 2176W        W63542  39.484   8.215  14.002
 2177W        W63543  11.647   4.717  11.874
 2178W        W63544   6.769  39.410  12.847
 2179W        W63545  32.501  33.000   1.842
 2180W        W63546  24.656  26.097  10.636
 2181W        W63547  33.103  44.406  11.869
 2182W        W63548  11.130  11.722  10.432
 2183W        W63549  25.633  10.695  14.506
 2184W        W63550  17.603  33.024   2.689
 2185W        W63551  17.249  12.750   4.298
 2186W        W63552   7.746  27.617   1.728
 2187W        W63553  16.223  13.308   3.240
 2188W        W63554   5.925  44.839  11.602
 2189W        W63555  44.270  31.000   9.457
 2190W        W63556  29.930  33.381   2.313
 2191W        W63557  34.413   9.663  10.976
 2192W        W63558   5.760   2.273  14.292
 2193W        W63559  36.454  41.899   3.285
 2194W        W63560  21.554  14.700   3.641
 2195W        W63561  21.018  32.421   0.858
 2196W        W63562  25.181  12.759  11.459
 2197W        W63563  24.511  18.292   0.321
 2198W        W63564  44.279  15.265  13.844
 2199W        W63565  38.396  38.982  10.595
 2200W        W63566  36.007  10.867   2.827
 2201W        W63567  37.067  21.693   3.204
 2202W        W63568  44.915  13.631  11.590
 2203W        W63569   5.930  21.591   0.340
 2204W        W63570  38.534  15.240  10.532
 2205W        W63571   4.351  29.607   2.252
 2206W        W63572  10.717   6.815  11.900
 2207W        W63573  23.525  43.021  10.929
 2208W        W63574   1.903  40.452  12.864
 2209W        W63575  19.621  11.831   0.317
 2210W        W63576   1.283  26.177   2.708
 2211W        W63577  13.330  27.552  13.406
 2212W        W63578  29.569  38.378  10.507
 2213W        W63579  29.504  14.194  10.416
 2214W        W63580  23.542  30.046  12.010
 2215W        W63581  35.911   4.864  13.902
 2216W        W63582   8.259   9.759  14.799
 2217W        W63583   9.688  31.599   2.247
 2218W        W63584  35.472  40.023  13.960
 2219W        W63585  12.150  44.810  13.520
 2220W        W63586  14.113   4.256   2.734
 2221W        W63587   1.414  24.649  11.100
 2222W        W63588  32.433  44.774  13.823
 2223W        W63589  14.203  21.135   5.267
 2224W        W63590  12.212  38.022  11.543
 2225W        W63591  37.075   8.826  14.863
 2226W        W63592  41.403   2.872   0.446
 2227W        W63593  17.634  14.126   0.475
 2228W        W63594  40.433  37.421   4.621
 2229W        W63595  33.410  33.886   1.264
 2230W        W63596  15.262  34.086   3.254
 2231W        W63597  12.329  42.328   2.386
 2232W        W63598  35.021  11.769   4.718
 2233W        W63599  40.535  39.466  12.097
 2234W        W63600  28.519  34.923   0.270
 2235W        W63601  15.625   1.925  10.546
 2236W        W63602  20.664  37.497  12.514
 2237W        W63603  23.080  21.679  10.584
 2238W        W63604  15.215  12.148   2.720
 2239W        W63605  23.725  21.212   1.401
 2240W        W63606   2.787  14.798  12.999
 2241W        W63607  27.469  18.121   1.860
 2242W        W63608  34.387  31.016  13.021
 2243W        W63609  17.780  15.161   0.406
 2244W        W63610  24.060  22.705   0.866
 2245W        W63611  44.901  25.064  14.346
 2246W        W63612  26.626  39.866   3.276
 2247W        W63613  21.601  29.479   2.672
 2248W        W63614   7.226   2.817  11.866
 2249W        W63615  23.539  38.343   1.720
 2250W        W63616  24.547  34.057   1.439
 2251W        W63617   5.824  10.156  13.480
 2252W        W63618   4.249  18.280   3.678
 2253W        W63619  39.858   3.422  11.863
 2254W        W63620  27.038   9.305   0.414
 2255W        W63621  35.893   2.805  11.946
 2256W        W63622  31.411  14.251   2.250
 2257W        W63623   6.418  11.643  11.081
 2258W        W63624  10.692  25.103   4.697
 2259W        W63625  12.753  43.477  11.002
 2260W        W63626  24.712  31.078  12.358
 2261W        W63627   8.182   6.286   0.874
 2262W        W63628  29.925  28.958  10.965
 2263W        W63629  26.099  33.000   0.878
 2264W        W63630  43.355   6.694   3.324
 2265W        W63631  29.150  39.004  12.048
 2266W        W63632  28.518  38.058   0.448
 2267W        W63633  35.474  27.192  14.317
 2268W        W63634  28.501  23.513   2.393
 2269W        W63635   1.734  24.483   2.693
 2270W        W63636  42.882  40.311   3.216
 2271W        W63637   2.448  18.226  13.803
 2272W        W63638  29.581  18.202  12.849
 2273W        W63639  10.372  31.954   2.842
 2274W        W63640   5.436  17.279  13.965
 2275W        W63641  44.906  12.168   4.656
 2276W        W63642  18.184  25.471  11.961
 2277W        W63643  16.100   0.879   1.330
 2278W        W63644  42.793   8.837   3.196
 2279W        W63645  23.147   1.845   5.743
 2280W        W63646  20.046   6.687  11.016
 2281W        W63647   1.356  32.099   1.847
 2282W        W63648   6.271  20.709  11.952
 2283W        W63649  13.632   3.923  10.434
 2284W        W63650  40.953  21.531  13.911
 2285W        W63651  32.933  26.117  10.626
 2286W        W63652  40.835  30.472   4.643
 2287W        W63653  17.279   2.363  12.411
 2288W        W63654  41.312  34.422  14.328
 2289W        W63655  15.589  40.459  13.474
 2290W        W63656   4.255  43.454  10.495
 2291W        W63657  18.597   7.912  10.936
 2292W        W63658  11.790  10.794   3.641
 2293W        W63659   3.917  23.687   4.125
 2294W        W63660  34.456  11.260  13.958
 2295W        W63661  23.612   2.829   1.932
 2296W        W63662  25.090   5.228   0.899
 2297W        W63663   3.918  18.170   1.400
 2298W        W63664  34.390   2.765   0.308
 2299W        W63665  33.918  33.933   4.825
 2300W        W63666  33.060  18.664  12.850
 2301W        W63667  13.664  40.392  14.919
 2302W        W63668  44.911  15.764  14.923
 2303W        W63669  21.154  16.810  12.543
 2304W        W63670  32.141  24.485   2.291
 2305W        W63671  20.161   3.930   2.288
 2306W        W63672   6.340  41.894   5.100
 2307W        W63673  12.301  14.826  13.992
 2308W        W63674  36.569   9.197   0.780
 2309W        W63675  36.899  22.995   0.299
 2310W        W63676  23.504  44.978   0.333
 2311W        W63677  26.086  12.718   0.794
 2312W        W63678  24.626  29.423  10.555
 2313W        W63679  26.460  30.054  10.410
 2314W        W63680  19.590  19.252   4.786
 2315W        W63681  10.802   8.787   4.151
 2316W        W63682  37.983   3.296   2.719
 2317W        W63683  13.768  34.466   4.271
 2318W        W63684  14.193  28.448  11.611
 2319W        W63685  33.907  10.774  11.470
 2320W        W63686   8.367   3.365  11.107
 2321W        W63687  13.618  30.040   5.595
 2322W        W63688  10.213  14.288   3.820
 2323W        W63689  27.482  13.702   4.171
 2324W        W63690   7.252  12.848  13.996
 2325W        W63691  21.151  17.257   4.273
 2326W        W63692  30.966  20.730   2.742
 2327W        W63693   5.922  17.156  13.533
 2328W        W63694  38.464  17.590   1.414
 2329W        W63695  37.063  32.974   0.323
 2330W        W63696   9.712   5.920  10.961
 2331W        W63697  40.470  23.104  12.091
 2332W        W63698   0.889  35.413  11.550
 2333W        W63699   0.789  22.730   3.310
 2334W        W63700  36.991  28.114   1.802
 2335W        W63701  40.542  19.191  12.486
 2336W        W63702  33.415  38.889   2.731
 2337W        W63703  18.162  22.718  12.079
 2338W        W63704   4.932  17.663   3.740
 2339W        W63705  27.502  31.613  12.487
 2340W        W63706   0.966  27.594   9.660
 2341W        W63707  39.490  43.800  12.863
 2342W        W63708   3.368  19.243   0.333
 2343W        W63709  10.671  12.679  10.893
 2344W        W63710  34.414  13.744   3.713
 2345W        W63711  26.523  37.511   0.467
 2346W        W63712   4.881  21.149  14.833
 2347W        W63713   3.364  26.968  10.557
 2348W        W63714  31.912  29.426   0.458
 2349W        W63715  20.244  29.587  11.506
 2350W        W63716  30.547  39.842   9.938
 2351W        W63717  43.318  39.905   5.138
 2352W        W63718  38.334  41.331  13.057
 2353W        W63719  26.976  34.523   4.645
 2354W        W63720   0.304  36.919   4.324
 2355W        W63721   4.254   7.345  12.481
 2356W        W63722  26.045  11.370  13.040
 2357W        W63723  21.068  30.455  13.470
 2358W        W63724  28.654  26.650   0.443
 2359W        W63725  22.069  21.543  11.570
 2360W        W63726  32.894  38.023  13.860
 2361W        W63727  25.613   6.701  14.999
 2362W        W63728  44.385  39.934   0.283
 2363W        W63729  24.065  36.378   0.922
 2364W        W63730   4.753  22.733   0.358
 2365W        W63731  31.634  41.328   1.841
 2366W        W63732  12.306  42.838   3.197
 2367W        W63733   1.855  37.471  12.844
 2368W        W63734   9.167  19.206  11.418
 2369W        W63735  30.999  14.256  11.449
 2370W        W63736   8.183  10.383  13.802
 2371W        W63737  10.282  32.081   4.804
 2372W        W63738  17.290  11.627   4.698
 2373W        W63739   9.298   6.709  14.959
 2374W        W63740  25.163  19.224  11.946
 2375W        W63741  12.222  35.030   1.726
 2376W        W63742  21.708  13.760  12.567
 2377W        W63743  29.491   6.833   1.896
 2378W        W63744  13.227   7.890  13.830
 2379W        W63745  18.213  38.461  11.113
 2380W        W63746   9.883  34.581   2.259
 2381W        W63747  42.916  27.056   5.238
 2382W        W63748  19.230  14.757   0.341
 2383W        W63749  20.661   6.297   0.317
 2384W        W63750  38.042  11.302  12.002
 2385W        W63751  23.215  36.591   4.326
 2386W        W63752  12.190  33.489   0.280
 2387W        W63753  31.120  40.420  12.524
 2388W        W63754  31.092  35.858   4.736
 2389W        W63755  23.242  21.728   2.836
 2390W        W63756  27.127   2.253  10.586
 2391W        W63757  34.441  42.406   5.600
 2392W        W63758  42.002  38.337   0.397
 2393W        W63759   3.749  16.173   2.877
 2394W        W63760  24.497  22.740   2.750
 2395W        W63761  15.267   6.236   4.129
 2396W        W63762  19.118  36.891   9.445
 2397W        W63763  31.548  41.418  11.084
 2398W        W63764   9.668  20.264  13.337
 2399W        W63765  40.481  41.957   4.746
 2400W        W63766   8.841  41.402   0.745
 2401W        W63767  26.516  28.681   1.288
 2402W        W63768  22.018  14.665  11.550
 2403W        W63769  17.672  17.198   2.364
 2404W        W63770  11.219  29.048  14.409
 2405W        W63771  18.753  19.723  11.094
 2406W        W63772  38.059  25.102   5.194
 2407W        W63773  16.722  13.780   3.763
 2408W        W63774  36.496  28.581  12.448
 2409W        W63775   9.242  35.370   3.715
 2410W        W63776  22.670  10.695   3.634
 2411W        W63777  40.423   9.335   0.902
 2412W        W63778  24.675   7.335  12.878
 2413W        W63779  44.409   2.403   0.790
 2414W        W63780  33.022  36.549   0.284
 2415W        W63781  11.215  27.004  14.934
 2416W        W63782  29.142  42.935   2.204
 2417W        W63783  11.178  31.428  10.147
 2418W        W63784  44.482  41.814   0.427
 2419W        W63785   7.253   2.356  14.501
 2420W        W63786  12.648  39.507  14.322
 2421W        W63787  38.376  18.731  10.527
 2422W        W63788  39.960  19.646  10.417
 2423W        W63789  13.110   9.778  13.896
 2424W        W63790  31.465  34.418  13.362
 2425W        W63791  29.498   3.242  12.553
 2426W        W63792  20.741  33.608  10.012
 2427W        W63793   4.918  12.750   1.799
 2428W        W63794  18.059  23.085  10.446
 2429W        W63795  41.357  40.815  14.924
 2430W        W63796  40.383  26.077   1.805
 2431W        W63797  30.520  27.054  11.889
 2432W        W63798   9.796   0.893  12.935
 2433W        W63799  13.330  26.549  10.022
 2434W        W63800   6.219  10.194   1.707
 2435W        W63801  29.597  29.630  12.456
 2436W        W63802  29.520  24.533   0.429
 2437W        W63803  36.911  24.130  13.894
 2438W        W63804   9.277   6.796  13.903
 2439W        W63805  24.691  26.661  11.069
 2440W        W63806   8.400  18.724  13.059
 2441W        W63807  11.285  18.714   0.335
 2442W        W63808  29.595   5.877  11.011
 2443W        W63809  19.159  42.806  13.392
 2444W        W63810  35.367  42.400  11.922
 2445W        W63811  10.211  32.541  13.403
 2446W        W63812  16.749  15.252  10.442
 2447W        W63813   4.701  18.722   4.263
 2448W        W63814  13.832  15.589   4.695
 2449W        W63815  17.689  38.846  14.967
 2450W        W63816  43.338   8.185  11.994
 2451W        W63817  14.199  19.068   3.779
 2452W        W63818  37.506  42.920   0.728
 2453W        W63819  27.003   3.312   2.725
 2454W        W63820  29.939   7.838  11.380
 2455W        W63821  21.719   5.241   1.307
 2456W        W63822  22.567  40.424   2.350
 2457W        W63823  21.723  12.171  10.965
 2458W        W63824  12.147  25.605   4.706
 2459W        W63825  39.924  27.589  11.490
 2460W        W63826  40.501  27.044   3.713
 2461W        W63827  13.265  23.660  11.412
 2462W        W63828  12.735  44.862  12.084
 2463W        W63829  30.941  27.479  14.792
 2464W        W63830  40.985  20.655  10.472
 2465W        W63831  29.481  10.207   3.788
 2466W        W63832  34.532   6.776  14.407
 2467W        W63833  20.581   4.348   3.690
 2468W        W63834  23.499  14.710   2.828
 2469W        W63835  26.502  42.871   0.728
 2470W        W63836   0.379  13.169   2.379
 2471W        W63837   5.350   1.768   0.796
 2472W        W63838  20.067  24.985   2.722
 2473W        W63839   5.228  12.843   0.286
 2474W        W63840  20.192  13.127  10.608
 2475W        W63841  13.771  24.993  10.531
 2476W        W63842  22.573  10.174   4.206
 2477W        W63843  36.967  25.652   2.179
 2478W        W63844  17.680  21.040   3.188
 2479W        W63845  33.874   4.295   1.740
 2480W        W63846  28.579  40.476  12.991
 2481W        W63847  39.841  30.968   3.234
 2482W        W63848  40.316  10.187  10.032
 2483W        W63849   0.956  21.603   1.801
 2484W        W63850  38.912  38.978   2.749
 2485W        W63851  29.083  31.638  11.497
 2486W        W63852   6.263  11.371   0.470
 2487W        W63853  34.002  11.321  13.329
 2488W        W63854  11.715  41.954  14.276
 2489W        W63855  43.804  27.546   9.982
 2490W        W63856   6.330  29.163   3.772
 2491W        W63857  40.855  44.956   4.690
 2492W        W63858   0.760  26.031   0.751
 2493W        W63859   8.684  32.606  13.322
 2494W        W63860  32.114  31.994  10.457
 2495W        W63861  29.175  21.159  11.979
 2496W        W63862  15.182  21.648   1.896
 2497W        W63863  41.794  36.582  10.472
 2498W        W63864  21.758  30.944  14.347
 2499W        W63865  21.529  37.997   0.351
 2500W        W63866  37.383  33.025   0.340
 2501W        W63867  42.999  29.135   0.862
 2502W        W63868  24.482  21.216   4.297
 2503W        W63869  41.800  32.398   3.751
 2504W        W63870  21.744  38.325  12.948
 2505W        W63871  37.066   6.426  10.501
 2506W        W63872  10.774  17.785  13.845
 2507W        W63873   0.786  23.078  11.474
 2508W        W63874  29.023  31.547   4.731
 2509W        W63875  42.301  17.560   1.241
 2510W        W63876  17.221   4.374   0.284
 2511W        W63877  43.006  16.767  10.120
 2512W        W63878   0.826  24.055   2.188
 2513W        W63879  17.267  12.264   4.315
 2514W        W63880  32.417   9.812   4.238
 2515W        W63881  42.522  24.081   4.198
 2516W        W63882   9.199   7.197  13.900
 2517W        W63883  21.723  18.617  10.416
 2518W        W63884  44.905  11.773   0.803
 2519W        W63885  36.531  15.662   0.462
 2520W        W63886  16.170  26.955   3.712
 2521W        W63887   4.344   2.317  13.455
 2522W        W63888  29.109  34.392   3.649
 2523W        W63889  36.894  26.026   4.249
 2524W        W63890   6.263   1.337   3.298
 2525W        W63891  30.913  31.436   4.307
 2526W        W63892  21.184  16.165   1.316
 2527W        W63893  14.808  22.666   0.391
 2528W        W63894   6.408  41.345  10.410
 2529W        W63895  15.635  18.126   4.308
 2530W        W63896  26.113  41.040   4.265
 2531W        W63897  43.898  28.633  12.064
 2532W        W63898  13.212   8.793  13.916
 2533W        W63899  20.257  27.982  12.919
 2534W        W63900   4.409  32.517   3.247
 2535W        W63901  42.476  25.612  11.522
 2536W        W63902  40.943  23.617   4.315
 2537W        W63903  21.152  25.057  14.300
 2538W        W63904  34.025   8.404   3.686
 2539W        W63905  36.453  21.223  13.416
 2540W        W63906  15.582  37.385   2.282
 2541W        W63907  22.236  27.663  13.945
 2542W        W63908  29.478  23.653  11.454
 2543W        W63909  13.835  13.253  13.366
 2544W        W63910  29.655   9.850  12.026
 2545W        W63911  35.094  35.104  14.864
 2546W        W63912  17.246   9.876  10.569
 2547W        W63913  13.637  27.554  10.598
 2548W        W63914  40.015  13.347  13.028
 2549W        W63915  11.159   4.908  11.917
 2550W        W63916  40.024   6.236   2.765
 2551W        W63917  18.752  14.729  12.339
 2552W        W63918  41.381   8.784   2.685
 2553W        W63919  40.480  28.988  11.907
 2554W        W63920  27.588  14.672  11.588
 2555W        W63921  31.963  25.115  10.056
 2556W        W63922  20.147  24.052  14.799
 2557W        W63923   9.186  32.586   1.836
 2558W        W63924  15.277  25.705   1.861
 2559W        W63925  32.028  17.265  14.778
 2560W        W63926  29.573  27.558  13.387
 2561W        W63927  23.992  39.382   4.305
 2562W        W63928  10.335  15.141   4.119
 2563W        W63929  27.979  23.099   1.846
 2564W        W63930  14.697  16.733   0.429
 2565W        W63931  34.918   8.177   0.283
 2566W        W63932   7.700  41.042  13.016
 2567W        W63933  27.120   2.319  14.469
 2568W        W63934  26.037   9.266   1.900
 2569W        W63935   3.926  37.336   1.263
 2570W        W63936  40.026   8.901   0.840
 2571W        W63937  43.290  37.538   3.384
 2572W        W63938  12.190   6.914   0.266
 2573W        W63939  40.338  10.336  12.079
 2574W        W63940   1.922  26.674   1.443
 2575W        W63941  29.445  42.407  14.826
 2576W        W63942  44.997  16.089  14.447
 2577W        W63943  42.363  21.114  12.027
 2578W        W63944  14.708  22.527  13.973
 2579W        W63945  44.325  36.544  13.545
 2580W        W63946  42.980   0.302   3.351
 2581W        W63947   3.220   2.830   4.735
 2582W        W63948   3.283   1.331   2.815
 2583W        W63949   3.429  34.073  10.604
 2584W        W63950  13.687  30.986  13.367
 2585W        W63951  34.910  41.797   4.294
 2586W        W63952  41.346  36.503   4.602
 2587W        W63953   0.877   9.649  13.005
 2588W        W63954  21.125  11.340  13.415
 2589W        W63955  32.550  13.278   4.620
 2590W        W63956   3.379  28.983  14.903
 2591W        W63957  11.215  30.089   0.943
 2592W        W63958  18.661  23.573  11.057
 2593W        W63959  40.500  30.639  10.594
 2594W        W63960   8.328  19.115   4.115
 2595W        W63961  36.352  41.530  12.443
 2596W        W63962  27.126  35.555  13.958
 2597W        W63963  43.960  12.652   4.146
 2598W        W63964  11.234  11.230   1.751
 2599W        W63965   3.865  10.199  12.939
 2600W        W63966  26.963  12.220   1.384
 2601W        W63967   7.389  23.505   1.917
 2602W        W63968  42.474  36.380  10.446
 2603W        W63969  15.700  34.424  14.348
 2604W        W63970  31.068  19.641  10.492
 2605W        W63971  14.105  19.609  12.433
 2606W        W63972  37.506  27.556   0.882
 2607W        W63973  25.658  14.297  12.881
 2608W        W63974  39.456  31.091   0.243
 2609W        W63975  38.436  30.447   3.776
 2610W        W63976  11.688  14.187   9.939
 2611W        W63977  19.070  43.010   1.828
 2612W        W63978  44.936  40.502   2.394
 2613W        W63979   5.823  39.540   2.688
 2614W        W63980   3.366  41.030   2.694
 2615W        W63981  16.655  16.105   5.184
 2616W        W63982  13.128  13.114   1.425
 2617W        W63983   5.424  13.173  12.413
 2618W        W63984  22.624   6.326  14.400
 2619W        W63985  36.396  29.441  10.912
 2620W        W63986  38.515  37.881  13.793
 2621W        W63987   9.716  43.474  12.402
 2622W        W63988  20.653  13.836   3.855
 2623W        W63989  21.710  17.565  12.364
 2624W        W63990  31.444  20.634   9.950
 2625W        W63991  21.580   5.727  10.543
 2626W        W63992  16.172  11.129  10.507
 2627W        W63993  20.768  26.573  11.883
 2628W        W63994  44.781  34.079  14.841
 2629W        W63995   6.742   7.866   0.817
 2630W        W63996  19.270  26.069  11.963
 2631W        W63997  29.050  40.359   4.753
 2632W        W63998  39.514  21.056   4.259
 2633W        W63999  35.568  18.092   1.417
 2634W        W64000   4.410   1.461   0.773
 2635W        W64001  37.359   6.350  12.405
 2636W        W64002  31.995  31.604  12.459
 2637W        W64003   0.930   5.724   3.738
 2638W        W64004   1.289  21.677  11.489
 2639W        W64005  16.698  38.012   4.343
 2640W        W64006  23.496  41.450   3.240
 2641W        W64007  31.149  42.466  13.316
 2642W        W64008  37.506  18.198   1.837
 2643W        W64009  23.674  19.547  13.379
 2644W        W64010  21.665  25.044  13.962
 2645W        W64011  28.108  41.370  13.827
 2646W        W64012  31.011   0.448  12.006
 2647W        W64013  28.525   0.426   0.384
 2648W        W64014  34.431   7.248  14.485
 2649W        W64015  24.992  18.104  13.425
 2650W        W64016  24.178  40.321   2.718
 2651W        W64017  29.535  19.774   0.821
 2652W        W64018   6.399  11.688   2.212
 2653W        W64019  10.175  13.169   4.780
 2654W        W64020   6.367   7.260  11.502
 2655W        W64021   4.735  19.270  10.048
 2656W        W64022  10.338  14.195   2.275
 2657W        W64023   3.906  16.588  10.404
 2658W        W64024  25.617  43.331   4.824
 2659W        W64025  27.525  22.086  12.908
 2660W        W64026  13.309  41.338  14.960
 2661W        W64027  29.667  18.063  11.125
 2662W        W64028  27.957  13.268   0.829
 2663W        W64029  43.855  15.184  13.018
 2664W        W64030  44.410  19.644   4.821
 2665W        W64031  23.619  43.374  14.284
 2666W        W64032  23.992  32.117  12.487
 2667W        W64033  28.989   7.271  14.498
 2668W        W64034   6.300  28.463   1.887
 2669W        W64035  23.503  14.126  10.984
 2670W        W64036  30.162  12.664   3.316
 2671W        W64037  21.647  34.871   2.792
 2672W        W64038  22.598  13.664   4.311
 2673W        W64039   4.731   6.317  14.465
 2674W        W64040  37.059  36.449   3.852
 2675W        W64041   1.790  24.013  10.531
 2676W        W64042  21.044  36.980   2.777
 2677W        W64043   6.916   9.764  10.436
 2678W        W64044  30.515  42.978  10.529
 2679W        W64045  37.950   8.728   3.866
 2680W        W64046  37.070   5.202   0.474
 2681W        W64047   2.324  41.372   4.339
 2682W        W64048   8.332  24.550   0.935
 2683W        W64049  31.105  16.702   2.797
 2684W        W64050  17.216   7.830   3.303
 2685W        W64051  39.853  23.116   1.415
 2686W        W64052   5.881  25.138   1.874
 2687W        W64053   5.734  25.605  13.492
 2688W        W64054  17.241   9.816  12.562
 2689W        W64055  12.356  31.006   4.301
 2690W        W64056   3.899  42.375  11.028
 2691W        W64057  33.548  16.096   3.216
 2692W        W64058  22.211   3.288   0.455
 2693W        W64059  32.094  18.065  13.947
 2694W        W64060  36.593  30.914  12.349
 2695W        W64061  43.870  31.916  11.921
 2696W        W64062  41.981  19.663   0.323
 2697W        W64063  41.409  23.156   0.874
 2698W        W64064   1.824   5.403  10.079
 2699W        W64065  32.599  25.467  11.522
 2700W        W64066  37.019  18.116   1.840
 2701W        W64067  18.718  23.069   4.707
 2702W        W64068  37.035   4.773   2.820
 2703W        W64069  38.553  33.888   4.161
 2704W        W64070  28.026  20.147  12.518
 2705W        W64071   9.671  38.888   3.290
 2706W        W64072   1.253  39.865  10.426
 2707W        W64073  37.507   5.365   0.782
 2708W        W64074  11.787   8.282   3.192
 2709W        W64075  27.656  41.852   0.824
 2710W        W64076  32.136  30.652   0.318
 2711W        W64077  33.502  39.019   1.278
 2712W        W64078  31.082  43.997  12.412
 2713W        W64079  28.455   1.413  11.501
 2714W        W64080  42.906  40.871   1.421
 2715W        W64081  41.390   5.220   1.368
 2716W        W64082  40.874  22.115  13.350
 2717W        W64083  13.128  35.559  10.920
 2718W        W64084   9.645  40.436   4.769
 2719W        W64085  39.868  23.697   4.119
 2720W        W64086   0.874  37.462   3.355
 2721W        W64087  23.626  41.475  12.486
 2722W        W64088  17.292  15.170  11.552
 2723W        W64089   0.818  22.728   4.242
 2724W        W64090  43.412  38.444  10.534
 2725W        W64091  26.593  30.087   9.583
 2726W        W64092  12.613  10.273   3.353
 2727W        W64093  10.764   8.309   3.633
 2728W        W64094  37.476  20.661  13.547
 2729W        W64095  37.055  14.149   0.425
 2730W        W64096   8.373  43.964  10.571
 2731W        W64097  42.403  44.343  13.820
 2732W        W64098   8.739  15.812   3.828
 2733W        W64099  32.479   7.296   1.734
 2734W        W64100  30.580  35.045  12.537
 2735W        W64101  24.690   6.871   0.451
 2736W        W64102  44.933   7.827   4.706
 2737W        W64103  20.100  22.646   1.315
 2738W        W64104  23.212  37.530  14.029
 2739W        W64105  32.048  40.389   0.824
 2740W        W64106   3.741  42.824  10.638
 2741W        W64107   6.335  28.146   2.388
 2742W        W64108  30.501  19.172   1.715
 2743W        W64109  10.281  12.678   0.253
 2744W        W64110  43.009  41.424   3.777
 2745W        W64111  42.808  32.037   1.265
 2746W        W64112   5.345  22.055   2.825
 2747W        W64113  40.412  41.446  10.977
 2748W        W64114  13.698  41.404  11.915
 2749W        W64115  35.462  38.379  13.815
 2750W        W64116  23.042  21.140  11.012
 2751W        W64117  13.680  24.541  14.774
 2752W        W64118  17.565  17.086   4.353
 2753W        W64119   3.782  19.077   4.742
 2754W        W64120  19.147  40.825   2.775
 2755W        W64121  13.127   7.297   3.720
 2756W        W64122  27.526  25.061   2.318
 2757W        W64123  10.821  40.863   3.799
 2758W        W64124  44.322  42.295   4.211
 2759W        W64125  19.548  43.332   5.207
 2760W        W64126  39.413   5.797   2.383
 2761W        W64127  24.217  26.158  11.488
 2762W        W64128  32.068  39.424  13.472
 2763W        W64129  42.895  13.636   2.389
 2764W        W64130  34.985  23.157  11.067
 2765W        W64131  41.428  29.065  14.417
 2766W        W64132  41.353  19.242  14.788
 2767W        W64133  20.706   3.800   2.855
 2768W        W64134  39.359  19.688  13.924
 2769W        W64135  35.413  25.569   0.768
 2770W        W64136   4.343  42.415   3.698
 2771W        W64137  18.292  11.634   1.750
 2772W        W64138  32.014   3.436   0.449
 2773W        W64139  32.520  31.023  13.356
 2774W        W64140  21.116   6.350   5.130
 2775W        W64141  23.536  36.881   2.688
 2776W        W64142  25.666  22.716   2.760
 2777W        W64143  44.912   0.896  11.542
 2778W        W64144  40.930   9.341  10.489
 2779W        W64145  42.790  28.174  13.874
 2780W        W64146  23.045  13.193   4.819
 2781W        W64147  36.057  20.635   3.630
 2782W        W64148  20.719  12.327  12.499
 2783W        W64149  30.555   9.149   4.203
 2784W        W64150  11.707  13.651   3.760
 2785W        W64151  14.181  38.384  13.530
 2786W        W64152   1.897  13.315   3.860
 2787W        W64153  38.397   4.272   1.695
 2788W        W64154  22.510  11.634   5.266
 2789W        W64155  22.589   9.159  10.493
 2790W        W64156  28.529  21.096   5.292
 2791W        W64157   4.213  35.018  10.891
 2792W        W64158  39.031  20.208   1.800
 2793W        W64159  34.088  31.115  13.058
 2794W        W64160  23.577  37.337  13.307
 2795W        W64161  44.474  16.756   2.199
 2796W        W64162   4.894  29.935   0.824
 2797W        W64163  38.062  20.179   2.854
 2798W        W64164  12.164  39.483  11.016
 2799W        W64165  23.527   5.371   4.279
 2800W        W64166  21.246   6.677  14.985
 2801W        W64167  39.523  28.662   0.880
 2802W        W64168  28.969  14.178   2.388
 2803W        W64169   8.701  43.803  13.376
 2804W        W64170  24.226   5.888  14.809
 2805W        W64171   3.284  32.914  14.306
 2806W        W64172  39.893  17.148  12.013
 2807W        W64173  31.559  34.409  11.874
 2808W        W64174  26.682  22.143  12.995
 2809W        W64175  41.458  29.949  11.503
 2810W        W64176  15.164   3.730  14.275
 2811W        W64177  13.332   4.251  13.539
 2812W        W64178   8.782  13.116   2.340
 2813W        W64179  39.333   7.243   0.402
 2814W        W64180  27.653  31.114   1.227
 2815W        W64181   7.807  13.609   2.875
 2816W        W64182   3.319  27.666   5.760
 2817W        W64183  31.490  34.459   2.392
 2818W        W64184   3.874  28.170  11.589
 2819W        W64185  24.561  24.556  14.829
 2820W        W64186  30.465  32.592   1.214
 2821W        W64187  42.519  17.701   4.776
 2822W        W64188  37.478   0.285  13.883
 2823W        W64189  16.652  12.686   4.163
 2824W        W64190  43.479  16.721   1.342
 2825W        W64191  37.523  25.204  14.298
 2826W        W64192  27.094  19.656   3.237
 2827W        W64193  11.815  39.343  12.866
 2828W        W64194   1.238  35.471   0.905
 2829W        W64195   9.353  21.218   2.673
 2830W        W64196  42.798  32.041   4.294
 2831W        W64197  21.688  40.359  11.575
 2832W        W64198  32.417  36.416   4.780
 2833W        W64199  19.677  23.580  11.479
 2834W        W64200  39.369  38.047  11.434
 2835W        W64201  31.621  33.942   4.777
 2836W        W64202  32.559  40.504   0.415
 2837W        W64203   8.800  20.634   1.414
 2838W        W64204  34.614   4.324  11.390
 2839W        W64205  15.297   9.329  14.802
 2840W        W64206   9.210   1.773   4.613
 2841W        W64207  41.949  30.555   0.862
 2842W        W64208  12.720  35.882   0.779
 2843W        W64209  34.955  15.094  12.544
 2844W        W64210  33.980  28.168  11.375
 2845W        W64211  19.686  41.440   2.733
 2846W        W64212  20.114  24.128  12.386
 2847W        W64213  26.158  29.627  12.015
 2848W        W64214   0.871  43.937   2.336
 2849W        W64215  13.254  19.766   4.340
 2850W        W64216  18.250   5.281   4.190
 2851W        W64217  23.160   3.823  13.397
 2852W        W64218  18.239   3.878  14.798
 2853W        W64219  18.112  12.137  11.111
 2854W        W64220  12.669  12.698   1.270
 2855W        W64221   9.256   4.726   0.329
 2856W        W64222  21.040  35.395   0.370
 2857W        W64223   5.347  35.973  13.955
 2858W        W64224  33.036  19.088   4.293
 2859W        W64225  41.396   1.850  11.942
 2860W        W64226  42.946   6.239   0.793
 2861W        W64227  32.909  44.400  11.421
 2862W        W64228  19.057  10.849  11.535
 2863W        W64229  36.459   6.350   2.685
 2864W        W64230  18.777  23.504   3.827
 2865W        W64231  38.336  13.201  10.514
 2866W        W64232   6.754   6.755   0.266
 2867W        W64233   1.850  29.561  12.489
 2868W        W64234  17.595  31.019   3.680
 2869W        W64235  23.607  19.120   0.259
 2870W        W64236  32.965  18.135   3.248
 2871W        W64237   6.819  44.310  11.023
 2872W        W64238  18.665  34.413  11.480
 2873W        W64239  11.215  44.299   2.339
 2874W        W64240  36.467  41.368  14.390
 2875W        W64241  30.094  16.180  13.796
 2876W        W64242   9.791  21.732  14.439
 2877W        W64243  27.524  22.065  14.417
 2878W        W64244  34.914  15.124  11.509
 2879W        W64245  44.499  28.933  14.774
 2880W        W64246  33.892  39.810   1.372
 2881W        W64247  30.528  15.288  11.067
 2882W        W64248  19.066  42.843   0.785
 2883W        W64249  31.596  30.087  11.595
 2884W        W64250  25.619  25.616  10.508
 2885W        W64251   9.362  25.218   5.243
 2886W        W64252  15.284   3.215   1.715
 2887W        W64253  42.954  35.972   2.239
 2888W        W64254  20.167   8.284  11.857
 2889W        W64255  28.530  10.718   1.822
 2890W        W64256  36.903  16.813  14.945
 2891W        W64257  27.069  31.430  12.488
 2892W        W64258  31.109  21.525  10.104
 2893W        W64259  37.517  42.461   4.669
 2894W        W64260  11.679   5.879  10.032
 2895W        W64261   3.427  15.286  12.913
 2896W        W64262  42.406  28.661  12.931
 2897W        W64263  44.327  29.434   5.125
 2898W        W64264  17.089  36.457  11.913
 2899W        W64265  40.498  43.864   0.807
 2900W        W64266   0.351   8.817  11.516
 2901W        W64267   9.162  33.967   2.256
 2902W        W64268  17.614  22.565  14.890
 2903W        W64269  30.555   2.777  14.916
 2904W        W64270  23.527  38.502  13.029
 2905W        W64271  43.914  13.627   4.245
 2906W        W64272  38.935  40.413   3.202
 2907W        W64273  42.923  11.706   3.724
 2908W        W64274  42.867  13.196  13.804
 2909W        W64275  42.862  10.218   2.410
 2910W        W64276  15.180  37.948  14.962
 2911W        W64277  12.299   9.773   4.702
 2912W        W64278  12.851   9.335  12.535
 2913W        W64279  23.680  23.631   2.230
 2914W        W64280  10.787  43.354   1.837
 2915W        W64281  23.527   7.781   4.306
 2916W        W64282  31.923  36.094  11.442
 2917W        W64283  43.863  10.726  14.874
 2918W        W64284   0.487  21.223   2.365
 2919W        W64285  16.569  21.252   3.179
 2920W        W64286   0.380  33.482   0.319
 2921W        W64287  32.412  38.007   1.435
 2922W        W64288   8.274   0.932  11.890
 2923W        W64289  27.046   9.881   4.710
 2924W        W64290  35.914   4.246   4.622
 2925W        W64291  16.308   2.325  14.499
 2926W        W64292   5.823  12.812   0.730
 2927W        W64293  25.603   4.380   1.388
 2928W        W64294  21.148  16.779  11.602
 2929W        W64295  40.895  24.055  12.550
 2930W        W64296  41.817  31.433  14.987
 2931W        W64297  44.438  13.165  12.429
 2932W        W64298   1.764  25.567  12.069
 2933W        W64299  11.655  14.188   5.258
 2934W        W64300  23.598   1.958   0.946
 2935W        W64301  41.370  35.532   2.828
 2936W        W64302   9.249   5.703  10.445
 2937W        W64303  12.710  35.501   2.901
 2938W        W64304  10.363  35.421  11.389
 2939W        W64305  26.113  38.433  13.835
 2940W        W64306  10.774  23.641  10.478
 2941W        W64307  38.511  28.056  13.865
 2942W        W64308   3.334   5.254   4.723
 2943W        W64309  17.653  21.036  11.960
 2944W        W64310  28.990  15.666   1.788
 2945W        W64311  38.006  24.179  14.344
 2946W        W64312  22.701  12.715   2.860
 2947W        W64313   3.928  25.171  10.074
 2948W        W64314  30.950  42.802   3.831
 2949W        W64315  30.465   6.304   0.400
 2950W        W64316  19.184  25.203  14.448
 2951W        W64317  21.126  11.279   4.254
 2952W        W64318  12.284   0.411   4.272
 2953W        W64319  16.201  25.025  10.525
 2954W        W64320  26.115  25.565  10.914
 2955W        W64321  23.736  10.644  11.991
 2956W        W64322  34.982   8.794  14.992
 2957W        W64323  24.545  24.671  11.081
 2958W        W64324   5.343  41.802  11.530
 2959W        W64325  33.007  21.728  13.525
 2960W        W64326  11.363  20.565  14.331
 2961W        W64327  26.566  33.452  14.851
 2962W        W64328  34.115  33.540  14.927
 2963W        W64329  16.742  13.775   1.856
 2964W        W64330  18.237  43.393  12.475
 2965W        W64331  14.326  20.253   0.922
 2966W        W64332  22.600  36.529   3.171
 2967W        W64333  23.588   7.238  12.426
 2968W        W64334  10.212  13.769   0.378
 2969W        W64335   1.761  24.581   3.158
 2970W        W64336  32.033   2.335  12.373
 2971W        W64337  30.049  22.155  11.125
 2972W        W64338   8.198  35.938  14.771
 2973W        W64339  26.157   5.703  12.522
 2974W        W64340  38.326  10.657  12.891
 2975W        W64341  31.407   4.437  10.922
 2976W        W64342  21.602  38.824   9.956
 2977W        W64343   4.417  19.596   2.223
 2978W        W64344  13.631  16.257  12.868
 2979W        W64345  33.889  11.327  14.491
 2980W        W64346  10.771   7.236   0.943
 2981W        W64347   7.176  32.957   3.166
 2982W        W64348  39.873  32.098  12.957
 2983W        W64349  27.122  23.093   1.300
 2984W        W64350  39.058  42.946  11.920
 2985W        W64351  20.760  11.127   1.361
 2986W        W64352  21.258  13.624   3.184
 2987W        W64353  43.405  10.169  14.930
 2988W        W64354  26.503  42.378  13.901
 2989W        W64355  31.134   5.904   0.782
 2990W        W64356  40.467  30.951  13.037
 2991W        W64357  43.496  42.525  13.466
 2992W        W64358  17.186  35.026  14.995
 2993W        W64359  24.190  42.370   3.361
 2994W        W64360  21.628  28.082   4.644
 2995W        W64361  36.453  24.561   1.927
 2996W        W64362  39.407  44.828   3.785
 2997W        W64363  28.938  28.556   3.308
 2998W        W64364   4.748  21.195  12.933
 2999W        W64365  18.293  30.106  11.408
 3000W        W64366  17.651  44.990   0.463
 3001W        W64367  26.661  39.891   0.757
 3002W        W64368  27.035  34.890  13.390
 3003W        W64369  42.819  39.936  12.883
 3004W        W64370  31.086  27.117   1.907
 3005W        W64371   9.656   5.749  13.862
 3006W        W64372  33.102  30.041   0.961
 3007W        W64373  43.952   3.251   1.373
 3008W        W64374  11.844  37.889   1.333
 3009W        W64375  26.623   0.302  14.802
 3010W        W64376  23.140   5.333  11.860
 3011W        W64377  13.739  19.101   2.307
 3012W        W64378  43.408  23.523   1.891
 3013W        W64379  23.176  36.556  11.974
 3014W        W64380   0.914  33.519   0.335
 3015W        W64381  36.417  13.210  13.410
 3016W        W64382  36.584  17.796  14.286
 3017W        W64383   1.753   9.379  10.410
 3018W        W64384  31.040  34.889  10.553
 3019W        W64385   6.317  20.559  10.584
 3020W        W64386  10.634  23.134   0.781
 3021W        W64387  40.847  17.567  10.534
 3022W        W64388   9.866  17.154   3.320
 3023W        W64389  14.148  28.556  11.098
 3024W        W64390  44.399   6.340   0.438
 3025W        W64391  35.077  41.444   0.298
 3026W        W64392  40.386  40.334   1.804
 3027W        W64393  19.618  16.657  14.434
 3028W        W64394  27.497  28.679  10.584
 3029W        W64395  30.148  32.523   1.298
 3030W        W64396   4.385  39.925  13.854
 3031W        W64397  29.952  24.546   3.302
 3032W        W64398  15.133   9.312  12.973
 3033W        W64399  15.708   8.396   5.237
 3034W        W64400  12.793  21.224   4.777
 3035W        W64401   3.219   4.865  12.081
 3036W        W64402   4.286  28.602  13.506
 3037W        W64403  34.873  10.185   2.856
 3038W        W64404  12.131  25.488   0.480
 3039W        W64405   1.474  24.161  12.489
 3040W        W64406   8.813  24.557   0.320
 3041W        W64407  23.130  26.541  11.573
 3042W        W64408  30.566  38.412  14.851
 3043W        W64409  11.833  27.051  13.845
 3044W        W64410  17.181  23.172  13.892
 3045W        W64411   6.799  23.064  11.572
 3046W        W64412  30.985   6.193  12.001
 3047W        W64413  40.482  27.061  11.974
 3048W        W64414  18.565  34.518   0.759
 3049W        W64415  43.407  28.652  11.965
 3050W        W64416  10.633  36.946  12.391
 3051W        W64417  20.658  43.790  11.951
 3052W        W64418  27.460  26.050   4.658
 3053W        W64419  13.198  27.950  14.013
 3054W        W64420  24.223  41.518  11.959
 3055W        W64421  43.974  32.423   1.313
 3056W        W64422  38.569   6.427   2.308
 3057W        W64423  24.104  32.972   0.798
 3058W        W64424  13.622  16.161   1.290
 3059W        W64425  25.696  26.066   0.417
 3060W        W64426  31.029  43.880  11.899
 3061W        W64427   7.183  25.550   4.223
 3062W        W64428   1.453   8.736   3.327
 3063W        W64429  25.676  42.328   4.692
 3064W        W64430  11.285  40.934   0.770
 3065W        W64431   8.884  28.615  10.550
 3066W        W64432  31.566  29.533  14.459
 3067W        W64433  13.170   3.363   5.178
 3068W        W64434   6.306  29.594  13.356
 3069W        W64435  38.003  28.978   1.852
 3070W        W64436  22.620   7.192  12.397
 3071W        W64437  15.750  15.749  13.524
 3072W        W64438   8.305  14.322  12.857
 3073W        W64439  39.043  17.225   4.119
 3074W        W64440   7.272  22.650   4.302
 3075W        W64441   6.899  27.159  12.842
 3076W        W64442   5.350  19.091   3.825
 3077W        W64443  37.450  16.767   1.887
 3078W        W64444  35.445  28.028  14.831
 3079W        W64445  36.440  23.675  13.799
 3080W        W64446  23.531  16.098  13.466
 3081W        W64447  33.423  31.132  13.853
 3082W        W64448  32.138  29.629  14.765
 3083W        W64449  20.759  41.919  14.865
 3084W        W64450  43.796   1.393  13.441
 3085W        W64451  24.134  24.668   4.130
 3086W        W64452  21.074  20.149   2.198
 3087W        W64453   3.816  38.414  12.502
 3088W        W64454  41.960   2.893  14.430
 3089W        W64455  36.884  20.723  11.467
 3090W        W64456  31.939  17.783  13.929
 3091W        W64457  41.362  24.044  13.853
 3092W        W64458  39.922  12.122  13.319
 3093W        W64459   0.985  30.640   3.379
 3094W        W64460   4.928  42.319   3.304
 3095W        W64461  19.667   3.367  13.879
 3096W        W64462  16.759   1.860   0.769
 3097W        W64463   8.246  26.957   4.127
 3098W        W64464  36.508  25.552   2.296
 3099W        W64465  25.216   2.896   0.282
 3100W        W64466  40.515  23.722   5.145
 3101W        W64467  35.020  43.392   0.772
 3102W        W64468  42.498  42.943   3.226
 3103W        W64469  25.059   8.818   3.258
 3104W        W64470  16.596   9.310  14.328
 3105W        W64471  24.108  27.956   1.420
 3106W        W64472  21.669  29.631  12.442
 3107W        W64473  21.091  38.350  12.363
 3108W        W64474  18.718  36.908   3.308
 3109W        W64475  19.213   8.258  13.526
 3110W        W64476  31.574  29.145   3.311
 3111W        W64477  18.268   3.741   1.781
 3112W        W64478  13.745  18.179  13.820
 3113W        W64479   7.693   7.846  10.570
 3114W        W64480  15.134   0.248   0.967
 3115W        W64481  22.191  26.479   0.253
 3116W        W64482  36.931  27.090   0.949
 3117W        W64483  26.173   5.761  11.541
 3118W        W64484  38.355  13.625   3.805
 3119W        W64485  40.871  37.057   4.347
 3120W        W64486  11.733   0.915  11.490
 3121W        W64487  34.401   1.479  12.914
 3122W        W64488  20.643   3.872   5.738
 3123W        W64489   2.738   9.282  12.494
 3124W        W64490   4.292  27.960  10.468
 3125W        W64491   3.400  27.539  13.015
 3126W        W64492  39.410  23.627   4.181
 3127W        W64493  19.560  13.830  12.382
 3128W        W64494  21.042  18.281  10.895
 3129W        W64495  18.611  38.354   2.837
 3130W        W64496   1.478  12.292   0.265
 3131W        W64497  33.477   7.247  10.897
 3132W        W64498  36.860  30.038   0.462
 3133W        W64499  36.543  39.875   2.374
 3134W        W64500  31.500   7.898   4.838
 3135W        W64501   1.473  19.215   4.600
 3136W        W64502   8.680  15.688   2.902
 3137W        W64503  41.800  15.259  12.413
 3138W        W64504  21.115  33.008  11.086
 3139W        W64505  27.653  18.117   4.785
 3140W        W64506  18.255  16.295  13.831
 3141W        W64507  21.220  24.051  14.831
 3142W        W64508  33.458  35.974   2.757
 3143W        W64509  11.204  13.807   4.689
 3144W        W64510   0.937  12.165  13.315
 3145W        W64511  20.063  39.538  10.952
 3146W        W64512   5.805  43.911  10.915
 3147W        W64513  35.091  30.631  14.388
 3148W        W64514  20.636  39.391   4.329
 3149W        W64515  28.155   8.392   3.233
 3150W        W64516  12.175  37.083  12.516
 3151W        W64517   6.396  25.624  11.062
 3152W        W64518  15.686   2.858   0.344
 3153W        W64519   9.686   7.848  13.915
 3154W        W64520  42.003  40.323  12.431
 3155W        W64521  44.488  24.138  10.542
 3156W        W64522  39.523  14.278  13.379
 3157W        W64523  14.753  30.437   0.464
 3158W        W64524   2.814  31.055   3.158
 3159W        W64525  31.994  28.653  11.932
 3160W        W64526  35.428  42.394   1.724
 3161W        W64527  42.961  21.730  12.926
 3162W        W64528  34.390  19.701   5.227
 3163W        W64529   4.235  32.449  11.936
 3164W        W64530  19.556  23.054   3.248
 3165W        W64531  17.668  16.725   2.179
 3166W        W64532  28.122   5.722   1.445
 3167W        W64533   2.421  36.541  14.467
 3168W        W64534  22.135  18.726  11.561
 3169W        W64535  10.682  21.679  14.419
 3170W        W64536  25.996  24.724  11.582
 3171W        W64537  19.246  30.981   0.379
 3172W        W64538  38.855  28.438   3.817
 3173W        W64539  21.085  35.924  10.497
 3174W        W64540  18.139  21.538   2.356
 3175W        W64541  27.607  18.075   3.160
 3176W        W64542  17.653  35.960   3.673
 3177W        W64543  24.642  36.358  10.495
 3178W        W64544  41.423   2.747   1.766
 3179W        W64545  37.833  12.811   2.689
 3180W        W64546  32.041  20.232  14.791
 3181W        W64547  37.886   6.391   3.793
 3182W        W64548   3.399   2.399   0.763
 3183W        W64549  28.594  12.119   2.675
 3184W        W64550   2.721  17.631   3.661
 3185W        W64551   4.290  10.186   1.360
 3186W        W64552  13.804  41.477   1.756
 3187W        W64553   8.842  39.885   3.329
 3188W        W64554  18.552  41.446  12.054
 3189W        W64555   6.682   7.749   2.183
 3190W        W64556  40.398   7.790   4.329
 3191W        W64557  38.342  17.204   2.360
 3192W        W64558  20.100  42.401  12.403
 3193W        W64559  32.497  44.308  13.832
 3194W        W64560  29.583   2.447  13.957
 3195W        W64561   1.451   2.759  14.982
 3196W        W64562  36.572  32.922  14.384
 3197W        W64563   7.829  32.561   4.201
 3198W        W64564   5.259  36.512  12.060
 3199W        W64565  19.113   2.886  14.388
 3200W        W64566   1.824   1.891   3.202
 3201W        W64567  29.058  15.656   0.941
 3202W        W64568  17.248  31.570   0.914
 3203W        W64569   6.268  27.166  11.567
 3204W        W64570  24.026  10.384  10.939
 3205W        W64571  39.394  26.671   2.663
 3206W        W64572  29.924  13.821  13.510
 3207W        W64573  25.642  29.464   4.606
 3208W        W64574  23.180  39.500  11.451
 3209W        W64575  43.401  31.429  10.604
 3210W        W64576  25.079  43.807   0.341
 3211W        W64577   6.289  32.953  13.307
 3212W        W64578  28.097  41.997  14.807
 3213W        W64579  10.300  13.726  14.439
 3214W        W64580  11.714   6.404   3.842
 3215W        W64581  20.255  32.972   0.887
 3216W        W64582  27.575  13.130   0.926
 3217W        W64583   6.833  17.255  13.965
 3218W        W64584  35.531   8.347  11.529
 3219W        W64585  20.259  41.360  13.867
 3220W        W64586  27.172  44.824   2.734
 3221W        W64587   0.274  10.175   1.732
 3222W        W64588   2.275  16.314   2.358
 3223W        W64589  27.190   1.300  13.502
 3224W        W64590  26.535  40.322   5.158
 3225W        W64591  32.097   4.320  12.006
 3226W        W64592  35.008   2.788  12.364
 3227W        W64593  40.953   1.343   0.791
 3228W        W64594  25.013  14.679  11.416
 3229W        W64595  43.324  17.576   3.254
 3230W        W64596  38.514  23.074  10.990
 3231W        W64597  33.509   6.815   3.178
 3232W        W64598  15.122  36.008   5.224
 3233W        W64599  24.099  42.436   0.408
 3234W        W64600  32.045  41.432  12.865
 3235W        W64601  25.983  26.064   5.092
 3236W        W64602  26.528  42.352   4.656
 3237W        W64603  10.202  17.599  10.952
 3238W        W64604  13.643  21.148   3.234
 3239W        W64605  41.508  33.071   0.291
 3240W        W64606  12.789  10.362   1.879
 3241W        W64607  25.629  26.149   0.853
 3242W        W64608  16.772   4.865  13.411
 3243W        W64609   3.400   7.687  11.559
 3244W        W64610  18.723  11.172  11.966
 3245W        W64611  28.126   7.682   1.233
 3246W        W64612  16.275   5.412  11.019
 3247W        W64613  34.876  32.404   4.828
 3248W        W64614  35.059  38.833  12.930
 3249W        W64615  10.740  40.415  10.565
 3250W        W64616  19.104  37.834   1.914
 3251W        W64617  35.596   7.333   0.298
 3252W        W64618   6.806  41.015   0.795
 3253W        W64619   2.345   5.307   9.534
 3254W        W64620  14.296  31.522   5.774
 3255W        W64621  16.203  29.511   4.284
 3256W        W64622  27.985  18.780  11.943
 3257W        W64623  41.041  21.736   2.693
 3258W        W64624  16.636  41.024   4.721
 3259W        W64625   4.289   4.912  10.468
 3260W        W64626  44.990  44.973  14.019
 3261W        W64627  14.704  28.184  13.812
 3262W        W64628  13.146   0.436  12.479
 3263W        W64629  24.523  24.976  11.944
 3264W        W64630   9.339  27.033  14.354
 3265W        W64631  39.834   4.343   1.392
 3266W        W64632  16.714  15.281   3.149
 3267W        W64633  21.082  42.919  10.524
 3268W        W64634  24.699  31.093  14.500
 3269W        W64635  12.724  25.162  13.842
 3270W        W64636  27.614  15.319  13.917
 3271W        W64637  17.079  21.641   0.412
 3272W        W64638  22.104   8.683   2.254
 3273W        W64639  35.518   6.372   0.821
 3274W        W64640   0.893  21.685   4.719
 3275W        W64641  20.239   1.395   0.757
 3276W        W64642  34.892  36.518  11.416
 3277W        W64643   8.772  14.271  12.384
 3278W        W64644  37.549  20.153   1.396
 3279W        W64645  33.408  34.433  10.584
 3280W        W64646  38.534  32.947   2.189
 3281W        W64647  32.117  40.311   2.417
 3282W        W64648  41.829  42.304   0.790
 3283W        W64649  16.690  23.648   0.938
 3284W        W64650  25.029  17.699   3.263
 3285W        W64651  27.686  12.611  11.558
 3286W        W64652   4.215  36.349  13.028
 3287W        W64653  17.121   1.823  13.392
 3288W        W64654  25.675  34.051  11.425
 3289W        W64655  35.966   8.880   5.219
 3290W        W64656  20.174  43.879  10.536
 3291W        W64657   5.919  35.016   2.782
 3292W        W64658  18.237  17.181   4.225
 3293W        W64659  44.327  32.079  10.031
 3294W        W64660  13.813  41.348   3.214
 3295W        W64661  10.309   2.354  11.035
 3296W        W64662  38.380  40.869  14.760
 3297W        W64663   1.265  40.010   1.748
 3298W        W64664  11.191  10.301   3.360
 3299W        W64665  21.578   2.740   1.297
 3300W        W64666   3.744  43.972   2.297
 3301W        W64667  23.176  11.308  10.888
 3302W        W64668  16.276  13.723  11.898
 3303W        W64669   8.200  26.036   2.822
 3304W        W64670  17.754  15.722  11.470
 3305W        W64671  27.495  19.103  13.804
 3306W        W64672  37.060  23.619   2.768
 3307W        W64673  12.284  16.752  10.631
 3308W        W64674  27.152  17.224   4.114
 3309W        W64675  30.607  36.483   3.181
 3310W        W64676  24.541  43.772   3.206
 3311W        W64677   2.281  35.895  12.904
 3312W        W64678  10.808  32.394  11.530
 3313W        W64679   0.290  35.364  10.439
 3314W        W64680  35.428   7.805   0.965
 3315W        W64681   2.935  14.747   2.892
 3316W        W64682  30.596  43.924  11.578
 3317W        W64683  37.398   3.831   1.210
 3318W        W64684   8.810  32.056  14.880
 3319W        W64685   5.923  32.456  13.425
 3320W        W64686   8.853  30.452  13.055
 3321W        W64687  42.408  42.989  10.641
 3322W        W64688   8.748   1.265   1.365
 3323W        W64689  29.997  26.193   0.324
 3324W        W64690  14.751   6.887   2.277
 3325W        W64691  12.785  43.966  10.534
 3326W        W64692  30.092   4.869   2.767
 3327W        W64693  10.705   8.671  14.395
 3328W        W64694  27.504  44.439   1.723
 3329W        W64695   3.243   0.398  14.470
 3330W        W64696  13.601  30.156  13.800
 3331W        W64697  10.178  18.706  12.523
 3332W        W64698  22.080   4.239   2.330
 3333W        W64699  41.966   8.261   1.821
 3334W        W64700  24.222  22.155   1.287
 3335W        W64701   3.281  31.590  11.938
 3336W        W64702  13.211   3.344   2.893
 3337W        W64703  16.745  39.409   3.229
 3338W        W64704  28.071  31.138   1.324
 3339W        W64705   4.773  44.809   0.462
 3340W        W64706  34.468  34.563  11.077
 3341W        W64707  38.842   7.207  13.927
 3342W        W64708  26.184  20.734   2.248
 3343W        W64709  39.560  42.431   0.825
 3344W        W64710  36.852   4.444   3.634
 3345W        W64711   0.779  24.133   0.941
 3346W        W64712  43.781   8.207  14.313
 3347W        W64713  29.508  40.442   2.803
 3348W        W64714  23.618  15.294  14.802
 3349W        W64715   4.315   2.412  14.914
 3350W        W64716  36.459  40.834  14.453
 3351W        W64717   7.715  13.685  14.308
 3352W        W64718  37.485  30.608   3.780
 3353W        W64719  19.232  19.620   3.371
 3354W        W64720  13.630  12.814   4.723
 3355W        W64721  20.573  35.036  12.039
 3356W        W64722  38.916  23.613   2.185
 3357W        W64723  30.917   0.438   5.082
 3358W        W64724   6.711  19.646   4.270
 3359W        W64725  28.950  28.110  14.322
 3360W        W64726  16.670   9.308   3.847
 3361W        W64727   6.224  37.862  14.820
 3362W        W64728  13.142  41.902   2.778
 3363W        W64729   7.216  38.925  12.092
 3364W        W64730  18.764  26.079  12.012
 3365W        W64731  20.201  32.569   3.233
 3366W        W64732  17.770  25.091   0.325
 3367W        W64733   8.714  15.779   1.259
 3368W        W64734  36.526   1.886   5.198
 3369W        W64735  40.365   0.950  12.005
 3370W        W64736  32.918  42.416  12.580
 3371W        W64737   5.406   5.926  11.446
 3372W        W64738  39.830  27.023   3.160
 3373W        W64739  25.053  38.993  12.975
 3374W        W64740   5.288  35.062   4.118
 3375W        W64741  14.171   0.334   3.193
 3376W        W64742  16.632  44.907  10.959
 3377W        W64743  18.262  31.438  12.562
 3378W        W64744  29.054  44.884   0.297
 3379W        W64745  23.522   4.333  14.988
 3380W        W64746  25.479  31.602   1.854
 3381W        W64747   1.774   8.840   1.895
 3382W        W64748   0.842  17.250  12.057
 3383W        W64749  34.401  16.154  12.348
 3384W        W64750   7.281  31.048   2.404
 3385W        W64751   3.920  15.204   9.966
 3386W        W64752  14.689   4.364   1.843
 3387W        W64753   5.758  18.750  12.006
 3388W        W64754  17.206  40.360   0.473
 3389W        W64755  44.976  35.961  10.425
 3390W        W64756  22.151  22.027   2.814
 3391W        W64757  31.638   8.767   1.716
 3392W        W64758   3.401   0.338  13.830
 3393W        W64759  30.603  26.055  11.506
 3394W        W64760  25.515  13.142  14.484
 3395W        W64761  24.086   3.937  13.925
 3396W        W64762  10.723  42.780  12.878
 3397W        W64763  17.140  38.004  13.456
 3398W        W64764   9.853  14.279  14.972
 3399W        W64765  43.804  31.524  11.950
 3400W        W64766  30.625   4.373   2.794
 3401W        W64767  32.524  10.645   2.240
 3402W        W64768  29.173  22.027  12.002
 3403W        W64769  29.031  35.016  13.446
 3404W        W64770  20.159  15.277  14.290
 3405W        W64771  33.399   0.298  13.487
 3406W        W64772  44.258   3.260  10.941
 3407W        W64773   0.418  39.368  14.501
 3408W        W64774  22.560  27.155   3.252
 3409W        W64775  17.607  42.372   2.704
 3410W        W64776   5.826  42.923   0.747
 3411W        W64777  27.565  24.185  12.851
 3412W        W64778  34.037  15.322   1.774
 3413W        W64779   3.816   6.202   2.716
 3414W        W64780  32.955  30.570   4.161
 3415W        W64781  31.456  20.198   3.840
 3416W        W64782   9.869   0.948   4.302
 3417W        W64783  17.782  14.278   0.827
 3418W        W64784  12.778   9.711   3.362
 3419W        W64785   8.367  24.996  11.576
 3420W        W64786  18.064   8.677  14.791
 3421W        W64787   5.889  17.192   3.166
 3422W        W64788   5.307  43.960   1.265
 3423W        W64789  13.164  37.384   2.796
 3424W        W64790  11.782  12.709  12.493
 3425W        W64791  39.947  33.477  13.415
 3426W        W64792  27.649  12.186  13.048
 3427W        W64793  33.618  28.545  14.894
 3428W        W64794  36.591  17.630  13.433
 3429W        W64795   8.277  10.237  11.026
 3430W        W64796   5.879   7.801   4.809
 3431W        W64797  14.157  41.536   1.766
 3432W        W64798  32.554   6.327  10.089
 3433W        W64799   5.878  39.399  13.377
 3434W        W64800   5.376  12.158   2.390
 3435W        W64801  26.194  26.998  13.311
 3436W        W64802  11.691  17.111  11.393
 3437W        W64803  41.468  38.325  11.946
 3438W        W64804   6.746  25.533   4.257
 3439W        W64805  40.513  11.756   2.852
 3440W        W64806  27.170  11.835  14.948
 3441W        W64807  13.161  26.967  11.879
 3442W        W64808  20.045  33.890  14.375
 3443W        W64809  30.957  37.894   3.712
 3444W        W64810   5.851  31.106   1.826
 3445W        W64811   3.729  42.938   0.736
 3446W        W64812  32.620  18.269  10.446
 3447W        W64813   1.388  29.158   3.320
 3448W        W64814  23.515  40.328   4.280
 3449W        W64815  31.139  20.257  11.389
 3450W        W64816   6.889  39.045  14.336
 3451W        W64817  36.025  44.342  13.311
 3452W        W64818  36.862   8.840   2.798
 3453W        W64819  21.556  26.998  11.000
 3454W        W64820  24.109  30.505  12.524
 3455W        W64821  11.761  32.520   3.188
 3456W        W64822   9.888   3.245  10.494
 3457W        W64823  20.153  28.990  12.427
 3458W        W64824  23.588  17.236   4.743
 3459W        W64825  36.418  40.441  11.610
 3460W        W64826  29.051  38.403   2.892
 3461W        W64827  29.003   5.411  13.308
 3462W        W64828  35.863   7.363  11.471
 3463W        W64829  43.795  36.411   3.674
 3464W        W64830  16.185   9.194   4.288
 3465W        W64831   3.374  10.730  12.489
 3466W        W64832  18.717  40.840  14.427
 3467W        W64833  36.503  40.954  10.064
 3468W        W64834  19.138  13.332  11.431
 3469W        W64835  28.500  35.573   4.257
 3470W        W64836  20.053  32.984  14.020
 3471W        W64837  40.919   4.393  12.988
 3472W        W64838  16.235  14.199  11.523
 3473W        W64839  23.122  39.378   0.346
 3474W        W64840  35.022  30.499  11.546
 3475W        W64841  13.773  39.431  12.536
 3476W        W64842  29.079  14.338   1.273
 3477W        W64843  34.594  44.907  13.829
 3478W        W64844  29.999  36.963   4.775
 3479W        W64845  14.113  10.699   3.221
 3480W        W64846  38.427  18.650   0.811
 3481W        W64847   4.249  15.286  12.419
 3482W        W64848  32.402   2.922  13.844
 3483W        W64849   0.876   4.426   3.811
 3484W        W64850  16.678  18.616  10.026
 3485W        W64851   4.825  28.649   1.331
 3486W        W64852  22.524   9.351  11.439
 3487W        W64853  27.065   1.977   1.918
 3488W        W64854  40.395  44.445  13.412
 3489W        W64855  12.734  12.299  11.483
 3490W        W64856  25.040  20.222   0.383
 3491W        W64857  29.623  14.271   2.853
 3492W        W64858  12.286  22.108   1.830
 3493W        W64859   7.767  41.425  11.045
 3494W        W64860  16.280  32.407   4.293
 3495W        W64861  43.932  25.011  14.341
 3496W        W64862  41.890  33.443   2.402
 3497W        W64863  15.720  32.504   5.712
 3498W        W64864  36.022  19.731   3.728
 3499W        W64865  21.555  18.547   0.918
 3500W        W64866   0.948  16.721   1.390
 3501W        W64867  14.141  27.513  11.859
 3502W        W64868  30.917  12.716   0.743
 3503W        W64869   1.926  36.570   1.914
 3504W        W64870  26.695  35.873  13.822
 3505W        W64871  34.486  19.043   4.188
 3506W        W64872  43.357   1.440  11.912
 3507W        W64873  28.586  44.373  13.481
 3508W        W64874  39.907  19.748   0.890
 3509W        W64875  19.708  39.382   0.752
 3510W        W64876   4.243   2.426   0.761
 3511W        W64877   8.878   3.426  14.875
 3512W        W64878  13.711  24.212  12.422
 3513W        W64879  36.001   6.240   4.752
 3514W        W64880   2.365   4.738   5.171
 3515W        W64881  38.535  25.022   2.269
 3516W        W64882  31.461  42.368   4.608
 3517W        W64883  10.152  23.588   9.924
 3518W        W64884  11.339  17.586   0.459
 3519W        W64885  14.226  29.977  14.877
 3520W        W64886   4.414   4.299  11.374
 3521W        W64887  41.405   4.743  14.875
 3522W        W64888  26.653   8.324  12.908
 3523W        W64889   7.709  22.057  11.113
 3524W        W64890   1.403  40.816   2.682
 3525W        W64891  26.612  35.418   2.883
 3526W        W64892   5.407   4.209   0.812
 3527W        W64893  33.588  20.097   3.772
 3528W        W64894  11.720  18.156  14.428
 3529W        W64895  15.112  36.057  14.394
 3530W        W64896  12.718  22.545  13.314
 3531W        W64897  43.015   8.731   1.734
 3532W        W64898   2.901  32.988   3.751
 3533W        W64899  11.251  36.468   4.676
 3534W        W64900  20.179   6.394   5.304
 3535W        W64901  27.584  34.483   0.335
 3536W        W64902  26.190  21.648  12.005
 3537W        W64903   1.850  10.215   0.841
 3538W        W64904  14.278  21.170  10.918
 3539W        W64905  21.071   3.241   1.869
 3540W        W64906  11.693  11.321  10.499
 3541W        W64907  22.666  18.549   3.804
 3542W        W64908  35.948  36.871  10.520
 3543W        W64909   9.740  37.556  12.042
 3544W        W64910  34.004  33.481   1.849
 3545W        W64911  32.564   8.375  12.870
 3546W        W64912  28.053   1.947   3.146
 3547W        W64913   0.801  10.339  10.523
 3548W        W64914  13.704   7.340   4.177
 3549W        W64915  41.859  41.025   3.203
 3550W        W64916  29.135  28.483   9.542
 3551W        W64917  21.256  28.162  14.459
 3552W        W64918  36.593  28.165   0.952
 3553W        W64919  29.650  11.672  13.404
 3554W        W64920  41.004  38.454   0.914
 3555W        W64921  34.543  21.174   3.227
 3556W        W64922   2.338  29.163   1.387
 3557W        W64923  14.267  10.333   4.824
 3558W        W64924   0.860  14.178  11.869
 3559W        W64925  25.045   6.776   1.748
 3560W        W64926  12.229  25.156   0.411
 3561W        W64927  15.749  20.210   0.947
 3562W        W64928  22.508   3.874   0.936
 3563W        W64929  31.485  16.591   4.668
 3564W        W64930  20.092  11.226  13.445
 3565W        W64931  10.853  42.392  13.464
 3566W        W64932  28.450   3.808  10.507
 3567W        W64933  13.768  19.154   4.217
 3568W        W64934   7.210  26.166   2.238
 3569W        W64935   0.899   5.815  14.973
 3570W        W64936  26.079   4.829   0.244
 3571W        W64937  36.883  31.147   0.756
 3572W        W64938   2.381  30.104   1.756
 3573W        W64939  15.287  23.550  10.415
 3574W        W64940  14.691  33.048  14.491
 3575W        W64941   0.383  44.419   3.250
 3576W        W64942  41.522  35.879  10.626
 3577W        W64943  11.153  39.411   4.805
 3578W        W64944  38.920   6.779   2.780
 3579W        W64945  35.945  34.010   0.375
 3580W        W64946   0.983  23.121   0.962
 3581W        W64947  27.453  36.843  12.528
 3582W        W64948  41.787  30.485  11.594
 3583W        W64949  13.773  40.430   0.907
 3584W        W64950  30.542  34.592  14.917
 3585W        W64951  15.729  28.045   1.305
 3586W        W64952  42.795  30.637   2.891
 3587W        W64953  33.467  25.671  13.351
 3588W        W64954  35.938   0.793   5.204
 3589W        W64955  10.842  35.974   1.824
 3590W        W64956  40.938  19.197  12.580
 3591W        W64957  43.398   4.718  10.061
 3592W        W64958  30.414  29.005   4.115
 3593W        W64959  25.995  19.674  12.377
 3594W        W64960  21.633   9.210  12.941
 3595W        W64961  17.085   4.729  14.903
 3596W        W64962  29.168  33.987  14.496
 3597W        W64963  36.593  18.777   5.216
 3598W        W64964  15.149  15.115   0.295
 3599W        W64965  12.685  10.871  12.068
 3600W        W64966   0.760  18.250  11.895
 3601W        W64967  43.383  36.561  14.905
 3602W        W64968  10.802  12.283  12.526
 3603W        W64969   8.706  19.664  13.519
 3604W        W64970  21.188  43.920   3.244
 3605W        W64971  39.386  32.092   3.280
 3606W        W64972  13.293   8.195  14.499
 3607W        W64973  43.461  16.079   2.396
 3608W        W64974   6.306  22.166  14.375
 3609W        W64975  40.804   3.411  13.470
 3610W        W64976  24.664  35.526   9.501
 3611W        W64977  37.553  23.215  14.911
 3612W        W64978   1.780  24.183   2.351
 3613W        W64979  42.482   2.299   1.716
 3614W        W64980  23.608  19.678  14.766
 3615W        W64981  25.590  28.963  11.562
 3616W        W64982  40.488  22.679  11.871
 3617W        W64983  21.524  11.632  13.991
 3618W        W64984  33.113  24.627  13.890
 3619W        W64985  17.754  41.311  10.906
 3620W        W64986  37.890  32.944  12.372
 3621W        W64987  22.209  32.049  13.913
 3622W        W64988  43.348   5.794   1.908
 3623W        W64989  17.688  17.708   0.913
 3624W        W64990  27.170  14.653  13.324
 3625W        W64991  43.949  35.076  10.979
 3626W        W64992  10.732  40.450   0.869
 3627W        W64993  35.903  24.709  13.845
 3628W        W64994   3.783   8.352   0.853
 3629W        W64995  23.506   4.848  13.956
 3630W        W64996  14.208  30.987  14.815
 3631W        W64997   8.884  16.785  14.791
 3632W        W64998  27.482   7.345   4.719
 3633W        W64999  42.287  20.535  11.608
 3634W        W65000   4.759   2.765   9.994
 3635W        W65001  17.709   3.449   4.818
 3636W        W65002   5.353  30.633   2.351
 3637W        W65003   5.717  40.431  11.514
 3638W        W65004   1.359   3.279   0.839
 3639W        W65005  43.792  43.964  12.914
 3640W        W65006   6.756  19.085   1.700
 3641W        W65007   6.341  33.484  10.516
 3642W        W65008  11.667  32.110   1.210
 3643W        W65009  27.593  33.881  11.390
 3644W        W65010  36.068  12.856   4.686
 3645W        W65011  30.627  11.627  13.539
 3646W        W65012  31.905  34.614   3.153
 3647W        W65013   9.231  13.346  11.602
 3648W        W65014  28.117  22.221   0.245
 3649W        W65015  34.414  38.567   1.375
 3650W        W65016  39.864  35.383   4.747
 3651W        W65017  36.890  43.888   1.697
 3652W        W65018   7.398  41.293   3.683
 3653W        W65019  17.611  31.903   5.289
 3654W        W65020  44.475   0.852   3.635
 3655W        W65021  35.360  25.049   4.161
 3656W        W65022  12.729   6.889   4.312
 3657W        W65023  40.924  34.541   4.824
 3658W        W65024  22.644  26.501  14.800
 3659W        W65025  19.656  34.494  12.379
 3660W        W65026   1.784  28.972   3.685
 3661W        W65027  19.273  24.691  11.104
 3662W        W65028   7.897  37.480   0.750
 3663W        W65029  30.918  29.947   2.795
 3664W        W65030   3.909   8.733  12.526
 3665W        W65031   2.772  30.436   0.817
 3666W        W65032  42.458  41.870  13.024
 3667W        W65033  36.884  34.515  11.584
 3668W        W65034  16.662   5.782  10.962
 3669W        W65035   3.232  26.195  14.356
 3670W        W65036  34.068  25.532  11.568
 3671W        W65037  34.465  40.921  11.596
 3672W        W65038   3.298  10.662   0.912
 3673W        W65039  25.084  36.580   3.242
 3674W        W65040  37.516  26.554   0.306
 3675W        W65041   7.681  16.226   3.772
 3676W        W65042   4.746  42.971   4.272
 3677W        W65043  35.857  42.386   3.705
 3678W        W65044  38.053   0.807  14.371
 3679W        W65045  11.335   3.222   0.855
 3680W        W65046  24.088  20.765  12.386
 3681W        W65047   2.303  15.773   1.246
 3682W        W65048  30.450  17.651  14.439
 3683W        W65049  20.173  33.517  14.370
 3684W        W65050   1.474   7.238  10.420
 3685W        W65051  30.460  29.664  13.367
 3686W        W65052  16.799  19.068   0.923
 3687W        W65053  27.009  24.078   1.394
 3688W        W65054   3.367  34.608   1.795
 3689W        W65055  40.868  41.926  12.921
 3690W        W65056   0.889  39.891   3.841
 3691W        W65057  44.262  35.871   4.658
 3692W        W65058   1.425   0.304   4.806
 3693W        W65059  31.645  22.195  13.838
 3694W        W65060   6.839  35.903  12.508
 3695W        W65061  43.279  36.367   0.862
 3696W        W65062  44.867  33.518   2.744
 3697W        W65063  33.036  31.648  11.034
 3698W        W65064  35.530  33.388   1.870
 3699W        W65065  28.116  31.061   3.744
 3700W        W65066  23.016   4.731   0.285
 3701W        W65067  39.980  18.124  11.932
 3702W        W65068   6.253  32.593   1.274
 3703W        W65069  18.747  32.925   0.920
 3704W        W65070  27.995   3.724  12.894
 3705W        W65071  19.274  41.857   1.839
 3706W        W65072  33.518   6.894   1.289
 3707W        W65073  44.921   8.191  12.029
 3708W        W65074  37.355  42.363  13.929
 3709W        W65075   5.317  40.385   0.837
 3710W        W65076   6.392   4.209   3.747
 3711W        W65077  32.614  13.606   3.687
 3712W        W65078  36.003   4.876  11.003
 3713W        W65079  37.372  26.576  14.481
 3714W        W65080  22.634  23.525   0.809
 3715W        W65081  39.317  33.421   3.247
 3716W        W65082   3.778  11.353  12.921
 3717W        W65083  38.344  11.298   2.376
 3718W        W65084  28.081  21.516  13.845
 3719W        W65085   2.727  24.034   2.226
 3720W        W65086  17.174   3.941   4.239
 3721W        W65087  36.967  23.002  10.933
 3722W        W65088  29.926   3.816   3.316
 3723W        W65089  17.201  31.532   4.226
 3724W        W65090   1.332  23.104   0.779
 3725W        W65091   2.325  39.997   3.662
 3726W        W65092  21.075   4.224  10.525
 3727W        W65093  15.300  34.927  12.355
 3728W        W65094   6.338   2.752   4.771
 3729W        W65095  28.678  39.453  11.869
 3730W        W65096   4.876  34.906  10.560
 3731W        W65097   7.234   5.200   2.825
 3732W        W65098  34.591  28.587   3.806
 3733W        W65099   5.766  40.351  13.047
 3734W        W65100  23.576  20.556   1.337
 3735W        W65101   2.850   2.240   0.808
 3736W        W65102   3.909  18.280   0.750
 3737W        W65103  40.824  42.026   2.257
 3738W        W65104  19.142  23.537   3.742
 3739W        W65105   0.394  12.262   0.351
 3740W        W65106  20.174   5.219  11.123
 3741W        W65107  14.626  29.068   4.817
 3742W        W65108  38.404  28.969  11.506
 3743W        W65109   9.234  10.286   1.213
 3744W        W65110  23.215  38.965  13.349
 3745W        W65111  13.335  33.956  14.300
 3746W        W65112  20.709  28.613  14.798
 3747W        W65113   8.704  23.627  10.454
 3748W        W65114   0.393  32.408   1.874
 3749W        W65115  11.816  23.120   1.325
 3750W        W65116  19.569  18.770   0.900
 3751W        W65117  14.288  18.760   1.835
 3752W        W65118  40.524  34.613   1.329
 3753W        W65119  15.319  40.878   0.966
 3754W        W65120   6.413  44.878   2.210
 3755W        W65121  21.146  30.659  14.502
 3756W        W65122  17.163  38.075   1.878
 3757W        W65123  15.245  26.670  11.568
 3758W        W65124   4.285  31.527  11.120
 3759W        W65125  31.447  17.258  10.412
 3760W        W65126  38.059  21.034  12.002
 3761W        W65127  32.543  17.723   1.811
 3762W        W65128  24.165  12.232   0.259
 3763W        W65129   1.357   5.263  14.992
 3764W        W65130   0.982  16.240  14.799
 3765W        W65131  35.018   7.301  13.052
 3766W        W65132  30.074   1.848   4.304
 3767W        W65133  27.602  27.157  12.359
 3768W        W65134  39.867   7.869   4.186
 3769W        W65135  23.195  13.773  11.101
 3770W        W65136  40.380  19.654  11.488
 3771W        W65137  23.736  19.129  14.988
 3772W        W65138  23.058   8.689  14.789
 3773W        W65139  29.609  32.076  12.562
 3774W        W65140   2.857  11.284   0.398
 3775W        W65141  39.028  16.229   1.913
 3776W        W65142   6.236  13.743   2.858
 3777W        W65143  19.153  19.258  13.400
 3778W        W65144  31.516  28.640  11.489
 3779W        W65145  34.066  26.600   4.801
 3780W        W65146  14.598  17.694  14.913
 3781W        W65147  17.185  14.292  10.530
 3782W        W65148  35.094  13.218   3.211
 3783W        W65149  39.963  31.565   0.948
 3784W        W65150   0.474  15.744   2.341
 3785W        W65151  11.805  21.697   0.834
 3786W        W65152   6.711   4.213  10.582
 3787W        W65153  21.088  44.398   0.789
 3788W        W65154  42.288  27.482   2.809
 3789W        W65155  16.635  14.812  12.569
 3790W        W65156   3.374  14.592  14.807
 3791W        W65157   9.690  35.424   2.345
 3792W        W65158  25.181  39.353   0.328
 3793W        W65159   8.734  25.638   4.303
 3794W        W65160  21.190  29.552   4.681
 3795W        W65161  15.098   9.874   3.229
 3796W        W65162  34.947  29.500   0.862
 3797W        W65163  12.142  40.440   4.332
 3798W        W65164   4.308  25.570  14.372
 3799W        W65165  37.980  26.693  12.355
 3800W        W65166  38.824  42.292  13.846
 3801W        W65167   4.911  31.460  14.345
 3802W        W65168  33.504   9.172  11.013
 3803W        W65169  16.189  37.571  13.027
 3804W        W65170  34.383  30.963   4.836
 3805W        W65171  31.137  30.043   4.756
 3806W        W65172  33.967   6.894  12.577
 3807W        W65173   7.391  39.453  11.062
 3808W        W65174  25.198  25.512  11.574
 3809W        W65175  30.995   1.321   4.737
 3810W        W65176  17.585  16.574  14.936
 3811W        W65177   5.832  11.668   3.728
 3812W        W65178  20.550  19.618   4.742
 3813W        W65179  18.674   1.867  11.522
 3814W        W65180  35.047   8.262  13.913
 3815W        W65181  10.217  36.955  12.988
 3816W        W65182  42.499  37.988   4.278
 3817W        W65183   0.280  12.649   1.874
 3818W        W65184   9.169  15.580  10.960
 3819W        W65185  19.246   1.862   3.826
 3820W        W65186  20.663  24.975   4.836
 3821W        W65187  13.690  33.945  11.895
 3822W        W65188  22.197  23.504   3.216
 3823W        W65189  24.220   2.332   4.118
 3824W        W65190  16.621   7.399  13.010
 3825W        W65191  40.959  40.450  11.579
 3826W        W65192  15.600   1.400   2.818
 3827W        W65193  42.872   1.827  13.983
 3828W        W65194  16.278  16.716   4.211
 3829W        W65195   4.860  17.776   1.420
 3830W        W65196  39.322   6.780  11.600
 3831W        W65197  25.028   2.808  13.423
 3832W        W65198  12.697   2.363   1.749
 3833W        W65199  43.836  22.676  11.459
 3834W        W65200  22.649  41.440   3.632
 3835W        W65201  29.638   0.494   2.405
 3836W        W65202  39.922   7.292  14.389
 3837W        W65203  41.904  24.500   1.332
 3838W        W65204  28.575  10.303   4.627
 3839W        W65205   0.755  10.278   3.717
 3840W        W65206  14.624  36.901   3.795
 3841W        W65207  15.737  25.494  11.988
 3842W        W65208  41.975  15.180  13.514
 3843W        W65209  42.311  30.968  14.853
 3844W        W65210  25.076   7.700  13.315
 3845W        W65211   2.412  14.133   4.328
 3846W        W65212  14.102  18.704  10.482
 3847W        W65213  25.049  26.132  11.038
 3848W        W65214   9.698  31.965   3.164
 3849W        W65215  44.995   4.719  13.405
 3850W        W65216  16.746  22.052  11.526
 3851W        W65217  18.724   7.221   3.357
 3852W        W65218  21.059  22.199   4.246
 3853W        W65219  24.216  16.798   0.882
 3854W        W65220  32.059  37.497  10.416
 3855W        W65221  30.587  24.081   0.415
 3856W        W65222  23.537   5.252   0.934
 3857W        W65223  20.143   0.873   1.342
 3858W        W65224  13.118   2.357  14.934
 3859W        W65225   0.828   7.791   2.668
 3860W        W65226  10.653  39.444   1.307
 3861W        W65227  43.400  35.579   0.325
 3862W        W65228  11.768  19.582   9.932
 3863W        W65229  39.450   9.252  14.394
 3864W        W65230  38.368   0.290  11.085
 3865W        W65231  31.141   2.311  11.898
 3866W        W65232  25.705  19.078   4.615
 3867W        W65233  10.338  12.687   4.641
 3868W        W65234  27.138  40.515  12.851
 3869W        W65235  40.340  44.399   0.727
 3870W        W65236  39.884  35.516   0.733
 3871W        W65237  10.312  14.751  12.893
 3872W        W65238  22.638  23.669  11.127
 3873W        W65239  11.282   5.252   0.751
 3874W        W65240   9.689   3.405  13.402
 3875W        W65241  31.554  30.539  11.399
 3876W        W65242   1.921  26.970   0.347
 3877W        W65243  38.825  38.535  13.537
 3878W        W65244  44.965  11.862   4.168
 3879W        W65245  21.123  44.998   0.922
 3880W        W65246  19.639  37.427  11.497
 3881W        W65247   1.898  35.439  14.303
 3882W        W65248  35.528  38.008  11.103
 3883W        W65249  29.938  19.709  12.831
 3884W        W65250  38.026   9.657   1.741
 3885W        W65251  37.870  41.958  12.461
 3886W        W65252  32.610   9.307  11.864
 3887W        W65253  33.602   6.308   4.249
 3888W        W65254   2.328  16.708   2.872
 3889W        W65255  13.216  27.663  14.944
 3890W        W65256   5.717  16.791   1.885
 3891W        W65257  23.653   6.234   1.261
 3892W        W65258   5.274   9.270  13.863
 3893W        W65259   2.458   1.827   4.795
 3894W        W65260   2.763   3.711   2.331
 3895W        W65261  14.763   9.651  11.606
 3896W        W65262  17.269   1.763   2.297
 3897W        W65263  42.492  17.181  12.425
 3898W        W65264  22.502   3.282   1.246
 3899W        W65265  28.439  26.625  11.026
 3900W        W65266  13.669  29.042   4.326
 3901W        W65267  22.043  37.049   2.792
 3902W        W65268  32.070  31.911   4.735
 3903W        W65269   1.330  20.589   0.402
 3904W        W65270  30.576  30.621  13.993
 3905W        W65271  26.614  15.280   3.854
 3906W        W65272  29.093  31.444   1.439
 3907W        W65273  13.113  25.581   3.738
 3908W        W65274   8.372  35.972   4.241
 3909W        W65275  16.693   5.705   1.232
 3910W        W65276  38.043   3.267   1.713
 3911W        W65277  17.255  13.798  11.956
 3912W        W65278  24.981  38.514   4.701
 3913W        W65279  13.626   0.372  13.047
 3914W        W65280  27.072  42.286   1.788
 3915W        W65281  11.269  22.096  11.571
 3916W        W65282  25.060  23.603  14.987
 3917W        W65283  40.996  40.864   3.736
 3918W        W65284  18.652  33.496  13.516
 3919W        W65285  23.227  19.138   1.235
 3920W        W65286  19.619  39.535  11.861
 3921W        W65287   7.270  17.095   1.442
 3922W        W65288  26.032  42.963  13.024
 3923W        W65289  27.958  30.096  12.510
 3924W        W65290   8.296  26.513   0.923
 3925W        W65291  31.035  12.613  12.453
 3926W        W65292  26.484   0.761  11.117
 3927W        W65293  43.504   3.753  10.534
 3928W        W65294  35.485  16.297  11.533
 3929W        W65295  35.913  14.661   0.845
 3930W        W65296  23.515  39.462  13.952
 3931W        W65297  42.788  20.555   0.958
 3932W        W65298  21.254  33.479  14.499
 3933W        W65299  31.919  19.080   4.150
 3934W        W65300   3.402   8.283  11.436
 3935W        W65301   1.274  26.571  10.519
 3936W        W65302  41.362  15.758  13.043
 3937W        W65303  31.408  41.343  11.549
 3938W        W65304  21.740  32.010   2.409
 3939W        W65305  15.271   6.368  10.528
 3940W        W65306  44.000  43.895  14.896
 3941W        W65307   0.420   4.252   2.679
 3942W        W65308   8.735   4.936   5.318
 3943W        W65309  21.558  31.000  11.086
 3944W        W65310  26.523  29.572  12.426
 3945W        W65311  43.014  39.831   3.154
 3946W        W65312  18.585  37.545   3.844
 3947W        W65313  43.385  27.619  13.800
 3948W        W65314   9.269  11.234  13.436
 3949W        W65315  17.303  14.673   2.686
 3950W        W65316  32.090  43.508   2.231
 3951W        W65317   3.341  19.548  11.086
 3952W        W65318  24.167  43.985  11.424
 3953W        W65319  19.130  29.089   4.177
 3954W        W65320  16.581  10.361   4.229
 3955W        W65321  44.303  18.649   3.776
 3956W        W65322  39.043  23.701  12.984
 3957W        W65323  41.363  32.463  14.821
 3958W        W65324  11.809  12.828   1.309
 3959W        W65325  11.827  14.603  10.076
 3960W        W65326   1.747  33.517  11.552
 3961W        W65327  19.260  28.457  12.501
 3962W        W65328   8.753  21.102  14.852
 3963W        W65329  15.175   9.372  10.891
 3964W        W65330  39.885  42.284   4.623
 3965W        W65331  11.705  22.121   3.817
 3966W        W65332  44.332   1.945  11.013
 3967W        W65333  12.175  29.583   4.336
 3968W        W65334   9.777   5.278   2.768
 3969W        W65335  17.785  23.603  11.985
 3970W        W65336  20.568   4.359  10.610
 3971W        W65337  16.169  35.041  14.996
 3972W        W65338  43.437   7.344  13.026
 3973W        W65339  16.786  34.076   3.338
 3974W        W65340  28.535  17.290   4.308
 3975W        W65341  44.359  27.540   4.653
 3976W        W65342  24.724  10.344   0.912
 3977W        W65343   3.821  40.802   3.808
 3978W        W65344  34.387  29.951  14.862
 3979W        W65345  27.078  38.363  14.931
 3980W        W65346  40.993  20.244  12.981
 3981W        W65347  30.437   7.755   4.674
 3982W        W65348  26.519   8.859  10.556
 3983W        W65349  13.654  22.581  13.929
 3984W        W65350  30.137  16.080  13.334
 3985W        W65351   1.270  26.071   3.369
 3986W        W65352  19.135  16.301  10.528
 3987W        W65353   2.390  18.771   1.395
 3988W        W65354  18.687   0.335  10.908
 3989W        W65355   9.230  37.835   4.680
 3990W        W65356  40.331  42.906  13.926
 3991W        W65357  16.104   4.772   1.363
 3992W        W65358  36.444   8.663   1.451
 3993W        W65359   0.333  14.095  11.378
 3994W        W65360   2.402  44.355   0.938
 3995W        W65361  38.516   7.211   4.833
 3996W        W65362   7.214  44.958  14.876
 3997W        W65363  31.607  36.092   2.412
 3998W        W65364   3.410  11.316   3.208
 3999W        W65365  29.004  20.106   3.853
 4000W        W65366  19.147   9.659   1.438
 4001W        W65367  26.093   2.728   3.357
 4002W        W65368  21.619   9.211  11.113
 4003W        W65369  36.494   1.388   1.356
 4004W        W65370  11.264  38.340   0.367
 4005W        W65371   8.727   1.770   4.836
 4006W        W65372  37.424  33.499   3.690
 4007W        W65373  44.947   0.977  11.932
 4008W        W65374  41.845   8.819   1.891
 4009W        W65375  44.898  12.853   0.459
 4010W        W65376  16.275  39.478   4.254
 4011W        W65377  19.628  13.691   4.173
 4012W        W65378  15.824  32.134  13.998
 4013W        W65379   2.942  23.107  12.498
 4014W        W65380  30.078   8.750  14.908
 4015W        W65381  15.292  31.018  14.283
 4016W        W65382  24.065  37.946  13.453
 4017W        W65383  32.617  29.146  10.570
 4018W        W65384   8.255   2.845  13.395
 4019W        W65385   2.730  19.070   4.261
 4020W        W65386  30.588  24.208  10.028
 4021W        W65387   4.223  38.960   0.727
 4022W        W65388  15.675  40.342  10.111
 4023W        W65389  24.701  33.541   0.935
 4024W        W65390  39.452  43.803   1.303
 4025W        W65391   8.339   5.409   3.359
 4026W        W65392  27.446   6.323   3.202
 4027W        W65393  30.031  43.863   3.228
 4028W        W65394  36.077   1.239   3.339
 4029W        W65395  15.198  39.505  10.555
 4030W        W65396  12.161  31.516  11.578
 4031W        W65397  30.577  21.090   2.672
 4032W        W65398  37.959   4.254  12.532
 4033W        W65399  28.530  18.239   3.767
 4034W        W65400   4.302  43.395   3.798
 4035W        W65401  40.486  44.790   2.193
 4036W        W65402  26.109   6.776  13.392
 4037W        W65403  39.545   3.313   2.349
 4038W        W65404  32.066  21.195   5.177
 4039W        W65405  17.666   3.832   2.806
 4040W        W65406  15.714  44.839   3.214
 4041W        W65407  36.467  24.503  14.772
 4042W        W65408  44.802  41.537  12.863
 4043W        W65409  12.255  26.666  12.490
 4044W        W65410   1.927   5.328  11.432
 4045W        W65411  21.157  21.170   1.374
 4046W        W65412   1.756   2.938   1.375
 4047W        W65413   4.907  42.827   0.482
 4048W        W65414  16.685  40.945  13.051
 4049W        W65415  19.049  40.895   3.315
 4050W        W65416   6.282  41.437   0.867
 4051W        W65417  19.731   7.881  13.915
 4052W        W65418  22.247  26.542   2.880
 4053W        W65419   2.411  32.582  13.489
 4054W        W65420  39.980   4.727  13.516
 4055W        W65421   1.304   6.887  10.543
 4056W        W65422  39.389  24.557  10.968
 4057W        W65423   8.730  10.745  14.962
 4058W        W65424  10.230  39.461   5.108
 4059W        W65425  11.708   2.779   1.267
 4060W        W65426  27.691  24.041  10.606
 4061W        W65427  16.681  18.774   3.181
 4062W        W65428   8.330  31.922  11.454
 4063W        W65429  27.174  37.521   2.688
 4064W        W65430   3.731  36.402  14.933
 4065W        W65431  36.559  42.974  11.387
 4066W        W65432  11.713  28.521  10.907
 4067W        W65433  24.188  31.501   2.207
 4068W        W65434  34.866  32.904  10.477
 4069W        W65435  41.033  44.390  13.918
 4070W        W65436   5.856   5.794   2.313
 4071W        W65437   3.383   3.279  12.042
 4072W        W65438  15.244  25.028   0.836
 4073W        W65439  32.489  25.183   3.298
 4074W        W65440  27.990  38.367   0.841
 4075W        W65441  33.014  22.048   3.729
 4076W        W65442  22.704  11.338   0.330
 4077W        W65443  42.306  21.164  14.351
 4078W        W65444   7.761  43.929  14.934
 4079W        W65445  41.517  26.077   0.354
 4080W        W65446  44.942  25.186  14.911
 4081W        W65447  26.189  32.548  10.411
 4082W        W65448   9.714  34.416  11.492
 4083W        W65449  10.752  22.504  13.795
 4084W        W65450  16.711  29.123   4.326
 4085W        W65451  35.367  12.214   4.792
 4086W        W65452  44.897  30.587  14.897
 4087W        W65453  29.507  37.338  14.310
 4088W        W65454  14.095   6.281   4.770
 4089W        W65455   0.931   9.747  12.395
 4090W        W65456  39.539  25.531  12.988
 4091W        W65457  28.988  17.770   2.830
 4092W        W65458  41.423  24.506   3.827
 4093W        W65459  27.012  36.963   1.876
 4094W        W65460   7.203   9.757   0.827
 4095W        W65461  42.493  11.312  12.026
 4096W        W65462  24.487  12.637  13.996
 4097W        W65463  24.505  24.664   3.182
 4098W        W65464  21.196  39.877   0.332
 4099W        W65465  33.938   6.900   0.277
 4100W        W65466  14.806  20.251  13.843
 4101W        W65467   1.409  40.044  11.574
 4102W        W65468  36.387   2.807  10.606
 4103W        W65469  34.104  34.471   1.804
 4104W        W65470   5.689  15.147  10.072
 4105W        W65471   0.436  18.097  11.857
 4106W        W65472   0.950  25.069   1.885
 4107W        W65473  14.275   1.897  12.091
 4108W        W65474  17.083   9.813   2.704
 4109W        W65475   8.278  35.023   4.636
 4110W        W65476  37.430  30.090  11.923
 4111W        W65477  12.220   0.300  11.393
 4112W        W65478   3.301   9.872   2.822
 4113W        W65479  14.158   4.272   1.802
 4114W        W65480  17.268  31.109   1.327
 4115W        W65481  37.003  32.052   4.323
 4116W        W65482  32.556  14.758   2.790
 4117W        W65483  34.471  13.190   4.135
 4118W        W65484   5.266   8.198  13.488
 4119W        W65485  32.020  33.577  11.922
 4120W        W65486  27.461  29.166   0.244
 4121W        W65487  24.200  39.905  12.906
 4122W        W65488   3.452  35.602   1.224
 4123W        W65489   3.917  28.469   1.397
 4124W        W65490   3.925  27.616   4.660
 4125W        W65491  17.667   2.801   2.219
 4126W        W65492  36.958  36.049  14.300
 4127W        W65493  10.201  27.566   1.913
 4128W        W65494  21.543  35.894  14.407
 4129W        W65495  35.943  38.522   3.744
 4130W        W65496   8.228   1.854   0.327
 4131W        W65497  23.058  11.217  11.496
 4132W        W65498  29.633  31.094   2.192
 4133W        W65499  41.015  41.804  10.559
 4134W        W65500  31.635  36.983   4.224
 4135W        W65501  12.703  23.686   3.779
 4136W        W65502  28.987  35.446   0.876
 4137W        W65503  29.959  34.976  11.495
 4138W        W65504  25.166  43.913  14.382
 4139W        W65505  27.530   7.887  10.415
 4140W        W65506  14.758  18.598  11.003
 4141W        W65507  10.866  25.074  11.385
 4142W        W65508  17.095  22.619  10.977
 4143W        W65509  42.331  36.571   3.798
 4144W        W65510  30.936  30.036  13.877
 4145W        W65511  21.017   8.233  14.022
 4146W        W65512   4.359  40.809   4.208
 4147W        W65513   4.709  23.218   4.688
 4148W        W65514  21.651  39.826  14.352
 4149W        W65515   9.377  31.426   2.851
 4150W        W65516  39.057  32.455  12.951
 4151W        W65517  27.071   4.823  13.403
 4152W        W65518  21.108  22.510   5.121
 4153W        W65519  44.461  28.145   1.289
 4154W        W65520  11.317  35.916   3.303
 4155W        W65521   5.360  16.812  13.897
 4156W        W65522  17.288   3.821  14.441
 4157W        W65523  38.502   2.827  10.524
 4158W        W65524  14.104  11.728   5.225
 4159W        W65525  43.804  39.433  11.941
 4160W        W65526  32.068  21.750   2.848
 4161W        W65527  26.533  32.397  10.556
 4162W        W65528   2.351   0.273  11.891
 4163W        W65529  30.606  23.710   0.929
 4164W        W65530  15.166  22.086   1.708
 4165W        W65531   2.958   6.273  14.933
 4166W        W65532  19.578  10.646  10.975
 4167W        W65533  31.129  27.170   4.725
 4168W        W65534  40.886  21.753   3.304
 4169W        W65535   4.356  34.070  11.589
 4170W        W65536   1.455  22.208   4.793
 4171W        W65537   0.418  26.122  12.834
 4172W        W65538  29.055  18.720   2.399
 4173W        W65539  21.589  35.473  11.869
 4174W        W65540  23.714  28.091  12.383
 4175W        W65541  11.259  38.530  10.495
 4176W        W65542  10.362  15.627  10.598
 4177W        W65543   6.774   6.400  12.084
 4178W        W65544  24.037  24.124   1.375
 4179W        W65545  16.268  11.667  11.936
 4180W        W65546   6.236  27.623   3.192
 4181W        W65547  28.681  10.300  12.570
 4182W        W65548  43.427  40.314   3.292
 4183W        W65549  26.140  17.607  13.539
 4184W        W65550  38.557  22.647   4.274
 4185W        W65551  30.434   3.242   1.891
 4186W        W65552   6.208  37.947  13.803
 4187W        W65553  33.885   4.331  13.876
 4188W        W65554  29.037  32.955  13.039
 4189W        W65555  24.679  43.997  14.775
 4190W        W65556   0.879  42.411   4.330
 4191W        W65557   4.834  34.956   4.336
 4192W        W65558  22.539  13.228   3.836
 4193W        W65559  18.204  40.951  14.285
 4194W        W65560  42.327  42.283   4.759
 4195W        W65561  11.697  24.104  12.970
 4196W        W65562  22.727  38.822   3.173
 4197W        W65563   1.472  27.170  10.418
 4198W        W65564  29.167  23.023   0.809
 4199W        W65565  16.217  10.180  10.567
 4200W        W65566   0.445   1.810   0.455
 4201W        W65567  17.682  20.255  10.936
 4202W        W65568  24.625  23.583   3.791
 4203W        W65569   1.880  33.518  12.396
 4204W        W65570  25.487  18.151   1.926
 4205W        W65571  10.815  35.397   3.377
 4206W        W65572  36.078   5.761   0.419
 4207W        W65573  11.257  19.537  13.948
 4208W        W65574  39.908  12.795   3.787
 4209W        W65575  44.426  24.575  12.942
 4210W        W65576  20.031  16.197  14.929
 4211W        W65577  34.442  23.105   0.459
 4212W        W65578   5.394  44.923   2.682
 4213W        W65579  39.475  20.724   3.285
 4214W        W65580   2.767  34.961  14.950
 4215W        W65581  23.218  25.182  14.802
 4216W        W65582   6.751  21.182   1.276
 4217W        W65583  34.542  40.019  13.856
 4218W        W65584  26.195  16.109  12.901
 4219W        W65585  33.952  27.596  12.461
 4220W        W65586  41.904  16.703  14.926
 4221W        W65587  32.889   2.899   2.389
 4222W        W65588  11.833  38.345  11.981
 4223W        W65589  21.669  10.281   1.332
 4224W        W65590  38.059  10.775  13.542
 4225W        W65591  35.534  15.277  11.938
 4226W        W65592  10.376   7.671   4.315
 4227W        W65593   6.762  39.325   0.454
 4228W        W65594  39.518  33.079   0.758
 4229W        W65595  39.424  36.042   1.774
 4230W        W65596  37.900  44.820   1.347
 4231W        W65597  25.616  44.314   3.728
 4232W        W65598   9.808  20.267   4.767
 4233W        W65599  44.932  32.409   2.776
 4234W        W65600  11.709  43.901  10.623
 4235W        W65601   5.812  25.569  11.410
 4236W        W65602  20.037  22.662  14.808
 4237W        W65603   1.405  42.314   4.165
 4238W        W65604   0.932  17.608   0.834
 4239W        W65605   8.837  13.775   4.158
 4240W        W65606   0.488   3.730   1.718
 4241W        W65607  24.007  29.669   0.255
 4242W        W65608  10.189   0.423  10.026
 4243W        W65609  10.878  37.577   2.372
 4244W        W65610  31.521   0.829   0.318
 4245W        W65611  19.583   8.263   2.882
 4246W        W65612  25.607  10.167   0.794
 4247W        W65613  26.112  19.586   2.718
 4248W        W65614  10.794  18.183   4.246
 4249W        W65615  39.817   9.188   2.899
 4250W        W65616   4.292  43.899  14.308
 4251W        W65617  43.334  18.702  11.000
 4252W        W65618   8.282  37.510   0.822
 4253W        W65619   4.849  35.588   2.809
 4254W        W65620  18.062  31.137   3.339
 4255W        W65621  18.137  14.794  12.918
 4256W        W65622  39.508  37.464   3.723
 4257W        W65623   8.232  16.100  13.027
 4258W        W65624  43.450  22.064   2.322
 4259W        W65625  32.613  10.812   3.266
 4260W        W65626  34.541  18.703  13.804
 4261W        W65627   9.886  12.320   2.771
 4262W        W65628  19.248  23.211   4.193
 4263W        W65629  13.254  23.638  12.824
 4264W        W65630   1.902  38.454  12.021
 4265W        W65631  21.733  40.990   1.391
 4266W        W65632  12.743   0.385  11.611
 4267W        W65633  26.493   4.398  14.013
 4268W        W65634  26.669  39.340   0.933
 4269W        W65635  37.027   0.930  14.451
 4270W        W65636  40.374  28.120   2.671
 4271W        W65637  25.588   3.255  14.932
 4272W        W65638  32.633  20.062  14.487
 4273W        W65639  17.742  36.873  11.858
 4274W        W65640  10.302  22.250  11.553
 4275W        W65641  11.207  21.633  13.000
 4276W        W65642  26.164  30.971  10.436
 4277W        W65643  19.726  40.943   1.441
 4278W        W65644  32.585  28.954   3.263
 4279W        W65645  40.450   8.262  12.407
 4280W        W65646  27.567  10.758   4.767
 4281W        W65647   7.307  33.559  10.504
 4282W        W65648   2.460   5.221   2.812
 4283W        W65649  25.689  38.379   0.840
 4284W        W65650  27.094  27.057   2.352
 4285W        W65651  41.509   8.894   4.319
 4286W        W65652  11.631  37.416   5.211
 4287W        W65653  13.110   9.316  13.860
 4288W        W65654  41.295   4.929   0.786
 4289W        W65655  39.449  12.701   2.798
 4290W        W65656  26.161  26.008   4.807
 4291W        W65657  38.541  26.971  14.799
 4292W        W65658  29.482  26.119   0.930
 4293W        W65659  17.739   8.798   4.743
 4294W        W65660  31.023  16.193   4.610
 4295W        W65661  41.337   9.867   4.833
 4296W        W65662  31.647  36.939   2.200
 4297W        W65663  15.662  41.004  12.469
 4298W        W65664  43.291  44.449   0.458
 4299W        W65665  43.849  12.158  14.926
 4300W        W65666  16.076  20.626  11.001
 4301W        W65667  13.673  18.781   0.916
 4302W        W65668  23.019  35.860   3.336
 4303W        W65669  28.666  42.976  13.492
 4304W        W65670  41.960  42.817  13.034
 4305W        W65671  10.791   1.733  13.888
 4306W        W65672  18.231  24.999  10.532
 4307W        W65673  24.535  35.961   1.300
 4308W        W65674  41.999  43.876   2.873
 4309W        W65675  38.491  44.808   4.311
 4310W        W65676   3.886  23.700  14.007
 4311W        W65677   7.801  34.611   1.924
 4312W        W65678  11.297  41.298  13.501
 4313W        W65679   5.700   8.403   1.314
 4314W        W65680  17.199  13.251   3.177
 4315W        W65681  31.534  25.095   3.867
 4316W        W65682   3.451  24.513  11.060
 4317W        W65683  32.912   2.261  12.426
 4318W        W65684  13.796  28.482  11.932
 4319W        W65685  38.022  32.945   1.426
 4320W        W65686  43.295  15.131  14.328
 4321W        W65687   2.765  15.201   4.200
 4322W        W65688  17.070  31.591   3.343
 4323W        W65689  12.134  34.008  13.425
 4324W        W65690  43.314  37.005   0.878
 4325W        W65691  37.879  37.368   2.720
 4326W        W65692   3.374  35.017   2.764
 4327W        W65693  37.478  15.578   4.767
 4328W        W65694   4.225  35.948  12.025
 4329W        W65695  20.135  37.354  10.524
 4330W        W65696  38.068  18.273   3.675
 4331W        W65697   1.866  42.511   3.835
 4332W        W65698   0.318  33.963  11.062
 4333W        W65699  14.715  33.961   1.272
 4334W        W65700  13.817   9.161  12.352
 4335W        W65701  15.611  27.618   0.897
 4336W        W65702  37.993  36.981   0.726
 4337W        W65703  17.756   8.171   4.730
 4338W        W65704  15.756  23.219   2.827
 4339W        W65705  12.611  39.385  14.782
 4340W        W65706  34.912  28.035  10.530
 4341W        W65707   6.313  41.986  10.488
 4342W        W65708   5.335  18.273  11.097
 4343W        W65709  16.692   1.734  13.870
 4344W        W65710  21.608  40.321   1.281
 4345W        W65711  43.464  20.619   0.411
 4346W        W65712  17.692  28.536  13.850
 4347W        W65713  10.329  43.969  12.531
 4348W        W65714  40.547  35.541  13.988
 4349W        W65715  40.357   4.362   2.204
 4350W        W65716  33.941  12.172   0.956
 4351W        W65717  17.278   7.720   2.687
 4352W        W65718  14.791  34.388  14.392
 4353W        W65719  29.977  44.805  14.471
 4354W        W65720  33.495  12.314   2.366
 4355W        W65721  42.474  23.163  12.071
 4356W        W65722  44.498  11.646  14.897
 4357W        W65723  11.295   2.430  10.636
 4358W        W65724  25.513  21.093  11.478
 4359W        W65725  38.466  32.582   3.171
 4360W        W65726  17.625  28.047   1.741
 4361W        W65727  39.006   8.341  13.497
 4362W        W65728  35.871   6.248  13.969
 4363W        W65729  39.557  22.594  12.440
 4364W        W65730  38.518  43.429  11.549
 4365W        W65731  28.679  24.482  11.568
 4366W        W65732  14.750  38.465  14.867
 4367W        W65733  22.247   4.386  11.983
 4368W        W65734  20.218  14.168  11.598
 4369W        W65735  21.084  24.082  14.420
 4370W        W65736  42.781   3.860   2.878
 4371W        W65737  43.469  33.979   2.254
 4372W        W65738  42.024   4.929  12.853
 4373W        W65739  39.950  29.051  13.855
 4374W        W65740  17.128  28.507  14.829
 4375W        W65741  10.367   4.850  14.310
 4376W        W65742  14.288  26.092   2.226
 4377W        W65743  34.880  25.015  12.394
 4378W        W65744  41.899  23.101   2.306
 4379W        W65745  21.628  12.733   1.904
 4380W        W65746   5.799  39.882  14.817
 4381W        W65747  30.561  21.564   0.383
 4382W        W65748  20.701  25.488   2.889
 4383W        W65749  42.011  10.641  10.531
 4384W        W65750  28.462  20.161   1.386
 4385W        W65751  27.057  32.113   3.161
 4386W        W65752  42.823  43.510  13.977
 4387W        W65753   4.805   7.203   4.174
 4388W        W65754  16.086  29.471  12.047
 4389W        W65755  11.626  26.029   2.815
 4390W        W65756  38.983  29.496   0.778
 4391W        W65757   6.758  42.843  14.870
 4392W        W65758  18.783  39.432  10.437
 4393W        W65759  27.618  39.863   3.668
 4394W        W65760  39.423  13.721   1.847
 4395W        W65761   9.311  35.989  10.584
 4396W        W65762  29.109  11.674   0.853
 4397W        W65763  37.037  18.686   1.748
 4398W        W65764  19.161  28.526  14.451
 4399W        W65765  19.638  38.413   4.624
 4400W        W65766  41.974  18.287   1.278
 4401W        W65767  26.578  38.926   2.333
 4402W        W65768   6.275  33.073   4.154
 4403W        W65769  36.385  32.567   2.183
 4404W        W65770   7.271   2.420  13.004
 4405W        W65771   1.941   9.345  13.960
 4406W        W65772   6.396  31.936   0.741
 4407W        W65773  15.602   2.236  10.888
 4408W        W65774   8.755   3.372  11.602
 4409W        W65775  39.442  21.718  12.046
 4410W        W65776  40.410  44.320   2.707
 4411W        W65777   1.467  23.525  10.907
 4412W        W65778  12.221   8.280   2.719
 4413W        W65779  21.625  13.109   3.274
 4414W        W65780  10.859   3.816   4.336
 4415W        W65781  34.557  14.322   4.628
 4416W        W65782  23.118   1.754   0.918
 4417W        W65783  31.553  37.420  14.937
 4418W        W65784  43.770   5.331  14.933
 4419W        W65785  44.310  21.654  11.453
 4420W        W65786  38.351   4.377   4.669
 4421W        W65787  13.783  36.512  12.439
 4422W        W65788  41.511  30.565   0.965
 4423W        W65789  16.757  44.787   3.217
 4424W        W65790  19.135  31.022  13.377
 4425W        W65791  11.669  32.117   0.932
 4426W        W65792  20.274   1.377   1.840
 4427W        W65793  18.623  27.106  13.478
 4428W        W65794  24.546   2.937   4.685
 4429W        W65795   9.846  30.515   3.233
 4430W        W65796  27.604  42.775   3.845
 4431W        W65797   9.345  44.313  12.949
 4432W        W65798  10.345  18.732  11.922
 4433W        W65799   3.298   9.746  14.852
 4434W        W65800  21.235   4.352   3.673
 4435W        W65801  20.256  36.961  14.930
 4436W        W65802  21.733  26.499   1.424
 4437W        W65803  39.015  29.123  12.443
 4438W        W65804  32.445  29.474   1.217
 4439W        W65805  20.086  42.799   3.647
 4440W        W65806   9.880  33.915  10.974
 4441W        W65807  21.704   5.273   2.220
 4442W        W65808  42.507   3.443  11.397
 4443W        W65809   2.733  14.125  14.512
 4444W        W65810  15.742  15.192   2.400
 4445W        W65811  28.538  27.170   0.416
 4446W        W65812  40.943  14.764  12.035
 4447W        W65813  11.267  22.066  12.495
 4448W        W65814  26.144  38.949   1.775
 4449W        W65815  44.368   6.715  14.509
 4450W        W65816  36.485  40.408   9.514
 4451W        W65817  14.676  31.527   2.278
 4452W        W65818  17.747  18.259  12.421
 4453W        W65819   6.731  44.423  13.331
 4454W        W65820  31.007  18.773   5.121
 4455W        W65821  17.724  22.160  14.371
 4456W        W65822   5.719  25.644   0.824
 4457W        W65823  43.917   0.317   0.366
 4458W        W65824  42.804   2.898  13.412
 4459W        W65825   2.914  24.072  14.467
 4460W        W65826  31.433  32.911  12.448
 4461W        W65827  31.572  31.091   0.882
 4462W        W65828  39.467  19.242   3.163
 4463W        W65829  24.484  10.247   2.804
 4464W        W65830  44.844  10.692  14.442
 4465W        W65831  14.653  31.956  14.302
 4466W        W65832   3.761   4.704  12.928
 4467W        W65833  29.926  34.021   3.677
 4468W        W65834  19.758  42.857   3.715
 4469W        W65835   0.284  21.584  10.598
 4470W        W65836   7.311  14.104  11.987
 4471W        W65837  32.101  24.704   2.878
 4472W        W65838  40.817  42.862   4.275
 4473W        W65839  42.341  41.414   3.219
 4474W        W65840  15.242  26.669  13.913
 4475W        W65841  39.062   3.834  10.565
 4476W        W65842   3.824  29.485   4.283
 4477W        W65843  11.337   3.860   4.199
 4478W        W65844  13.703  30.085  14.397
 4479W        W65845  25.073  22.618  13.413
 4480W        W65846  38.833  42.972   2.390
 4481W        W65847  43.020  13.176  14.917
 4482W        W65848  39.837  20.175  14.938
 4483W        W65849   4.227   3.934   0.420
 4484W        W65850  12.276   9.666   1.806
 4485W        W65851  16.270  42.316   0.881
 4486W        W65852  41.366  27.581   4.181
 4487W        W65853  33.592   4.940   0.299
 4488W        W65854  40.797  32.392  14.501
 4489W        W65855  26.491  19.606  14.825
 4490W        W65856  39.386  18.124  14.298
 4491W        W65857   1.339  42.808   0.467
 4492W        W65858  29.441   2.260  12.022
 4493W        W65859  24.076   0.888  10.954
 4494W        W65860  38.819  15.628  13.017
 4495W        W65861  13.794  23.509   3.689
 4496W        W65862  24.679   7.849   1.214
 4497W        W65863  11.213  34.504  14.402
 4498W        W65864  20.073   0.768   2.890
 4499W        W65865   1.891   7.782  14.341
 4500W        W65866   4.751  43.448  12.956
 4501W        W65867  19.075  29.454   2.775
 4502W        W65868  20.551  30.141  11.567
 4503W        W65869  34.386  34.945  12.013
 4504W        W65870  38.063  29.119  13.945
 4505W        W65871   0.493  10.846   1.767
 4506W        W65872  22.692  37.839   0.885
 4507W        W65873  10.635  44.842  11.978
 4508W        W65874  40.312   7.275   2.866
 4509W        W65875  31.016  42.462   1.239
 4510W        W65876  11.236   6.916   1.862
 4511W        W65877  24.543   0.295  11.440
 4512W        W65878  20.556  36.060   4.744
 4513W        W65879  39.367   4.706  11.093
 4514W        W65880  15.696  20.656   3.232
 4515W        W65881  33.448  10.728   2.811
 4516W        W65882  38.973  38.992   0.354
 4517W        W65883   2.465  26.993   0.901
 4518W        W65884  18.075   6.323   0.281
 4519W        W65885  15.754  32.406   5.147
 4520W        W65886  18.568  34.517  13.859
 4521W        W65887  17.270  33.050   0.452
 4522W        W65888  36.514  36.941   2.805
 4523W        W65889  44.350   2.806   1.845
 4524W        W65890  31.142  22.563  13.365
 4525W        W65891  26.504  39.834  12.445
 4526W        W65892  32.999  25.106  12.015
 4527W        W65893  43.764  12.613  14.292
 4528W        W65894  28.561  11.781  12.456
 4529W        W65895  44.276  27.601   1.910
 4530W        W65896  31.488  10.707  13.904
 4531W        W65897  12.804  25.677  10.502
 4532W        W65898  33.541  43.776  12.970
 4533W        W65899  16.251   4.386  14.900
 4534W        W65900  28.152  19.117   2.179
 4535W        W65901  39.842  25.503  12.555
 4536W        W65902  30.556  38.373   3.254
 4537W        W65903  37.917  33.597   4.781
 4538W        W65904   7.247  18.634   0.265
 4539W        W65905   7.773  24.544   2.257
 4540W        W65906   9.364   4.768   1.751
 4541W        W65907   4.793  11.774   4.699
 4542W        W65908   3.348  35.430   4.829
 4543W        W65909  40.425  12.613   2.693
 4544W        W65910  41.440  20.626  10.419
 4545W        W65911  32.494  43.418   4.234
 4546W        W65912  39.315  12.159  14.003
 4547W        W65913  10.255  15.288  11.126
 4548W        W65914  32.008  17.303   2.259
 4549W        W65915  17.674  18.288  13.438
 4550W        W65916  43.279  35.040  11.917
 4551W        W65917  17.212  15.602  12.884
 4552W        W65918  19.165  36.424   4.269
 4553W        W65919  34.949  24.187  11.391
 4554W        W65920  33.009  16.314  14.883
 4555W        W65921  37.889  38.034   2.365
 4556W        W65922  10.287  29.512  14.763
 4557W        W65923  42.478  34.578   4.638
 4558W        W65924   7.741  19.093   0.750
 4559W        W65925   6.900  31.020   1.235
 4560W        W65926  10.836  31.425   0.754
 4561W        W65927  32.525  15.151   2.799
 4562W        W65928  24.018  22.725  13.869
 4563W        W65929   2.929   5.860   3.693
 4564W        W65930  24.096  33.487  13.487
 4565W        W65931  17.787  31.543  13.425
 4566W        W65932   2.722  19.588  10.624
 4567W        W65933  16.661   6.221  12.350
 4568W        W65934  35.096   2.339  10.603
 4569W        W65935  38.525   2.937  11.858
 4570W        W65936   9.751  24.043   0.740
 4571W        W65937  22.566  34.500   3.674
 4572W        W65938  26.985   8.174   0.754
 4573W        W65939   2.364  11.861   3.704
 4574W        W65940  12.676  10.284   0.955
 4575W        W65941  34.936  23.510  13.425
 4576W        W65942  20.100  35.109   5.581
 4577W        W65943  31.944  42.959  10.956
 4578W        W65944  23.556  12.626  13.955
 4579W        W65945  13.138  21.757   3.177
 4580W        W65946  40.542  44.843  11.061
 4581W        W65947   1.921  12.296  14.914
 4582W        W65948  42.919  37.983   0.348
 4583W        W65949   3.320   2.413   3.702
 4584W        W65950  23.124  40.941  14.336
 4585W        W65951   0.968  43.835  14.905
 4586W        W65952  26.542   6.332   4.217
 4587W        W65953  15.661  14.825   3.859
 4588W        W65954  19.576  22.709   3.839
 4589W        W65955  20.638  35.926   2.314
 4590W        W65956  29.924  15.674   5.182
 4591W        W65957  36.400  39.872  11.107
 4592W        W65958  31.927  37.350   2.903
 4593W        W65959   3.435   0.834  13.875
 4594W        W65960  37.852   8.824  12.927
 4595W        W65961  30.101  11.700   2.702
 4596W        W65962  18.273   9.670  14.949
 4597W        W65963  14.232  19.136   3.282
 4598W        W65964  26.644  28.025  14.820
 4599W        W65965  36.362  37.979   2.764
 4600W        W65966  12.638  36.916  11.585
 4601W        W65967  36.922  25.602  11.458
 4602W        W65968  27.476  13.252   3.752
 4603W        W65969  42.824  11.317  13.912
 4604W        W65970  33.457  28.989   1.287
 4605W        W65971  13.698   6.412   0.430
 4606W        W65972  27.132  43.415   2.217
 4607W        W65973  14.610  40.935  11.462
 4608W        W65974  10.643  41.378  12.958
 4609W        W65975  43.020  30.969  12.483
 4610W        W65976  10.349  17.296   0.812
 4611W        W65977  38.875  32.401   0.323
 4612W        W65978  22.666  32.484  14.420
 4613W        W65979  25.109  26.553   1.694
 4614W        W65980  29.161  34.560   3.246
 4615W        W65981  18.631  16.121  14.375
 4616W        W65982  10.141  40.907  11.473
 4617W        W65983  16.668  32.441  13.006
 4618W        W65984  12.618   1.299  12.847
 4619W        W65985   3.847   9.842  11.462
 4620W        W65986  42.306  36.904  11.970
 4621W        W65987  13.301   1.804   2.385
 4622W        W65988  31.022  36.529  13.376
 4623W        W65989  10.711  11.325   1.222
 4624W        W65990   0.942  15.645   5.098
 4625W        W65991  35.586  38.052   4.709
 4626W        W65992  32.129  12.234   2.897
 4627W        W65993  15.605   6.894   3.816
 4628W        W65994  18.644   9.720  13.795
 4629W        W65995  19.165  21.688  11.061
 4630W        W65996  25.714   0.355   4.797
 4631W        W65997   4.703  41.994   4.207
 4632W        W65998   6.837  22.177  11.086
 4633W        W65999  32.081   9.249  14.789
 4634W        W66000  17.137  31.421  14.886
 4635W        W66001  18.587  12.234  12.967
 4636W        W66002   5.864  39.935   0.253
 4637W        W66003   3.335   0.769   2.699
 4638W        W66004   2.758  13.104   3.673
 4639W        W66005  33.492  20.620   3.261
 4640W        W66006  18.768  31.955   0.822
 4641W        W66007   2.820  34.441   3.783
 4642W        W66008  43.338  23.000  14.375
 4643W        W66009   3.231  10.160  12.939
 4644W        W66010  31.419  27.650   0.310
 4645W        W66011   5.727  36.494   1.372
 4646W        W66012  12.285  34.918  14.484
 4647W        W66013  36.902   5.739   1.379
 4648W        W66014  37.390  13.191  12.421
 4649W        W66015   5.758  42.014   3.182
 4650W        W66016  28.045  35.550  14.481
 4651W        W66017  25.074   2.455   3.218
 4652W        W66018  10.730  15.242  12.097
 4653W        W66019  12.210  10.742   2.286
 4654W        W66020   2.962  22.151  13.530
 4655W        W66021  40.316  25.517  14.478
 4656W        W66022  36.041   2.441   4.319
 4657W        W66023  15.243  23.670  14.018
 4658W        W66024   0.266  22.096   1.423
 4659W        W66025  20.647  22.566  11.388
 4660W        W66026  34.490   5.425   3.698
 4661W        W66027  22.097  17.125  13.968
 4662W        W66028  25.632  17.745  13.011
 4663W        W66029  28.013   4.385   2.288
 4664W        W66030  39.531  26.166  14.358
 4665W        W66031   2.367  41.354   1.708
 4666W        W66032  43.964   0.839   0.263
 4667W        W66033  40.465   0.830   3.270
 4668W        W66034  26.608  36.970  14.457
 4669W        W66035  34.516  19.240  10.596
 4670W        W66036   5.329  19.229  14.427
 4671W        W66037  18.216  33.898  10.920
 4672W        W66038  43.433  20.765  13.937
 4673W        W66039  12.765  29.670   0.783
 4674W        W66040  15.260  41.987  12.887
 4675W        W66041  14.114  27.971  10.914
 4676W        W66042  19.269  12.240  14.833
 4677W        W66043  22.685  11.715   4.706
 4678W        W66044  24.185  37.017   4.790
 4679W        W66045  12.228   3.312   3.837
 4680W        W66046  39.046  38.961  12.431
 4681W        W66047  36.910   8.178  11.473
 4682W        W66048   4.856  44.869  10.598
 4683W        W66049  35.017  26.132  13.866
 4684W        W66050   7.329  41.445  12.828
 4685W        W66051  36.076   4.288  13.345
 4686W        W66052   9.708  41.425   1.697
 4687W        W66053  29.094  33.507   3.764
 4688W        W66054  32.418  29.529  10.147
 4689W        W66055  39.546  29.146   3.245
 4690W        W66056  38.437   1.775   3.789
 4691W        W66057  15.770  21.052  14.484
 4692W        W66058   3.221  42.290   1.723
 4693W        W66059  39.334  20.208  11.896
 4694W        W66060  20.730  11.629   1.239
 4695W        W66061   7.374  10.795   4.684
 4696W        W66062   0.870   9.233  12.361
 4697W        W66063  40.822  21.690   0.304
 4698W        W66064  34.526  42.785  13.907
 4699W        W66065  39.834  27.517  12.351
 4700W        W66066  38.934  23.108  11.492
 4701W        W66067  22.131  15.652   3.320
 4702W        W66068  37.538  12.245  12.043
 4703W        W66069  30.499  29.095   3.662
 4704W        W66070  28.113  14.716  14.842
 4705W        W66071  30.434  35.460   3.643
 4706W        W66072  22.656   6.346  14.834
 4707W        W66073   7.711  36.874   2.375
 4708W        W66074  32.553  15.212   1.323
 4709W        W66075  20.139  29.431   0.865
 4710W        W66076  19.161   7.767   1.866
 4711W        W66077   8.272   8.372  13.489
 4712W        W66078  34.894  42.901  13.547
 4713W        W66079  30.495  38.431   0.347
 4714W        W66080  23.596   9.792  11.992
 4715W        W66081  37.968   3.425   3.193
 4716W        W66082  11.676  23.018  11.917
 4717W        W66083  21.056   0.406  12.384
 4718W        W66084  19.277  30.449  10.598
 4719W        W66085   2.249  13.726   4.165
 4720W        W66086  37.914  44.814  12.913
 4721W        W66087  10.276  31.951   0.929
 4722W        W66088   3.347   0.841   0.272
 4723W        W66089  39.488  15.111   4.299
 4724W        W66090   0.944  40.482  14.404
 4725W        W66091   2.924  44.373  10.910
 4726W        W66092  25.156  21.036  12.068
 4727W        W66093  18.579   0.379  13.334
 4728W        W66094  28.616  24.983  11.928
 4729W        W66095  19.757  39.933   3.159
 4730W        W66096  29.644  14.340  13.930
 4731W        W66097  35.048  10.648  13.449
 4732W        W66098  30.597  31.031   0.436
 4733W        W66099  40.882  27.143   3.768
 4734W        W66100  23.627  30.148  14.894
 4735W        W66101   4.882   4.439  13.420
 4736W        W66102  42.024  29.091   0.261
 4737W        W66103  43.836  31.536   0.798
 4738W        W66104  11.199  41.402   0.954
 4739W        W66105  23.185  16.793  11.484
 4740W        W66106  21.196   6.277   3.210
 4741W        W66107  17.203   5.909  13.377
 4742W        W66108  39.397   7.837  12.916
 4743W        W66109   0.348  35.941  13.497
 4744W        W66110   9.844   2.255  11.050
 4745W        W66111   3.932  19.208  14.928
 4746W        W66112  20.726   0.290   2.222
 4747W        W66113  20.141  25.518  12.366
 4748W        W66114  23.151  39.947  14.787
 4749W        W66115  27.601  43.011   3.176
 4750W        W66116  33.454  42.390   1.851
 4751W        W66117   9.811  23.988  14.965
 4752W        W66118  39.491  18.765   2.705
 4753W        W66119  35.569  10.826   3.207
 4754W        W66120  32.975  35.596  11.062
 4755W        W66121  40.547  20.266  10.631
 4756W        W66122  41.993   2.846   0.275
 4757W        W66123  13.612  25.111   0.467
 4758W        W66124  35.938  13.294   0.880
 4759W        W66125  31.610   8.665   2.721
 4760W        W66126  42.433  11.868  12.924
 4761W        W66127  23.069  38.364  11.992
 4762W        W66128  42.929  42.325   2.745
 4763W        W66129  19.679  33.471  10.571
 4764W        W66130  41.444  27.163  13.039
 4765W        W66131  41.535   5.701  10.484
 4766W        W66132  26.692  36.588   0.267
 4767W        W66133   4.877  14.681  10.907
 4768W        W66134  36.412  43.875   3.768
 4769W        W66135  37.935  23.617  13.032
 4770W        W66136  11.661  20.077  11.043
 4771W        W66137  37.890  11.770  13.478
 4772W        W66138  41.908  38.903  12.552
 4773W        W66139  35.980  13.194  12.397
 4774W        W66140  18.254  28.538  10.407
 4775W        W66141  33.390  41.897   4.327
 4776W        W66142   4.850  42.866   5.276
 4777W        W66143  22.586  17.173   4.613
 4778W        W66144  17.104  17.680   3.164
 4779W        W66145   2.406   8.883   4.748
 4780W        W66146  42.425  38.861   2.810
 4781W        W66147  10.283  31.065  11.992
 4782W        W66148  27.948  42.427  14.856
 4783W        W66149  36.447   5.856  14.429
 4784W        W66150   3.254  42.393  11.397
 4785W        W66151  12.633  36.379  10.960
 4786W        W66152  22.712  18.732  11.120
 4787W        W66153  16.679   5.225   3.680
 4788W        W66154  14.707   9.786   4.810
 4789W        W66155  23.656   5.278  14.291
 4790W        W66156  19.616  38.868  12.444
 4791W        W66157   7.348   7.909  13.485
 4792W        W66158   3.860  22.681  14.806
 4793W        W66159   9.804  20.269   0.915
 4794W        W66160  11.672   4.927  14.430
 4795W        W66161  35.396  38.074  14.509
 4796W        W66162  23.134  33.545   0.281
 4797W        W66163   7.278  24.695  13.801
 4798W        W66164  20.134  21.046  13.368
 4799W        W66165  18.670  38.428  10.945
 4800W        W66166  36.393  15.310  14.513
 4801W        W66167  25.052   2.301   2.668
 4802W        W66168  31.580  35.577  13.004
 4803W        W66169  35.491  26.685   3.658
 4804W        W66170  19.187  26.133   0.438
 4805W        W66171  29.590  18.613  12.957
 4806W        W66172  18.120   8.663  11.400
 4807W        W66173   4.438  41.841  13.479
 4808W        W66174  11.141  27.965  10.636
 4809W        W66175   2.934  38.403   2.360
 4810W        W66176   6.684  32.044   2.321
 4811W        W66177  35.077  12.668  12.001
 4812W        W66178  22.157  41.951   2.760
 4813W        W66179   9.273  14.138  12.431
 4814W        W66180  21.090  14.811  11.993
 4815W        W66181  37.974  34.975   3.290
 4816W        W66182   3.387  13.717  11.557
 4817W        W66183   3.944  29.149  11.565
 4818W        W66184   2.230  41.441   0.397
 4819W        W66185  42.974   4.330  10.619
 4820W        W66186  11.841  38.557   2.188
 4821W        W66187  14.614  33.597  14.007
 4822W        W66188  18.580  24.998   9.954
 4823W        W66189  41.463  34.403  12.038
 4824W        W66190  33.396  42.315   0.370
 4825W        W66191   8.893  35.378   2.200
 4826W        W66192  13.745   9.333   1.440
 4827W        W66193  24.597  36.463  11.459
 4828W        W66194  35.076  43.393   1.913
 4829W        W66195   8.703   2.372  11.092
 4830W        W66196   9.156   3.854   4.809
 4831W        W66197  23.599   1.885   3.269
 4832W        W66198  34.591  24.981   2.836
 4833W        W66199  37.874   0.953   2.362
 4834W        W66200  40.910   1.423   2.368
 4835W        W66201  40.384  13.156   0.860
 4836W        W66202  18.591  36.483  14.923
 4837W        W66203   8.870   0.872  11.974
 4838W        W66204   8.891  31.909  12.048
 4839W        W66205  30.542  38.004  10.997
 4840W        W66206   4.418   8.739  11.884
 4841W        W66207   5.727  36.531   1.893
 4842W        W66208   2.915  42.285   4.307
 4843W        W66209  43.277  32.413  13.488
 4844W        W66210  31.006  39.507  13.829
 4845W        W66211  19.780  22.634  10.419
 4846W        W66212  27.507  23.201  14.359
 4847W        W66213  15.213  14.242   3.287
 4848W        W66214  17.182  16.296  14.411
 4849W        W66215   9.293   8.886   3.837
 4850W        W66216  17.140  34.058  13.906
 4851W        W66217  44.873  21.184   0.803
 4852W        W66218  29.034  28.164  10.461
 4853W        W66219  19.602  16.609   3.830
 4854W        W66220   7.177   5.714  10.530
 4855W        W66221  23.160  42.918   3.370
 4856W        W66222  11.637  38.442  13.944
 4857W        W66223  14.770  21.088   1.783
 4858W        W66224  40.813  11.236   3.814
 4859W        W66225  35.870  15.214  12.005
 4860W        W66226  44.916   4.320  12.348
 4861W        W66227  44.903  23.734  11.053
 4862W        W66228   9.185  28.049   0.324
 4863W        W66229  38.361   6.256   4.679
 4864W        W66230  13.740  39.910   1.932
 4865W        W66231  26.180   6.803   4.665
 4866W        W66232  27.010   1.842  13.499
 4867W        W66233  40.884  34.874   2.745
 4868W        W66234  12.213  22.051  10.435
 4869W        W66235  35.590  21.059   3.633
 4870W        W66236  25.020   0.476  13.963
 4871W        W66237  13.135   3.226   3.766
 4872W        W66238   6.890  22.235  13.035
 4873W        W66239  39.330  27.051  11.463
 4874W        W66240  32.525  37.860  12.531
 4875W        W66241  39.433  18.056  10.619
 4876W        W66242  12.633   7.738  12.952
 4877W        W66243  12.152  43.497  11.867
 4878W        W66244  28.186   2.458  13.813
 4879W        W66245  19.648  21.145   4.117
 4880W        W66246  38.453  11.347  13.514
 4881W        W66247  35.942   4.922  12.538
 4882W        W66248   2.765   1.768   1.212
 4883W        W66249   4.430  32.897  10.581
 4884W        W66250  33.881   4.830  10.536
 4885W        W66251   8.242  19.146   2.205
 4886W        W66252  42.967  29.573  12.580
 4887W        W66253   3.346   1.437   4.786
 4888W        W66254   3.444  34.945  11.944
 4889W        W66255  33.605  21.065  11.574
 4890W        W66256  20.752   3.350   9.449
 4891W        W66257  22.699  28.095  10.892
 4892W        W66258  42.982  20.165  11.438
 4893W        W66259  25.028  22.538   3.778
 4894W        W66260  35.895  44.977  14.425
 4895W        W66261  29.056  38.357  11.994
 4896W        W66262  14.763   3.444   1.933
 4897W        W66263  23.162   3.751   2.216
 4898W        W66264   1.384  29.928  11.941
 4899W        W66265   2.893   8.233   0.439
 4900W        W66266   0.865  29.165   1.302
 4901W        W66267   3.901  21.612  11.907
 4902W        W66268   2.472  34.073   4.816
 4903W        W66269  14.625  39.396  11.548
 4904W        W66270  41.513  40.453  13.361
 4905W        W66271   6.866  22.043   1.738
 4906W        W66272  21.730  27.952   1.435
 4907W        W66273  20.575  10.853   2.864
 4908W        W66274  30.065  14.266  11.422
 4909W        W66275   7.213  40.942   3.741
 4910W        W66276  10.292  31.053   3.301
 4911W        W66277  43.320   5.900  14.021
 4912W        W66278   5.204  19.047  14.791
 4913W        W66279  26.525  29.446   4.637
 4914W        W66280  31.562  31.962  10.944
 4915W        W66281   1.460   7.833  12.965
 4916W        W66282  12.806  11.751  11.935
 4917W        W66283  43.362  42.459   2.833
 4918W        W66284   3.817  40.020   0.441
 4919W        W66285   9.272   9.682  10.532
 4920W        W66286   7.709  23.130  12.446
 4921W        W66287   9.848  10.830   3.375
 4922W        W66288  22.072   2.774  12.445
 4923W        W66289  38.561  16.765  14.015
 4924W        W66290  30.990  27.612   0.835
 4925W        W66291  23.589  11.862  13.804
 4926W        W66292  16.230  14.669   2.377
 4927W        W66293  29.950   0.483   0.316
 4928W        W66294  16.595  19.065  12.022
 4929W        W66295   2.764   1.805  12.362
 4930W        W66296  25.510  27.996  14.946
 4931W        W66297  13.167   9.741   3.835
 4932W        W66298  10.664  21.098  10.502
 4933W        W66299  14.262   7.897  11.499
 4934W        W66300  11.768  10.143  10.912
 4935W        W66301   1.347   3.424  12.873
 4936W        W66302   0.260  10.840   0.319
 4937W        W66303  34.986  31.474   3.250
 4938W        W66304  24.034  25.628  14.441
 4939W        W66305  42.418   9.693   0.304
 4940W        W66306  21.074  16.082   4.673
 4941W        W66307  30.138  12.285   0.836
 4942W        W66308   7.350  43.786  10.544
 4943W        W66309  32.506   7.261  14.392
 4944W        W66310  19.068  26.572  10.555
 4945W        W66311  32.075  14.141   2.266
 4946W        W66312  33.460  33.460   0.928
 4947W        W66313  41.945   8.813   2.182
 4948W        W66314  31.532   0.743  12.392
 4949W        W66315   5.329  14.664   2.194
 4950W        W66316  28.441   4.407  13.049
 4951W        W66317  32.580   0.880  11.595
 4952W        W66318  22.736   7.684   3.369
 4953W        W66319  33.516  21.173  14.508
 4954W        W66320  42.301  27.461   1.282
 4955W        W66321  24.543   5.805   2.777
 4956W        W66322   1.853  17.115  11.079
 4957W        W66323  35.926   5.373   4.758
 4958W        W66324  28.586  16.570  14.364
 4959W        W66325  18.785  14.787  14.938
 4960W        W66326  29.099  17.634   0.853
 4961W        W66327  11.352  21.136  13.546
 4962W        W66328  30.122  36.371   3.785
 4963W        W66329   8.761  14.785  14.395
 4964W        W66330  11.261  27.640   3.192
 4965W        W66331  44.816  17.085   0.955
 4966W        W66332  15.252  20.682  14.378
 4967W        W66333  39.913   8.737  12.347
 4968W        W66334  23.130   2.249   2.836
 4969W        W66335  17.573  38.446  14.391
 4970W        W66336   8.735   2.347  14.382
 4971W        W66337  30.094   2.815   0.960
 4972W        W66338  20.733   4.812  10.573
 4973W        W66339  37.367  18.597  12.449
 4974W        W66340  31.902  43.376  12.487
 4975W        W66341   3.924  21.263   2.872
 4976W        W66342  17.173  43.970   4.781
 4977W        W66343   1.768  12.819  11.456
 4978W        W66344  24.215  40.805   3.163
 4979W        W66345   8.347   8.343  12.037
 4980W        W66346   5.864   1.289   2.220
 4981W        W66347   1.933   6.692   4.333
 4982W        W66348  25.015  21.742   3.216
 4983W        W66349   5.750  33.915   3.761
 4984W        W66350   7.719   2.954   1.398
 4985W        W66351  11.263  26.099   0.893
 4986W        W66352  33.048   0.418  13.864
 4987W        W66353  38.404  31.905  12.546
 4988W        W66354  32.108  29.156   1.858
 4989W        W66355  15.734  42.377  10.609
 4990W        W66356  42.924  12.646   0.753
 4991W        W66357  27.963  39.989  13.881
 4992W        W66358  27.681  22.713  11.902
 4993W        W66359   2.750  39.964   0.838
 4994W        W66360  18.640   6.819  11.126
 4995W        W66361  19.580  14.181  10.438
 4996W        W66362  20.757  36.392  12.888
 4997W        W66363  29.941  16.748   3.332
 4998W        W66364  30.549  40.911  11.594
 4999W        W66365   4.357  39.931   2.878
 5000W        W66366  44.407   9.675   3.174
 5001W        W66367  23.157   9.336   4.330
 5002W        W66368  44.859  17.654   4.219
 5003W        W66369  43.916  24.175  14.022
 5004W        W66370  10.303  26.651   3.283
 5005W        W66371  22.083  12.656   2.864
 5006W        W66372  34.033  23.121   4.762
 5007W        W66373  37.841   0.455   1.715
 5008W        W66374  24.021  27.646   5.169
 5009W        W66375   3.280  26.679   1.238
 5010W        W66376   0.423  23.499   0.940
 5011W        W66377  40.385   7.753  12.842
 5012W        W66378  14.743  28.596  13.990
 5013W        W66379  43.991  42.897   1.444
 5014W        W66380   3.233  12.670   0.471
 5015W        W66381   8.375  11.277   3.375
 5016W        W66382  10.841  20.650   0.475
 5017W        W66383  37.936   2.439   1.848
 5018W        W66384  36.442  16.717   3.189
 5019W        W66385   4.770  26.570   5.297
 5020W        W66386  11.830  32.946  13.951
 5021W        W66387   1.890  26.157   1.318
 5022W        W66388   3.324  16.636  10.545
 5023W        W66389  40.833  10.636   2.851
 5024W        W66390  36.585   8.884   3.179
 5025W        W66391  33.453  19.757  11.897
 5026W        W66392  39.929  11.805   4.814
 5027W        W66393  13.683   8.403  12.064
 5028W        W66394  40.811  12.307  13.433
 5029W        W66395  34.410  37.459   3.205
 5030W        W66396  42.901  18.553   2.260
 5031W        W66397  24.679  38.395   2.274
 5032W        W66398   0.386  44.332  13.977
 5033W        W66399  33.450  14.184   1.897
 5034W        W66400  35.553  14.244   2.304
 5035W        W66401  42.437  26.504  10.477
 5036W        W66402  36.423  22.625  11.957
 5037W        W66403  17.129  30.587   4.790
 5038W        W66404  41.307  31.934   1.786
 5039W        W66405  32.015  11.717  11.541
 5040W        W66406   4.332  15.610  14.793
 5041W        W66407  16.592  43.418  13.350
 5042W        W66408  13.667  43.784  14.282
 5043W        W66409  34.989  26.588   3.182
 5044W        W66410  14.800   3.439   5.095
 5045W        W66411  44.775   4.901  12.444
 5046W        W66412   3.753   6.841   2.393
 5047W        W66413  12.845   5.811  12.895
 5048W        W66414  23.081  44.866  14.760
 5049W        W66415  26.046  41.984  11.016
 5050W        W66416  42.957   7.371  12.849
 5051W        W66417  42.494  40.310   1.390
 5052W        W66418   2.424  22.100   3.794
 5053W        W66419  37.923  23.548  12.061
 5054W        W66420  18.635  43.458  12.890
 5055W        W66421  28.003  25.181   5.322
 5056W        W66422   6.859  29.635  13.346
 5057W        W66423  18.573  20.205   4.720
 5058W        W66424   7.403  43.331  13.474
 5059W        W66425  35.943  31.051   2.394
 5060W        W66426   5.718  14.220  10.546
 5061W        W66427  36.920  37.023  12.022
 5062W        W66428  25.579   3.922   2.353
 5063W        W66429  23.646  30.535   3.769
 5064W        W66430  43.827  43.878  12.519
 5065W        W66431   3.789  21.155  11.489
 5066W        W66432  23.579  44.303  11.029
 5067W        W66433  26.076  10.383  11.484
 5068W        W66434   7.806  42.301   1.732
 5069W        W66435   6.198  41.346  12.561
 5070W        W66436  26.662   0.901   2.672
 5071W        W66437  43.778  14.180   0.336
 5072W        W66438  23.021  41.838   0.795
 5073W        W66439  15.243  43.336   4.769
 5074W        W66440  38.499  23.533  14.772
 5075W        W66441  36.386  32.908  12.552
 5076W        W66442   6.230   0.987  11.410
 5077W        W66443  26.578  35.068   3.225
 5078W        W66444  35.406  33.017   4.611
 5079W        W66445  30.980  39.390   0.771
 5080W        W66446  26.581   3.249   0.259
 5081W        W66447  23.711   3.429   1.837
 5082W        W66448   7.317  13.184  11.053
 5083W        W66449   9.769  41.832  10.407
 5084W        W66450  34.529  11.797   2.732
 5085W        W66451   2.935   1.462  12.517
 5086W        W66452   7.279  29.161   0.922
 5087W        W66453  35.919  28.604  14.983
 5088W        W66454  21.111  43.825   1.801
 5089W        W66455  25.148  12.151   2.860
 5090W        W66456  15.153  34.461   1.300
 5091W        W66457  36.406  41.410  10.518
 5092W        W66458  36.985  42.938  14.400
 5093W        W66459  27.141  42.434   3.231
 5094W        W66460   6.705  27.087  12.393
 5095W        W66461  20.693   0.487   0.457
 5096W        W66462  10.383  41.862  13.935
 5097W        W66463   1.401  20.726  11.530
 5098W        W66464  13.265   3.393   1.371
 5099W        W66465  41.523  19.684   4.699
 5100W        W66466  17.792  15.581   3.252
 5101W        W66467  16.574  27.057   3.634
 5102W        W66468   5.771   9.333   0.258
 5103W        W66469  20.232  24.121  11.056
 5104W        W66470  20.748  15.737  12.969
 5105W        W66471  34.962  41.473   2.348
 5106W        W66472  17.160  39.961  13.442
 5107W        W66473   9.249  35.989  13.542
 5108W        W66474   4.813  25.710   2.237
 5109W        W66475  43.007  41.333   0.753
 5110W        W66476  38.028   6.187   9.961
 5111W        W66477   7.404  28.676   3.657
 5112W        W66478   4.911  37.991   0.730
 5113W        W66479  19.653   5.341   4.303
 5114W        W66480  27.639  21.082   1.719
 5115W        W66481  36.085  37.365  14.918
 5116W        W66482   7.807  36.846  14.813
 5117W        W66483  35.905  33.101   4.176
 5118W        W66484  31.983  43.917   2.367
 5119W        W66485  31.037  33.908   3.835
 5120W        W66486  16.800  39.459  14.899
 5121W        W66487  18.630  39.030  13.802
 5122W        W66488   3.456   0.438   2.767
 5123W        W66489  29.453   0.793   1.697
 5124W        W66490   5.820   0.775  14.911
 5125W        W66491   4.368  26.094  11.077
 5126W        W66492   1.910  29.663   0.396
 5127W        W66493   7.750  21.513  14.503
 5128W        W66494   8.877  31.583   0.367
 5129W        W66495  35.530  25.535  14.897
 5130W        W66496   1.242  18.706   0.457
 5131W        W66497  24.164  41.879   2.266
 5132W        W66498  22.519  10.155  13.942
 5133W        W66499  20.655  27.637   2.893
 5134W        W66500  19.273  18.638   1.808
 5135W        W66501  14.633   4.764  14.022
 5136W        W66502  18.097  22.529  13.382
 5137W        W66503  18.697   0.432  11.907
 5138W        W66504  27.507  20.033  11.523
 5139W        W66505   0.485  23.536  13.408
 5140W        W66506  43.902  33.114   0.927
 5141W        W66507  36.098   2.813  13.433
 5142W        W66508  22.170   3.389   0.941
 5143W        W66509  31.452   3.916   4.240
 5144W        W66510  38.946  14.774  11.867
 5145W        W66511  31.133  12.699   4.166
 5146W        W66512  43.425   6.244  14.801
 5147W        W66513  44.471  21.257   2.342
 5148W        W66514   2.359  25.584   5.278
 5149W        W66515  25.622  27.984   1.287
 5150W        W66516  13.253  21.244  14.973
 5151W        W66517  43.346  27.970   3.155
 5152W        W66518   5.290   2.353   9.930
 5153W        W66519  35.433  30.954  14.439
 5154W        W66520  15.738   2.392   2.714
 5155W        W66521  23.028   1.774   3.274
 5156W        W66522  27.005  21.724   1.299
 5157W        W66523  42.292  20.205  13.457
 5158W        W66524  38.932  19.700   0.334
 5159W        W66525  21.559  34.035   0.933
 5160W        W66526   2.905  35.963  14.770
 5161W        W66527  15.099  23.528  12.047
 5162W        W66528   1.813  10.378   2.190
 5163W        W66529  29.155  11.176  13.017
 5164W        W66530  37.510  29.071   1.882
 5165W        W66531  20.200  24.699   0.906
 5166W        W66532  30.104  38.385  12.391
 5167W        W66533  43.015  35.860   3.787
 5168W        W66534  40.303  28.110   2.331
 5169W        W66535  44.433  32.608  12.562
 5170W        W66536  15.800  19.765   4.128
 5171W        W66537  43.801  15.614  13.040
 5172W        W66538  38.915  30.557   4.697
 5173W        W66539  41.911   0.278  13.799
 5174W        W66540   8.723   6.375   3.689
 5175W        W66541  23.711   2.424   3.253
 5176W        W66542  21.732  43.336   1.445
 5177W        W66543   2.313  24.157   2.342
 5178W        W66544  36.993  32.581  11.479
 5179W        W66545  33.113   7.704  12.463
 5180W        W66546   5.874  25.691   1.827
 5181W        W66547  10.334  41.850  13.500
 5182W        W66548  40.464  24.194  14.931
 5183W        W66549  31.427  16.760  13.989
 5184W        W66550  13.696  41.341  13.428
 5185W        W66551  10.274  37.472  12.418
 5186W        W66552   2.445  10.803   3.356
 5187W        W66553  10.260  42.414  14.515
 5188W        W66554  31.022  25.110  12.379
 5189W        W66555  11.320  31.591  14.351
 5190W        W66556  32.914  32.989   0.260
 5191W        W66557  23.550  17.209   0.474
 5192W        W66558  17.102  25.129  12.994
 5193W        W66559  23.143  27.999   3.671
 5194W        W66560  44.487  12.189  10.900
 5195W        W66561  10.642  42.836   2.730
 5196W        W66562  32.513   1.945  14.312
 5197W        W66563  33.425  15.785   2.796
 5198W        W66564  38.076  19.277   0.961
 5199W        W66565  10.214  25.025  10.106
 5200W        W66566  12.819  27.955  11.892
 5201W        W66567   1.925  25.622  11.458
 5202W        W66568  30.085  32.615   4.155
 5203W        W66569  39.812  14.285  12.452
 5204W        W66570  43.963  12.272   3.640
 5205W        W66571   8.740  37.414   1.795
 5206W        W66572  27.940   5.893  12.998
 5207W        W66573   1.309  44.352   2.302
 5208W        W66574  33.544   9.293  13.843
 5209W        W66575   0.871  14.328   5.233
 5210W        W66576  37.977  31.129   2.743
 5211W        W66577  24.994  21.565  14.937
 5212W        W66578  35.917  21.687   2.754
 5213W        W66579  12.168   5.236   2.724
 5214W        W66580  37.901  42.944   2.357
 5215W        W66581  18.270  32.006   3.285
 5216W        W66582  30.139  41.796  12.341
 5217W        W66583   3.458  24.092  14.842
 5218W        W66584   3.374  39.002   0.410
 5219W        W66585   9.393   9.821   0.333
 5220W        W66586  34.567  19.244  14.446
 5221W        W66587  18.562  25.478   1.880
 5222W        W66588   6.685  29.998   4.599
 5223W        W66589  31.536  24.111   1.220
 5224W        W66590  19.186   2.753  11.119
 5225W        W66591  14.178   8.777   5.107
 5226W        W66592  23.685  32.556   2.269
 5227W        W66593  40.394  20.633  11.963
 5228W        W66594  33.547  21.182   0.812
 5229W        W66595   1.291  37.366   3.356
 5230W        W66596   5.396  25.123   4.620
 5231W        W66597  38.356   6.677  12.936
 5232W        W66598  27.507  24.173  12.372
 5233W        W66599  23.136  28.616  14.765
 5234W        W66600  10.854  18.584  12.000
 5235W        W66601   0.485  43.841   1.349
 5236W        W66602  12.645  23.094  12.399
 5237W        W66603   6.306   8.854   1.279
 5238W        W66604  10.846  34.403  14.983
 5239W        W66605  40.940  42.425  11.462
 5240W        W66606  15.305  26.586   0.396
 5241W        W66607   7.416  21.210  12.903
 5242W        W66608  37.906  32.952  14.419
 5243W        W66609  43.330   6.305   1.421
 5244W        W66610  14.801  16.174  14.395
 5245W        W66611   4.879  25.661  14.953
 5246W        W66612   0.329  20.197  14.355
 5247W        W66613  33.622  39.460   1.434
 5248W        W66614  23.086  20.147   4.353
 5249W        W66615  40.541   6.186   1.795
 5250W        W66616  37.996   0.266   2.885
 5251W        W66617   5.691  11.204   3.375
 5252W        W66618  26.697  13.335  11.558
 5253W        W66619  22.119  35.995  12.018
 5254W        W66620   2.871  41.454  14.874
 5255W        W66621   0.770   1.427  12.093
 5256W        W66622  11.747   5.348   0.738
 5257W        W66623   7.375  42.010  11.963
 5258W        W66624  14.333  15.183  14.975
 5259W        W66625   0.489  15.726   1.765
 5260W        W66626  33.093   3.386  13.327
 5261W        W66627  42.320  36.548  10.916
 5262W        W66628  28.481  43.453   4.687
 5263W        W66629  30.497  42.912   0.790
 5264W        W66630  18.199  42.863   4.125
 5265W        W66631   8.892  37.511  11.061
 5266W        W66632   8.872  42.457  13.993
 5267W        W66633  18.209  43.502   2.783
 5268W        W66634  20.095  42.911   1.364
 5269W        W66635  41.800  10.245  14.391
 5270W        W66636  18.252  16.684   3.221
 5271W        W66637  41.965   6.910  10.998
 5272W        W66638  41.862   3.437  14.355
 5273W        W66639  25.648  14.684   3.153
 5274W        W66640  22.712  14.148   3.233
 5275W        W66641  25.679  10.819   0.466
 5276W        W66642   0.925  31.594   2.355
 5277W        W66643  13.190  10.764  12.963
 5278W        W66644   5.716  14.240   1.899
 5279W        W66645  15.262   1.274  12.348
 5280W        W66646  42.353   5.311  10.897
 5281W        W66647  33.880  41.339  13.028
 5282W        W66648  31.020  13.653  14.760
 5283W        W66649   7.337  23.058  10.989
 5284W        W66650  39.488  42.452   1.818
 5285W        W66651  27.130  44.370  13.935
 5286W        W66652   9.317  23.023  12.875
 5287W        W66653   2.295  13.803  12.849
 5288W        W66654  35.591  22.744   0.754
 5289W        W66655  19.180  44.905   1.806
 5290W        W66656  19.062  20.642   0.749
 5291W        W66657  34.500   4.303  13.985
 5292W        W66658   8.174   2.419   3.700
 5293W        W66659  14.713   4.940   4.165
 5294W        W66660  24.144   0.901   2.222
 5295W        W66661  29.472  26.599   1.776
 5296W        W66662  30.103  11.741  13.342
 5297W        W66663  18.074  28.155  14.291
 5298W        W66664  14.317  16.073   1.752
 5299W        W66665  40.333  19.249  12.970
 5300W        W66666  42.422   7.269  11.116
 5301W        W66667  38.418  28.962  13.527
 5302W        W66668  32.450  35.479  11.938
 5303W        W66669  16.686  37.951   3.195
 5304W        W66670  33.069   0.342  13.500
 5305W        W66671  14.259   1.913  14.427
 5306W        W66672  17.212  38.373   1.921
 5307W        W66673  30.516  31.553  10.604
 5308W        W66674  38.366  26.180   4.682
 5309W        W66675  35.020  28.172  14.014
 5310W        W66676   7.711  13.603   1.315
 5311W        W66677  14.831  19.167  11.443
 5312W        W66678  14.146  10.799   0.315
 5313W        W66679  31.153   1.277  11.429
 5314W        W66680  41.015  44.277   1.870
 5315W        W66681  17.293  41.029   0.367
 5316W        W66682  43.986  34.609  12.853
 5317W        W66683  41.408  18.260   4.228
 5318W        W66684  28.957  39.890  10.433
 5319W        W66685  35.366   2.780   0.938
 5320W        W66686  17.265  34.424   4.599
 5321W        W66687   4.741  38.994  14.285
 5322W        W66688   4.430  40.380  11.492
 5323W        W66689   3.810  12.742  13.973
 5324W        W66690   9.765  11.772  14.410
 5325W        W66691  37.832   3.458  11.484
 5326W        W66692   0.342  22.248  13.483
 5327W        W66693  17.710  20.714   1.225
 5328W        W66694  37.833  21.738   1.854
 5329W        W66695  29.554   4.853  13.442
 5330W        W66696  13.791   8.402   4.768
 5331W        W66697  16.119  31.975   2.815
 5332W        W66698  30.098   6.263  11.456
 5333W        W66699  23.622   7.267   0.326
 5334W        W66700  32.489  44.910   4.652
 5335W        W66701  10.203  28.143   4.665
 5336W        W66702  23.001  18.086  12.366
 5337W        W66703  10.269  19.641  14.000
 5338W        W66704  24.150  39.809   4.318
 5339W        W66705  30.475  28.632   2.899
 5340W        W66706  19.186   1.360   3.172
 5341W        W66707  33.104  10.143   3.846
 5342W        W66708  39.924  32.911   2.379
 5343W        W66709   6.204  35.854   4.305
 5344W        W66710   7.208  27.143  10.642
 5345W        W66711  33.119  27.144  13.515
 5346W        W66712  10.805  23.125   0.436
 5347W        W66713  18.576  44.308  10.115
 5348W        W66714  42.944   1.751   4.323
 5349W        W66715  17.091  10.665  13.808
 5350W        W66716  15.258   7.751  12.884
 5351W        W66717  13.673  18.093   4.222
 5352W        W66718  26.128   0.379  13.863
 5353W        W66719  15.616   7.277  12.093
 5354W        W66720  44.830  31.962  14.835
 5355W        W66721  32.500  38.008   4.659
 5356W        W66722  33.905  34.917  12.045
 5357W        W66723  41.008  37.563  11.110
 5358W        W66724   2.907   4.803   3.757
 5359W        W66725  40.838  26.103  14.031
 5360W        W66726  44.484   1.786  11.373
 5361W        W66727  13.203   5.788   0.355
 5362W        W66728  29.635  29.988  13.382
 5363W        W66729  38.371  33.522   1.707
 5364W        W66730  19.774  17.301   3.292
 5365W        W66731  30.597  29.065   2.684
 5366W        W66732  43.918  28.633  11.448
 5367W        W66733  43.451  27.558  12.869
 5368W        W66734  25.543  21.752  14.834
 5369W        W66735  40.451  44.862  14.875
 5370W        W66736  16.577   1.846  14.819
 5371W        W66737   1.451  11.636   4.156
 5372W        W66738  16.143  14.590   1.249
 5373W        W66739  43.351  41.793   3.201
 5374W        W66740  35.597  42.861   2.903
 5375W        W66741  34.559  11.675   0.269
 5376W        W66742   3.287  34.394   2.802
 5377W        W66743  23.071  19.570   2.249
 5378W        W66744   2.452  30.645  13.497
 5379W        W66745  20.610  39.917  12.901
 5380W        W66746  32.526   3.781  14.299
 5381W        W66747  17.679  44.999  11.439
 5382W        W66748  32.997  29.540  12.405
 5383W        W66749  44.494  36.013   0.273
 5384W        W66750  34.091  36.028   1.706
 5385W        W66751  27.071  30.970   3.828
 5386W        W66752  40.008   9.776   4.336
 5387W        W66753  44.925  21.652  12.493
 5388W        W66754  27.947   3.266   2.356
 5389W        W66755  33.112  39.949   0.425
 5390W        W66756  26.020  16.694  14.343
 5391W        W66757   2.853  32.424  10.966
 5392W        W66758  40.482   6.686   0.959
 5393W        W66759  38.408  40.957   3.189
 5394W        W66760   2.236   9.244   2.716
 5395W        W66761  31.500  41.790   1.809
 5396W        W66762   1.425  44.907  13.940
 5397W        W66763   3.239  23.510  12.834
 5398W        W66764   6.396  13.689  14.882
 5399W        W66765  13.333  11.224   2.733
 5400W        W66766  44.460  18.640  11.392
 5401W        W66767  24.632  29.532  10.997
 5402W        W66768  44.311  37.511   2.414
 5403W        W66769  17.567  34.571   4.797
 5404W        W66770  38.369   7.777   4.289
 5405W        W66771  36.434   0.442   3.243
 5406W        W66772  14.732  20.086   1.811
 5407W        W66773  21.214  24.516   5.138
 5408W        W66774  18.680  17.177  14.319
 5409W        W66775  17.791  36.513  11.382
 5410W        W66776  22.519  30.157  14.338
 5411W        W66777  31.960  25.177   2.359
 5412W        W66778  12.316  33.929   0.404
 5413W        W66779  31.073  16.681  12.075
 5414W        W66780  33.890  18.193  14.401
 5415W        W66781  27.468   2.915  14.995
 5416W        W66782  15.114  31.009  12.541
 5417W        W66783  42.021  13.230   2.366
 5418W        W66784  31.552  15.248  14.871
 5419W        W66785  15.186  27.561   3.171
 5420W        W66786  21.138  25.468   4.225
 5421W        W66787  33.532  26.078  14.938
 5422W        W66788  18.678  31.478   4.240
 5423W        W66789  41.307  32.952   0.820
 5424W        W66790  24.683  28.629   1.409
 5425W        W66791  17.193   1.418   2.215
 5426W        W66792  33.064   2.924   3.725
 5427W        W66793  14.241  13.608  12.047
 5428W        W66794  13.276  39.556  14.799
 5429W        W66795  13.307  42.294  14.894
 5430W        W66796   1.886   1.443   2.223
 5431W        W66797   5.315  22.581  12.376
 5432W        W66798  21.746  12.770   2.249
 5433W        W66799   7.787  12.340  14.955
 5434W        W66800  22.636  18.633   2.767
 5435W        W66801  18.257   0.986  12.389
 5436W        W66802   6.291  10.662   4.301
 5437W        W66803  27.033  18.206  13.428
 5438W        W66804   2.824  13.157  13.883
 5439W        W66805  35.564   4.863  13.791
 5440W        W66806  42.485  11.363  12.925
 5441W        W66807  23.651   8.367   3.159
 5442W        W66808  40.390  14.641  13.478
 5443W        W66809  14.619  37.394   1.779
 5444W        W66810  28.048  28.183   0.263
 5445W        W66811   3.776  34.436   1.429
 5446W        W66812  20.621  33.559   1.439
 5447W        W66813  28.603  11.262   3.247
 5448W        W66814  14.777  43.321  12.406
 5449W        W66815  32.935  20.604   3.355
 5450W        W66816   2.755  29.620   2.178
 5451W        W66817  29.500  36.497  14.761
 5452W        W66818  42.956  44.473   1.724
 5453W        W66819  36.552  16.625   1.764
 5454W        W66820  16.705   0.259   4.246
 5455W        W66821  30.077  17.180  14.421
 5456W        W66822  36.062  31.640  12.859
 5457W        W66823  10.367   5.214   4.824
 5458W        W66824  22.534   7.209   0.778
 5459W        W66825  11.865  37.360   2.295
 5460W        W66826  42.798  12.802   2.227
 5461W        W66827  34.900  22.151   3.631
 5462W        W66828  15.770  28.165   3.649
 5463W        W66829   9.814  41.916   4.258
 5464W        W66830  23.492  41.486  14.344
 5465W        W66831  17.749  10.686   2.285
 5466W        W66832   4.739  17.252   0.736
 5467W        W66833  31.621  40.332   2.753
 5468W        W66834   8.827  32.995  10.035
 5469W        W66835  39.477   8.252  13.040
 5470W        W66836  38.962  39.438  13.008
 5471W        W66837   0.481   9.652   2.182
 5472W        W66838  43.404  15.698  14.309
 5473W        W66839  39.978  26.675  14.924
 5474W        W66840  41.491  42.893  10.552
 5475W        W66841  20.214  43.826   3.715
 5476W        W66842   0.318  41.370  10.423
 5477W        W66843  26.679  16.727   2.862
 5478W        W66844   7.694  31.994   2.182
 5479W        W66845  11.812  31.150   2.415
 5480W        W66846  33.416   2.751  11.432
 5481W        W66847  38.421  23.099  12.425
 5482W        W66848  38.564  35.424  13.852
 5483W        W66849  13.229  11.268   0.481
 5484W        W66850  26.655  38.038   5.246
 5485W        W66851  32.057   5.347  11.452
 5486W        W66852  40.409  34.447   3.313
 5487W        W66853   5.902  20.613   3.247
 5488W        W66854  16.304   6.800   1.220
 5489W        W66855  14.658  42.451  12.367
 5490W        W66856  33.520  38.071  14.011
 5491W        W66857  23.135  25.994   2.391
 5492W        W66858  15.235  32.072   1.898
 5493W        W66859   0.468  35.962  10.987
 5494W        W66860  17.254   5.773  11.537
 5495W        W66861  30.067  41.973   1.429
 5496W        W66862   0.890  32.901  11.116
 5497W        W66863  31.412  25.013  11.470
 5498W        W66864  10.223   7.738  13.911
 5499W        W66865   9.226   5.750  14.510
 5500W        W66866  37.531  44.347   1.281
 5501W        W66867  25.583  31.007  14.014
 5502W        W66868  14.113   6.870   1.239
 5503W        W66869  29.565  44.304   4.606
 5504W        W66870  38.348  28.163   2.302
 5505W        W66871  26.464  17.266  14.282
 5506W        W66872  26.702  31.517  14.289
 5507W        W66873  10.708  36.987   2.178
 5508W        W66874  41.434  39.508   3.665
 5509W        W66875   7.402  34.370   0.268
 5510W        W66876   0.486  33.113   2.887
 5511W        W66877   1.399   7.371   2.694
 5512W        W66878  13.310  26.604  11.384
 5513W        W66879  35.368  19.619  10.451
 5514W        W66880   6.354  41.503  12.075
 5515W        W66881  22.680  23.151   3.380
 5516W        W66882  43.908  27.522   1.865
 5517W        W66883  18.575   3.339   2.258
 5518W        W66884  26.131  18.169   4.173
 5519W        W66885   6.728  41.839  14.333
 5520W        W66886  16.781  30.958  11.874
 5521W        W66887   0.450   0.900  10.447
 5522W        W66888  10.345   5.392   4.177
 5523W        W66889  40.458   4.356   0.423
 5524W        W66890  41.841  35.952  11.573
 5525W        W66891  34.953  17.678  14.513
 5526W        W66892  40.009   3.388  12.999
 5527W        W66893  38.929   5.427  13.941
 5528W        W66894  42.857  44.819  10.550
 5529W        W66895   2.904  35.599   3.339
 5530W        W66896  42.521  38.898   0.438
 5531W        W66897  10.798  24.190   9.963
 5532W        W66898  18.191  30.056  14.018
 5533W        W66899  35.530   2.292   4.303
 5534W        W66900  40.503   8.802  12.551
 5535W        W66901  12.355  23.690  10.411
 5536W        W66902  15.119   3.247  14.806
 5537W        W66903  34.912  12.657   4.138
 5538W        W66904  15.585  34.043  13.509
 5539W        W66905  22.116   4.742  14.474
 5540W        W66906  18.693   5.808   4.149
 5541W        W66907  18.772  24.143   4.771
 5542W        W66908  42.976   9.190   2.837
 5543W        W66909  36.356  31.922  14.770
 5544W        W66910  41.469   8.800  14.479
 5545W        W66911  24.485   9.683   1.433
 5546W        W66912  17.277  31.607  11.601
 5547W        W66913  10.696  44.806  10.559
 5548W        W66914  35.025  29.989   4.732
 5549W        W66915  28.131  18.080  11.559
 5550W        W66916   1.474  21.730  12.422
 5551W        W66917  39.425  26.200   3.349
 5552W        W66918  36.054   2.895  13.961
 5553W        W66919  34.014  17.648  13.873
 5554W        W66920  27.057  28.626   0.246
 5555W        W66921  41.975  29.015  13.843
 5556W        W66922  43.385   0.842   1.296
 5557W        W66923  17.303   1.416   3.187
 5558W        W66924  12.727  22.170  11.866
 5559W        W66925  29.525  31.914  14.860
 5560W        W66926  16.287  43.818   0.938
 5561W        W66927  10.153  28.963   0.852
 5562W        W66928  43.771  21.259  12.869
 5563W        W66929   7.790  10.636  14.877
 5564W        W66930  36.412  30.991  11.944
 5565W        W66931  33.614  37.054   0.415
 5566W        W66932  29.133  32.991   3.691
 5567W        W66933  10.716  37.572  13.334
 5568W        W66934  35.570   6.418   2.870
 5569W        W66935  42.492   2.794   3.704
 5570W        W66936  30.926  17.754  10.427
 5571W        W66937   9.364   2.950  14.304
 5572W        W66938  32.544  14.671  14.857
 5573W        W66939  31.030  17.211   4.140
 5574W        W66940  16.163   1.773  13.897
 5575W        W66941   7.909  17.097  12.385
 5576W        W66942  42.521  34.989  14.349
 5577W        W66943   9.868  10.799   0.285
 5578W        W66944   4.810  30.613   1.926
 5579W        W66945  14.188  40.986  12.068
 5580W        W66946  24.031  14.628   4.602
 5581W        W66947   5.835   1.840   5.284
 5582W        W66948  32.937  23.664   4.812
 5583W        W66949  24.199  11.739  12.039
 5584W        W66950  27.150  18.579   2.829
 5585W        W66951  42.350  19.714   2.265
 5586W        W66952  42.918   8.836   4.121
 5587W        W66953  20.138   9.826   0.425
 5588W        W66954   8.866  12.668  10.552
 5589W        W66955  24.697  18.687   3.669
 5590W        W66956   9.377  15.607   0.930
 5591W        W66957   2.379  41.395   2.218
 5592W        W66958  35.929  37.933  10.463
 5593W        W66959  26.465  24.034   0.352
 5594W        W66960  39.404   2.467   4.326
 5595W        W66961  31.535  10.368  10.579
 5596W        W66962   5.903  39.899   3.193
 5597W        W66963   5.301   1.755  13.484
 5598W        W66964  36.857   2.775   4.318
 5599W        W66965  15.798  17.644  14.312
 5600W        W66966  22.583  15.231   1.839
 5601W        W66967  30.497  14.279   1.438
 5602W        W66968  20.549  13.261  11.393
 5603W        W66969  39.378  14.221   0.434
 5604W        W66970  15.705  18.663   0.942
 5605W        W66971  39.447  32.138   4.796
 5606W        W66972  12.835  30.644  13.927
 5607W        W66973  24.660  10.813   1.784
 5608W        W66974  38.325  14.287  11.550
 5609W        W66975  28.067   0.915  12.351
 5610W        W66976   1.917  22.101  14.897
 5611W        W66977  23.011  11.836   0.884
 5612W        W66978   0.293  43.786  13.470
 5613W        W66979  14.151  43.460  14.915
 5614W        W66980  28.006  38.925  11.867
 5615W        W66981  30.926  11.234  12.488
 5616W        W66982  31.436  15.265  12.842
 5617W        W66983  43.351  39.923   3.234
 5618W        W66984  35.853   6.240  14.788
 5619W        W66985  37.373   2.958   2.372
 5620W        W66986  28.671  42.524  11.526
 5621W        W66987  42.918   8.783   0.383
 5622W        W66988   5.294   6.737   4.280
 5623W        W66989  36.564  37.867  11.382
 5624W        W66990  36.876  22.700   0.429
 5625W        W66991  14.253  39.436   1.716
 5626W        W66992  13.811  20.163  14.492
 5627W        W66993  25.700  26.982  11.380
 5628W        W66994  40.484  41.020   4.807
 5629W        W66995  14.117  44.967  13.538
 5630W        W66996  37.012   5.397   1.795
 5631W        W66997  18.597  22.145   1.841
 5632W        W66998  21.111   7.310  12.342
 5633W        W66999  41.462  16.571  11.102
 5634W        W67000  25.585  13.153  12.992
 5635W        W67001   9.350   2.372   3.802
 5636W        W67002   4.912  34.101  11.474
 5637W        W67003  19.542  25.598  12.543
 5638W        W67004   6.702   8.731   1.886
 5639W        W67005  38.861  27.109   0.851
 5640W        W67006  25.019  27.486   1.249
 5641W        W67007  17.742  22.747   0.350
 5642W        W67008  31.973  16.782  12.877
 5643W        W67009  23.703   5.268  12.434
 5644W        W67010  23.505  26.574   4.243
 5645W        W67011  12.248  14.676   1.274
 5646W        W67012  36.094  14.225  13.912
 5647W        W67013  42.912  44.981   1.395
 5648W        W67014  20.097   0.830  10.443
 5649W        W67015  30.440   8.662   2.874
 5650W        W67016  29.658  17.082  14.819
 5651W        W67017  35.900  29.613  13.919
 5652W        W67018  41.887   3.949  11.120
 5653W        W67019  24.171   1.849  12.425
 5654W        W67020  26.618  13.834   1.230
 5655W        W67021  34.428  41.481   5.230
 5656W        W67022  29.945   4.918  14.979
 5657W        W67023  33.398  31.501  13.315
 5658W        W67024   9.827  35.485   0.285
 5659W        W67025   9.731  14.287  11.540
 5660W        W67026  13.609  20.257  10.519
 5661W        W67027  39.017  44.843   4.823
 5662W        W67028  33.972  15.104  10.558
 5663W        W67029  29.486  42.875  14.362
 5664W        W67030  23.515  18.700  12.963
 5665W        W67031  30.551  12.188  12.907
 5666W        W67032  15.087  20.758  12.495
 5667W        W67033  34.584  32.479  14.306
 5668W        W67034  13.269  41.304   9.941
 5669W        W67035  34.582  12.331   0.947
 5670W        W67036  33.042  21.258  12.903
 5671W        W67037   5.273  19.272  10.001
 5672W        W67038  29.052  19.184   2.684
 5673W        W67039  25.543   8.778   2.877
 5674W        W67040  18.697  24.973   4.313
 5675W        W67041  43.835  42.967  10.615
 5676W        W67042  38.065  35.586   1.874
 5677W        W67043  16.760  32.099   4.636
 5678W        W67044   1.867  38.361  14.765
 5679W        W67045  40.351  44.840  12.070
 5680W        W67046  24.983  29.553   2.239
 5681W        W67047  43.479  15.227   0.912
 5682W        W67048  43.895  39.941  11.435
 5683W        W67049  24.629  17.073  10.622
 5684W        W67050  36.040  23.537  14.940
 5685W        W67051  25.615  36.553   1.754
 5686W        W67052  31.965   9.191   4.623
 5687W        W67053   5.824  29.104   3.206
 5688W        W67054   7.797  14.818  11.522
 5689W        W67055  21.673   7.224  13.058
 5690W        W67056  35.080  25.024  12.039
 5691W        W67057  26.011  23.987  12.947
 5692W        W67058  39.958  10.300   3.297
 5693W        W67059  20.592  33.386   2.772
 5694W        W67060  12.781  41.389   0.856
 5695W        W67061  23.076   7.269   4.610
 5696W        W67062   3.903  36.018  12.543
 5697W        W67063   4.735  10.157  12.927
 5698W        W67064  43.779  42.507  10.477
 5699W        W67065  19.646  25.501   0.369
 5700W        W67066   2.255  19.726   0.805
 5701W        W67067  15.719  21.170  12.840
 5702W        W67068   4.826  21.153   3.746
 5703W        W67069  13.132  34.429   0.901
 5704W        W67070   4.706  10.260  11.956
 5705W        W67071   8.198  34.395  13.406
 5706W        W67072  29.996  19.169  14.403
 5707W        W67073  42.005  40.042  14.767
 5708W        W67074  36.449  23.550   3.318
 5709W        W67075   5.817  43.011   4.209
 5710W        W67076  34.370  12.856   2.859
 5711W        W67077  15.114  15.148  13.992
 5712W        W67078  26.595  26.049   4.239
 5713W        W67079  19.232  35.480   1.404
 5714W        W67080  44.920  35.556  11.611
 5715W        W67081  42.525  35.452   4.813
 5716W        W67082  38.975  25.602  14.312
 5717W        W67083  34.397  39.934   2.668
 5718W        W67084  12.324  26.023  13.972
 5719W        W67085  28.523  39.835   1.732
 5720W        W67086  39.326  42.888  12.576
 5721W        W67087  41.992  34.954  12.490
 5722W        W67088  36.005  32.473  12.523
 5723W        W67089  19.617  20.750  10.405
 5724W        W67090  32.098   3.412   9.974
 5725W        W67091  35.922  12.207  10.622
 5726W        W67092  12.285  38.882  14.316
 5727W        W67093  33.007  41.905  13.929
 5728W        W67094  41.376  12.340  13.818
 5729W        W67095  26.050  28.536  14.820
 5730W        W67096  31.068  22.550   5.318
 5731W        W67097  31.518  36.444  14.515
 5732W        W67098  33.934  23.153   3.702
 5733W        W67099  32.562  32.950  12.902
 5734W        W67100  43.924  36.911   3.836
 5735W        W67101  35.368  14.222   1.296
 5736W        W67102  30.444  22.686   0.432
 5737W        W67103  37.020  10.348   1.754
 5738W        W67104  13.301  28.125  10.984
 5739W        W67105   6.722   6.361   4.788
 5740W        W67106  27.950  39.060   2.276
 5741W        W67107  18.751  35.374   1.878
 5742W        W67108  38.398  41.009   4.124
 5743W        W67109  32.504  44.487  13.465
 5744W        W67110   2.311  11.138   0.918
 5745W        W67111  28.476  16.288   1.380
 5746W        W67112  41.420  11.197  12.541
 5747W        W67113  28.952  39.934  11.930
 5748W        W67114  22.075  39.910  10.468
 5749W        W67115  39.836   5.195  12.436
 5750W        W67116  25.626  38.866  13.035
 5751W        W67117  28.955  20.688   2.684
 5752W        W67118  35.864  14.130  11.539
 5753W        W67119  37.982  40.328  11.980
 5754W        W67120  28.592  39.920  11.125
 5755W        W67121  27.056  13.251  13.408
 5756W        W67122  34.052  43.872   1.285
 5757W        W67123  14.727   2.840   1.873
 5758W        W67124  18.556  16.172   4.267
 5759W        W67125  20.174  18.066   3.296
 5760W        W67126  17.773  29.606  10.606
 5761W        W67127  13.273  15.806  13.495
 5762W        W67128  23.595  14.330   1.378
 5763W        W67129  44.432  26.207   4.837
 5764W        W67130  13.726  11.227   0.299
 5765W        W67131  15.176  23.625  12.366
 5766W        W67132  42.293  27.563  12.429
 5767W        W67133  22.518  14.643   0.905
 5768W        W67134   6.703  37.357   4.172
 5769W        W67135   8.827  31.938  12.916
 5770W        W67136  25.174  38.330   2.693
 5771W        W67137  24.562  15.803   3.215
 5772W        W67138  26.001  26.114  13.826
 5773W        W67139  24.556   0.299   2.704
 5774W        W67140  34.415  11.328   0.883
 5775W        W67141  15.104  11.336   1.703
 5776W        W67142   3.267   1.769  10.917
 5777W        W67143   4.727  20.638   5.125
 5778W        W67144  20.043   6.773  12.339
 5779W        W67145  34.944   1.388   3.672
 5780W        W67146  39.954  34.513  14.315
 5781W        W67147  41.847   2.819  10.469
 5782W        W67148   2.463  11.804  10.141
 5783W        W67149  34.458   1.408  11.897
 5784W        W67150  24.684  11.816   4.600
 5785W        W67151  30.946  22.092   5.312
 5786W        W67152  30.031  15.157   0.289
 5787W        W67153  40.992   9.687  11.933
 5788W        W67154  26.964  37.084   3.301
 5789W        W67155  26.978  33.026  10.911
 5790W        W67156   2.263  12.739  10.121
 5791W        W67157  36.032   6.198   5.180
 5792W        W67158  12.141  40.393   3.191
 5793W        W67159  37.843   9.663  11.501
 5794W        W67160  42.502  14.322   2.244
 5795W        W67161  18.558  23.114  11.405
 5796W        W67162   9.787  33.572   4.315
 5797W        W67163  21.152  33.033  13.907
 5798W        W67164  22.097  34.967  13.000
 5799W        W67165  34.533  13.719  14.983
 5800W        W67166  34.408  44.895  10.426
 5801W        W67167  36.083  32.565  12.989
 5802W        W67168  25.083  11.194  11.518
 5803W        W67169  39.430  30.011  12.478
 5804W        W67170  37.007  37.918   3.812
 5805W        W67171   6.277  29.091  10.570
 5806W        W67172  13.643  41.476   4.601
 5807W        W67173  37.030   5.208  11.505
 5808W        W67174   6.900  38.523  10.482
 5809W        W67175  14.595  43.377  13.378
 5810W        W67176  15.240  16.646   1.905
 5811W        W67177  30.076  42.315   2.731
 5812W        W67178  25.622  16.733   3.304
 5813W        W67179  16.188  44.848  14.853
 5814W        W67180   3.826  31.088  13.007
 5815W        W67181  21.551  13.247   3.752
 5816W        W67182  11.330  19.712  12.437
 5817W        W67183   6.799   4.904   1.388
 5818W        W67184  21.053  17.087  11.509
 5819W        W67185  24.613  12.613   4.699
 5820W        W67186  39.460   8.790  12.879
 5821W        W67187  41.345  10.312  14.882
 5822W        W67188  10.789  32.509  10.120
 5823W        W67189  10.771   5.432   3.659
 5824W        W67190  33.496  11.342   1.718
 5825W        W67191  12.711  18.262   3.297
 5826W        W67192   6.234  20.573   4.645
 5827W        W67193  23.996  22.653  12.416
 5828W        W67194  38.528  23.569   3.860
 5829W        W67195  42.375  29.951   2.211
 5830W        W67196  31.414  37.082   3.787
 5831W        W67197   0.937  10.826  10.907
 5832W        W67198   8.755  17.254   1.726
 5833W        W67199  15.661  43.284  10.923
 5834W        W67200  36.887   7.357  11.433
 5835W        W67201   7.748  21.536  13.416
 5836W        W67202   3.349  33.501  10.920
 5837W        W67203   0.981  19.154  13.475
 5838W        W67204  34.522  11.253   2.265
 5839W        W67205  43.334  21.244   1.418
 5840W        W67206  38.913  11.795   4.598
 5841W        W67207  16.747  35.487  12.524
 5842W        W67208  16.305  17.738  10.415
 5843W        W67209  10.157   8.859   3.658
 5844W        W67210  29.964  35.554   0.412
 5845W        W67211   4.341  39.954  13.407
 5846W        W67212   9.189   2.833  11.571
 5847W        W67213  41.381  33.444   3.785
 5848W        W67214  12.267  32.894  14.793
 5849W        W67215  15.627  44.976   4.158
 5850W        W67216  17.610  16.708  10.972
 5851W        W67217  36.879  20.210  14.295
 5852W        W67218  38.926  17.757  14.889
 5853W        W67219  15.113  36.373  10.482
 5854W        W67220  13.323  14.704   0.857
 5855W        W67221  14.205  29.589  14.797
 5856W        W67222  41.865  33.528  13.923
 5857W        W67223  16.105   3.930  12.952
 5858W        W67224  13.759  28.177  10.502
 5859W        W67225  34.935  14.628   4.718
 5860W        W67226  18.248  22.115   1.246
 5861W        W67227  34.039  15.116   3.707
 5862W        W67228  24.147   8.755   4.838
 5863W        W67229   2.741  44.979   4.805
 5864W        W67230   3.248  29.534  10.054
 5865W        W67231  22.510  41.395   3.227
 5866W        W67232  16.639  14.780  14.932
 5867W        W67233   3.394   3.441   3.719
 5868W        W67234  28.556   1.965   4.180
 5869W        W67235  19.179  16.715   0.864
 5870W        W67236  16.235  12.206   1.914
 5871W        W67237  36.012  16.572   1.753
 5872W        W67238  28.526  34.068  13.903
 5873W        W67239  44.941  16.195  10.515
 5874W        W67240  37.546  42.794   1.920
 5875W        W67241  21.636   8.177   0.777
 5876W        W67242  15.647  34.091  13.903
 5877W        W67243   0.937  21.251  13.447
 5878W        W67244  40.405  16.233  14.955
 5879W        W67245  27.570  26.956   0.453
 5880W        W67246  24.623  38.849  13.356
 5881W        W67247  11.295  22.595  13.535
 5882W        W67248   6.906  25.094  11.879
 5883W        W67249  28.057  16.086  11.024
 5884W        W67250  23.709  20.715   2.888
 5885W        W67251  35.392  44.315  12.865
 5886W        W67252  19.615  20.653   1.221
 5887W        W67253  41.013  36.556  10.540
 5888W        W67254  28.561  22.695   0.280
 5889W        W67255  17.624   9.662   2.255
 5890W        W67256  41.992  20.213   0.482
 5891W        W67257  29.426  30.601   4.773
 5892W        W67258  15.786  31.049   2.228
 5893W        W67259  17.588  24.213  11.450
 5894W        W67260  30.649  31.490   1.904
 5895W        W67261  42.499   4.707   4.301
 5896W        W67262  12.665  16.187  11.914
 5897W        W67263  23.138  18.129   2.831
 5898W        W67264  28.551  28.050   0.469
 5899W        W67265   2.393  36.428   0.733
 5900W        W67266   8.660  19.066  12.543
 5901W        W67267  15.715  26.012   2.849
 5902W        W67268  25.658   2.340   3.299
 5903W        W67269   4.409  36.528  11.436
 5904W        W67270   6.726  31.096  11.377
 5905W        W67271  43.404  16.659   1.855
 5906W        W67272  11.196  33.564  13.887
 5907W        W67273  15.639  27.488  11.593
 5908W        W67274  27.950  35.419   3.704
 5909W        W67275  21.514  19.707  12.347
 5910W        W67276  30.418   9.196  11.060
 5911W        W67277  22.189  31.648  12.960
 5912W        W67278  41.444   2.814  14.991
 5913W        W67279  40.420  38.344   2.682
 5914W        W67280  17.688  44.317   0.794
 5915W        W67281  43.899  28.160  11.125
 5916W        W67282  12.330  22.653   3.350
 5917W        W67283  37.546  18.783   0.780
 5918W        W67284  23.523  19.682   2.806
 5919W        W67285  17.726  37.914  14.299
 5920W        W67286  17.301  14.281   9.461
 5921W        W67287  11.326  20.147  11.435
 5922W        W67288  19.281   2.298   4.205
 5923W        W67289   1.878  14.623  10.888
 5924W        W67290  12.236  10.321  10.960
 5925W        W67291  11.346  31.606   2.236
 5926W        W67292  17.677  38.325   1.809
 5927W        W67293  31.938  42.429   4.311
 5928W        W67294  23.229  27.514   3.638
 5929W        W67295   7.206  24.612   3.387
 5930W        W67296  31.524  28.516   4.330
 5931W        W67297  10.788   4.892  14.985
 5932W        W67298  25.481  29.023  14.822
 5933W        W67299  10.302  13.825  11.583
 5934W        W67300  12.342  17.661  11.586
 5935W        W67301  36.498  25.053   3.783
 5936W        W67302  11.247  16.711  11.504
 5937W        W67303  19.081  19.595  13.905
 5938W        W67304  13.760   0.776   4.349
 5939W        W67305  41.516   2.457   0.306
 5940W        W67306  21.676  19.534   0.779
 5941W        W67307  40.836  18.788  14.919
 5942W        W67308   1.926  30.518  14.899
 5943W        W67309  31.947  27.087  13.507
 5944W        W67310  26.085  37.500  11.502
 5945W        W67311  41.976  38.345  11.975
 5946W        W67312  25.507   3.884   2.834
 5947W        W67313  11.128   6.292  13.544
 5948W        W67314  32.453  14.152   0.436
 5949W        W67315  15.679  20.650   0.468
 5950W        W67316  14.315  37.019   0.852
 5951W        W67317  11.370  29.983  12.862
 5952W        W67318  13.140  11.861  11.536
 5953W        W67319  20.232   8.706  12.528
 5954W        W67320   7.367   2.720   3.665
 5955W        W67321  23.627  38.533   4.182
 5956W        W67322  27.025  15.148   2.417
 5957W        W67323   3.913  30.122   4.729
 5958W        W67324  39.016  36.450   0.360
 5959W        W67325  15.640  25.509   3.792
 5960W        W67326   0.311   9.315   2.766
 5961W        W67327  15.785  17.563  10.459
 5962W        W67328   8.885   2.848  14.761
 5963W        W67329   8.811  37.378  13.336
 5964W        W67330   8.210  13.290   1.916
 5965W        W67331  22.037   1.792   2.192
 5966W        W67332  19.729  20.042   4.774
 5967W        W67333  28.647  11.140  12.562
 5968W        W67334   0.441  40.337  11.994
 5969W        W67335  25.660  20.240   2.728
 5970W        W67336  44.495  24.584  13.318
 5971W        W67337  42.317  19.079  13.397
 5972W        W67338  44.835  10.222   0.890
 5973W        W67339  14.743  22.727   3.796
 5974W        W67340  35.598  41.815   2.788
 5975W        W67341  25.514  28.501   1.306
 5976W        W67342  27.091   5.896   9.940
 5977W        W67343  26.521  39.914   1.422
 5978W        W67344  31.143  40.953   2.266
 5979W        W67345  33.466  31.058   0.456
 5980W        W67346  44.328  21.520   1.844
 5981W        W67347  19.105  13.175  13.542
 5982W        W67348   3.781  29.021   2.334
 5983W        W67349  22.500  16.685   3.692
 5984W        W67350  12.690  32.455   1.336
 5985W        W67351  28.149  31.500  10.106
 5986W        W67352   9.270  39.950  13.839
 5987W        W67353  37.001  12.736   2.359
 5988W        W67354  28.042  30.103   2.406
 5989W        W67355  38.955  34.551  12.966
 5990W        W67356  11.638  41.819   0.311
 5991W        W67357   3.859   4.708   3.672
 5992W        W67358  42.937  13.340   1.775
 5993W        W67359  44.293  41.413  11.030
 5994W        W67360  39.515   5.402   2.710
 5995W        W67361  34.575  44.299  11.124
 5996W        W67362  24.578  19.119   2.222
 5997W        W67363  28.596  10.185   2.284
 5998W        W67364  14.734  13.320   4.647
 5999W        W67365  36.415  27.681  10.902
 6000W        W67366  24.144  19.553   0.381
 6001W        W67367  14.097  36.444  13.050
 6002W        W67368   7.841  42.519  13.031
 6003W        W67369  30.592  43.994  10.512
 6004W        W67370   1.842  43.843  12.524
 6005W        W67371   8.757  10.207  11.886
 6006W        W67372   5.419  28.591   4.190
 6007W        W67373  10.349  40.856   0.940
 6008W        W67374   0.896   9.730  10.502
 6009W        W67375  43.773  43.511   1.303
 6010W        W67376  25.066  28.559   3.728
 6011W        W67377  26.513  36.863  11.543
 6012W        W67378  41.403   9.257  11.079
 6013W        W67379  40.525  12.752  13.061
 6014W        W67380  14.256   9.242   0.428
 6015W        W67381   1.238  18.632   2.799
 6016W        W67382   0.929   5.897  13.329
 6017W        W67383  32.502  32.626   3.771
 6018W        W67384  27.611   9.700   0.397
 6019W        W67385  19.552  28.456  10.506
 6020W        W67386  25.156  17.276  14.318
 6021W        W67387  28.627  37.560   4.647
 6022W        W67388  25.040  30.437  12.906
 6023W        W67389   4.700  43.332  14.461
 6024W        W67390  30.515  28.673  13.333
 6025W        W67391  41.523  12.751   1.808
 6026W        W67392   3.831  38.902  10.411
 6027W        W67393  14.106  30.622  10.991
 6028W        W67394  43.829  14.681  13.021
 6029W        W67395   6.814  28.455  14.008
 6030W        W67396  26.539  23.662   1.869
 6031W        W67397   5.779   9.665   1.822
 6032W        W67398  11.728  27.126   1.318
 6033W        W67399  25.617  24.610   3.732
 6034W        W67400  23.559  14.835  14.887
 6035W        W67401  29.570  30.161  14.282
 6036W        W67402  40.041  21.548  10.571
 6037W        W67403  38.048  29.094   2.662
 6038W        W67404  25.685  19.113   0.939
 6039W        W67405  14.794  21.576  14.286
 6040W        W67406  24.525  35.093  10.996
 6041W        W67407  15.088  38.883  10.416
 6042W        W67408  40.349  25.059   1.225
 6043W        W67409  42.337  14.615  13.912
 6044W        W67410  32.511  37.866  13.009
 6045W        W67411  20.572  30.619   4.119
 6046W        W67412   4.350  39.859  10.943
 6047W        W67413   8.842  11.807   1.281
 6048W        W67414  24.616   9.306   3.769
 6049W        W67415  23.708  10.207   1.236
 6050W        W67416  11.736  30.644   2.749
 6051W        W67417  41.348  42.874   1.744
 6052W        W67418  41.826  29.662   1.248
 6053W        W67419  21.249   4.314  14.412
 6054W        W67420  22.574  33.962  11.489
 6055W        W67421   2.800  40.926  10.555
 6056W        W67422  19.632  25.649   4.757
 6057W        W67423   6.339  41.913  11.067
 6058W        W67424  10.765  34.534  10.898
 6059W        W67425  16.737  33.608   1.750
 6060W        W67426  14.701  27.141   2.197
 6061W        W67427   1.973  25.711   2.292
 6062W        W67428  16.745  33.395   4.636
 6063W        W67429  18.673  17.069   0.322
 6064W        W67430  11.867  41.874   1.772
 6065W        W67431  20.560  44.407   2.708
 6066W        W67432  23.649  26.612  13.898
 6067W        W67433  14.308  12.753   4.754
 6068W        W67434  40.030   4.764   3.220
 6069W        W67435  25.708   1.456   4.118
 6070W        W67436   1.265  14.155   5.262
 6071W        W67437  22.727  42.483   2.277
 6072W        W67438  15.153  13.831   5.742
 6073W        W67439  18.115  18.078  13.478
 6074W        W67440  21.705  11.136  13.451
 6075W        W67441  32.536  33.565  13.874
 6076W        W67442  29.542  43.505   0.290
 6077W        W67443  26.093  25.127  12.824
 6078W        W67444  11.351  34.489  10.983
 6079W        W67445  20.679  31.105  10.989
 6080W        W67446  29.637   8.306  11.993
 6081W        W67447  32.469   5.822  12.550
 6082W        W67448   4.292   8.803  12.982
 6083W        W67449  18.064  28.138  12.883
 6084W        W67450  11.665  18.658   2.830
 6085W        W67451   0.403  33.538   3.768
 6086W        W67452  38.036  38.526  12.860
 6087W        W67453  25.713  35.572  13.061
 6088W        W67454   4.235   4.749   0.866
 6089W        W67455   2.286  24.614   0.751
 6090W        W67456  41.881  15.185   1.694
 6091W        W67457  11.262  32.414   9.966
 6092W        W67458   2.920  34.546   0.340
 6093W        W67459   2.889   2.802  14.418
 6094W        W67460  33.589  10.818   1.339
 6095W        W67461   7.769  19.111  11.033
 6096W        W67462   7.213  21.719  13.866
 6097W        W67463  23.659   7.686   3.688
 6098W        W67464  21.191  15.620   2.249
 6099W        W67465  25.982  34.966  12.487
 6100W        W67466   9.166  11.725   3.802
 6101W        W67467  33.423  17.149   2.769
 6102W        W67468  20.539  27.948   4.136
 6103W        W67469  40.489  14.638  14.023
 6104W        W67470   7.803  41.015   4.273
 6105W        W67471   6.779  33.025   2.351
 6106W        W67472  44.009  28.087  11.485
 6107W        W67473  25.144  32.934   2.775
 6108W        W67474  32.484   4.716   1.935
 6109W        W67475   9.760   8.734   1.701
 6110W        W67476  31.960  41.953   3.376
 6111W        W67477  33.989  24.069  11.575
 6112W        W67478  10.379  20.730  14.309
 6113W        W67479  41.831  27.170   2.179
 6114W        W67480  37.387   4.282  10.934
 6115W        W67481   0.360  17.063  11.100
 6116W        W67482   6.232  23.164   0.873
 6117W        W67483  29.107  24.166  12.929
 6118W        W67484  27.094   6.866   4.791
 6119W        W67485   9.726  36.392   0.841
 6120W        W67486  35.852  29.925  14.402
 6121W        W67487  12.322  11.153  11.009
 6122W        W67488  17.252   5.357   3.319
 6123W        W67489  16.134  42.828   3.302
 6124W        W67490  29.050  19.137  13.428
 6125W        W67491  15.806  27.664  12.417
 6126W        W67492  10.838  31.482  10.565
 6127W        W67493   7.665  30.969   0.351
 6128W        W67494  33.553  26.043  14.513
 6129W        W67495  11.169  15.309  10.595
 6130W        W67496  28.545  30.071   3.196
 6131W        W67497  14.638  34.392  12.565
 6132W        W67498  29.099  27.964  11.992
 6133W        W67499  43.006  41.330  12.979
 6134W        W67500  41.985  13.295   4.182
 6135W        W67501  19.106  25.677  10.540
 6136W        W67502  31.074  31.095   1.708
 6137W        W67503  42.906   3.906  12.044
 6138W        W67504  35.389  29.608  11.918
 6139W        W67505  22.598  32.424   3.360
 6140W        W67506  11.139   1.900  14.429
 6141W        W67507  42.485   1.319   2.386
 6142W        W67508  13.705  33.944  11.576
 6143W        W67509  38.928  17.615   3.812
 6144W        W67510  24.658  38.375   3.738
 6145W        W67511  28.596  37.360  11.557
 6146W        W67512  26.049   5.204   1.428
 6147W        W67513  19.247  23.678   3.274
 6148W        W67514   8.403  11.322   1.257
 6149W        W67515   3.461   3.890   4.240
 6150W        W67516  26.962  37.078   1.350
 6151W        W67517  28.110  19.060   3.733
 6152W        W67518  13.189  23.603  13.847
 6153W        W67519  30.436  17.114   0.929
 6154W        W67520  25.063  11.317  12.914
 6155W        W67521  18.139   2.787  10.517
 6156W        W67522   9.766  38.550  12.889
 6157W        W67523  21.122  34.018  14.841
 6158W        W67524  23.618  33.996   2.857
 6159W        W67525  17.214  38.378  10.501
 6160W        W67526   2.297  25.612  11.448
 6161W        W67527  18.604  33.022   3.360
 6162W        W67528  35.093  25.119   3.860
 6163W        W67529  33.047   4.876  12.340
 6164W        W67530  34.384   8.708   4.276
 6165W        W67531  41.814  30.549  13.422
 6166W        W67532  34.039  19.206   3.841
 6167W        W67533  43.861  26.681   3.636
 6168W        W67534  30.922  19.067  10.161
 6169W        W67535  15.680  39.368  14.366
 6170W        W67536  34.057  28.936   0.364
 6171W        W67537  19.278  39.404   3.382
 6172W        W67538   1.384  17.115   3.254
 6173W        W67539  11.247   5.198   4.719
 6174W        W67540   5.194  17.642   0.292
 6175W        W67541  31.023  39.062  13.374
 6176W        W67542  42.470  30.569  12.861
 6177W        W67543  22.548  14.240   0.313
 6178W        W67544  30.918   0.427   4.696
 6179W        W67545   1.402  22.137  10.939
 6180W        W67546  29.467  33.928  12.908
 6181W        W67547  24.054  40.881  13.454
 6182W        W67548   8.842  16.113   1.914
 6183W        W67549  28.018  13.732  12.841
 6184W        W67550   7.246   1.847  13.512
 6185W        W67551  23.102   1.780   2.395
 6186W        W67552  14.605   2.958  11.572
 6187W        W67553  20.593  14.793  14.354
 6188W        W67554   9.890   3.788  13.448
 6189W        W67555   0.752  29.556  12.037
 6190W        W67556  20.146   8.266   4.633
 6191W        W67557  41.902  35.366  14.398
 6192W        W67558  42.868  32.457   1.273
 6193W        W67559  17.191  11.303  10.541
 6194W        W67560  29.554   8.783  10.421
 6195W        W67561  35.862  18.652  10.504
 6196W        W67562  37.073   7.367   1.932
 6197W        W67563   9.756  42.823   3.191
 6198W        W67564   7.323  12.349  11.974
 6199W        W67565  17.090  13.326  14.970
 6200W        W67566  16.122  40.822   3.337
 6201W        W67567   5.198   0.313  14.765
 6202W        W67568  35.506  35.502  11.920
 6203W        W67569   1.419  27.045  10.928
 6204W        W67570   7.749  34.471  11.479
 6205W        W67571  12.147  40.975   4.702
 6206W        W67572  19.257  27.094   1.837
 6207W        W67573  43.825  41.945   2.352
 6208W        W67574  42.323  39.449  13.033
 6209W        W67575  21.230  24.190   3.834
 6210W        W67576   5.896  38.871  12.916
 6211W        W67577  24.607  12.746  14.820
 6212W        W67578  17.670  20.526  12.998
 6213W        W67579  13.703  44.843   0.746
 6214W        W67580  14.726  20.757  14.023
 6215W        W67581  10.640  31.642  13.851
 6216W        W67582  30.509  10.740   4.200
 6217W        W67583   5.199   6.186   2.773
 6218W        W67584  44.400  26.953  10.497
 6219W        W67585   9.856  16.700   4.603
 6220W        W67586  43.398   1.904  14.810
 6221W        W67587  31.906  33.903  13.409
 6222W        W67588  18.107  31.456   3.813
 6223W        W67589  17.556  21.709  13.354
 6224W        W67590  13.792  29.460  14.843
 6225W        W67591  32.983  12.785   0.373
 6226W        W67592  38.076   4.763   3.296
 6227W        W67593  21.612  31.639   3.337
 6228W        W67594  15.651  29.155   9.977
 6229W        W67595   2.375  14.208  12.840
 6230W        W67596   5.262   2.783  12.042
 6231W        W67597   9.841  44.430   2.418
 6232W        W67598  19.716   7.718   2.830
 6233W        W67599   6.847  31.500   3.310
 6234W        W67600  10.742  38.963  12.862
 6235W        W67601  16.171  28.049   0.800
 6236W        W67602  33.906  31.136   4.207
 6237W        W67603   4.854  41.979   2.261
 6238W        W67604  33.537  19.731  14.506
 6239W        W67605  13.784  26.000  14.508
 6240W        W67606  42.423   2.273   3.724
 6241W        W67607  43.442  34.603  14.340
 6242W        W67608  32.009   8.368  13.901
 6243W        W67609  27.576  14.757   4.740
 6244W        W67610  15.619  25.022   2.833
 6245W        W67611  40.989  21.757  11.078
 6246W        W67612  28.181   5.763  14.456
 6247W        W67613  29.068   3.311   4.226
 6248W        W67614  26.184  19.769   3.248
 6249W        W67615  22.705  14.807   1.222
 6250W        W67616  13.780   9.723   3.220
 6251W        W67617  32.445  25.568   3.328
 6252W        W67618   0.988  23.006  14.422
 6253W        W67619  24.531   9.770   2.371
 6254W        W67620  24.526  24.982   2.314
 6255W        W67621  34.873  27.669  12.922
 6256W        W67622  31.153  15.673  11.868
 6257W        W67623   8.870  19.540  12.419
 6258W        W67624  43.404  15.292  11.979
 6259W        W67625  30.104  12.147  12.495
 6260W        W67626  15.212   4.383   0.279
 6261W        W67627  44.358  36.872   1.879
 6262W        W67628  44.477   5.887  10.998
 6263W        W67629   9.729  30.541  13.799
 6264W        W67630  13.141  25.675  13.875
 6265W        W67631  17.605  18.285   0.305
 6266W        W67632  20.530   8.185  10.406
 6267W        W67633  23.112  11.626  11.975
 6268W        W67634  42.343  18.082   2.813
 6269W        W67635  43.451  18.777   3.155
 6270W        W67636  16.730  27.183   0.414
 6271W        W67637   8.298  26.472  14.911
 6272W        W67638  39.434  20.629   1.898
 6273W        W67639   1.948  24.158  12.568
 6274W        W67640  33.114  31.536  10.544
 6275W        W67641  25.104   6.252   3.693
 6276W        W67642   9.747  27.104   3.805
 6277W        W67643  27.956   2.306   2.849
 6278W        W67644  15.635   5.433   4.226
 6279W        W67645   0.375  10.144  13.820
 6280W        W67646   6.234  14.242  14.502
 6281W        W67647   9.239  16.573  11.582
 6282W        W67648  32.480  26.667   3.328
 6283W        W67649   0.442  22.632   4.738
 6284W        W67650  41.997   2.461  11.542
 6285W        W67651  15.116  32.000  12.524
 6286W        W67652  31.949  43.991   1.840
 6287W        W67653  24.563  12.218  14.394
 6288W        W67654   7.759  12.167  12.936
 6289W        W67655  25.493   2.260   1.780
 6290W        W67656   9.159  24.985  10.012
 6291W        W67657  19.722  29.152  11.608
 6292W        W67658  26.603  23.187   1.408
 6293W        W67659  28.554  28.465  13.988
 6294W        W67660  33.522  40.976  12.505
 6295W        W67661  24.703  16.775   1.705
 6296W        W67662  42.328   7.818   1.243
 6297W        W67663  31.638  39.359   1.451
 6298W        W67664   4.344  18.175   1.238
 6299W        W67665  31.530   2.437  11.044
 6300W        W67666   8.218  30.560   0.769
 6301W        W67667  15.086  28.465  13.925
 6302W        W67668   5.710  14.806  14.439
 6303W        W67669  33.481  20.127   4.187
 6304W        W67670   0.483  21.096  11.085
 6305W        W67671   5.829   1.433  12.396
 6306W        W67672  36.355   0.986   0.443
 6307W        W67673  36.363  20.746  12.895
 6308W        W67674  16.190   9.274   1.871
 6309W        W67675  37.938  40.356   2.890
 6310W        W67676  21.083   5.276   4.344
 6311W        W67677  15.661  35.998  11.520
 6312W        W67678  22.662  38.909   1.825
 6313W        W67679  34.986  39.456  11.062
 6314W        W67680  20.566  44.831  11.858
 6315W        W67681  11.239  19.184  11.596
 6316W        W67682  21.569  42.339  13.899
 6317W        W67683  17.699  34.553   4.340
 6318W        W67684   0.835  27.149   2.803
 6319W        W67685  16.582   5.315   3.247
 6320W        W67686   5.270  33.882   4.761
 6321W        W67687   7.701  39.998   1.295
 6322W        W67688   6.272  39.835   4.639
 6323W        W67689  22.109  27.571   2.316
 6324W        W67690  25.133  29.119   5.123
 6325W        W67691   2.908  10.873  11.070
 6326W        W67692  31.944  20.694   2.360
 6327W        W67693  17.690  17.767   0.420
 6328W        W67694  37.542  13.281   1.230
 6329W        W67695  32.518   4.840  12.494
 6330W        W67696  15.289  26.055  12.058
 6331W        W67697  27.172   6.263  14.873
 6332W        W67698   8.663  29.156  11.115
 6333W        W67699   9.245  10.772  12.877
 6334W        W67700  42.852  19.169  13.515
 6335W        W67701  12.700  34.449   1.428
 6336W        W67702  30.076  31.087  13.889
 6337W        W67703   5.870  14.718   3.172
 6338W        W67704   8.757  38.345   2.215
 6339W        W67705  20.753  18.715  10.520
 6340W        W67706  23.032  32.041  11.539
 6341W        W67707  29.099  31.605  11.877
 6342W        W67708  22.622   7.762   1.242
 6343W        W67709  37.418   1.844   3.784
 6344W        W67710  44.452  10.300  11.969
 6345W        W67711  41.496  34.972   2.217
 6346W        W67712  19.660   6.260   1.423
 6347W        W67713   7.371   8.204   2.765
 6348W        W67714  18.288  12.321   4.248
 6349W        W67715  33.458  31.427   2.385
 6350W        W67716  41.456  16.204  11.547
 6351W        W67717  32.486   5.231   3.246
 6352W        W67718  41.376  36.533   1.302
 6353W        W67719  21.076  31.498  11.527
 6354W        W67720  39.855  44.503  14.495
 6355W        W67721  19.156  38.427   2.804
 6356W        W67722  38.933  42.488  13.029
 6357W        W67723  24.097  32.457   2.273
 6358W        W67724  11.724   2.328   0.732
 6359W        W67725  31.113  34.924  14.436
 6360W        W67726   5.778  20.650  13.064
 6361W        W67727  26.525  15.788  13.031
 6362W        W67728   7.860  44.855   4.662
 6363W        W67729  39.906  30.033  13.913
 6364W        W67730  16.146  14.212   1.767
 6365W        W67731  34.413  20.236   3.365
 6366W        W67732   0.369   8.277   0.820
 6367W        W67733  15.585   4.935   3.355
 6368W        W67734  18.595  27.981   2.861
 6369W        W67735  12.827  42.343  13.956
 6370W        W67736  41.910   2.400   3.701
 6371W        W67737  17.259  26.121   3.814
 6372W        W67738  38.883  15.125   0.288
 6373W        W67739   0.912  33.993   1.857
 6374W        W67740   0.989  37.877  10.924
 6375W        W67741   0.848   9.275  13.061
 6376W        W67742   9.368  30.959   4.177
 6377W        W67743  11.194  29.921   1.758
 6378W        W67744  14.595  21.702   0.864
 6379W        W67745  36.085  19.217  12.466
 6380W        W67746  42.988  27.946   1.384
 6381W        W67747   5.790  19.193   3.278
 6382W        W67748  29.494   2.240   2.414
 6383W        W67749  30.092   1.916  13.319
 6384W        W67750  39.897  29.919   4.311
 6385W        W67751  42.453  31.488   2.389
 6386W        W67752  12.751   1.758  11.903
 6387W        W67753   5.314  21.573   3.190
 6388W        W67754   4.443  44.317  10.048
 6389W        W67755  42.415  35.564   2.410
 6390W        W67756   1.824  17.686  12.907
 6391W        W67757  35.007   3.905   0.768
 6392W        W67758  20.599  30.017   1.253
 6393W        W67759  38.943  33.042  12.096
 6394W        W67760  22.995  21.033   4.159
 6395W        W67761  11.325  43.461  11.096
 6396W        W67762  19.275  19.173   1.738
 6397W        W67763  20.550  27.487  10.506
 6398W        W67764   8.789  14.774   4.691
 6399W        W67765  23.065  27.636  14.819
 6400W        W67766  32.994  42.889  12.027
 6401W        W67767   0.386   5.315   4.138
 6402W        W67768  12.287   0.448  12.356
 6403W        W67769  10.798  19.763   4.311
 6404W        W67770   1.837  37.848   4.181
 6405W        W67771  37.969  32.903   4.245
 6406W        W67772  11.864   6.891  11.076
 6407W        W67773   4.256  31.979  14.027
 6408W        W67774  29.525  13.741  14.339
 6409W        W67775   9.848  11.269   1.301
 6410W        W67776  42.032  12.269   2.870
 6411W        W67777  20.596   8.708  12.385
 6412W        W67778  21.093  41.820  11.545
 6413W        W67779   4.379  34.869  13.452
 6414W        W67780   1.747  23.045   2.824
 6415W        W67781   2.792   5.231   3.300
 6416W        W67782  33.093   3.933  10.556
 6417W        W67783  12.269  31.431  12.880
 6418W        W67784  25.024  33.517  13.373
 6419W        W67785   1.452  32.636  14.308
 6420W        W67786  27.047  25.603   5.765
 6421W        W67787  40.946  12.299   2.389
 6422W        W67788  26.535   4.743   1.734
 6423W        W67789  17.110  14.203  10.069
 6424W        W67790  31.960  15.719   1.364
 6425W        W67791   7.331  11.269  11.573
 6426W        W67792  13.617  26.562  13.508
 6427W        W67793  43.303   5.335  10.994
 6428W        W67794  39.467  20.598   0.384
 6429W        W67795  18.125  10.148  12.988
 6430W        W67796  20.668  44.498  10.898
 6431W        W67797  19.044  35.527   2.742
 6432W        W67798  16.766  34.059   5.207
 6433W        W67799  34.076   7.752  12.862
 6434W        W67800   4.856  23.003  12.349
 6435W        W67801  30.435  33.479   3.193
 6436W        W67802  10.368  39.903   2.182
 6437W        W67803  18.725   3.362  13.511
 6438W        W67804  21.189   0.348  11.570
 6439W        W67805  12.202  23.019  14.826
 6440W        W67806   1.264  34.057  11.009
 6441W        W67807  41.790   0.457   2.810
 6442W        W67808  32.070   8.830  14.937
 6443W        W67809   9.698  19.107  12.544
 6444W        W67810  23.726  37.904   4.330
 6445W        W67811  23.708  28.459   1.881
 6446W        W67812  34.608  41.786  12.949
 6447W        W67813   8.720  12.617   2.316
 6448W        W67814  17.739  42.898   2.261
 6449W        W67815  26.488  37.043   2.886
 6450W        W67816   2.784  41.926  14.879
 6451W        W67817   0.896  14.129  10.098
 6452W        W67818  18.739  37.056   4.789
 6453W        W67819  24.981  32.069  14.396
 6454W        W67820  12.212   0.314   0.775
 6455W        W67821  33.907  14.770  13.329
 6456W        W67822  21.200   3.823  11.039
 6457W        W67823   0.954  32.560  14.451
 6458W        W67824  15.212  23.024  10.609
 6459W        W67825  17.260  40.002  11.091
 6460W        W67826  19.651   1.857   3.782
 6461W        W67827  39.947  42.488   4.255
 6462W        W67828  14.712  38.382  14.002
 6463W        W67829  14.657   9.815  13.827
 6464W        W67830   3.302  16.317   1.762
 6465W        W67831   5.375  41.903   2.721
 6466W        W67832  27.194   9.168  14.841
 6467W        W67833  36.906   2.885   3.379
 6468W        W67834  38.403  24.660   1.716
 6469W        W67835  15.814  18.289  14.014
 6470W        W67836  26.030  41.487  11.900
 6471W        W67837   6.845   6.792   4.745
 6472W        W67838  14.613   4.821   4.771
 6473W        W67839  37.464   0.409   2.198
 6474W        W67840  30.575  31.566   4.198
 6475W        W67841  36.443  22.563   2.769
 6476W        W67842   5.260  40.305  13.929
 6477W        W67843  11.252   0.302  14.386
 6478W        W67844  32.902  12.726   2.210
 6479W        W67845  34.076  12.774   1.351
 6480W        W67846  20.264  15.609  11.929
 6481W        W67847  19.084  37.417   3.853
 6482W        W67848  44.364  30.469   0.821
 6483W        W67849  42.024   0.969  10.940
 6484W        W67850   5.774  35.548   3.644
 6485W        W67851  26.551   6.336  14.414
 6486W        W67852  20.657  18.628   4.621
 6487W        W67853  38.962  23.696   1.844
 6488W        W67854  17.720  40.515  11.449
 6489W        W67855  33.892  43.414   0.868
 6490W        W67856  41.983  13.671  14.385
 6491W        W67857  41.011   5.875   0.262
 6492W        W67858   0.855  17.111  11.558
 6493W        W67859  22.068  19.557  11.055
 6494W        W67860  34.423  43.448   0.462
 6495W        W67861  19.748  26.206   2.872
 6496W        W67862  37.939   8.695   1.260
 6497W        W67863  21.156  33.967  14.360
 6498W        W67864  41.497  22.200   1.376
 6499W        W67865  14.622  24.002   2.674
 6500W        W67866  11.680  13.817   2.671
 6501W        W67867  22.027  10.823   1.828
 6502W        W67868  19.677   7.365  12.897
 6503W        W67869   2.729  18.227   2.815
 6504W        W67870  23.233  15.787   2.217
 6505W        W67871  32.140  38.389   2.853
 6506W        W67872  43.828  30.545  10.910
 6507W        W67873  35.872  32.081  14.785
 6508W        W67874  19.608  27.511   0.960
 6509W        W67875  35.517  27.047   3.737
 6510W        W67876  22.623   9.816  14.774
 6511W        W67877  33.920  25.496   0.389
 6512W        W67878   1.272  43.430   4.294
 6513W        W67879   2.396  15.180  14.867
 6514W        W67880  34.045  24.620  11.900
 6515W        W67881  28.975  41.851   1.369
 6516W        W67882   1.413  23.204   2.220
 6517W        W67883  10.316  11.277   4.779
 6518W        W67884  22.126  10.760  14.956
 6519W        W67885  22.142  41.341   1.918
 6520W        W67886  30.030  26.519   1.911
 6521W        W67887  15.595  23.680  10.140
 6522W        W67888  34.036  14.171  12.054
 6523W        W67889  42.802  18.560   4.815
 6524W        W67890  15.275  28.025   1.270
 6525W        W67891  39.054   8.770   1.791
 6526W        W67892  13.324  22.564   3.781
 6527W        W67893  24.084  36.035   0.441
 6528W        W67894  19.182  12.117   0.796
 6529W        W67895  28.507   9.691   2.800
 6530W        W67896  22.104   4.758  11.544
 6531W        W67897  30.041  11.234   4.708
 6532W        W67898  23.164  18.759   4.144
 6533W        W67899  42.871  18.597  13.054
 6534W        W67900   1.775   9.286  10.972
 6535W        W67901   1.840  28.662   1.869
 6536W        W67902  22.596   4.938   3.688
 6537W        W67903   3.430  34.603   1.451
 6538W        W67904   9.183  20.143  14.997
 6539W        W67905  38.552   5.910  13.468
 6540W        W67906  13.213  26.703   1.910
 6541W        W67907  11.735  25.984   1.933
 6542W        W67908   1.756  40.415  14.468
 6543W        W67909  25.558   9.875  11.518
 6544W        W67910  24.677   1.888  12.424
 6545W        W67911   6.326  29.058   2.672
 6546W        W67912   1.809   0.274  14.330
 6547W        W67913  10.163   6.379  12.469
 6548W        W67914  44.814  16.662  11.468
 6549W        W67915  42.973  26.156  13.490
 6550W        W67916   0.419   2.816  12.469
 6551W        W67917  16.262  27.167  12.478
 6552W        W67918  23.651  25.064   4.129
 6553W        W67919  18.606  19.139  11.860
 6554W        W67920  31.965  17.095  12.003
 6555W        W67921   2.867  24.664  12.363
 6556W        W67922  26.982  21.175  12.355
 6557W        W67923  13.676  25.669   1.210
 6558W        W67924   4.341  31.965   0.439
 6559W        W67925   9.284  35.887  12.030
 6560W        W67926  35.882  26.577  13.943
 6561W        W67927   0.821   1.269  12.855
 6562W        W67928  17.596   9.720   1.909
 6563W        W67929  25.976  14.717  11.378
 6564W        W67930  15.747   1.258   4.250
 6565W        W67931  33.381  32.925   4.136
 6566W        W67932  12.638  11.710   4.344
 6567W        W67933  17.177  28.167   2.718
 6568W        W67934  25.695  27.594  12.379
 6569W        W67935  30.589  17.719   3.303
 6570W        W67936   0.964   4.800   2.297
 6571W        W67937  27.485   2.457  11.541
 6572W        W67938  30.032   0.403  12.552
 6573W        W67939  40.859  17.285  13.972
 6574W        W67940  31.465  18.075  12.508
 6575W        W67941  24.156   8.897   1.880
 6576W        W67942  21.076   8.229  12.001
 6577W        W67943  26.154  32.092   5.221
 6578W        W67944  25.001  13.740  12.515
 6579W        W67945  25.149  22.546   0.275
 6580W        W67946  18.255  25.116  11.876
 6581W        W67947  32.081  10.761   0.837
 6582W        W67948   4.292  44.353   2.769
 6583W        W67949  36.004  27.982   4.353
 6584W        W67950  40.348   7.204  11.951
 6585W        W67951  39.974  33.410  14.881
 6586W        W67952  17.723  14.807   5.672
 6587W        W67953  41.503  29.462   4.677
 6588W        W67954   5.836   6.291  14.325
 6589W        W67955  16.252  43.019   2.377
 6590W        W67956  18.755  10.213  10.938
 6591W        W67957  18.572  31.922  14.363
 6592W        W67958  20.623  17.759  11.947
 6593W        W67959   1.880  32.019  14.323
 6594W        W67960  34.921  37.465   3.702
 6595W        W67961  41.319  43.985  12.494
 6596W        W67962  12.322  18.629  12.564
 6597W        W67963  35.573   0.830   1.305
 6598W        W67964  41.030  21.550   0.913
 6599W        W67965  19.094  11.165  13.010
 6600W        W67966  42.377  36.532   4.748
 6601W        W67967  40.516  44.364  11.993
 6602W        W67968  13.724  36.050  13.909
 6603W        W67969  23.703  15.671  13.427
 6604W        W67970  41.417  40.498   2.713
 6605W        W67971  16.103   0.909  12.951
 6606W        W67972  26.008  15.685  14.803
 6607W        W67973  26.069   7.858   3.212
 6608W        W67974  28.137  22.246  14.412
 6609W        W67975  31.477  28.559  14.965
 6610W        W67976  28.020   3.327   0.277
 6611W        W67977  33.527   3.725  13.961
 6612W        W67978  33.887  41.446   3.268
 6613W        W67979   5.793  15.725   2.334
 6614W        W67980   4.331  19.188   3.349
 6615W        W67981  37.037  11.724   1.412
 6616W        W67982  16.625  27.496  11.494
 6617W        W67983  20.199  25.699   3.187
 6618W        W67984   8.300   0.322  14.500
 6619W        W67985  16.644  31.573   4.699
 6620W        W67986  27.662  32.575   1.309
 6621W        W67987  41.929   5.354   1.387
 6622W        W67988   7.799  30.425   1.794
 6623W        W67989  12.328  22.196   0.837
 6624W        W67990  16.764   8.807  11.395
 6625W        W67991  35.544  37.075   1.299
 6626W        W67992   7.382  35.027   0.255
 6627W        W67993  26.467  43.956  11.590
 6628W        W67994  18.217  11.171   1.337
 6629W        W67995  39.919  16.090  10.463
 6630W        W67996   5.268  27.575   9.935
 6631W        W67997  20.612   7.714   0.270
 6632W        W67998  15.289  26.666   2.380
 6633W        W67999  39.528   1.477   4.815
 6634W        W68000  12.197  14.636   1.881
 6635W        W68001  11.333  11.686   2.896
 6636W        W68002  12.237  43.388  14.399
 6637W        W68003   8.763  38.980  10.531
 6638W        W68004   0.266  11.251   2.208
 6639W        W68005  42.825  20.244   3.253
 6640W        W68006  26.502  37.884   2.749
 6641W        W68007   8.873   2.945  11.413
 6642W        W68008  30.042   5.239  12.380
 6643W        W68009  42.292  40.464   3.790
 6644W        W68010   4.819  44.896  11.592
 6645W        W68011  33.035  33.463  11.463
 6646W        W68012  35.058  34.374   2.243
 6647W        W68013   3.449  13.231   4.717
 6648W        W68014  16.735  19.610  11.484
 6649W        W68015  43.805  28.986  10.528
 6650W        W68016  38.336  26.550   4.286
 6651W        W68017  42.899  22.167   3.270
 6652W        W68018  36.454   8.763  13.795
 6653W        W68019  25.713  31.584  12.998
 6654W        W68020  44.883  18.694   2.238
 6655W        W68021  13.298  11.276   4.293
 6656W        W68022  23.530   8.348  14.857
 6657W        W68023  17.557  29.933   4.742
 6658W        W68024  27.104  31.010  14.404
 6659W        W68025  30.112  40.962   1.827
 6660W        W68026  36.502  11.801   0.250
 6661W        W68027   0.782  22.175   0.261
 6662W        W68028  34.978  37.556   1.334
 6663W        W68029  43.512  34.991   1.823
 6664W        W68030  41.301  43.957   2.188
 6665W        W68031  40.526   5.929   3.196
 6666W        W68032  43.018  28.009   3.316
 6667W        W68033   9.711  31.974   2.752
 6668W        W68034  23.133  26.156  11.117
 6669W        W68035  25.661  36.870  13.353
 6670W        W68036   3.416  41.026   4.769
 6671W        W68037  41.375  17.299   2.741
 6672W        W68038  30.914  21.521  10.599
 6673W        W68039  12.277  32.511   3.782
 6674W        W68040  44.913   7.838  14.814
 6675W        W68041  36.495  23.074   4.740
 6676W        W68042  20.537  34.546   3.334
 6677W        W68043  27.474   9.165   3.678
 6678W        W68044   9.241  27.564  13.984
 6679W        W68045  44.333  14.617  11.084
 6680W        W68046  40.533  43.345   4.629
 6681W        W68047  16.726  23.615   2.309
 6682W        W68048  16.688  37.850   3.659
 6683W        W68049   9.150  22.027   2.819
 6684W        W68050  43.770  22.105  13.313
 6685W        W68051  18.745  30.511   4.305
 6686W        W68052  22.502  35.052  12.567
 6687W        W68053  31.129  23.604  14.763
 6688W        W68054  34.978  13.601   3.795
 6689W        W68055  21.099  22.515  11.936
 6690W        W68056  24.682  29.529  12.439
 6691W        W68057   6.248   7.883   1.874
 6692W        W68058   0.807   6.321   2.861
 6693W        W68059  40.389  33.037  10.529
 6694W        W68060  37.397  33.439  15.000
 6695W        W68061  22.018  26.952  11.874
 6696W        W68062  20.675   5.752  12.007
 6697W        W68063  10.254  28.045  11.373
 6698W        W68064  37.857  36.456   1.757
 6699W        W68065  28.640  42.381   4.609
 6700W        W68066  22.103   3.324  11.523
 6701W        W68067  33.051  23.555   3.784
 6702W        W68068  43.288  35.983   0.944
 6703W        W68069  18.739  32.514   4.316
 6704W        W68070  38.460  30.010   1.753
 6705W        W68071  18.112  16.751   2.878
 6706W        W68072  44.469   1.266   3.796
 6707W        W68073   3.876   0.415   2.662
 6708W        W68074  14.244   4.888   4.124
 6709W        W68075  29.005  21.734   2.413
 6710W        W68076  41.490  38.068   1.321
 6711W        W68077  18.650  44.482  13.826
 6712W        W68078   6.219   1.888   0.282
 6713W        W68079  37.943  15.740   4.795
 6714W        W68080   1.950   6.797  14.419
 6715W        W68081  35.454   0.888   4.310
 6716W        W68082   5.347  20.233   0.884
 6717W        W68083   3.926  36.000   2.292
 6718W        W68084  13.214   8.895  10.006
 6719W        W68085  12.757  15.121   1.712
 6720W        W68086  33.466  10.164  10.466
 6721W        W68087   4.440  12.629   1.275
 6722W        W68088  23.023  35.531   3.836
 6723W        W68089  38.820  25.974   5.300
 6724W        W68090  32.003  43.930  14.302
 6725W        W68091  33.001  29.628   0.757
 6726W        W68092  18.151   2.295  14.774
 6727W        W68093  18.708  43.780  13.832
 6728W        W68094  17.761  21.118   3.810
 6729W        W68095  14.726  33.441  12.544
 6730W        W68096   2.325  26.154  13.415
 6731W        W68097  16.143   2.234   4.255
 6732W        W68098  18.170  34.594   2.298
 6733W        W68099  34.006   1.427  13.889
 6734W        W68100  15.653  27.109   4.292
 6735W        W68101   4.240  17.268   1.397
 6736W        W68102   5.351   1.381   1.223
 6737W        W68103  40.504  31.942  14.793
 6738W        W68104   5.924  36.416   3.681
 6739W        W68105  21.182   6.738  10.461
 6740W        W68106  32.107   0.942   2.828
 6741W        W68107  31.520  30.053   0.468
 6742W        W68108  40.937  18.101  13.474
 6743W        W68109  33.944  40.492  11.897
 6744W        W68110  40.410  15.728   0.911
 6745W        W68111  17.290  26.468   0.408
 6746W        W68112  25.098   4.781  10.105
 6747W        W68113  37.563  18.671   4.154
 6748W        W68114  35.949  40.835   0.286
 6749W        W68115  11.827  41.332   1.422
 6750W        W68116  18.599  15.160  10.503
 6751W        W68117  25.186  16.310  12.482
 6752W        W68118  10.267  10.195   5.255
 6753W        W68119  33.590  23.717   2.367
 6754W        W68120  39.896  22.661   3.711
 6755W        W68121  22.666   2.393  12.893
 6756W        W68122   7.383  41.852  14.331
 6757W        W68123  38.992   1.798   4.322
 6758W        W68124  30.608  21.708  10.096
 6759W        W68125   8.312  34.866   1.293
 6760W        W68126  40.441   0.868   0.805
 6761W        W68127  22.166   1.950   1.921
 6762W        W68128  35.035  15.731  14.419
 6763W        W68129   5.850  41.347  12.872
 6764W        W68130  18.206  36.358   3.151
 6765W        W68131  37.562  35.420   0.287
 6766W        W68132  35.881  41.895  13.975
 6767W        W68133  41.021  16.784   0.953
 6768W        W68134  13.694  34.974   2.760
 6769W        W68135  43.870  39.868  14.766
 6770W        W68136  15.644   2.447  13.542
 6771W        W68137   6.760   2.285  11.026
 6772W        W68138  21.714  16.729   1.929
 6773W        W68139  12.290   8.683  14.870
 6774W        W68140  12.739  11.148   2.852
 6775W        W68141   6.835  12.855   1.392
 6776W        W68142  29.427  10.672  11.983
 6777W        W68143  23.493   7.765  12.488
 6778W        W68144   2.256   0.348   4.124
 6779W        W68145  33.491  25.093   3.183
 6780W        W68146   0.825  15.190   0.791
 6781W        W68147  12.646  12.645   4.752
 6782W        W68148  10.661   7.668  12.530
 6783W        W68149  11.716  13.843  10.991
 6784W        W68150   1.955   6.310   0.948
 6785W        W68151   1.916  36.401  14.001
 6786W        W68152  42.942  13.648  11.078
 6787W        W68153  37.407  12.751   3.685
 6788W        W68154  38.047  23.570  14.995
 6789W        W68155   1.888  30.446   4.271
 6790W        W68156   1.240   4.866  10.437
 6791W        W68157  35.961   1.867   3.638
 6792W        W68158  10.368  27.618   4.768
 6793W        W68159  43.795  44.889   0.927
 6794W        W68160  11.810  38.371  10.610
 6795W        W68161  30.970  31.052  10.906
 6796W        W68162  29.532   3.365  11.566
 6797W        W68163   3.953  26.125   0.939
 6798W        W68164  31.967  24.973  11.456
 6799W        W68165  44.009  13.670  12.438
 6800W        W68166  26.115  14.672   0.959
 6801W        W68167  27.653  17.305  14.363
 6802W        W68168   7.321   9.368  12.948
 6803W        W68169  26.165  24.099  14.460
 6804W        W68170  42.016  33.549  10.124
 6805W        W68171  27.157  13.630  13.909
 6806W        W68172  41.869  38.340  14.460
 6807W        W68173  21.231   9.676   2.683
 6808W        W68174  22.081   6.723  14.896
 6809W        W68175  27.047  14.800  13.051
 6810W        W68176  44.777  17.692   0.408
 6811W        W68177  23.671  44.755  14.859
 6812W        W68178  35.090  30.559  10.145
 6813W        W68179  44.961   2.454   0.410
 6814W        W68180  10.847  35.522  10.983
 6815W        W68181  13.326  20.678  12.890
 6816W        W68182   6.843  12.641   5.160
 6817W        W68183   8.257   4.357  14.911
 6818W        W68184   2.816   6.911   4.274
 6819W        W68185  41.986  29.173   2.778
 6820W        W68186  17.085  43.846  12.935
 6821W        W68187  12.171  26.078   2.306
 6822W        W68188  32.970  11.193  14.784
 6823W        W68189  38.966  11.837   1.360
 6824W        W68190  13.804   5.751   1.917
 6825W        W68191  37.915  20.184   1.694
 6826W        W68192  42.458   0.988  12.044
 6827W        W68193  23.212  23.704   0.365
 6828W        W68194  13.115  12.224  13.363
 6829W        W68195   2.406   9.772  11.938
 6830W        W68196  10.248   5.268  12.476
 6831W        W68197   5.779   1.261  13.841
 6832W        W68198  17.606  26.169   1.737
 6833W        W68199   6.308  29.060  11.400
 6834W        W68200  30.584  30.643   0.340
 6835W        W68201  18.205   0.315   4.309
 6836W        W68202  27.518  10.799   4.129
 6837W        W68203  27.604  19.591   1.880
 6838W        W68204  18.640  20.620  14.798
 6839W        W68205  30.495  38.958  10.098
 6840W        W68206   4.700  10.185  14.401
 6841W        W68207   5.426  17.145  12.570
 6842W        W68208   0.473  28.649   0.351
 6843W        W68209  19.642  10.691  12.965
 6844W        W68210  25.616  10.865   2.776
 6845W        W68211   6.203  11.772  10.529
 6846W        W68212  28.145  11.162   4.721
 6847W        W68213  25.178  26.458  13.501
 6848W        W68214  13.709  43.008  12.552
 6849W        W68215  23.044  17.076   4.692
 6850W        W68216   6.709  28.969  12.070
 6851W        W68217  42.849  17.183   3.266
 6852W        W68218  15.701  32.997  11.479
 6853W        W68219  31.452  44.452   1.362
 6854W        W68220  44.459  38.327   0.844
 6855W        W68221   9.357  22.567   1.753
 6856W        W68222  44.778  10.718  10.608
 6857W        W68223  30.105  12.754  11.017
 6858W        W68224  17.640  43.371  10.895
 6859W        W68225  43.987  36.053   2.791
 6860W        W68226  40.490  35.981   5.104
 6861W        W68227  38.552  15.739   3.185
 6862W        W68228  10.636  16.077   0.352
 6863W        W68229   5.246  13.622  10.926
 6864W        W68230   3.257  21.053  11.503
 6865W        W68231   6.239  32.405  14.333
 6866W        W68232  40.814  34.080   1.852
 6867W        W68233  17.249   6.852   2.303
 6868W        W68234  34.103   8.695  12.913
 6869W        W68235  13.345  32.477  12.498
 6870W        W68236   3.743  33.525  14.985
 6871W        W68237  21.128  21.089   0.431
 6872W        W68238  13.655  12.305  10.554
 6873W        W68239  30.604   9.765   3.673
 6874W        W68240  18.118  37.024   2.739
 6875W        W68241  21.701  16.693  11.426
 6876W        W68242  36.090  19.168  10.517
 6877W        W68243   4.753   0.408  12.565
 6878W        W68244  12.795  38.886  12.453
 6879W        W68245  14.137  12.700  14.877
 6880W        W68246  16.249  30.527  13.429
 6881W        W68247  37.885   0.446   3.180
 6882W        W68248   3.735   7.771   2.745
 6883W        W68249  15.614  25.161   3.668
 6884W        W68250  35.443  35.458  10.497
 6885W        W68251  20.237  26.535   2.694
 6886W        W68252  30.634  33.586   1.727
 6887W        W68253  33.973  33.104   1.311
 6888W        W68254  40.918  11.789   0.898
 6889W        W68255  36.938  43.922   3.333
 6890W        W68256   0.298   0.325   2.802
 6891W        W68257  33.511  18.600  11.032
 6892W        W68258   2.867  16.301   0.427
 6893W        W68259   7.224  16.762   5.773
 6894W        W68260   9.347   1.349  10.615
 6895W        W68261  39.466  41.905  13.824
 6896W        W68262  17.644   0.815  10.530
 6897W        W68263  23.534  26.543  12.024
 6898W        W68264  22.197  26.151   2.218
 6899W        W68265  11.672  14.642   1.760
 6900W        W68266   0.834   6.350  12.034
 6901W        W68267  31.632   1.786   3.652
 6902W        W68268  30.021   5.221  14.280
 6903W        W68269  23.557  28.681  14.831
 6904W        W68270   7.834  33.493  13.371
 6905W        W68271  13.251  36.570  14.828
 6906W        W68272  43.496  23.004  10.607
 6907W        W68273  27.185  33.880  13.540
 6908W        W68274  29.535  30.650  14.832
 6909W        W68275   3.931  38.865  11.929
 6910W        W68276  30.089   2.281  13.498
 6911W        W68277  39.464  13.782   2.754
 6912W        W68278  33.947   4.389   4.248
 6913W        W68279  35.878   6.366   2.253
 6914W        W68280  35.004  37.560   4.354
 6915W        W68281  32.524  24.584  14.770
 6916W        W68282   9.731  12.248  10.411
 6917W        W68283  14.810   8.169   4.158
 6918W        W68284  27.024  35.416   4.279
 6919W        W68285   3.943  31.041   2.883
 6920W        W68286   9.176  25.479  14.311
 6921W        W68287  24.198  21.229  13.516
 6922W        W68288   2.411  38.989  14.917
 6923W        W68289  28.639  17.177  11.401
 6924W        W68290  39.338  42.463  12.538
 6925W        W68291   9.769  37.525   4.269
 6926W        W68292  16.226  44.504   2.350
 6927W        W68293  33.984  14.293   2.777
 6928W        W68294  42.882  33.109  13.449
 6929W        W68295  40.500  29.520   0.462
 6930W        W68296  30.933  14.624   1.321
 6931W        W68297  37.905  12.716   3.824
 6932W        W68298  43.481  22.249   0.869
 6933W        W68299  30.527  36.930  14.904
 6934W        W68300  43.457  30.521  14.829
 6935W        W68301   1.859  43.900  11.922
 6936W        W68302  22.172  37.882  14.893
 6937W        W68303   1.422  17.078  13.858
 6938W        W68304  23.050  17.664  13.412
 6939W        W68305  22.745   7.414  13.961
 6940W        W68306   6.190   7.877   4.704
 6941W        W68307  10.195  24.633   3.162
 6942W        W68308  32.121  27.974  13.795
 6943W        W68309  21.185  10.357   2.749
 6944W        W68310  41.451   6.289  12.975
 6945W        W68311  17.100  30.638   2.764
 6946W        W68312  29.032   2.419  10.966
 6947W        W68313  42.957   6.919   2.862
 6948W        W68314   0.346  36.444  12.973
 6949W        W68315  29.595  15.134   3.657
 6950W        W68316  42.385  17.084  11.070
 6951W        W68317  37.006  12.613  11.893
 6952W        W68318  33.563   8.786  10.530
 6953W        W68319   2.920  20.685   3.355
 6954W        W68320   8.324  30.484   3.637
 6955W        W68321  11.349  20.682   4.659
 6956W        W68322  26.958  18.294   3.649
 6957W        W68323  29.039  14.791   2.331
 6958W        W68324  14.185  20.768   3.791
 6959W        W68325  29.625  17.743   1.788
 6960W        W68326  35.091  33.093   1.414
 6961W        W68327  36.462  10.780   0.466
 6962W        W68328  44.790  33.050  10.413
 6963W        W68329  33.546   0.467   0.338
 6964W        W68330  27.994  29.080   5.137
 6965W        W68331  11.216  21.139   0.853
 6966W        W68332  23.618  25.499  13.352
 6967W        W68333  32.482  13.133  13.970
 6968W        W68334   0.369   9.249  14.515
 6969W        W68335  23.034   0.894  12.829
 6970W        W68336  18.179  16.716  11.593
 6971W        W68337  41.536  14.792   5.282
 6972W        W68338  21.248  24.110   4.824
 6973W        W68339  17.202  35.921   0.438
 6974W        W68340   3.400  22.675   4.339
 6975W        W68341  34.090  16.793  14.817
 6976W        W68342  28.083  25.662   2.418
 6977W        W68343  17.128  24.018  10.552
 6978W        W68344   9.373  16.234   1.724
 6979W        W68345  30.980  26.192   1.289
 6980W        W68346  23.202  43.339  14.305
 6981W        W68347   6.286  25.494  10.469
 6982W        W68348  31.932  14.186   5.086
 6983W        W68349  27.148  32.409  14.994
 6984W        W68350  13.153  14.783  12.462
 6985W        W68351  30.498  15.704   2.865
 6986W        W68352  39.813  42.979  11.891
 6987W        W68353  14.602   8.827  13.470
 6988W        W68354  10.269  27.566   5.201
 6989W        W68355   9.750  11.714   1.288
 6990W        W68356   6.922  19.742  10.421
 6991W        W68357  31.530  43.907   0.371
 6992W        W68358   3.857  28.478   3.717
 6993W        W68359  32.606  12.199   3.178
 6994W        W68360  30.102   7.272   2.865
 6995W        W68361  10.664  20.122   4.629
 6996W        W68362   5.379  14.780   3.186
 6997W        W68363   1.807  19.164   3.275
 6998W        W68364  14.231  30.552  10.572
 6999W        W68365  13.280  28.016  14.490
 7000W        W68366  20.715  13.186   2.188
 7001W        W68367  41.410   0.485  10.490
 7002W        W68368  40.366  10.823   3.367
 7003W        W68369  20.649  35.541   2.869
 7004W        W68370  17.671  23.185  11.592
 7005W        W68371  11.174  41.420  14.299
 7006W        W68372  21.232  28.563  13.949
 7007W        W68373  22.033  22.639   3.789
 7008W        W68374  40.909  11.750   4.196
 7009W        W68375   9.664  20.127  14.996
 7010W        W68376   9.817  32.392   4.210
 7011W        W68377  18.267   0.490  10.484
 7012W        W68378  21.725  26.170   2.232
 7013W        W68379  43.955  17.302  10.928
 7014W        W68380  38.510  31.141   4.706
 7015W        W68381  31.620  36.916  12.876
 7016W        W68382   4.439  44.394  11.910
 7017W        W68383  10.246  36.923   3.185
 7018W        W68384  10.268  14.249   4.132
 7019W        W68385  29.025   1.264   0.908
 7020W        W68386  10.733  16.705  12.519
 7021W        W68387   9.269  37.579   4.143
 7022W        W68388   3.324   0.862  14.911
 7023W        W68389  14.138  22.106   4.676
 7024W        W68390  23.118   7.372  12.887
 7025W        W68391   1.405   8.263   4.734
 7026W        W68392  33.993  13.219   2.202
 7027W        W68393  11.147  39.844  14.885
 7028W        W68394  41.983  11.783  11.450
 7029W        W68395   2.358  30.012   0.333
 7030W        W68396  13.727  10.277  12.936
 7031W        W68397  44.480  37.050  10.948
 7032W        W68398   5.312  31.057   0.804
 7033W        W68399  37.360  28.529   0.747
 7034W        W68400   3.745  33.419   4.681
 7035W        W68401  13.337  41.015   4.327
 7036W        W68402  11.669  30.085   0.458
 7037W        W68403  20.619   7.174   1.875
 7038W        W68404  43.883  22.081  14.502
 7039W        W68405   8.674  44.879   2.667
 7040W        W68406  44.393  10.876   0.848
 7041W        W68407  21.110  43.875  10.626
 7042W        W68408  33.128   4.352   1.823
 7043W        W68409   9.851  34.953  14.797
 7044W        W68410  13.785  29.532   0.817
 7045W        W68411  38.851  26.651   5.103
 7046W        W68412  14.792   8.761   0.887
 7047W        W68413  25.032   6.892  10.500
 7048W        W68414  39.335  38.544   0.761
 7049W        W68415  43.495  39.834   0.800
 7050W        W68416  27.136  27.589   2.872
 7051W        W68417  24.190  43.942  14.305
 7052W        W68418  40.830  39.957  12.997
 7053W        W68419  11.859  16.637   3.848
 7054W        W68420   4.400  31.062  14.385
 7055W        W68421   1.370  32.506  12.912
 7056W        W68422  30.136   7.707   2.239
 7057W        W68423  43.465   5.749  10.612
 7058W        W68424  27.639  32.443   2.376
 7059W        W68425   3.446   9.648   3.191
 7060W        W68426   6.908  35.519   2.778
 7061W        W68427   6.775  27.665  12.556
 7062W        W68428  26.659  27.034   0.482
 7063W        W68429   9.333  37.466   1.716
 7064W        W68430   0.385  14.648  12.572
 7065W        W68431   8.748  34.099   1.299
 7066W        W68432   6.269  40.833  14.892
 7067W        W68433  24.488  30.651   1.909
 7068W        W68434  39.850  40.339   2.684
 7069W        W68435  24.543  37.979  12.953
 7070W        W68436  26.132  33.955   0.839
 7071W        W68437  44.835  14.711  11.472
 7072W        W68438  27.582  28.669  11.908
 7073W        W68439   5.915  23.564  11.949
 7074W        W68440  36.090  22.200  12.839
 7075W        W68441  43.833  31.138  14.013
 7076W        W68442  42.300   0.799   2.305
 7077W        W68443   6.335  31.645   0.788
 7078W        W68444  30.619   8.805   1.770
 7079W        W68445  24.075  34.948  14.281
 7080W        W68446  13.707  23.241  14.021
 7081W        W68447  23.026   5.918  11.013
 7082W        W68448  37.437  25.555   2.405
 7083W        W68449  34.956  11.644  14.276
 7084W        W68450  27.166  26.698  10.910
 7085W        W68451  36.461  39.972  12.075
 7086W        W68452   9.307  34.897   1.854
 7087W        W68453  23.700  18.705  10.457
 7088W        W68454  38.371  14.324   2.292
 7089W        W68455   5.789  43.308   3.322
 7090W        W68456  25.637  24.119   0.882
 7091W        W68457   4.279  19.097   2.741
 7092W        W68458  15.757   2.369  13.833
 7093W        W68459   3.918  34.368   0.475
 7094W        W68460  19.551  35.871  14.957
 7095W        W68461  35.406  23.489  12.506
 7096W        W68462  14.181  13.276  10.987
 7097W        W68463  13.824  43.408  11.446
 7098W        W68464  31.099  34.096   0.441
 7099W        W68465  31.102  21.646   5.134
 7100W        W68466  28.619  31.104   0.410
 7101W        W68467   1.433  11.651   2.404
 7102W        W68468  31.981  44.281   0.440
 7103W        W68469  15.646  22.638   2.381
 7104W        W68470  38.359   3.420  12.343
 7105W        W68471  21.126   5.354   3.307
 7106W        W68472  41.495   2.343   4.144
 7107W        W68473  33.906   7.318  12.932
 7108W        W68474  20.759  19.053  12.419
 7109W        W68475  34.932  20.187  11.591
 7110W        W68476  38.537  35.093   4.696
 7111W        W68477  26.021   9.740  12.421
 7112W        W68478   0.378  20.080   2.290
 7113W        W68479  38.485  24.027   1.451
 7114W        W68480  27.132  37.830   4.142
 7115W        W68481  18.582  11.864  14.489
 7116W        W68482   3.326  33.114   0.958
 7117W        W68483  23.612  40.413   3.149
 7118W        W68484  43.912   9.261  14.932
 7119W        W68485  17.651  35.052  11.024
 7120W        W68486  30.060  11.776  10.421
 7121W        W68487   8.873  44.961  14.443
 7122W        W68488  42.966  30.047   3.743
 7123W        W68489  26.503   6.235  12.036
 7124W        W68490   5.700  36.554   0.857
 7125W        W68491  20.216   9.888   3.685
 7126W        W68492  27.075  15.737  11.037
 7127W        W68493  35.571  21.747  11.013
 7128W        W68494   9.303   9.809  14.310
 7129W        W68495  15.282  40.850   4.649
 7130W        W68496   0.937   5.402   0.475
 7131W        W68497   3.380   7.336  13.431
 7132W        W68498   4.736  41.378  10.623
 7133W        W68499  32.528  34.082  12.383
 7134W        W68500  40.980   3.266  14.816
 7135W        W68501  35.418  14.200   3.811
 7136W        W68502  44.833   6.701   3.659
 7137W        W68503   6.743  19.085   2.705
 7138W        W68504  17.594  19.209   4.282
 7139W        W68505  39.021  36.081   1.843
 7140W        W68506  43.837  40.947  11.560
 7141W        W68507  23.119   7.296  10.948
 7142W        W68508  21.093   2.457  12.854
 7143W        W68509   0.896  16.648  14.391
 7144W        W68510   4.347   5.913   0.246
 7145W        W68511  42.497  30.000  14.364
 7146W        W68512  22.130  21.134   0.245
 7147W        W68513   6.801  23.566   0.437
 7148W        W68514  37.364  44.950   0.436
 7149W        W68515  21.143  12.759  12.514
 7150W        W68516  33.561  28.014   5.272
 7151W        W68517  31.455  17.687   0.863
 7152W        W68518  16.749  18.736   5.706
 7153W        W68519  38.364  42.929   4.779
 7154W        W68520  25.165  14.627   4.145
 7155W        W68521   2.377  26.993   4.114
 7156W        W68522  35.085  35.427   1.896
 7157W        W68523   9.212   4.932  12.465
 7158W        W68524  43.795  35.380   1.840
 7159W        W68525   2.343   7.709  10.527
 7160W        W68526   5.283   1.376  14.336
 7161W        W68527  18.613  35.877  12.927
 7162W        W68528  36.846  20.636   4.691
 7163W        W68529   3.218   4.809  11.558
 7164W        W68530  29.536  16.228  11.418
 7165W        W68531  43.329  26.157  11.932
 7166W        W68532   6.294  42.963   1.892
 7167W        W68533  13.822  20.611  12.471
 7168W        W68534  12.667   0.838  13.322
 7169W        W68535  41.921  10.259  10.057
 7170W        W68536  29.020  26.142   2.819
 7171W        W68537  26.030   7.323   3.748
 7172W        W68538  25.971   0.823   4.333
 7173W        W68539  42.398   1.474  11.885
 7174W        W68540  43.311   6.796  13.844
 7175W        W68541  30.031  11.621   2.302
 7176W        W68542  31.088  40.972  10.604
 7177W        W68543  44.794  26.162  14.995
 7178W        W68544   0.479  27.633  11.112
 7179W        W68545  18.124  21.176  13.000
 7180W        W68546  28.118  35.889   3.757
 7181W        W68547   5.237  44.437  13.947
 7182W        W68548  23.690  29.988   0.842
 7183W        W68549  28.484  28.946  13.961
 7184W        W68550  29.136  26.629   2.881
 7185W        W68551   8.234   0.431   0.364
 7186W        W68552  10.176  32.402   5.234
 7187W        W68553  13.763   1.431  14.001
 7188W        W68554  12.747  42.025   4.321
 7189W        W68555  16.712  19.704   2.406
 7190W        W68556   4.789  26.165   3.360
 7191W        W68557  42.887   1.745  10.996
 7192W        W68558  41.831  22.722  10.943
 7193W        W68559  24.996   8.800  12.447
 7194W        W68560   1.370  31.438   3.156
 7195W        W68561  15.653  14.638  11.513
 7196W        W68562  24.725  30.060  11.458
 7197W        W68563   0.411  23.173   2.760
 7198W        W68564  20.727  44.972  14.323
 7199W        W68565   1.835   8.734  12.411
 7200W        W68566  33.909  23.156   0.361
 7201W        W68567   6.367   4.836  14.304
 7202W        W68568  25.109   6.742   0.802
 7203W        W68569   6.196  41.307   2.737
 7204W        W68570  34.018  31.122  13.977
 7205W        W68571   8.269  26.649   1.298
 7206W        W68572  28.561  21.074  13.016
 7207W        W68573  20.098   8.305   1.278
 7208W        W68574  42.316  21.113  10.639
 7209W        W68575   5.825   4.858   5.747
 7210W        W68576  26.180  35.995  13.879
 7211W        W68577  17.179  33.006   1.395
 7212W        W68578  26.479   5.835  12.488
 7213W        W68579  32.022  16.149  14.352
 7214W        W68580   1.798   9.702   1.802
 7215W        W68581  30.131  39.339   4.119
 7216W        W68582  22.701   7.789  14.356
 7217W        W68583  41.998  15.663   3.845
 7218W        W68584  42.960  44.921   0.348
 7219W        W68585   3.440  18.617  11.490
 7220W        W68586   1.310  24.126  11.122
 7221W        W68587  24.537  27.036  12.395
 7222W        W68588  13.834  29.102  12.876
 7223W        W68589  23.607  35.365   4.660
 7224W        W68590  35.381   9.327   2.707
 7225W        W68591   5.420  32.958   2.798
 7226W        W68592  26.578  25.646  13.835
 7227W        W68593  30.108  28.094  12.528
 7228W        W68594  43.316  34.120   4.805
 7229W        W68595  38.860  18.265  10.516
 7230W        W68596  15.577   9.234  12.458
 7231W        W68597  25.541  30.447  14.884
 7232W        W68598  30.926  16.743   4.709
 7233W        W68599   8.232  38.858  11.519
 7234W        W68600  35.050  22.585  13.381
 7235W        W68601  22.075  18.177  11.100
 7236W        W68602  31.559  24.531  11.934
 7237W        W68603  41.305   0.983   4.747
 7238W        W68604   7.773  35.970  13.882
 7239W        W68605   4.905  20.063  10.979
 7240W        W68606   5.218  27.111   1.777
 7241W        W68607   1.811  10.641   3.386
 7242W        W68608   8.282  18.709  10.417
 7243W        W68609   2.959  36.872  12.049
 7244W        W68610   6.257  11.336  13.382
 7245W        W68611  31.467   8.395   0.295
 7246W        W68612  14.725  19.190   0.353
 7247W        W68613  38.891  33.116  13.034
 7248W        W68614  41.311  44.929   4.215
 7249W        W68615  31.566   6.424  11.522
 7250W        W68616   5.428  29.447  10.628
 7251W        W68617  36.528  39.455  14.354
 7252W        W68618  35.585   4.901  12.006
 7253W        W68619  21.131  25.658  10.641
 7254W        W68620   5.219   5.772  10.503
 7255W        W68621  13.825  28.185  13.962
 7256W        W68622   9.159  33.996   2.839
 7257W        W68623   1.359  29.464   9.944
 7258W        W68624  24.207   9.786   3.333
 7259W        W68625  28.045  24.105  10.603
 7260W        W68626   7.671  17.102   1.731
 7261W        W68627  36.398   4.323  14.990
 7262W        W68628   5.205   9.283   1.212
 7263W        W68629  11.240  33.527   2.369
 7264W        W68630  21.095  42.503   2.332
 7265W        W68631  10.213  21.178   3.817
 7266W        W68632   0.800  39.484  10.544
 7267W        W68633  36.909  44.424  11.414
 7268W        W68634   8.769   2.947   3.804
 7269W        W68635  36.459  40.009   9.998
 7270W        W68636  17.234  23.131  11.379
 7271W        W68637  40.016   4.289   4.136
 7272W        W68638  29.655  23.165  11.992
 7273W        W68639  43.815  23.991  10.982
 7274W        W68640  26.508  18.782  10.602
 7275W        W68641   0.334   2.456  13.860
 7276W        W68642  34.974   4.214   1.714
 7277W        W68643   4.899  20.090  13.351
 7278W        W68644   6.816  17.102  14.404
 7279W        W68645  15.235  19.612   2.410
 7280W        W68646  23.145  36.501   3.268
 7281W        W68647  16.605  18.073   5.699
 7282W        W68648  28.038   0.794  13.843
 7283W        W68649   7.728  18.063   2.179
 7284W        W68650  22.044  11.132   1.438
 7285W        W68651  12.637  37.536   0.395
 7286W        W68652   2.838  20.136  12.449
 7287W        W68653  34.944  12.710   5.318
 7288W        W68654  44.776   0.439  10.590
 7289W        W68655  15.280  27.453   3.689
 7290W        W68656  41.532   3.779  13.307
 7291W        W68657  14.098  28.082   4.316
 7292W        W68658  18.215   8.685  14.314
 7293W        W68659  15.749  19.729  12.061
 7294W        W68660  38.352   3.926  12.826
 7295W        W68661   7.700  25.202  12.461
 7296W        W68662   7.310   0.466  13.905
 7297W        W68663   4.781  10.251   1.432
 7298W        W68664  35.966  33.507   1.783
 7299W        W68665   0.921   2.423  13.909
 7300W        W68666  15.193  27.959   3.294
 7301W        W68667  37.372  24.510  14.859
 7302W        W68668   3.910  40.370  10.038
 7303W        W68669  34.511   2.746   2.301
 7304W        W68670  12.823  24.511   4.170
 7305W        W68671  32.627  40.911  12.507
 7306W        W68672  42.425  31.532   3.325
 7307W        W68673  43.949  21.721   0.840
 7308W        W68674  21.074  29.488   2.213
 7309W        W68675  19.279  34.469  10.570
 7310W        W68676   9.657  13.127   4.318
 7311W        W68677  39.961  43.514  12.989
 7312W        W68678  27.132  29.639  13.928
 7313W        W68679   6.204  36.064  13.810
 7314W        W68680   0.400  37.581  12.866
 7315W        W68681  34.561  21.538   9.959
 7316W        W68682  36.487  21.168   5.240
 7317W        W68683   6.279   0.458   4.114
 7318W        W68684  32.973  21.067   0.862
 7319W        W68685  38.056  16.773  14.760
 7320W        W68686  18.753  26.566  13.364
 7321W        W68687  10.223  16.230  10.474
 7322W        W68688  35.881  37.893  14.000
 7323W        W68689  19.629  30.566   0.343
 7324W        W68690   6.760   4.944   1.829
 7325W        W68691  30.515   0.893   2.731
 7326W        W68692  36.871  16.677   2.197
 7327W        W68693  32.621  25.511  14.388
 7328W        W68694  20.204   8.759  14.412
 7329W        W68695  36.440   5.419  10.996
 7330W        W68696   0.260  27.611   4.115
 7331W        W68697  32.128  31.056  13.920
 7332W        W68698   4.708  15.756  14.411
 7333W        W68699  17.657  23.125  13.405
 7334W        W68700   7.237  31.934  13.430
 7335W        W68701  19.739  15.639   1.421
 7336W        W68702  33.989  23.116  11.414
 7337W        W68703   3.866  40.498   3.365
 7338W        W68704  13.785  20.749  12.869
 7339W        W68705  12.276  30.076  10.518
 7340W        W68706   1.269  41.902   2.727
 7341W        W68707  44.810  13.707   3.251
 7342W        W68708  28.625   0.823  14.777
 7343W        W68709  39.873   2.455  13.537
 7344W        W68710  11.789  41.351   2.717
 7345W        W68711  20.061   7.763  11.373
 7346W        W68712  23.045  11.282  13.834
 7347W        W68713  15.095  11.801  12.850
 7348W        W68714  39.513  38.565  14.825
 7349W        W68715  32.971  19.700   3.361
 7350W        W68716   4.847  23.571  12.965
 7351W        W68717  34.929  26.534  13.324
 7352W        W68718  32.474  20.523   0.939
 7353W        W68719  38.510   9.887  11.944
 7354W        W68720   3.381  32.537  10.949
 7355W        W68721  29.005  24.618   2.877
 7356W        W68722  26.182  16.291   2.269
 7357W        W68723   4.402  40.997  10.606
 7358W        W68724  25.076   1.343  13.891
 7359W        W68725  23.536   6.350   0.383
 7360W        W68726  17.797  36.567  14.296
 7361W        W68727  43.844  40.310  13.874
 7362W        W68728  37.489  10.774  13.956
 7363W        W68729  44.830  10.642   3.236
 7364W        W68730  34.090  24.078  10.996
 7365W        W68731   5.887  40.049   1.426
 7366W        W68732  32.135  28.452   1.300
 7367W        W68733  22.223  36.501   1.789
 7368W        W68734  41.355  22.530  12.358
 7369W        W68735  14.227  37.988   1.249
 7370W        W68736  13.283   2.332   2.747
 7371W        W68737  33.055  33.995   4.823
 7372W        W68738  32.426  38.539  14.865
 7373W        W68739  18.208  11.849  13.984
 7374W        W68740   9.729   7.732   2.803
 7375W        W68741   0.353  23.149  14.818
 7376W        W68742  25.622  41.916   0.345
 7377W        W68743  14.192  22.658   3.701
 7378W        W68744  32.570  27.578   4.716
 7379W        W68745  20.577  22.516   2.335
 7380W        W68746   3.328  29.056   0.865
 7381W        W68747  37.977  24.699   1.759
 7382W        W68748   5.318   4.290   1.326
 7383W        W68749   8.195   7.780  13.883
 7384W        W68750  12.123  31.098   3.830
 7385W        W68751  24.060   7.694   2.283
 7386W        W68752  22.621  33.080  14.505
 7387W        W68753  25.012  24.982   1.790
 7388W        W68754  19.129  26.613  14.991
 7389W        W68755  38.466  33.579  13.443
 7390W        W68756  16.661  13.182   3.690
 7391W        W68757  11.727  38.932  12.993
 7392W        W68758   2.815  23.668   3.820
 7393W        W68759   1.441  33.495   4.787
 7394W        W68760  11.725  23.100   2.246
 7395W        W68761  40.413   9.235   2.297
 7396W        W68762  32.924  12.341   1.831
 7397W        W68763   7.883  43.993   2.710
 7398W        W68764  30.160  38.421  11.928
 7399W        W68765  19.089   2.290  14.306
 7400W        W68766  44.397  26.012   3.850
 7401W        W68767   7.765   4.755  13.016
 7402W        W68768   6.385   9.829   1.883
 7403W        W68769  27.538  40.919   4.812
 7404W        W68770  25.565  14.746  14.904
 7405W        W68771   7.392  21.140   3.225
 7406W        W68772  22.570  29.169  10.535
 7407W        W68773  25.505   3.301  11.065
 7408W        W68774  18.200  10.758  10.566
 7409W        W68775   8.714  41.831  10.644
 7410W        W68776  19.217  39.941   4.709
 7411W        W68777  24.706  17.689   3.277
 7412W        W68778   6.805  17.157   3.328
 7413W        W68779  14.660  29.089  14.287
 7414W        W68780   1.765  14.134   4.183
 7415W        W68781  14.812   7.176   3.276
 7416W        W68782  17.728  14.636  11.922
 7417W        W68783   3.711   8.672  13.349
 7418W        W68784  42.315  37.546  11.460
 7419W        W68785  36.856  38.830   0.763
 7420W        W68786   4.299  37.450   0.463
 7421W        W68787   7.684  20.064   0.373
 7422W        W68788   0.797  15.720  14.014
 7423W        W68789  10.318   0.423  12.368
 7424W        W68790  10.845  14.818  14.900
 7425W        W68791   0.354  16.573  13.345
 7426W        W68792   0.954  24.144  13.004
 7427W        W68793   8.687  22.566   0.327
 7428W        W68794  14.286  31.907  14.423
 7429W        W68795  21.033   4.822   1.922
 7430W        W68796  39.458  22.515   1.280
 7431W        W68797  31.542   2.292  10.410
 7432W        W68798   3.752  12.680   2.683
 7433W        W68799  34.401   3.372   3.230
 7434W        W68800  31.939  31.055  12.003
 7435W        W68801  31.601   7.844  13.417
 7436W        W68802  29.512  44.001   0.818
 7437W        W68803   6.830  39.431   1.853
 7438W        W68804  42.430  14.796  14.278
 7439W        W68805   5.886  39.987   3.766
 7440W        W68806  12.160  30.657   3.638
 7441W        W68807  38.358   2.836  12.900
 7442W        W68808   1.941  40.817   0.417
 7443W        W68809  26.541  17.605  10.570
 7444W        W68810   5.723  31.951  10.919
 7445W        W68811  14.747  29.470  11.032
 7446W        W68812  33.920   8.808   0.366
 7447W        W68813  14.209  26.498   1.727
 7448W        W68814   4.811   1.760   5.255
 7449W        W68815  17.225   5.734   3.724
 7450W        W68816  40.853  37.037   2.899
 7451W        W68817  22.552   8.328  11.098
 7452W        W68818  15.093  15.674   3.374
 7453W        W68819  36.490  16.606   1.331
 7454W        W68820  21.532  41.919  14.984
 7455W        W68821  28.104   2.889   4.755
 7456W        W68822  16.580  40.031   4.827
 7457W        W68823   3.409   7.871  12.067
 7458W        W68824  23.145  22.736   3.362
 7459W        W68825  39.032  11.167  10.518
 7460W        W68826  16.304  32.617   2.694
 7461W        W68827  17.123  23.509  11.408
 7462W        W68828  10.228  13.616  13.870
 7463W        W68829  27.007  19.622   3.660
 7464W        W68830  42.403  32.105  10.598
 7465W        W68831  37.357  40.469   5.101
 7466W        W68832  37.460  21.063   3.277
 7467W        W68833  31.537  39.019  10.934
 7468W        W68834  15.649   3.866  12.014
 7469W        W68835   6.232  13.757   1.816
 7470W        W68836  35.469  27.991  10.588
 7471W        W68837  44.775  14.611  14.851
 7472W        W68838   6.409  44.417   1.756
 7473W        W68839  41.900   4.228   2.315
 7474W        W68840  23.627  35.429   1.370
 7475W        W68841   6.774  19.743  11.380
 7476W        W68842  28.673  12.668  12.922
 7477W        W68843  39.373  16.790  10.496
 7478W        W68844  27.023  30.067  11.884
 7479W        W68845  38.953  41.965  12.424
 7480W        W68846  41.787  10.273  11.479
 7481W        W68847   0.864  25.476   2.314
 7482W        W68848  11.359  14.802  11.065
 7483W        W68849   1.421  32.932  10.591
 7484W        W68850  34.983  28.513  10.969
 7485W        W68851  33.537  15.090  11.889
 7486W        W68852  33.462   2.299   4.312
 7487W        W68853  22.208  33.466   2.235
 7488W        W68854   3.932  13.135   2.680
 7489W        W68855   4.735   4.918   3.181
 7490W        W68856   9.381  15.279  11.913
 7491W        W68857  11.268  20.250   3.663
 7492W        W68858   7.394  36.542  14.940
 7493W        W68859  33.575  41.942  14.994
 7494W        W68860   5.378  32.586   4.190
 7495W        W68861  38.907   9.706   1.777
 7496W        W68862  22.126  28.668   4.267
 7497W        W68863  37.578  36.075  12.424
 7498W        W68864   7.203  37.497   2.671
 7499W        W68865  42.804  37.352  13.451
 7500W        W68866  40.421  37.419  13.389
 7501W        W68867   5.410  34.471  11.404
 7502W        W68868  10.676  22.658  12.480
 7503W        W68869  15.180   8.272  10.939
 7504W        W68870  29.028  13.343  13.883
 7505W        W68871  26.651   9.648  13.496
 7506W        W68872   1.370  22.220  11.519
 7507W        W68873  30.466  31.943   2.255
 7508W        W68874   9.667   0.364  12.528
 7509W        W68875  18.251   7.849  14.516
 7510W        W68876  16.788  18.084   1.359
 7511W        W68877  12.340   9.814  14.996
 7512W        W68878  39.374  21.260   3.662
 7513W        W68879  19.584  42.318   4.166
 7514W        W68880  40.504  26.591   0.905
 7515W        W68881  21.187  24.574  14.510
 7516W        W68882   4.941  23.077  12.824
 7517W        W68883  33.594  28.483   4.789
 7518W        W68884  44.918  20.106  14.375
 7519W        W68885  44.285  10.771   3.817
 7520W        W68886  27.197  19.107   0.479
 7521W        W68887  20.765  42.365   3.358
 7522W        W68888   3.342   3.746  14.479
 7523W        W68889   9.203  10.725   3.222
 7524W        W68890  41.804   5.240  12.950
 7525W        W68891  19.081   7.280   3.217
 7526W        W68892  33.445   1.406  13.888
 7527W        W68893  21.021   5.327   5.234
 7528W        W68894  11.185  19.651   3.248
 7529W        W68895  37.354  24.504   3.753
 7530W        W68896  12.260  34.428  13.891
 7531W        W68897  17.564  14.675   0.909
 7532W        W68898   0.956   0.428  13.022
 7533W        W68899  12.661  26.501   3.178
 7534W        W68900  34.413  41.802   3.754
 7535W        W68901  44.281   0.486   2.793
 7536W        W68902   1.817  13.270   2.791
 7537W        W68903   0.456  43.281  12.429
 7538W        W68904  16.716  16.704  10.479
 7539W        W68905  40.990  32.131   1.267
 7540W        W68906  19.588  24.629  12.905
 7541W        W68907  31.970  29.991   3.308
 7542W        W68908  37.833   8.276   3.366
 7543W        W68909  36.073  40.035  12.998
 7544W        W68910  18.782  34.479  14.930
 7545W        W68911  11.681  38.938   2.317
 7546W        W68912  17.778  33.408   2.664
 7547W        W68913  34.876  33.563   4.267
 7548W        W68914  25.024  31.550  10.930
 7549W        W68915  19.169  14.245   3.173
 7550W        W68916  21.651  19.578   1.740
 7551W        W68917   0.458  16.644  14.380
 7552W        W68918  39.993  14.607  12.917
 7553W        W68919  35.481   4.221  14.760
 7554W        W68920  35.004  23.180  10.415
 7555W        W68921   0.295  25.096   0.398
 7556W        W68922  42.877  15.765  13.486
 7557W        W68923   8.793   1.869  12.850
 7558W        W68924   3.452  39.532   0.847
 7559W        W68925  28.471   6.677  13.843
 7560W        W68926  19.264   5.319   0.812
 7561W        W68927   8.384  34.091  14.281
 7562W        W68928  12.811  28.087   3.277
 7563W        W68929   5.335  11.281  13.323
 7564W        W68930  19.194  37.017   3.843
 7565W        W68931  32.570  40.319   2.698
 7566W        W68932  31.947   3.832  12.945
 7567W        W68933  13.708  27.019  10.966
 7568W        W68934  20.204   6.816  11.590
 7569W        W68935  18.250  10.731   0.399
 7570W        W68936  21.128  15.736   2.719
 7571W        W68937   4.227  21.043  14.291
 7572W        W68938  13.655  17.787   4.811
 7573W        W68939  10.853  33.953  12.965
 7574W        W68940  38.422   6.914   3.166
 7575W        W68941  43.925  16.149   3.186
 7576W        W68942   4.280   0.330   2.803
 7577W        W68943  19.054  28.144  10.901
 7578W        W68944  34.071   3.337   0.342
 7579W        W68945   5.207  40.361  11.096
 7580W        W68946  44.853  39.441   1.764
 7581W        W68947  43.385  25.470  11.111
 7582W        W68948  11.814  30.959   1.322
 7583W        W68949  38.909  16.671   3.264
 7584W        W68950  15.174  12.851  12.043
 7585W        W68951  11.627   0.354   2.273
 7586W        W68952  42.300  22.648   0.349
 7587W        W68953   7.223  14.596   2.219
 7588W        W68954  39.811  37.384   3.374
 7589W        W68955   4.851  32.134   4.212
 7590W        W68956  43.407   2.797   4.788
 7591W        W68957   7.895   8.717   9.963
 7592W        W68958  30.610  35.562  14.987
 7593W        W68959  26.629  27.176   4.760
 7594W        W68960  32.975  31.635  14.902
 7595W        W68961  34.566  10.373  10.981
 7596W        W68962  15.723   4.346  10.409
 7597W        W68963  16.709  21.687  12.932
 7598W        W68964   1.269  16.102   3.346
 7599W        W68965  44.915  20.737  12.958
 7600W        W68966  40.358  11.268   0.335
 7601W        W68967   1.914  37.450  11.983
 7602W        W68968  14.704  24.219  11.558
 7603W        W68969   2.338   5.850   1.754
 7604W        W68970  28.527  21.193  14.287
 7605W        W68971  32.540  35.929  14.394
 7606W        W68972  43.902  30.951   2.335
 7607W        W68973  37.966  41.988  14.829
 7608W        W68974  36.942  20.756   0.338
 7609W        W68975  20.266  44.846  14.923
 7610W        W68976  11.277  41.337   2.271
 7611W        W68977  12.306   3.287   3.300
 7612W        W68978  11.344   4.907   1.237
 7613W        W68979  24.186  32.047   0.268
 7614W        W68980  41.907   1.770   1.228
 7615W        W68981  44.879  24.634  14.486
 7616W        W68982  18.183  17.563   1.368
 7617W        W68983   2.257   8.706   0.413
 7618W        W68984  42.358   3.954  13.050
 7619W        W68985  20.540  26.529  10.592
 7620W        W68986  36.029   1.847  11.097
 7621W        W68987   9.884   7.754  11.025
 7622W        W68988  19.742  21.729   4.165
 7623W        W68989  22.028  43.367  12.069
 7624W        W68990   2.851   5.380   5.743
 7625W        W68991   9.200  28.129  13.051
 7626W        W68992  42.818  29.664   0.261
 7627W        W68993  18.212  34.957   4.691
 7628W        W68994   4.236  16.101  14.883
 7629W        W68995  20.583   3.227  11.866
 7630W        W68996  30.013  21.645   1.699
 7631W        W68997  41.478   8.260  13.849
 7632W        W68998  33.492   1.976   4.141
 7633W        W68999  21.673  32.566   0.863
 7634W        W69000   8.837   4.248  12.880
 7635W        W69001  20.713  40.468   2.419
 7636W        W69002  44.976  32.415   2.314
 7637W        W69003  20.529  28.186   0.767
 7638W        W69004  11.866  28.495  11.435
 7639W        W69005  21.188  32.004  12.479
 7640W        W69006  35.508  16.765   0.355
 7641W        W69007  16.087  19.745  12.397
 7642W        W69008  38.532  25.470  14.408
 7643W        W69009  15.824  28.078   4.617
 7644W        W69010   6.279   7.411   4.248
 7645W        W69011  35.407   8.774   1.789
 7646W        W69012  28.096  32.899  14.797
 7647W        W69013  41.878  15.802   3.383
 7648W        W69014   7.856  13.623   1.824
 7649W        W69015  11.292  18.644  10.983
 7650W        W69016  39.852  20.257  11.510
 7651W        W69017  19.249   0.897   4.300
 7652W        W69018  41.383   7.227  13.457
 7653W        W69019  16.084  27.469  10.571
 7654W        W69020  30.026  29.082   3.754
 7655W        W69021  23.651  13.714   1.315
 7656W        W69022  43.879  23.206  11.010
 7657W        W69023  39.394  13.792   4.673
 7658W        W69024   9.774  11.679   0.260
 7659W        W69025  19.223   7.368   0.941
 7660W        W69026  22.608   9.678   4.324
 7661W        W69027  30.477  37.432   3.218
 7662W        W69028  27.595   8.190   3.332
 7663W        W69029   9.194  32.607   3.261
 7664W        W69030  42.854  28.535   4.304
 7665W        W69031  18.138  19.607   2.262
 7666W        W69032  44.947  14.319   1.870
 7667W        W69033  27.000  27.122  14.760
 7668W        W69034  19.221  28.566  13.911
 7669W        W69035   0.931  31.101   0.306
 7670W        W69036   7.668  39.812   4.193
 7671W        W69037  38.058  36.052  12.985
 7672W        W69038  20.145  38.013   0.762
 7673W        W69039  11.866   1.344  13.942
 7674W        W69040  44.791  34.388  10.618
 7675W        W69041  35.434  25.629   1.287
 7676W        W69042  10.263   8.822   9.979
 7677W        W69043   3.850  35.914  10.423
 7678W        W69044  10.794  36.946   3.155
 7679W        W69045  40.042  37.979  12.961
 7680W        W69046  29.011  21.169  12.548
 7681W        W69047   8.174   1.935   3.249
 7682W        W69048  44.925  26.582   0.247
 7683W        W69049  21.626   3.785  13.017
 7684W        W69050  29.593  30.510  11.883
 7685W        W69051   0.442   7.301   2.707
 7686W        W69052   0.351  17.205   0.772
 7687W        W69053  38.823  23.176   2.382
 7688W        W69054  24.998   9.870   3.228
 7689W        W69055  22.099  26.619   4.334
 7690W        W69056   7.229  24.987   3.382
 7691W        W69057   2.883  15.657  13.380
 7692W        W69058   0.274   0.417  10.559
 7693W        W69059  13.130   7.349   0.951
 7694W        W69060  35.077  14.278   4.714
 7695W        W69061   1.446   1.742   3.765
 7696W        W69062  13.112  39.363  13.532
 7697W        W69063  18.293   9.678   2.339
 7698W        W69064   9.361  24.617   0.884
 7699W        W69065  24.980   9.376   1.444
 7700W        W69066   2.762  27.467   2.722
 7701W        W69067  39.541  22.595  13.026
 7702W        W69068  31.986  19.679  11.544
 7703W        W69069   7.907   1.410   4.124
 7704W        W69070  32.632  15.811   1.772
 7705W        W69071  38.972   9.733   4.208
 7706W        W69072  34.599  36.364  10.923
 7707W        W69073  41.908   4.213  13.348
 7708W        W69074  36.487  42.369   4.205
 7709W        W69075  28.550   5.391  11.499
 7710W        W69076  38.353   6.918  14.425
 7711W        W69077   9.781  13.774   3.298
 7712W        W69078  11.233  31.134  14.792
 7713W        W69079  42.424  25.698  10.596
 7714W        W69080  34.061   2.280  11.451
 7715W        W69081  17.147  17.800  14.012
 7716W        W69082  17.746  37.559   2.719
 7717W        W69083   9.302  21.138   2.296
 7718W        W69084  17.240   8.778  14.909
 7719W        W69085  29.568   2.925   4.820
 7720W        W69086  38.014  19.734   3.373
 7721W        W69087  39.461  11.368   4.327
 7722W        W69088  44.373   1.910  12.004
 7723W        W69089  35.506  37.894  12.024
 7724W        W69090   7.908  38.889  14.315
 7725W        W69091   2.405  15.717  11.610
 7726W        W69092  16.587  15.085  11.431
 7727W        W69093   9.324  22.534   2.781
 7728W        W69094   9.347  21.110   1.901
 7729W        W69095   7.814  13.203  13.481
 7730W        W69096  43.854   3.862   1.246
 7731W        W69097  17.070  36.389  14.374
 7732W        W69098   0.303  21.537   2.274
 7733W        W69099   8.261  38.438   2.822
 7734W        W69100  37.915  32.912  12.045
 7735W        W69101  25.514  20.637   4.281
 7736W        W69102  22.747  32.948   0.952
 7737W        W69103  16.082   9.244  13.945
 7738W        W69104   0.466  43.810  14.982
 7739W        W69105  13.287   0.879   3.809
 7740W        W69106  18.089   3.797   1.451
 7741W        W69107   7.692  34.578   5.282
 7742W        W69108   4.237  37.830  12.955
 7743W        W69109  18.615  43.428   1.260
 7744W        W69110  14.649  42.405   1.294
 7745W        W69111  23.240  37.900  10.501
 7746W        W69112   3.810  38.480   3.296
 7747W        W69113   1.349  17.161   4.302
 7748W        W69114  21.623  37.912  12.869
 7749W        W69115   0.930  14.222   3.159
 7750W        W69116  29.025  44.993   2.295
 7751W        W69117  13.766  31.982   5.237
 7752W        W69118   8.371  33.421  10.496
 7753W        W69119  26.597  19.176  11.056
 7754W        W69120  26.652   9.272   4.324
 7755W        W69121  10.673  11.748   0.889
 7756W        W69122  14.830  26.100  11.436
 7757W        W69123  38.334  15.326   4.248
 7758W        W69124  28.962  39.966   0.741
 7759W        W69125   0.917  38.987  11.097
 7760W        W69126  31.929  11.739  13.905
 7761W        W69127  19.563  33.124  12.865
 7762W        W69128  23.723  18.580   2.333
 7763W        W69129  36.489  37.911  11.986
 7764W        W69130   3.225  10.839  11.991
 7765W        W69131  44.344   1.922   0.931
 7766W        W69132   3.217  15.697   3.274
 7767W        W69133  30.956   8.727   2.845
 7768W        W69134  42.933  10.711   0.770
 7769W        W69135   4.768  44.836   4.284
 7770W        W69136  29.465  34.485   4.226
 7771W        W69137  13.300  37.032   1.804
 7772W        W69138  27.139  27.590  13.957
 7773W        W69139   0.796  15.604  11.512
 7774W        W69140  34.086   8.802   2.325
 7775W        W69141  42.955   7.900   3.713
 7776W        W69142   8.677   5.288   3.710
 7777W        W69143  12.629  39.535  12.410
 7778W        W69144  29.592  36.989   1.365
 7779W        W69145  10.652  14.288   0.852
 7780W        W69146  14.257  13.161  11.931
 7781W        W69147  14.111  31.145   1.416
 7782W        W69148  26.143  36.919   2.281
 7783W        W69149   2.913   9.226   4.628
 7784W        W69150  23.157   6.425  13.912
 7785W        W69151   7.267  22.668   4.642
 7786W        W69152  14.727  42.298  13.369
 7787W        W69153  37.485   9.792   0.389
 7788W        W69154   5.884  33.590   0.396
 7789W        W69155  39.872  22.146  13.947
 7790W        W69156  39.321  23.214   1.860
 7791W        W69157   1.809  10.275  10.454
 7792W        W69158  27.672  16.664   4.169
 7793W        W69159  18.774   9.216  12.888
 7794W        W69160  13.656   5.365  12.997
 7795W        W69161  34.419  21.536  10.508
 7796W        W69162  39.494  28.181  12.568
 7797W        W69163  43.295  19.685  13.438
 7798W        W69164  40.547  19.665  11.917
 7799W        W69165  36.447   9.810  13.382
 7800W        W69166  10.216  44.299  11.544
 7801W        W69167  42.363  21.081   3.281
 7802W        W69168  24.492   4.909  12.493
 7803W        W69169  38.571   8.861  12.885
 7804W        W69170   9.332  22.181  11.546
 7805W        W69171  23.654  34.044  14.303
 7806W        W69172  15.756  16.772  10.558
 7807W        W69173   9.888  34.916   3.653
 7808W        W69174  43.487  17.621   0.837
 7809W        W69175  43.855   1.362   3.231
 7810W        W69176  22.734   5.691  11.912
 7811W        W69177  13.710  21.724   3.762
 7812W        W69178  14.773  23.097  12.856
 7813W        W69179  34.869  25.081   2.307
 7814W        W69180   6.427  38.946   2.778
 7815W        W69181  23.627  20.659  12.964
 7816W        W69182   7.680  24.139  11.886
 7817W        W69183  34.047  31.446   1.765
 7818W        W69184  29.936  10.366  14.279
 7819W        W69185   4.882  19.586   9.924
 7820W        W69186   6.708  20.242  14.004
 7821W        W69187   6.316  29.625  14.804
 7822W        W69188   7.669  26.519  13.547
 7823W        W69189   2.880  21.167   2.763
 7824W        W69190  42.308  42.860   1.813
 7825W        W69191  28.110  36.857  12.954
 7826W        W69192  17.115  38.927   1.368
 7827W        W69193   1.448  32.953  14.432
 7828W        W69194   6.328  31.967   3.272
 7829W        W69195  43.976  26.551   3.324
 7830W        W69196  32.526  28.566   3.754
 7831W        W69197  26.591   2.761   0.322
 7832W        W69198  14.593   7.838  12.838
 7833W        W69199  14.763   0.834   0.362
 7834W        W69200   9.330  20.594  12.999
 7835W        W69201  12.236  32.626   2.192
 7836W        W69202  22.176  37.383  13.794
 7837W        W69203   7.285  41.818   1.252
 7838W        W69204  44.796  28.932   1.753
 7839W        W69205  41.008  42.319   1.730
 7840W        W69206  25.692  42.293  13.851
 7841W        W69207  37.971  37.837  13.900
 7842W        W69208  15.700  30.962  13.807
 7843W        W69209  21.631   0.882  11.079
 7844W        W69210  18.271  35.424   1.859
 7845W        W69211  30.633   2.346  14.781
 7846W        W69212   9.787  28.657   2.862
 7847W        W69213  18.155  27.501   0.413
 7848W        W69214  23.020   9.363  10.983
 7849W        W69215  33.093   4.219   4.724
 7850W        W69216  32.565  28.463  14.444
 7851W        W69217  34.871  23.554  10.487
 7852W        W69218   6.732   7.182  14.279
 7853W        W69219  34.058  42.910   4.243
 7854W        W69220   6.277   7.280   0.794
 7855W        W69221  29.098  37.576   4.153
 7856W        W69222  29.007  39.006   1.819
 7857W        W69223  15.140   8.181  13.343
 7858W        W69224  40.486  11.253   4.835
 7859W        W69225   2.894  35.467  12.551
 7860W        W69226  32.603  39.994   3.166
 7861W        W69227  33.558  27.681   0.793
 7862W        W69228  43.799   9.759   0.334
 7863W        W69229  17.216   9.831  11.918
 7864W        W69230  32.032  11.190   0.847
 7865W        W69231  19.186   9.252   4.177
 7866W        W69232  41.951  13.201  10.502
 7867W        W69233  15.639  15.621  14.369
 7868W        W69234  35.568  18.660   3.357
 7869W        W69235   2.231  44.388   3.836
 7870W        W69236  24.710  10.211   4.795
 7871W        W69237  29.105  22.022  10.552
 7872W        W69238  14.213   6.350  11.995
 7873W        W69239  37.438  16.719   0.403
 7874W        W69240  16.627  40.984   1.858
 7875W        W69241  40.362  38.341  14.324
 7876W        W69242  27.584  16.147   0.259
 7877W        W69243  44.277  12.298   0.401
 7878W        W69244  44.002  34.913  12.479
 7879W        W69245  17.113  29.514  12.388
 7880W        W69246   9.647  17.615  14.445
 7881W        W69247  27.987  22.155  14.789
 7882W        W69248  12.321  36.951  10.540
 7883W        W69249  19.245   3.352   0.862
 7884W        W69250  11.814  37.928  13.022
 7885W        W69251   2.357   1.470  10.525
 7886W        W69252  11.855  16.137   2.686
 7887W        W69253   7.785  14.630   9.960
 7888W        W69254  18.752  38.571  10.475
 7889W        W69255  24.069  38.396   2.769
 7890W        W69256  34.527  19.579   1.710
 7891W        W69257   8.270  15.718  14.783
 7892W        W69258  41.894  34.090   1.864
 7893W        W69259  12.220   7.777  11.967
 7894W        W69260  36.353  36.569  10.622
 7895W        W69261  20.220  31.059   1.915
 7896W        W69262  39.413  11.142   3.352
 7897W        W69263  42.305  11.677  12.370
 7898W        W69264  33.413  39.407   5.112
 7899W        W69265  37.942  21.698  10.557
 7900W        W69266  44.315  10.838  14.280
 7901W        W69267  23.233  31.967  12.950
 7902W        W69268  20.204   9.862  12.075
 7903W        W69269  33.472   7.866   1.811
 7904W        W69270   8.728  22.528  14.295
 7905W        W69271  26.693  13.216   0.282
 7906W        W69272  10.795   5.367   1.270
 7907W        W69273  15.795  17.787  12.465
 7908W        W69274  17.182   4.816   0.415
 7909W        W69275  40.401  32.923  14.798
 7910W        W69276  34.446  44.481  12.390
 7911W        W69277  20.274  40.432   4.195
 7912W        W69278  38.496  33.544   4.634
 7913W        W69279   5.426  30.993  11.052
 7914W        W69280  28.038  40.453   1.369
 7915W        W69281  10.296  41.993   3.837
 7916W        W69282  28.581  36.951  11.439
 7917W        W69283  10.169  10.688  13.881
 7918W        W69284  36.483  30.107  12.445
 7919W        W69285  44.840  34.408   0.386
 7920W        W69286  37.907  18.105   1.699
 7921W        W69287  26.956  26.134  12.359
 7922W        W69288  41.999   7.224   1.824
 7923W        W69289  24.008  24.087  13.414
 7924W        W69290   7.805  24.595  12.579
 7925W        W69291  37.376  36.565   0.434
 7926W        W69292  26.979  37.399  13.413
 7927W        W69293  34.046  16.155  10.569
 7928W        W69294  17.073  20.243   0.439
 7929W        W69295  39.500  20.268  10.918
 7930W        W69296   7.795  38.053   3.145
 7931W        W69297  12.213   9.709  10.962
 7932W        W69298  34.943  10.815   2.711
 7933W        W69299   3.289   8.163   3.803
 7934W        W69300  35.955  36.006  13.311
 7935W        W69301  12.250  27.957  12.968
 7936W        W69302  36.477  37.568   0.451
 7937W        W69303  26.970  40.423  14.017
 7938W        W69304  12.221  33.037  11.922
 7939W        W69305   1.772  12.229  11.410
 7940W        W69306  34.458  38.927   4.814
 7941W        W69307   2.284  37.428   3.855
 7942W        W69308  29.443  26.607  10.054
 7943W        W69309  41.512  17.556  11.592
 7944W        W69310   8.730  20.681   3.818
 7945W        W69311  18.162  14.788   3.368
 7946W        W69312  22.154  33.536  13.841
 7947W        W69313  13.283  14.108   0.958
 7948W        W69314   5.285  32.091   9.939
 7949W        W69315   6.800  42.879  13.376
 7950W        W69316  18.180  40.521   0.474
 7951W        W69317  39.834  16.165  13.440
 7952W        W69318   9.313  38.965  14.367
 7953W        W69319  31.085   7.311  12.413
 7954W        W69320  37.500  43.365  11.905
 7955W        W69321  30.490  42.432  10.992
 7956W        W69322  14.178  37.447  11.373
 7957W        W69323  23.525   8.823  12.477
 7958W        W69324  44.755   4.365  10.961
 7959W        W69325  20.680  23.211  10.924
 7960W        W69326   3.716  23.047   2.274
 7961W        W69327   1.844  32.609  14.778
 7962W        W69328  22.678  16.165  11.446
 7963W        W69329  25.175  29.968  12.957
 7964W        W69330  38.942  35.483  10.063
 7965W        W69331  36.036  26.684  13.533
 7966W        W69332  39.483  15.623   4.342
 7967W        W69333  35.462  24.015  12.343
 7968W        W69334  28.082  24.536   4.623
 7969W        W69335  38.517  30.613   2.183
 7970W        W69336  21.218  15.143  14.802
 7971W        W69337  19.616   2.876   3.828
 7972W        W69338  30.449  15.820  11.002
 7973W        W69339   8.818  42.925  11.932
 7974W        W69340  17.099  24.583   2.755
 7975W        W69341   8.900  24.524  12.005
 7976W        W69342   5.915  16.240   4.777
 7977W        W69343  34.976  38.537  13.056
 7978W        W69344   3.289  22.737  14.798
 7979W        W69345  31.071  41.339  12.911
 7980W        W69346  34.494   6.233  14.880
 7981W        W69347  27.574  21.740   2.868
 7982W        W69348   1.356  36.438   0.761
 7983W        W69349  17.617  41.937   2.856
 7984W        W69350  24.230   4.752   3.714
 7985W        W69351  13.612  36.557  14.769
 7986W        W69352   9.371  25.561  12.948
 7987W        W69353   7.764  32.888   2.896
 7988W        W69354  42.962  26.035   4.630
 7989W        W69355  36.445  43.478  13.863
 7990W        W69356  29.669   7.879  14.306
 7991W        W69357  37.911  18.560  11.017
 7992W        W69358  39.540  15.657   4.676
 7993W        W69359   5.901   6.869  12.071
 7994W        W69360  38.435  40.342   4.604
 7995W        W69361  14.204   2.350   4.603
 7996W        W69362  41.884  24.590   3.236
 7997W        W69363  34.042   6.813  10.637
 7998W        W69364   6.773  33.113   0.820
 7999W        W69365  10.757  34.525   5.630
 8000W        W69366  31.041  41.948  11.599
 8001W        W69367  30.547  18.238  14.353
 8002W        W69368  35.986  24.104   5.093
 8003W        W69369  35.453  31.930  14.900
 8004W        W69370   3.758  11.747  14.355
 8005W        W69371   5.776   6.896  12.841
 8006W        W69372  26.522  21.635   5.300
 8007W        W69373  17.249   3.934  10.939
 8008W        W69374   2.759   6.885  10.469
 8009W        W69375  19.772  37.415  11.040
 8010W        W69376  16.641  24.715  14.486
 8011W        W69377   0.454  12.309   2.876
 8012W        W69378   3.456  39.015   3.278
 8013W        W69379   4.413   7.889   3.216
 8014W        W69380  20.570  38.033  14.330
 8015W        W69381  19.260   5.324  14.286
 8016W        W69382  24.092   3.451   4.144
 8017W        W69383  17.273  13.351   0.338
 8018W        W69384  38.048  22.031   1.286
 8019W        W69385  32.424  42.864  11.001
 8020W        W69386  25.472   7.363   4.818
 8021W        W69387   4.739  25.029   0.416
 8022W        W69388  37.352  19.262  13.540
 8023W        W69389  34.421  11.749  13.825
 8024W        W69390  31.089  13.749   1.289
 8025W        W69391  27.472  14.621   1.850
 8026W        W69392  44.382   3.729   0.356
 8027W        W69393  43.315   5.287   1.834
 8028W        W69394  36.358  25.066  10.155
 8029W        W69395  20.684  35.048   1.870
 8030W        W69396  14.153   4.293   3.354
 8031W        W69397  39.319  39.482   0.760
 8032W        W69398  32.543  17.131  11.487
 8033W        W69399  44.999   4.906  14.349
 8034W        W69400   4.823  31.011  14.357
 8035W        W69401  36.530  13.133  12.942
 8036W        W69402   4.205   9.362  11.459
 8037W        W69403  32.413  14.134   4.148
 8038W        W69404   4.348  28.976   2.354
 8039W        W69405  39.064  14.662   3.658
 8040W        W69406  10.379  22.013   1.421
 8041W        W69407  11.341  24.004  11.494
 8042W        W69408  22.099  16.688  12.390
 8043W        W69409  30.592  35.384   2.741
 8044W        W69410  18.609  23.505   1.918
 8045W        W69411   3.234  19.718  11.867
 8046W        W69412  24.175  19.640  13.360
 8047W        W69413   5.324   6.330  13.826
 8048W        W69414  14.616  25.602  13.846
 8049W        W69415   7.337  12.273   2.253
 8050W        W69416  29.453  40.030  10.156
 8051W        W69417  19.545  42.391  11.517
 8052W        W69418   8.201  39.866  12.444
 8053W        W69419  32.490  29.057  14.501
 8054W        W69420  28.512  16.251   1.877
 8055W        W69421   7.402  10.184   2.857
 8056W        W69422   5.904   3.927  11.939
 8057W        W69423  37.852  16.775  11.993
 8058W        W69424  38.571  10.359  11.952
 8059W        W69425  23.026   0.821  13.444
 8060W        W69426  15.303   7.243  13.478
 8061W        W69427   8.368   7.208   2.361
 8062W        W69428  35.426  21.028   2.352
 8063W        W69429  26.147  33.919   1.780
 8064W        W69430  32.065  27.164   3.230
 8065W        W69431   6.706  32.593  14.305
 8066W        W69432   1.742   7.237  11.072
 8067W        W69433  39.415  15.163  13.508
 8068W        W69434  38.414  32.430   2.336
 8069W        W69435  11.223  41.520   2.740
 8070W        W69436  35.459  28.578  13.835
 8071W        W69437  27.588  39.445   0.460
 8072W        W69438  43.417   9.791  11.099
 8073W        W69439  21.116  11.331  13.885
 8074W        W69440   9.341  16.779   3.370
 8075W        W69441  22.690  16.146   0.843
 8076W        W69442  23.993  41.397  13.471
 8077W        W69443  22.534  13.342  11.532
 8078W        W69444  27.657  39.842   0.771
 8079W        W69445  33.890  23.121  11.874
 8080W        W69446  11.797  38.564   4.190
 8081W        W69447  42.961   9.853  10.421
 8082W        W69448  23.081  11.776   3.346
 8083W        W69449  12.263  17.626   4.767
 8084W        W69450   3.887   1.419  11.915
 8085W        W69451  20.536   8.695  10.527
 8086W        W69452  29.664   9.708   3.265
 8087W        W69453  40.455  41.353   2.774
 8088W        W69454  13.723  17.571   2.837
 8089W        W69455  10.719  25.680   3.270
 8090W        W69456  41.499  16.687  11.973
 8091W        W69457  26.162  18.613  11.572
 8092W        W69458  28.026  12.661   2.669
 8093W        W69459  39.543  34.565   2.740
 8094W        W69460   3.888  32.577   4.207
 8095W        W69461  22.637  42.924  14.025
 8096W        W69462  16.078  14.744  11.973
 8097W        W69463   4.741  14.123  14.931
 8098W        W69464  29.137   9.681  11.880
 8099W        W69465   4.835  35.424  13.369
 8100W        W69466  20.063   5.806  13.500
 8101W        W69467  13.822  42.440  14.488
 8102W        W69468  44.893  11.270  12.095
 8103W        W69469  32.132  20.230   3.276
 8104W        W69470  40.446   3.309  12.017
 8105W        W69471  22.664  18.728   0.313
 8106W        W69472  30.004   2.336  10.430
 8107W        W69473  24.169   7.904  12.445
 8108W        W69474  42.502   7.288   1.926
 8109W        W69475  21.522  43.909   4.812
 8110W        W69476   8.656  42.836  10.956
 8111W        W69477   9.182  22.722  12.855
 8112W        W69478  13.307   8.656  12.978
 8113W        W69479  25.636  35.394   4.298
 8114W        W69480  33.595   2.340  13.003
 8115W        W69481  31.985   6.824  13.970
 8116W        W69482   5.282   2.935  10.560
 8117W        W69483  25.197  38.333   0.847
 8118W        W69484  25.047  35.362   2.200
 8119W        W69485  35.602  13.807  12.401
 8120W        W69486  12.195  38.408  10.462
 8121W        W69487   7.752  44.757  14.861
 8122W        W69488  13.166  23.112   2.379
 8123W        W69489  41.804   7.773   3.772
 8124W        W69490  40.849  19.765  10.469
 8125W        W69491  15.777   4.346  14.326
 8126W        W69492  41.526  24.597  11.597
 8127W        W69493   8.293   2.769  10.893
 8128W        W69494  33.042  21.702  11.539
 8129W        W69495  37.459   7.302   4.679
 8130W        W69496   3.732  16.175   1.897
 8131W        W69497   3.425  27.544  12.541
 8132W        W69498  42.487  44.347  14.830
 8133W        W69499  11.836  19.553  12.849
 8134W        W69500  20.244  28.141  13.490
 8135W        W69501   6.382  20.131  11.975
 8136W        W69502  31.131  18.558   2.665
 8137W        W69503  26.666   9.726  12.931
 8138W        W69504  22.527  29.504  11.944
 8139W        W69505  33.033  24.533  12.914
 8140W        W69506   0.461  27.187  12.426
 8141W        W69507  20.195  35.000  13.034
 8142W        W69508   3.788  40.543  12.455
 8143W        W69509   3.387  13.345   3.792
 8144W        W69510  26.579  20.761   3.719
 8145W        W69511  44.389  35.522  11.055
 8146W        W69512  25.074   0.977   4.177
 8147W        W69513   0.952  40.543   1.901
 8148W        W69514  36.873  34.614   4.130
 8149W        W69515  14.764  26.958  13.982
 8150W        W69516  43.402  23.500   4.814
 8151W        W69517  27.951   9.253  11.057
 8152W        W69518  38.401  15.182  13.021
 8153W        W69519  41.323  27.021  12.009
 8154W        W69520  22.090  42.030   4.141
 8155W        W69521  26.185  39.890   1.363
 8156W        W69522  15.593  28.963   1.236
 8157W        W69523  39.316  23.128  11.543
 8158W        W69524  13.838   6.759   3.717
 8159W        W69525   5.922   7.670   1.787
 8160W        W69526  25.031  28.951  11.120
 8161W        W69527  32.929  25.519  12.412
 8162W        W69528   0.472  15.747   3.271
 8163W        W69529  10.151  32.393   4.332
 8164W        W69530  38.408  16.666  12.091
 8165W        W69531   8.874  30.920   1.804
 8166W        W69532  44.842  20.030  11.940
 8167W        W69533  12.758  35.567   0.438
 8168W        W69534   6.788  41.305   3.869
 8169W        W69535  41.352  33.387   4.293
 8170W        W69536  31.150  26.598   4.672
 8171W        W69537  21.124   1.435   0.956
 8172W        W69538   6.218  13.783   2.267
 8173W        W69539   4.331  18.676  10.893
 8174W        W69540  24.231  26.054   0.434
 8175W        W69541   3.366  26.510  12.394
 8176W        W69542  36.852  38.884   1.248
 8177W        W69543  40.389  15.221   1.422
 8178W        W69544   0.308  14.677  13.886
 8179W        W69545  10.367  42.410   0.858
 8180W        W69546  19.643  44.866  12.576
 8181W        W69547  10.843  34.964  10.531
 8182W        W69548   3.803  37.423  13.048
 8183W        W69549   4.404   1.807   3.385
 8184W        W69550  28.172  24.138   1.710
 8185W        W69551  32.632  41.450   4.829
 8186W        W69552  31.002  25.143  14.469
 8187W        W69553   7.771  37.479   4.794
 8188W        W69554  19.695  44.342   2.254
 8189W        W69555  18.632  37.872  12.456
 8190W        W69556  11.311  37.054  11.086
 8191W        W69557  15.777  29.065  12.850
 8192W        W69558   9.694  40.976  11.594
 8193W        W69559  19.714  42.815  11.115
 8194W        W69560  30.036  17.156   4.742
 8195W        W69561  37.425  10.719   1.438
 8196W        W69562  18.276  18.188  10.945
 8197W        W69563  15.756  37.862   3.754
 8198W        W69564  40.965  22.607   3.869
 8199W        W69565  36.415  42.915   1.279
 8200W        W69566  11.198  15.607   2.829
 8201W        W69567   5.805   9.382  14.864
 8202W        W69568   6.690  44.789   0.467
 8203W        W69569  37.971   7.755  14.913
 8204W        W69570  25.163  44.812  10.487
 8205W        W69571  12.699  33.031  12.399
 8206W        W69572   6.390  19.664   2.229
 8207W        W69573  43.941  15.779  14.813
 8208W        W69574  22.080  17.740   0.857
 8209W        W69575  22.242  10.861  13.013
 8210W        W69576  41.819  41.538   4.709
 8211W        W69577  21.748  29.536  10.593
 8212W        W69578  25.095  23.491  14.011
 8213W        W69579  17.702  44.374   1.375
 8214W        W69580  27.478  16.693   0.400
 8215W        W69581  28.124   9.168  13.482
 8216W        W69582  15.176  13.297   2.746
 8217W        W69583  33.893  11.782   2.416
 8218W        W69584   2.347  18.054   3.236
 8219W        W69585  19.653  23.031  14.893
 8220W        W69586  19.199   7.238  11.489
 8221W        W69587  41.898  10.782  14.349
 8222W        W69588   5.370   2.368   3.370
 8223W        W69589  25.569  36.382  12.087
 8224W        W69590   3.373  16.578  11.080
 8225W        W69591  25.171  30.540   3.194
 8226W        W69592  11.189   9.204   4.249
 8227W        W69593  13.163  37.394  10.099
 8228W        W69594  36.507   2.962   0.351
 8229W        W69595  24.978   4.869   3.316
 8230W        W69596  25.561  25.062   0.291
 8231W        W69597  33.957  22.155   0.421
 8232W        W69598  40.354  10.345   3.349
 8233W        W69599   4.394  34.432  10.561
 8234W        W69600  37.399  33.405  14.386
 8235W        W69601   7.321  32.632  12.068
 8236W        W69602  28.621  25.609   2.189
 8237W        W69603  23.529  38.352  10.492
 8238W        W69604  29.522  22.682   3.287
 8239W        W69605  34.935  22.095   0.288
 8240W        W69606  20.156  20.658   2.857
 8241W        W69607  35.913   4.395   3.268
 8242W        W69608   5.776  42.842   1.332
 8243W        W69609  15.147  32.059   3.693
 8244W        W69610  40.479  42.808   1.799
 8245W        W69611  42.955  22.542   3.186
 8246W        W69612  38.520  19.536  12.884
 8247W        W69613  22.051  44.497   2.194
 8248W        W69614   4.736  18.693   3.298
 8249W        W69615  11.645  36.499  12.344
 8250W        W69616  12.686  35.874  10.925
 8251W        W69617  20.083  36.396   1.749
 8252W        W69618   5.377  34.395  12.884
 8253W        W69619   7.296   4.376   3.736
 8254W        W69620  40.332  17.142  14.463
 8255W        W69621  32.994   5.433  12.525
 8256W        W69622  17.741  17.089  12.510
 8257W        W69623  33.509  10.654  13.976
 8258W        W69624  32.437   4.878   0.813
 8259W        W69625  43.343  35.565  12.942
 8260W        W69626  16.177  12.315  13.366
 8261W        W69627  29.062  22.190   1.863
 8262W        W69628  42.032   2.332  11.996
 8263W        W69629  36.452  24.975   0.879
 8264W        W69630  42.790  11.688   2.872
 8265W        W69631  32.414  28.031  14.017
 8266W        W69632  31.121   5.340   0.363
 8267W        W69633  23.003  12.207   1.402
 8268W        W69634  36.031  41.359   4.836
 8269W        W69635  40.807  27.569  11.079
 8270W        W69636   0.963   4.327   1.800
 8271W        W69637  43.483  10.779  11.913
 8272W        W69638  24.502  16.224  13.992
 8273W        W69639  13.161  20.240  12.509
 8274W        W69640  26.589   6.753  14.981
 8275W        W69641  27.557  32.081   3.282
 8276W        W69642   2.306  40.884  14.882
 8277W        W69643  23.677  33.548   0.956
 8278W        W69644  15.185  10.330  11.946
 8279W        W69645  18.238   8.386  12.503
 8280W        W69646  28.165   5.786  12.039
 8281W        W69647  38.048  17.243   1.228
 8282W        W69648  25.703  11.843   1.415
 8283W        W69649  13.782   3.956  11.552
 8284W        W69650  28.043  17.654  14.938
 8285W        W69651  13.797   2.928  12.361
 8286W        W69652  25.610  27.079   1.860
 8287W        W69653  26.619  43.015  10.027
 8288W        W69654   5.751   5.767   5.082
 8289W        W69655   4.252  44.343   1.698
 8290W        W69656  18.734   7.256  11.552
 8291W        W69657   1.951  13.747   4.635
 8292W        W69658  32.461  32.907   3.801
 8293W        W69659  39.814  12.162   3.768
 8294W        W69660   6.745  24.217  11.570
 8295W        W69661  39.530  42.307   1.411
 8296W        W69662  37.955  36.486   0.852
 8297W        W69663  41.903  26.490  12.469
 8298W        W69664  31.632   1.274   3.377
 8299W        W69665  18.171   6.742  14.795
 8300W        W69666  19.044  41.827  13.799
 8301W        W69667  14.639  30.980  10.145
 8302W        W69668  27.454  43.988  14.483
 8303W        W69669  40.320  34.078   4.198
 8304W        W69670  17.188   0.289  12.508
 8305W        W69671  24.152   1.340  12.834
 8306W        W69672  40.328  35.087   3.272
 8307W        W69673  43.905  24.072  14.306
 8308W        W69674   2.916  15.780   5.275
 8309W        W69675  24.031  10.262   4.735
 8310W        W69676  44.804  32.036  13.867
 8311W        W69677  36.867  11.143   0.454
 8312W        W69678   8.369   9.886   4.820
 8313W        W69679  31.957   0.400   2.844
 8314W        W69680  21.564  44.960   2.190
 8315W        W69681   1.873  28.521  13.349
 8316W        W69682   0.887  38.991   1.439
 8317W        W69683  11.320  33.513   3.302
 8318W        W69684  11.809  26.959   3.372
 8319W        W69685   7.347  28.484   1.246
 8320W        W69686  16.735  43.903   1.733
 8321W        W69687  36.581   7.831  14.291
 8322W        W69688  34.872  24.487  10.891
 8323W        W69689  28.591  37.836  10.464
 8324W        W69690  40.380  14.593   1.284
 8325W        W69691  15.808   5.919  10.131
 8326W        W69692  38.959  34.539   1.799
 8327W        W69693  10.304  10.343  12.064
 8328W        W69694  43.488  34.514  13.333
 8329W        W69695  15.250  29.573  14.935
 8330W        W69696   4.281  24.627  13.417
 8331W        W69697  29.441  29.472   3.847
 8332W        W69698   3.860   9.888   2.830
 8333W        W69699   2.850  35.920  11.411
 8334W        W69700  16.102   7.302   5.278
 8335W        W69701  19.063   7.188  12.885
 8336W        W69702  21.541   2.368   4.301
 8337W        W69703  20.113  19.256   3.250
 8338W        W69704  16.241  43.406   1.383
 8339W        W69705  41.793  17.297   1.289
 8340W        W69706   0.950  23.654   1.234
 8341W        W69707  13.675  30.495  12.556
 8342W        W69708   9.790  37.420   4.643
 8343W        W69709  38.549  19.750   3.709
 8344W        W69710  30.090  18.094   0.309
 8345W        W69711  44.264   6.384  10.992
 8346W        W69712  14.117  41.789   1.898
 8347W        W69713   0.960  16.717   0.883
 8348W        W69714  40.366   3.822  13.879
 8349W        W69715   8.381  36.371   3.272
 8350W        W69716  33.395  38.495   4.227
 8351W        W69717  33.414  37.472   4.148
 8352W        W69718   4.360  36.862   4.660
 8353W        W69719  43.399   8.660   2.875
 8354W        W69720  30.527  19.153   9.958
 8355W        W69721  30.608  18.604   3.764
 8356W        W69722  17.749  42.526  13.468
 8357W        W69723   0.414  16.589   2.301
 8358W        W69724   9.262  27.954  13.540
 8359W        W69725  32.007  27.995  10.427
 8360W        W69726   9.233  18.287  11.005
 8361W        W69727  29.554  14.690   2.234
 8362W        W69728   8.747  26.528  11.462
 8363W        W69729   7.264   6.301  14.303
 8364W        W69730  35.020  10.347  12.001
 8365W        W69731  38.918  23.574  13.864
 8366W        W69732  38.438  10.344  10.440
 8367W        W69733  34.379  38.019  13.378
 8368W        W69734   3.798  29.667  14.010
 8369W        W69735  33.917  21.066  10.567
 8370W        W69736  11.720  20.713  14.012
 8371W        W69737  24.725  35.937   2.250
 8372W        W69738  13.735  38.874   4.723
 8373W        W69739   0.448  12.306  12.084
 8374W        W69740  32.095  22.178  12.542
 8375W        W69741  19.106  35.005   2.712
 8376W        W69742  34.971  20.597  10.634
 8377W        W69743  37.865  17.582  10.645
 8378W        W69744  36.397  30.644  14.297
 8379W        W69745  41.434  42.848  13.976
 8380W        W69746  41.498  34.020   2.294
 8381W        W69747   8.888  27.538   1.403
 8382W        W69748   8.235  11.277   0.242
 8383W        W69749  41.463  41.441   3.279
 8384W        W69750  39.361   6.746  10.600
 8385W        W69751  19.677  19.687   3.200
 8386W        W69752  23.570  31.950  14.367
 8387W        W69753  42.374  40.366  11.089
 8388W        W69754  16.642  15.584  12.877
 8389W        W69755  34.461  24.493  13.933
 8390W        W69756  42.983  34.426  14.497
 8391W        W69757  29.113  38.356  10.545
 8392W        W69758  40.920  17.152   0.410
 8393W        W69759  19.104  26.489  14.317
 8394W        W69760  11.225   8.341   4.124
 8395W        W69761  22.121  36.398  10.138
 8396W        W69762  19.191  37.917  11.372
 8397W        W69763  31.040  16.110  11.540
 8398W        W69764  10.679  18.102   2.311
 8399W        W69765  43.502  26.620   5.185
 8400W        W69766  43.402  18.768   4.786
 8401W        W69767  30.944  37.555   0.966
 8402W        W69768  20.212  24.517  11.867
 8403W        W69769  29.025  37.340  13.532
 8404W        W69770   8.779   1.454  12.366
 8405W        W69771  44.005  44.974  14.827
 8406W        W69772  19.658  10.139  12.386
 8407W        W69773  12.271  20.635   3.635
 8408W        W69774  40.800  10.637  10.472
 8409W        W69775  36.037  19.693   2.742
 8410W        W69776  15.247  43.433  13.546
 8411W        W69777  36.382  41.834  13.421
 8412W        W69778  44.482  32.538   4.715
 8413W        W69779  23.110  44.926   4.218
 8414W        W69780  21.075  14.152  13.380
 8415W        W69781   1.731   0.367   1.817
 8416W        W69782  32.575  38.567   2.272
 8417W        W69783  15.736  17.170  11.593
 8418W        W69784  38.397  10.774  13.378
 8419W        W69785  16.578  44.369  13.979
 8420W        W69786  27.944  44.800   1.904
 8421W        W69787   9.873  28.530   4.276
 8422W        W69788  18.289   7.678   3.793
 8423W        W69789  24.515  26.492  14.877
 8424W        W69790   6.303   5.846   9.614
 8425W        W69791   0.820  33.996  11.080
 8426W        W69792  18.596   4.939  14.784
 8427W        W69793  29.943  15.154  13.816
 8428W        W69794  43.292  34.569   2.200
 8429W        W69795   7.749   9.769   1.272
 8430W        W69796   7.789   6.413  14.835
 8431W        W69797   5.252  31.064   0.382
 8432W        W69798   3.715  34.567  10.963
 8433W        W69799   6.716  17.124   0.895
 8434W        W69800  28.547  42.960  13.849
 8435W        W69801  11.230   0.399  10.467
 8436W        W69802   0.884  16.784  11.592
 8437W        W69803  20.604   1.242  11.539
 8438W        W69804  20.738   5.368  14.479
 8439W        W69805  29.620  27.499  13.020
 8440W        W69806  37.398  19.570   0.480
 8441W        W69807  26.633  11.720   5.120
 8442W        W69808   6.769  20.059   4.293
 8443W        W69809  12.205  36.897   0.841
 8444W        W69810  37.365  43.836  14.798
 8445W        W69811  22.591  20.271   4.761
 8446W        W69812  34.982  11.708  12.494
 8447W        W69813  41.871  32.903   1.243
 8448W        W69814  35.361  10.741   1.428
 8449W        W69815  23.671  29.616   9.513
 8450W        W69816  42.027  12.313   3.837
 8451W        W69817  13.169  26.565  10.403
 8452W        W69818  24.211  28.482   0.855
 8453W        W69819   3.813  34.908   0.883
 8454W        W69820  26.989  10.671   1.821
 8455W        W69821   8.660  29.067  12.883
 8456W        W69822  41.387  12.167  10.554
 8457W        W69823   1.854   6.195  14.818
 8458W        W69824  10.789   2.243  14.352
 8459W        W69825  27.940  19.131   4.326
 8460W        W69826  27.050  21.586  14.407
 8461W        W69827  25.624  43.924  13.354
 8462W        W69828  41.462  13.647  13.059
 8463W        W69829  18.738  22.093   3.850
 8464W        W69830  25.503  31.935  12.824
 8465W        W69831  12.752  10.853   0.390
 8466W        W69832  41.012   4.741  11.104
 8467W        W69833   8.828  25.539  14.486
 8468W        W69834   4.298   8.336  10.950
 8469W        W69835  42.957  19.139  12.415
 8470W        W69836   6.325  27.683   9.993
 8471W        W69837  21.590  18.187   3.254
 8472W        W69838  14.782  25.092   0.431
 8473W        W69839  22.547  13.250  10.899
 8474W        W69840  33.959  22.596  11.372
 8475W        W69841  22.172   2.763  13.021
 8476W        W69842  43.833  28.936  14.834
 8477W        W69843  43.897  38.825  11.386
 8478W        W69844   3.297   0.356   1.434
 8479W        W69845  39.396  30.460  11.512
 8480W        W69846  28.509  14.237   1.247
 8481W        W69847  19.620  27.559   1.291
 8482W        W69848  20.063  25.569   2.370
 8483W        W69849   3.835  10.292   1.752
 8484W        W69850  26.614   6.897  12.479
 8485W        W69851   9.191  40.044  11.535
 8486W        W69852  33.982  28.590   1.325
 8487W        W69853   4.726  42.978  12.492
 8488W        W69854  10.832  19.159   0.408
 8489W        W69855  18.163  23.596   1.747
 8490W        W69856  30.080   5.196   3.825
 8491W        W69857  24.611  17.157  12.543
 8492W        W69858   2.815  16.588  10.995
 8493W        W69859  18.093  31.008   4.243
 8494W        W69860  40.843  26.549  13.345
 8495W        W69861   6.365  14.207   5.238
 8496W        W69862  18.099   0.372  11.477
 8497W        W69863   3.786  24.050  13.430
 8498W        W69864   1.859   0.435  11.057
 8499W        W69865  14.137  31.909   2.836
 8500W        W69866  38.905  39.439  11.415
 8501W        W69867  35.052  30.579   4.241
 8502W        W69868  35.916   6.863   3.188
 8503W        W69869  37.011  43.293  14.869
 8504W        W69870  24.580  20.636  13.857
 8505W        W69871  33.451  24.698  13.043
 8506W        W69872  13.210  11.735   2.740
 8507W        W69873  21.750  18.598  13.415
 8508W        W69874  22.581  12.817   4.205
 8509W        W69875  35.904  33.979   2.685
 8510W        W69876   4.415  10.164  12.059
 8511W        W69877  38.910  29.938  14.023
 8512W        W69878  29.471  39.831   3.224
 8513W        W69879  16.641   8.663   0.888
 8514W        W69880  32.912  20.228   9.619
 8515W        W69881  41.967   8.828   3.672
 8516W        W69882  11.153  38.550   3.340
 8517W        W69883  31.579  19.149  14.905
 8518W        W69884  16.104  15.269  10.509
 8519W        W69885   0.838   0.430   9.939
 8520W        W69886   5.427  11.181   4.255
 8521W        W69887   2.333   5.849  11.376
 8522W        W69888  19.276  10.722   4.735
 8523W        W69889   1.475  39.435  13.020
 8524W        W69890  16.314  22.128  11.406
 8525W        W69891   4.214  34.884   4.199
 8526W        W69892  30.940  33.076  14.387
 8527W        W69893   1.290  30.037   0.818
 8528W        W69894  29.440  10.226   3.346
 8529W        W69895   0.420  40.442  14.871
 8530W        W69896  27.507  38.563   4.616
 8531W        W69897  35.367  44.412  14.867
 8532W        W69898   8.400  17.179   4.122
 8533W        W69899  41.815  19.671   4.311
 8534W        W69900  28.995  38.522   4.203
 8535W        W69901  35.017  30.562   3.783
 8536W        W69902  40.867  26.657  12.482
 8537W        W69903  40.021  39.876  11.544
 8538W        W69904  15.280  23.168   3.325
 8539W        W69905  13.608   9.372   2.867
 8540W        W69906  38.915  42.997   1.873
 8541W        W69907  34.034  32.116   1.744
 8542W        W69908   0.398  20.036  12.845
 8543W        W69909  28.621  13.329   3.724
 8544W        W69910  11.316  25.572   1.213
 8545W        W69911  44.804   3.865   1.831
 8546W        W69912  13.331   1.458   4.598
 8547W        W69913  38.464  21.088   0.438
 8548W        W69914  24.590  38.457  11.510
 8549W        W69915   8.670  32.123   2.383
 8550W        W69916  27.958  11.143   2.212
 8551W        W69917  28.091  26.185  10.992
 8552W        W69918  44.476  31.556  11.884
 8553W        W69919  29.959  22.727   3.344
 8554W        W69920  31.121  22.673   1.261
 8555W        W69921  25.563  40.985   1.357
 8556W        W69922   1.310  41.504   2.759
 8557W        W69923  34.947   3.928  12.419
 8558W        W69924  41.407  13.770  10.944
 8559W        W69925  18.070  33.111   2.187
 8560W        W69926  27.119  17.111  10.506
 8561W        W69927   8.711  40.429   3.369
 8562W        W69928   8.161  32.436  11.506
 8563W        W69929  26.673  21.090  12.953
 8564W        W69930  41.395  33.546  10.951
 8565W        W69931  38.917  31.114   0.837
 8566W        W69932  41.901  23.731  12.866
 8567W        W69933  23.507  44.792   1.273
 8568W        W69934  19.659  29.519   3.717
 8569W        W69935  17.721  41.969  13.855
 8570W        W69936  32.111  38.984  12.342
 8571W        W69937  14.290  29.955  10.602
 8572W        W69938  33.997  44.269  14.417
 8573W        W69939   9.813  29.550   2.886
 8574W        W69940  14.816  39.815  12.507
 8575W        W69941  41.534   7.318  13.001
 8576W        W69942  28.163  21.157   4.227
 8577W        W69943   5.251   7.331   3.648
 8578W        W69944  19.219  38.868   3.844
 8579W        W69945  44.983  39.331   0.938
 8580W        W69946  38.868   3.407   1.749
 8581W        W69947  30.591  37.424  12.458
 8582W        W69948  30.553  35.991   4.123
 8583W        W69949  34.527  33.487  12.058
 8584W        W69950  32.410   8.180   2.186
 8585W        W69951  34.952  24.193   2.837
 8586W        W69952  28.676   3.290   2.797
 8587W        W69953   7.279  18.588   3.199
 8588W        W69954  30.419  30.069   1.743
 8589W        W69955   1.968  16.158   3.638
 8590W        W69956  23.498  35.986   2.244
 8591W        W69957  15.320  36.509   5.127
 8592W        W69958  34.028  39.500   3.635
 8593W        W69959  42.371   0.939  10.590
 8594W        W69960  39.995  14.265   0.810
 8595W        W69961  29.059  43.433   2.777
 8596W        W69962  10.146  40.038  14.496
 8597W        W69963  17.202  35.505   2.850
 8598W        W69964  19.147   7.892   0.249
 8599W        W69965  40.831  33.920   3.854
 8600W        W69966   9.644  27.577   2.896
 8601W        W69967  23.645  14.113  13.047
 8602W        W69968  16.214  34.455   0.353
 8603W        W69969   9.787  31.442  14.811
 8604W        W69970  37.582  17.600  10.989
 8605W        W69971  43.973  43.900   0.795
 8606W        W69972  37.506  15.694  13.309
 8607W        W69973  24.016  23.589   1.879
 8608W        W69974  26.575  24.705  14.953
 8609W        W69975  26.641  28.587  10.573
 8610W        W69976  12.855  21.710  13.845
 8611W        W69977  31.645  44.765   4.651
 8612W        W69978  38.071  21.545  13.445
 8613W        W69979  33.624  39.526   3.818
 8614W        W69980  32.111  18.568  13.982
 8615W        W69981  19.164   9.335   2.679
 8616W        W69982   1.808  24.675   0.911
 8617W        W69983  44.951  19.095  11.931
 8618W        W69984  18.225  41.894   3.379
 8619W        W69985  15.157  12.612   1.323
 8620W        W69986  24.720  42.802   1.236
 8621W        W69987  44.447  23.529   3.676
 8622W        W69988   4.250  33.404   0.421
 8623W        W69989   3.813  36.944  12.389
 8624W        W69990  23.061   5.331   3.161
 8625W        W69991   5.910  31.017  11.872
 8626W        W69992  25.985  39.491   0.806
 8627W        W69993   9.727  21.548   3.342
 8628W        W69994  12.340  43.402   1.760
 8629W        W69995   3.325  37.888   3.349
 8630W        W69996  22.573  15.604  12.452
 8631W        W69997  39.495  40.475  12.935
 8632W        W69998   8.256  28.182  11.506
 8633W        W69999  21.621  31.492  10.448
 8634W        W70000  14.802   3.268  13.870
 8635W        W70001  21.551  15.317  12.843
 8636W        W70002  15.162  34.909   0.463
 8637W        W70003   0.387  27.063  13.501
 8638W        W70004  24.116  35.365   4.700
 8639W        W70005  14.614  17.758  11.486
 8640W        W70006  37.434  43.383  14.515
 8641W        W70007   9.811  15.819  13.936
 8642W        W70008   2.725  42.411   4.612
 8643W        W70009  35.357  15.749  11.104
 8644W        W70010   2.352   8.332   1.876
 8645W        W70011  16.708  35.913   0.245
 8646W        W70012  39.016  43.838  14.349
 8647W        W70013  10.211  21.049   2.193
 8648W        W70014   8.692  11.807   3.796
 8649W        W70015  29.576   2.875   1.921
 8650W        W70016   1.835   7.206   3.310
 8651W        W70017   2.781  34.601  11.870
 8652W        W70018   7.198  30.502   3.169
 8653W        W70019  41.856  23.653  13.521
 8654W        W70020   4.383   9.275  12.478
 8655W        W70021  37.575  32.529  11.428
 8656W        W70022  25.012  37.406  10.607
 8657W        W70023  12.698  40.340  11.409
 8658W        W70024   9.395  40.449   9.921
 8659W        W70025  17.126  22.589  12.501
 8660W        W70026  16.171  38.853  10.530
 8661W        W70027  20.543  32.122   1.769
 8662W        W70028  42.865  24.211   3.351
 8663W        W70029  32.493  44.334  11.557
 8664W        W70030   9.225  23.637  13.405
 8665W        W70031  24.642   7.332  11.089
 8666W        W70032  42.887  24.514  11.538
 8667W        W70033  12.800  26.006  13.373
 8668W        W70034  29.990  12.314  14.960
 8669W        W70035  38.546  17.234  13.796
 8670W        W70036   3.814  31.936   3.679
 8671W        W70037  29.541  30.630   1.931
 8672W        W70038  34.377   9.210   1.711
 8673W        W70039  31.641   2.277   3.208
 8674W        W70040  18.671  28.616   0.861
 8675W        W70041   3.934  27.081  11.857
 8676W        W70042  20.219   9.740   2.283
 8677W        W70043  19.063  41.822  13.448
 8678W        W70044  17.727  30.985  13.524
 8679W        W70045   7.812  22.657   5.276
 8680W        W70046  37.883  36.951  11.438
 8681W        W70047  38.999  10.379   0.870
 8682W        W70048  29.651  40.547  14.487
 8683W        W70049  30.104  42.992   1.825
 8684W        W70050  21.756  28.120  14.288
 8685W        W70051   4.216  12.194  12.847
 8686W        W70052   5.807  11.149   1.749
 8687W        W70053  29.072   3.874   0.731
 8688W        W70054  27.091  27.140  12.048
 8689W        W70055  24.067  13.823   4.298
 8690W        W70056  31.913  33.452   1.341
 8691W        W70057  23.221   1.466   5.777
 8692W        W70058  16.177   1.376  13.800
 8693W        W70059   0.307  42.408   0.959
 8694W        W70060  32.468  35.414  11.488
 8695W        W70061  14.813  23.711  10.137
 8696W        W70062  24.624  11.798   0.350
 8697W        W70063  44.339  28.017  12.984
 8698W        W70064   5.204  36.563  11.102
 8699W        W70065   9.774  40.019   4.187
 8700W        W70066   1.917  12.707  13.872
 8701W        W70067   7.401  23.018  14.954
 8702W        W70068  12.654   5.311   3.690
 8703W        W70069   7.744  37.996  13.536
 8704W        W70070   5.389  34.421   2.729
 8705W        W70071  15.737   5.748  10.444
 8706W        W70072   0.401  21.737  14.276
 8707W        W70073  39.853  29.151  12.348
 8708W        W70074  42.510  37.486   4.243
 8709W        W70075  31.465  39.916   4.646
 8710W        W70076  42.821  31.149  14.767
 8711W        W70077  40.997  26.114  14.909
 8712W        W70078  38.848   6.353   4.681
 8713W        W70079   4.342  20.611   3.722
 8714W        W70080  23.158  38.460   1.780
 8715W        W70081  43.435   5.927   2.215
 8716W        W70082  42.457   2.933  11.549
 8717W        W70083   4.938  25.024   5.211
 8718W        W70084   8.697   1.801   4.258
 8719W        W70085  25.632  32.598  14.503
 8720W        W70086   2.421  22.118  13.543
 8721W        W70087  12.675  22.706   1.897
 8722W        W70088  16.142   2.948   4.227
 8723W        W70089   3.426  34.463   4.601
 8724W        W70090  16.673  21.677   3.660
 8725W        W70091   1.881  29.444   5.262
 8726W        W70092  44.448   0.802   4.263
 8727W        W70093  26.109  37.031   0.789
 8728W        W70094  27.511  11.838   3.800
 8729W        W70095  16.613  25.681   0.423
 8730W        W70096  22.503   7.257  11.423
 8731W        W70097  27.492   4.279  13.422
 8732W        W70098  37.525  40.349   0.966
 8733W        W70099  11.168  44.814   2.707
 8734W        W70100  24.057  36.419   1.911
 8735W        W70101  39.442   8.324   2.261
 8736W        W70102  22.232  20.130   0.308
 8737W        W70103   4.213  26.495  14.792
 8738W        W70104  18.784  37.992   4.281
 8739W        W70105   3.438  27.114   0.763
 8740W        W70106  34.038   6.327  14.761
 8741W        W70107  12.633   4.945   1.250
 8742W        W70108  40.819  23.063   3.239
 8743W        W70109  22.586  29.984   3.791
 8744W        W70110  43.465  21.131   1.929
 8745W        W70111  27.062  40.387  14.949
 8746W        W70112  27.050  16.687  14.779
 8747W        W70113  18.664  24.128  11.885
 8748W        W70114  21.753  26.200  14.877
 8749W        W70115  27.103  40.408   2.843
 8750W        W70116  36.014   8.352   4.616
 8751W        W70117  19.206  17.262   3.315
 8752W        W70118   6.886  43.996  12.472
 8753W        W70119  43.849  44.434  14.926
 8754W        W70120  10.802  11.172   3.660
 8755W        W70121  36.396   5.380  12.514
 8756W        W70122  28.035  31.116   0.914
 8757W        W70123  30.424   8.754  11.451
 8758W        W70124  14.760  20.124  10.965
 8759W        W70125   8.277  21.511  12.396
 8760W        W70126  41.498  17.566   1.820
 8761W        W70127  26.475   9.365  12.375
 8762W        W70128  16.602   3.900   2.393
 8763W        W70129  31.940  19.729  13.440
 8764W        W70130  29.561   3.297  13.976
 8765W        W70131  15.326  42.331  11.591
 8766W        W70132  34.010  32.443   2.345
 8767W        W70133  35.065  41.466  13.449
 8768W        W70134  31.457  20.758  13.862
 8769W        W70135   7.815   1.424   2.810
 8770W        W70136  12.783  33.505  12.437
 8771W        W70137  19.150  21.557   1.360
 8772W        W70138  39.041   4.346  12.895
 8773W        W70139  11.349   4.940  13.987
 8774W        W70140   3.395  37.877  10.417
 8775W        W70141   4.818  18.660  10.427
 8776W        W70142   2.402  23.023  11.509
 8777W        W70143  27.011  22.146   1.722
 8778W        W70144  15.757  13.114   2.321
 8779W        W70145   9.358   8.304  12.861
 8780W        W70146  32.914  29.606   4.202
 8781W        W70147  19.588  28.119   0.944
 8782W        W70148  44.968   6.875  14.974
 8783W        W70149  22.646  36.473  14.418
 8784W        W70150  17.224  20.183  11.104
 8785W        W70151  38.010   8.202  12.442
 8786W        W70152   8.845  21.073  12.366
 8787W        W70153  33.073   7.266   4.140
 8788W        W70154  39.910  43.893   2.250
 8789W        W70155  33.116  14.272  11.441
 8790W        W70156  31.422   8.808   4.324
 8791W        W70157  38.547  11.813  14.799
 8792W        W70158   9.377   8.197  13.406
 8793W        W70159  42.323  33.433   1.856
 8794W        W70160  14.803   2.353  12.953
 8795W        W70161  37.397   5.849   4.804
 8796W        W70162   1.778  44.294   1.355
 8797W        W70163  19.771   7.306  14.949
 8798W        W70164  34.950   6.204  14.938
 8799W        W70165  42.496  19.135  10.986
 8800W        W70166  44.324  38.367  14.766
 8801W        W70167  14.693  27.588   3.778
 8802W        W70168  34.030  35.499  11.569
 8803W        W70169  41.438   0.441  14.896
 8804W        W70170  19.143  39.480   1.736
 8805W        W70171  22.082   5.280  12.399
 8806W        W70172   7.772   5.931   4.829
 8807W        W70173   2.436   5.817  10.516
 8808W        W70174  42.495  13.205  12.490
 8809W        W70175  35.947  32.464   1.814
 8810W        W70176  21.698  36.481   2.331
 8811W        W70177  22.591  43.784  13.896
 8812W        W70178  14.263  15.300  13.532
 8813W        W70179   6.418  13.213  10.160
 8814W        W70180   3.929  17.643   2.856
 8815W        W70181  26.105  24.519  13.047
 8816W        W70182  14.676  19.184   1.847
 8817W        W70183   2.281   1.322   1.361
 8818W        W70184  31.957  35.910  12.966
 8819W        W70185   8.828  34.965   0.956
 8820W        W70186   1.799  22.217   2.184
 8821W        W70187  32.962  31.134  13.821
 8822W        W70188   6.315  10.375   4.825
 8823W        W70189  29.499  38.004  12.433
 8824W        W70190  14.123  25.140  14.434
 8825W        W70191   4.440  33.033   4.167
 8826W        W70192  30.048  41.976  13.951
 8827W        W70193  23.228  29.632  13.936
 8828W        W70194  22.675   6.204  12.919
 8829W        W70195  25.984  22.660  12.386
 8830W        W70196   4.935   4.868   0.418
 8831W        W70197  11.354  30.048  12.002
 8832W        W70198   4.294  40.307  13.877
 8833W        W70199   8.657   2.964  12.048
 8834W        W70200  16.762  33.559  14.937
 8835W        W70201  28.572  20.672  13.803
 8836W        W70202  32.944  18.127  10.090
 8837W        W70203  18.060  11.738   0.410
 8838W        W70204  44.760  15.687  12.547
 8839W        W70205  29.017  34.865  11.865
 8840W        W70206  44.317  37.085   2.243
 8841W        W70207  13.680  21.219   4.634
 8842W        W70208  19.655   9.654  11.510
 8843W        W70209  33.549  38.327  11.575
 8844W        W70210  36.385  34.972   3.147
 8845W        W70211  16.075  24.050  12.832
 8846W        W70212  43.936  12.824  12.853
 8847W        W70213  18.235  13.229   4.784
 8848W        W70214  35.397  24.181   2.329
 8849W        W70215   6.820  30.027   0.867
 8850W        W70216   3.774  36.356   3.165
 8851W        W70217  10.771  25.702   4.755
 8852W        W70218   3.373  14.614  10.966
 8853W        W70219  10.695  36.893  12.000
 8854W        W70220  23.225  43.879   3.810
 8855W        W70221  16.571   6.303   2.254
 8856W        W70222  37.526  20.596  13.840
 8857W        W70223  21.029  41.976   2.878
 8858W        W70224  41.883  25.138  12.887
 8859W        W70225   6.740   2.407  12.442
 8860W        W70226  26.578  40.513   0.962
 8861W        W70227  35.059   9.879  11.515
 8862W        W70228   9.344  41.852   3.360
 8863W        W70229  15.155   0.903   2.330
 8864W        W70230  30.606  33.079  14.282
 8865W        W70231  25.708  44.967  13.353
 8866W        W70232  24.193  18.550   0.904
 8867W        W70233  25.624   4.348  11.419
 8868W        W70234   0.302  21.746  11.392
 8869W        W70235   5.865  42.446   4.353
 8870W        W70236  37.458   9.736   3.780
 8871W        W70237  41.509  33.935   3.641
 8872W        W70238  15.635   8.896  12.426
 8873W        W70239  43.318  26.973  10.424
 8874W        W70240  26.558  12.134  14.302
 8875W        W70241   4.940  35.999   4.794
 8876W        W70242   9.167  42.822  13.910
 8877W        W70243  23.605   8.256   2.728
 8878W        W70244  41.975  16.164   1.906
 8879W        W70245  43.805  33.412   4.205
 8880W        W70246  11.257  13.727   0.810
 8881W        W70247  26.546  29.163   0.951
 8882W        W70248  31.568  20.044   2.372
 8883W        W70249  17.299  16.729  11.471
 8884W        W70250  41.984   5.319   4.620
 8885W        W70251  44.429   0.949   0.308
 8886W        W70252  39.034   6.309  14.995
 8887W        W70253  15.087  26.007  12.489
 8888W        W70254  31.072  29.499  13.518
 8889W        W70255  42.526  11.178  10.462
 8890W        W70256   5.410  34.115   2.411
 8891W        W70257  42.427  41.998   1.737
 8892W        W70258  20.540   4.713   1.694
 8893W        W70259  34.550   7.366  14.858
 8894W        W70260   6.319  22.116  13.331
 8895W        W70261  38.444  13.744   2.674
 8896W        W70262  15.276  23.655   2.843
 8897W        W70263  24.722   5.286  11.862
 8898W        W70264  19.609  27.081  12.345
 8899W        W70265  10.722  19.653  10.578
 8900W        W70266  17.082   6.337  10.629
 8901W        W70267  32.913  41.881  10.042
 8902W        W70268  20.083   4.722   2.848
 8903W        W70269  26.572  42.900  14.807
 8904W        W70270  16.642   7.881  11.385
 8905W        W70271   9.250  33.097  14.354
 8906W        W70272  13.833   2.250   3.737
 8907W        W70273  26.008   2.762  11.532
 8908W        W70274  28.674  24.134   0.354
 8909W        W70275   8.808  28.174   2.722
 8910W        W70276  15.767  34.561   4.223
 8911W        W70277  44.867  35.856  13.922
 8912W        W70278  35.072  13.158   2.760
 8913W        W70279  44.443  34.383  13.310
 8914W        W70280  22.621  23.186   0.967
 8915W        W70281   3.376  17.245   3.667
 8916W        W70282   5.224  27.671  12.341
 8917W        W70283  20.118  23.607   2.245
 8918W        W70284  39.864   2.807  11.984
 8919W        W70285  40.479  20.759  11.517
 8920W        W70286  42.945   6.778  10.964
 8921W        W70287  33.074  41.840  11.018
 8922W        W70288  35.002   7.290  11.944
 8923W        W70289  38.381  14.772  14.383
 8924W        W70290   8.252  36.095   4.802
 8925W        W70291   3.952  17.798  13.882
 8926W        W70292  21.735   1.292  13.473
 8927W        W70293  11.232  29.556   0.848
 8928W        W70294  23.178   6.289  14.885
 8929W        W70295  20.217  36.488   3.330
 8930W        W70296  14.159  31.129  14.503
 8931W        W70297  28.988   8.295   3.752
 8932W        W70298   1.427  28.113   3.839
 8933W        W70299  22.076  12.613  14.788
 8934W        W70300  19.231  10.169   2.283
 8935W        W70301  25.121  16.178   4.627
 8936W        W70302  38.960  31.581  11.413
 8937W        W70303   8.336  18.060  12.574
 8938W        W70304  32.517  33.473   4.113
 8939W        W70305   8.348   0.978   0.370
 8940W        W70306   5.412  30.034  14.408
 8941W        W70307  27.957  21.241  10.944
 8942W        W70308   1.951  12.139  10.616
 8943W        W70309  11.195  27.626   2.272
 8944W        W70310  43.416  16.606   3.312
 8945W        W70311  35.389  22.122   2.685
 8946W        W70312  39.396  28.634   1.251
 8947W        W70313  30.499  44.965   1.394
 8948W        W70314  43.785  14.605   2.288
 8949W        W70315  40.969  33.583   1.269
 8950W        W70316   3.819   4.812   1.328
 8951W        W70317  25.114  14.654   0.765
 8952W        W70318  10.191  32.129  13.394
 8953W        W70319  11.652  37.064   4.333
 8954W        W70320  25.477  23.054   1.268
 8955W        W70321  43.771  31.004   1.368
 8956W        W70322  21.140  10.275   1.280
 8957W        W70323  28.026  15.302  14.446
 8958W        W70324  28.980  33.391   3.149
 8959W        W70325   5.286   1.838  12.025
 8960W        W70326  28.479  42.810   0.946
 8961W        W70327  33.488  29.999  13.468
 8962W        W70328  31.485  17.169   2.373
 8963W        W70329  15.765  15.712   2.368
 8964W        W70330  27.167  16.128  13.476
 8965W        W70331  34.956  27.483   0.367
 8966W        W70332  34.568  20.743   1.382
 8967W        W70333  42.464  12.154  10.544
 8968W        W70334  29.467  35.468   3.192
 8969W        W70335  41.431   1.314  14.423
 8970W        W70336  43.470   5.201  14.010
 8971W        W70337   3.780  37.471   3.255
 8972W        W70338  23.729  12.121  11.549
 8973W        W70339  14.677  29.161  12.006
 8974W        W70340  44.324  23.504  12.482
 8975W        W70341  41.014   8.386  14.342
 8976W        W70342  40.438  32.926  12.521
 8977W        W70343   7.290  28.618   0.933
 8978W        W70344  32.435   4.289   3.643
 8979W        W70345  14.308  32.422  12.940
 8980W        W70346  40.913  16.162   1.865
 8981W        W70347  44.442  11.197   4.619
 8982W        W70348  10.224  43.486  13.436
 8983W        W70349   5.422   9.810   1.271
 8984W        W70350   7.910  25.492  10.553
 8985W        W70351  34.961  15.679   0.320
 8986W        W70352   4.338  26.590  12.528
 8987W        W70353  13.703  26.952  11.391
 8988W        W70354  39.423   0.820  12.428
 8989W        W70355  14.685  28.014  14.984
 8990W        W70356  37.912  23.092  13.457
 8991W        W70357  34.961  40.479   3.759
 8992W        W70358  22.745  25.091  14.822
 8993W        W70359  43.767  30.113  13.405
 8994W        W70360  23.163  22.632  14.405
 8995W        W70361  29.127  29.604  14.456
 8996W        W70362  14.200   8.366  13.308
 8997W        W70363  42.939   6.400  12.408
 8998W        W70364  40.043   3.363  11.038
 8999W        W70365  19.550  28.169   2.826
 9000W        W70366  39.552  41.924   3.709
 9001W        W70367  44.856  42.992   0.951
 9002W        W70368  15.177  19.153  13.880
 9003W        W70369  34.403  10.850  12.869
 9004W        W70370   9.365  43.445  11.013
 9005W        W70371  15.232  25.540   2.869
 9006W        W70372  19.079  14.143   2.786
 9007W        W70373  15.173  19.268  10.595
 9008W        W70374  18.058   3.235   2.703
 9009W        W70375  22.505  34.451   1.919
 9010W        W70376  28.544   1.757   1.431
 9011W        W70377  16.292   5.837   3.206
 9012W        W70378   8.656  42.789   0.948
 9013W        W70379  21.049  22.053  14.783
 9014W        W70380  14.336  12.238   4.802
 9015W        W70381  34.474   9.209   1.367
 9016W        W70382  32.622  29.511   2.229
 9017W        W70383  34.613  44.810   2.258
 9018W        W70384   7.414   0.308  11.951
 9019W        W70385  27.086  11.770  11.115
 9020W        W70386   7.748  38.968  10.468
 9021W        W70387  36.870   8.337   0.373
 9022W        W70388  22.510   5.404   2.197
 9023W        W70389   0.485   3.900  14.365
 9024W        W70390   6.691  27.485  12.092
 9025W        W70391  32.598  36.470  11.867
 9026W        W70392   3.798  33.488   1.372
 9027W        W70393  13.816  26.513   3.728
 9028W        W70394  27.595  34.956   4.198
 9029W        W70395   5.288  36.098  10.571
 9030W        W70396  27.970   2.963  12.504
 9031W        W70397  30.453  25.191   4.343
 9032W        W70398  21.067  25.702  14.384
 9033W        W70399   8.876  38.978  13.805
 9034W        W70400   9.319   5.340   2.699
 9035W        W70401  20.575  29.965  13.518
 9036W        W70402  26.615  11.262   2.692
 9037W        W70403  32.963  21.520  12.400
 9038W        W70404   6.401  26.535   2.396
 9039W        W70405  39.511  39.408   0.374
 9040W        W70406  30.000  37.380   2.178
 9041W        W70407  44.870  23.229   0.472
 9042W        W70408  16.160  34.434   2.806
 9043W        W70409  15.203  39.362  14.827
 9044W        W70410  21.044  23.729   0.242
 9045W        W70411   0.368  41.903  10.916
 9046W        W70412   4.939  23.578  13.800
 9047W        W70413  26.663  12.728  14.295
 9048W        W70414  29.461  22.729   0.365
 9049W        W70415  44.446  35.537   4.301
 9050W        W70416  32.089  43.864  12.835
 9051W        W70417  43.343   3.435  10.542
 9052W        W70418  16.155  41.799   1.310
 9053W        W70419   5.914   3.729  14.951
 9054W        W70420   4.255   8.761   0.864
 9055W        W70421   3.461   8.198  14.032
 9056W        W70422  31.464  39.917   1.899
 9057W        W70423  33.558  14.171   2.333
 9058W        W70424  26.490  39.834  14.872
 9059W        W70425  19.762  11.633   5.107
 9060W        W70426  22.628  41.345  14.910
 9061W        W70427   0.309  19.236  14.427
 9062W        W70428   3.362  37.039   2.790
 9063W        W70429   9.818  43.273  14.471
 9064W        W70430  26.576  10.371   3.745
 9065W        W70431  41.507  13.669  14.843
 9066W        W70432  28.503  23.671   2.830
 9067W        W70433  33.042  19.223   0.361
 9068W        W70434  27.999  34.071   1.294
 9069W        W70435  29.551  21.252  14.300
 9070W        W70436  40.914  34.090   4.779
 9071W        W70437  22.245   5.368   4.641
 9072W        W70438  17.778  35.976  11.987
 9073W        W70439  16.214   6.770  13.376
 9074W        W70440   2.961  41.941  11.018
 9075W        W70441  34.113  21.735   9.574
 9076W        W70442   6.888  35.879   3.780
 9077W        W70443  34.990  15.241   2.352
 9078W        W70444  39.883  38.349  11.987
 9079W        W70445   5.351   0.860   0.838
 9080W        W70446   5.790  37.380   3.669
 9081W        W70447  17.639  14.192  10.036
 9082W        W70448   9.702  35.916  12.345
 9083W        W70449  28.134  20.667   4.172
 9084W        W70450   0.748   8.702  11.041
 9085W        W70451   3.853  39.019  13.411
 9086W        W70452  44.987  36.940   4.350
 9087W        W70453  27.551  21.224   2.325
 9088W        W70454  29.567  14.818  11.575
 9089W        W70455  29.469   6.394  13.857
 9090W        W70456  12.176  19.254  11.896
 9091W        W70457  37.998  10.806   1.348
 9092W        W70458   8.188   7.214   4.795
 9093W        W70459   5.415  41.313  10.530
 9094W        W70460  16.598   7.279  14.390
 9095W        W70461  10.311  32.142   9.979
 9096W        W70462  42.872  37.893   2.329
 9097W        W70463  39.542  41.971  14.459
 9098W        W70464  16.223  37.840  13.018
 9099W        W70465  23.623   9.318  10.530
 9100W        W70466  26.162  32.111   3.151
 9101W        W70467  40.860   4.876  14.291
 9102W        W70468  18.709  19.579   9.996
 9103W        W70469  16.667  23.583   3.375
 9104W        W70470  42.414  25.556  11.079
 9105W        W70471  19.687  27.079   0.772
 9106W        W70472   8.766  38.415   2.876
 9107W        W70473   6.382  14.640  12.439
 9108W        W70474  28.649  22.205  14.995
 9109W        W70475  24.983  10.270  14.795
 9110W        W70476  40.866   9.681   1.379
 9111W        W70477  43.313  21.236  10.473
 9112W        W70478   2.316  29.978  13.982
 9113W        W70479  31.131  18.253  12.373
 9114W        W70480  20.611   1.281  10.441
 9115W        W70481  12.687  41.342  12.400
 9116W        W70482  39.826   9.289  14.356
 9117W        W70483   5.803   0.309   0.480
 9118W        W70484  12.618   4.761   0.887
 9119W        W70485  42.291  25.092  12.925
 9120W        W70486  25.478  28.564   0.895
 9121W        W70487  25.981  26.659   2.745
 9122W        W70488   5.694  27.034  14.279
 9123W        W70489  35.996  11.848  11.448
 9124W        W70490  14.802  23.138   3.734
 9125W        W70491  27.003  33.580  11.449
 9126W        W70492  26.499   2.337  11.410
 9127W        W70493  40.031  42.447   1.293
 9128W        W70494  42.516  37.509  14.877
 9129W        W70495  40.347  42.302  13.415
 9130W        W70496  30.597  13.676  13.361
 9131W        W70497  24.043   3.255   0.308
 9132W        W70498  40.025  43.919  10.575
 9133W        W70499  28.543   7.672   4.783
 9134W        W70500  10.239  16.798   1.880
 9135W        W70501  26.621  14.708  13.980
 9136W        W70502   5.853   3.877   1.851
 9137W        W70503  41.528  13.296   2.303
 9138W        W70504  26.498  16.314  12.440
 9139W        W70505   2.392  10.653  13.037
 9140W        W70506   5.261  14.691   2.668
 9141W        W70507  22.251  27.991   2.331
 9142W        W70508   0.753  21.050  12.092
 9143W        W70509  13.236  13.283   0.845
 9144W        W70510   2.827  37.538  14.388
 9145W        W70511  18.121  34.554  11.077
 9146W        W70512  26.133  14.683   4.833
 9147W        W70513   6.727  13.711  11.380
 9148W        W70514   8.208   0.881  12.365
 9149W        W70515  15.119  27.189   0.308
 9150W        W70516   0.421  26.007  12.400
 9151W        W70517  37.438  24.695   1.318
 9152W        W70518   1.424   5.796  14.976
 9153W        W70519   3.219  40.880  10.458
 9154W        W70520  27.963  42.947   4.764
 9155W        W70521  41.838  26.992  11.915
 9156W        W70522   6.882  36.855   0.443
 9157W        W70523  19.662  30.465   9.979
 9158W        W70524  23.033  32.113   0.378
 9159W        W70525  27.684   7.340  11.980
 9160W        W70526   1.971   3.888   0.894
 9161W        W70527  19.188  17.234  10.894
 9162W        W70528  37.561  35.579   1.807
 9163W        W70529  17.726  27.107  10.893
 9164W        W70530  23.073   2.754  12.971
 9165W        W70531  29.490  32.471  11.978
 9166W        W70532  12.731  16.639  12.364
 9167W        W70533   5.350   5.319   5.173
 9168W        W70534  32.485  23.570   2.805
 9169W        W70535  24.982  22.690  11.521
 9170W        W70536  13.188   5.288   1.440
 9171W        W70537  42.298   4.912   2.864
 9172W        W70538  15.304  27.082   0.756
 9173W        W70539  39.336   7.735   0.469
 9174W        W70540  28.145  29.974   0.400
 9175W        W70541   2.458  13.114  14.994
 9176W        W70542   2.886   0.376   3.224
 9177W        W70543  14.682  40.850  13.459
 9178W        W70544  35.875  30.926   0.358
 9179W        W70545  41.012  32.985  10.492
 9180W        W70546  11.324   2.410  13.337
 9181W        W70547  25.621  44.363   2.397
 9182W        W70548  14.666   8.286   1.399
 9183W        W70549   2.228  37.871   2.696
 9184W        W70550  25.020  17.267   0.312
 9185W        W70551  21.752   3.276   0.912
 9186W        W70552  21.244  17.178   5.240
 9187W        W70553  25.148  29.969   3.250
 9188W        W70554  31.502  24.570  12.846
 9189W        W70555  25.214  35.368   1.332
 9190W        W70556  34.517  13.191   1.323
 9191W        W70557  42.911  18.279   2.677
 9192W        W70558  33.001   9.391   4.273
 9193W        W70559  28.541  41.968   0.365
 9194W        W70560  18.217  14.272   0.335
 9195W        W70561  39.491  37.063  14.422
 9196W        W70562  33.456  14.756  12.557
 9197W        W70563   4.766   2.890   0.262
 9198W        W70564  43.772  27.595   4.160
 9199W        W70565  40.908  39.906  10.531
 9200W        W70566  10.373  32.142  10.550
 9201W        W70567  14.287  35.383   3.364
 9202W        W70568  32.411  14.173  12.824
 9203W        W70569  30.436  33.524  12.862
 9204W        W70570   8.278  44.319  13.321
 9205W        W70571  23.618  12.125  14.307
 9206W        W70572  17.630   9.677   1.452
 9207W        W70573   6.914  12.196  12.408
 9208W        W70574   5.212  35.996   3.282
 9209W        W70575  36.440  40.516   1.932
 9210W        W70576  15.684  34.004   4.670
 9211W        W70577  11.188   9.360  14.920
 9212W        W70578   8.309  32.625  10.543
 9213W        W70579  15.183  19.747   4.795
 9214W        W70580   6.709  17.561  12.572
 9215W        W70581  31.115  16.183  14.977
 9216W        W70582   6.754  43.943  13.350
 9217W        W70583  13.327   3.920   1.789
 9218W        W70584  20.104  12.729  11.546
 9219W        W70585   5.242  14.255  13.913
 9220W        W70586   2.325  24.530  13.457
 9221W        W70587  32.540  33.618   2.243
 9222W        W70588   0.757  22.535  11.968
 9223W        W70589  36.018  14.590  11.441
 9224W        W70590   5.309  42.466   2.695
 9225W        W70591  44.837  14.207  13.796
 9226W        W70592   7.841  38.868  12.543
 9227W        W70593  40.912  21.695  13.036
 9228W        W70594  44.495   4.321  11.107
 9229W        W70595  44.322  34.120  11.456
 9230W        W70596   0.966  11.368  11.940
 9231W        W70597  10.843   8.745  13.426
 9232W        W70598  16.181  34.051   4.152
 9233W        W70599  12.325  34.889  11.453
 9234W        W70600   8.713  38.875  12.834
 9235W        W70601  35.091  32.976  13.515
 9236W        W70602   7.381   9.238   4.226
 9237W        W70603   0.396  44.970  14.846
 9238W        W70604  30.913  10.724   3.154
 9239W        W70605   1.784  34.063   4.253
 9240W        W70606  17.146  11.828   0.741
 9241W        W70607  34.547  28.180   0.479
 9242W        W70608  34.526  18.060   4.270
 9243W        W70609  10.176  34.029   0.260
 9244W        W70610   5.262  10.315  10.584
 9245W        W70611  12.128   2.871  14.318
 9246W        W70612  31.125   5.843  14.803
 9247W        W70613  32.613   0.959  11.055
 9248W        W70614  39.060  39.046   2.319
 9249W        W70615  41.343  16.302   0.269
 9250W        W70616  14.273   2.309   0.464
 9251W        W70617  38.509  43.420  10.598
 9252W        W70618  22.028   5.832   0.912
 9253W        W70619  40.535   4.779  11.984
 9254W        W70620   2.814  35.993   2.335
 9255W        W70621  30.953   5.384   1.910
 9256W        W70622  21.523   9.372  13.792
 9257W        W70623  29.457  37.017  12.067
 9258W        W70624   7.791  18.103  13.427
 9259W        W70625  33.601  34.978  14.494
 9260W        W70626  29.480  20.716  14.874
 9261W        W70627   7.234  19.695   0.771
 9262W        W70628  16.679  41.868   1.447
 9263W        W70629   1.311  27.567  11.900
 9264W        W70630  40.501  22.727  13.486
 9265W        W70631  23.999   2.297   1.393
 9266W        W70632  23.998   7.304  10.581
 9267W        W70633  38.034  42.484   0.869
 9268W        W70634  36.867  43.947   4.183
 9269W        W70635  23.008  10.860   4.122
 9270W        W70636   9.862  40.984   3.751
 9271W        W70637  38.868  27.064  12.043
 9272W        W70638  26.951  30.477  14.341
 9273W        W70639  39.008   2.310   3.321
 9274W        W70640  37.346   5.806   1.215
 9275W        W70641  10.204  16.248   4.719
 9276W        W70642  18.079  23.514   1.366
 9277W        W70643  43.902  17.263  10.461
 9278W        W70644  43.915  30.564   0.443
 9279W        W70645  41.500  10.636  10.536
 9280W        W70646  22.699  33.933  11.932
 9281W        W70647  19.712  28.074  11.043
 9282W        W70648   8.386   8.890   1.882
 9283W        W70649  13.283  23.519  10.604
 9284W        W70650  27.629  18.725   2.749
 9285W        W70651  15.189   0.840  13.055
 9286W        W70652  19.553  32.987  13.851
 9287W        W70653  21.208  29.494   3.381
 9288W        W70654  10.169   7.806   0.257
 9289W        W70655  17.748  44.767  12.339
 9290W        W70656  23.723  17.066   1.377
 9291W        W70657   8.313  30.951   2.789
 9292W        W70658  14.143  24.506  11.923
 9293W        W70659   2.725   1.460   2.194
 9294W        W70660  24.008  39.063   9.940
 9295W        W70661  30.443  18.728   1.345
 9296W        W70662  33.052   9.878   4.282
 9297W        W70663  22.163  32.095   1.847
 9298W        W70664  16.586  29.138  14.990
 9299W        W70665  22.717  27.673  13.063
 9300W        W70666  32.915  15.613   4.164
 9301W        W70667   8.370   6.291   1.286
 9302W        W70668  24.686  26.117   0.930
 9303W        W70669  11.733  22.091  10.409
 9304W        W70670  21.647  31.109   2.701
 9305W        W70671  31.058  22.076  12.345
 9306W        W70672  40.982  40.874  10.939
 9307W        W70673  35.917  38.373   2.308
 9308W        W70674  44.943  44.755   1.359
 9309W        W70675  29.919   0.859  12.451
 9310W        W70676  42.394  42.394  12.460
 9311W        W70677  28.519  31.598   2.291
 9312W        W70678  22.251  32.901  11.425
 9313W        W70679  26.564  22.581  11.476
 9314W        W70680  32.600  32.554   1.837
 9315W        W70681  37.582   4.215  11.932
 9316W        W70682  36.951  27.028   4.663
 9317W        W70683  37.437  38.486  14.282
 9318W        W70684  19.618  12.683   1.934
 9319W        W70685  34.017  39.494   3.232
 9320W        W70686  12.348  34.886   4.731
 9321W        W70687  12.780   6.866  14.966
 9322W        W70688  23.230  25.113  11.102
 9323W        W70689  39.061   2.377  11.940
 9324W        W70690  33.969  30.046   3.302
 9325W        W70691  32.077  32.444   3.841
 9326W        W70692  34.547  31.489   4.315
 9327W        W70693   3.323  30.931  12.916
 9328W        W70694  38.533   2.291  11.111
 9329W        W70695  41.386  16.187  11.971
 9330W        W70696  27.112  39.912   1.820
 9331W        W70697  34.048  17.782  13.039
 9332W        W70698  15.793  32.539  12.899
 9333W        W70699  28.949  38.868   4.782
 9334W        W70700   4.717   0.337   2.784
 9335W        W70701  37.340  12.703  12.486
 9336W        W70702  21.241  38.561   1.715
 9337W        W70703  11.128  27.572   4.250
 9338W        W70704  16.258  17.607   4.714
 9339W        W70705  32.084   2.464   2.234
 9340W        W70706  19.597  22.742   4.218
 9341W        W70707  38.333  11.717   3.814
 9342W        W70708  18.739   1.877  11.035
 9343W        W70709  26.485  28.095   0.286
 9344W        W70710  43.418  42.807   3.730
 9345W        W70711   8.781  37.922   0.258
 9346W        W70712  29.096  37.846  12.072
 9347W        W70713   3.274  22.716   0.360
 9348W        W70714   6.426  29.939   3.335
 9349W        W70715   0.845   5.370   2.757
 9350W        W70716  21.685  28.169   0.921
 9351W        W70717  14.637  28.672   1.868
 9352W        W70718   1.826  23.113   1.211
 9353W        W70719  15.227  31.944   3.303
 9354W        W70720  34.398  21.612   5.148
 9355W        W70721  28.044  33.874  13.360
 9356W        W70722  30.933   9.246  13.480
 9357W        W70723  41.943  35.107   3.300
 9358W        W70724  20.717  26.953   1.781
 9359W        W70725  30.531   0.941   0.409
 9360W        W70726  24.627   0.435  12.447
 9361W        W70727  28.648   6.844  12.490
 9362W        W70728  30.504  32.468   4.620
 9363W        W70729   9.311  10.653  12.023
 9364W        W70730  32.048  11.206   4.283
 9365W        W70731  36.952  32.497   2.316
 9366W        W70732  24.720  37.874   4.701
 9367W        W70733   7.827  40.321  14.824
 9368W        W70734   6.877   0.774  11.467
 9369W        W70735   8.181   7.243  12.521
 9370W        W70736  17.209  14.806  14.376
 9371W        W70737  25.087  12.171   1.859
 9372W        W70738   9.714  40.317   1.382
 9373W        W70739  14.104   8.849   2.340
 9374W        W70740  17.288  30.577  10.043
 9375W        W70741  13.294  24.226  14.953
 9376W        W70742  26.055  24.073  11.024
 9377W        W70743   0.759   3.911   3.338
 9378W        W70744  10.837   1.897   3.248
 9379W        W70745  26.958   4.904  11.545
 9380W        W70746   8.290  34.371   1.309
 9381W        W70747  12.322   9.825  14.309
 9382W        W70748   9.367   3.927  13.006
 9383W        W70749  37.972   1.306  12.897
 9384W        W70750   7.910  13.152   2.886
 9385W        W70751  12.802  39.407   1.214
 9386W        W70752  39.811   2.456   4.741
 9387W        W70753  28.650  26.606   0.896
 9388W        W70754  37.888  18.202  13.018
 9389W        W70755  20.112   9.154  12.951
 9390W        W70756  10.375  36.521  11.944
 9391W        W70757  21.135  36.528   3.211
 9392W        W70758  22.142  29.609  14.416
 9393W        W70759  38.366  40.313  10.426
 9394W        W70760  34.102  30.614   1.249
 9395W        W70761  16.631  23.591  13.969
 9396W        W70762   7.338   0.393  13.043
 9397W        W70763  37.562  10.745  11.979
 9398W        W70764  26.541  25.024  10.949
 9399W        W70765  38.473  41.500  11.929
 9400W        W70766   4.864  14.820  13.037
 9401W        W70767   5.900  36.090  11.858
 9402W        W70768  44.836  41.382  14.803
 9403W        W70769   7.183  33.513   3.154
 9404W        W70770  20.555  24.037   0.888
 9405W        W70771  30.969  44.445   3.216
 9406W        W70772  26.146  37.534   2.739
 9407W        W70773   5.255  32.415  11.115
 9408W        W70774  18.074  43.469   1.928
 9409W        W70775  11.720   4.415   2.864
 9410W        W70776  15.222   7.829  10.459
 9411W        W70777  30.117  37.889  13.395
 9412W        W70778   4.429  34.119   2.385
 9413W        W70779  13.727  27.146   4.788
 9414W        W70780  21.609  35.569  12.925
 9415W        W70781  12.272  23.083  13.325
 9416W        W70782  27.987  39.555   3.375
 9417W        W70783  19.536  16.110  13.929
 9418W        W70784   6.792   6.835   5.651
 9419W        W70785  17.299  27.691   2.894
 9420W        W70786   8.189  44.344   2.273
 9421W        W70787  24.030  11.756   5.093
 9422W        W70788  36.046   5.419  11.384
 9423W        W70789  44.771   9.818  11.531
 9424W        W70790  37.928  16.721   0.283
 9425W        W70791  30.951  36.074  14.381
 9426W        W70792  30.110  15.251   2.206
 9427W        W70793  32.514  16.207  14.891
 9428W        W70794  22.037   0.365  14.006
 9429W        W70795   4.450  44.862   0.461
 9430W        W70796  38.342  21.709  10.982
 9431W        W70797  42.525   9.852   1.909
 9432W        W70798  17.798   7.858  14.312
 9433W        W70799  40.974  22.531  13.801
 9434W        W70800  12.823   9.869   3.752
 9435W        W70801  44.981  41.414  11.394
 9436W        W70802  12.612  17.200   2.894
 9437W        W70803   0.474  39.956  13.451
 9438W        W70804  23.490  37.892   2.249
 9439W        W70805  22.731  15.096  11.511
 9440W        W70806  17.728  13.774   3.656
 9441W        W70807  36.445  40.014   5.275
 9442W        W70808  36.968  28.482  13.795
 9443W        W70809  30.145   8.841   2.812
 9444W        W70810  42.516   6.196   0.377
 9445W        W70811  38.915  33.472   4.280
 9446W        W70812   4.707  12.828  12.989
 9447W        W70813  42.863  28.476  11.041
 9448W        W70814  43.403  30.053  14.494
 9449W        W70815   8.894   8.860  14.939
 9450W        W70816  31.058  24.566   0.336
 9451W        W70817   2.259  33.562   1.252
 9452W        W70818  23.140   2.727   0.419
 9453W        W70819  39.497  26.619  13.506
 9454W        W70820   1.245  23.682  12.985
 9455W        W70821  42.375  21.231   4.668
 9456W        W70822  36.088  23.065  12.993
 9457W        W70823  12.217  13.116  13.813
 9458W        W70824  42.867   7.347  14.797
 9459W        W70825   7.807  44.447   3.259
 9460W        W70826  21.653  44.489   2.870
 9461W        W70827   7.179  37.976   1.909
 9462W        W70828   3.825  30.055   1.288
 9463W        W70829  41.517   6.367  14.338
 9464W        W70830  20.270  14.628   1.888
 9465W        W70831  19.756  41.430   1.308
 9466W        W70832  43.490  18.633  12.835
 9467W        W70833  19.262  25.669   1.910
 9468W        W70834  13.812   8.864   3.732
 9469W        W70835  35.387  32.947   3.240
 9470W        W70836  26.502   3.301  10.463
 9471W        W70837  28.585  33.089  14.957
 9472W        W70838  11.648  10.654   1.711
 9473W        W70839  41.414  38.928   1.699
 9474W        W70840  16.220  11.224  14.796
 9475W        W70841  43.442   2.747  12.344
 9476W        W70842  29.591  23.682   3.283
 9477W        W70843  16.269  25.480   2.213
 9478W        W70844  17.124  42.887   3.215
 9479W        W70845   1.449   5.387  10.964
 9480W        W70846  44.453  19.074  13.960
 9481W        W70847  41.509  30.641  14.835
 9482W        W70848   2.290  39.830  14.384
 9483W        W70849  36.519  19.762  11.976
 9484W        W70850  24.032  30.636   1.918
 9485W        W70851   7.271   2.857   2.779
 9486W        W70852  32.397   6.277   4.239
 9487W        W70853  43.404  33.550  10.075
 9488W        W70854  23.214  27.983  11.900
 9489W        W70855  30.522  41.317   2.716
 9490W        W70856  16.219  24.160  10.925
 9491W        W70857  39.958  42.785  10.630
 9492W        W70858  15.313  35.098   2.815
 9493W        W70859  31.077   2.341  14.021
 9494W        W70860  11.166   8.241  11.561
 9495W        W70861  15.716   9.828  10.576
 9496W        W70862  43.448  26.587  10.519
 9497W        W70863  16.724   8.234   0.804
 9498W        W70864   3.716  12.153   3.215
 9499W        W70865  14.675  11.281  12.094
 9500W        W70866  26.195   4.879   0.907
 9501W        W70867  10.784  30.979  10.639
 9502W        W70868  14.685  15.811  12.341
 9503W        W70869  17.773  19.625   2.288
 9504W        W70870  42.995  33.545   3.687
 9505W        W70871  23.191  18.207   1.917
 9506W        W70872   4.878  34.948   1.755
 9507W        W70873  40.346  10.855   2.339
 9508W        W70874  10.160  33.485  12.936
 9509W        W70875  41.425  12.281  14.810
 9510W        W70876  31.050  12.277   1.789
 9511W        W70877  13.131  19.150  10.537
 9512W        W70878  39.436   3.274  13.392
 9513W        W70879   5.342  28.002   2.198
 9514W        W70880  34.930  14.672   2.257
 9515W        W70881  32.485  39.840   4.263
 9516W        W70882  33.091  16.311   0.404
 9517W        W70883  18.554  22.661   3.336
 9518W        W70884  21.757  29.920   2.195
 9519W        W70885  13.246  17.232   5.142
 9520W        W70886  34.533  39.979  12.944
 9521W        W70887  26.082  31.630   5.194
 9522W        W70888  14.152  29.482   0.905
 9523W        W70889  14.185   8.822  10.606
 9524W        W70890  37.424  27.194   1.233
 9525W        W70891  28.440  19.623   0.245
 9526W        W70892  15.105  38.893  13.527
 9527W        W70893  14.281  17.652  14.441
 9528W        W70894  33.469  38.865   1.836
 9529W        W70895  16.799   5.277   2.181
 9530W        W70896  26.971  23.682  10.984
 9531W        W70897  19.233   6.703   1.722
 9532W        W70898  36.388  19.220   4.211
 9533W        W70899  26.583   5.439   1.272
 9534W        W70900  11.193   5.843  11.019
 9535W        W70901   5.695   9.788  13.848
 9536W        W70902  39.370  29.158  13.056
 9537W        W70903  14.637  35.033   4.645
 9538W        W70904  31.053  17.176   0.950
 9539W        W70905  23.686  12.729  12.852
 9540W        W70906  13.841  31.478  12.911
 9541W        W70907  41.976   6.336  12.848
 9542W        W70908  13.171  31.615   1.725
 9543W        W70909  13.774  40.970   4.674
 9544W        W70910  23.615  43.853   4.321
 9545W        W70911  36.062   3.260  13.451
 9546W        W70912  35.933  10.765   1.272
 9547W        W70913  23.537  29.104   3.171
 9548W        W70914   4.322  15.711   1.268
 9549W        W70915  42.429  34.978  12.422
 9550W        W70916  27.974   0.354  12.530
 9551W        W70917  33.928  44.777   4.674
 9552W        W70918  22.028  13.811   3.850
 9553W        W70919  29.918  24.146   3.384
 9554W        W70920  22.241  15.760  11.981
 9555W        W70921   4.407   6.736  10.895
 9556W        W70922  33.874  43.883   3.709
 9557W        W70923  14.724  30.067   1.852
 9558W        W70924  36.947  32.424  13.487
 9559W        W70925   1.327   6.234   4.251
 9560W        W70926  42.842  28.162   3.812
 9561W        W70927   1.802  33.462  14.981
 9562W        W70928  26.595  26.548  11.995
 9563W        W70929  24.135  11.212  14.817
 9564W        W70930   7.830  41.041   0.436
 9565W        W70931  24.481  23.530   3.255
 9566W        W70932  10.762  23.190  12.345
 9567W        W70933  20.069  41.320   5.207
 9568W        W70934  21.672  14.662  13.040
 9569W        W70935  44.481  37.561  11.458
 9570W        W70936   0.444  38.407   0.423
 9571W        W70937  14.094  37.016  12.038
 9572W        W70938  17.197   1.351  11.064
 9573W        W70939   3.302  43.835  10.146
 9574W        W70940  30.623  18.192   3.766
 9575W        W70941  25.629  20.033   0.287
 9576W        W70942  24.513  24.226  11.407
 9577W        W70943  16.749  36.045  14.911
 9578W        W70944  16.575  25.476  12.368
 9579W        W70945   1.365  11.173   3.680
 9580W        W70946  43.794  39.555  13.049
 9581W        W70947  23.182  18.233  11.997
 9582W        W70948  25.061  33.622   4.677
 9583W        W70949   3.872  12.847   2.190
 9584W        W70950  28.137  35.933   0.895
 9585W        W70951  27.557  17.728   1.816
 9586W        W70952  39.968  43.353  11.104
 9587W        W70953  40.386  41.847  11.036
 9588W        W70954  17.615   6.326   4.743
 9589W        W70955   2.950   4.325  12.077
 9590W        W70956  11.230  35.950  11.922
 9591W        W70957   0.829  17.740  14.313
 9592W        W70958   3.725  27.544  14.414
 9593W        W70959  24.649   5.700   1.292
 9594W        W70960  27.187   9.249  12.041
 9595W        W70961  39.926  17.647  11.128
 9596W        W70962   5.195  43.492  11.439
 9597W        W70963  17.729  24.054  12.988
 9598W        W70964   1.259  20.248   2.357
 9599W        W70965  37.430  21.085   4.803
 9600W        W70966  21.666  42.424   4.254
 9601W        W70967  22.688  37.916  10.513
 9602W        W70968  21.737  32.070  11.879
 9603W        W70969  39.990   1.973  11.492
 9604W        W70970  27.017  33.561   1.353
 9605W        W70971  33.970  34.094   2.706
 9606W        W70972  29.516  35.912   3.777
 9607W        W70973  35.437  24.668   0.441
 9608W        W70974  19.708  29.077  11.910
 9609W        W70975   9.667  35.860   4.665
 9610W        W70976  37.385  21.711   2.248
 9611W        W70977  35.029  15.302   0.264
 9612W        W70978  27.503  30.940   5.616
 9613W        W70979  18.055   3.386   1.784
 9614W        W70980   2.823  37.853  11.122
 9615W        W70981  35.474  22.719   1.929
 9616W        W70982  13.238  21.238  10.610
 9617W        W70983  38.455  26.662   4.777
 9618W        W70984  10.736  17.608   0.877
 9619W        W70985   0.833   5.883  10.460
 9620W        W70986  22.154  30.053  12.016
 9621W        W70987  31.068  13.292   2.269
 9622W        W70988  25.084  38.497   0.291
 9623W        W70989  10.816  27.105   3.226
 9624W        W70990  32.617   0.952   3.734
 9625W        W70991  33.415  27.648   4.689
 9626W        W70992  32.922  41.935   3.327
 9627W        W70993  30.565  29.988   3.150
 9628W        W70994  16.771  17.578   2.367
 9629W        W70995   9.255  38.951   2.852
 9630W        W70996   2.326  27.105  13.486
 9631W        W70997  19.207  42.499  14.873
 9632W        W70998   0.318  13.196  13.831
 9633W        W70999  10.785  44.766   4.752
 9634W        W71000  27.528  36.084  14.939
 9635W        W71001   8.834  38.506  13.916
 9636W        W71002   9.802  44.457  10.048
 9637W        W71003  24.579   4.226   2.418
 9638W        W71004  14.785  16.588   2.198
 9639W        W71005  10.871  42.496  12.363
 9640W        W71006  17.139   6.366   9.943
 9641W        W71007  42.886  27.062  11.938
 9642W        W71008  31.980  28.492  14.463
 9643W        W71009  44.995  34.450   2.834
 9644W        W71010   6.375  32.416   0.741
 9645W        W71011  44.836  18.756  12.903
 9646W        W71012  27.109  25.476   5.173
 9647W        W71013  35.365  28.618  11.446
 9648W        W71014   6.811  39.369  12.510
 9649W        W71015  29.446  28.095   1.372
 9650W        W71016  42.374  28.073   1.290
 9651W        W71017  11.146   1.947  13.529
 9652W        W71018  36.529  20.655   3.340
 9653W        W71019  16.267  25.583  11.894
 9654W        W71020  11.737  24.663   2.223
 9655W        W71021  42.854  12.165   3.357
 9656W        W71022   6.330  21.179   3.716
 9657W        W71023   8.345  25.672  13.054
 9658W        W71024  33.520  22.561   3.203
 9659W        W71025   3.863  11.836   1.753
 9660W        W71026  11.626  21.641   3.687
 9661W        W71027  37.556   7.266  14.304
 9662W        W71028  19.577  32.010  13.483
 9663W        W71029  35.938  15.268   4.290
 9664W        W71030  25.197  12.159   2.250
 9665W        W71031   1.416  38.854   3.350
 9666W        W71032  36.363  41.513   1.761
 9667W        W71033  22.514  28.032   3.179
 9668W        W71034  20.151   2.334  14.022
 9669W        W71035  43.782  37.565  12.834
 9670W        W71036   1.935  33.068  12.824
 9671W        W71037   0.401   6.822  11.538
 9672W        W71038  24.678  37.550  12.360
 9673W        W71039   2.386  35.996   0.958
 9674W        W71040  13.729   3.301   3.702
 9675W        W71041  35.997  15.727  11.128
 9676W        W71042  37.029   2.920   1.225
 9677W        W71043  26.039  13.105  13.354
 9678W        W71044  35.044  44.383   9.960
 9679W        W71045  34.119   6.410   3.812
 9680W        W71046   8.836  40.479   2.416
 9681W        W71047  11.668  32.472  14.883
 9682W        W71048  22.557   2.791  11.038
 9683W        W71049  31.486  19.210  11.949
 9684W        W71050   1.468  24.990   3.686
 9685W        W71051  16.671  32.934  10.509
 9686W        W71052  42.466  33.989   4.703
 9687W        W71053  20.680  35.414   5.235
 9688W        W71054  18.128  17.669  11.954
 9689W        W71055  37.061  20.710   1.935
 9690W        W71056  43.313  16.704  13.874
 9691W        W71057  15.634  19.152   3.337
 9692W        W71058   6.188  27.529   2.853
 9693W        W71059  11.701  11.311   0.396
 9694W        W71060   5.800  23.140  11.104
 9695W        W71061  34.607  42.453  11.119
 9696W        W71062  37.522  12.666   1.895
 9697W        W71063  35.005  35.490   0.328
 9698W        W71064  41.026   2.906   3.686
 9699W        W71065  37.417  18.724  10.465
 9700W        W71066  34.582  25.055   3.635
 9701W        W71067  22.084  40.914   1.779
 9702W        W71068  31.970  44.267  12.458
 9703W        W71069   0.450  38.971  13.041
 9704W        W71070  34.443  31.541   0.338
 9705W        W71071  35.912  29.485  12.057
 9706W        W71072  38.356   2.423   1.404
 9707W        W71073  43.466  19.073  11.025
 9708W        W71074  26.567  27.135   3.861
 9709W        W71075  39.476  23.074   2.724
 9710W        W71076  34.080  26.964  14.844
 9711W        W71077  21.552   8.241   2.809
 9712W        W71078  13.340  24.070  14.290
 9713W        W71079  10.809  34.439  13.373
 9714W        W71080  26.518  41.835   4.129
 9715W        W71081  23.984  21.656   0.824
 9716W        W71082  32.104  44.761   1.756
 9717W        W71083  18.739  31.144  14.978
 9718W        W71084  26.612  38.001  11.386
 9719W        W71085  36.054  26.015   4.173
 9720W        W71086  18.129   9.273  12.415
 9721W        W71087  16.206  17.226   2.727
 9722W        W71088   1.889  16.272   3.266
 9723W        W71089   2.787  17.236   2.394
 9724W        W71090  27.480  39.835   1.803
 9725W        W71091  35.538  35.540  12.947
 9726W        W71092  41.528  35.963   2.688
 9727W        W71093   3.733  39.541   3.167
 9728W        W71094  43.419  10.787   0.963
 9729W        W71095  34.398  33.537   4.325
 9730W        W71096  22.671  44.883  10.619
 9731W        W71097  40.028  34.522  14.806
 9732W        W71098  30.092  30.428  12.378
 9733W        W71099  34.586   3.300  10.634
 9734W        W71100  25.973   1.919   0.872
 9735W        W71101  44.479   3.374  10.004
 9736W        W71102  34.929  14.823  11.898
 9737W        W71103  16.074  13.737  10.437
 9738W        W71104  43.008  27.095  14.910
 9739W        W71105  26.129  19.058  11.899
 9740W        W71106  14.301  10.813  11.391
 9741W        W71107  35.399  23.030  11.579
 9742W        W71108  35.469  28.043   3.225
 9743W        W71109  13.650  10.651  13.510
 9744W        W71110   3.887  34.573   3.248
 9745W        W71111  37.439  15.233   4.728
 9746W        W71112  15.664  12.656  13.336
 9747W        W71113  22.193  28.049  14.909
 9748W        W71114  27.676  38.507  11.901
 9749W        W71115  16.658  19.258   0.396
 9750W        W71116  21.058  21.141   1.719
 9751W        W71117   9.361   3.359   0.783
 9752W        W71118  37.549  29.655   0.745
 9753W        W71119  27.128   6.365  11.424
 9754W        W71120  44.319   8.367   4.790
 9755W        W71121  44.882  35.449  10.905
 9756W        W71122  32.577  17.100   9.991
 9757W        W71123  13.808  43.900   0.778
 9758W        W71124  29.159  30.572   0.949
 9759W        W71125  26.024  36.064   4.816
 9760W        W71126  25.101  35.439  13.879
 9761W        W71127  36.026  18.721   1.437
 9762W        W71128  15.613  21.757  14.307
 9763W        W71129   1.317  36.353  13.020
 9764W        W71130  21.682   6.411  14.921
 9765W        W71131  32.894  44.826   3.349
 9766W        W71132  23.041  32.964   1.244
 9767W        W71133  26.087   5.793  10.551
 9768W        W71134  42.467   2.300  13.337
 9769W        W71135  35.949  42.339   0.274
 9770W        W71136  41.305  44.349  11.121
 9771W        W71137  26.094  26.534  10.571
 9772W        W71138   6.185   8.811   5.247
 9773W        W71139   6.803   2.281  10.467
 9774W        W71140   6.768  18.280   0.955
 9775W        W71141   5.285   1.777   1.747
 9776W        W71142  19.231  27.567   1.325
 9777W        W71143   0.939  42.009   1.450
 9778W        W71144  44.788  29.940   3.631
 9779W        W71145  13.299   1.298  10.588
 9780W        W71146   5.696  23.634  12.352
 9781W        W71147   8.671  11.238   3.648
 9782W        W71148  16.659  13.773   2.880
 9783W        W71149  28.546  16.077  13.463
 9784W        W71150  31.036   1.738  12.487
 9785W        W71151  25.129  28.524   1.281
 9786W        W71152   7.226   2.849   3.324
 9787W        W71153  22.537  37.875   2.777
 9788W        W71154  40.367   7.384  10.549
 9789W        W71155  17.564   4.340  14.780
 9790W        W71156  15.685  36.581   1.448
 9791W        W71157  38.432  11.147  12.506
 9792W        W71158  25.095   2.731  13.904
 9793W        W71159  16.586  36.096  14.318
 9794W        W71160  19.065  43.789   2.309
 9795W        W71161   9.318  20.116  10.628
 9796W        W71162  40.023  32.421  11.897
 9797W        W71163  25.490  14.609   4.168
 9798W        W71164  26.697   9.390  13.373
 9799W        W71165  23.045  44.755  13.390
 9800W        W71166  35.575  17.755  11.014
 9801W        W71167   2.964  31.072   2.730
 9802W        W71168  19.758   8.833  10.483
 9803W        W71169  36.962   6.796  13.476
 9804W        W71170   5.220  26.567  13.929
 9805W        W71171   9.819  23.110  13.309
 9806W        W71172  28.444   0.458   3.769
 9807W        W71173  44.289  27.686  10.047
 9808W        W71174   7.398   3.762  12.478
 9809W        W71175  25.162  41.320  10.411
 9810W        W71176  22.044  38.348   2.901
 9811W        W71177  28.661  15.302  12.897
 9812W        W71178  16.291  14.164  13.909
 9813W        W71179  32.434  25.048   5.285
 9814W        W71180  22.540  20.166   2.319
 9815W        W71181  16.676   4.795  12.871
 9816W        W71182  21.725  27.009  12.506
 9817W        W71183  27.149   9.735  11.594
 9818W        W71184  27.586  25.647   0.407
 9819W        W71185  34.879  22.554  10.930
 9820W        W71186  13.155  32.995   3.869
 9821W        W71187  22.043  20.619  13.331
 9822W        W71188  12.255  44.003   0.872
 9823W        W71189  34.372   6.787   3.352
 9824W        W71190  32.138  11.291  11.118
 9825W        W71191  41.884   6.695  12.960
 9826W        W71192  43.886  25.605  10.900
 9827W        W71193  31.130   7.405   1.759
 9828W        W71194   3.757   5.794   2.839
 9829W        W71195  16.231   9.851  13.898
 9830W        W71196  28.930  20.191   5.608
 9831W        W71197  14.140   0.858   1.772
 9832W        W71198  36.553  33.080   3.831
 9833W        W71199  38.390  14.756   4.353
 9834W        W71200   1.885  39.337   3.386
 9835W        W71201  16.154  10.364   4.614
 9836W        W71202  17.069  36.504   2.212
 9837W        W71203  14.289   2.889  10.609
 9838W        W71204  42.296  19.580  11.958
 9839W        W71205  18.083   3.393  12.002
 9840W        W71206  12.243  10.345   5.201
 9841W        W71207  22.596  36.453   0.940
 9842W        W71208  13.119  19.665  10.001
 9843W        W71209   8.730  33.623   4.141
 9844W        W71210  29.664  41.888  14.512
 9845W        W71211  36.552  28.582   2.362
 9846W        W71212  39.371  38.887   4.727
 9847W        W71213   4.233  36.930  14.813
 9848W        W71214   2.846  18.269  11.893
 9849W        W71215   6.870  31.945  12.464
 9850W        W71216  22.232  32.140   4.164
 9851W        W71217   9.689  12.740  14.328
 9852W        W71218  26.576  41.484   4.263
 9853W        W71219  31.007   8.250   0.342
 9854W        W71220  39.881  30.104  11.091
 9855W        W71221  20.583  16.136   1.282
 9856W        W71222  29.114  30.149  11.864
 9857W        W71223   5.889  28.609   1.743
 9858W        W71224  43.831   0.846   3.642
 9859W        W71225   1.932  22.166   0.889
 9860W        W71226  14.723   3.843   3.763
 9861W        W71227   3.809  19.595  14.914
 9862W        W71228  37.903  44.413   0.478
 9863W        W71229  43.824   0.979   4.227
 9864W        W71230  11.334  11.742   3.811
 9865W        W71231  37.061  36.008   1.231
 9866W        W71232  18.252  42.890  11.583
 9867W        W71233  10.800   9.667  12.436
 9868W        W71234  14.283  35.388  12.486
 9869W        W71235  35.461   5.202   4.762
 9870W        W71236   6.817  15.581   2.753
 9871W        W71237  15.085   7.706   2.197
 9872W        W71238  17.785  26.629  11.021
 9873W        W71239  10.761   7.727  11.468
 9874W        W71240  44.278  33.430  10.975
 9875W        W71241  31.498  32.407   1.316
 9876W        W71242  19.266  13.747   0.277
 9877W        W71243  39.420  36.856   4.623
 9878W        W71244  33.409  17.240  14.924
 9879W        W71245  29.499  14.215   1.824
 9880W        W71246  38.886   7.375   0.337
 9881W        W71247  20.709  16.795   0.771
 9882W        W71248  14.247   2.350   0.745
 9883W        W71249   5.766  39.001  11.976
 9884W        W71250  27.940  21.251   3.337
 9885W        W71251  34.012   0.891   1.434
 9886W        W71252  25.035  33.076  13.513
 9887W        W71253   3.318  22.152  11.022
 9888W        W71254  44.840  15.801   1.808
 9889W        W71255  35.441  11.142  10.612
 9890W        W71256  30.476  28.096  14.799
 9891W        W71257  32.112  12.180   4.178
 9892W        W71258  36.921   9.724  14.355
 9893W        W71259  17.145   3.455   2.721
 9894W        W71260   3.878  37.499   4.282
 9895W        W71261  20.224   2.800   3.840
 9896W        W71262  32.510  12.829  14.777
 9897W        W71263  38.045   6.252   2.719
 9898W        W71264  26.105  23.571   0.902
 9899W        W71265  32.018  19.043  13.967
 9900W        W71266  36.008   6.765   3.735
 9901W        W71267  27.472  35.014   0.441
 9902W        W71268  22.168   1.975   5.102
 9903W        W71269  20.629  23.707  12.905
 9904W        W71270  38.853   5.874  10.573
 9905W        W71271  40.504   1.330   3.214
 9906W        W71272  21.756  42.873   4.215
 9907W        W71273  37.859  40.408   4.825
 9908W        W71274   9.324  34.119   0.456
 9909W        W71275  24.139  13.828  10.543
 9910W        W71276  36.968   4.318   0.431
 9911W        W71277  29.568  23.161   4.336
 9912W        W71278  23.196   7.876   0.257
 9913W        W71279   2.821  24.666   2.825
 9914W        W71280  28.476  28.937   2.668
 9915W        W71281   5.878  16.176   1.725
 9916W        W71282   9.670  22.117  13.494
 9917W        W71283   8.882  41.328   1.805
 9918W        W71284   4.391  22.207   1.830
 9919W        W71285  44.937  37.905  12.051
 9920W        W71286   5.410  17.665  14.834
 9921W        W71287   0.347   4.238  12.000
 9922W        W71288   9.317  27.102  11.424
 9923W        W71289  17.170   8.868   2.735
 9924W        W71290  20.677  35.001  12.476
 9925W        W71291   9.808  39.004   0.317
 9926W        W71292   0.343  13.626   0.433
 9927W        W71293  18.755  22.536  12.065
 9928W        W71294  22.040  35.952   5.195
 9929W        W71295  15.236  10.353  14.966
 9930W        W71296  33.572  14.215   0.830
 9931W        W71297  26.663  18.063  13.807
 9932W        W71298   3.384  31.576   0.325
 9933W        W71299   0.981  14.594  13.516
 9934W        W71300  36.506  33.896   2.787
 9935W        W71301  27.194  44.902  14.474
 9936W        W71302  26.018  38.474   3.814
 9937W        W71303   6.339  19.619  10.101
 9938W        W71304  17.239  14.271   4.644
 9939W        W71305  14.167  36.012  12.069
 9940W        W71306  16.657  30.622  12.964
 9941W        W71307  41.413  35.922   0.929
 9942W        W71308  42.783  22.701   1.302
 9943W        W71309   1.767  20.713  14.023
 9944W        W71310  26.136  18.261   2.398
 9945W        W71311  42.485  34.462   0.955
 9946W        W71312  26.568  13.208   5.131
 9947W        W71313  38.361  37.451  13.834
 9948W        W71314  30.476  20.153   3.855
 9949W        W71315  29.114   2.792   4.647
 9950W        W71316   5.314  44.860  12.939
 9951W        W71317  36.583  38.396  14.485
 9952W        W71318  37.430  16.747  13.935
 9953W        W71319  30.098   2.289   3.697
 9954W        W71320  34.903  37.870   3.821
 9955W        W71321  21.683  21.049   2.781
 9956W        W71322  15.580  29.638   2.289
 9957W        W71323  36.442  25.486  11.950
 9958W        W71324   8.689  25.605  12.885
 9959W        W71325  43.485   1.249   3.697
 9960W        W71326  25.184  39.917  12.553
 9961W        W71327  38.545  24.994   2.813
 9962W        W71328  18.548  13.714  12.839
 9963W        W71329  24.606   5.899   1.913
 9964W        W71330  36.518  12.836  13.883
 9965W        W71331  21.241  18.156  10.019
 9966W        W71332  33.599  30.109   3.379
 9967W        W71333  37.518  28.073  13.970
 9968W        W71334  13.689  42.974  12.882
 9969W        W71335  25.611  35.393   2.374
 9970W        W71336   0.751  25.194  14.325
 9971W        W71337  11.814  39.518   0.794
 9972W        W71338  28.606   7.226   4.664
 9973W        W71339  43.948  25.178   1.742
 9974W        W71340  20.547  33.996  12.360
 9975W        W71341  31.988  22.234  11.519
 9976W        W71342  34.914  19.756  11.506
 9977W        W71343  42.373  39.479   2.361
 9978W        W71344  13.112  23.648  11.861
 9979W        W71345  17.221  23.551   1.837
 9980W        W71346  42.378  40.811  14.378
 9981W        W71347   3.250  13.323  12.389
 9982W        W71348  23.549  38.900  14.369
 9983W        W71349  13.120  12.260   3.197
 9984W        W71350  21.553  33.423   4.309
 9985W        W71351  23.073  35.014  13.841
 9986W        W71352  10.840  36.885  10.619
 9987W        W71353  15.687  21.223  10.460
 9988W        W71354  43.932  15.675   1.694
 9989W        W71355  11.748  14.145  10.596
 9990W        W71356  39.899  13.663   2.253
 9991W        W71357  29.492  28.986  12.425
 9992W        W71358   2.425   3.741  12.347
 9993W        W71359  11.780  37.978  11.377
 9994W        W71360   4.838  26.551  14.817
 9995W        W71361  43.375  38.446  13.790
 9996W        W71362  24.573  14.340  13.365
 9997W        W71363  15.600  25.706   0.936
 9998W        W71364  29.935  26.009  10.909
 9999W        W71365   1.315  34.484  12.507
10000W        W71366  18.137   2.308   0.405
10001W        W71367  29.098  18.584  12.840
10002W        W71368   4.915  12.270  10.506
10003W        W71369   0.912   8.714  11.437
10004W        W71370   9.815  24.009   3.201
10005W        W71371  18.643  36.852   4.148
10006W        W71372  27.488  19.113   2.294
10007W        W71373  21.065  43.017  14.315
10008W        W71374  24.718  38.984   0.461
10009W        W71375  12.718  36.886   1.240
10010W        W71376  11.329  19.052   0.918
10011W        W71377   5.358  40.852  12.080
10012W        W71378  29.974  23.100   1.379
10013W        W71379  36.577  26.126   4.753
10014W        W71380  11.860  16.305   2.299
10015W        W71381  17.702  21.553   0.267
10016W        W71382   7.302  30.511  11.940
10017W        W71383  29.668  17.570   4.293
10018W        W71384  35.592  32.573   0.763
10019W        W71385  39.010  37.465   3.816
10020W        W71386  34.486  35.881   0.949
10021W        W71387   0.322  35.989  14.398
10022W        W71388   7.897   8.376  12.407
10023W        W71389  36.461  32.514   1.374
10024W        W71390   3.934   4.301   3.235
10025W        W71391   3.723   6.891   1.387
10026W        W71392  44.419  39.518   3.760
10027W        W71393  39.382  10.343  11.570
10028W        W71394  30.101  27.653   3.726
10029W        W71395  20.601  33.907  11.926
10030W        W71396   9.226  16.594  14.795
10031W        W71397   6.394  10.762  14.913
10032W        W71398  26.965  19.122   3.716
10033W        W71399   7.791  22.658   4.726
10034W        W71400  25.625  18.200   0.372
10035W        W71401  17.608  40.456  12.372
10036W        W71402  35.023  17.300   2.307
10037W        W71403  41.469  20.068   0.391
10038W        W71404  33.880  42.930  11.467
10039W        W71405  28.082  35.016   3.811
10040W        W71406  24.141  25.188   4.794
10041W        W71407  15.735  30.489   2.709
10042W        W71408  18.570  32.927   4.836
10043W        W71409  22.533  39.388   2.709
10044W        W71410  12.731  20.580   2.341
10045W        W71411  18.712   5.710  13.967
10046W        W71412   3.744  36.396  12.357
10047W        W71413  33.906  10.265   2.726
10048W        W71414  26.033  30.074   0.760
10049W        W71415  23.666  38.329  11.604
10050W        W71416  27.524  16.777  14.982
10051W        W71417  13.752  37.870  11.901
10052W        W71418   5.431  41.366   3.702
10053W        W71419  34.456  29.126  12.511
10054W        W71420  44.308  23.688  13.824
10055W        W71421   0.330  24.590   3.277
10056W        W71422  25.099   8.894   4.609
10057W        W71423  14.112  42.900   0.403
10058W        W71424   8.703  23.098   0.860
10059W        W71425  37.049   7.723   1.862
10060W        W71426  11.372  26.599  13.451
10061W        W71427  36.945  40.309   4.627
10062W        W71428   7.290  20.065   3.204
10063W        W71429  26.978  34.488  14.500
10064W        W71430  29.103  30.143  12.407
10065W        W71431  17.633  11.195  14.489
10066W        W71432  39.510  31.544  13.803
10067W        W71433  17.275  34.031  11.459
10068W        W71434  20.029  35.922  12.442
10069W        W71435  18.116   5.926   2.900
10070W        W71436  14.203  10.797  11.860
10071W        W71437   1.276  39.867   0.364
10072W        W71438   9.712  14.588   3.801
10073W        W71439  15.275   9.795  14.402
10074W        W71440  34.931   5.883  12.375
10075W        W71441  40.037  39.422   4.151
10076W        W71442  36.043   2.371   1.715
10077W        W71443   2.826   6.864   1.266
10078W        W71444  37.975  25.205   1.418
10079W        W71445  22.610  18.595   4.656
10080W        W71446  15.236  12.671  12.516
10081W        W71447   6.922  16.717  11.988
10082W        W71448  23.551  43.324  12.016
10083W        W71449  17.756  31.985  11.472
10084W        W71450  23.067  43.775   1.844
10085W        W71451   7.397   4.345   0.861
10086W        W71452   7.812   0.425  10.068
10087W        W71453  40.436  44.006   3.167
10088W        W71454  34.879  28.624   2.192
10089W        W71455  39.022  38.032   3.378
10090W        W71456  42.389  41.855   3.152
10091W        W71457   2.791   4.716  12.528
10092W        W71458  11.731  32.942   5.767
10093W        W71459  20.266  30.528   1.396
10094W        W71460  23.991  14.214  13.951
10095W        W71461   2.957  34.897  11.869
10096W        W71462  26.691   6.343  11.038
10097W        W71463  18.654  24.646  14.974
10098W        W71464  37.839  15.815  12.343
10099W        W71465   5.794  41.465   0.424
10100W        W71466  12.800  41.823  12.095
10101W        W71467  18.269  31.096  12.419
10102W        W71468   5.903  13.329   2.865
10103W        W71469  23.625   8.826   1.747
10104W        W71470  20.685   1.442  10.946
10105W        W71471  42.330  12.754   1.357
10106W        W71472   5.754  24.707   3.162
10107W        W71473  19.651  24.583  14.002
10108W        W71474  44.823  31.630   4.794
10109W        W71475  39.852  36.907   4.755
10110W        W71476  35.383  32.637   1.827
10111W        W71477  26.005  11.855  13.383
10112W        W71478  38.923  24.085   0.928
10113W        W71479   8.760  32.495  11.400
10114W        W71480  30.058  18.106  13.362
10115W        W71481   6.287  29.435   2.205
10116W        W71482   4.885  28.452  10.471
10117W        W71483   4.772  35.564   0.245
10118W        W71484   9.336  38.479  14.967
10119W        W71485  24.052  44.338   5.300
10120W        W71486   8.839  40.049   4.680
10121W        W71487  13.658  19.177  10.450
10122W        W71488  33.921  43.455  10.428
10123W        W71489   6.311  10.237   0.799
10124W        W71490  32.989  33.085  12.462
10125W        W71491  18.581  24.528  11.937
10126W        W71492  16.246  27.631  13.473
10127W        W71493  25.207  41.838  13.411
10128W        W71494  16.154  33.456   0.360
10129W        W71495   1.264  10.769  11.525
10130W        W71496  10.274  32.100   4.196
10131W        W71497   0.892  16.597   2.190
10132W        W71498  30.024   3.739   1.267
10133W        W71499  19.689   0.347   1.838
10134W        W71500  31.412  22.091   5.725
10135W        W71501  25.118  22.621  14.874
10136W        W71502  29.109  19.755  14.400
10137W        W71503  16.226  33.127   2.237
10138W        W71504  18.632   7.796  13.924
10139W        W71505   2.953   7.846   1.291
10140W        W71506  31.552   0.874  13.496
10141W        W71507  23.172  22.595   4.770
10142W        W71508   7.267   5.268  10.643
10143W        W71509  21.538   2.373   2.867
10144W        W71510  15.239  40.879   4.283
10145W        W71511  32.981  20.728   2.340
10146W        W71512  24.157  31.943   3.709
10147W        W71513  24.688  30.937  11.515
10148W        W71514  12.224  31.005   0.275
10149W        W71515  26.702   4.220   0.369
10150W        W71516   0.316  26.115  14.837
10151W        W71517  15.095  18.205  12.354
10152W        W71518  29.432  32.109  13.039
10153W        W71519   0.847  31.939   4.225
10154W        W71520  37.487  39.898  11.885
10155W        W71521  13.676  42.966  11.943
10156W        W71522  10.831  13.238   0.908
10157W        W71523  39.549  10.288  11.115
10158W        W71524   5.859   1.370  13.495
10159W        W71525   2.229  15.178  11.437
10160W        W71526   8.265  38.378   4.177
10161W        W71527  43.978   6.212  12.043
10162W        W71528   5.886  35.422  12.395
10163W        W71529   7.674  23.067  13.849
10164W        W71530  19.763   4.764   3.720
10165W        W71531  16.194  29.011  12.562
10166W        W71532  20.200  26.489  14.905
10167W        W71533  27.494  20.604  11.429
10168W        W71534  41.788  40.990  12.897
10169W        W71535  26.088  29.085   3.293
10170W        W71536  11.639  19.747   5.131
10171W        W71537  18.279   0.980   3.723
10172W        W71538  10.810  28.035  10.996
10173W        W71539  22.634  39.339  14.409
10174W        W71540  12.651  28.671   2.897
10175W        W71541  35.998  29.643   3.829
10176W        W71542  30.568   3.268  11.415
10177W        W71543  18.154  32.943  14.278
10178W        W71544  16.129  36.387  12.823
10179W        W71545  34.017   6.417   3.268
10180W        W71546   7.329   6.369   3.308
10181W        W71547   4.901  41.495  14.367
10182W        W71548  44.820  33.905   4.286
10183W        W71549  13.708  32.534   0.460
10184W        W71550  33.493  44.766   4.724
10185W        W71551  19.283  32.960  11.876
10186W        W71552  17.696  28.546   1.297
10187W        W71553  36.985  21.059   1.878
10188W        W71554   4.733   1.913  14.010
10189W        W71555  21.102  41.841  14.940
10190W        W71556  37.511   8.654  14.279
10191W        W71557  26.585  28.061  14.463
10192W        W71558  31.930  18.736   1.750
10193W        W71559  15.741  12.350  11.929
10194W        W71560  39.378  39.419   1.434
10195W        W71561  15.086  18.096   4.155
10196W        W71562  12.257  32.962  13.338
10197W        W71563  26.645  14.235  10.159
10198W        W71564  42.500  14.623  11.074
10199W        W71565  38.867  17.713   4.786
10200W        W71566   9.644   6.824   4.647
10201W        W71567   8.193  38.354   4.627
10202W        W71568   4.281  33.610  14.790
10203W        W71569  32.473  36.880   4.777
10204W        W71570  40.942  15.175   0.268
10205W        W71571   5.907   1.851  11.937
10206W        W71572  26.470  43.954   0.366
10207W        W71573  22.159  37.917   2.716
10208W        W71574  43.431  38.990  13.005
10209W        W71575  13.703  43.871  11.453
10210W        W71576   4.914  42.927   2.331
10211W        W71577  42.793   5.375   3.856
10212W        W71578  32.895  33.443  11.884
10213W        W71579  17.786  10.725  14.440
10214W        W71580   8.745  26.001   1.399
10215W        W71581  28.601  17.568  13.518
10216W        W71582  19.776  41.823   4.282
10217W        W71583  32.514  39.516   5.201
10218W        W71584  21.603   8.899  11.119
10219W        W71585   9.269  31.102  12.089
10220W        W71586  17.747  42.431   4.812
10221W        W71587  33.595  38.483   1.290
10222W        W71588  29.497  25.694  11.582
10223W        W71589  21.058  19.700  12.009
10224W        W71590  23.618  41.818  10.403
10225W        W71591   0.262  25.016   1.434
10226W        W71592   4.710  14.301   1.398
10227W        W71593   0.417  10.680  13.057
10228W        W71594   5.900  42.934  13.024
10229W        W71595  13.644   3.766  14.823
10230W        W71596  12.239  31.001  11.017
10231W        W71597  34.568  19.658  10.513
10232W        W71598  43.511  19.738   2.249
10233W        W71599  40.880  13.625  13.859
10234W        W71600  13.310   6.343  14.454
10235W        W71601  40.498  12.311   4.769
10236W        W71602  38.910  36.866   4.600
10237W        W71603  41.444  11.783  11.411
10238W        W71604  43.865  34.109   3.868
10239W        W71605  12.137  43.293  11.102
10240W        W71606  29.544  11.334  11.519
10241W        W71607  34.905  19.063  14.874
10242W        W71608   5.288   2.436   3.819
10243W        W71609  27.187   2.353  14.900
10244W        W71610   3.814  13.121  12.955
10245W        W71611  16.761  31.915   0.781
10246W        W71612  38.902  22.106  10.456
10247W        W71613  20.760  31.443  14.918
10248W        W71614  27.552  14.196   4.718
10249W        W71615  43.979  33.540  12.437
10250W        W71616   5.770   9.880   3.152
10251W        W71617  30.136  10.243  10.982
10252W        W71618  28.074  29.166   1.726
10253W        W71619   5.855  38.454  12.901
10254W        W71620  10.377  10.691   1.759
10255W        W71621  24.553  23.639   2.354
10256W        W71622  15.266  30.415  14.280
10257W        W71623   8.727  34.390  10.524
10258W        W71624  43.801  13.135   4.192
10259W        W71625  28.652  18.609  11.864
10260W        W71626  28.962   2.406   2.389
10261W        W71627  25.524  19.755  10.478
10262W        W71628  29.544   9.186  12.508
10263W        W71629  39.411  42.304  11.416
10264W        W71630   6.704  37.952   1.409
10265W        W71631  12.661  13.756  14.927
10266W        W71632  10.223  39.895   0.889
10267W        W71633  29.438   7.689   0.256
10268W        W71634  41.309  26.082   0.964
10269W        W71635  31.648  21.031   3.366
10270W        W71636  11.128  21.747   2.828
10271W        W71637  34.518  16.795   1.823
10272W        W71638  11.229  16.129  12.537
10273W        W71639  14.340   7.775  10.644
10274W        W71640  27.006  23.499  12.468
10275W        W71641  25.072  43.399  14.314
10276W        W71642   6.869   7.897   0.398
10277W        W71643  40.907   8.693  10.957
10278W        W71644  38.549  24.102  10.628
10279W        W71645   8.395  41.537  14.003
10280W        W71646  31.636   6.770   4.678
10281W        W71647  25.086  43.459   4.197
10282W        W71648  18.199  26.124  11.891
10283W        W71649  43.313  37.004  14.922
10284W        W71650   8.395   9.260  10.920
10285W        W71651   8.785  27.692  13.880
10286W        W71652   1.317  33.530  13.023
10287W        W71653   0.948   4.785   1.429
10288W        W71654  37.489  18.064  11.109
10289W        W71655  38.872   7.399   3.668
10290W        W71656  38.945  29.516   1.786
10291W        W71657   4.795  41.504   2.844
10292W        W71658  33.599  12.360  14.401
10293W        W71659  17.082  18.642  10.017
10294W        W71660  21.648  34.025   3.764
10295W        W71661  19.276  27.450   3.371
10296W        W71662   9.347  34.095  13.428
10297W        W71663  31.100  24.039  14.909
10298W        W71664  18.160  16.573  12.460
10299W        W71665  40.946  11.768   2.191
10300W        W71666  38.957  12.835   2.667
10301W        W71667  30.918  24.986  13.828
10302W        W71668  25.176  15.092  13.866
10303W        W71669  38.010   7.808   0.431
10304W        W71670  17.154   4.789   5.129
10305W        W71671  16.797  29.145  12.417
10306W        W71672  18.661  15.145  12.971
10307W        W71673   8.323   2.357   0.730
10308W        W71674  12.247  35.030  14.766
10309W        W71675  22.141  36.971  12.951
10310W        W71676  30.455  17.303  12.346
10311W        W71677   4.339  42.834  10.915
10312W        W71678   8.689  12.117  13.400
10313W        W71679  20.168  38.360  12.035
10314W        W71680   6.745   0.788  14.027
10315W        W71681   3.260  13.280  12.017
10316W        W71682  25.669  10.315   2.410
10317W        W71683  37.480  42.392  14.432
10318W        W71684  35.590  39.545  13.933
10319W        W71685  40.816   4.708  12.384
10320W        W71686   4.916  42.359   1.287
10321W        W71687  37.940  43.891   3.761
10322W        W71688  37.402  36.949  13.310
10323W        W71689  43.908  43.478  11.943
10324W        W71690   2.346   8.304  13.928
10325W        W71691   8.271  38.451   1.906
10326W        W71692  26.043  28.929  13.940
10327W        W71693  13.724   6.351   0.860
10328W        W71694  21.593  16.622   0.307
10329W        W71695   3.284  37.353   2.285
10330W        W71696  28.958  22.727  12.391
10331W        W71697  15.266  30.003  12.961
10332W        W71698  13.226  28.653   2.829
10333W        W71699  44.762  30.458   0.837
10334W        W71700   4.328  36.553   4.123
10335W        W71701   4.731  31.932  11.392
10336W        W71702  31.133  21.593  11.011
10337W        W71703  44.792   6.410   2.339
10338W        W71704  38.518  16.713   1.707
10339W        W71705  33.883  42.510   0.860
10340W        W71706  21.261   3.725   9.466
10341W        W71707  35.097  41.901   2.204
10342W        W71708  12.845  30.484  10.490
10343W        W71709  35.014  27.616  10.607
10344W        W71710  18.104   3.451  12.939
10345W        W71711  22.515  37.582   2.807
10346W        W71712   4.842  25.695   4.275
10347W        W71713  32.533  13.302  10.040
10348W        W71714  13.713  40.494  13.794
10349W        W71715  34.459   6.298   4.742
10350W        W71716  29.631  32.474  12.854
10351W        W71717  26.126  14.293   1.705
10352W        W71718  37.366  22.108  10.587
10353W        W71719   0.782   5.349  10.494
10354W        W71720   1.913   7.188  11.546
10355W        W71721  20.050  39.872   2.889
10356W        W71722   0.314  12.807  14.332
10357W        W71723  31.898  19.677   3.161
10358W        W71724  42.917  35.427  14.405
10359W        W71725  40.536  31.926   1.893
10360W        W71726  40.817  33.422  12.055
10361W        W71727  26.168  20.082   2.253
10362W        W71728   4.943  28.942  12.437
10363W        W71729  12.808   1.828   3.199
10364W        W71730  27.057   9.275   0.732
10365W        W71731  18.242   9.277  11.551
10366W        W71732  12.701   5.907   1.362
10367W        W71733  30.457  37.343  11.525
10368W        W71734   7.845   5.851  12.050
10369W        W71735  39.838  36.346   2.869
10370W        W71736  32.099  22.711  12.473
10371W        W71737   2.470  11.778  10.454
10372W        W71738  11.761  38.861  12.395
10373W        W71739  36.589  17.617  12.843
10374W        W71740  20.586  16.199  14.290
10375W        W71741  42.924   3.318  12.474
10376W        W71742   1.853  25.151   2.252
10377W        W71743  43.345   9.257  13.052
10378W        W71744   9.739  14.757  14.470
10379W        W71745  16.220  34.921  11.983
10380W        W71746   5.713  19.542  11.863
10381W        W71747  37.902  34.568  11.605
10382W        W71748  12.630  36.586   3.796
10383W        W71749  28.488  33.958  14.838
10384W        W71750  28.533  44.004   3.829
10385W        W71751  13.273  23.544  11.059
10386W        W71752  21.655  41.793   4.262
10387W        W71753  33.390   8.397  11.086
10388W        W71754  14.094   1.242  13.383
10389W        W71755  12.703  27.164  13.333
10390W        W71756  25.162  23.136   2.279
10391W        W71757  25.040  15.682   0.873
10392W        W71758  33.575  30.528   4.164
10393W        W71759  36.475  23.157  12.874
10394W        W71760  18.282  15.121  12.879
10395W        W71761   1.782  26.457   3.218
10396W        W71762   1.315  27.019  11.406
10397W        W71763   7.771  28.617   1.408
10398W        W71764  40.377  37.944  10.994
10399W        W71765  15.288   6.817  14.913
10400W        W71766  14.104  38.432   0.888
10401W        W71767  28.463   7.238   4.337
10402W        W71768  24.650   9.850   4.306
10403W        W71769   2.720  27.068  12.962
10404W        W71770  39.370  35.104   1.289
10405W        W71771  28.972  16.596  12.055
10406W        W71772  21.628  44.276   3.851
10407W        W71773  44.425  20.549   5.228
10408W        W71774  35.574   0.967  13.052
10409W        W71775  35.032  43.924  11.008
10410W        W71776  12.340  34.608   2.339
10411W        W71777   3.836  30.047   4.327
10412W        W71778  43.356  25.037  10.543
10413W        W71779  10.812  41.862  13.058
10414W        W71780  42.287  23.553   0.740
10415W        W71781  27.661   3.279  14.372
10416W        W71782   9.878  32.053   1.732
10417W        W71783  10.276  19.548  10.989
10418W        W71784  10.819  32.027   4.190
10419W        W71785  21.257   8.264   4.172
10420W        W71786  14.806  36.437  13.821
10421W        W71787   2.930  29.926   2.870
10422W        W71788  32.053   1.279  13.342
10423W        W71789  16.788   6.830  14.026
10424W        W71790  37.892   0.403  14.798
10425W        W71791  17.772   2.721   1.735
10426W        W71792  30.559  40.422   2.381
10427W        W71793   9.371  38.057  14.859
10428W        W71794  43.467  33.935  13.063
10429W        W71795  25.562   8.372   4.723
10430W        W71796  15.628  32.019  14.963
10431W        W71797  41.412  40.379   0.867
10432W        W71798   1.922  32.488  12.053
10433W        W71799   2.945   2.892   0.331
10434W        W71800  26.084  35.978  14.485
10435W        W71801  14.200  10.329  10.602
10436W        W71802  20.186  41.884  13.439
10437W        W71803   8.678  43.298  14.430
10438W        W71804  30.449  38.478  11.478
10439W        W71805  36.954  14.736  14.400
10440W        W71806  11.163   2.857  14.824
10441W        W71807   0.932  32.112  14.017
10442W        W71808  44.271   0.834   2.847
10443W        W71809   3.951  38.477  14.014
10444W        W71810   6.745   3.339  14.951
10445W        W71811   6.270  28.593  13.889
10446W        W71812  44.275  14.137  11.514
10447W        W71813  21.061  40.814   0.342
10448W        W71814   0.286  43.929  12.554
10449W        W71815   4.442  10.281   3.710
10450W        W71816   9.154   7.243   0.747
10451W        W71817  15.236  21.716  13.437
10452W        W71818  20.187   8.173   2.385
10453W        W71819  18.699  30.136  14.792
10454W        W71820   4.930   9.697   4.605
10455W        W71821  13.307  16.720  10.476
10456W        W71822  36.498  15.812   5.140
10457W        W71823  15.600  24.479  13.474
10458W        W71824  36.073   4.403  12.998
10459W        W71825  31.547  28.995  13.511
10460W        W71826  40.048  29.608  12.555
10461W        W71827  21.217   2.830   0.816
10462W        W71828  39.951  11.793  10.947
10463W        W71829  19.153   9.871   4.142
10464W        W71830  28.020  28.473   2.837
10465W        W71831   0.960  34.374  13.803
10466W        W71832   7.329  39.867   4.298
10467W        W71833  18.627  29.064  12.003
10468W        W71834  38.534  15.095  13.909
10469W        W71835  42.778  30.465  11.929
10470W        W71836  41.859   5.791   3.777
10471W        W71837  25.690  33.985  13.049
10472W        W71838  40.916  22.545   4.604
10473W        W71839  37.351  25.213  13.023
10474W        W71840   3.222  29.095   3.785
10475W        W71841  31.434  32.007   2.199
10476W        W71842  27.093  14.191  12.356
10477W        W71843  11.231  36.904   4.321
10478W        W71844  17.647  40.018   1.363
10479W        W71845  17.124  15.736  11.879
10480W        W71846  12.641   9.726   4.136
10481W        W71847   9.668  39.967   2.707
10482W        W71848   0.489  37.489   1.319
10483W        W71849  24.500   9.236  11.501
10484W        W71850   3.373  24.105  11.887
10485W        W71851   4.859  21.523  13.907
10486W        W71852   5.265  17.673  10.584
10487W        W71853  33.508  40.875  13.510
10488W        W71854  37.391   8.370  11.975
10489W        W71855  41.888  40.924  13.442
10490W        W71856  39.010  14.749  14.826
10491W        W71857  21.548  41.863   0.387
10492W        W71858  42.801  18.134   0.345
10493W        W71859  37.993  35.935  10.160
10494W        W71860   5.824  15.233   4.641
10495W        W71861   3.853  34.520   2.698
10496W        W71862  43.498  14.658  10.443
10497W        W71863   9.734  40.420   2.779
10498W        W71864  32.461  31.460  14.829
10499W        W71865  15.083  32.910  11.548
10500W        W71866  30.432   6.764  13.343
10501W        W71867  27.184  42.389  13.860
10502W        W71868  43.951  32.429   4.644
10503W        W71869  17.802  17.165   2.703
10504W        W71870  33.884  34.469   3.638
10505W        W71871   2.454   4.855   2.389
10506W        W71872  39.409  37.969   1.729
10507W        W71873  39.854   9.248   1.320
10508W        W71874  16.181  41.358   1.274
10509W        W71875  36.397  28.139   2.692
10510W        W71876  40.952  28.130  13.317
10511W        W71877  17.721  30.912   0.431
10512W        W71878   5.696  38.325  12.514
10513W        W71879  28.986  20.587  13.443
10514W        W71880  22.193  26.003   0.392
10515W        W71881  27.002  37.047   2.900
10516W        W71882  41.510  30.080  13.932
10517W        W71883  35.989  39.525   4.268
10518W        W71884  34.391  29.009  11.482
10519W        W71885  16.288  12.301   0.947
10520W        W71886  15.699   9.340  14.281
10521W        W71887  19.629  26.051   0.873
10522W        W71888  30.621  16.296   0.263
10523W        W71889   2.416  36.029  13.815
10524W        W71890   9.214  14.231   4.161
10525W        W71891  22.595  41.325   2.240
10526W        W71892  25.566  33.455  13.522
10527W        W71893  14.212   6.876  13.053
10528W        W71894  32.929  31.499  14.362
10529W        W71895   9.708  40.414  11.451
10530W        W71896  33.025  39.824   1.286
10531W        W71897  10.717   1.953   2.415
10532W        W71898  36.485  39.896   0.379
10533W        W71899  14.657  34.422  14.770
10534W        W71900  32.982  34.895   1.934
10535W        W71901   8.875  13.762   1.887
10536W        W71902  24.610  32.128  14.866
10537W        W71903  17.691  37.877   1.863
10538W        W71904  27.963  43.918  14.463
10539W        W71905  27.153  19.144  14.442
10540W        W71906  23.538   9.206  11.568
10541W        W71907   2.401  14.329  11.401
10542W        W71908  13.833  42.986   4.758
10543W        W71909  29.047  42.428   4.627
10544W        W71910  27.129  33.921  14.908
10545W        W71911  19.057   0.378   1.906
10546W        W71912   8.214  12.289   1.782
10547W        W71913  13.237  42.407   4.632
10548W        W71914  39.818   6.751   4.224
10549W        W71915  24.479  24.599   1.259
10550W        W71916  40.883  30.535  12.556
10551W        W71917  32.501   0.314  14.322
10552W        W71918   2.892  15.668  11.482
10553W        W71919  27.991  36.070   2.245
10554W        W71920  31.914  44.998  12.905
10555W        W71921   3.310  24.207   2.737
10556W        W71922  28.971  11.292  11.022
10557W        W71923  37.028  29.530   1.336
10558W        W71924  25.018   7.756   0.428
10559W        W71925  12.845  27.455  14.792
10560W        W71926  32.432  40.924  11.374
10561W        W71927  10.646  43.787   1.886
10562W        W71928  12.631  37.531  10.924
10563W        W71929  21.211  24.593   2.834
10564W        W71930   0.884  20.533  12.483
10565W        W71931   0.785  13.266   1.792
10566W        W71932  20.545   2.922   2.816
10567W        W71933  37.460   4.273   4.799
10568W        W71934  14.718  22.162  14.384
10569W        W71935  41.787  26.139   3.240
10570W        W71936  33.622  44.992   5.211
10571W        W71937  38.484  15.222   2.320
10572W        W71938  19.686  25.559   3.225
10573W        W71939  25.027  37.533   3.251
10574W        W71940  18.675  27.983   2.198
10575W        W71941  17.694  24.597  12.363
10576W        W71942  16.200  17.115  10.463
10577W        W71943  18.704  19.575   3.319
10578W        W71944  14.202  17.791   0.855
10579W        W71945  24.080  41.995  14.353
10580W        W71946  23.600   1.858   0.449
10581W        W71947  26.968   3.795   4.251
10582W        W71948  15.230  40.041   1.840
10583W        W71949  34.400  13.251  13.054
10584W        W71950   6.850  44.955   1.770
10585W        W71951  14.831  41.803   5.164
10586W        W71952   0.341   5.924  14.995
10587W        W71953  30.574  30.619   1.357
10588W        W71954  40.890   7.413   2.407
10589W        W71955  21.598  11.306   2.204
10590W        W71956   2.833  36.444   2.417
10591W        W71957   5.788  34.888   0.896
10592W        W71958   4.360   7.725  12.909
10593W        W71959  15.166  15.215   3.866
10594W        W71960  11.830  28.933   2.778
10595W        W71961  34.480  27.585  13.974
10596W        W71962   5.846  17.296  14.313
10597W        W71963  33.419  23.667   0.905
10598W        W71964  11.143  32.475   1.845
10599W        W71965  38.439  19.160  10.558
10600W        W71966   2.259  25.201  10.120
10601W        W71967  24.580  16.719   2.811
10602W        W71968   9.780  37.986  10.496
10603W        W71969  41.987  16.744   2.900
10604W        W71970  29.932  37.541  12.518
10605W        W71971  28.525  16.796  12.542
10606W        W71972   5.831  24.207   2.238
10607W        W71973   0.452  24.218  12.373
10608W        W71974  19.568  36.540  12.520
10609W        W71975  31.407  23.566   3.697
10610W        W71976  41.930  33.937   2.898
10611W        W71977   5.817   5.342   2.721
10612W        W71978  31.129  44.974   1.764
10613W        W71979  31.123  17.151  12.340
10614W        W71980   6.277   7.699   0.429
10615W        W71981  40.326  33.535  11.498
10616W        W71982   4.803  40.331   0.461
10617W        W71983  23.051  23.015  13.987
10618W        W71984  19.541   5.344  10.905
10619W        W71985  18.296  29.143  12.998
10620W        W71986  20.628  26.553   4.726
10621W        W71987  33.425  13.310  11.003
10622W        W71988   3.753  33.477  11.979
10623W        W71989  25.672  22.171  14.998
10624W        W71990  33.458  28.117  12.080
10625W        W71991   3.956  33.536  14.442
10626W        W71992   7.193  44.829  10.960
10627W        W71993  25.643  41.865  14.432
10628W        W71994  41.967   2.756  11.391
10629W        W71995  32.103  13.829  12.517
10630W        W71996  17.736   1.737  11.900
10631W        W71997  18.545  13.220   4.143
10632W        W71998  12.262  44.834  14.958
10633W        W71999  15.199  39.473   1.408
10634W        W72000   6.796  33.614  10.471
10635W        W72001  17.586  12.349  11.910
10636W        W72002   8.690  41.517  11.937
10637W        W72003   3.427  27.121   2.846
10638W        W72004  33.586  18.706   1.254
10639W        W72005  22.241   9.304  12.954
10640W        W72006  29.035   6.426  13.310
10641W        W72007  13.616  42.919   3.306
10642W        W72008  21.087   4.851   2.251
10643W        W72009  20.623  20.094   1.750
10644W        W72010  42.842  20.524  13.484
10645W        W72011  16.789   8.890  12.086
10646W        W72012  38.940  37.556  13.528
10647W        W72013  15.725  18.667   9.933
10648W        W72014  15.298  17.196  10.599
10649W        W72015   7.801  15.310   5.200
10650W        W72016  15.317  13.336   9.617
10651W        W72017  44.801  40.828   1.397
10652W        W72018   9.702  40.516  12.420
10653W        W72019  15.162  18.260  10.451
10654W        W72020  14.796  25.627   1.297
10655W        W72021  19.075   5.370   2.205
10656W        W72022  22.514  19.257   1.751
10657W        W72023   0.922   4.408  10.544
10658W        W72024  13.760  21.662  11.075
10659W        W72025  38.993  36.854   0.324
10660W        W72026  18.062  43.307   4.686
10661W        W72027  11.233  18.765  12.396
10662W        W72028  25.511   4.821   0.463
10663W        W72029  29.520  37.411  11.406
10664W        W72030  26.682  12.768  10.554
10665W        W72031   1.778  34.989   2.353
10666W        W72032   5.253  24.989  14.993
10667W        W72033  13.741  44.930  10.432
10668W        W72034  19.616  14.099  12.907
10669W        W72035   1.812  39.550  13.378
10670W        W72036   3.795   1.389   3.251
10671W        W72037  20.227  20.095  11.414
10672W        W72038  23.541  36.419   2.863
10673W        W72039  29.515  31.640   4.215
10674W        W72040  10.299  29.641  10.422
10675W        W72041  22.681   8.355   3.716
10676W        W72042   5.306  29.005  12.936
10677W        W72043   5.802  23.167  13.870
10678W        W72044  35.060  11.843   2.764
10679W        W72045  41.356   1.404   4.172
10680W        W72046  30.979  17.134  13.042
10681W        W72047   2.899  19.063  11.896
10682W        W72048  11.370  14.829   0.319
10683W        W72049  27.603   9.786   2.380
10684W        W72050  25.705  36.061   2.876
10685W        W72051  31.132  37.492   3.365
10686W        W72052  38.436  20.226  13.333
10687W        W72053  32.579  25.525  12.479
10688W        W72054  24.487  41.319   2.217
10689W        W72055  29.923  35.018   4.690
10690W        W72056   5.848  12.853   4.736
10691W        W72057  33.065  25.165  10.576
10692W        W72058  33.439   9.816  10.890
10693W        W72059  32.923   9.846   3.722
10694W        W72060  16.288  30.096   3.252
10695W        W72061  10.684  15.206  14.318
10696W        W72062  21.532  31.050   4.718
10697W        W72063  21.259  30.114  11.477
10698W        W72064   9.745  25.669   4.297
10699W        W72065  16.208  17.168  10.089
10700W        W72066  19.540   2.725  12.975
10701W        W72067  17.751  31.147   4.178
10702W        W72068  29.027  44.995  13.395
10703W        W72069  16.591   2.828  11.924
10704W        W72070  16.684  12.324   0.800
10705W        W72071  37.976  42.282   1.860
10706W        W72072  22.631   1.290   4.827
10707W        W72073   8.714  12.784  13.046
10708W        W72074  14.830  17.275   3.196
10709W        W72075  31.107  30.592   1.723
10710W        W72076   1.751  26.626  10.583
10711W        W72077  36.866   6.911  12.400
10712W        W72078  26.075  19.204  13.454
10713W        W72079   6.912   6.814   2.345
10714W        W72080   2.784   4.336  14.303
10715W        W72081   1.264   8.368   1.446
10716W        W72082  32.596  44.272   3.740
10717W        W72083   3.324  25.083  13.925
10718W        W72084  43.353  14.795   4.228
10719W        W72085  25.186  10.280  12.063
10720W        W72086  13.181  34.938  10.583
10721W        W72087  28.561   0.368   1.921
10722W        W72088  40.380   3.817  12.375
10723W        W72089  25.683   2.393   0.911
10724W        W72090  34.948   3.904  12.893
10725W        W72091  22.012   2.907   2.232
10726W        W72092  20.102  11.304  12.447
10727W        W72093  20.268  30.651   2.862
10728W        W72094  34.382   7.184  13.939
10729W        W72095  42.295   5.286   2.834
10730W        W72096  27.463   6.425  13.059
10731W        W72097  43.849  32.962   0.387
10732W        W72098  34.389   8.703  10.462
10733W        W72099   1.797  22.717   0.359
10734W        W72100  39.560  27.518  11.049
10735W        W72101  23.233   7.354   1.856
10736W        W72102  15.100  41.445  11.440
10737W        W72103  40.350  22.655   2.882
10738W        W72104  29.518  33.466   1.387
10739W        W72105  21.597   7.410  12.561
10740W        W72106  34.378  21.650  13.924
10741W        W72107  30.139  26.024   0.760
10742W        W72108  35.543   9.859   0.793
10743W        W72109  42.467  35.919   0.313
10744W        W72110  29.051  20.738  11.925
10745W        W72111  34.549  13.629   1.707
10746W        W72112  18.562  38.830   4.616
10747W        W72113  14.164   6.375   3.278
10748W        W72114  34.024  14.214  12.828
10749W        W72115  26.987   8.891  12.550
10750W        W72116  40.053  11.273  12.074
10751W        W72117  43.879  29.559  12.536
10752W        W72118  22.735  21.075   1.765
10753W        W72119   0.775  44.498  12.351
10754W        W72120  41.007  15.613  11.934
10755W        W72121  18.791  42.881  14.395
10756W        W72122  21.575  24.975  14.468
10757W        W72123  20.263   4.441  11.439
10758W        W72124  14.199  11.196  11.511
10759W        W72125  12.640  38.503  13.900
10760W        W72126  30.049   3.872   0.439
10761W        W72127  23.535  44.883  11.906
10762W        W72128  40.444  19.573   2.181
10763W        W72129  24.060  18.271  14.834
10764W        W72130  19.155   3.459   4.183
10765W        W72131  33.453   7.276   3.658
10766W        W72132  28.082  32.603  10.989
10767W        W72133  24.104  42.424   1.752
10768W        W72134  13.631  25.009   1.841
10769W        W72135  41.529   6.806  12.033
10770W        W72136  32.553   3.843   3.352
10771W        W72137   0.989  12.355   3.790
10772W        W72138  23.622   4.828  12.449
10773W        W72139   6.318   6.198  10.594
10774W        W72140   2.746   8.394   2.375
10775W        W72141  23.214  22.245   2.766
10776W        W72142  35.389  32.431   4.270
10777W        W72143  21.115   4.342   2.401
10778W        W72144  19.748  35.390   3.857
10779W        W72145  20.622  14.168  10.580
10780W        W72146  11.849  19.085  11.594
10781W        W72147  14.659  21.260   3.237
10782W        W72148   7.729   0.808   3.650
10783W        W72149  23.691  15.706  11.049
10784W        W72150   0.907  41.506  14.502
10785W        W72151  28.509  40.442   4.696
10786W        W72152  39.508   8.399  12.536
10787W        W72153   9.224  39.443   2.841
10788W        W72154  34.991  26.664   9.994
10789W        W72155  20.168   9.884  14.970
10790W        W72156  26.997  37.452  14.022
10791W        W72157  40.005  30.978  10.455
10792W        W72158   0.866  30.452   2.222
10793W        W72159  32.583  38.920  14.308
10794W        W72160  38.042  20.740  10.569
10795W        W72161   0.779  31.961  14.331
10796W        W72162  35.035  18.618   0.811
10797W        W72163   6.877  43.792  14.323
10798W        W72164  39.937   5.922   1.350
10799W        W72165  37.576  29.106  10.577
10800W        W72166  33.601  31.470  13.995
10801W        W72167  21.645  39.438   2.744
10802W        W72168  17.726   4.737   4.720
10803W        W72169  36.867  21.165  12.469
10804W        W72170  24.582  35.890   0.805
10805W        W72171  31.103  36.083   0.471
10806W        W72172  26.471  27.079  13.324
10807W        W72173  26.990  13.755   3.369
10808W        W72174  22.594  21.668   0.801
10809W        W72175  32.990  44.386   2.874
10810W        W72176  19.055  17.708   4.748
10811W        W72177  17.068   8.738   5.230
10812W        W72178  39.023  35.018  12.474
10813W        W72179  34.524  42.846  13.030
10814W        W72180  18.223  26.559   3.651
10815W        W72181  21.207  43.443   4.230
10816W        W72182  18.255  30.482   2.288
10817W        W72183  28.530  31.933   1.744
10818W        W72184  35.097   8.882  14.395
10819W        W72185  14.097  37.897   2.697
10820W        W72186   7.704  13.632  13.340
10821W        W72187  26.987  29.603   3.851
10822W        W72188  30.018  44.843  12.942
10823W        W72189  35.029  22.132   2.851
10824W        W72190  31.604  32.450   0.334
10825W        W72191   0.372   9.342  10.537
10826W        W72192   7.912  29.462  14.360
10827W        W72193  25.147  32.475   1.384
10828W        W72194  27.529  30.068  12.532
10829W        W72195  33.102  22.553   2.265
10830W        W72196  29.424  29.112   1.769
10831W        W72197   4.359  22.704   0.332
10832W        W72198   4.829  31.436  13.406
10833W        W72199  33.517   6.396  14.471
10834W        W72200  41.817  24.009  14.367
10835W        W72201  40.455  42.966   3.183
10836W        W72202  36.399  16.808  11.607
10837W        W72203  26.077  30.542  12.004
10838W        W72204   8.854  40.461  10.566
10839W        W72205  41.868  43.420   4.804
10840W        W72206  29.938   8.771  13.050
10841W        W72207  16.745   7.741  13.307
10842W        W72208  44.335   9.714   0.805
10843W        W72209  26.021  38.034   2.355
10844W        W72210   6.899  27.975   1.900
10845W        W72211   1.889  24.614   4.280
10846W        W72212  30.612  21.626   4.826
10847W        W72213  36.570   0.261  14.287
10848W        W72214  40.489   1.425   2.297
10849W        W72215  39.325  21.715  11.524
10850W        W72216  17.104  44.000  14.412
10851W        W72217  14.263  33.609   4.828
10852W        W72218  41.485  35.564  11.938
10853W        W72219  37.474  39.444  12.528
10854W        W72220   5.397  12.218   4.242
10855W        W72221  12.259  38.370   2.794
10856W        W72222  27.505  37.007  11.601
10857W        W72223  41.881  22.207   4.198
10858W        W72224  14.306  39.421  14.994
10859W        W72225   9.391  15.729   3.722
10860W        W72226  22.124  31.573   4.689
10861W        W72227  16.274  30.950  13.911
10862W        W72228  11.622   1.281  13.014
10863W        W72229  36.411   7.848  11.855
10864W        W72230  34.109  24.069  14.872
10865W        W72231  35.915  20.176   4.183
10866W        W72232  29.134  19.778  12.023
10867W        W72233  41.523  27.448   2.795
10868W        W72234  29.141  31.031   4.707
10869W        W72235   0.383  15.754   4.292
10870W        W72236  28.512  29.441   1.868
10871W        W72237   5.864  26.014  13.882
10872W        W72238  43.333  22.694  13.967
10873W        W72239   9.337  11.822   0.389
10874W        W72240  16.203  15.096  14.283
10875W        W72241   7.700  22.039   2.282
10876W        W72242  36.538  25.087   4.219
10877W        W72243   4.320   4.205   0.802
10878W        W72244  35.978   6.408  11.888
10879W        W72245  44.496  36.965   4.832
10880W        W72246  31.465  27.189   0.415
10881W        W72247  17.232  39.519  11.479
10882W        W72248  25.505  32.976  11.052
10883W        W72249  14.739  35.009   9.938
10884W        W72250   7.728   0.789   5.301
10885W        W72251  26.489  37.337  14.020
10886W        W72252  32.078  22.011   1.392
10887W        W72253   0.986   7.717   4.160
10888W        W72254  10.738   6.345   1.267
10889W        W72255   6.835  10.255   1.235
10890W        W72256  20.066  33.506   1.354
10891W        W72257  15.598  27.560  14.839
10892W        W72258  31.943  25.015   3.834
10893W        W72259  17.151   7.231   1.306
10894W        W72260  39.937  25.683   1.763
10895W        W72261  41.878   3.720  13.017
10896W        W72262  38.869  19.223  12.953
10897W        W72263  36.491  41.360   3.845
10898W        W72264  31.975  33.559  14.365
10899W        W72265  36.971  23.186   4.157
10900W        W72266  16.102   6.420  13.379
10901W        W72267  43.890  26.179   2.270
10902W        W72268   1.444   3.912   2.730
10903W        W72269  26.562  10.187   0.844
10904W        W72270  21.707   2.341  11.086
10905W        W72271  15.597  13.348   5.207
10906W        W72272  25.588   2.846   2.287
10907W        W72273  26.698   9.249   0.865
10908W        W72274  20.643  41.020   3.247
10909W        W72275   8.161  41.849  11.592
10910W        W72276  15.742   0.444   2.806
10911W        W72277  36.848  10.850   2.757
10912W        W72278   0.297   2.242  14.486
10913W        W72279  31.446  30.146  12.073
10914W        W72280   8.239  42.289   1.427
10915W        W72281  20.074  29.666  10.483
10916W        W72282   8.851  19.204   0.781
10917W        W72283   2.348   0.825   4.728
10918W        W72284   1.283  13.748  11.468
10919W        W72285  35.372  15.787  13.802
10920W        W72286  43.312  17.283  14.289
10921W        W72287  18.286  28.068  10.549
10922W        W72288  22.099  41.889   0.861
10923W        W72289  44.300  20.197  13.803
10924W        W72290  43.410  11.651  11.947
10925W        W72291  16.692  41.388   2.355
10926W        W72292   9.385  41.516   0.866
10927W        W72293  10.278  12.633   3.197
10928W        W72294  30.989   4.855  11.565
10929W        W72295   9.375  31.534   2.387
10930W        W72296  12.314  37.432   2.253
10931W        W72297  39.903  39.517  14.874
10932W        W72298   0.410   1.956   2.301
10933W        W72299  28.533  35.542  11.979
10934W        W72300  29.984  23.718  13.844
10935W        W72301  19.064  20.551   4.675
10936W        W72302  40.911  13.780   3.854
10937W        W72303  41.891   8.886   5.087
10938W        W72304  15.180  41.956   3.370
10939W        W72305  35.967   0.942  14.956
10940W        W72306  38.490  17.186  13.443
10941W        W72307  20.765  33.117   3.744
10942W        W72308  25.088  44.757  12.358
10943W        W72309  41.817  40.322  12.051
10944W        W72310  16.243  44.411   1.328
10945W        W72311   8.705  23.088   4.211
10946W        W72312  37.874  21.619   3.728
10947W        W72313  35.367  12.145  14.819
10948W        W72314   3.806  19.648   0.957
10949W        W72315   1.922  35.984   3.779
10950W        W72316  30.579  37.039  13.845
10951W        W72317  39.984   0.869   1.329
10952W        W72318  15.328  28.968  10.556
10953W        W72319  25.180  21.100  12.920
10954W        W72320  33.472  42.330   2.852
10955W        W72321  13.248  21.182  13.535
10956W        W72322  21.600  18.278  12.539
10957W        W72323  42.873   6.291  14.016
10958W        W72324  32.429  11.241  13.900
10959W        W72325  40.926  18.753  13.420
10960W        W72326  22.107   1.841   0.249
10961W        W72327  17.140  44.331  13.526
10962W        W72328  27.072   1.423   2.885
10963W        W72329  18.202  41.388   3.710
10964W        W72330  37.529   3.402  12.910
10965W        W72331   1.401  33.014   1.413
10966W        W72332  43.445   5.270   2.774
10967W        W72333   0.827  32.091  10.130
10968W        W72334  44.854   2.749   3.160
10969W        W72335   5.718  16.089  13.974
10970W        W72336   1.829  42.317   2.332
10971W        W72337   7.230  36.563  12.089
10972W        W72338   1.245   8.738   4.275
10973W        W72339  20.676  18.772  13.041
10974W        W72340   3.924  11.370   1.280
10975W        W72341  34.553   5.263  13.056
10976W        W72342  12.256  19.107  10.474
10977W        W72343  39.966  36.071  10.948
10978W        W72344  31.131  41.863  10.558
10979W        W72345  22.650  17.206   3.321
10980W        W72346  26.042   8.169   0.740
10981W        W72347  15.755  10.833  13.454
10982W        W72348  42.983  17.141   3.753
10983W        W72349  31.051  34.967  13.390
10984W        W72350  32.894   7.249   0.465
10985W        W72351  24.171  40.874  11.399
10986W        W72352  21.572  30.438   2.711
10987W        W72353  28.549   0.897  11.031
10988W        W72354  27.147  18.713  11.521
10989W        W72355  22.540  35.580   2.378
10990W        W72356  34.870   2.819   0.798
10991W        W72357   8.705  25.547   5.185
10992W        W72358  17.785   1.438   4.787
10993W        W72359   2.279  32.962  13.449
10994W        W72360  43.907  14.257   2.291
10995W        W72361   1.806  29.147   1.905
10996W        W72362  12.773   4.746   1.831
10997W        W72363   1.924  29.480   4.189
10998W        W72364  36.870  13.252   2.386
10999W        W72365  18.175   1.323   1.856
11000W        W72366  11.308  14.815  10.585
11001W        W72367  38.955  12.718   3.818
11002W        W72368   5.783  33.427  11.895
11003W        W72369   8.715   0.487   4.215
11004W        W72370  35.930  42.408   0.735
11005W        W72371  30.617  13.330  14.410
11006W        W72372   9.388   0.251  13.874
11007W        W72373  35.523  26.627   1.750
11008W        W72374  33.606  12.663  13.426
11009W        W72375  28.969  30.919   1.923
11010W        W72376  34.382  11.740  11.469
11011W        W72377  39.349   8.736   1.793
11012W        W72378  15.647  41.975   2.812
11013W        W72379  10.362   9.196   1.430
11014W        W72380  35.561  12.219  10.542
11015W        W72381  38.424  22.047   2.309
11016W        W72382  13.769  33.112   0.903
11017W        W72383  18.675  29.109   1.749
11018W        W72384   6.214   6.796   4.623
11019W        W72385  23.503  16.280  11.928
11020W        W72386   6.791  33.604   2.729
11021W        W72387   9.204   3.424   2.672
11022W        W72388  34.908   9.193   2.804
11023W        W72389  30.065  36.407   3.249
11024W        W72390  13.199  24.116  10.413
11025W        W72391  16.603  31.009   3.819
11026W        W72392  28.065   2.738  11.120
11027W        W72393  41.887   5.928   1.242
11028W        W72394  39.448  26.677   3.317
11029W        W72395  25.063   4.739   1.735
11030W        W72396  18.063  41.853   4.833
11031W        W72397   3.818  25.112   2.195
11032W        W72398  29.984   7.344   1.889
11033W        W72399  32.930  33.895   2.728
11034W        W72400  24.570  16.671   4.772
11035W        W72401  40.542   3.309  11.492
11036W        W72402   1.343  27.188   4.158
11037W        W72403  27.655   1.405  12.495
11038W        W72404  28.171   9.156   2.663
11039W        W72405  10.805  23.518  13.856
11040W        W72406  19.222  21.629  14.380
11041W        W72407   5.714   9.740  12.894
11042W        W72408  42.494  32.050   2.339
11043W        W72409  38.848  30.104   4.721
11044W        W72410  12.194   8.385  12.347
11045W        W72411  25.557  13.748   1.276
11046W        W72412  24.527   2.847   0.954
11047W        W72413  10.350  35.360  13.331
11048W        W72414   4.260  15.749   2.396
11049W        W72415  23.643  14.674  12.861
11050W        W72416  39.551  36.587   2.798
11051W        W72417  20.566   9.735   3.755
11052W        W72418  26.047  11.309   0.422
11053W        W72419   5.706   8.395   0.344
11054W        W72420  39.027  20.558  11.415
11055W        W72421  43.470  38.463   4.664
11056W        W72422  44.989   9.242   4.687
11057W        W72423  28.148  27.045   4.236
11058W        W72424  24.701  27.678   3.274
11059W        W72425  34.482  37.362   5.124
11060W        W72426   1.290  31.032   0.844
11061W        W72427  18.615  28.020  14.978
11062W        W72428  34.883  16.768  14.792
11063W        W72429  20.608  27.542  14.377
11064W        W72430  11.796  28.105   3.700
11065W        W72431  13.329  29.594  11.588
11066W        W72432  38.367   0.830   4.771
11067W        W72433  12.797  34.487   2.313
11068W        W72434  18.199   3.847  12.376
11069W        W72435  32.499  23.654   5.271
11070W        W72436  43.807  30.989  10.407
11071W        W72437  11.222  35.567   4.749
11072W        W72438  19.548  36.443   2.881
11073W        W72439  34.877  27.162  11.529
11074W        W72440   1.440  19.247   4.193
11075W        W72441  10.348  29.016  14.329
11076W        W72442  22.148  12.654  10.407
11077W        W72443  27.682   8.727  12.507
11078W        W72444   1.744  15.687   2.711
11079W        W72445  17.656  34.870   4.805
11080W        W72446   5.297   2.382   5.743
11081W        W72447  36.447   0.256   1.811
11082W        W72448  23.658  13.296   2.328
11083W        W72449   7.732  43.448  11.966
11084W        W72450  36.872  11.660  11.041
11085W        W72451  31.524  41.457  14.303
11086W        W72452  19.759   3.369   3.184
11087W        W72453  43.843  28.946   2.391
11088W        W72454  38.488  21.037  10.090
11089W        W72455   2.318  12.786   5.282
11090W        W72456  11.319   4.833  12.970
11091W        W72457  14.816  18.141   4.738
11092W        W72458  20.682  26.686  11.079
11093W        W72459  38.830   5.866   4.795
11094W        W72460  27.999  42.339   4.785
11095W        W72461  24.144  13.190  11.000
11096W        W72462  34.873   4.765   3.186
11097W        W72463  44.375  26.520   0.910
11098W        W72464  44.887   8.761  13.970
11099W        W72465  10.775   6.792  11.110
11100W        W72466  34.977  22.227   0.872
11101W        W72467  13.166  43.512   1.908
11102W        W72468   0.803  27.607  12.927
11103W        W72469  42.797  18.294  13.813
11104W        W72470  20.111  32.539  11.515
11105W        W72471  39.868  16.300   2.414
11106W        W72472   8.877  27.496   2.695
11107W        W72473  22.010  15.664   4.603
11108W        W72474  37.528  31.050   2.206
11109W        W72475  34.437   8.254   0.256
11110W        W72476  22.143  40.346  14.323
11111W        W72477   3.849  18.199  14.877
11112W        W72478   9.165   0.822  11.588
11113W        W72479  18.058   6.806   1.368
11114W        W72480   8.308  28.980  12.921
11115W        W72481  17.672   0.406   2.289
11116W        W72482  30.526  32.037  10.086
11117W        W72483  26.029  25.000  10.472
11118W        W72484  42.866  37.515  13.868
11119W        W72485   7.667  31.513   1.832
11120W        W72486  14.799   1.974   0.253
11121W        W72487  16.187  38.565  13.868
11122W        W72488  29.502  39.408  12.031
11123W        W72489   0.919  26.611  13.852
11124W        W72490  30.579  44.820   0.754
11125W        W72491   1.378  44.868  13.546
11126W        W72492  42.289  35.069  13.865
11127W        W72493  37.510   5.319   1.278
11128W        W72494  13.119  35.468   2.382
11129W        W72495   6.901  18.118  12.372
11130W        W72496   7.722  13.720  13.925
11131W        W72497  24.223   3.353  13.830
11132W        W72498  41.860  36.399   2.229
11133W        W72499  35.886   3.375  11.507
11134W        W72500  35.490   2.734   1.796
11135W        W72501  22.029  11.681   1.701
11136W        W72502  20.256  40.439   0.465
11137W        W72503   4.309  29.010  10.948
11138W        W72504  14.145  33.537   3.353
11139W        W72505  37.011   1.749  12.524
11140W        W72506  24.000  11.660   2.783
11141W        W72507   7.236  18.192  12.448
11142W        W72508  34.579   1.817  12.059
11143W        W72509  43.360  32.618   2.257
11144W        W72510  11.182  17.577  12.095
11145W        W72511   2.289  41.347  13.903
11146W        W72512  24.501  37.867  14.798
11147W        W72513   5.306  43.799   2.747
11148W        W72514   8.167  40.355   4.801
11149W        W72515   1.397  41.029  10.514
11150W        W72516   8.245  35.435  11.402
11151W        W72517  34.583  13.207   3.270
11152W        W72518  32.429  25.031   4.733
11153W        W72519   9.183  33.592  10.484
11154W        W72520  25.968  42.783   1.382
11155W        W72521   3.381  20.096  13.921
11156W        W72522   7.763  32.932   2.290
11157W        W72523  17.785  15.117  12.414
11158W        W72524   1.251  23.644  14.355
11159W        W72525  20.126  18.284   0.455
11160W        W72526  11.271  15.191   3.362
11161W        W72527  30.576   2.728  12.918
11162W        W72528  13.747  12.268   3.661
11163W        W72529  24.016   1.447  13.528
11164W        W72530  17.669  12.307   2.820
11165W        W72531  35.043  29.145   2.837
11166W        W72532  40.011  20.203  12.866
11167W        W72533  13.801  19.725   3.836
11168W        W72534   8.874   8.347  10.923
11169W        W72535  12.160   1.785  14.812
11170W        W72536  24.510  35.058   1.909
11171W        W72537  44.983  43.487   2.223
11172W        W72538  17.273   8.307  11.452
11173W        W72539  11.176  15.617  12.951
11174W        W72540   6.699  19.727  12.339
11175W        W72541  30.606  38.873  12.939
11176W        W72542   4.784  21.615   0.404
11177W        W72543  34.025  44.994   3.634
11178W        W72544  36.525   8.250   4.130
11179W        W72545  39.817  10.673  14.365
11180W        W72546  37.924   6.892  12.485
11181W        W72547  27.019  17.741   1.891
11182W        W72548  15.590  17.211   4.169
11183W        W72549   7.733  13.106  14.833
11184W        W72550   4.836  44.928   2.895
11185W        W72551  33.411   0.761   3.826
11186W        W72552  31.913  36.463   0.481
11187W        W72553   2.459  19.726   2.204
11188W        W72554  34.971  16.796  14.495
11189W        W72555  35.890  20.129   2.361
11190W        W72556  33.976  11.159  12.079
11191W        W72557  13.151   4.882  13.998
11192W        W72558  44.461  38.926  11.446
11193W        W72559  10.841  29.639   3.273
11194W        W72560  13.142  14.685   4.599
11195W        W72561   8.726  36.363  14.516
11196W        W72562  40.490  41.517  12.567
11197W        W72563  38.875   2.391  10.917
11198W        W72564   3.232  37.841   3.771
11199W        W72565   7.342  18.283  11.963
11200W        W72566  11.751  40.538   3.634
11201W        W72567  23.658   2.794  11.951
11202W        W72568  26.668   8.304  14.315
11203W        W72569  13.697  17.290   1.905
11204W        W72570  38.520  29.064   1.696
11205W        W72571  10.282  43.860  11.434
11206W        W72572  27.471   7.261  10.454
11207W        W72573  23.212  12.157   1.733
11208W        W72574  23.684  33.999   4.730
11209W        W72575  22.085  19.595  10.437
11210W        W72576  18.648  21.117   4.142
11211W        W72577  27.524  29.099  13.390
11212W        W72578  37.897  13.143   4.283
11213W        W72579  24.093  11.200   2.318
11214W        W72580  29.086  22.738  12.046
11215W        W72581  38.418  12.155   2.798
11216W        W72582  32.432   4.825  11.978
11217W        W72583  10.839  16.759  11.971
11218W        W72584  35.911  34.470   3.321
11219W        W72585  19.710  16.280  12.387
11220W        W72586  31.059  29.663   2.677
11221W        W72587  21.545  44.318  13.001
11222W        W72588  25.194  20.028   1.789
11223W        W72589  23.028  12.180   4.351
11224W        W72590  39.504   7.239  10.527
11225W        W72591   7.286  31.610   0.906
11226W        W72592  28.574  11.207   2.869
11227W        W72593   2.737  13.630   3.277
11228W        W72594  42.013  32.080   1.757
11229W        W72595  28.600  19.134   2.860
11230W        W72596   7.383  30.003   3.757
11231W        W72597   6.304  40.494  12.094
11232W        W72598   5.838  11.728   4.627
11233W        W72599  21.071   7.314  11.892
11234W        W72600  31.591  26.627   1.741
11235W        W72601  19.262  32.905   3.223
11236W        W72602   7.277  18.219  11.102
11237W        W72603  19.664  10.858  12.392
11238W        W72604  38.864   3.825  13.857
11239W        W72605  30.095  30.018  10.637
11240W        W72606   0.841   7.891   0.859
11241W        W72607   6.716  14.135  13.931
11242W        W72608   8.672  11.626  13.430
11243W        W72609  18.066  24.002  13.894
11244W        W72610  24.720  18.574  12.890
11245W        W72611  20.680  42.870  11.589
11246W        W72612  16.768  43.478   1.451
11247W        W72613  38.454  28.569  12.357
11248W        W72614  29.013  20.710   1.815
11249W        W72615  24.049  44.966   4.836
11250W        W72616  15.798   0.881   2.417
11251W        W72617  41.880  44.814  12.443
11252W        W72618  36.986  24.628  11.891
11253W        W72619  26.980  41.807   0.802
11254W        W72620  35.892  43.405  13.410
11255W        W72621  11.281   7.881   2.724
11256W        W72622  40.513  39.035   1.323
11257W        W72623  15.121  44.963   3.655
11258W        W72624  42.826   4.216   4.744
11259W        W72625  31.496  16.253   4.278
11260W        W72626   8.788  41.388   1.310
11261W        W72627  24.149   1.832  13.932
11262W        W72628  26.058  30.001   1.695
11263W        W72629  18.061  33.405   2.362
11264W        W72630  43.279  37.349  10.968
11265W        W72631   7.176  30.475   2.774
11266W        W72632  39.863  26.678  11.564
11267W        W72633  28.564  37.932  14.877
11268W        W72634  40.517  39.042  11.964
11269W        W72635  43.816   4.426  11.128
11270W        W72636  13.286  11.171   3.672
11271W        W72637  11.300  15.635  13.822
11272W        W72638  43.404  39.488   3.778
11273W        W72639  38.072  44.804   4.697
11274W        W72640  33.017   7.795  13.501
11275W        W72641  11.765  33.031  12.439
11276W        W72642  26.037  24.216   0.285
11277W        W72643  20.579  31.513   2.752
11278W        W72644  43.860  19.652  11.549
11279W        W72645  30.617  31.974   0.925
11280W        W72646  17.134  44.410   0.731
11281W        W72647  36.529  31.948  10.955
11282W        W72648  37.373  10.282  10.447
11283W        W72649   4.278  37.339  10.528
11284W        W72650  38.874  21.136  10.888
11285W        W72651  26.546  31.540   0.272
11286W        W72652  36.533  26.100   0.252
11287W        W72653   8.662   5.803   4.765
11288W        W72654  29.652  39.016  13.435
11289W        W72655   5.933  15.244  11.394
11290W        W72656   1.449  22.591  14.936
11291W        W72657  11.306  18.695  12.823
11292W        W72658   0.843  23.596   5.188
11293W        W72659   3.718  37.912  14.897
11294W        W72660   5.221   7.314  11.534
11295W        W72661  34.995  22.552   2.779
11296W        W72662  24.529  17.692  12.880
11297W        W72663  17.127  23.028   3.364
11298W        W72664  19.710  28.976   0.283
11299W        W72665   6.804   8.676   4.628
11300W        W72666  24.100   0.968  11.452
11301W        W72667  27.156  27.993   2.813
11302W        W72668  18.685  31.630   0.923
11303W        W72669  42.523  44.495  11.602
11304W        W72670  35.013  44.773  13.920
11305W        W72671  11.783   0.380  14.995
11306W        W72672  27.678  19.564  11.981
11307W        W72673  17.768  17.795   1.712
11308W        W72674   0.843   6.913   2.677
11309W        W72675  11.355  21.207  13.040
11310W        W72676  41.969  24.109  11.917
11311W        W72677  10.710  13.627   0.251
11312W        W72678  37.080  17.590  13.494
11313W        W72679   1.268  21.070   2.843
11314W        W72680  43.014  36.854  12.004
11315W        W72681  25.096  40.319  10.535
11316W        W72682  23.664  39.991  14.915
11317W        W72683  19.770  33.404   1.293
11318W        W72684   0.271  12.349  13.514
11319W        W72685  25.468  44.478   2.697
11320W        W72686  25.478  32.065   1.774
11321W        W72687  22.111  19.702   3.707
11322W        W72688  43.853  42.789  11.051
11323W        W72689   2.239  31.012   0.799
11324W        W72690  11.835  16.719   3.252
11325W        W72691  15.111  20.170   0.266
11326W        W72692  39.494  40.465  13.321
11327W        W72693  17.801  31.576  14.516
11328W        W72694  43.367  17.610   2.694
11329W        W72695  35.400  12.619  13.395
11330W        W72696  11.828  32.401  10.027
11331W        W72697   6.413  43.977  13.791
11332W        W72698  32.977  43.376   2.767
11333W        W72699  25.509  24.221   3.245
11334W        W72700  34.967  21.203   1.404
11335W        W72701  38.051  17.680   1.435
11336W        W72702  17.725   0.878  14.008
11337W        W72703  19.052  41.330   2.372
11338W        W72704  34.116   5.408   1.708
11339W        W72705  33.907  18.614   3.805
11340W        W72706  26.575  32.978  12.033
11341W        W72707  43.474  30.094   2.762
11342W        W72708  17.197  34.880  12.978
11343W        W72709   0.292  34.432   2.770
11344W        W72710  36.557  27.021   2.740
11345W        W72711  41.532  21.113   2.341
11346W        W72712   3.391  19.204  14.856
11347W        W72713  22.223  29.136  10.415
11348W        W72714   7.783  35.073  13.861
11349W        W72715  34.863  42.506   4.780
11350W        W72716  15.739  40.844   3.145
11351W        W72717   7.355  17.230   0.937
11352W        W72718  16.724  12.256   3.870
11353W        W72719   7.270  31.086   0.472
11354W        W72720   9.667   8.756   0.761
11355W        W72721  13.201  40.545  14.016
11356W        W72722  38.383  17.064   2.764
11357W        W72723  37.462  40.477  12.547
11358W        W72724  28.631  34.955   1.695
11359W        W72725  39.345  15.262  11.557
11360W        W72726  37.504  43.885   1.215
11361W        W72727  41.902  22.564   5.204
11362W        W72728  33.537  34.483  12.929
11363W        W72729  43.924  37.542  12.382
11364W        W72730  36.499  43.776   1.355
11365W        W72731  30.449  33.433   4.778
11366W        W72732   1.744   8.817  13.938
11367W        W72733  26.576  10.332   3.299
11368W        W72734   0.414  12.168   3.736
11369W        W72735  39.844  18.590  12.035
11370W        W72736   6.711  42.951   4.672
11371W        W72737  21.098  42.416   3.690
11372W        W72738  29.148  38.845   0.912
11373W        W72739  20.040  29.510  14.513
11374W        W72740  31.994  25.074  14.903
11375W        W72741  34.103   4.274   2.341
11376W        W72742  35.093  40.963   2.673
11377W        W72743  36.468  19.622   2.187
11378W        W72744  19.075  43.423  14.294
11379W        W72745  12.833  36.371   1.832
11380W        W72746  27.149  22.559  11.487
11381W        W72747   6.694  41.978   3.687
11382W        W72748  36.471  17.749  12.525
11383W        W72749   7.774   0.406   1.364
11384W        W72750  41.867  38.826   4.117
11385W        W72751  43.877  26.658  13.396
11386W        W72752  13.279  12.807  11.870
11387W        W72753  25.203   6.411  12.054
11388W        W72754  38.450  18.116  11.051
11389W        W72755   6.771  38.985   0.261
11390W        W72756  31.521  26.490  14.944
11391W        W72757   2.932  26.958  13.469
11392W        W72758   9.728  28.109   4.191
11393W        W72759  36.471  40.015  12.385
11394W        W72760  27.460   2.755  14.415
11395W        W72761  13.283   4.889   2.700
11396W        W72762   2.365   9.815  10.966
11397W        W72763  32.449  34.464   1.851
11398W        W72764   7.231   5.720  13.836
11399W        W72765  40.331  16.164  11.915
11400W        W72766  13.341  11.756  10.029
11401W        W72767   3.874  17.575  12.052
11402W        W72768  15.823  15.194   1.410
11403W        W72769  20.689  17.217  11.396
11404W        W72770  41.350   9.668   3.303
11405W        W72771  33.622   8.678   3.375
11406W        W72772  23.669  15.324  10.513
11407W        W72773   6.391   2.303   4.186
11408W        W72774  29.074  37.087  14.285
11409W        W72775  26.974  41.926  12.425
11410W        W72776  37.998  30.143  11.079
11411W        W72777   5.715  11.352  12.980
11412W        W72778  37.887  44.396   0.792
11413W        W72779  31.011   2.861  10.510
11414W        W72780  41.964   0.400   1.314
11415W        W72781   6.707   3.919  14.304
11416W        W72782  12.703   2.840  14.824
11417W        W72783   2.954  39.919   2.714
11418W        W72784  10.768  36.503   2.253
11419W        W72785  41.528   1.862  14.846
11420W        W72786  17.708  36.536  12.493
11421W        W72787  28.104  43.332  14.470
11422W        W72788  22.144  21.019   4.214
11423W        W72789   8.397  26.480   3.279
11424W        W72790  32.544  37.550  14.973
11425W        W72791  37.927  27.636   2.728
11426W        W72792   2.720  10.248  14.287
11427W        W72793  14.213  15.589  10.141
11428W        W72794   8.815  28.480   1.917
11429W        W72795  40.992  11.699  12.840
11430W        W72796  13.203  32.526   1.346
11431W        W72797  29.625  25.203  10.510
11432W        W72798   7.404  33.542   1.826
11433W        W72799  28.614   4.723   3.669
11434W        W72800  15.798   3.300  13.438
11435W        W72801  21.515  14.161   0.314
11436W        W72802  41.864  31.045  12.488
11437W        W72803   4.890   8.743  11.422
11438W        W72804  21.061  38.571  11.085
11439W        W72805   2.443  34.522  12.921
11440W        W72806  11.763  30.106   3.328
11441W        W72807   0.482  10.844  10.972
11442W        W72808   5.198  44.991   3.227
11443W        W72809  23.169  24.528  14.484
11444W        W72810  19.063   8.868   4.321
11445W        W72811  22.703  18.230  14.512
11446W        W72812  10.151  29.960   4.830
11447W        W72813  26.099  27.182   0.388
11448W        W72814  34.993  42.378  14.997
11449W        W72815  30.146  41.436   2.810
11450W        W72816  44.976   9.691   0.737
11451W        W72817  31.924  15.659   1.880
11452W        W72818  12.610  37.841   4.735
11453W        W72819  25.201   5.749  10.622
11454W        W72820  41.501  25.056   3.240
11455W        W72821  28.175  14.155   5.299
11456W        W72822  21.229   7.874  14.338
11457W        W72823  11.369  17.122   2.849
11458W        W72824  27.976   5.196   1.812
11459W        W72825  19.255  36.045   4.316
11460W        W72826   2.254  26.003   2.727
11461W        W72827  25.641   6.288  14.400
11462W        W72828  14.760  40.499   0.321
11463W        W72829  10.292  17.613   1.446
11464W        W72830  17.681   5.196   3.738
11465W        W72831   2.375  17.659  14.378
11466W        W72832   0.465  13.113  11.454
11467W        W72833  40.414  19.059  11.089
11468W        W72834  33.432  35.446   2.390
11469W        W72835  19.680  26.071   0.393
11470W        W72836  17.716   1.271  12.967
11471W        W72837   8.721  10.807   0.284
11472W        W72838  25.627  31.001   3.654
11473W        W72839  23.060  14.808   2.285
11474W        W72840  39.324   3.331  11.460
11475W        W72841  15.668  13.806   1.379
11476W        W72842  16.681   1.805   4.636
11477W        W72843   7.883  40.871  14.772
11478W        W72844  10.867  18.271  14.435
11479W        W72845  35.370  11.800  11.473
11480W        W72846   8.756   8.173   3.633
11481W        W72847  15.629   9.321   2.410
11482W        W72848  23.643  22.015   2.795
11483W        W72849  12.305  18.068   2.822
11484W        W72850  30.064  28.583  14.864
11485W        W72851   0.290   2.855  13.401
11486W        W72852  34.084  24.999  10.933
11487W        W72853  27.083  14.192  13.346
11488W        W72854  35.381  27.093  13.456
11489W        W72855  13.727  33.554  14.899
11490W        W72856  27.577   9.658  14.979
11491W        W72857  39.559  31.999   2.819
11492W        W72858   0.313  10.139   3.259
11493W        W72859  36.440  33.397   4.799
11494W        W72860  22.655  15.771  11.065
11495W        W72861   5.393  42.879  12.403
11496W        W72862  44.893  33.923  10.916
11497W        W72863  13.726  41.911  14.334
11498W        W72864   5.217  19.536  12.888
11499W        W72865  23.654  15.728  14.336
11500W        W72866  10.693  16.096  12.843
11501W        W72867  36.855  41.833  13.901
11502W        W72868  23.689  20.247  10.942
11503W        W72869  32.392  12.842  10.942
11504W        W72870   7.744  23.689   1.249
11505W        W72871   1.365   1.393   0.851
11506W        W72872   7.759   2.400  11.465
11507W        W72873  13.823  17.615  10.059
11508W        W72874  32.116  13.721   1.431
11509W        W72875   1.782  13.763   0.764
11510W        W72876  14.823  25.168   2.711
11511W        W72877  18.770  27.534   1.728
11512W        W72878  43.385  27.125   0.305
11513W        W72879   2.382   8.673  14.931
11514W        W72880  21.613  10.161  10.131
11515W        W72881  36.843   8.770   4.804
11516W        W72882  40.315  31.544   3.822
11517W        W72883   6.715  26.181   1.844
11518W        W72884  25.700  35.901   0.925
11519W        W72885  26.666  31.063  11.928
11520W        W72886  33.583  30.013  11.939
11521W        W72887  38.830  16.109  11.885
11522W        W72888  24.659  11.280  13.822
11523W        W72889  39.477   7.370   3.807
11524W        W72890  28.993  40.362   3.273
11525W        W72891  28.659  32.925  12.366
11526W        W72892  43.382  12.725  12.351
11527W        W72893  10.323  12.191   3.700
11528W        W72894  14.097   2.322  14.311
11529W        W72895  41.040  44.776  10.911
11530W        W72896  13.274  13.619  14.478
11531W        W72897  18.072   9.840   2.662
11532W        W72898  21.629  40.855   4.795
11533W        W72899  27.668  13.642   0.922
11534W        W72900  39.917  21.223   1.261
11535W        W72901  25.499   6.332  12.440
11536W        W72902   6.400  13.676  13.546
11537W        W72903  12.615  11.253  14.337
11538W        W72904   4.761  35.967   0.404
11539W        W72905  33.980  14.748  11.963
11540W        W72906  34.478   7.720  10.436
11541W        W72907   7.225  28.121  11.923
11542W        W72908  26.139  28.610   1.785
11543W        W72909   9.197   2.401   4.700
11544W        W72910  42.344  31.502  14.497
11545W        W72911  27.493  35.462  10.536
11546W        W72912  17.800  12.779   1.282
11547W        W72913  16.690  36.898   3.772
11548W        W72914  39.032  40.029  12.440
11549W        W72915   3.739   2.887  12.903
11550W        W72916  41.833  12.801   3.295
11551W        W72917  41.840  19.630   4.691
11552W        W72918  24.020   5.408   0.913
11553W        W72919  22.026  17.633   3.658
11554W        W72920  21.232   2.269   4.777
11555W        W72921  41.529  26.163  10.896
11556W        W72922   6.687   7.710   4.170
11557W        W72923  36.502  42.922  10.942
11558W        W72924  11.649  42.327  12.985
11559W        W72925  43.473  19.610   2.825
11560W        W72926  31.088  20.557   0.830
11561W        W72927  20.201  13.761  12.343
11562W        W72928   3.861  44.300  14.970
11563W        W72929  17.720   7.314  14.467
11564W        W72930   1.358   3.454  14.885
11565W        W72931  33.433  19.635  13.372
11566W        W72932   5.247  18.612   2.299
11567W        W72933  19.240  28.677  11.000
11568W        W72934  13.306  15.089  14.425
11569W        W72935  40.448   8.810  13.955
11570W        W72936  35.921  21.547  12.467
11571W        W72937  34.120   3.247  10.447
11572W        W72938  17.142  25.124   1.257
11573W        W72939  22.607  24.500  10.453
11574W        W72940  27.603  36.893   3.799
11575W        W72941   9.679  15.711   5.284
11576W        W72942   9.778   4.892   1.269
11577W        W72943  37.351  12.208  14.319
11578W        W72944  41.496   7.885  10.958
11579W        W72945  37.432  43.938   2.833
11580W        W72946  31.967  29.095  12.008
11581W        W72947  13.794  17.209  12.889
11582W        W72948  37.352  25.095  13.855
11583W        W72949  13.820   8.858   2.354
11584W        W72950  20.600  12.327  14.967
11585W        W72951   0.290   8.754   1.210
11586W        W72952  30.069   5.766   1.928
11587W        W72953  33.522   1.422  12.461
11588W        W72954  13.223  37.959   0.910
11589W        W72955  39.468  39.883   4.599
11590W        W72956   5.232  44.263  12.489
11591W        W72957  36.871  21.137   3.386
11592W        W72958  41.415  34.107  11.897
11593W        W72959  36.931  15.226  14.952
11594W        W72960   4.435  35.567   2.901
11595W        W72961  35.397   9.393  14.424
11596W        W72962  39.927  28.976  10.973
11597W        W72963  16.156  25.045   5.288
11598W        W72964  21.160  43.396  11.412
11599W        W72965  28.157  34.599  11.937
11600W        W72966  30.512  37.408  13.882
11601W        W72967  18.149   4.880   3.706
11602W        W72968  25.590  32.027  14.870
11603W        W72969   2.417  39.931   4.824
11604W        W72970  36.974  37.012  14.790
11605W        W72971  28.165   2.334   3.755
11606W        W72972  18.562  10.303  14.295
11607W        W72973  18.752  36.024   3.338
11608W        W72974  21.135  13.286   5.100
11609W        W72975  32.442  38.546   1.749
11610W        W72976  35.491  19.777  14.916
11611W        W72977   3.856  41.977   1.270
11612W        W72978  25.576  33.462   2.225
11613W        W72979  29.601  29.999   0.283
11614W        W72980  16.688   0.272  13.032
11615W        W72981  40.046  19.741  11.117
11616W        W72982  15.650  27.671   4.331
11617W        W72983  41.369  15.206  14.786
11618W        W72984  44.787  23.529   1.784
11619W        W72985   1.381  25.549   0.773
11620W        W72986  14.310  34.982   0.909
11621W        W72987  43.954  30.056   0.833
11622W        W72988   8.793  19.577   0.363
11623W        W72989  27.058  26.085   5.121
11624W        W72990  27.115  25.988  11.466
11625W        W72991   4.251  33.460  14.295
11626W        W72992  28.672  19.190   4.764
11627W        W72993  44.926   7.395   2.887
11628W        W72994  27.007  24.500  12.947
11629W        W72995  42.880  44.806  13.034
11630W        W72996   3.368   8.228   2.239
11631W        W72997  28.675   4.274  11.464
11632W        W72998  24.007  31.077   3.848
11633W        W72999  13.686  22.627   4.206
11634W        W73000   8.887  43.503   4.741
11635W        W73001  36.539  23.715  11.528
11636W        W73002  13.202  12.240  14.992
11637W        W73003  18.126  14.200  13.790
11638W        W73004   6.710  25.638  13.988
11639W        W73005  39.509  36.469  13.404
11640W        W73006  40.904  24.501   2.710
11641W        W73007  30.583  22.552  10.629
11642W        W73008  24.133  37.368  14.809
11643W        W73009  10.724  21.143   2.318
11644W        W73010  14.315  16.240  10.905
11645W        W73011  40.931   7.869  14.404
11646W        W73012  16.210  38.853   1.330
11647W        W73013  28.607  16.293   4.317
11648W        W73014   7.770  17.744   0.311
11649W        W73015  35.472  31.549   3.374
11650W        W73016  44.820  14.333  14.904
11651W        W73017  18.072   9.270   4.641
11652W        W73018  13.253  14.591   1.226
11653W        W73019  42.966  26.659  14.411
11654W        W73020  18.158   3.898   0.356
11655W        W73021   0.871   2.761  13.476
11656W        W73022  38.556   9.807  13.054
11657W        W73023   9.692  19.202  10.562
11658W        W73024   8.362   5.904   1.407
11659W        W73025  17.288  19.277   1.750
11660W        W73026  21.202  30.950   4.351
11661W        W73027  43.342   6.317   0.282
11662W        W73028  37.958  27.467  14.413
11663W        W73029  34.089  18.276  11.128
11664W        W73030  18.205  11.249  14.861
11665W        W73031  35.495   3.304  10.478
11666W        W73032  40.406  22.531  14.954
11667W        W73033  34.592   1.904   3.147
11668W        W73034  28.447  30.164   1.441
11669W        W73035  20.046  26.191   1.928
11670W        W73036  41.407  24.098  14.830
11671W        W73037  38.361  12.661   0.898
11672W        W73038   8.174   9.362   1.370
11673W        W73039  31.901  26.096   0.778
11674W        W73040  35.415  43.001  13.508
11675W        W73041  42.446  44.464  13.405
11676W        W73042  39.980   0.293  14.452
11677W        W73043  27.974   1.943   2.875
11678W        W73044  44.282  44.457  11.383
11679W        W73045  14.618  24.011   3.724
11680W        W73046   5.730  27.027   2.870
11681W        W73047  17.561  13.278   3.732
11682W        W73048   3.326  43.394  13.050
11683W        W73049   3.953   2.730   5.094
11684W        W73050  24.529  36.400   4.785
11685W        W73051  19.164  10.373  14.308
11686W        W73052   6.364  34.989   5.238
11687W        W73053  21.532  27.164  12.837
11688W        W73054  37.410   9.788   1.220
11689W        W73055  30.123  11.727   1.389
11690W        W73056   8.171  23.513  10.410
11691W        W73057  19.658  23.578  12.429
11692W        W73058  38.973  25.093  14.410
11693W        W73059  20.644  25.692  11.877
11694W        W73060  32.544  10.682  11.584
11695W        W73061   4.446   7.760  12.349
11696W        W73062  42.302  22.688  10.605
11697W        W73063  13.646  30.516  13.837
11698W        W73064  14.241  23.490  13.512
11699W        W73065  11.226  37.375  12.939
11700W        W73066  20.584  37.880   2.763
11701W        W73067  27.044  29.621   0.790
11702W        W73068   9.841  37.516   2.311
11703W        W73069  32.100  18.091   3.717
11704W        W73070  33.479  44.350  12.858
11705W        W73071   0.445  22.594  13.481
11706W        W73072   0.945  25.473   4.705
11707W        W73073  33.881   7.857   1.706
11708W        W73074  30.927  36.000  10.494
11709W        W73075  40.469  23.572   3.788
11710W        W73076  43.469  38.414  12.343
11711W        W73077  18.763  44.946  10.587
11712W        W73078  25.041  18.773   0.901
11713W        W73079  22.583  32.966   3.767
11714W        W73080  20.538  19.736  14.444
11715W        W73081  24.980  25.483   1.897
11716W        W73082  27.976  33.394   3.377
11717W        W73083  41.963   9.799   4.232
11718W        W73084   5.414   9.826   0.879
11719W        W73085  34.518  35.476   2.761
11720W        W73086  15.614  35.406   2.842
11721W        W73087  13.669  28.646   4.707
11722W        W73088  42.824  24.182  11.874
11723W        W73089  23.546  39.023  10.489
11724W        W73090   9.192  11.815  14.366
11725W        W73091  44.773   4.860   4.649
11726W        W73092  27.982  18.282   5.143
11727W        W73093  42.393  34.120   3.633
11728W        W73094  29.169  17.621  12.057
11729W        W73095   7.245   4.845   2.190
11730W        W73096  17.277  25.007   2.785
11731W        W73097  16.103  43.463  11.472
11732W        W73098  44.922  15.131   3.641
11733W        W73099  34.883  23.654   1.231
11734W        W73100  38.028  32.393  11.929
11735W        W73101  29.521   7.738   1.405
11736W        W73102   1.351  21.174  11.907
11737W        W73103  27.065  26.036  14.797
11738W        W73104  18.184   8.369  12.966
11739W        W73105  38.881  15.261  14.859
11740W        W73106  29.113  39.388   4.348
11741W        W73107  32.509  10.714   2.817
11742W        W73108  29.557  37.925   0.940
11743W        W73109  15.095  33.009   0.802
11744W        W73110   5.853  33.126   3.804
11745W        W73111  27.008  24.103   2.881
11746W        W73112  20.535  34.588   1.336
11747W        W73113   5.849  39.528   1.298
11748W        W73114   5.258  12.191   0.408
11749W        W73115   0.385  44.756   0.877
11750W        W73116  44.475  41.420  14.293
11751W        W73117  35.044  33.997   1.256
11752W        W73118   2.738  28.458   3.782
11753W        W73119   6.339  27.475   2.369
11754W        W73120  36.407  25.624  11.515
11755W        W73121   8.817  24.086  14.955
11756W        W73122  41.412   0.461  13.969
11757W        W73123  26.964  32.113   1.798
11758W        W73124   2.761   1.334   3.730
11759W        W73125  38.500  42.391  13.810
11760W        W73126  36.394  33.458   4.191
11761W        W73127  10.800  21.091  11.910
11762W        W73128  41.855  32.119   3.177
11763W        W73129  27.643  37.548   4.681
11764W        W73130  12.629   0.260   2.779
11765W        W73131  37.865   1.318   4.726
11766W        W73132  34.550  19.620   3.664
11767W        W73133  14.646   5.320  12.356
11768W        W73134  36.537  23.664   0.935
11769W        W73135  11.147  14.175  13.064
11770W        W73136   3.237  37.442  12.012
11771W        W73137  12.315   0.446  14.900
11772W        W73138  12.643   8.714   2.267
11773W        W73139   8.234  38.000   2.689
11774W        W73140  39.537  30.033  12.865
11775W        W73141  11.293  32.914  10.487
11776W        W73142  23.017   1.751   9.650
11777W        W73143  18.600  25.107  13.322
11778W        W73144  22.047   9.309  14.374
11779W        W73145  42.514   4.803  12.990
11780W        W73146  30.645  42.470   3.782
11781W        W73147  33.591  29.494   0.895
11782W        W73148  41.023   2.335  11.374
11783W        W73149   5.372  25.119  13.064
11784W        W73150  30.028  21.230   0.309
11785W        W73151  43.383  44.274  11.570
11786W        W73152  38.073   9.674  13.375
11787W        W73153  18.084  12.191   4.738
11788W        W73154  41.872  14.214   0.386
11789W        W73155   4.268   9.803   3.150
11790W        W73156  22.519  16.107   4.341
11791W        W73157  27.980  18.199   0.416
11792W        W73158  15.578  10.250   0.811
11793W        W73159  33.528   8.759   0.850
11794W        W73160  39.384  13.128   0.466
11795W        W73161  34.497  27.665   4.286
11796W        W73162   0.969  36.353  10.931
11797W        W73163  11.766  23.636  13.935
11798W        W73164  39.925  23.235   3.200
11799W        W73165  17.594  14.693  13.531
11800W        W73166   0.831   1.408   4.129
11801W        W73167  20.100   2.951   0.404
11802W        W73168  44.505   4.881   3.260
11803W        W73169   7.892   6.381   4.763
11804W        W73170  43.414  33.517   4.696
11805W        W73171  11.216   6.879   1.380
11806W        W73172  24.982  40.529  12.377
11807W        W73173  38.358  32.501  10.890
11808W        W73174  41.371  13.324  11.124
11809W        W73175   5.268  34.483  10.635
11810W        W73176   1.450  18.781   4.158
11811W        W73177  28.485   4.805   4.182
11812W        W73178   7.281  12.670   0.825
11813W        W73179   9.835   8.402   3.323
11814W        W73180  42.924  42.338  13.959
11815W        W73181  39.954   2.741   3.268
11816W        W73182  37.086  39.876  10.071
11817W        W73183  30.495  33.539  13.391
11818W        W73184  44.482  20.205   2.667
11819W        W73185  28.681  39.995   2.334
11820W        W73186  11.779   5.904   1.447
11821W        W73187  26.523  21.513   0.825
11822W        W73188  43.871  30.942  11.868
11823W        W73189  43.392  36.873  13.007
11824W        W73190  17.651  21.235   0.479
11825W        W73191  18.253  44.818  14.878
11826W        W73192  30.000  27.511  14.837
11827W        W73193  20.536  26.691   1.280
11828W        W73194   4.938   9.240   1.890
11829W        W73195  29.992  30.034   2.808
11830W        W73196   2.824  43.769   1.392
11831W        W73197   5.818  16.806  10.991
11832W        W73198   3.341  10.867   3.381
11833W        W73199  18.719  33.944   3.265
11834W        W73200   5.212  38.417   0.889
11835W        W73201  29.565  27.582   3.638
11836W        W73202   0.955   7.315   0.733
11837W        W73203  34.001  27.144  12.042
11838W        W73204  22.520   4.415   2.224
11839W        W73205  38.055   7.671  10.459
11840W        W73206  38.387  33.480  10.145
11841W        W73207  44.490  15.617  14.480
11842W        W73208   2.383  21.588   0.255
11843W        W73209  37.936  11.812  12.513
11844W        W73210  29.597  43.338   1.802
11845W        W73211  20.723  24.554  12.484
11846W        W73212  29.564  18.552   2.277
11847W        W73213   4.217  32.058   1.745
11848W        W73214  11.142  44.435   3.215
11849W        W73215  28.999  26.203   0.434
11850W        W73216  35.946  18.612  13.493
11851W        W73217  15.816  18.155  11.447
11852W        W73218  16.148  34.067   4.627
11853W        W73219  35.562  15.616   2.777
11854W        W73220  20.153  31.476  12.520
11855W        W73221  11.831  37.451  11.514
11856W        W73222  26.193  10.780   2.294
11857W        W73223  20.142  25.212   3.728
11858W        W73224  12.306  36.854  13.987
11859W        W73225  16.655   2.302   0.947
11860W        W73226   5.264  23.990   4.196
11861W        W73227  12.335  29.652  11.486
11862W        W73228   6.402  10.333   5.242
11863W        W73229  31.911   1.870   2.407
11864W        W73230   2.471  25.633  10.552
11865W        W73231   1.734   0.869  10.943
11866W        W73232  43.832   4.787  13.985
11867W        W73233  20.574  44.462  11.973
11868W        W73234  31.585   4.942  10.472
11869W        W73235  25.081  22.166  11.572
11870W        W73236  40.533  26.136   2.817
11871W        W73237  32.004  31.963  10.054
11872W        W73238  22.200  28.022   0.845
11873W        W73239  20.624   6.405  12.515
11874W        W73240  40.411  25.107  11.910
11875W        W73241  43.288  16.236  14.808
11876W        W73242  20.536   1.752   4.621
11877W        W73243  21.705  12.757  14.881
11878W        W73244  26.175  42.995   2.803
11879W        W73245  23.562  44.756   3.639
11880W        W73246  43.432  37.358   4.733
11881W        W73247   1.344  29.444  14.407
11882W        W73248  41.378  43.489   3.338
11883W        W73249  22.641  17.683  13.495
11884W        W73250  29.934  28.050   0.299
11885W        W73251  13.781   3.447   4.622
11886W        W73252  20.096  43.967  13.459
11887W        W73253  23.494   9.760   0.260
11888W        W73254  15.584   6.411   3.234
11889W        W73255  26.668  18.575   4.712
11890W        W73256  19.246  19.120  11.942
11891W        W73257   4.305  20.074  13.938
11892W        W73258  11.252   8.304   0.291
11893W        W73259  37.524  34.867  13.858
11894W        W73260  19.540  22.075   0.826
11895W        W73261  31.929  11.313  12.021
11896W        W73262  15.746   1.927  13.431
11897W        W73263   3.334   9.816  11.937
11898W        W73264  42.910  15.197  14.815
11899W        W73265  42.854  17.643  14.315
11900W        W73266  38.924   5.783  13.462
11901W        W73267  42.922  39.551   0.865
11902W        W73268  44.963  42.989  11.456
11903W        W73269  35.485   7.229   1.321
11904W        W73270   1.281  37.360   3.754
11905W        W73271   4.821  29.585  12.397
11906W        W73272  19.091  44.482  11.952
11907W        W73273  11.813   3.381  12.036
11908W        W73274  23.554  20.587   4.730
11909W        W73275  28.609  20.664   1.832
11910W        W73276  24.576  29.605  14.014
11911W        W73277  35.575  44.330  10.895
11912W        W73278  21.263  43.971  12.825
11913W        W73279  31.950  20.135   1.889
11914W        W73280   1.761  34.075   1.924
11915W        W73281  27.142  34.074   1.751
11916W        W73282  39.842  21.643   1.807
11917W        W73283  39.954  27.029  10.975
11918W        W73284  39.529  17.695  12.554
11919W        W73285  32.983  17.267   3.717
11920W        W73286   9.192   9.155   2.376
11921W        W73287  21.080  38.027  14.821
11922W        W73288  18.219   6.853   0.774
11923W        W73289  25.096  43.401   1.800
11924W        W73290  43.326   4.734   1.785
11925W        W73291   8.850  13.145  11.127
11926W        W73292   4.723  24.498   3.661
11927W        W73293   9.241   0.407   9.973
11928W        W73294  18.255  38.487   1.306
11929W        W73295  28.681  13.246  12.515
11930W        W73296  19.225   8.247  13.915
11931W        W73297   5.753   5.716   4.232
11932W        W73298  37.004  30.019   2.378
11933W        W73299  31.536  17.135   2.710
11934W        W73300  44.874  26.052   1.802
11935W        W73301  30.630  14.125   4.704
11936W        W73302   3.341   7.878  12.438
11937W        W73303  27.165  38.873   2.802
11938W        W73304  32.006  19.124   0.260
11939W        W73305  23.629  16.627  11.923
11940W        W73306   1.889  35.055   0.788
11941W        W73307  17.270  30.441   3.373
11942W        W73308  22.662  17.070   0.322
11943W        W73309  29.991   2.875  11.049
11944W        W73310  13.645  39.973   1.284
11945W        W73311  43.441  26.175  10.645
11946W        W73312  24.132  18.630  14.989
11947W        W73313  15.708  23.004   2.338
11948W        W73314  37.339  13.347   3.867
11949W        W73315  21.184  23.071  13.021
11950W        W73316   2.823  31.046   0.938
11951W        W73317  34.083  14.638   3.254
11952W        W73318   2.814  17.108   4.277
11953W        W73319   5.432   3.861   0.350
11954W        W73320   4.418  21.603  12.529
11955W        W73321   7.869   4.779  10.045
11956W        W73322  20.041  14.228   5.115
11957W        W73323   3.736  15.705   9.643
11958W        W73324   1.977   3.809  13.931
11959W        W73325  27.493   8.897  10.484
11960W        W73326   8.887  33.067   0.483
11961W        W73327  31.139  18.093   0.730
11962W        W73328  39.883  39.905   1.264
11963W        W73329  11.290   7.190   4.633
11964W        W73330  39.321  12.245  11.517
11965W        W73331  12.793   9.369  11.499
11966W        W73332  38.384  36.405  12.044
11967W        W73333   4.264  21.615  14.991
11968W        W73334  21.143  21.675  13.035
11969W        W73335  33.536   7.220  11.372
11970W        W73336   7.846  28.944  14.477
11971W        W73337  23.149  32.400  13.347
11972W        W73338   1.391  35.450  11.926
11973W        W73339  21.626  28.968   3.212
11974W        W73340  18.568   7.309   3.771
11975W        W73341  23.222  24.176  12.488
11976W        W73342   5.740   4.225   4.254
11977W        W73343  31.404  23.492  12.368
11978W        W73344   2.402   9.156  14.968
11979W        W73345   4.433  37.567   1.279
11980W        W73346  11.849  29.529  14.376
11981W        W73347  38.397   6.919   4.315
11982W        W73348  19.191  44.444   3.769
11983W        W73349  21.597  36.360   1.787
11984W        W73350  17.705   4.245  11.447
11985W        W73351  21.632  20.657   1.281
11986W        W73352  20.583  17.561  14.021
11987W        W73353  32.478  30.083  10.505
11988W        W73354  41.505  30.638   2.828
11989W        W73355  15.221   6.869  12.944
11990W        W73356   4.853  44.436  13.941
11991W        W73357  32.112  19.740  14.837
11992W        W73358  33.549  37.462   2.318
11993W        W73359  11.865  31.454  14.788
11994W        W73360  11.817  20.205   0.789
11995W        W73361   9.176  27.552   0.283
11996W        W73362  34.391  32.134  12.482
11997W        W73363  23.085  28.088  13.961
11998W        W73364  22.664   5.358  14.480
11999W        W73365  38.992  16.806  10.551
12000W        W73366  44.318  12.746   1.716
12001W        W73367  37.374  37.467  13.954
12002W        W73368   5.849   1.261  14.817
12003W        W73369  42.798  31.988  14.979
12004W        W73370   6.796   5.367   4.609
12005W        W73371  26.126   2.461  10.088
12006W        W73372  38.914  29.146  11.861
12007W        W73373  26.972   0.448  10.446
12008W        W73374   8.372  44.439  14.504
12009W        W73375  29.591  28.611  14.967
12010W        W73376  13.126   1.804  10.585
12011W        W73377  31.607  36.996   3.376
12012W        W73378  12.812  14.201   0.377
12013W        W73379  16.614  12.677  12.394
12014W        W73380  11.213   5.303   3.349
12015W        W73381  27.616  24.511   3.740
12016W        W73382  34.437  22.158  10.441
12017W        W73383  35.453  17.769  13.045
12018W        W73384  10.312  28.044  13.957
12019W        W73385  18.657  14.330  11.521
12020W        W73386  30.618  30.592  12.577
12021W        W73387  38.944  42.800  13.966
12022W        W73388  34.863  41.990   1.803
12023W        W73389  35.926   7.712  12.877
12024W        W73390  25.103  10.817   4.298
12025W        W73391  39.430  43.409   1.214
12026W        W73392  25.966  19.241   3.191
12027W        W73393  23.704  18.750  12.468
12028W        W73394  18.194  27.054   1.374
12029W        W73395  36.086  15.324   4.624
12030W        W73396   6.831   3.216   0.350
12031W        W73397  29.957  25.015   3.834
12032W        W73398  37.359  17.765   1.789
12033W        W73399  40.486  11.236   3.819
12034W        W73400   0.767   3.307   3.736
12035W        W73401  27.963  32.590  13.427
12036W        W73402  33.920   8.223   4.816
12037W        W73403  17.641  33.571   3.235
12038W        W73404  41.856  18.183   1.931
12039W        W73405   7.711   8.768   3.794
12040W        W73406   8.297  24.496   3.362
12041W        W73407  40.970  32.485  13.372
12042W        W73408   7.282  39.432   1.363
12043W        W73409  17.724   4.867   0.950
12044W        W73410   1.947   8.745  12.944
12045W        W73411   1.867  40.905  12.480
12046W        W73412  30.551   8.794  13.054
12047W        W73413  41.829  21.560  14.010
12048W        W73414  42.295  41.796  13.969
12049W        W73415   1.443  28.078   3.191
12050W        W73416  12.679  36.554  11.531
12051W        W73417  20.556  44.952  12.888
12052W        W73418  20.202  22.017  14.344
12053W        W73419  15.182  13.759   3.289
12054W        W73420  13.187  10.190   3.376
12055W        W73421  38.439   9.658   1.300
12056W        W73422  38.528  23.688   1.323
12057W        W73423   9.363  20.563   1.790
12058W        W73424  14.302  22.520   2.191
12059W        W73425   9.182  22.556   2.230
12060W        W73426   5.805  31.602  12.347
12061W        W73427   7.764  11.804   0.397
12062W        W73428  30.157   5.788  13.844
12063W        W73429   6.809  15.775  11.869
12064W        W73430  44.357  16.797   1.283
12065W        W73431   2.363  39.334   2.699
12066W        W73432  26.470  44.777  12.896
12067W        W73433  30.029  25.160  13.989
12068W        W73434   8.231  37.512  10.964
12069W        W73435  26.534  25.564  12.455
12070W        W73436  13.834  14.196   2.762
12071W        W73437  37.974  14.793  13.541
12072W        W73438  18.570  36.402  12.388
12073W        W73439  24.639  33.388  14.477
12074W        W73440  28.571   8.364  10.541
12075W        W73441  16.678   5.277  11.068
12076W        W73442  13.329  28.956  13.861
12077W        W73443   7.221  28.466  11.578
12078W        W73444  32.049  28.147   0.803
12079W        W73445   6.271  43.375  14.982
12080W        W73446  41.471  30.049  10.619
12081W        W73447  43.380  44.427  12.532
12082W        W73448  20.142  14.782   3.811
12083W        W73449  12.668   8.248  13.063
12084W        W73450  36.964  12.636   0.457
12085W        W73451  26.020  22.707  13.381
12086W        W73452  37.528  28.528   2.231
12087W        W73453  24.557  30.966   0.296
12088W        W73454  26.082  41.792  13.539
12089W        W73455  18.554   1.278  11.512
12090W        W73456   9.709  39.826  10.993
12091W        W73457   9.756   7.336  10.434
12092W        W73458  27.145   9.864  14.397
12093W        W73459  23.191   8.713  11.029
12094W        W73460   9.365  24.587  13.457
12095W        W73461  38.950  41.883   3.183
12096W        W73462  26.141  31.124   2.854
12097W        W73463  37.444  13.299   3.260
12098W        W73464  36.976  29.932  10.997
12099W        W73465  30.967  19.193   1.246
12100W        W73466  40.506  40.048   2.812
12101W        W73467  24.015   3.933   0.391
12102W        W73468  37.049   4.283   1.391
12103W        W73469  39.990  26.093   0.428
12104W        W73470   9.233  27.675  10.454
12105W        W73471  43.855  26.562   1.421
12106W        W73472  12.149  23.004  14.363
12107W        W73473   8.173  33.471   4.285
12108W        W73474   8.736  27.591   0.824
12109W        W73475  20.030   6.907  14.982
12110W        W73476  12.835  29.170  12.838
12111W        W73477  20.253  43.393   1.366
12112W        W73478   6.360   5.857  11.961
12113W        W73479  18.591   4.755  13.839
12114W        W73480  20.642  23.241  12.486
12115W        W73481  38.484   6.680   0.789
12116W        W73482  39.485  10.291   3.282
12117W        W73483  19.064  33.513  10.953
12118W        W73484   3.791  32.595   0.262
12119W        W73485  18.072  22.174   2.701
12120W        W73486  26.498   2.911  14.773
12121W        W73487  36.864  28.986  12.437
12122W        W73488  40.052  43.018   3.317
12123W        W73489  19.713   0.807  12.066
12124W        W73490  40.424  20.139   0.265
12125W        W73491  16.248  41.915  12.460
12126W        W73492  41.448  44.961   3.317
12127W        W73493  31.636  39.356   0.776
12128W        W73494   7.896  28.508  14.799
12129W        W73495  27.570  32.142   0.368
12130W        W73496  34.027  18.753   2.829
12131W        W73497  34.081  25.999  14.809
12132W        W73498  28.668  12.212   0.942
12133W        W73499   6.786  34.998  14.316
12134W        W73500  44.286  25.520   4.246
12135W        W73501  29.933   3.221  14.396
12136W        W73502  34.463  26.958   0.898
12137W        W73503  19.638  19.571   2.809
12138W        W73504  16.617   2.737   2.362
12139W        W73505  16.739  20.210  12.339
12140W        W73506  23.156   6.363   0.384
12141W        W73507  38.820  23.066  13.942
12142W        W73508  40.504   8.728  11.857
12143W        W73509  30.512  14.783  11.527
12144W        W73510   6.299   6.265  12.534
12145W        W73511  35.551  44.898   0.856
12146W        W73512  15.816  25.542  13.337
12147W        W73513  15.801   4.210   0.866
12148W        W73514  12.845  21.201   1.834
12149W        W73515  28.453  29.082  13.039
12150W        W73516   4.738   5.782   3.352
12151W        W73517  22.745  38.074   1.797
12152W        W73518  13.760  16.216   4.791
12153W        W73519  40.985  24.229  14.920
12154W        W73520   4.314  24.132   2.688
12155W        W73521  25.182   1.395   3.825
12156W        W73522   8.894   8.338   0.964
12157W        W73523  25.115  20.236  14.280
12158W        W73524  42.025  32.108   4.737
12159W        W73525  11.702  19.199   3.676
12160W        W73526  26.090  39.543   4.261
12161W        W73527  25.574  26.657   2.393
12162W        W73528  27.652  16.727   1.833
12163W        W73529  28.156   5.310   4.266
12164W        W73530  11.332  28.059   0.355
12165W        W73531  28.168   5.757   3.769
12166W        W73532  37.420  21.694  12.520
12167W        W73533  44.795  42.865   2.332
12168W        W73534  37.873  17.076  12.561
12169W        W73535  10.314  40.444   0.441
12170W        W73536  11.208  32.922  14.011
12171W        W73537  23.648  24.144   3.236
12172W        W73538  21.124  23.659  10.606
12173W        W73539  14.811  25.095   1.757
12174W        W73540   0.804  31.474  11.113
12175W        W73541   8.227  44.362  12.082
12176W        W73542  20.211  21.089  14.338
12177W        W73543  36.436  34.420  10.625
12178W        W73544   8.184  42.299   4.215
12179W        W73545  14.260   2.744  11.391
12180W        W73546  26.649   3.881  11.941
12181W        W73547  42.420   1.256   1.397
12182W        W73548  32.413  38.979  12.425
12183W        W73549  38.053   3.808  14.286
12184W        W73550   6.881   9.689  13.988
12185W        W73551  12.237   7.789  10.590
12186W        W73552  23.689  43.431   3.384
12187W        W73553  38.963  12.285  11.103
12188W        W73554  22.230  38.996   4.337
12189W        W73555  33.079  20.171  14.008
12190W        W73556  35.865  20.194   3.173
12191W        W73557  19.772  34.999  14.931
12192W        W73558   7.292  28.182  13.462
12193W        W73559  29.938  27.190   0.771
12194W        W73560  35.079  17.103   0.286
12195W        W73561  20.675  27.979  10.509
12196W        W73562  38.556  30.160   2.696
12197W        W73563  27.979  16.784   3.782
12198W        W73564  31.931  26.616  12.395
12199W        W73565  41.811   0.884   1.858
12200W        W73566   5.891   5.412  14.833
12201W        W73567  13.311  33.082   2.379
12202W        W73568  23.006   3.326   2.407
12203W        W73569  38.053  30.069   1.764
12204W        W73570  36.069  33.587   1.365
12205W        W73571  30.016  27.460  10.494
12206W        W73572  24.073   7.705   2.853
12207W        W73573  36.061  29.542  14.276
12208W        W73574  19.685  16.626   2.816
12209W        W73575  39.548  36.009   4.343
12210W        W73576  42.945  11.817   1.790
12211W        W73577  30.026  11.764   1.774
12212W        W73578  32.080  32.631  11.477
12213W        W73579  11.716  31.087   3.363
12214W        W73580  18.122  21.165  11.406
12215W        W73581  16.254   7.218  11.599
12216W        W73582  24.536  39.886   2.784
12217W        W73583  16.700  30.576   2.706
12218W        W73584  25.126  27.091  13.499
12219W        W73585   1.388   2.261  10.916
12220W        W73586  22.185   2.370   3.253
12221W        W73587  12.743   7.356   3.206
12222W        W73588  27.099   0.282  13.443
12223W        W73589  37.935  35.395  13.960
12224W        W73590  29.119  12.734   0.347
12225W        W73591  16.298  37.944  11.920
12226W        W73592   2.319  13.131  10.969
12227W        W73593  37.531  36.966  14.021
12228W        W73594   8.170  25.003   2.901
12229W        W73595  17.724   3.248  10.638
12230W        W73596  39.411  17.070   3.819
12231W        W73597  31.545  27.508   2.742
12232W        W73598  37.023  23.684   0.464
12233W        W73599  18.140  42.506  13.974
12234W        W73600   2.462  18.153   1.311
12235W        W73601  21.227  18.690   1.252
12236W        W73602  20.087  28.452   1.279
12237W        W73603  19.138  30.533  12.467
12238W        W73604  42.334  30.500   0.771
12239W        W73605  10.676  35.078   1.872
12240W        W73606  12.686  22.738  13.052
12241W        W73607  18.122   4.255  14.368
12242W        W73608  29.085  44.501  14.866
12243W        W73609  13.283   8.275   1.883
12244W        W73610  16.260  33.567   2.693
12245W        W73611  40.427   6.282  10.929
12246W        W73612  20.140  11.335  13.987
12247W        W73613   2.323   0.805   3.264
12248W        W73614  28.948   9.391  11.386
12249W        W73615   9.359   0.753  11.987
12250W        W73616  20.057   5.731  14.455
12251W        W73617  36.425  44.300  13.800
12252W        W73618  32.972   1.901   0.872
12253W        W73619  34.466  23.137   1.915
12254W        W73620   7.397   1.846   2.884
12255W        W73621  13.125  36.030   3.253
12256W        W73622  31.511  37.925   4.130
12257W        W73623  44.796  34.929   2.709
12258W        W73624  40.868  15.266  12.426
12259W        W73625  22.010  42.866  12.863
12260W        W73626  23.565  25.163  13.496
12261W        W73627  15.223   6.687   3.757
12262W        W73628  28.168   2.961  13.050
12263W        W73629  18.644  32.615   2.746
12264W        W73630  13.296   0.267   0.892
12265W        W73631  16.581   8.663   4.686
12266W        W73632   5.350  31.898  11.872
12267W        W73633  16.716  37.850  11.389
12268W        W73634  18.135   0.275   0.746
12269W        W73635  27.567  27.012   3.776
12270W        W73636  21.046  17.076  12.355
12271W        W73637  17.187  22.049   1.291
12272W        W73638  24.635  34.074   0.871
12273W        W73639  25.006  10.185   2.850
12274W        W73640  15.299  15.087  11.532
12275W        W73641  29.577  37.062   0.473
12276W        W73642  36.088  32.140  13.472
12277W        W73643  42.792   9.172   3.233
12278W        W73644  40.846   4.441   0.871
12279W        W73645   7.335  20.136   2.231
12280W        W73646  10.235  21.524   2.402
12281W        W73647  23.002  25.681   0.344
12282W        W73648  22.229  37.465  13.050
12283W        W73649  35.578  28.172   1.286
12284W        W73650  37.511  13.623  11.586
12285W        W73651  17.264   0.836  10.609
12286W        W73652  33.509   2.923  14.868
12287W        W73653  27.006   0.272  14.803
12288W        W73654  40.004  38.008   3.182
12289W        W73655  28.134   0.980   0.789
12290W        W73656   9.291  40.455  10.533
12291W        W73657  36.463  16.249  12.910
12292W        W73658   6.417  42.393   3.758
12293W        W73659  17.306  15.735   2.395
12294W        W73660  42.452  31.061   1.798
12295W        W73661  14.763   7.724   4.635
12296W        W73662  20.030  38.856  10.138
12297W        W73663   0.769  24.078  12.011
12298W        W73664  34.875   3.405  12.580
12299W        W73665  40.469   7.812   0.905
12300W        W73666  19.553  10.277  12.093
12301W        W73667  34.406  12.849  12.038
12302W        W73668   8.251   0.851   4.332
12303W        W73669  22.562  39.910   3.385
12304W        W73670  34.932  12.253   1.737
12305W        W73671  42.982  10.222   0.769
12306W        W73672   5.393  44.481  10.458
12307W        W73673   3.749   1.841   0.439
12308W        W73674  40.505  26.670   2.851
12309W        W73675  15.093   2.436   1.404
12310W        W73676   9.272  16.278   0.407
12311W        W73677  11.695  33.409  12.030
12312W        W73678  26.692  17.167  12.453
12313W        W73679  10.700  12.834  10.513
12314W        W73680  24.032  31.616  11.057
12315W        W73681  13.834  13.772  12.972
12316W        W73682  15.737  10.240   2.795
12317W        W73683   4.382  10.241  12.375
12318W        W73684   6.269   1.749  10.435
12319W        W73685  31.443  34.925   2.193
12320W        W73686  26.677  11.226  13.951
12321W        W73687  35.359   1.857  11.538
12322W        W73688  27.033  37.842   3.742
12323W        W73689  31.514  10.255   1.379
12324W        W73690  20.200  43.792   1.865
12325W        W73691  33.391  34.408  11.060
12326W        W73692  41.486  14.245   1.441
12327W        W73693   5.202  31.083   4.161
12328W        W73694  42.004   7.360   2.396
12329W        W73695  37.900  36.399   4.246
12330W        W73696   7.347  19.554   0.479
12331W        W73697  40.349  10.848  10.504
12332W        W73698   2.944  23.543  10.530
12333W        W73699   9.290   9.317   0.808
12334W        W73700  29.580  23.143   0.748
12335W        W73701  32.010  39.960  14.421
12336W        W73702  27.174  33.532   4.774
12337W        W73703  32.950  17.680  11.542
12338W        W73704  12.818  40.548   4.770
12339W        W73705  22.518  17.742  11.502
12340W        W73706   7.323  42.819  11.054
12341W        W73707  15.707  15.601  12.909
12342W        W73708  10.709  32.972  12.906
12343W        W73709  30.006  30.018   3.166
12344W        W73710  12.731  31.429   3.790
12345W        W73711  12.245  31.440   2.393
12346W        W73712  33.598  20.196   0.306
12347W        W73713  16.090  21.544  14.774
12348W        W73714  11.339  12.691  11.495
12349W        W73715   6.359  28.120   1.434
12350W        W73716  15.606  17.094   3.297
12351W        W73717  36.564  29.572  14.443
12352W        W73718  35.494   1.422   4.351
12353W        W73719  20.135  28.545   4.619
12354W        W73720  11.319  43.403   3.309
12355W        W73721  37.451   6.281   5.132
12356W        W73722  13.265  37.386   4.187
12357W        W73723  38.834  37.391   4.352
12358W        W73724  34.947  33.457  14.850
12359W        W73725   0.976  19.195   4.796
12360W        W73726   8.166  14.598  12.574
12361W        W73727  19.163  21.250   9.921
12362W        W73728  25.063  24.979   2.818
12363W        W73729   8.180  25.077   3.845
12364W        W73730   4.406  23.499  14.877
12365W        W73731   5.301   8.675   3.745
12366W        W73732   5.300  12.245   0.905
12367W        W73733   2.449   7.765   0.793
12368W        W73734   5.933  28.151   2.800
12369W        W73735  12.297  27.116   2.721
12370W        W73736  19.560  40.400   0.875
12371W        W73737  10.165  18.129  10.096
12372W        W73738  32.501  27.168  12.883
12373W        W73739  34.007  23.582  12.578
12374W        W73740  15.246  10.651   3.857
12375W        W73741  41.871  10.304  11.046
12376W        W73742  28.675  14.312  12.554
12377W        W73743  22.019  23.142  12.024
12378W        W73744  25.511  24.647  12.008
12379W        W73745  27.681  44.394   2.663
12380W        W73746  36.045  21.049   1.878
12381W        W73747  26.694  34.070  14.495
12382W        W73748   6.243  30.634  10.517
12383W        W73749  31.088   5.742  14.314
12384W        W73750  35.427  35.575   0.429
12385W        W73751   5.203  34.382  14.339
12386W        W73752   0.766  35.078   1.799
12387W        W73753   2.366  20.717  13.044
12388W        W73754  14.738  11.238   3.681
12389W        W73755  15.114  23.559   1.777
12390W        W73756  10.771   0.421  14.921
12391W        W73757  25.176  26.685  12.029
12392W        W73758   1.917  31.560  14.871
12393W        W73759  44.354  17.086  12.051
12394W        W73760  42.397  16.140   1.813
12395W        W73761   8.754  20.709  11.878
12396W        W73762  31.538  18.728   2.854
12397W        W73763   2.412  20.576  14.905
12398W        W73764  36.039   9.798   3.740
12399W        W73765   3.390  42.516   3.796
12400W        W73766  41.378  25.671  11.881
12401W        W73767  17.722  22.182  10.984
12402W        W73768   7.281  39.835   1.277
12403W        W73769  24.078  25.647  12.424
12404W        W73770  38.927  27.972  14.875
12405W        W73771   0.778  12.122   4.741
12406W        W73772  41.365  39.020  10.524
12407W        W73773  23.197   7.271  13.898
12408W        W73774  42.992  19.609   3.161
12409W        W73775   2.370  12.681  11.532
12410W        W73776  16.111  19.593   0.896
12411W        W73777  28.965  11.778  11.572
12412W        W73778  26.180  36.552   0.900
12413W        W73779  24.548  25.056  12.511
12414W        W73780  37.473  41.389  10.527
12415W        W73781  36.845   2.821  13.064
12416W        W73782  10.195  27.663  14.480
12417W        W73783  35.368  20.163   0.897
12418W        W73784  44.926  30.956   4.725
12419W        W73785  44.285  26.639   2.855
12420W        W73786  31.144   2.851  14.366
12421W        W73787   5.270  17.189   4.838
12422W        W73788  44.761  43.940  14.369
12423W        W73789  25.657  27.532   3.192
12424W        W73790  12.684  42.968  14.956
12425W        W73791  39.429   6.769   4.829
12426W        W73792  32.975  21.590   2.672
12427W        W73793   2.964  12.344   1.794
12428W        W73794  33.074   8.348  13.991
12429W        W73795   5.735  11.764  14.463
12430W        W73796  26.113  21.201   1.260
12431W        W73797  14.614   9.185   1.722
12432W        W73798   2.910  10.271   0.918
12433W        W73799  12.226   3.311  12.368
12434W        W73800  43.451  17.139  12.371
12435W        W73801   8.681  35.951   3.177
12436W        W73802   3.368  17.700  11.080
12437W        W73803  29.620  31.526  14.827
12438W        W73804  21.559  10.869   2.903
12439W        W73805  26.110   2.849   3.720
12440W        W73806   3.869  25.708   1.869
12441W        W73807  20.043  39.466   1.335
12442W        W73808   4.928  33.466   5.238
12443W        W73809  20.615   3.250   4.323
12444W        W73810  33.917   9.808  12.968
12445W        W73811   1.867  18.790  13.846
12446W        W73812  39.441  42.293  12.971
12447W        W73813  40.398  15.791  14.012
12448W        W73814  26.134  12.838  11.068
12449W        W73815   3.397  28.677  11.956
12450W        W73816  36.992  23.176  11.994
12451W        W73817   5.906  21.079  14.903
12452W        W73818   1.347   1.779  11.032
12453W        W73819   2.907  17.085  13.470
12454W        W73820  33.925  21.050   1.250
12455W        W73821  35.487   0.897   0.874
12456W        W73822  19.683  20.057   0.882
12457W        W73823  34.417  23.556   1.743
12458W        W73824  42.293  38.348   2.707
12459W        W73825  15.275   2.750   0.455
12460W        W73826  25.120  27.979   1.424
12461W        W73827  13.222  27.684  13.896
12462W        W73828   8.332  35.094  10.993
12463W        W73829  26.504  34.020   4.301
12464W        W73830   6.698   7.307   4.601
12465W        W73831  38.345  17.783  11.101
12466W        W73832  17.129  39.063  10.142
12467W        W73833  43.289  20.250   4.196
12468W        W73834  27.024  13.271  12.038
12469W        W73835  38.933  19.595  11.031
12470W        W73836  18.161  26.964  12.963
12471W        W73837  36.470   1.842   3.260
12472W        W73838  26.108  21.250   0.925
12473W        W73839  38.939   8.738  12.392
12474W        W73840  16.581  32.479   5.612
12475W        W73841  42.282  41.924   3.715
12476W        W73842  31.141  23.569   4.645
12477W        W73843  34.431  13.613  12.034
12478W        W73844   6.690  19.119   1.299
12479W        W73845  29.604  21.565  14.772
12480W        W73846  43.904  20.618  14.853
12481W        W73847  44.390   7.237  10.453
12482W        W73848  38.536  41.311   1.350
12483W        W73849  19.718  15.598   3.849
12484W        W73850  15.138  24.144   1.880
12485W        W73851  44.494  31.904   1.864
12486W        W73852   8.398   0.407  13.993
12487W        W73853   4.380   4.406   2.393
12488W        W73854  39.835  32.089   2.769
12489W        W73855   0.318  18.165   1.307
12490W        W73856  36.057  17.147   4.176
12491W        W73857  17.796  27.648  11.982
12492W        W73858   1.859  37.976  13.810
12493W        W73859  10.264   9.664   4.163
12494W        W73860  34.050  25.641   2.320
12495W        W73861  44.838  40.540  14.494
12496W        W73862  41.347  26.548  14.030
12497W        W73863  20.550   9.738   2.693
12498W        W73864   6.251  13.125   4.320
12499W        W73865  28.639   3.861  14.995
12500W        W73866  40.486  15.792  12.578
12501W        W73867  42.290  35.599   0.291
12502W        W73868  34.080  36.543   0.319
12503W        W73869  32.402   5.265  13.381
12504W        W73870  20.172  11.668   4.611
12505W        W73871  34.884  23.239  11.490
12506W        W73872   1.807  44.435  13.443
12507W        W73873  22.638  43.286  13.542
12508W        W73874  31.595  20.115   1.348
12509W        W73875  23.643   3.882  11.603
12510W        W73876  21.729  23.159   0.313
12511W        W73877   7.713  31.561  11.885
12512W        W73878  13.149   5.731  13.983
12513W        W73879  29.070  35.983  14.989
12514W        W73880  24.537  28.477  12.995
12515W        W73881  34.046  10.679  13.004
12516W        W73882   2.760   1.761  12.085
12517W        W73883  15.774  29.012   2.722
12518W        W73884  42.378  38.481  12.963
12519W        W73885  41.988  37.925   2.268
12520W        W73886  44.439   4.351  10.495
12521W        W73887  17.262   1.939  14.313
12522W        W73888  22.999  19.160   4.797
12523W        W73889  26.474  24.033  11.089
12524W        W73890  32.510   6.704   4.745
12525W        W73891   8.169  26.046  13.797
12526W        W73892  32.569  34.513   3.348
12527W        W73893  14.604  13.760   4.653
12528W        W73894  41.438  27.195   0.829
12529W        W73895  41.838  20.716  11.908
12530W        W73896  36.479   5.249   4.113
12531W        W73897  35.009  21.748   2.765
12532W        W73898  32.093  12.650   3.861
12533W        W73899  15.787  21.211   3.325
12534W        W73900  36.587   2.369   2.797
12535W        W73901   2.750  36.079  11.895
12536W        W73902  13.628   1.363   1.712
12537W        W73903  43.998   1.469  12.927
12538W        W73904  24.601  32.581   2.401
12539W        W73905  43.993   0.902  13.421
12540W        W73906  22.180  38.956   0.768
12541W        W73907  23.627  12.645   1.288
12542W        W73908  27.170  24.196  14.428
12543W        W73909   8.232  14.314  12.010
12544W        W73910   8.252  22.051  12.495
12545W        W73911  41.304  36.516  13.909
12546W        W73912  44.815   8.391   2.769
12547W        W73913  22.533  12.671  12.895
12548W        W73914  34.396  31.620  11.468
12549W        W73915  18.105  34.120   2.784
12550W        W73916  15.304   7.377   0.943
12551W        W73917  26.461   7.793   0.902
12552W        W73918  25.118  22.046   1.777
12553W        W73919  12.627  20.206  11.462
12554W        W73920  11.323   1.398   2.853
12555W        W73921   4.836  16.631  14.428
12556W        W73922  44.901  25.187   1.782
12557W        W73923  40.986   6.875   0.823
12558W        W73924  32.891  39.030   2.272
12559W        W73925  41.293  40.004   1.443
12560W        W73926  12.763   3.848  12.399
12561W        W73927  22.587  40.930   0.732
12562W        W73928  12.308  21.645  10.639
12563W        W73929  17.692   9.885  11.519
12564W        W73930  21.754   2.897   4.283
12565W        W73931   3.459  35.586   1.754
12566W        W73932  43.376  13.161   1.811
12567W        W73933   0.404  19.682   1.934
12568W        W73934   1.814  35.944  12.034
12569W        W73935  26.118  11.813   0.902
12570W        W73936  38.948  13.111   4.769
12571W        W73937  15.240  31.097   2.807
12572W        W73938  38.518   9.803   4.655
12573W        W73939  22.718   8.846  14.032
12574W        W73940  12.689  16.788  14.403
12575W        W73941  43.319  21.548  14.352
12576W        W73942  39.419  24.090  10.918
12577W        W73943  10.663  18.084   3.264
12578W        W73944  21.227  42.520   1.415
12579W        W73945  42.953  19.245   2.848
12580W        W73946  44.437  16.645  11.520
12581W        W73947  39.808  42.931   4.604
12582W        W73948  17.674  18.676   1.821
12583W        W73949  34.572   5.239  11.506
12584W        W73950  26.043  14.133   3.712
12585W        W73951  21.511  28.956   0.390
12586W        W73952  33.467  16.075   1.873
12587W        W73953  22.633  18.053   3.701
12588W        W73954   1.813  20.732   2.734
12589W        W73955  13.806   1.480  10.514
12590W        W73956  26.094   6.740   1.912
12591W        W73957  42.398  15.273   3.184
12592W        W73958   0.879  25.047  13.396
12593W        W73959  28.500  35.413  13.910
12594W        W73960  39.024   2.766  12.032
12595W        W73961  43.974  35.979   3.340
12596W        W73962  11.359   8.193  11.970
12597W        W73963  24.491  33.434  12.479
12598W        W73964  40.976  37.972   1.711
12599W        W73965  36.575  42.431  10.412
12600W        W73966  15.767   1.733  11.868
12601W        W73967   7.753  13.652  12.895
12602W        W73968  33.549  19.251  12.836
12603W        W73969  14.642  27.972  11.093
12604W        W73970  44.390  11.252  10.944
12605W        W73971   3.842   0.252  11.000
12606W        W73972  13.663   5.878  10.942
12607W        W73973   1.346  18.085   1.352
12608W        W73974   9.235  36.518  14.924
12609W        W73975  17.790   7.302  12.909
12610W        W73976  24.979   3.832   0.362
12611W        W73977  21.613  42.428   2.753
12612W        W73978  36.900   8.204  14.826
12613W        W73979   1.390   9.240  11.576
12614W        W73980  19.687  13.222   2.391
12615W        W73981   0.979  27.537   5.566
12616W        W73982  36.510   5.240   0.846
12617W        W73983  36.863  13.218   1.341
12618W        W73984  28.058  20.036   3.257
12619W        W73985   0.968  25.220   1.425
12620W        W73986  19.769  34.912   0.400
12621W        W73987  28.960  24.986  12.056
12622W        W73988   4.920  13.306   1.722
12623W        W73989   4.236  19.198  12.382
12624W        W73990  21.712  32.460   3.370
12625W        W73991   8.272   7.329  10.406
12626W        W73992  37.979  25.215   3.807
12627W        W73993  11.772   1.794   2.737
12628W        W73994  40.834   1.881  10.429
12629W        W73995   7.691  40.871   1.781
12630W        W73996  36.460   6.340  12.963
12631W        W73997  29.467  31.066   0.732
12632W        W73998  10.202  20.534   3.751
12633W        W73999  10.872  15.247  14.952
12634W        W74000   4.754   2.932   9.509
12635W        W74001   9.698  30.139   4.156
12636W        W74002  33.007   5.751   3.188
12637W        W74003  27.659   8.684   0.770
12638W        W74004  15.621   2.723  14.295
12639W        W74005  19.083   4.297   1.789
12640W        W74006  44.437  30.117   1.297
12641W        W74007  16.754   3.908   2.850
12642W        W74008  18.167  37.859   2.215
12643W        W74009   6.757  30.423   0.880
12644W        W74010   3.905   5.731  14.849
12645W        W74011  19.648   4.864   4.828
12646W        W74012   4.318  24.189  11.921
12647W        W74013  23.507   4.773  11.928
12648W        W74014  31.931  12.651  12.378
12649W        W74015  33.901   3.334  11.906
12650W        W74016  43.786  24.680   3.345
12651W        W74017  44.451   4.210   3.303
12652W        W74018  42.454   4.254   1.823
12653W        W74019  20.546  26.643  12.866
12654W        W74020   0.466  25.530  12.579
12655W        W74021  32.498  35.598  14.983
12656W        W74022  29.627  40.851   2.406
12657W        W74023  32.511  41.825   3.679
12658W        W74024  31.133   0.960  12.858
12659W        W74025  25.625  30.972  14.364
12660W        W74026  36.068  15.756  12.458
12661W        W74027  43.474  41.494   2.897
12662W        W74028  36.463  18.136   2.392
12663W        W74029  36.531  27.534  10.614
12664W        W74030   9.774  38.819  12.539
12665W        W74031  27.080  22.083   2.735
12666W        W74032  43.780  16.777   2.823
12667W        W74033  22.068  21.691   3.719
12668W        W74034   2.337  38.917  10.146
12669W        W74035  27.134   2.459  13.512
12670W        W74036  39.415   4.819   4.113
12671W        W74037   4.916  44.490   1.352
12672W        W74038  36.528  18.765  10.545
12673W        W74039  35.918  20.751   1.374
12674W        W74040  37.873  18.704   3.756
12675W        W74041  27.186  26.141  10.432
12676W        W74042  22.606  42.855  12.913
12677W        W74043  32.108  39.874  10.939
12678W        W74044  13.293  38.932   3.293
12679W        W74045  13.149   8.282   1.374
12680W        W74046   1.331   4.392   2.816
12681W        W74047  11.205  13.170   0.887
12682W        W74048   9.818  35.000  13.394
12683W        W74049  30.616  38.431  11.984
12684W        W74050  43.323  24.643  13.886
12685W        W74051  14.612  12.829   5.235
12686W        W74052   1.328  25.644   4.286
12687W        W74053  28.671  21.548   1.879
12688W        W74054  40.996   3.223   4.609
12689W        W74055  22.518  16.281   9.927
12690W        W74056  32.482  17.686   0.466
12691W        W74057  14.679  15.302  14.516
12692W        W74058  28.455   5.372   1.717
12693W        W74059  21.632  17.279  14.774
12694W        W74060  38.347  32.930  14.398
12695W        W74061  22.068   7.397   0.434
12696W        W74062  11.129   5.816  10.427
12697W        W74063  12.658  42.870  13.899
12698W        W74064  17.701   7.266   3.163
12699W        W74065  22.691  29.462   0.388
12700W        W74066   2.405  36.919   4.609
12701W        W74067  33.552  34.525   0.855
12702W        W74068  22.651  14.719   4.693
12703W        W74069  28.151  28.142  13.017
12704W        W74070  16.651  39.328   1.303
12705W        W74071  12.295  20.145   1.265
12706W        W74072  37.881  42.991   5.200
12707W        W74073  27.950  25.126  14.513
12708W        W74074  24.685  23.593   0.353
12709W        W74075  13.166  19.103   1.221
12710W        W74076  28.460  29.053  12.499
12711W        W74077   3.814  15.265  11.918
12712W        W74078  14.246  10.736  10.415
12713W        W74079  44.375  41.338   2.243
12714W        W74080  35.498  20.571   3.785
12715W        W74081  43.843  19.604   1.292
12716W        W74082  11.648  32.431  11.577
12717W        W74083  11.319  14.113  10.965
12718W        W74084   5.933  11.265  10.551
12719W        W74085  22.511  21.680  12.891
12720W        W74086  38.846  13.308   1.699
12721W        W74087  34.033  38.890  14.981
12722W        W74088  39.927  40.432  10.910
12723W        W74089  10.866  31.523   3.778
12724W        W74090  15.287  28.647   1.741
12725W        W74091  12.791  36.893  13.316
12726W        W74092   4.431   9.201   4.287
12727W        W74093  19.121  41.473   1.283
12728W        W74094  21.258   5.408  10.956
12729W        W74095  21.111  18.273   4.730
12730W        W74096  36.065  42.443  13.433
12731W        W74097  44.863  36.862  13.491
12732W        W74098  25.602   4.901   2.846
12733W        W74099  11.687  14.279  14.956
12734W        W74100   7.874  34.988  10.427
12735W        W74101  41.419   1.336  10.560
12736W        W74102   7.402  31.146  10.599
12737W        W74103  16.074  17.206   4.277
12738W        W74104  21.155  43.765   1.348
12739W        W74105  42.928  39.989  10.902
12740W        W74106  19.140  15.700  12.399
12741W        W74107  21.055  26.528   1.794
12742W        W74108   8.361  32.925  14.972
12743W        W74109   4.221  25.471   3.325
12744W        W74110  32.119  22.136  14.425
12745W        W74111  26.653  18.193  10.915
12746W        W74112   4.262  19.219  14.508
12747W        W74113  24.085   2.789  13.901
12748W        W74114   0.879  10.744   3.718
12749W        W74115   3.240  15.816   2.675
12750W        W74116  15.256  38.562   1.246
12751W        W74117  17.559  19.113   1.903
12752W        W74118   7.804  42.483   2.771
12753W        W74119   8.797  20.586  14.793
12754W        W74120  14.186  33.083  10.407
12755W        W74121  31.531  33.054   4.829
12756W        W74122  32.586  43.284  12.501
12757W        W74123  17.156  14.810  14.979
12758W        W74124   3.338  21.045   1.245
12759W        W74125   2.426  26.476   9.601
12760W        W74126  26.576  43.897   9.950
12761W        W74127  29.563  27.031   2.329
12762W        W74128  15.107  29.066   3.634
12763W        W74129   7.239  30.099   1.340
12764W        W74130  22.125   8.403   4.296
12765W        W74131  15.631  12.303   1.414
12766W        W74132  40.937  12.189  12.832
12767W        W74133  11.783  15.688  13.467
12768W        W74134   1.908  17.108  13.328
12769W        W74135  40.866   6.878  13.791
12770W        W74136  18.727  11.798  11.893
12771W        W74137   9.776  27.513  11.086
12772W        W74138  33.519  28.031   2.748
12773W        W74139  37.987  25.713   3.688
12774W        W74140  38.959  21.693   4.731
12775W        W74141  30.118  26.956  10.936
12776W        W74142   1.955  11.851  10.557
12777W        W74143  15.226  16.091  10.078
12778W        W74144  38.824  14.725  12.992
12779W        W74145   6.815  24.499   4.133
12780W        W74146  35.066  32.073   1.302
12781W        W74147  44.769   2.745   0.319
12782W        W74148   6.412  33.585  13.807
12783W        W74149  18.169  30.625   0.445
12784W        W74150  37.974  25.156  13.927
12785W        W74151  14.710  32.414  14.776
12786W        W74152  18.774   9.826   3.800
12787W        W74153  38.337  21.245  11.105
12788W        W74154  12.732   1.430  14.462
12789W        W74155  39.493  23.142   0.752
12790W        W74156  34.429  13.608   4.259
12791W        W74157  15.798  24.570  12.540
12792W        W74158  25.197  41.306   1.366
12793W        W74159  25.624  23.504   2.745
12794W        W74160  17.768  18.758  13.340
12795W        W74161   6.814   7.233  11.059
12796W        W74162   4.754   5.913   4.614
12797W        W74163  22.022  16.174  13.942
12798W        W74164  27.008  44.929   3.819
12799W        W74165  32.429  14.235   3.379
12800W        W74166   2.749  18.624  11.420
12801W        W74167  39.935  11.281  13.507
12802W        W74168  37.455  35.014  10.937
12803W        W74169   1.367  13.716   2.332
12804W        W74170  42.883   1.339  11.447
12805W        W74171  37.405  11.757   0.345
12806W        W74172  41.033  23.223   4.705
12807W        W74173  24.129  39.325  11.879
12808W        W74174  37.844   9.224   2.677
12809W        W74175   7.756   8.876  11.541
12810W        W74176   7.869   7.827   2.308
12811W        W74177  36.474  33.491  11.386
12812W        W74178   3.854   4.775  13.899
12813W        W74179   0.421   5.395   2.361
12814W        W74180  35.515  35.485   0.833
12815W        W74181   0.963  18.138  14.766
12816W        W74182  34.071  41.380  12.057
12817W        W74183  19.125  32.016   4.186
12818W        W74184  26.957  20.256   4.293
12819W        W74185  20.157  42.453   2.388
12820W        W74186   8.846   6.818   4.135
12821W        W74187  24.997  41.944   1.269
12822W        W74188  21.597   6.384   1.349
12823W        W74189  39.945  11.767  13.002
12824W        W74190  44.993   1.483   0.743
12825W        W74191  20.531  15.722  11.124
12826W        W74192  28.590   0.911  13.386
12827W        W74193   4.389  30.145   0.909
12828W        W74194   1.252  16.751  10.598
12829W        W74195  24.540  18.647   0.862
12830W        W74196  40.037  33.585   0.430
12831W        W74197  18.731  41.459  10.637
12832W        W74198  25.003  13.269   2.317
12833W        W74199   8.179  31.579   3.688
12834W        W74200  38.555  18.151   0.832
12835W        W74201  38.474  17.207   1.300
12836W        W74202  21.579  19.562  13.816
12837W        W74203   8.716  35.414  11.073
12838W        W74204  27.549  32.619   3.756
12839W        W74205  18.195   8.362  14.007
12840W        W74206  31.145  35.883  11.557
12841W        W74207   7.337  18.687  12.542
12842W        W74208  13.758  12.153   2.304
12843W        W74209  13.644  39.327  10.593
12844W        W74210  34.572   5.331   2.804
12845W        W74211   1.425  13.776  10.589
12846W        W74212  10.873  13.300   1.737
12847W        W74213  26.554   7.260  14.369
12848W        W74214  15.618  23.174  12.366
12849W        W74215  44.273  13.689   3.301
12850W        W74216  39.363  25.110   2.760
12851W        W74217  23.173  43.894  14.399
12852W        W74218  12.322   1.886   3.852
12853W        W74219  44.473  26.198  13.880
12854W        W74220   0.864  44.770   0.860
12855W        W74221   4.352   1.240   4.703
12856W        W74222   9.818   5.877   2.763
12857W        W74223  26.113  22.535  10.431
12858W        W74224  36.493  21.727  11.978
12859W        W74225   0.748  17.114  14.468
12860W        W74226  36.477   3.815   4.140
12861W        W74227   9.300  40.467   2.803
12862W        W74228  27.586  26.977   5.127
12863W        W74229  28.588  16.775   4.756
12864W        W74230  31.412  33.509   4.351
12865W        W74231  40.951  15.692  14.428
12866W        W74232  20.596  25.589   1.696
12867W        W74233   0.444  35.868  10.506
12868W        W74234  10.200   7.234   3.820
12869W        W74235  19.221   7.338  13.528
12870W        W74236  38.898  12.701  11.504
12871W        W74237  23.014  37.979   1.807
12872W        W74238  16.281  39.847   2.803
12873W        W74239  24.722  36.558  14.961
12874W        W74240  37.408  29.169  13.062
12875W        W74241  26.004   9.218   2.373
12876W        W74242  17.218  28.069   3.773
12877W        W74243  40.854   4.422  14.911
12878W        W74244  37.401  20.266   2.802
12879W        W74245  32.895   1.917   1.842
12880W        W74246  42.322  43.366   1.775
12881W        W74247  20.088   3.237   4.757
12882W        W74248  17.209  38.006  14.809
12883W        W74249  25.055  25.048  14.837
12884W        W74250  42.452  34.983   3.779
12885W        W74251  42.974   5.919   0.735
12886W        W74252  41.822  18.247  10.524
12887W        W74253  22.081  21.664  12.856
12888W        W74254  25.078  17.617   2.776
12889W        W74255   0.432  42.345   2.388
12890W        W74256  14.667  43.977  13.054
12891W        W74257  15.285   0.894   3.170
12892W        W74258  24.610   6.902  11.514
12893W        W74259  32.553  19.584  13.940
12894W        W74260   5.273  27.942   0.459
12895W        W74261  22.117   0.779   1.932
12896W        W74262  13.334  20.551   3.821
12897W        W74263  22.094  33.416   1.261
12898W        W74264  12.857  15.652   0.409
12899W        W74265  30.924  37.433  13.980
12900W        W74266  10.237  28.501   2.866
12901W        W74267   1.972  18.154  10.407
12902W        W74268  24.206  24.597   4.812
12903W        W74269  20.220  17.161   2.665
12904W        W74270  11.727  36.514   4.200
12905W        W74271  16.192   2.767   0.922
12906W        W74272  33.445  43.312  13.959
12907W        W74273  14.824   1.959   1.275
12908W        W74274  26.026   0.384  12.958
12909W        W74275  19.158  15.755   4.751
12910W        W74276   2.401  16.141   4.639
12911W        W74277  29.074  27.996   2.813
12912W        W74278  22.576   8.859   4.162
12913W        W74279   2.467  28.666   0.743
12914W        W74280  36.461  17.280   3.221
12915W        W74281  31.100   0.934  13.365
12916W        W74282   6.198   9.350   3.677
12917W        W74283  33.098   5.380   2.720
12918W        W74284  26.955  14.218  12.064
12919W        W74285  20.540  17.189   4.732
12920W        W74286  39.883  31.505   2.791
12921W        W74287   3.363   3.789   5.793
12922W        W74288  20.080  23.059  12.052
12923W        W74289  35.861  23.177   0.264
12924W        W74290  18.787   1.350  10.987
12925W        W74291   8.884  11.330   2.748
12926W        W74292  44.000   9.713  10.517
12927W        W74293  11.263  35.082  14.333
12928W        W74294   8.720   0.811   0.297
12929W        W74295  33.009  17.088  13.930
12930W        W74296  12.677   9.227  14.968
12931W        W74297  17.758  20.612   0.437
12932W        W74298  41.481  34.504   2.671
12933W        W74299  29.109   5.766  12.933
12934W        W74300  18.638   8.849  11.586
12935W        W74301   0.849   9.806   2.214
12936W        W74302  20.717  24.554  12.975
12937W        W74303  22.531  21.102  13.527
12938W        W74304   1.362   8.750  14.962
12939W        W74305  26.188  43.395   4.267
12940W        W74306  14.687  36.419  11.089
12941W        W74307   1.371  19.635   1.254
12942W        W74308  22.043  39.890  14.911
12943W        W74309  33.551  24.007   2.383
12944W        W74310  26.147  19.165   2.856
12945W        W74311  35.523  39.939   2.705
12946W        W74312   7.199  11.256   1.926
12947W        W74313   9.728  40.915  10.608
12948W        W74314   5.334  30.949  14.406
12949W        W74315   8.746  12.164  12.962
12950W        W74316  36.058  32.015  11.873
12951W        W74317  43.444  12.777  14.421
12952W        W74318  33.488   4.737  14.790
12953W        W74319  16.202   1.776   0.287
12954W        W74320  23.517  24.507  13.377
12955W        W74321  35.914   8.828   2.345
12956W        W74322  14.713  10.303  11.583
12957W        W74323  30.051  28.043   4.226
12958W        W74324  44.777  32.513  12.072
12959W        W74325  40.976   5.888   2.337
12960W        W74326  37.003   9.306   1.241
12961W        W74327   5.773  15.660  14.809
12962W        W74328   1.317   5.858   4.330
12963W        W74329  14.819  26.553   3.312
12964W        W74330  21.147  41.844   1.727
12965W        W74331  23.686  12.642   3.684
12966W        W74332   8.289  33.941   3.757
12967W        W74333  31.951  10.765   2.328
12968W        W74334  20.174  19.273   4.650
12969W        W74335  37.371  20.274  14.821
12970W        W74336  17.634  15.657  12.528
12971W        W74337   5.783   6.864   1.762
12972W        W74338  38.823   9.177  12.078
12973W        W74339  11.664  32.028  12.843
12974W        W74340  24.203  12.303   1.409
12975W        W74341  23.992  25.172  10.628
12976W        W74342  25.190  34.071  12.060
12977W        W74343  27.024  32.416  12.033
12978W        W74344  15.232  14.796  13.907
12979W        W74345  41.015  44.446  12.945
12980W        W74346  33.538  12.320  13.917
12981W        W74347  33.097   6.803  12.536
12982W        W74348  21.571  29.954   0.738
12983W        W74349  12.629  42.792  10.543
12984W        W74350  12.329  40.959   0.269
12985W        W74351  28.107  31.601  12.931
12986W        W74352  17.150  36.480  10.995
12987W        W74353  23.566  38.865  12.444
12988W        W74354  10.197  28.966  10.121
12989W        W74355  11.186  29.990  14.312
12990W        W74356  26.150  25.069  11.017
12991W        W74357  42.526  23.170   4.169
12992W        W74358  13.178  23.512   0.324
12993W        W74359  11.835  42.349  11.078
12994W        W74360  17.682  41.882  11.868
12995W        W74361  23.724  39.523  11.129
12996W        W74362  29.489   1.296  13.013
12997W        W74363  21.250   5.245  11.463
12998W        W74364  15.123  12.720  11.502
12999W        W74365  37.465  18.764   3.720
13000W        W74366  39.472  32.061  10.976
13001W        W74367  35.970  35.382   1.382
13002W        W74368  25.043  13.740   2.290
13003W        W74369  29.607  35.090  11.930
13004W        W74370  33.569  13.110  14.425
13005W        W74371  41.979  41.374   2.745
13006W        W74372   9.329  20.724   2.227
13007W        W74373  42.292  20.717  11.944
13008W        W74374  41.356  28.067   1.818
13009W        W74375  37.977  25.679  12.002
13010W        W74376  28.569  41.849   4.756
13011W        W74377  20.199  16.253  10.527
13012W        W74378  19.614   3.394   2.295
13013W        W74379  11.755  12.155  11.559
13014W        W74380   6.278   5.398  13.963
13015W        W74381  39.507  43.833   4.174
13016W        W74382   2.273  28.970   2.717
13017W        W74383   5.903  43.337  10.406
13018W        W74384  30.979  26.619   3.324
13019W        W74385   1.916  15.233  14.923
13020W        W74386  26.165  16.763   4.688
13021W        W74387  14.595  17.619   2.380
13022W        W74388  33.054  13.338   2.869
13023W        W74389  37.434  37.349  14.929
13024W        W74390   0.467  40.919  14.862
13025W        W74391  34.505  24.684  11.525
13026W        W74392  21.103  27.996   4.224
13027W        W74393  11.820  26.503  13.859
13028W        W74394  35.950   5.743  12.499
13029W        W74395  35.918  28.492   1.911
13030W        W74396   4.937   0.983   5.198
13031W        W74397  22.664   7.411   1.849
13032W        W74398  10.145  11.206  12.983
13033W        W74399  27.942  41.352   1.697
13034W        W74400   7.718  12.325   2.783
13035W        W74401  19.544  33.018   4.310
13036W        W74402  40.931   5.912  12.416
13037W        W74403  33.125   2.966  13.444
13038W        W74404   7.295  26.683  12.355
13039W        W74405  19.682   5.324  14.915
13040W        W74406  22.096  27.188  12.528
13041W        W74407  44.847  23.163  13.034
13042W        W74408  21.076  31.533   1.343
13043W        W74409  12.813   2.464  10.535
13044W        W74410   3.896  42.872  11.040
13045W        W74411  13.220  31.479   5.170
13046W        W74412  12.743  19.198   4.630
13047W        W74413  31.405  35.023  13.954
13048W        W74414   7.293  21.731  11.530
13049W        W74415  35.959  18.645   1.893
13050W        W74416  22.563   8.257   2.323
13051W        W74417  35.963  27.689   3.833
13052W        W74418  34.993  10.211  10.995
13053W        W74419  21.073  39.371  10.483
13054W        W74420  26.088  21.158  13.910
13055W        W74421   8.262   7.251   1.834
13056W        W74422  34.438  27.160  13.419
13057W        W74423  28.956  18.282   2.390
13058W        W74424  17.157  36.393  13.354
13059W        W74425  13.164   6.287   2.704
13060W        W74426  34.985  20.582   1.918
13061W        W74427  18.653  34.925  11.870
13062W        W74428  34.470  17.576   4.837
13063W        W74429   4.394   0.805  13.025
13064W        W74430   7.867  42.915  10.460
13065W        W74431   3.854   5.904   0.344
13066W        W74432   1.794  35.406   0.290
13067W        W74433  10.725  28.486  13.444
13068W        W74434  44.348  34.608  10.078
13069W        W74435  23.015  25.136   4.706
13070W        W74436  33.992  31.912  13.006
13071W        W74437   3.732   7.233   0.957
13072W        W74438   7.254  44.403   3.291
13073W        W74439  18.110  32.949  13.044
13074W        W74440   5.813   3.461   2.228
13075W        W74441  15.816  36.429  12.499
13076W        W74442  10.346  32.994  13.409
13077W        W74443  41.533  14.608  14.809
13078W        W74444  11.181  12.813  14.875
13079W        W74445  16.667  17.215  10.459
13080W        W74446  35.514  38.549  11.022
13081W        W74447   0.774  33.073  13.437
13082W        W74448  30.478  12.814   1.813
13083W        W74449  29.010  43.013   1.698
13084W        W74450  23.097  23.718   3.345
13085W        W74451   8.342  42.815  14.871
13086W        W74452  15.184   5.750  14.466
13087W        W74453   1.454  27.072  14.997
13088W        W74454  40.958  35.912  12.832
13089W        W74455  10.645  11.786   4.125
13090W        W74456   2.301   1.297   4.128
13091W        W74457  30.096  10.266  13.002
13092W        W74458  41.941  27.634  14.455
13093W        W74459  40.329   1.308   0.791
13094W        W74460  29.110  36.349  11.399
13095W        W74461  34.481  29.619  10.469
13096W        W74462   6.229  10.869   3.756
13097W        W74463  31.150  37.886  10.575
13098W        W74464   2.743  40.995   1.875
13099W        W74465  13.114  37.544  11.856
13100W        W74466  25.572   7.258   3.263
13101W        W74467   9.812  30.591  14.949
13102W        W74468  38.483   5.328   2.285
13103W        W74469  39.891  11.630  13.523
13104W        W74470  23.214  10.345   3.308
13105W        W74471  23.055   3.935   0.333
13106W        W74472  40.964  23.497  14.408
13107W        W74473   6.370  19.063   3.209
13108W        W74474   6.715  12.196  10.506
13109W        W74475  12.742   1.285  10.932
13110W        W74476   7.403  31.989   4.781
13111W        W74477  35.385  41.924   4.129
13112W        W74478  23.649  43.368   2.202
13113W        W74479  35.871  10.661   0.256
13114W        W74480  33.969  28.128   2.384
13115W        W74481  14.127  26.621   1.318
13116W        W74482  28.048  14.816   4.321
13117W        W74483   4.296  23.991   1.338
13118W        W74484  29.939   9.286  14.858
13119W        W74485  27.499  12.349  11.097
13120W        W74486  29.918  34.469   1.910
13121W        W74487  42.504   9.693   0.893
13122W        W74488   3.740  29.601   0.925
13123W        W74489  15.124  24.045   4.237
13124W        W74490  11.795   1.296   1.874
13125W        W74491  35.900   1.255   2.825
13126W        W74492  20.105  10.171   3.831
13127W        W74493   8.343  42.010  12.416
13128W        W74494  16.701   2.420   2.418
13129W        W74495  37.499  29.470   0.344
13130W        W74496  41.951  38.823  11.412
13131W        W74497  22.677  21.227  11.417
13132W        W74498   8.724   8.164  13.531
13133W        W74499  15.272  22.241  13.792
13134W        W74500  13.207  31.415   1.366
13135W        W74501  14.810  25.661  14.980
13136W        W74502   6.351  25.549   2.856
13137W        W74503  37.058  16.237   2.776
13138W        W74504  15.145  27.479   1.762
13139W        W74505  41.875  14.131   3.672
13140W        W74506  40.922   4.392   3.849
13141W        W74507  31.543  22.707  13.946
13142W        W74508  42.374   2.839   3.202
13143W        W74509  30.576  25.641  11.549
13144W        W74510  33.067   5.381  11.475
13145W        W74511  44.399  29.954  13.411
13146W        W74512  11.698  38.512   3.283
13147W        W74513  28.520  25.984   1.906
13148W        W74514  42.326  26.542  12.446
13149W        W74515   7.904  16.568   2.695
13150W        W74516  42.380  24.568   4.758
13151W        W74517  13.140  44.443   3.839
13152W        W74518  27.542  33.506   2.218
13153W        W74519  35.550  33.080   0.795
13154W        W74520  42.951  29.607  12.001
13155W        W74521  22.149  29.161  13.817
13156W        W74522  16.147  20.188  10.894
13157W        W74523  19.239  24.026  12.456
13158W        W74524  16.258   5.354   3.662
13159W        W74525   0.838  28.455  11.464
13160W        W74526  12.342  38.935  12.383
13161W        W74527  29.159  23.597  12.461
13162W        W74528  40.920  11.627  12.369
13163W        W74529  17.150  17.785  14.854
13164W        W74530  13.240   3.850   2.833
13165W        W74531   7.817  36.585   4.193
13166W        W74532  34.946  44.264   1.872
13167W        W74533  10.143  10.156   1.761
13168W        W74534  24.668  16.098  14.475
13169W        W74535   7.248  32.622  11.597
13170W        W74536   7.700  14.620   1.310
13171W        W74537  26.549  43.514   2.227
13172W        W74538  13.746   4.861  13.413
13173W        W74539   3.240  29.435   5.296
13174W        W74540  14.660  30.001   4.231
13175W        W74541  32.633  21.531  14.285
13176W        W74542   3.220  37.005  10.519
13177W        W74543  12.244  19.722   0.385
13178W        W74544  31.944  25.696  13.959
13179W        W74545   9.761  32.897  12.939
13180W        W74546  33.438   2.418  13.798
13181W        W74547  30.636  37.467   4.173
13182W        W74548  31.504  41.806  14.318
13183W        W74549  27.981   4.905  14.503
13184W        W74550  43.500   2.820  12.000
13185W        W74551  34.594   0.424  11.882
13186W        W74552   7.365  26.971  11.938
13187W        W74553  13.114   1.375   0.316
13188W        W74554  33.061  29.970  10.409
13189W        W74555   7.348  14.610  12.576
13190W        W74556  23.709  22.615  11.940
13191W        W74557  19.779  36.932  13.003
13192W        W74558  15.713  42.467   0.359
13193W        W74559   5.358  26.118  12.559
13194W        W74560  16.217  13.147  13.011
13195W        W74561  15.799  18.720  14.452
13196W        W74562  27.512   7.754   0.266
13197W        W74563  19.253  14.182   1.301
13198W        W74564   7.170  26.541   2.769
13199W        W74565  36.423  30.589   4.636
13200W        W74566  36.475   4.759  11.601
13201W        W74567   4.919  13.293   3.311
13202W        W74568   7.280  28.541  14.385
13203W        W74569  11.154  18.145   1.285
13204W        W74570  16.574  16.651   4.151
13205W        W74571  38.879  29.651   2.847
13206W        W74572  33.110  25.179  14.310
13207W        W74573   7.190  36.492   2.813
13208W        W74574   8.683  12.739  10.902
13209W        W74575  32.467   2.456  11.555
13210W        W74576  44.947   7.860   2.852
13211W        W74577  35.973  13.200  12.005
13212W        W74578  20.220  26.483   3.855
13213W        W74579  18.758  35.884   3.786
13214W        W74580  37.376  25.161   0.732
13215W        W74581   1.851  31.646   0.343
13216W        W74582  33.380  43.336  13.435
13217W        W74583  17.648  26.169  13.380
13218W        W74584  31.595   8.246  11.963
13219W        W74585   7.770  19.256  12.508
13220W        W74586  26.692  38.525  14.373
13221W        W74587  27.092  22.595   2.890
13222W        W74588  12.206   8.752  13.407
13223W        W74589   8.730  35.026  13.060
13224W        W74590  14.591   8.348  12.544
13225W        W74591  26.168  31.479  12.339
13226W        W74592  12.652  43.441  10.473
13227W        W74593  24.621  41.509  13.007
13228W        W74594  18.231  14.178   2.367
13229W        W74595  38.024  28.081  14.502
13230W        W74596   9.762  42.833   1.698
13231W        W74597   1.399  29.591  12.454
13232W        W74598   9.270   4.212  13.476
13233W        W74599  21.190  40.997  11.987
13234W        W74600   2.902  39.342  14.937
13235W        W74601  41.814  34.417  11.567
13236W        W74602  22.150   4.727   0.957
13237W        W74603  35.904  19.105  12.885
13238W        W74604  33.604   8.881  11.582
13239W        W74605  23.163  36.066  12.082
13240W        W74606  24.014  23.137   2.364
13241W        W74607  12.353  16.627   0.286
13242W        W74608   4.699   5.688  12.069
13243W        W74609   1.407  31.141   4.666
13244W        W74610  28.666  36.088  10.543
13245W        W74611  18.778  25.713  12.519
13246W        W74612  18.579  30.020  12.844
13247W        W74613  10.382   6.837  14.386
13248W        W74614  16.201  37.480   4.776
13249W        W74615  21.079   8.753  12.052
13250W        W74616   5.690  38.822  13.392
13251W        W74617  16.609  13.283   3.245
13252W        W74618  18.664   4.261   0.247
13253W        W74619  22.607   4.856  14.855
13254W        W74620  17.589  25.673   0.246
13255W        W74621  10.756  16.170   3.269
13256W        W74622  34.609  40.936  11.961
13257W        W74623  34.923  36.431   1.714
13258W        W74624  27.007  26.139   1.815
13259W        W74625  19.647  32.094   3.723
13260W        W74626  12.762  17.084  13.324
13261W        W74627  30.601  19.226  10.454
13262W        W74628  38.020  39.821   0.873
13263W        W74629   0.423  11.741   4.200
13264W        W74630  28.021   5.387  12.845
13265W        W74631  39.522   4.264   3.670
13266W        W74632  26.502   8.872   1.773
13267W        W74633  30.479  31.586  14.430
13268W        W74634   8.248  16.631   4.158
13269W        W74635  37.381   0.297  12.854
13270W        W74636  31.084   4.743   2.409
13271W        W74637  14.122  12.312   1.874
13272W        W74638  23.696  26.476  10.536
13273W        W74639  20.108  21.625   0.895
13274W        W74640  27.612  24.647  12.557
13275W        W74641   7.361   0.979   3.310
13276W        W74642  40.493  11.235  14.508
13277W        W74643  10.757  29.133  11.497
13278W        W74644  44.270  40.416  13.799
13279W        W74645  39.967  44.006   3.189
13280W        W74646  12.756  39.413  12.905
13281W        W74647  24.559   1.368  11.974
13282W        W74648  33.625   3.869   1.879
13283W        W74649  37.485  37.039   0.363
13284W        W74650  17.688  27.111  10.504
13285W        W74651   8.315  28.450   3.864
13286W        W74652  15.178  44.758  11.862
13287W        W74653  18.741   8.886   1.372
13288W        W74654  32.535  20.569   1.250
13289W        W74655  37.524  13.221   4.197
13290W        W74656  21.129   5.421   0.248
13291W        W74657   4.905  21.176  13.476
13292W        W74658  38.449   2.794  11.549
13293W        W74659  36.930   0.858   4.248
13294W        W74660  23.129   2.242   4.714
13295W        W74661   8.176   7.672  13.517
13296W        W74662   0.972  21.681  12.349
13297W        W74663  28.611  25.975   3.149
13298W        W74664   7.197  17.279   2.359
13299W        W74665  36.481  39.329  13.946
13300W        W74666  21.254   1.354   4.259
13301W        W74667  19.600   5.732  13.988
13302W        W74668   1.347  18.195  11.903
13303W        W74669  27.600   4.443   4.294
13304W        W74670   3.838  13.839   3.670
13305W        W74671   4.777  17.737   0.250
13306W        W74672  26.178  29.175   1.743
13307W        W74673  44.920  22.689  12.354
13308W        W74674  27.969  41.291  12.005
13309W        W74675   3.250   9.238  10.485
13310W        W74676  10.714  28.064   0.927
13311W        W74677  29.955  34.119  12.856
13312W        W74678   4.356  27.102   1.376
13313W        W74679  44.868  27.150   2.223
13314W        W74680   8.783  36.457  13.968
13315W        W74681  18.083  26.587  10.983
13316W        W74682  44.494  30.024  14.765
13317W        W74683   2.936  11.840  13.402
13318W        W74684  16.568   8.232  14.469
13319W        W74685  16.126   4.408   4.305
13320W        W74686  44.971  25.210  10.522
13321W        W74687  16.773  39.379  12.916
13322W        W74688  32.545  11.656  14.843
13323W        W74689  41.800   3.749  13.943
13324W        W74690   3.312  21.549  13.453
13325W        W74691   1.404  34.027   2.668
13326W        W74692  12.338  28.971  12.557
13327W        W74693  24.145   8.827   9.954
13328W        W74694  35.100  20.091   1.215
13329W        W74695   2.755   0.325  14.914
13330W        W74696  11.639  41.908  14.848
13331W        W74697  18.734  21.514   4.777
13332W        W74698  19.768  36.854   1.733
13333W        W74699  16.646   2.928   4.751
13334W        W74700  25.478  34.441   2.327
13335W        W74701  32.020  12.748  14.975
13336W        W74702  40.944  31.600   4.137
13337W        W74703   6.685  17.569   1.354
13338W        W74704  15.294  25.698   0.297
13339W        W74705  29.987  27.452   3.326
13340W        W74706  17.683  12.752   0.364
13341W        W74707  25.520   5.766   1.219
13342W        W74708  41.365  32.112   2.270
13343W        W74709  35.465  33.947   4.810
13344W        W74710  29.019  24.985   1.823
13345W        W74711  31.006  15.111  14.915
13346W        W74712  13.198  31.147  11.125
13347W        W74713  39.320  42.965  12.932
13348W        W74714  24.046   3.710  14.960
13349W        W74715  24.142  37.938  14.887
13350W        W74716  28.141  10.235  11.055
13351W        W74717  33.012  22.188  11.433
13352W        W74718  30.938  43.960  14.980
13353W        W74719   0.904   4.248   0.780
13354W        W74720  24.188  12.842  12.464
13355W        W74721  30.064  43.358  10.499
13356W        W74722  20.752  32.621   4.265
13357W        W74723   0.470  34.938   1.262
13358W        W74724   2.854  35.008   1.776
13359W        W74725  33.874  41.388   4.170
13360W        W74726  39.856  17.271   2.897
13361W        W74727  44.428  39.024   1.699
13362W        W74728  18.094   6.794   4.721
13363W        W74729  15.329  33.573   3.834
13364W        W74730   3.749  17.636  13.541
13365W        W74731  44.765   2.966  12.407
13366W        W74732  16.205  32.129   4.712
13367W        W74733  24.662  35.004   3.870
13368W        W74734  24.517  31.949   4.212
13369W        W74735  41.519  31.913  14.492
13370W        W74736   6.878  21.057   0.450
13371W        W74737   8.199  15.602  11.402
13372W        W74738  21.719  30.061  11.438
13373W        W74739  38.326  13.124   0.811
13374W        W74740   2.444  28.490   2.300
13375W        W74741   3.337  27.616   3.730
13376W        W74742  42.511  14.135   1.342
13377W        W74743  31.590  29.117   2.877
13378W        W74744  43.852  11.779   0.355
13379W        W74745  34.450  17.727   0.285
13380W        W74746  10.322  31.587   1.704
13381W        W74747  15.687  36.421   4.730
13382W        W74748  37.386  39.471   0.304
13383W        W74749  43.885  33.038   2.376
13384W        W74750  34.486  37.354   4.225
13385W        W74751   5.232   4.287  11.070
13386W        W74752  36.362  40.541  14.359
13387W        W74753  12.347  15.284   2.863
13388W        W74754  28.118  28.157  14.331
13389W        W74755   8.790  32.537  10.887
13390W        W74756  13.342  12.295  12.860
13391W        W74757  35.948  15.660   2.400
13392W        W74758  43.905  34.452  11.872
13393W        W74759   4.308  33.015  11.039
13394W        W74760   8.661  24.484  10.509
13395W        W74761  32.504  35.925  11.564
13396W        W74762  26.020   7.759  14.948
13397W        W74763  24.041  11.846   4.719
13398W        W74764  10.842  32.500   3.861
13399W        W74765  32.451  12.650   3.691
13400W        W74766  41.451  31.599  10.550
13401W        W74767  16.762  11.789  10.615
13402W        W74768  29.541   1.756   4.761
13403W        W74769  17.768  42.825  13.488
13404W        W74770  14.124  29.052   3.347
13405W        W74771   9.168  38.062   1.901
13406W        W74772  41.500   9.376  12.010
13407W        W74773  38.929  30.544  14.960
13408W        W74774  19.755  15.817   1.837
13409W        W74775  10.339  25.510   1.381
13410W        W74776   5.864   8.733  10.974
13411W        W74777   7.874   0.301  10.404
13412W        W74778  39.845   6.855   0.355
13413W        W74779  24.195  34.027   2.259
13414W        W74780  20.081   3.908  10.974
13415W        W74781  42.354  19.653   0.932
13416W        W74782  40.981  25.653   0.318
13417W        W74783   2.802  16.809  11.416
13418W        W74784  24.686  26.952  14.865
13419W        W74785  27.566  37.520  14.888
13420W        W74786  35.421  30.002   2.206
13421W        W74787  22.012  37.336   4.198
13422W        W74788  30.996  37.900  11.031
13423W        W74789  38.525  36.084   3.782
13424W        W74790  17.589  19.071  11.113
13425W        W74791  39.558  13.724  14.816
13426W        W74792  33.501  19.045   1.387
13427W        W74793  23.526  21.677   4.302
13428W        W74794  29.080  23.592  12.824
13429W        W74795   3.952   2.744  14.781
13430W        W74796  30.135  23.645   0.803
13431W        W74797  42.442  42.360   1.754
13432W        W74798  43.294  11.185  12.492
13433W        W74799  20.146  33.406   3.154
13434W        W74800  30.923  21.674  13.982
13435W        W74801  10.202  42.397  11.110
13436W        W74802   1.261  18.778  13.837
13437W        W74803  17.634  10.762   3.731
13438W        W74804  27.182  41.794  14.352
13439W        W74805   7.689  14.107  11.904
13440W        W74806  31.036  35.471   2.415
13441W        W74807  43.790  37.961   3.197
13442W        W74808  35.896   5.375   2.670
13443W        W74809   6.857  38.838  12.506
13444W        W74810  34.993  13.344   3.718
13445W        W74811  33.082   0.922   1.775
13446W        W74812  42.941  42.524   0.771
13447W        W74813  15.631  30.578  14.298
13448W        W74814  30.995  17.083   0.342
13449W        W74815  30.485   6.342   4.801
13450W        W74816  28.995  12.204  12.468
13451W        W74817  17.178  21.184   1.912
13452W        W74818  26.471  29.471   2.381
13453W        W74819   4.793  34.402   4.226
13454W        W74820  15.125  29.080   3.151
13455W        W74821  41.440   7.244   1.824
13456W        W74822  10.649  34.900   9.996
13457W        W74823  14.743   8.729   1.295
13458W        W74824  31.031  16.169  13.367
13459W        W74825  14.102  32.414  13.322
13460W        W74826  12.301  26.202   4.773
13461W        W74827   1.424  11.694   1.726
13462W        W74828  25.174  13.628  11.989
13463W        W74829   2.459  31.583  14.398
13464W        W74830  31.937  16.754  10.050
13465W        W74831  38.947   0.378  13.972
13466W        W74832   2.454  37.909  14.338
13467W        W74833   2.903  27.032  11.891
13468W        W74834   7.692  37.083   4.353
13469W        W74835  20.083  30.087   3.309
13470W        W74836  22.040  39.371   1.440
13471W        W74837  44.959  33.018  14.388
13472W        W74838  42.798  23.629   2.228
13473W        W74839  25.980  30.908   1.800
13474W        W74840  16.292   6.777  11.946
13475W        W74841  16.106  18.788   4.662
13476W        W74842  22.062  12.754  13.528
13477W        W74843   3.881  27.628   0.966
13478W        W74844  10.663  34.108  14.770
13479W        W74845   4.812  28.604  12.907
13480W        W74846  13.707   6.815  12.523
13481W        W74847   7.800   7.671  14.373
13482W        W74848  19.199   4.375  14.964
13483W        W74849  30.091  18.243  12.538
13484W        W74850  35.570  42.830   9.597
13485W        W74851  26.553  11.363   1.359
13486W        W74852  32.022  17.632   5.307
13487W        W74853  41.517  19.680   3.325
13488W        W74854  32.516   4.278  13.507
13489W        W74855  42.857  11.189  12.530
13490W        W74856  36.982  44.320  13.004
13491W        W74857  40.855  24.157   4.263
13492W        W74858  34.494  25.537  10.408
13493W        W74859  26.962  24.554   3.699
13494W        W74860  30.656  36.445   0.326
13495W        W74861  20.158  31.058   0.919
13496W        W74862  43.276   5.698   0.441
13497W        W74863   5.385  42.331  10.628
13498W        W74864   1.857  24.230  12.993
13499W        W74865  31.104  22.211  12.862
13500W        W74866  38.873  30.007  12.866
13501W        W74867  19.732   3.890  13.490
13502W        W74868  44.467  29.574   2.252
13503W        W74869   1.914  22.027  11.902
13504W        W74870  34.089   2.742  13.545
13505W        W74871  23.652  35.596   2.705
13506W        W74872  37.972  29.567   1.902
13507W        W74873  36.530  31.151  10.914
13508W        W74874  12.850  40.343   4.281
13509W        W74875  40.965  22.185  14.439
13510W        W74876  40.328  26.087   4.252
13511W        W74877  22.087   1.906  11.871
13512W        W74878  42.790  26.001   3.666
13513W        W74879   8.776  36.973   0.477
13514W        W74880   9.694  22.997  13.831
13515W        W74881   4.397  37.921  13.422
13516W        W74882  29.521  12.854  11.879
13517W        W74883  38.904  40.493  12.342
13518W        W74884  27.962   3.897   0.322
13519W        W74885   1.938   7.815  12.477
13520W        W74886  25.128   7.416  10.495
13521W        W74887  26.506   0.806  13.936
13522W        W74888  36.561   9.295   2.729
13523W        W74889   0.962  11.763   2.206
13524W        W74890  18.579  33.525  14.276
13525W        W74891  17.127   0.925   0.771
13526W        W74892  22.581  16.299  14.904
13527W        W74893  22.601  13.827   3.303
13528W        W74894  38.410  41.443  14.020
13529W        W74895   4.720  32.014  10.088
13530W        W74896  34.913  25.061   5.082
13531W        W74897  37.472  14.779   0.734
13532W        W74898  10.264   8.302  13.437
13533W        W74899   1.278   3.815   0.451
13534W        W74900   7.258  24.654  12.383
13535W        W74901   3.226  16.302   2.893
13536W        W74902  18.569  14.276   1.845
13537W        W74903  20.572  10.716   4.781
13538W        W74904  26.115  14.148  13.454
13539W        W74905  25.969  38.389   0.251
13540W        W74906  30.022  24.618  12.954
13541W        W74907  39.993  43.908  11.072
13542W        W74908  29.110  12.696  11.015
13543W        W74909  21.244  13.720   0.331
13544W        W74910  41.935  32.887   2.769
13545W        W74911  37.472   0.961  13.325
13546W        W74912  34.080   7.271   0.733
13547W        W74913  16.170  32.412  13.061
13548W        W74914  31.079  36.039   5.110
13549W        W74915  27.551  28.010   1.279
13550W        W74916   5.340  18.766  10.916
13551W        W74917  37.020  43.506  10.580
13552W        W74918   4.771   6.758   3.250
13553W        W74919   3.764  10.742   0.897
13554W        W74920   2.450  31.070   5.256
13555W        W74921  39.503  24.697   4.291
13556W        W74922  26.562  33.489   2.246
13557W        W74923  28.092  40.939   4.667
13558W        W74924  41.429  18.662   2.416
13559W        W74925  10.153  38.426  10.979
13560W        W74926  25.527  10.771   1.386
13561W        W74927  42.364  41.837  11.984
13562W        W74928  32.091  19.235   0.843
13563W        W74929  33.547  14.663   3.191
13564W        W74930  42.032  34.903   0.758
13565W        W74931  21.222  25.042  12.083
13566W        W74932  12.263  22.055   4.164
13567W        W74933  28.164  39.981  12.406
13568W        W74934   8.769  27.071   0.420
13569W        W74935  14.106  13.615   0.854
13570W        W74936  37.912  22.996   0.479
13571W        W74937  12.700  38.479  12.381
13572W        W74938   6.915   2.297  14.783
13573W        W74939  32.622  20.734  14.958
13574W        W74940  20.166   1.914  10.973
13575W        W74941  28.584  36.451  14.459
13576W        W74942  27.681  27.142  11.975
13577W        W74943   7.677  37.085  13.359
13578W        W74944  25.086  32.951   0.383
13579W        W74945  34.063  23.692   0.940
13580W        W74946  18.699  30.488  14.422
13581W        W74947  38.502  32.993  13.993
13582W        W74948  30.477  40.345  11.066
13583W        W74949  26.169  10.372  13.034
13584W        W74950  39.911   3.781   4.322
13585W        W74951  20.038  18.709   2.342
13586W        W74952  19.701  25.553  14.454
13587W        W74953   1.830  32.463  11.527
13588W        W74954  40.017  32.582   2.314
13589W        W74955  39.330  18.688  14.007
13590W        W74956  43.014  39.459  14.915
13591W        W74957   0.481  28.589  14.429
13592W        W74958  16.291  22.134  14.029
13593W        W74959  32.467  39.340  10.990
13594W        W74960  23.021  13.819  14.471
13595W        W74961  41.889  21.639   1.326
13596W        W74962  11.841  42.502   1.369
13597W        W74963  13.751   7.242   3.195
13598W        W74964  30.604  35.447   0.800
13599W        W74965   0.407   3.293  11.063
13600W        W74966  17.234  18.616  14.989
13601W        W74967  23.554  10.256  12.379
13602W        W74968   5.784  32.060   4.167
13603W        W74969  15.201  18.563  13.395
13604W        W74970   4.413  30.555  13.320
13605W        W74971  40.358  27.122  12.837
13606W        W74972  20.075  37.840   1.786
13607W        W74973  40.472  19.208   3.721
13608W        W74974  14.633  14.683  11.568
13609W        W74975  13.830  43.836   4.238
13610W        W74976   9.197  39.939   1.376
13611W        W74977   2.782  12.769   0.922
13612W        W74978   0.951  34.954   0.808
13613W        W74979  31.978  20.153  12.860
13614W        W74980  28.587  23.196  12.405
13615W        W74981  40.430  20.598   4.211
13616W        W74982  13.823  43.914   1.811
13617W        W74983  25.655  28.448   2.698
13618W        W74984  24.614  43.420   4.305
13619W        W74985   1.293  35.101  11.954
13620W        W74986  24.174  18.790  11.538
13621W        W74987  15.592   0.263   0.322
13622W        W74988  39.893  19.681   3.851
13623W        W74989  21.204  35.057   0.294
13624W        W74990  43.505  20.157  12.985
13625W        W74991   8.343  10.860   2.711
13626W        W74992  27.481  32.458  14.837
13627W        W74993  40.386  13.701  10.504
13628W        W74994   9.791  12.645   3.248
13629W        W74995  23.094  24.127   1.331
13630W        W74996  34.575  12.174  12.950
13631W        W74997  40.548  28.634  12.033
13632W        W74998   3.951  26.984  10.039
13633W        W74999  13.331  34.435  12.461
13634W        W75000   1.922  21.148   4.316
13635W        W75001   1.391  32.616  14.818
13636W        W75002  41.519  36.012  11.586
13637W        W75003  19.081  28.602   1.718
13638W        W75004  14.677   6.305   2.198
13639W        W75005  36.498  18.177   3.274
13640W        W75006  19.760  12.667  10.456
13641W        W75007  25.561   4.881  14.446
13642W        W75008  40.385  30.427   2.754
13643W        W75009  30.428  20.741  14.366
13644W        W75010  42.888  18.259   3.685
13645W        W75011  33.075   4.435   4.157
13646W        W75012  17.302   4.280  10.453
13647W        W75013  31.568  10.667  11.908
13648W        W75014   7.357   6.716  11.018
13649W        W75015  11.197   4.442   4.146
13650W        W75016  30.636  36.422   3.782
13651W        W75017  16.601  15.655   1.850
13652W        W75018  24.166  28.085   4.606
13653W        W75019  25.484   1.292  14.459
13654W        W75020  21.222  26.675   3.305
13655W        W75021   6.863  29.525   3.805
13656W        W75022  29.642   2.823  14.480
13657W        W75023   3.241  32.955  13.513
13658W        W75024  19.584  19.712   0.307
13659W        W75025   3.930  14.132  14.779
13660W        W75026  10.647   4.764   0.438
13661W        W75027   0.454  25.032   3.667
13662W        W75028  20.143  17.780   1.842
13663W        W75029   8.287  30.453  11.595
13664W        W75030   5.367   4.823  11.965
13665W        W75031   1.809  27.102  13.799
13666W        W75032   2.340  14.668   4.227
13667W        W75033  16.592  21.663   4.250
13668W        W75034  44.907  27.504   4.236
13669W        W75035  35.018  22.148  14.448
13670W        W75036  28.619  23.497  10.524
13671W        W75037  37.403  29.483  14.346
13672W        W75038   6.686  32.635  12.083
13673W        W75039  22.231   4.932  11.948
13674W        W75040  17.590  43.788  11.005
13675W        W75041  15.730  31.909   0.842
13676W        W75042   9.649   5.283  13.416
13677W        W75043   6.737   5.893  12.466
13678W        W75044  30.493  34.467   0.364
13679W        W75045  11.732  40.937  12.381
13680W        W75046  37.472  27.683  13.374
13681W        W75047  43.952  26.082   4.206
13682W        W75048  34.474  17.238   1.226
13683W        W75049  16.123  15.746   3.191
13684W        W75050  25.207  10.198  10.502
13685W        W75051  12.251  35.579   4.245
13686W        W75052  19.676  32.466   4.257
13687W        W75053  12.259  16.724   1.741
13688W        W75054  11.759  44.460  10.132
13689W        W75055  13.171  24.136   5.295
13690W        W75056   4.808   5.754  13.338
13691W        W75057  17.704  31.427  11.057
13692W        W75058  33.982  18.195   3.252
13693W        W75059  21.525  22.550   1.781
13694W        W75060  26.997  23.001   4.835
13695W        W75061  13.108   8.337   2.669
13696W        W75062   9.203  30.030   4.751
13697W        W75063  35.010  22.213  11.592
13698W        W75064  17.794  44.787   1.703
13699W        W75065   1.760  15.213   1.264
13700W        W75066  38.845   4.396  13.526
13701W        W75067  16.737  40.453  13.357
13702W        W75068   2.304  32.892   2.339
13703W        W75069  31.451  14.640  11.425
13704W        W75070  31.025  14.333  11.942
13705W        W75071  10.213  14.761   3.820
13706W        W75072  17.073   2.954  10.488
13707W        W75073   8.883  33.437  12.073
13708W        W75074  36.029  37.841  14.808
13709W        W75075  26.587  15.719  13.505
13710W        W75076  23.718  42.017   3.738
13711W        W75077  24.088   6.237   3.245
13712W        W75078  44.273  14.696   5.292
13713W        W75079  33.570  29.461  13.342
13714W        W75080  14.338  18.098  12.955
13715W        W75081   1.751   2.365   4.266
13716W        W75082  17.138   0.350   3.371
13717W        W75083  10.220  43.358  12.420
13718W        W75084  23.547  20.758   0.334
13719W        W75085   9.293  43.270  11.437
13720W        W75086  27.503  18.791  12.411
13721W        W75087   3.277  21.553   4.674
13722W        W75088  25.070  38.866  12.416
13723W        W75089  33.533  23.189  12.351
13724W        W75090  33.423   9.813  10.569
13725W        W75091  30.114  11.268   0.826
13726W        W75092  11.236  25.662   3.204
13727W        W75093  31.092  30.572   2.394
13728W        W75094  38.533   9.233   2.810
13729W        W75095   4.885  13.629  13.923
13730W        W75096  16.735  12.221  11.069
13731W        W75097  26.602  22.515   3.177
13732W        W75098  44.932  41.019  11.394
13733W        W75099  16.252  11.853  12.506
13734W        W75100  27.474  22.142  10.640
13735W        W75101  44.354  26.553  11.545
13736W        W75102  32.087  39.519   3.234
13737W        W75103  29.562   3.849   4.162
13738W        W75104  26.043  40.438   3.368
13739W        W75105  18.763  40.964   1.806
13740W        W75106  34.493  32.962   1.932
13741W        W75107  40.446   4.227  11.455
13742W        W75108  36.051   7.386  14.828
13743W        W75109  16.577  38.836  12.845
13744W        W75110  20.754  33.932   2.326
13745W        W75111   7.718   5.884  12.974
13746W        W75112  37.506  28.061  13.013
13747W        W75113   7.227  39.520  14.828
13748W        W75114   6.791  38.006   4.318
13749W        W75115   5.909  39.813   4.117
13750W        W75116  34.483  44.885  13.495
13751W        W75117  20.636   2.357   2.714
13752W        W75118  17.190  17.211   1.709
13753W        W75119   3.800  17.192   3.217
13754W        W75120  29.436  19.146  13.468
13755W        W75121  43.342  28.636  11.015
13756W        W75122  22.077  36.483  12.567
13757W        W75123  30.127  21.658  12.474
13758W        W75124  12.618   8.845   4.657
13759W        W75125  33.963  18.266  12.856
13760W        W75126   6.228   4.380  10.004
13761W        W75127  13.204  32.067  10.998
13762W        W75128  44.982  40.956  10.489
13763W        W75129  25.038  38.508  11.597
13764W        W75130   3.220  28.617  11.375
13765W        W75131   6.392  12.725  14.432
13766W        W75132  12.288  30.615  13.810
13767W        W75133  28.975  31.926   5.193
13768W        W75134  21.620  39.810  12.570
13769W        W75135   7.758  16.170   0.727
13770W        W75136  17.259   1.425   0.289
13771W        W75137  35.442   5.288   2.330
13772W        W75138   2.916   4.343   0.304
13773W        W75139  42.497  24.709   2.719
13774W        W75140  41.305  37.496   3.291
13775W        W75141  23.203  15.667  13.540
13776W        W75142   3.292   9.301  11.410
13777W        W75143  18.154   0.383  11.950
13778W        W75144  19.102   3.343   1.444
13779W        W75145   3.412  20.569   4.712
13780W        W75146  38.435  35.012  13.336
13781W        W75147  28.025  23.548  12.083
13782W        W75148  24.629   0.874  10.455
13783W        W75149   2.368  18.274   4.276
13784W        W75150  39.542   6.820  14.887
13785W        W75151  29.627  13.173   3.671
13786W        W75152  34.106  29.477  13.940
13787W        W75153   4.329  10.157  10.415
13788W        W75154  23.640  29.460  11.611
13789W        W75155   3.953  27.670  13.545
13790W        W75156  17.180   5.719  10.088
13791W        W75157  44.278   7.254   3.780
13792W        W75158  27.620  11.851  13.841
13793W        W75159  20.669  36.406  11.930
13794W        W75160  13.250   7.332  13.844
13795W        W75161  44.423   2.430   3.289
13796W        W75162  17.704  16.299  14.808
13797W        W75163  10.357   2.765  12.395
13798W        W75164  19.690  30.625   4.248
13799W        W75165  34.514  20.743   0.731
13800W        W75166  26.070  27.970   0.351
13801W        W75167   8.371  28.526   2.184
13802W        W75168  32.918  32.967  11.988
13803W        W75169  26.062  30.126  11.372
13804W        W75170   7.363   2.771   1.810
13805W        W75171   1.307  17.606  11.573
13806W        W75172  44.450   3.410  12.032
13807W        W75173  36.874  34.047   0.938
13808W        W75174  28.146   5.384  10.440
13809W        W75175  36.966   1.457   0.877
13810W        W75176  40.533  12.756  12.566
13811W        W75177   8.751  33.618  10.540
13812W        W75178  37.512  25.562  11.957
13813W        W75179   2.266  44.885   3.181
13814W        W75180   6.825   5.381   4.177
13815W        W75181  21.742  37.996  12.064
13816W        W75182  34.403  43.347   1.302
13817W        W75183  12.252  17.169   0.923
13818W        W75184   6.356  41.486  13.902
13819W        W75185   7.298  38.878   0.382
13820W        W75186  37.885  36.899  13.328
13821W        W75187   7.670  13.178   4.765
13822W        W75188  39.538  11.367  13.060
13823W        W75189   3.867  36.896  11.599
13824W        W75190  15.628  43.017  12.406
13825W        W75191  13.728  11.171  12.979
13826W        W75192  13.802   4.374  11.941
13827W        W75193  43.846  33.961   4.751
13828W        W75194  36.506   6.858   2.676
13829W        W75195  43.980  34.865   4.138
13830W        W75196  33.950  16.152   4.115
13831W        W75197  31.515   6.313  12.507
13832W        W75198  14.592  39.560  13.342
13833W        W75199  26.603   5.314  11.512
13834W        W75200  34.918  13.240  14.454
13835W        W75201   2.938  14.609  11.449
13836W        W75202   5.394  23.216   4.694
13837W        W75203  16.172  19.267  10.970
13838W        W75204  16.240  29.163  11.579
13839W        W75205  15.275  18.262   4.598
13840W        W75206  14.761  34.871   2.224
13841W        W75207   2.820   5.210  14.379
13842W        W75208  24.104  17.593   2.804
13843W        W75209  31.409  25.996   0.960
13844W        W75210  27.665  15.182   2.388
13845W        W75211  27.573  15.671  13.864
13846W        W75212  22.525   2.797   4.813
13847W        W75213  31.523  21.596   1.801
13848W        W75214  30.070  30.571  14.385
13849W        W75215   8.799  26.527   4.206
13850W        W75216  43.388  18.292   1.858
13851W        W75217  22.535  29.581  14.479
13852W        W75218   4.852  13.347   3.637
13853W        W75219  42.349  44.907   4.122
13854W        W75220  42.014  33.562   3.758
13855W        W75221   5.836   4.923   0.411
13856W        W75222  11.323  29.560  12.826
13857W        W75223  18.611   6.201   3.752
13858W        W75224  28.971   1.785  11.387
13859W        W75225   0.476   3.876   2.706
13860W        W75226  44.430  18.559   5.140
13861W        W75227  34.064  16.758   4.186
13862W        W75228  23.232   3.762  12.033
13863W        W75229   3.272  36.392  11.007
13864W        W75230  26.701  42.491   0.386
13865W        W75231  20.071   8.854   3.175
13866W        W75232   6.876  20.694  13.883
13867W        W75233  40.530   0.474   0.252
13868W        W75234  39.374  32.911   1.851
13869W        W75235  18.656   5.792   0.822
13870W        W75236  18.759  10.710   1.771
13871W        W75237  27.023   1.420   1.280
13872W        W75238  24.081  39.031   2.814
13873W        W75239  10.224  34.389  13.896
13874W        W75240  26.099  23.033  13.319
13875W        W75241  34.867   0.330   3.219
13876W        W75242  17.207  12.768  13.923
13877W        W75243  16.794  44.274   2.766
13878W        W75244  12.657  43.818   3.661
13879W        W75245  14.686  41.806   2.266
13880W        W75246  38.963  11.269  12.889
13881W        W75247  18.105  32.017  12.085
13882W        W75248  32.102  26.581  10.010
13883W        W75249   3.419  33.390   2.227
13884W        W75250  24.483   1.899  14.936
13885W        W75251   7.759  24.209  13.340
13886W        W75252  10.736  43.861   3.346
13887W        W75253  39.471  11.679   2.890
13888W        W75254  30.122  16.270  10.472
13889W        W75255   4.234  20.597  14.854
13890W        W75256  12.278  36.856  12.948
13891W        W75257  10.764  33.029   0.925
13892W        W75258  27.579   0.397   1.934
13893W        W75259  16.239  37.568   4.197
13894W        W75260  34.996  28.117   0.823
13895W        W75261  18.121  19.614   3.277
13896W        W75262  38.524  43.490  13.985
13897W        W75263  32.469  26.111   1.427
13898W        W75264  30.028  15.146   4.311
13899W        W75265  30.058  42.315  11.433
13900W        W75266   3.445  34.561   0.274
13901W        W75267  32.099  30.134   4.266
13902W        W75268  33.471  24.559   3.716
13903W        W75269  33.912  39.481  12.064
13904W        W75270  36.021   1.825  12.441
13905W        W75271  38.368  15.811  12.062
13906W        W75272  20.671   7.254  11.914
13907W        W75273  14.711  11.323   1.748
13908W        W75274  30.658   6.339   3.739
13909W        W75275  36.413  41.811   2.754
13910W        W75276  24.081  21.057  12.493
13911W        W75277  26.641  41.871   4.723
13912W        W75278  27.524  39.875  14.850
13913W        W75279  42.324  10.158  11.047
13914W        W75280  28.514  21.739  11.444
13915W        W75281  27.952  10.770  11.884
13916W        W75282  27.185  14.780  12.564
13917W        W75283  27.668  30.549  14.345
13918W        W75284   2.788  22.711  13.396
13919W        W75285   6.340  14.280   2.722
13920W        W75286  41.391  15.293   3.171
13921W        W75287  29.172  40.413   1.763
13922W        W75288   4.253  44.803   3.674
13923W        W75289  31.466  30.463  12.875
13924W        W75290  37.501   4.843  13.349
13925W        W75291   8.891  22.136   3.845
13926W        W75292  33.933   1.735  14.783
13927W        W75293  24.577  34.508  10.990
13928W        W75294  37.364  41.825   0.947
13929W        W75295   3.247  29.053   5.742
13930W        W75296  16.196   4.816   0.760
13931W        W75297   4.942  31.504  14.900
13932W        W75298   9.875  44.816   1.897
13933W        W75299  35.576   9.273   0.763
13934W        W75300  39.423  25.523   4.777
13935W        W75301  38.540   7.701   1.231
13936W        W75302  34.516  11.680   0.827
13937W        W75303  11.666  21.156   0.253
13938W        W75304  32.558   9.783  12.551
13939W        W75305  15.127   5.711  13.937
13940W        W75306  42.345  44.273  10.935
13941W        W75307  40.865  24.621  14.432
13942W        W75308   3.422  28.505   2.768
13943W        W75309  15.703   5.701   2.182
13944W        W75310  30.135  38.859   1.914
13945W        W75311  36.434  29.144  13.397
13946W        W75312  44.930   6.378  13.861
13947W        W75313  13.249  42.319   1.364
13948W        W75314  42.840   5.227  14.814
13949W        W75315  12.690  41.876   2.688
13950W        W75316   0.894  36.356  10.536
13951W        W75317  38.330  20.668   3.380
13952W        W75318   6.865  12.845   3.847
13953W        W75319  18.647  17.195  13.923
13954W        W75320   7.854  10.792   0.923
13955W        W75321  32.057  22.692   2.387
13956W        W75322   5.746   5.730   0.939
13957W        W75323  20.035  42.849   5.313
13958W        W75324  15.259  23.077  13.348
13959W        W75325  34.536  38.061   5.183
13960W        W75326  30.103  26.547  13.844
13961W        W75327  12.778  40.514   2.190
13962W        W75328  12.197  13.224   2.780
13963W        W75329   5.800  38.077  11.124
13964W        W75330  16.574   5.743   2.314
13965W        W75331  37.448  17.186   4.724
13966W        W75332  40.905  42.354  13.466
13967W        W75333  36.453  15.809  10.524
13968W        W75334  36.378  14.173  12.037
13969W        W75335  11.644  38.541  14.978
13970W        W75336   4.323  17.091  12.012
13971W        W75337  10.860  34.867   0.829
13972W        W75338  33.919  30.617  12.070
13973W        W75339  29.529  22.716   1.212
13974W        W75340  14.821   6.322   4.331
13975W        W75341   3.257  28.092   2.319
13976W        W75342  16.732  12.336  10.498
13977W        W75343  19.566  24.201   4.143
13978W        W75344   8.682  34.913  11.978
13979W        W75345   4.920  15.603   3.750
13980W        W75346   6.713  36.085   2.851
13981W        W75347  32.897  23.092   0.950
13982W        W75348  22.525  17.710   0.398
13983W        W75349   6.767   1.285   0.895
13984W        W75350  32.907   0.413   3.250
13985W        W75351  41.324  16.101   3.669
13986W        W75352   7.289  38.480  12.014
13987W        W75353  18.611  32.957  13.526
13988W        W75354  25.707  26.595   4.607
13989W        W75355  38.879  13.772  12.824
13990W        W75356  15.641  20.715   1.235
13991W        W75357   8.731  25.066  12.444
13992W        W75358  16.729   9.706   2.323
13993W        W75359  38.486   0.884  10.619
13994W        W75360  35.867  20.685   3.360
13995W        W75361   0.782   7.867  14.436
13996W        W75362  39.507  40.881  10.532
13997W        W75363  33.108  28.072   2.711
13998W        W75364  30.967  26.048   3.268
13999W        W75365  24.006  32.598  14.350
14000W        W75366  15.152  37.398  12.568
14001W        W75367   8.733  21.127   0.419
14002W        W75368  12.314  22.022  12.551
14003W        W75369  19.184  15.647   4.115
14004W        W75370  38.527  13.266  14.296
14005W        W75371  40.510  42.893   5.088
14006W        W75372  19.072  17.637   0.807
14007W        W75373  37.516   1.908   0.784
14008W        W75374  31.909  28.957   1.423
14009W        W75375  37.903   5.844  14.381
14010W        W75376  38.557  37.534  14.410
14011W        W75377  37.052  25.592  13.513
14012W        W75378  10.854   1.440  13.837
14013W        W75379  15.758  40.498   3.367
14014W        W75380  18.101  14.777   9.485
14015W        W75381  18.070  31.121  14.899
14016W        W75382  39.401  34.006   0.297
14017W        W75383  24.028   0.782  14.429
14018W        W75384  43.461  42.932   1.231
14019W        W75385  40.483   0.975  12.974
14020W        W75386   9.649  39.032  13.353
14021W        W75387  20.057  25.585   1.824
14022W        W75388  12.178  41.515  12.085
14023W        W75389  43.396  26.104   0.740
14024W        W75390  33.959  19.727   4.299
14025W        W75391  25.521  17.590   4.275
14026W        W75392   0.929  26.593  13.372
14027W        W75393   3.337  33.407   2.678
14028W        W75394   3.914  18.674  13.506
14029W        W75395  41.998   4.219  14.955
14030W        W75396  37.988  42.490   0.283
14031W        W75397  41.503  42.293   2.265
14032W        W75398   0.256  22.735  11.579
14033W        W75399   9.206  25.634  11.888
14034W        W75400  14.645  38.945   1.391
14035W        W75401  19.650   8.265  12.903
14036W        W75402  29.577  21.198   0.327
14037W        W75403  14.137  13.690   2.281
14038W        W75404  41.387   3.882   1.232
14039W        W75405  16.703  32.517   3.344
14040W        W75406  19.086  34.119  10.110
14041W        W75407  10.711  22.075   3.706
14042W        W75408  12.246  28.962   4.329
14043W        W75409   6.236  32.127   1.348
14044W        W75410   6.383  22.019   1.847
14045W        W75411  24.685  43.868   4.147
14046W        W75412  42.961  38.480   2.321
14047W        W75413   3.898  21.551   3.192
14048W        W75414  13.326  35.853   4.711
14049W        W75415  23.161  15.300   4.278
14050W        W75416   3.416  36.999  10.919
14051W        W75417  17.739  38.035  13.456
14052W        W75418  23.699   1.797  13.538
14053W        W75419   8.833  36.383   2.714
14054W        W75420  12.803  38.356  10.414
14055W        W75421  44.406  38.379   0.375
14056W        W75422  28.519   8.898   0.918
14057W        W75423  36.881  43.906   0.389
14058W        W75424  22.599   5.790   3.302
14059W        W75425  25.050  34.102  12.429
14060W        W75426  42.379  11.361  14.349
14061W        W75427  27.068  16.736   4.664
14062W        W75428  13.760  30.642   1.741
14063W        W75429   7.309  12.150   2.819
14064W        W75430  19.719  43.018  13.492
14065W        W75431  11.238  31.551  11.481
14066W        W75432  39.452  15.249  12.053
14067W        W75433  39.888  29.979   3.209
14068W        W75434  42.306  12.303   3.630
14069W        W75435  36.025  32.045   5.154
14070W        W75436   3.264  21.704   2.877
14071W        W75437  24.034   9.888  12.877
14072W        W75438  17.762  15.761   9.923
14073W        W75439   3.858   3.932   3.768
14074W        W75440   4.738   9.219  14.892
14075W        W75441  32.897  34.017   0.877
14076W        W75442  25.211   8.267   3.748
14077W        W75443  28.145  23.144  10.904
14078W        W75444  20.768  14.674   3.748
14079W        W75445   6.903  24.204   3.363
14080W        W75446   8.176  18.067  13.504
14081W        W75447  44.787  38.404   2.782
14082W        W75448  34.867  13.645   4.719
14083W        W75449  17.625  44.479   4.789
14084W        W75450   6.877   1.239   2.374
14085W        W75451  11.193  30.952   0.455
14086W        W75452  32.634  37.432   3.312
14087W        W75453  33.402  22.181   2.258
14088W        W75454  35.591  11.130   3.203
14089W        W75455  19.746  40.957  12.504
14090W        W75456  17.597  10.726   3.280
14091W        W75457  34.078   7.255  13.328
14092W        W75458  23.568   2.813   0.834
14093W        W75459  19.737  28.992  12.936
14094W        W75460  18.577  18.667   0.834
14095W        W75461  14.272  40.821  13.883
14096W        W75462  28.470   1.811  11.553
14097W        W75463  43.964  14.599   0.273
14098W        W75464  32.047  23.055   1.431
14099W        W75465  12.337  15.792  12.450
14100W        W75466  12.265  14.768   3.189
14101W        W75467  34.391  37.391   4.772
14102W        W75468   7.786  29.510   3.860
14103W        W75469  14.131  42.488   3.692
14104W        W75470  12.119   7.403   4.753
14105W        W75471  30.987   7.907  11.121
14106W        W75472  31.091  32.103  10.626
14107W        W75473   6.865  40.349  13.874
14108W        W75474  29.496  23.144  14.847
14109W        W75475   3.401   3.825   2.766
14110W        W75476  41.526  42.353  12.915
14111W        W75477   8.212  34.381  11.127
14112W        W75478   1.345  24.993   2.796
14113W        W75479  35.927  42.401  11.603
14114W        W75480  15.310  28.673  14.774
14115W        W75481  40.898  27.131   4.139
14116W        W75482  18.185  31.588  11.985
14117W        W75483  18.277   5.218  10.492
14118W        W75484  21.176   0.317   0.850
14119W        W75485  30.081  18.702  11.061
14120W        W75486  28.598  38.441   2.806
14121W        W75487  44.380  31.051   4.183
14122W        W75488  29.993  44.890  13.518
14123W        W75489   9.867  32.081  14.443
14124W        W75490  44.337  35.361  13.421
14125W        W75491  37.963  14.730   2.251
14126W        W75492  44.859  15.717  12.955
14127W        W75493  14.640  32.986   0.796
14128W        W75494  18.545  42.514  14.365
14129W        W75495  42.373  13.281  11.088
14130W        W75496   2.812  15.601  13.819
14131W        W75497  21.114   4.886   2.731
14132W        W75498  42.789  19.193   4.308
14133W        W75499   4.394   5.233  12.862
14134W        W75500  23.234  30.615  13.467
14135W        W75501  17.214  28.070   5.265
14136W        W75502  39.894  14.690   0.325
14137W        W75503  20.596  36.517   3.853
14138W        W75504   3.788  20.107   0.836
14139W        W75505  24.722  11.168  14.401
14140W        W75506  30.511  36.373  12.481
14141W        W75507   4.322  31.040   0.949
14142W        W75508  24.567   5.859  10.910
14143W        W75509  36.917  25.999   0.952
14144W        W75510   6.222  34.421  13.798
14145W        W75511  38.402  44.858  11.036
14146W        W75512  38.422   3.427   0.871
14147W        W75513   5.727  27.486   3.345
14148W        W75514  33.492   9.664   4.607
14149W        W75515  23.678  23.010  10.507
14150W        W75516   4.319  30.555  14.288
14151W        W75517   9.357  41.424  11.048
14152W        W75518  31.947  40.514   9.640
14153W        W75519  22.554  44.851   4.704
14154W        W75520  14.332  30.996   1.696
14155W        W75521  32.974  37.511   5.190
14156W        W75522  13.803  19.049  11.083
14157W        W75523  17.752   3.346  14.291
14158W        W75524  13.120  28.524   1.226
14159W        W75525  16.085  34.074  12.913
14160W        W75526  19.597  22.213  13.818
14161W        W75527  19.165  40.838  12.382
14162W        W75528  13.277  25.071   5.160
14163W        W75529  35.483  29.120  13.938
14164W        W75530  40.478  32.449   4.629
14165W        W75531  44.354  31.452   3.706
14166W        W75532  27.172  30.139   3.180
14167W        W75533  41.991  21.129  11.938
14168W        W75534   6.866   3.736  13.799
14169W        W75535  18.653  35.448   0.750
14170W        W75536  22.636  13.172  13.394
14171W        W75537  42.019  23.193   0.455
14172W        W75538  24.180  41.520   1.844
14173W        W75539  17.776   8.319  14.316
14174W        W75540  21.178  31.918   2.808
14175W        W75541   9.392   1.915  14.485
14176W        W75542   4.232  44.762  14.457
14177W        W75543  16.304   9.175   2.252
14178W        W75544   2.291   4.741   4.674
14179W        W75545  43.326  24.180  10.432
14180W        W75546  21.032   2.360   0.383
14181W        W75547  11.832  35.985  10.992
14182W        W75548  35.507   5.927   3.721
14183W        W75549   9.757  12.713   0.738
14184W        W75550   5.687  19.738   2.219
14185W        W75551  36.429  32.520  14.432
14186W        W75552   5.868   7.250  14.002
14187W        W75553   8.848  44.004   4.743
14188W        W75554   2.239  22.051   0.269
14189W        W75555  41.370  37.029  11.115
14190W        W75556  15.094   3.286   2.397
14191W        W75557   8.763   3.793  11.563
14192W        W75558  38.929  10.383  12.073
14193W        W75559  30.008  26.129  12.398
14194W        W75560  34.079   7.279  11.445
14195W        W75561  44.925   8.336  14.942
14196W        W75562  42.910  10.789  10.435
14197W        W75563  39.828  42.778   3.725
14198W        W75564  11.187  13.247   4.799
14199W        W75565  19.565  25.640  12.959
14200W        W75566  20.258  21.661  13.896
14201W        W75567   9.167  34.031   4.650
14202W        W75568  41.348   5.902  13.344
14203W        W75569  10.727   1.853   1.311
14204W        W75570  35.875   0.924   2.413
14205W        W75571  44.309   7.243   4.758
14206W        W75572  24.710  41.004  13.862
14207W        W75573  13.339   5.380   0.813
14208W        W75574  38.028   2.342  10.471
14209W        W75575  12.787  12.281   3.380
14210W        W75576  28.594  29.111   2.187
14211W        W75577  12.642  31.041   3.385
14212W        W75578   6.756   0.257  14.795
14213W        W75579  34.015  31.936  10.445
14214W        W75580   4.418  36.091   2.235
14215W        W75581  23.140  23.098  11.074
14216W        W75582  42.347  18.579   3.741
14217W        W75583   2.781   2.423   3.662
14218W        W75584  20.038  17.741  12.991
14219W        W75585   9.885  38.447   1.707
14220W        W75586  37.457  28.554   0.433
14221W        W75587  25.030   9.183  13.473
14222W        W75588  27.672   8.165  13.843
14223W        W75589  21.058  13.634  13.886
14224W        W75590  40.043  26.041  10.938
14225W        W75591  25.591  19.567   2.769
14226W        W75592   1.355  33.592   1.446
14227W        W75593  31.073  42.817   1.261
14228W        W75594  20.702   6.402  12.898
14229W        W75595  35.022  31.415  12.522
14230W        W75596   7.826  10.276  11.437
14231W        W75597  22.240  15.110  11.482
14232W        W75598  31.419  11.695   3.203
14233W        W75599  17.175  29.010   0.880
14234W        W75600   2.862  30.450  11.417
14235W        W75601  21.713  28.040  10.912
14236W        W75602  13.211  15.285   4.140
14237W        W75603  20.271  38.045   3.657
14238W        W75604   5.910   4.420  12.939
14239W        W75605  31.413   1.749   1.447
14240W        W75606  26.064  36.858   4.162
14241W        W75607  26.182  18.558   4.250
14242W        W75608  31.919  37.419   1.928
14243W        W75609  22.129  39.815   2.841
14244W        W75610  44.010   7.264   0.479
14245W        W75611   8.848   2.950  11.053
14246W        W75612  28.954   7.747   3.818
14247W        W75613  39.436  35.070   2.802
14248W        W75614  15.726   4.323   3.677
14249W        W75615  26.544  26.164  14.345
14250W        W75616  43.012  42.345   2.376
14251W        W75617  37.468  24.199  13.310
14252W        W75618  32.091  22.090  12.930
14253W        W75619  12.347  32.050   2.418
14254W        W75620  35.081  44.842  10.607
14255W        W75621  30.991  16.109   4.136
14256W        W75622  20.623   6.382  10.429
14257W        W75623  37.398  33.518   2.304
14258W        W75624   5.777  40.018  13.984
14259W        W75625   8.736  32.094  10.988
14260W        W75626   5.241  42.823  13.929
14261W        W75627  13.828  37.507  14.402
14262W        W75628  29.061  41.483  11.950
14263W        W75629  23.612  17.279   1.934
14264W        W75630  16.073  12.664   3.731
14265W        W75631  20.538  19.055   4.652
14266W        W75632  38.444  41.907  14.386
14267W        W75633   6.828  36.351  12.842
14268W        W75634  34.921  28.132   3.166
14269W        W75635   4.887  23.102   2.815
14270W        W75636   6.899  24.087  10.475
14271W        W75637  29.599  19.123   1.291
14272W        W75638   7.323  26.204  14.808
14273W        W75639  32.007  15.269   1.735
14274W        W75640   5.872  42.021  12.042
14275W        W75641  19.562  35.567  12.021
14276W        W75642  38.897  33.608   0.362
14277W        W75643   4.214  33.010   4.657
14278W        W75644  24.612  22.085   0.403
14279W        W75645  17.079  37.455  11.102
14280W        W75646  31.612  19.074   3.807
14281W        W75647  42.023  39.440   0.737
14282W        W75648  31.105  22.250  13.346
14283W        W75649   2.821  34.013   0.782
14284W        W75650  16.717  41.403   4.131
14285W        W75651  25.014  18.550   1.747
14286W        W75652  38.867  32.060   5.146
14287W        W75653   6.182  22.124   2.844
14288W        W75654   0.943  15.323   4.255
14289W        W75655  21.038   5.374  10.580
14290W        W75656   7.242   3.448   2.373
14291W        W75657   0.742  17.777  12.020
14292W        W75658  19.128  21.211  11.555
14293W        W75659  30.602  20.117   4.672
14294W        W75660  28.437  17.258   0.244
14295W        W75661  10.643  21.078  12.867
14296W        W75662   9.351  23.560   2.741
14297W        W75663  27.685  34.107  12.933
14298W        W75664   2.413   6.726  13.491
14299W        W75665   7.218  27.988  14.894
14300W        W75666  35.989   8.308   3.166
14301W        W75667  35.391   6.395   4.338
14302W        W75668  21.691   9.746   4.255
14303W        W75669  36.054  25.008   0.409
14304W        W75670  43.464  24.127  11.021
14305W        W75671  37.930   9.188   4.348
14306W        W75672  18.258  15.663  13.045
14307W        W75673   0.975   9.374  10.599
14308W        W75674   3.935  10.810  11.056
14309W        W75675  38.558  38.331  12.006
14310W        W75676   2.279  27.670   0.432
14311W        W75677   7.187   5.788  13.499
14312W        W75678  30.147  38.997   1.266
14313W        W75679  42.338  15.304   1.699
14314W        W75680  28.030  33.104   3.855
14315W        W75681  31.516  20.626   0.784
14316W        W75682  30.498   7.190   1.253
14317W        W75683  27.675   8.310  11.387
14318W        W75684  10.798  20.075  12.390
14319W        W75685  40.975  41.841   2.881
14320W        W75686  22.669  16.235  10.912
14321W        W75687  20.586  11.864   2.817
14322W        W75688   6.734  19.145  12.919
14323W        W75689  26.061  38.050   3.178
14324W        W75690  26.495   0.774   0.415
14325W        W75691   8.292   9.355   4.813
14326W        W75692  27.164  25.070   4.599
14327W        W75693  39.873  31.618  11.009
14328W        W75694  30.978  24.165   4.619
14329W        W75695   7.196  24.685  10.614
14330W        W75696  13.658   6.813  13.506
14331W        W75697   9.865  29.952  11.865
14332W        W75698  40.319  34.902   1.268
14333W        W75699  38.000  43.363  11.597
14334W        W75700   8.358   0.971   3.778
14335W        W75701  15.153  26.565   0.771
14336W        W75702  21.053  33.485  12.565
14337W        W75703  21.609  23.236   1.877
14338W        W75704   9.814  39.518  14.926
14339W        W75705  25.498  12.276  13.908
14340W        W75706  30.924  18.762  13.412
14341W        W75707   2.950  15.258  10.534
14342W        W75708  14.764  21.216  10.469
14343W        W75709  40.519  17.202  14.910
14344W        W75710  32.603   1.292  14.942
14345W        W75711  12.150  19.618  13.442
14346W        W75712  19.700  21.147   2.404
14347W        W75713  37.399   8.676   3.173
14348W        W75714  21.242  41.308   9.981
14349W        W75715  27.170  13.122   3.662
14350W        W75716   4.228  13.733  13.817
14351W        W75717  24.693  19.561   1.837
14352W        W75718  33.988   7.290   2.703
14353W        W75719  37.869  29.511   1.361
14354W        W75720   7.755  21.143   2.745
14355W        W75721  40.829  22.602   0.397
14356W        W75722  20.093  39.061   3.367
14357W        W75723   1.424  16.302  10.602
14358W        W75724  22.691  32.095   4.633
14359W        W75725  14.173   5.227   0.772
14360W        W75726  36.410   2.842   1.872
14361W        W75727  24.042  26.044  10.562
14362W        W75728  25.984  39.516   0.306
14363W        W75729  34.048   6.393  12.384
14364W        W75730   9.377  13.654  11.591
14365W        W75731   7.712   2.280  12.973
14366W        W75732   3.818  33.393  11.598
14367W        W75733  22.687  41.826   4.297
14368W        W75734  26.207  29.109  13.039
14369W        W75735  28.653  42.429   3.281
14370W        W75736   5.708  34.557   1.387
14371W        W75737  39.008  23.062  11.997
14372W        W75738  33.451  44.996  11.543
14373W        W75739   6.751  14.205   0.270
14374W        W75740  19.645  27.140   1.317
14375W        W75741  44.405  13.775  11.484
14376W        W75742  34.442   0.478  13.344
14377W        W75743  31.540  39.530  12.929
14378W        W75744  25.095   0.848   3.296
14379W        W75745  23.496  26.120   2.377
14380W        W75746   6.777  16.218   3.802
14381W        W75747  11.712  39.025   0.471
14382W        W75748   1.734  30.933   2.236
14383W        W75749  34.466  19.124   0.406
14384W        W75750  36.015  41.322  11.064
14385W        W75751  32.516  42.489   4.712
14386W        W75752   3.452  33.038   0.376
14387W        W75753   4.222  36.536   3.383
14388W        W75754  37.375  20.725  12.871
14389W        W75755  17.678  25.151   2.762
14390W        W75756   3.425  28.569   1.394
14391W        W75757   9.225  40.470   4.216
14392W        W75758  28.062   7.310   0.849
14393W        W75759  34.064  43.904   4.598
14394W        W75760  36.086  12.613   2.679
14395W        W75761  15.820   0.953  10.601
14396W        W75762  34.885  23.564  14.893
14397W        W75763  31.905  41.434  14.355
14398W        W75764  28.930  41.849  14.888
14399W        W75765  27.469  17.791   0.456
14400W        W75766  12.117  42.332  13.979
14401W        W75767  26.595  22.735  10.606
14402W        W75768  41.882  16.760  11.584
14403W        W75769  34.115  27.126   0.449
14404W        W75770  35.569  35.422  11.010
14405W        W75771  20.132  14.279  14.385
14406W        W75772  16.187   5.416  13.382
14407W        W75773  18.103  21.032   3.260
14408W        W75774  44.857  10.873   0.749
14409W        W75775  29.658  22.598  12.368
14410W        W75776  21.077  44.958   1.799
14411W        W75777  30.951  22.625   2.707
14412W        W75778  11.671   8.404  13.989
14413W        W75779  34.448   5.781  12.072
14414W        W75780  17.693  20.228  10.610
14415W        W75781   2.470   1.838  12.093
14416W        W75782  33.475  22.741  12.875
14417W        W75783  40.376  26.549  11.857
14418W        W75784  42.440  40.305   2.293
14419W        W75785  12.176   0.320  13.383
14420W        W75786   9.211  44.850  11.408
14421W        W75787  34.394  21.140  10.997
14422W        W75788  39.838  20.698   0.726
14423W        W75789  17.643  22.171   3.228
14424W        W75790  20.653   3.873   1.809
14425W        W75791  33.470   0.866  11.450
14426W        W75792   2.840   9.818   2.823
14427W        W75793   2.397  27.655  11.488
14428W        W75794  34.593  23.059  11.072
14429W        W75795   8.855   4.718   0.345
14430W        W75796  26.609   3.758  11.513
14431W        W75797  32.398  31.038  10.937
14432W        W75798   2.941  17.097  11.966
14433W        W75799  25.018  32.087   2.842
14434W        W75800  28.502  26.080   1.385
14435W        W75801  36.094  18.106  11.587
14436W        W75802  25.177  29.581   3.175
14437W        W75803  17.788  11.290  12.506
14438W        W75804  11.632  27.165  14.989
14439W        W75805  23.076  27.635  13.034
14440W        W75806   0.380  42.871  12.366
14441W        W75807  34.378  39.816   3.830
14442W        W75808   6.710  29.468  10.930
14443W        W75809  21.573  35.913   1.890
14444W        W75810  25.177  16.234  11.929
14445W        W75811  44.842  36.459   3.385
14446W        W75812   3.814  16.651  13.918
14447W        W75813   8.331   2.248  13.043
14448W        W75814   0.266   3.334   4.757
14449W        W75815   4.798  41.309   0.918
14450W        W75816  41.005  24.640  12.893
14451W        W75817   5.880   0.792   2.681
14452W        W75818  29.063  18.592  11.999
14453W        W75819  17.270  31.440   9.974
14454W        W75820  37.947   3.235  10.944
14455W        W75821  11.691  10.255  14.379
14456W        W75822   6.881  35.535   2.183
14457W        W75823  24.228  16.219  14.793
14458W        W75824  24.529  24.982  14.340
14459W        W75825  38.373  33.585   1.293
14460W        W75826  30.908  39.439  14.415
14461W        W75827  33.880  43.464   4.181
14462W        W75828  23.548  35.020   0.729
14463W        W75829   8.247  36.945   1.781
14464W        W75830  40.889  32.057   1.707
14465W        W75831  33.431   5.752   1.808
14466W        W75832  41.530   0.893   0.858
14467W        W75833  20.181  40.496   1.360
14468W        W75834  14.325  25.490  11.554
14469W        W75835  24.003   3.222  10.613
14470W        W75836   8.658  36.096  13.308
14471W        W75837  10.294  27.479  14.944
14472W        W75838  31.019   0.983   0.928
14473W        W75839   6.182  30.016  14.503
14474W        W75840  30.599   5.705   3.366
14475W        W75841  18.204  40.981   4.648
14476W        W75842   5.356  42.957  12.093
14477W        W75843  34.995  37.539  13.945
14478W        W75844  37.444  37.439  11.448
14479W        W75845  18.674  37.381  13.332
14480W        W75846  22.242  22.123   2.278
14481W        W75847  11.238  33.936   1.824
14482W        W75848  22.685  35.374  13.004
14483W        W75849   2.351  10.807  12.499
14484W        W75850  33.569  17.305  11.457
14485W        W75851  13.733  43.306   2.856
14486W        W75852  40.416  39.468  11.602
14487W        W75853  33.975  43.333   1.908
14488W        W75854  40.378  41.400  14.348
14489W        W75855  15.815   0.250   9.990
14490W        W75856  16.192   1.895  10.474
14491W        W75857  44.794  44.819  11.490
14492W        W75858  38.485  34.410   0.321
14493W        W75859  23.532   3.744  14.949
14494W        W75860  43.392  11.149   1.448
14495W        W75861  23.734  17.576   0.470
14496W        W75862  43.380  14.198  12.073
14497W        W75863  44.381  44.938  14.358
14498W        W75864   4.711  25.695   3.219
14499W        W75865   7.238  31.564   3.369
14500W        W75866  19.105  11.152   2.767
14501W        W75867  38.018  23.214  14.814
14502W        W75868  28.985  18.253  13.357
14503W        W75869  43.506  10.328   2.677
14504W        W75870   3.236   8.213  13.501
14505W        W75871  16.238   0.374  14.893
14506W        W75872  14.252  11.653  13.475
14507W        W75873  36.882   7.313  10.932
14508W        W75874  23.032  38.564  13.062
14509W        W75875  29.500  38.394  12.528
14510W        W75876  38.024  18.749   3.367
14511W        W75877  41.405  14.738   2.765
14512W        W75878   5.370  44.851  13.808
14513W        W75879  42.903  39.396   2.254
14514W        W75880  32.974  15.764  14.457
14515W        W75881   3.878  17.291  12.479
14516W        W75882  18.276  23.080   3.296
14517W        W75883   5.213  26.204  10.919
14518W        W75884   5.215   4.936   2.401
14519W        W75885   3.761  23.069  10.993
14520W        W75886  18.197  16.584  10.619
14521W        W75887  32.064  13.845  13.478
14522W        W75888  26.208  28.029   2.214
14523W        W75889  26.082  44.469  11.536
14524W        W75890  15.256  22.057  14.444
14525W        W75891  28.134  17.178  13.326
14526W        W75892   4.913  18.149   4.126
14527W        W75893  21.121   0.888   1.806
14528W        W75894   9.200  38.435   2.239
14529W        W75895   6.310  24.194   1.268
14530W        W75896  42.802  10.841   1.897
14531W        W75897  26.562  36.574  14.783
14532W        W75898   6.353  14.747   4.170
14533W        W75899   6.895  14.658   4.141
14534W        W75900  43.454  26.142  14.812
14535W        W75901  25.997  24.154  11.550
14536W        W75902  35.878   3.845   4.127
14537W        W75903   3.343   7.829  10.553
14538W        W75904  43.001  36.539   4.251
14539W        W75905   9.738   4.938  13.887
14540W        W75906  17.723  44.981  14.489
14541W        W75907   0.436  37.445  12.436
14542W        W75908  13.277  32.135  14.461
14543W        W75909   7.379  20.653  14.344
14544W        W75910  43.283   7.728   4.172
14545W        W75911  35.380  32.958  12.547
14546W        W75912  10.737   7.279   3.373
14547W        W75913  18.100  30.980   4.831
14548W        W75914  27.688   6.692  11.568
14549W        W75915  35.494   4.897  10.636
14550W        W75916  17.273  27.068  11.032
14551W        W75917  28.617  32.614   2.769
14552W        W75918  24.195  22.510   9.981
14553W        W75919  15.184  32.505  12.095
14554W        W75920  15.745  32.941  10.893
14555W        W75921  43.863   8.753  14.489
14556W        W75922   6.872   4.920   0.959
14557W        W75923  16.781  25.976   2.768
14558W        W75924  11.742  25.185   5.227
14559W        W75925  32.438  44.393  12.905
14560W        W75926  22.091  24.225   4.619
14561W        W75927  44.331  31.570  13.449
14562W        W75928  19.222  43.882  10.608
14563W        W75929  15.144  34.889  12.926
14564W        W75930  19.239  11.128  13.442
14565W        W75931  15.317  16.110  14.875
14566W        W75932  25.217  33.091   3.856
14567W        W75933  18.583  17.100  11.892
14568W        W75934  27.493  22.042  11.894
14569W        W75935  12.234  40.324   1.396
14570W        W75936  37.556   8.200   4.654
14571W        W75937  43.419  38.065  13.843
14572W        W75938  42.972   0.375   0.829
14573W        W75939  10.850   9.881   4.667
14574W        W75940  26.504  14.602  10.528
14575W        W75941   8.175  11.796  14.435
14576W        W75942  20.147  23.660  10.450
14577W        W75943  13.676   8.813   1.422
14578W        W75944  17.139  39.451   3.175
14579W        W75945   0.827  15.792   2.807
14580W        W75946  39.339  22.632   0.922
14581W        W75947  44.832  26.582  11.944
14582W        W75948   2.269  29.520   2.412
14583W        W75949  32.573   7.841   0.955
14584W        W75950  16.627  21.758  13.939
14585W        W75951  14.645  30.643  11.035
14586W        W75952  17.718  12.641  13.346
14587W        W75953  24.198   4.331  11.476
14588W        W75954  29.026  41.807   3.758
14589W        W75955  29.044   0.855   2.811
14590W        W75956  31.646  44.415   0.842
14591W        W75957  12.736  43.796  13.845
14592W        W75958  26.535  10.241  12.546
14593W        W75959  42.811  18.749  13.513
14594W        W75960  22.569  39.993  14.401
14595W        W75961  32.126  15.152  11.482
14596W        W75962   4.937   6.868  12.845
14597W        W75963  40.997  41.487   4.670
14598W        W75964  34.389  42.785  10.125
14599W        W75965   5.816  22.059   4.355
14600W        W75966  39.953  38.545  13.877
14601W        W75967  33.410  21.709  11.908
14602W        W75968  28.046  37.537   0.315
14603W        W75969  30.578  18.230  11.966
14604W        W75970  12.743  32.617   3.315
14605W        W75971  32.964  38.888  11.091
14606W        W75972  18.098  10.326  13.795
14607W        W75973  16.646   6.285  14.317
14608W        W75974   9.864  44.888   2.308
14609W        W75975  36.519   3.438  13.946
14610W        W75976  24.184  10.189   1.895
14611W        W75977  15.659  18.746  11.952
14612W        W75978   7.879   0.837  13.856
14613W        W75979   4.742  27.083   1.348
14614W        W75980  27.564   8.341  11.975
14615W        W75981  14.282  15.134  14.444
14616W        W75982   1.731  11.644   0.777
14617W        W75983  15.694  19.547  11.612
14618W        W75984  35.917  19.580  14.028
14619W        W75985  31.467   2.949   3.312
14620W        W75986   5.245  31.942   3.257
14621W        W75987   3.344  27.106   1.451
14622W        W75988  42.868  35.859  12.946
14623W        W75989  41.362  44.953   4.826
14624W        W75990  38.011  31.415  12.341
14625W        W75991  26.596  27.125   2.841
14626W        W75992  36.539  35.886  12.953
14627W        W75993   1.750  19.132  12.022
14628W        W75994  33.578  34.865  14.909
14629W        W75995  10.754  27.109   1.750
14630W        W75996  10.855  22.557   1.355
14631W        W75997  21.136  23.139   1.796
14632W        W75998  27.008  20.243   0.892
14633W        W75999  32.919  17.241   0.962
14634W        W76000  27.098   9.733   3.655
14635W        W76001  40.513  35.541   0.962
14636W        W76002  40.478  43.835  13.998
14637W        W76003  36.592   5.713  12.000
14638W        W76004   6.303  26.146   9.944
14639W        W76005  31.520  10.825   2.309
14640W        W76006  34.980   1.296   2.186
14641W        W76007  38.389  44.929   3.170
14642W        W76008  14.106   2.316  13.022
14643W        W76009  16.742   9.269   1.865
14644W        W76010  15.774  24.579   3.271
14645W        W76011  28.600   7.263   3.375
14646W        W76012  19.096  13.699  13.974
14647W        W76013  12.320  36.092   4.220
14648W        W76014  40.424   7.811   5.098
14649W        W76015  40.838   7.763   0.284
14650W        W76016  10.300  31.492  10.003
14651W        W76017  15.318   4.252   4.238
14652W        W76018  14.780  38.371   3.867
14653W        W76019   3.232   7.754  14.330
14654W        W76020  41.431  42.964   4.260
14655W        W76021   3.719  36.973   2.252
14656W        W76022   9.203  35.409  11.032
14657W        W76023  44.874  31.018   1.427
14658W        W76024  12.240  33.029  14.502
14659W        W76025  40.435  41.910  13.477
14660W        W76026  37.451   6.780   0.954
14661W        W76027  37.338  16.748  11.604
14662W        W76028  28.951  30.953   4.342
14663W        W76029  13.695  25.550   0.326
14664W        W76030  32.446  29.547   3.154
14665W        W76031  41.975  43.937  10.941
14666W        W76032  41.376   8.754  12.870
14667W        W76033  17.656  18.769   3.357
14668W        W76034  32.132   3.779   0.842
14669W        W76035  13.605  14.734   2.837
14670W        W76036  19.580   5.325   2.245
14671W        W76037   9.280  17.612  11.500
14672W        W76038  34.061  36.091   0.961
14673W        W76039  36.077   4.944  13.320
14674W        W76040  28.070  11.798  12.402
14675W        W76041  43.419  11.790   2.374
14676W        W76042  42.879   7.805  10.481
14677W        W76043  15.117   8.319   4.821
14678W        W76044  29.947  13.843  10.582
14679W        W76045  10.851   3.315   3.179
14680W        W76046  22.747  23.162   2.181
14681W        W76047  33.006  35.036  14.881
14682W        W76048   9.196   2.356   1.920
14683W        W76049  22.647   0.984   0.850
14684W        W76050  43.798  16.129   4.178
14685W        W76051  38.878  37.061   1.718
14686W        W76052  34.493  29.440  11.070
14687W        W76053   0.340   3.838   4.796
14688W        W76054   6.409   5.347   4.285
14689W        W76055  32.528  23.578  11.102
14690W        W76056  33.876  16.692   2.838
14691W        W76057  31.961  21.613   5.275
14692W        W76058  24.017   0.890  12.569
14693W        W76059  29.472  41.457   4.149
14694W        W76060  33.988   4.820   4.276
14695W        W76061  21.198  30.444  10.974
14696W        W76062  35.902  37.423   0.296
14697W        W76063  19.108  14.202   0.247
14698W        W76064   6.409   1.323  12.079
14699W        W76065  43.820  31.524   4.721
14700W        W76066  43.846  29.495   1.704
14701W        W76067  28.071  18.778  13.545
14702W        W76068  18.143  17.621   2.719
14703W        W76069   5.210   1.401   5.235
14704W        W76070  25.051  11.358   2.709
14705W        W76071  15.228  21.120   0.409
14706W        W76072  31.555  17.557   9.506
14707W        W76073   8.684  27.957  10.636
14708W        W76074  34.884  13.202  14.788
14709W        W76075   1.778   3.815  14.483
14710W        W76076  19.777  32.957   0.730
14711W        W76077  40.989   9.320   2.673
14712W        W76078  11.187  16.611   1.754
14713W        W76079   8.243   8.743   4.218
14714W        W76080  19.268   2.749   0.447
14715W        W76081   1.299  29.621   5.124
14716W        W76082  40.349   0.752   2.394
14717W        W76083   1.788  23.184   0.952
14718W        W76084  20.639  39.055   2.263
14719W        W76085  20.582  43.970   0.751
14720W        W76086   9.647  34.000  14.953
14721W        W76087  34.391  41.303  14.979
14722W        W76088  22.238  31.611  13.495
14723W        W76089  43.279  36.412   2.878
14724W        W76090  34.506  44.967   3.208
14725W        W76091   8.353  44.843  12.886
14726W        W76092  23.583  35.963   0.296
14727W        W76093   2.803  38.968  14.820
14728W        W76094  21.650  39.352   4.751
14729W        W76095  37.576  22.681   0.363
14730W        W76096  25.007  16.693  13.821
14731W        W76097  29.056  16.629   3.784
14732W        W76098  16.737  11.157  12.576
14733W        W76099  32.965  23.181   4.135
14734W        W76100   3.392  23.187  11.864
14735W        W76101   7.748  27.025  14.970
14736W        W76102  33.948  39.022  11.859
14737W        W76103  20.552  27.033  11.060
14738W        W76104  37.041   4.252   4.353
14739W        W76105  24.655  10.148   0.382
14740W        W76106  43.418   9.856  13.896
14741W        W76107  20.567  29.129   3.202
14742W        W76108  42.401  10.666   0.818
14743W        W76109  12.740  35.563   3.182
14744W        W76110  30.008   5.413  11.388
14745W        W76111  43.379  34.493   4.245
14746W        W76112  13.199   5.235   4.618
14747W        W76113  33.013  40.984  11.386
14748W        W76114  35.000  36.421  14.863
14749W        W76115  24.195  35.545  11.948
14750W        W76116  16.806   5.396  13.014
14751W        W76117  24.009   8.785  11.957
14752W        W76118  38.567  32.577   1.431
14753W        W76119   7.900  43.386   3.647
14754W        W76120  44.798  21.664  13.533
14755W        W76121  14.170  12.646   2.870
14756W        W76122  16.205   3.323   1.739
14757W        W76123  44.440  16.152  12.470
14758W        W76124  30.544  10.702  14.918
14759W        W76125   8.364  27.189   3.773
14760W        W76126  40.407  16.614  12.474
14761W        W76127  28.118   6.311   5.236
14762W        W76128  17.278   4.765   4.148
14763W        W76129   3.953   1.240   4.305
14764W        W76130   3.874  33.473  10.563
14765W        W76131  21.699  41.903   4.727
14766W        W76132  43.959  31.472  10.486
14767W        W76133  37.888  39.522  12.007
14768W        W76134  14.606  42.332  12.090
14769W        W76135  11.139  14.159  10.432
14770W        W76136  32.564   1.855   2.235
14771W        W76137   8.772  29.574   0.840
14772W        W76138  31.900  33.489  14.818
14773W        W76139  23.723   8.672  11.520
14774W        W76140  10.771  41.983   1.434
14775W        W76141  40.424  26.125  12.949
14776W        W76142  34.079  44.402  11.114
14777W        W76143   3.893  16.271  13.889
14778W        W76144  44.815  34.498  13.424
14779W        W76145  19.557  42.851   3.184
14780W        W76146  36.851  15.116   4.704
14781W        W76147   5.735   7.781  13.447
14782W        W76148  20.762  25.986   0.344
14783W        W76149  39.996  23.514   3.276
14784W        W76150  20.715  13.159   4.750
14785W        W76151  35.056  11.842  11.031
14786W        W76152   5.345  20.094   3.162
14787W        W76153  24.032   4.897   1.219
14788W        W76154   2.880   8.780  11.434
14789W        W76155   5.739  11.723  12.836
14790W        W76156  34.547  34.460   1.923
14791W        W76157  29.614  33.887   1.902
14792W        W76158  15.744   0.758  11.457
14793W        W76159  41.538  42.881  13.390
14794W        W76160  34.389   4.385   3.270
14795W        W76161  28.604   4.794  10.107
14796W        W76162  22.614  12.748  10.131
14797W        W76163  41.787  44.396  14.327
14798W        W76164  25.670  40.890   0.907
14799W        W76165  41.839   8.845   3.231
14800W        W76166  31.012  11.662   0.767
14801W        W76167  36.447  22.747  14.407
14802W        W76168  18.544  21.745   4.316
14803W        W76169   2.255  26.205  11.078
14804W        W76170  33.577  21.669  13.960
14805W        W76171  13.144  22.202   1.321
14806W        W76172  39.967  32.603  13.002
14807W        W76173  42.964  39.420  11.575
14808W        W76174  30.134  11.247   3.356
14809W        W76175  35.101  17.191  10.561
14810W        W76176  42.284  12.271   0.424
14811W        W76177  38.385  19.756  11.934
14812W        W76178  12.781  27.000   4.209
14813W        W76179  39.933  42.482   0.304
14814W        W76180  31.405  20.627   1.819
14815W        W76181  25.989  41.305   2.879
14816W        W76182  16.738  37.881   0.466
14817W        W76183  26.986  15.245   0.425
14818W        W76184  33.559   1.373  11.010
14819W        W76185  35.542  40.014  12.092
14820W        W76186  21.580  38.390  11.985
14821W        W76187  22.243   8.724   3.850
14822W        W76188  19.689   4.926   4.261
14823W        W76189   8.744  19.088  10.901
14824W        W76190  30.509  42.432   2.190
14825W        W76191  17.619  26.198   4.614
14826W        W76192  31.121  22.535   3.803
14827W        W76193  42.968  28.938   1.846
14828W        W76194  15.757   0.287  11.533
14829W        W76195  11.825   4.286  13.919
14830W        W76196  36.503  36.370   0.378
14831W        W76197   9.777  12.231   1.935
14832W        W76198  24.708   6.717   1.909
14833W        W76199  34.511  24.197   0.343
14834W        W76200  10.685  44.011  10.987
14835W        W76201  34.940  43.516  10.932
14836W        W76202  17.141  23.046  10.637
14837W        W76203  39.388  26.089  12.341
14838W        W76204   5.934  34.512   3.828
14839W        W76205  29.000   5.731   4.664
14840W        W76206  10.728  16.606   4.789
14841W        W76207  11.370  13.300  13.362
14842W        W76208  43.837   8.730   1.699
14843W        W76209   1.938  33.914  11.436
14844W        W76210   0.378   0.965  12.389
14845W        W76211  19.119  31.560  14.760
14846W        W76212   3.721  37.444  13.997
14847W        W76213   7.892  19.271   1.214
14848W        W76214  30.640  22.146   3.729
14849W        W76215  34.391  22.648  11.054
14850W        W76216   8.325  26.030  14.989
14851W        W76217  17.108  39.868  10.006
14852W        W76218  38.938  44.428   2.817
14853W        W76219  41.983   3.730   2.816
14854W        W76220  42.376  16.255  11.610
14855W        W76221  24.204   6.734   3.817
14856W        W76222   5.313  35.368   4.114
14857W        W76223  43.939  18.112  11.906
14858W        W76224   3.284  10.242  11.862
14859W        W76225  40.830   5.841  13.353
14860W        W76226  43.940   7.739  12.038
14861W        W76227  15.778  43.851   0.859
14862W        W76228  26.685  27.038   5.585
14863W        W76229   9.675   9.331   3.382
14864W        W76230  30.135   5.210  13.308
14865W        W76231   4.346  23.098   0.817
14866W        W76232  10.825  30.493  13.347
14867W        W76233  11.202  42.517  11.575
14868W        W76234  40.925  43.361  13.361
14869W        W76235  28.129   2.847   0.872
14870W        W76236   2.748   4.349   4.170
14871W        W76237  28.168  28.643  12.388
14872W        W76238   5.404   5.879  13.819
14873W        W76239  38.411  14.753   3.297
14874W        W76240   4.379   3.356   0.426
14875W        W76241  35.075  17.735   2.757
14876W        W76242  10.217  28.054  10.448
14877W        W76243  19.165  27.661   0.919
14878W        W76244   3.941  27.100   0.917
14879W        W76245   0.834   6.837  14.927
14880W        W76246  23.539  38.881   1.889
14881W        W76247  17.679  22.210   2.363
14882W        W76248  20.137  33.910  10.529
14883W        W76249  41.367   7.173  12.424
14884W        W76250  20.079  12.664   1.935
14885W        W76251  26.070   0.253   1.906
14886W        W76252  22.646   1.930   4.759
14887W        W76253  35.415  18.568  12.446
14888W        W76254   4.323   6.421   2.898
14889W        W76255  13.738  23.558   0.333
14890W        W76256  24.178  11.687   0.373
14891W        W76257  15.307   9.233   2.250
14892W        W76258  29.085  33.025  13.949
14893W        W76259   0.265   5.778  14.428
14894W        W76260  15.201  22.058   3.635
14895W        W76261   0.253  36.538  13.501
14896W        W76262  20.685  31.625   9.541
14897W        W76263  31.524  36.047  13.392
14898W        W76264   6.424  42.012   2.321
14899W        W76265  24.015   5.376   1.883
14900W        W76266  21.536  15.126  11.008
14901W        W76267  11.716  38.386   1.856
14902W        W76268  26.584   9.395  14.370
14903W        W76269  26.605  42.882  11.859
14904W        W76270  20.632   1.338   1.760
14905W        W76271  27.603  41.837  14.404
14906W        W76272  14.634  39.815   4.240
14907W        W76273   2.963  34.390  12.378
14908W        W76274   6.273  22.604   3.374
14909W        W76275  17.757  22.622   3.278
14910W        W76276  40.799  39.464  12.000
14911W        W76277  34.107  43.783   0.847
14912W        W76278   4.328   1.845  13.895
14913W        W76279   1.797  22.050   4.224
14914W        W76280   1.409   4.778  13.865
14915W        W76281  18.135  22.211  10.455
14916W        W76282  20.039  19.717  13.967
14917W        W76283   5.802  20.202  10.425
14918W        W76284  27.616   1.419  10.460
14919W        W76285   2.412   0.355  11.034
14920W        W76286   4.849  19.079  13.330
14921W        W76287  25.153  12.763   1.283
14922W        W76288  32.905  28.539   0.791
14923W        W76289  36.959   3.354  14.415
14924W        W76290  23.091  41.340  14.806
14925W        W76291  42.291  43.887   4.743
14926W        W76292   9.172  27.528   1.435
14927W        W76293  13.233  31.911   2.745
14928W        W76294   8.701  35.501   3.329
14929W        W76295  21.679  18.291  14.896
14930W        W76296  13.306  18.572   0.808
14931W        W76297  30.928  27.464  11.095
14932W        W76298  12.263  11.693   2.829
14933W        W76299   6.850  12.348  14.985
14934W        W76300   5.871  38.424  13.809
14935W        W76301  17.202  10.834  14.923
14936W        W76302  18.638  35.016  13.482
14937W        W76303  10.754  36.002  11.540
14938W        W76304   4.698   2.722  14.280
14939W        W76305   1.814   1.444   1.901
14940W        W76306   1.239  13.659   1.262
14941W        W76307  23.057   2.277  13.319
14942W        W76308   4.865  29.608  13.852
14943W        W76309  44.806   1.743   0.758
14944W        W76310  18.229  23.637  10.631
14945W        W76311  42.423  42.900   4.275
14946W        W76312  42.923  27.449  11.502
14947W        W76313   0.272  25.588   2.786
14948W        W76314   1.401  38.417   2.347
14949W        W76315  18.565  13.129   4.835
14950W        W76316  37.962  12.856  11.097
14951W        W76317   1.874  37.983   0.405
14952W        W76318  35.913  19.662   4.821
14953W        W76319  24.149  27.176  12.834
14954W        W76320  10.221  42.920   4.194
14955W        W76321   1.943  19.068   4.669
14956W        W76322  21.547  18.613  14.450
14957W        W76323  23.152  40.005   1.745
14958W        W76324  10.863   0.363   4.835
14959W        W76325  40.805  15.258   1.821
14960W        W76326   2.844  25.663  11.435
14961W        W76327  35.426   8.810   3.333
14962W        W76328   0.275  31.993  13.916
14963W        W76329  11.768  11.322  13.027
14964W        W76330  32.409  35.386   1.832
14965W        W76331  19.545  28.641   2.338
14966W        W76332   4.843  20.254  14.878
14967W        W76333  18.158  16.101   0.877
14968W        W76334  32.426  29.640  11.430
14969W        W76335  37.893  27.461   3.689
14970W        W76336  37.532  37.476   3.350
14971W        W76337   7.844  37.872  10.567
14972W        W76338  14.145  34.444   3.781
14973W        W76339  21.609  32.537   1.756
14974W        W76340   5.730  38.457  14.817
14975W        W76341  21.055  39.493  13.335
14976W        W76342  22.519  33.586   1.399
14977W        W76343  29.157   5.797  10.910
14978W        W76344   0.776   3.719   4.615
14979W        W76345  31.908  42.290  14.932
14980W        W76346  17.185  14.745  12.499
14981W        W76347  24.659  28.935  13.523
14982W        W76348   5.855  26.536  10.542
14983W        W76349   8.351  16.275   0.806
14984W        W76350  33.419   8.263  13.849
14985W        W76351  22.561  18.255   1.242
14986W        W76352  15.669  34.911  13.421
14987W        W76353   4.900  21.154   5.105
14988W        W76354  20.075  32.017  13.397
14989W        W76355  38.890  31.412   3.322
14990W        W76356  33.382  26.519  14.406
14991W        W76357  43.477  41.325  12.827
14992W        W76358   0.471  36.893   2.794
14993W        W76359  28.011  42.458   2.782
14994W        W76360   8.888  43.317  13.063
14995W        W76361  13.188  21.106  12.410
14996W        W76362  42.860  32.969   2.826
14997W        W76363  15.694  31.087  12.006
14998W        W76364  17.594   5.809  12.094
14999W        W76365  17.672   2.872   1.380
15000W        W76366  23.121  28.486   2.854
15001W        W76367   4.813  29.969   1.442
15002W        W76368   7.819  24.171  14.773
15003W        W76369  42.021  16.238   2.750
15004W        W76370   0.760  26.681  10.946
15005W        W76371  37.495  19.680   3.711
15006W        W76372   8.865  13.815   4.633
15007W        W76373  10.676   0.456   4.161
15008W        W76374   3.954  13.165  11.057
15009W        W76375  19.590  32.984  14.929
15010W        W76376   5.354  30.148  12.531
15011W        W76377  35.511  14.288   4.662
15012W        W76378  23.575  28.184   0.743
15013W        W76379  35.060  29.431   4.723
15014W        W76380  25.974   9.698  11.010
15015W        W76381   4.307  41.454  14.316
15016W        W76382   3.942  32.092   1.347
15017W        W76383  41.814  27.979  14.505
15018W        W76384  19.749  26.096  14.821
15019W        W76385   8.402  44.413   4.304
15020W        W76386  35.423  38.959   4.323
15021W        W76387  17.274  20.638   0.395
15022W        W76388   0.272   7.310   1.297
15023W        W76389  21.157  16.222  14.790
15024W        W76390   8.177   5.199  10.624
15025W        W76391   5.270  33.469  13.004
15026W        W76392  36.842  40.016   4.759
15027W        W76393  44.383  19.765  11.940
15028W        W76394  37.838  29.122  12.377
15029W        W76395  36.058  30.962   1.816
15030W        W76396  29.571  19.673   0.468
15031W        W76397  39.535  31.539  13.045
15032W        W76398  41.475  29.555  12.399
15033W        W76399  27.522  31.089  13.935
15034W        W76400   1.780  22.722   2.257
15035W        W76401   2.916  40.363   1.731
15036W        W76402   1.422   8.371   2.254
15037W        W76403  39.920  25.972  14.471
15038W        W76404  16.209  27.957  12.887
15039W        W76405  35.585  35.932  12.407
15040W        W76406  44.928  17.167  13.941
15041W        W76407  39.394  30.011  14.490
15042W        W76408  36.898   0.752  12.851
15043W        W76409  37.345  13.616  10.484
15044W        W76410  35.576  10.874   2.722
15045W        W76411   9.644   5.717   3.275
15046W        W76412   2.934  11.770   3.812
15047W        W76413  20.755  14.657   4.183
15048W        W76414  13.667  42.465   3.687
15049W        W76415  23.992  40.014  11.903
15050W        W76416   0.770   3.279  11.594
15051W        W76417  13.243  30.423  10.552
15052W        W76418  16.746  38.410  14.487
15053W        W76419  29.654  15.731   4.738
15054W        W76420  35.913  14.309  11.995
15055W        W76421  10.215  21.068   4.738
15056W        W76422  43.307  43.974  13.956
15057W        W76423  31.548  30.574   0.745
15058W        W76424  14.656  39.010   0.798
15059W        W76425   7.287  29.539  12.941
15060W        W76426  27.545  17.603   4.149
15061W        W76427  20.646  16.683   3.656
15062W        W76428  14.315  36.506  14.339
15063W        W76429  40.889  19.279  12.076
15064W        W76430  40.849  21.080   3.258
15065W        W76431  16.811  35.525   3.190
15066W        W76432  20.760  24.191   1.731
15067W        W76433  35.441  31.580  14.765
15068W        W76434  36.415  29.540   3.745
15069W        W76435  29.498  12.658   3.720
15070W        W76436   6.188  43.335  11.984
15071W        W76437  42.497  32.094   5.213
15072W        W76438  32.009  19.673   1.258
15073W        W76439   4.360  29.071   5.781
15074W        W76440  31.598  30.498  11.117
15075W        W76441  40.872  37.405  12.558
15076W        W76442  42.888  34.980   1.718
15077W        W76443  30.999   6.894  10.445
15078W        W76444  36.871   2.804   2.327
15079W        W76445   2.956  34.919  13.492
15080W        W76446  25.008   4.730  11.494
15081W        W76447  14.695  22.034   0.727
15082W        W76448  33.418  28.494  12.356
15083W        W76449  29.643  13.713   0.333
15084W        W76450  19.710   8.813   1.400
15085W        W76451  31.417   5.390   4.292
15086W        W76452  12.846  40.461   3.335
15087W        W76453  11.783  39.877   4.330
15088W        W76454  15.215  31.410   3.174
15089W        W76455  28.665  38.520  11.433
15090W        W76456   8.226  22.996   2.663
15091W        W76457  35.981  14.292  12.984
15092W        W76458  39.386  44.941   0.315
15093W        W76459  30.070  27.095  12.990
15094W        W76460   9.223  41.498  13.904
15095W        W76461  37.919   8.295   1.447
15096W        W76462  24.063  27.465  11.889
15097W        W76463  38.370  40.839  12.377
15098W        W76464  11.363   4.812  14.913
15099W        W76465  33.018  18.789  11.965
15100W        W76466  13.286  16.303   2.396
15101W        W76467  33.077  27.187  11.112
15102W        W76468  12.351  37.434   0.947
15103W        W76469  18.727  21.739  14.442
15104W        W76470  26.048  20.718  12.088
15105W        W76471   1.309   7.207  14.028
15106W        W76472  19.554  33.559  11.065
15107W        W76473  33.968  33.619  14.282
15108W        W76474  39.535  42.280  13.399
15109W        W76475  25.094   2.759  11.088
15110W        W76476   7.723  35.868   2.708
15111W        W76477   8.215  32.482   3.269
15112W        W76478  26.670   9.832  11.006
15113W        W76479  27.087  40.826  11.041
15114W        W76480  14.633  16.231  13.812
15115W        W76481  18.608  42.312   4.823
15116W        W76482  35.551  23.516   4.187
15117W        W76483  39.360  30.980   0.942
15118W        W76484  37.054  21.535   0.387
15119W        W76485   1.407   5.776  12.387
15120W        W76486  19.202   0.352   2.691
15121W        W76487  35.419   4.734   4.836
15122W        W76488  36.426  17.279  10.018
15123W        W76489  12.257   9.667  11.917
15124W        W76490  23.046  31.906   2.359
15125W        W76491  20.167  44.380   0.772
15126W        W76492  30.970   4.248  12.077
15127W        W76493  26.515  10.252  10.550
15128W        W76494  28.082  33.588   1.778
15129W        W76495  14.657  24.115  12.436
15130W        W76496  43.286   8.262  11.409
15131W        W76497  11.781  16.593   4.179
15132W        W76498  17.671   6.703   1.706
15133W        W76499  11.193  38.446   2.331
15134W        W76500  22.556  16.628   2.252
15135W        W76501  12.306  32.951  12.933
15136W        W76502  28.624  10.306  14.980
15137W        W76503  31.983   0.492  14.425
15138W        W76504  20.186   5.825   3.285
15139W        W76505  23.056  33.924  11.473
15140W        W76506  18.574  22.593  10.906
15141W        W76507  17.726  18.694   4.643
15142W        W76508  18.599   0.261   4.137
15143W        W76509  30.051  39.474   2.307
15144W        W76510  34.026  35.493  11.007
15145W        W76511  25.616  10.654  11.046
15146W        W76512  27.557  33.437   3.296
15147W        W76513  29.558   6.297  14.984
15148W        W76514  15.153   2.774   1.279
15149W        W76515   1.741  14.592   2.821
15150W        W76516  24.585  36.856   1.715
15151W        W76517   8.758  17.698  10.501
15152W        W76518   0.328  26.163   4.292
15153W        W76519   9.804  36.020   3.291
15154W        W76520  38.414  37.389  12.956
15155W        W76521  40.980  27.537   3.380
15156W        W76522  16.796  35.080  13.464
15157W        W76523  16.622  19.645   1.933
15158W        W76524  14.651  30.999   3.230
15159W        W76525  37.399  10.783   3.866
15160W        W76526  39.904  24.977  11.990
15161W        W76527  12.732  35.945   4.835
15162W        W76528  29.498  41.342  14.466
15163W        W76529  44.425   1.770   2.238
15164W        W76530  28.567  39.498   2.806
15165W        W76531   5.880  23.104   0.941
15166W        W76532  36.395  44.849   2.262
15167W        W76533  11.854   9.228  14.012
15168W        W76534  22.581  26.121  13.878
15169W        W76535  35.506  17.143  13.534
15170W        W76536  38.474  27.115  10.584
15171W        W76537  10.709  42.318   1.385
15172W        W76538  17.650   8.282  10.526
15173W        W76539   6.724  35.099   1.374
15174W        W76540  18.152   1.756  11.999
15175W        W76541  23.573  21.052   2.715
15176W        W76542  19.128  26.660   1.220
15177W        W76543  29.992  10.778  12.926
15178W        W76544  36.476  28.587   1.267
15179W        W76545  20.659  19.596   1.428
15180W        W76546   5.301  23.104  11.541
15181W        W76547   3.760   5.883  11.926
15182W        W76548  19.618  41.994  11.019
15183W        W76549  32.390  37.051  10.894
15184W        W76550   2.412  34.575   0.478
15185W        W76551  44.399  28.446  10.454
15186W        W76552  14.298   6.375  10.572
15187W        W76553  13.785  31.916  11.921
15188W        W76554  31.415  10.801   4.835
15189W        W76555  37.479  20.757   4.669
15190W        W76556  40.440  32.097  10.985
15191W        W76557  35.456  37.354   1.753
15192W        W76558  12.135  27.449   3.310
15193W        W76559  23.606  31.955  12.999
15194W        W76560   4.943  42.460   2.314
15195W        W76561  39.046  26.547  10.591
15196W        W76562  36.535  43.387  12.047
15197W        W76563  26.467  20.237   3.159
15198W        W76564   1.450  13.610   0.750
15199W        W76565  38.934   5.874   3.821
15200W        W76566   0.256  36.517  11.972
15201W        W76567  22.040  26.036   3.297
15202W        W76568  23.217  23.131  11.964
15203W        W76569  11.160  27.185  10.497
15204W        W76570   4.276  36.950  10.428
15205W        W76571  38.853  16.072   3.282
15206W        W76572   8.700  43.770  10.428
15207W        W76573  29.449  37.554   2.385
15208W        W76574  10.141   9.391   4.212
15209W        W76575  19.577  17.098   4.757
15210W        W76576  19.208  35.429  12.071
15211W        W76577  44.363   9.798   0.250
15212W        W76578  13.142   9.244   3.318
15213W        W76579  22.664  23.574   2.815
15214W        W76580  28.646  10.258  10.906
15215W        W76581  29.160  26.205  10.412
15216W        W76582  29.464  41.331  12.011
15217W        W76583  23.127  30.034   1.235
15218W        W76584   2.252  11.264  13.418
15219W        W76585  34.867  10.677   1.318
15220W        W76586  18.260  38.422  10.497
15221W        W76587   4.930  39.851   2.730
15222W        W76588  34.935  21.535  13.451
15223W        W76589   3.856  15.663  14.871
15224W        W76590  27.054  10.656  12.853
15225W        W76591  34.564  14.762  12.375
15226W        W76592  14.131  30.162   2.869
15227W        W76593  33.991   7.886   1.381
15228W        W76594  10.221  19.631  14.404
15229W        W76595  23.163   8.894   1.395
15230W        W76596   4.290  25.184  10.450
15231W        W76597  13.139  17.278  14.456
15232W        W76598  10.759  15.695  13.917
15233W        W76599  20.159  24.082  13.047
15234W        W76600  10.210  10.799   2.400
15235W        W76601  26.638  17.615   1.430
15236W        W76602  36.479  34.106  11.125
15237W        W76603  14.674  20.537  14.951
15238W        W76604  29.434  37.081  10.415
15239W        W76605  44.476  30.622   1.232
15240W        W76606  42.828  20.082  13.051
15241W        W76607  11.147  20.131  13.032
15242W        W76608   2.858  29.025   0.954
15243W        W76609  24.194  25.561   3.345
15244W        W76610  10.315  23.159   1.340
15245W        W76611  43.431   2.292  11.058
15246W        W76612   4.730  34.020  12.343
15247W        W76613  26.584  38.560  12.826
15248W        W76614   3.828   9.202  10.632
15249W        W76615  43.825  12.186  13.369
15250W        W76616  13.677  36.851  13.000
15251W        W76617  16.753  24.978   4.125
15252W        W76618  14.711  30.515  10.004
15253W        W76619  39.318  35.108   4.659
15254W        W76620  24.605  41.836  14.930
15255W        W76621  17.151  17.146   2.882
15256W        W76622  37.918  32.520  10.999
15257W        W76623  26.557  12.189   1.718
15258W        W76624  29.977  29.087   9.995
15259W        W76625  38.045  15.203   2.860
15260W        W76626  19.537   2.746   4.749
15261W        W76627   2.361  31.117  13.354
15262W        W76628  30.607   2.895   2.360
15263W        W76629  29.614  24.040  13.975
15264W        W76630   6.867   0.872  12.958
15265W        W76631  30.635  16.752  13.861
15266W        W76632  10.726  23.125   2.668
15267W        W76633  44.344  23.210  10.441
15268W        W76634  20.547  27.948   1.366
15269W        W76635  34.075  44.755  13.812
15270W        W76636  24.538  30.455  14.018
15271W        W76637  35.889  41.947  14.444
15272W        W76638  43.000  17.775  12.006
15273W        W76639  39.962  11.220   1.910
15274W        W76640  43.302   0.834   3.776
15275W        W76641  41.504  22.190   3.345
15276W        W76642  37.386  35.097   4.756
15277W        W76643  30.568  43.790  11.980
15278W        W76644  19.224  44.948   3.820
15279W        W76645  39.049  24.986   1.935
15280W        W76646  16.261  34.615   4.340
15281W        W76647   8.681  22.715  14.938
15282W        W76648  22.732  14.604   4.236
15283W        W76649   2.748  42.000  12.084
15284W        W76650  44.503  17.728  11.013
15285W        W76651  13.195   7.755   1.759
15286W        W76652  33.938   2.924  14.893
15287W        W76653  24.087  33.879   5.792
15288W        W76654  11.369  44.425  10.973
15289W        W76655  34.525   8.211  13.970
15290W        W76656  27.624  36.005   4.284
15291W        W76657  20.667   3.888   3.665
15292W        W76658  32.445   9.876   3.277
15293W        W76659  19.130  37.527   4.699
15294W        W76660  29.113  11.677   3.846
15295W        W76661   0.948  10.786   0.377
15296W        W76662  38.508  43.974   4.234
15297W        W76663  40.054  39.449  12.037
15298W        W76664   0.919  26.173   4.207
15299W        W76665  42.813  21.097   2.374
15300W        W76666   6.289  40.415   0.864
15301W        W76667  12.733  18.632   1.700
15302W        W76668  30.517  15.817  14.771
15303W        W76669   2.773  21.707  14.999
15304W        W76670  19.137  41.470   3.817
15305W        W76671  15.187  30.507  14.980
15306W        W76672  12.685  15.583  10.495
15307W        W76673  11.778   7.374  14.378
15308W        W76674  13.775  31.019  11.917
15309W        W76675  21.714  22.659   0.323
15310W        W76676  29.091  35.551   4.335
15311W        W76677  19.276  25.166  11.439
15312W        W76678  32.583  20.585  13.464
15313W        W76679  14.235   1.738  10.492
15314W        W76680  12.839  40.448   3.648
15315W        W76681  42.986  21.114   2.829
15316W        W76682  42.000   0.385  14.460
15317W        W76683   0.839   4.899  12.419
15318W        W76684  36.447  18.771   4.215
15319W        W76685  42.280  20.551  13.882
15320W        W76686  43.292  21.130   4.635
15321W        W76687   1.257   4.732   3.689
15322W        W76688   0.762  27.673   1.432
15323W        W76689  38.988  24.495  12.984
15324W        W76690  43.770  14.259   5.095
15325W        W76691   7.329  26.539   4.279
15326W        W76692  11.721   3.361  10.994
15327W        W76693  34.956  30.035  14.368
15328W        W76694  35.057  41.920   5.195
15329W        W76695  17.185   3.921   4.828
15330W        W76696  27.617  35.060   0.937
15331W        W76697  20.159  37.050   2.680
15332W        W76698   5.792  38.920  14.026
15333W        W76699  21.581   0.811  14.411
15334W        W76700   9.154  19.205   1.215
15335W        W76701  27.050   8.328   0.442
15336W        W76702  32.439   1.872   3.711
15337W        W76703  38.950   2.860  14.389
15338W        W76704  23.645  29.489   3.201
15339W        W76705  27.637  17.563   3.179
15340W        W76706  33.932  42.908   2.221
15341W        W76707  22.135  20.597   1.322
15342W        W76708  42.863  25.981  11.054
15343W        W76709  37.876  23.109   2.804
15344W        W76710  30.655  23.645  13.435
15345W        W76711  13.328  31.066   2.785
15346W        W76712  40.377   4.387   3.384
15347W        W76713  21.573  43.309   0.422
15348W        W76714  14.767  24.631   4.174
15349W        W76715  22.028  22.096  10.969
15350W        W76716  25.201   3.349  11.468
15351W        W76717  35.894  31.937   3.848
15352W        W76718  18.151  40.992   0.877
15353W        W76719  21.167  43.399   2.737
15354W        W76720  31.608   3.730  11.610
15355W        W76721  25.630  10.322  14.890
15356W        W76722  41.856  28.127   5.095
15357W        W76723  28.108  24.991   4.836
15358W        W76724  29.019  21.521   3.727
15359W        W76725  25.128  22.679  14.489
15360W        W76726  38.057  31.997   4.615
15361W        W76727  41.517  13.797   3.796
15362W        W76728  34.530   5.921  13.440
15363W        W76729  18.114  42.028   2.253
15364W        W76730  38.328  14.601  11.874
15365W        W76731  13.755   5.699  13.804
15366W        W76732   1.858  12.802   1.224
15367W        W76733   0.946  42.008   2.821
15368W        W76734  13.217   0.248   2.710
15369W        W76735  24.064  14.201   0.429
15370W        W76736  28.067  44.365  14.300
15371W        W76737   5.416  28.482  10.550
15372W        W76738  35.478  12.771  14.916
15373W        W76739  15.277  10.676  13.909
15374W        W76740  20.238  20.163  14.783
15375W        W76741  30.996  14.242   1.892
15376W        W76742   8.337  25.097   0.416
15377W        W76743  43.900  31.534   0.336
15378W        W76744  35.446  42.776   1.331
15379W        W76745  35.043  29.124  13.436
15380W        W76746  28.493  43.000   3.313
15381W        W76747  35.918  34.995   1.375
15382W        W76748  17.605  38.062   0.957
15383W        W76749  35.423   6.836   4.299
15384W        W76750  11.708  25.692  12.858
15385W        W76751  19.688  39.494  10.978
15386W        W76752  18.640   4.430  14.415
15387W        W76753  34.502  37.877  14.032
15388W        W76754  10.771  28.090  13.467
15389W        W76755  25.682  21.608  12.472
15390W        W76756  23.692   2.462  11.496
15391W        W76757   5.193  43.320  11.015
15392W        W76758  34.576  21.081   2.701
15393W        W76759  44.338  44.944   4.246
15394W        W76760  44.406  15.692   4.184
15395W        W76761  29.564   2.938  12.539
15396W        W76762  32.526   5.369  10.617
15397W        W76763  36.970  22.108  12.877
15398W        W76764  25.539  37.407   5.265
15399W        W76765   4.335  12.768  10.489
15400W        W76766  44.872  34.061  11.497
15401W        W76767  24.013  37.936   2.286
15402W        W76768  31.014  34.484   2.827
15403W        W76769   7.371  44.453  12.508
15404W        W76770  10.651   4.365  11.399
15405W        W76771  44.775  17.611  14.874
15406W        W76772  27.467   3.864   2.295
15407W        W76773  42.990   3.348   2.203
15408W        W76774  42.957  20.666  10.138
15409W        W76775  42.342  10.755  14.764
15410W        W76776  15.176  11.221   3.266
15411W        W76777   1.292  17.121   1.231
15412W        W76778  31.931  10.780  11.387
15413W        W76779   8.673  20.592  13.979
15414W        W76780   3.736   0.754   2.782
15415W        W76781   3.420  19.560   5.085
15416W        W76782  40.886  28.626  12.925
15417W        W76783  17.577  41.456   3.702
15418W        W76784   0.745  28.519  12.478
15419W        W76785   1.768   4.230  11.112
15420W        W76786  41.459  37.492   0.298
15421W        W76787   6.278  22.178  13.052
15422W        W76788   2.819   3.926  12.373
15423W        W76789  40.915  43.391  14.023
15424W        W76790   9.197   1.428  13.807
15425W        W76791  33.941  30.531   0.459
15426W        W76792   0.819  39.951   3.377
15427W        W76793  31.128   4.227   3.839
15428W        W76794  29.073  24.202   3.377
15429W        W76795   8.832  12.649  12.562
15430W        W76796  19.772  25.200  12.065
15431W        W76797   3.851  26.017  10.972
15432W        W76798  42.380  23.053   1.296
15433W        W76799  30.568   4.385  10.964
15434W        W76800  27.163   1.440   0.944
15435W        W76801  33.399  29.430  11.022
15436W        W76802   5.804  35.967  10.614
15437W        W76803  24.639  19.556   4.805
15438W        W76804  34.405  28.450   3.170
15439W        W76805   2.447  22.569  14.013
15440W        W76806  14.785  18.153   1.781
15441W        W76807  38.390  37.533   0.768
15442W        W76808  44.929  21.231   2.388
15443W        W76809  11.153  42.355  12.532
15444W        W76810   4.730   5.841   2.366
15445W        W76811  32.590  13.846   1.813
15446W        W76812   0.393  43.955  13.859
15447W        W76813  14.245   1.860  14.001
15448W        W76814   4.375  24.486  10.594
15449W        W76815  27.603  29.031  14.847
15450W        W76816  28.469   2.811   3.377
15451W        W76817  38.900   6.273   3.170
15452W        W76818  30.160   0.429   2.697
15453W        W76819  23.648  44.787  14.314
15454W        W76820  14.832   8.377  10.565
15455W        W76821  13.636  11.630  12.460
15456W        W76822   8.351  41.872  14.503
15457W        W76823  29.104  10.806   4.730
15458W        W76824  42.332   2.257   2.776
15459W        W76825  24.066  36.488   3.366
15460W        W76826  20.089  12.263   2.351
15461W        W76827  18.547  28.620  10.518
15462W        W76828  31.567   9.180  14.027
15463W        W76829  10.360  27.563   2.253
15464W        W76830  23.170  27.038  10.582
15465W        W76831  36.471  10.233  10.919
15466W        W76832  40.429   3.274   3.823
15467W        W76833   7.367  37.508  11.112
15468W        W76834  15.784  22.189   4.246
15469W        W76835  14.778  41.300  10.509
15470W        W76836  39.950  17.777  14.277
15471W        W76837  19.068  20.035   4.162
15472W        W76838  41.395  43.012   0.388
15473W        W76839  15.806  21.185   0.299
15474W        W76840  35.581   0.955   3.649
15475W        W76841  30.137  14.250   2.707
15476W        W76842  33.582  33.033   3.736
15477W        W76843  32.077  17.790  11.916
15478W        W76844  43.432  25.975   1.803
15479W        W76845  21.027   8.322   2.406
15480W        W76846  30.910   0.971  10.972
15481W        W76847  22.172  40.896  12.408
15482W        W76848  21.125  10.375  10.929
15483W        W76849  33.397   4.810  10.983
15484W        W76850  34.032  19.692   4.809
15485W        W76851  11.639  15.780   5.179
15486W        W76852   9.794   6.845  14.470
15487W        W76853  37.945  18.227   3.256
15488W        W76854   5.696  34.444   3.193
15489W        W76855  17.734  16.180  11.433
15490W        W76856  14.720  35.378   1.425
15491W        W76857  28.004  16.120   4.669
15492W        W76858  22.609  39.880  12.492
15493W        W76859   4.816  38.025   2.753
15494W        W76860  14.810   0.481   0.249
15495W        W76861  37.467  18.219  13.343
15496W        W76862   4.347  25.132  14.997
15497W        W76863  31.622  27.469  13.792
15498W        W76864  11.358  23.665  10.598
15499W        W76865  38.336  42.497  12.961
15500W        W76866  33.973  11.684  12.994
15501W        W76867  21.747   3.245  13.934
15502W        W76868  21.087  40.902   4.279
15503W        W76869   8.265  10.352  14.372
15504W        W76870  12.204   4.822  12.446
15505W        W76871  43.926  15.171   1.401
15506W        W76872  29.984  23.185   4.129
15507W        W76873  38.886  23.085   0.906
15508W        W76874  24.192   7.767   3.855
15509W        W76875  31.435   7.725   3.635
15510W        W76876  37.034  22.740  10.898
15511W        W76877   6.884   9.881   2.329
15512W        W76878   1.357  18.053   1.798
15513W        W76879  35.572  38.431   0.934
15514W        W76880   3.789  30.645   3.784
15515W        W76881  19.566  27.556  13.959
15516W        W76882   8.701  40.502   0.310
15517W        W76883  18.184  34.995   2.706
15518W        W76884  32.563  11.174   0.741
15519W        W76885  44.892  35.417   0.959
15520W        W76886   0.448  29.495  14.410
15521W        W76887  21.578  26.041   3.211
15522W        W76888  10.858  12.747  13.347
15523W        W76889  43.420  28.558   0.426
15524W        W76890  14.620  37.882  11.003
15525W        W76891  30.040  43.979  14.854
15526W        W76892   2.864  12.759   1.801
15527W        W76893  40.461  34.992  12.980
15528W        W76894  27.145   0.395   3.833
15529W        W76895  30.509  29.921  14.772
15530W        W76896  22.167  39.937  13.330
15531W        W76897  16.705  23.576   2.849
15532W        W76898  21.232  10.727   2.262
15533W        W76899  36.391  32.045   4.724
15534W        W76900  40.411  17.278  13.981
15535W        W76901   6.881  16.651  12.828
15536W        W76902  10.713  35.070   0.441
15537W        W76903  29.455  14.320  12.571
15538W        W76904  34.037  12.623   3.764
15539W        W76905  44.322   9.706  11.875
15540W        W76906  19.057   9.168  12.341
15541W        W76907  16.165  30.584   5.179
15542W        W76908  30.965  16.217   2.367
15543W        W76909   1.413   0.827  13.062
15544W        W76910  35.510   9.670  12.474
15545W        W76911  34.076  27.951   3.670
15546W        W76912  41.852  42.500   3.207
15547W        W76913  10.231  32.628   1.771
15548W        W76914  11.676  12.176  11.931
15549W        W76915  36.524  38.409  12.396
15550W        W76916  30.944  39.400  14.877
15551W        W76917  38.540   7.301   0.409
15552W        W76918  20.706  41.528   3.168
15553W        W76919  24.975  34.528  13.902
15554W        W76920   6.189  37.418   3.807
15555W        W76921   1.775   8.356   0.855
15556W        W76922   7.674  28.677  12.885
15557W        W76923  43.284  43.804  11.881
15558W        W76924  14.735  33.485   3.649
15559W        W76925  16.752   3.273   3.647
15560W        W76926  12.725  14.760  13.381
15561W        W76927  44.841  16.254   1.281
15562W        W76928  42.474  38.527   3.385
15563W        W76929   6.192  34.399   4.117
15564W        W76930   5.290  16.159   0.277
15565W        W76931  32.011  37.472  12.060
15566W        W76932  12.358  32.423   1.699
15567W        W76933  41.330  24.227  11.431
15568W        W76934  30.436  13.787  10.978
15569W        W76935  32.562  32.395  12.539
15570W        W76936  32.456  14.621   1.845
15571W        W76937   9.690  21.750  13.998
15572W        W76938   5.222  32.930  14.821
15573W        W76939  21.548  16.196   2.338
15574W        W76940  29.940  34.967   0.349
15575W        W76941  35.580  33.039  14.986
15576W        W76942  16.755  12.250   1.259
15577W        W76943   9.758  23.188   3.676
15578W        W76944  20.603  33.102   0.360
15579W        W76945  24.178  22.673   2.822
15580W        W76946  40.363  32.441   0.399
15581W        W76947  37.053  27.120  13.947
15582W        W76948  23.223  35.530  13.342
15583W        W76949  29.112  44.478  10.900
15584W        W76950  32.964  19.108  13.454
15585W        W76951  14.144  36.353   3.739
15586W        W76952   5.785   6.333   4.278
15587W        W76953  40.344  43.787   0.320
15588W        W76954  31.000  41.358   0.477
15589W        W76955   3.450  41.805  10.939
15590W        W76956   4.749  18.263   0.478
15591W        W76957  31.560  32.624  10.496
15592W        W76958  13.693  10.656   0.461
15593W        W76959  18.683  26.679   1.227
15594W        W76960  28.170  12.732  12.824
15595W        W76961  31.406  33.553   4.625
15596W        W76962   3.275  43.489  12.390
15597W        W76963  21.739  36.593  10.447
15598W        W76964  37.560  20.246   0.478
15599W        W76965   9.777  21.590   1.326
15600W        W76966   4.426   2.256   1.400
15601W        W76967  12.196  28.497  11.976
15602W        W76968  39.332  22.126   3.346
15603W        W76969  16.750  24.107  12.536
15604W        W76970  23.705  17.235   2.734
15605W        W76971   9.165  31.560  14.841
15606W        W76972  14.337  19.270  12.473
15607W        W76973  40.342  28.158   5.238
15608W        W76974  33.404   5.932  12.082
15609W        W76975   4.349   4.699   1.371
15610W        W76976  33.907  33.484  12.578
15611W        W76977  24.485  29.563  11.917
15612W        W76978  22.628  11.308  11.612
15613W        W76979  11.661   5.414  13.381
15614W        W76980  21.634  38.923  11.087
15615W        W76981  12.777  23.669  12.935
15616W        W76982  19.767  19.698  14.432
15617W        W76983   6.677   5.361   2.849
15618W        W76984  17.224  10.672  12.830
15619W        W76985  17.152  33.583   3.355
15620W        W76986  34.446  10.271  13.815
15621W        W76987  41.791   7.778   3.237
15622W        W76988  18.561  42.856   2.760
15623W        W76989  34.044  42.522  14.417
15624W        W76990  33.385   8.772   2.296
15625W        W76991   5.863  30.010  13.386
15626W        W76992  22.637  44.471   1.322
15627W        W76993   6.382  15.759   1.304
15628W        W76994  44.325  43.465  11.937
15629W        W76995  16.242  26.160   4.752
15630W        W76996   6.316   1.929  14.860
15631W        W76997  24.195  43.287   2.770
15632W        W76998  44.443  43.333  12.577
15633W        W76999  21.700   5.396  14.442
15634W        W77000  12.128  13.778   2.879
15635W        W77001  27.647  14.833  14.018
15636W        W77002  37.845  11.827   2.843
15637W        W77003  17.642  34.887   9.943
15638W        W77004  31.470  12.838   4.604
15639W        W77005  21.734   9.157  13.378
15640W        W77006   4.436   4.235  14.846
15641W        W77007   6.249  24.538  14.786
15642W        W77008  29.062  38.361   0.950
15643W        W77009  14.738  42.844   2.812
15644W        W77010  26.953  25.491   1.249
15645W        W77011  44.835  43.453   2.885
15646W        W77012  35.360   6.764  10.546
15647W        W77013  34.930  17.711   1.848
15648W        W77014  41.459  22.019   2.301
15649W        W77015   3.728  25.132  13.366
15650W        W77016   4.881  23.107  12.021
15651W        W77017  26.010  25.485  10.015
15652W        W77018   0.985  15.598  14.325
15653W        W77019   2.751  12.234  11.597
15654W        W77020  43.877  25.973   0.270
15655W        W77021  25.054  17.117   0.828
15656W        W77022  25.199  17.142   2.667
15657W        W77023  17.590  13.136  14.900
15658W        W77024  12.616   5.371  10.924
15659W        W77025  35.036  32.582   1.322
15660W        W77026  21.595  33.590  13.047
15661W        W77027  14.314  43.499   2.192
15662W        W77028  37.865  19.227  13.486
15663W        W77029  12.116  11.177  12.053
15664W        W77030  43.353   1.974  12.517
15665W        W77031  40.962  30.625  10.583
15666W        W77032   1.797  20.076   4.727
15667W        W77033  36.436  14.145   4.178
15668W        W77034   6.721  38.011   2.765
15669W        W77035   5.407   2.293   0.781
15670W        W77036   3.724  18.563  12.437
15671W        W77037  26.588   5.218   4.801
15672W        W77038  35.515  20.594   3.179
15673W        W77039   7.753  18.064  14.863
15674W        W77040  35.029  18.569  10.933
15675W        W77041  22.226  13.843  14.291
15676W        W77042   3.858  34.384  10.573
15677W        W77043   0.799  29.450   5.252
15678W        W77044  30.148  19.101  13.844
15679W        W77045   4.305  24.088   2.266
15680W        W77046  44.911   3.722   3.858
15681W        W77047  23.733   1.972   3.785
15682W        W77048  44.895  27.951  13.413
15683W        W77049  33.590  25.989   3.687
15684W        W77050   1.283   8.314   0.464
15685W        W77051  20.255  10.169   4.634
15686W        W77052  27.176  38.538  12.413
15687W        W77053  44.946  43.432  13.960
15688W        W77054  18.743   1.796  14.825
15689W        W77055   3.370  16.206  10.954
15690W        W77056   0.420  12.621   2.241
15691W        W77057  22.691  25.534  14.329
15692W        W77058   2.829  20.260   0.812
15693W        W77059   6.244  19.636   4.161
15694W        W77060  18.562   0.873  12.030
15695W        W77061  36.924  12.778  12.933
15696W        W77062  35.524  29.986  11.476
15697W        W77063  10.188  41.968   4.655
15698W        W77064   5.761  43.423   2.363
15699W        W77065  20.570  25.097  12.934
15700W        W77066   8.378  10.633   4.312
15701W        W77067  38.032   7.667   2.273
15702W        W77068  13.833  35.587  13.030
15703W        W77069  20.188  26.956  13.340
15704W        W77070  21.531  32.960   3.253
15705W        W77071  15.673  13.711  10.001
15706W        W77072  23.147  32.509   3.631
15707W        W77073   9.886  16.673  14.368
15708W        W77074  22.684  12.195   2.709
15709W        W77075  22.702  41.845   9.948
15710W        W77076  20.105  13.775  12.052
15711W        W77077  40.362  27.682   1.828
15712W        W77078  34.372  16.713  14.816
15713W        W77079  40.896   1.401   4.794
15714W        W77080  10.665  26.050   2.234
15715W        W77081  19.059   0.952   2.281
15716W        W77082  37.896  14.636  14.386
15717W        W77083   5.923  30.039  11.512
15718W        W77084  31.518  36.559   2.800
15719W        W77085   8.808  30.050  12.072
15720W        W77086  44.953  20.060  13.859
15721W        W77087  39.986  39.052   1.350
15722W        W77088  25.560  13.279   5.269
15723W        W77089   0.816  21.665   2.263
15724W        W77090  29.997  11.223  14.315
15725W        W77091   6.765  11.698   0.314
15726W        W77092  41.428  32.142  11.864
15727W        W77093  13.655  19.688  10.627
15728W        W77094  40.002  41.910   0.455
15729W        W77095  10.332  39.487   1.229
15730W        W77096  43.985  28.099   9.955
15731W        W77097  33.911  42.493   1.384
15732W        W77098   6.294  43.391  13.460
15733W        W77099   0.884  41.987  11.981
15734W        W77100  39.478  24.227   0.273
15735W        W77101  36.473  26.594   3.236
15736W        W77102  35.363   1.754   1.251
15737W        W77103   6.862  32.091   0.335
15738W        W77104  16.130   6.914  14.390
15739W        W77105  14.610  32.392   0.313
15740W        W77106  25.160  15.735  10.550
15741W        W77107  36.374  39.493  11.423
15742W        W77108  39.982  31.465  14.843
15743W        W77109  40.321   4.243  12.341
15744W        W77110  24.123  42.834   0.816
15745W        W77111  32.553  34.466  13.344
15746W        W77112  42.491   7.697   2.727
15747W        W77113  35.875   7.349  10.936
15748W        W77114  12.312   2.451  12.430
15749W        W77115  12.623  44.348  12.920
15750W        W77116  29.096  36.535  14.879
15751W        W77117  42.030  29.494  14.298
15752W        W77118  41.429   8.298  13.470
15753W        W77119  11.849   4.240  10.558
15754W        W77120  27.495  15.162   1.404
15755W        W77121  21.082  16.272   0.934
15756W        W77122   0.841  22.159  11.034
15757W        W77123  28.561  43.280  14.499
15758W        W77124  29.563   2.350  11.118
15759W        W77125  37.916  44.001  12.916
15760W        W77126   7.212  44.399  14.472
15761W        W77127  20.721  41.910   4.787
15762W        W77128   4.311  40.012  12.365
15763W        W77129  36.075   2.320   0.788
15764W        W77130  32.905  32.423  11.532
15765W        W77131   1.843  17.210   1.879
15766W        W77132  24.493  38.384  10.510
15767W        W77133  24.127  42.359  13.493
15768W        W77134  24.521   8.257   3.281
15769W        W77135  26.571  25.058  12.052
15770W        W77136  40.832  43.797  10.958
15771W        W77137  39.474  34.495  11.432
15772W        W77138  14.328  44.876   0.361
15773W        W77139  16.261  31.138  12.056
15774W        W77140   7.674  39.390  13.521
15775W        W77141  26.980  15.632   3.688
15776W        W77142  23.999  18.190  10.531
15777W        W77143  33.613  24.048  11.465
15778W        W77144   7.240   1.860  14.945
15779W        W77145   8.705  31.573   2.394
15780W        W77146   8.856  38.357  11.589
15781W        W77147  28.519   4.829  11.049
15782W        W77148  38.967   6.386  12.428
15783W        W77149  36.994  17.180   2.258
15784W        W77150  21.174  16.072  12.891
15785W        W77151  25.646  27.014   2.883
15786W        W77152  24.647  28.140  11.549
15787W        W77153  18.557  11.253   1.376
15788W        W77154   2.820   4.318  12.550
15789W        W77155  32.981   0.282   4.674
15790W        W77156  42.793  30.463  10.472
15791W        W77157   7.174  13.616  11.983
15792W        W77158  36.963  25.497   2.674
15793W        W77159  36.046   6.334   1.901
15794W        W77160  37.006   1.239  14.477
15795W        W77161  10.279  27.037  13.436
15796W        W77162  36.014  25.175   3.835
15797W        W77163  25.982  30.440   2.211
15798W        W77164  30.627  13.684  10.631
15799W        W77165  24.040  43.461   0.290
15800W        W77166  27.060  16.076  13.008
15801W        W77167  30.620  14.745   0.481
15802W        W77168  39.888  10.690   2.309
15803W        W77169  19.626  32.527  11.989
15804W        W77170  43.433   9.686   1.737
15805W        W77171  40.001  43.352   0.960
15806W        W77172  31.033   8.244   2.771
15807W        W77173  15.104  11.722  13.353
15808W        W77174  25.093  43.938  11.575
15809W        W77175  21.149   5.256   2.191
15810W        W77176  17.568  30.564   4.230
15811W        W77177  24.583  13.690   1.878
15812W        W77178  15.721  34.582  13.417
15813W        W77179  27.538  13.171  11.490
15814W        W77180  39.359  26.030   2.276
15815W        W77181  17.271   8.666   3.727
15816W        W77182  32.453  33.424  11.514
15817W        W77183   0.810   5.295   1.818
15818W        W77184  16.789  37.912  12.373
15819W        W77185  26.529  17.205   4.796
15820W        W77186  42.880  22.250   4.314
15821W        W77187  14.109  28.042   3.203
15822W        W77188   0.916  23.146   2.758
15823W        W77189  44.413  29.065   3.158
15824W        W77190  31.076  44.404  10.118
15825W        W77191  16.120  33.598  14.341
15826W        W77192  11.790  14.812   1.258
15827W        W77193   7.878  25.991  11.410
15828W        W77194  12.329  19.232  13.915
15829W        W77195  27.957   8.302   1.414
15830W        W77196  11.848   6.311  14.410
15831W        W77197  35.881  40.016   4.283
15832W        W77198  41.980   3.756   4.236
15833W        W77199   9.275  25.060   0.749
15834W        W77200  16.650  10.799  11.982
15835W        W77201  35.962  13.131  14.452
15836W        W77202  26.056  25.972  13.019
15837W        W77203  28.004  44.954  14.863
15838W        W77204   0.916  44.324  14.513
15839W        W77205   7.202  16.080   1.405
15840W        W77206  12.779  20.239   4.723
15841W        W77207  38.054  41.304   1.865
15842W        W77208  13.178  17.573  10.012
15843W        W77209   5.415   7.375  14.315
15844W        W77210  44.842   0.924   2.846
15845W        W77211   7.672  41.350   0.451
15846W        W77212   1.281  11.164   1.277
15847W        W77213  31.990  44.264   5.097
15848W        W77214  25.125  44.488   2.762
15849W        W77215  18.068   7.907  13.813
15850W        W77216  36.496  29.969  11.449
15851W        W77217  31.509  17.691   5.567
15852W        W77218  34.409  30.046  14.379
15853W        W77219  36.973  13.151   0.803
15854W        W77220  11.294  20.760   3.315
15855W        W77221  44.887  14.800   4.324
15856W        W77222   1.448  36.419   2.731
15857W        W77223   0.969   7.698  10.491
15858W        W77224  38.058  26.169  10.506
15859W        W77225  35.979   4.756   0.873
15860W        W77226  41.008  12.661  12.573
15861W        W77227  34.613  16.086   2.846
15862W        W77228  43.319   7.670  13.874
15863W        W77229  10.803  10.636   2.697
15864W        W77230  29.925  13.639   2.213
15865W        W77231  43.959  28.133   2.384
15866W        W77232   8.717   2.751  12.518
15867W        W77233   1.349  25.495  14.406
15868W        W77234  22.501  43.811  13.547
15869W        W77235  16.252  18.074   3.643
15870W        W77236  15.293  21.129   2.365
15871W        W77237  12.721  44.845   4.789
15872W        W77238  43.768  40.437  12.515
15873W        W77239  28.617  43.326   2.344
15874W        W77240  44.425   8.181  13.986
15875W        W77241  44.842  25.611   3.660
15876W        W77242  34.461  40.836   0.912
15877W        W77243   1.887  43.347   4.821
15878W        W77244   5.855  39.013   2.357
15879W        W77245  11.246  34.011   0.362
15880W        W77246  39.418  27.055   4.716
15881W        W77247  30.067   3.935  10.556
15882W        W77248  12.179  18.561  13.999
15883W        W77249  24.985  18.691   3.311
15884W        W77250   0.333  42.484  14.860
15885W        W77251  36.916  31.963  12.940
15886W        W77252  33.050   7.722   1.311
15887W        W77253  24.162   6.773  12.943
15888W        W77254  22.507  41.456  14.424
15889W        W77255  34.551   9.233  10.416
15890W        W77256  25.157  28.673  12.477
15891W        W77257  44.448   5.335  12.388
15892W        W77258  40.548  26.115   3.243
15893W        W77259  15.149  34.537   4.727
15894W        W77260  35.984  17.183   3.298
15895W        W77261   3.268  38.519   3.692
15896W        W77262  35.965  39.352  10.159
15897W        W77263   3.282   5.319   2.382
15898W        W77264  33.566  11.373   0.432
15899W        W77265  33.549   6.351   1.886
15900W        W77266  27.172  29.562  12.441
15901W        W77267  22.698  38.329  14.300
15902W        W77268  35.397  36.928   2.877
15903W        W77269  17.146  24.696  10.893
15904W        W77270  39.902  18.693  14.355
15905W        W77271  26.569  16.671  12.984
15906W        W77272  16.148   8.755   5.133
15907W        W77273  39.503  36.911  13.450
15908W        W77274   2.252  34.582  12.547
15909W        W77275  11.259  23.020  10.961
15910W        W77276  24.218  17.180  14.452
15911W        W77277  12.314  22.580   2.767
15912W        W77278  26.205  21.262   4.665
15913W        W77279  14.269  18.609   0.865
15914W        W77280  31.481  15.648  11.385
15915W        W77281  20.604  40.009  10.510
15916W        W77282  42.960  15.578   4.300
15917W        W77283  36.044  39.866  13.449
15918W        W77284  39.515  41.380  11.923
15919W        W77285  25.983  12.741  13.802
15920W        W77286  12.684  29.053  10.593
15921W        W77287  25.995   2.306  14.283
15922W        W77288  24.165  11.814  10.476
15923W        W77289   2.869   3.330   9.482
15924W        W77290  25.553  18.690  11.998
15925W        W77291  42.792  18.183   2.264
15926W        W77292  21.068  12.623  11.516
15927W        W77293  44.266  40.475  12.408
15928W        W77294   4.301  11.860  13.417
15929W        W77295  28.025  16.179   4.155
15930W        W77296  11.332  11.634  12.080
15931W        W77297  15.792  29.464   0.410
15932W        W77298  33.548  26.539  14.013
15933W        W77299  43.774  19.236  11.503
15934W        W77300   9.251  38.859  13.363
15935W        W77301  34.512  12.724  14.919
15936W        W77302  19.658   2.296  12.071
15937W        W77303   0.780   4.843  14.918
15938W        W77304  13.281  24.977  13.793
15939W        W77305  39.059   8.268   3.183
15940W        W77306  15.153  16.308  10.968
15941W        W77307  28.643  25.541  11.077
15942W        W77308   3.771  27.946  14.873
15943W        W77309  44.291  34.522  12.829
15944W        W77310  24.691  31.973   3.261
15945W        W77311   8.208  11.698   3.211
15946W        W77312  10.730  10.242   1.791
15947W        W77313  12.768  22.532  12.364
15948W        W77314  13.807  37.551   1.421
15949W        W77315  35.565  15.287  14.846
15950W        W77316  42.778   1.282   3.156
15951W        W77317   2.254   2.438  11.384
15952W        W77318  38.852  39.934   0.303
15953W        W77319  12.277   0.347   1.264
15954W        W77320   3.722  25.642  11.404
15955W        W77321  24.141  40.468   5.235
15956W        W77322  36.033   9.329  10.591
15957W        W77323  23.589   4.220  11.868
15958W        W77324  43.498  15.729   4.132
15959W        W77325  35.366  14.685   3.259
15960W        W77326  38.074  17.290  14.331
15961W        W77327  39.539  41.383  11.395
15962W        W77328  10.843  43.308  13.888
15963W        W77329  15.306   9.830   0.243
15964W        W77330   5.757   4.440  13.882
15965W        W77331   7.873   4.812   3.714
15966W        W77332  11.245  24.699  11.416
15967W        W77333   0.759  35.892  10.078
15968W        W77334  15.817   6.699   4.307
15969W        W77335  44.785   1.877   1.273
15970W        W77336   5.756  30.608  14.423
15971W        W77337  31.479  18.173   4.635
15972W        W77338   0.444  21.635   0.804
15973W        W77339  24.595  29.569  13.422
15974W        W77340  33.385  22.691   4.609
15975W        W77341  40.330  20.085  12.847
15976W        W77342  33.626  10.216   1.817
15977W        W77343  21.019  16.155  14.322
15978W        W77344  33.915  13.160  13.525
15979W        W77345  42.328   9.331   3.773
15980W        W77346  21.582  28.132   1.695
15981W        W77347   1.419  17.649   3.663
15982W        W77348  27.666  36.411  13.510
15983W        W77349  41.427   6.405  10.518
15984W        W77350  13.727  11.718   2.887
15985W        W77351  36.865  12.120  13.849
15986W        W77352  22.640  44.933   9.973
15987W        W77353   8.724  17.619   4.121
15988W        W77354  39.351  41.530  13.006
15989W        W77355  11.781   4.737   5.230
15990W        W77356  20.189  23.522  13.031
15991W        W77357  35.462  11.246   3.824
15992W        W77358   9.784   3.291  11.392
15993W        W77359  30.939  10.218  10.567
15994W        W77360  41.962   6.761   3.165
15995W        W77361   9.192  16.799  10.453
15996W        W77362  16.806   0.422   2.289
15997W        W77363  39.490  35.984   3.796
15998W        W77364  41.973  31.511  12.008
15999W        W77365   2.962   5.855   4.715
16000W        W77366  32.515  11.712  10.976
16001W        W77367   5.855  26.009  14.955
16002W        W77368  28.597  19.068  13.997
16003W        W77369  43.881  38.333  11.937
16004W        W77370  10.694   7.333  10.534
16005W        W77371  42.364  33.876  14.763
16006W        W77372  27.978   7.890   4.225
16007W        W77373  21.035  42.398  13.385
16008W        W77374  14.732  23.691   1.829
16009W        W77375  33.889   1.777   2.850
16010W        W77376  22.172  36.450   0.761
16011W        W77377  30.155  38.532  11.000
16012W        W77378  36.388  18.092   4.259
16013W        W77379  31.039   3.237   0.356
16014W        W77380   2.762  21.236  12.066
16015W        W77381  44.849  43.318   4.241
16016W        W77382   5.367  44.423  14.829
16017W        W77383  42.453  19.762   0.339
16018W        W77384   3.272  13.721   3.830
16019W        W77385  22.714  12.842  12.544
16020W        W77386  41.876  28.584  11.539
16021W        W77387  38.485  24.126   4.623
16022W        W77388   7.414  12.641   4.195
16023W        W77389  26.050  35.070   2.770
16024W        W77390   8.260  38.058  11.918
16025W        W77391  43.395  23.162  14.856
16026W        W77392  14.740  32.571  12.517
16027W        W77393  16.080  29.571  13.418
16028W        W77394  24.193   2.908   2.237
16029W        W77395   6.904   2.942   2.673
16030W        W77396  11.307   1.346   2.283
16031W        W77397  18.140  16.204   1.300
16032W        W77398  38.002  27.986  12.890
16033W        W77399  15.686  32.126  14.300
16034W        W77400  29.555  10.308  13.835
16035W        W77401  23.080  25.695   3.763
16036W        W77402  10.675  16.109   3.633
16037W        W77403  13.605  24.560   1.767
16038W        W77404  28.577   5.251   2.294
16039W        W77405  38.957   0.911   3.203
16040W        W77406  26.641  19.175  13.984
16041W        W77407   1.956   8.384   4.670
16042W        W77408  34.597  44.446   3.828
16043W        W77409  29.624  35.041  10.899
16044W        W77410  28.466  42.354   1.362
16045W        W77411  44.444  33.593   2.187
16046W        W77412  32.060  42.005   4.328
16047W        W77413  40.400   1.956  14.810
16048W        W77414   8.174  36.934  10.576
16049W        W77415   5.849  21.675  11.031
16050W        W77416  11.689  14.637   3.179
16051W        W77417  26.964  16.693  11.603
16052W        W77418  41.940   6.388  14.787
16053W        W77419  44.392  19.558   0.853
16054W        W77420   9.349  42.295  10.917
16055W        W77421   2.958  17.280  11.100
16056W        W77422  28.059  12.294   4.713
16057W        W77423  18.598  35.403   3.863
16058W        W77424  35.073  33.389   3.669
16059W        W77425  27.452   9.152   4.130
16060W        W77426  38.070   0.841   1.907
16061W        W77427  37.503   8.362   0.835
16062W        W77428   2.387  20.540  13.442
16063W        W77429  28.006   8.689   4.682
16064W        W77430   3.844   9.801  14.926
16065W        W77431  18.081  44.460  10.992
16066W        W77432  35.369  29.600  10.531
16067W        W77433   9.211  16.812   9.607
16068W        W77434  32.113  21.035   3.671
16069W        W77435  44.950   4.928  11.012
16070W        W77436  27.616  13.232  11.029
16071W        W77437  11.707  43.510  10.442
16072W        W77438   2.356  15.635  14.428
16073W        W77439  41.820  30.972   2.803
16074W        W77440  41.999  15.601   1.827
16075W        W77441  33.476  14.152  10.057
16076W        W77442   4.751  11.691   1.303
16077W        W77443  39.355   6.896   2.274
16078W        W77444  15.792  14.623  14.882
16079W        W77445  28.980  33.930   1.273
16080W        W77446   3.733  24.584   2.681
16081W        W77447  37.933  13.621  14.508
16082W        W77448  11.309  27.448   1.710
16083W        W77449  22.037  25.051   1.872
16084W        W77450  39.413  11.781   0.338
16085W        W77451  38.035  28.663   3.170
16086W        W77452   7.803   2.720  12.097
16087W        W77453  32.061  30.948   2.868
16088W        W77454  38.405  40.523   2.222
16089W        W77455  12.213  37.350  14.790
16090W        W77456  41.327  41.384  10.919
16091W        W77457  31.583   3.432  14.382
16092W        W77458  26.041  35.982   2.207
16093W        W77459  11.365   4.723   0.283
16094W        W77460  31.586  40.825  13.854
16095W        W77461  38.936  42.967   0.817
16096W        W77462  29.026   6.729   1.909
16097W        W77463  19.182  30.471   1.395
16098W        W77464  33.562  25.567   2.799
16099W        W77465  35.434  43.977  11.861
16100W        W77466  11.329  26.506   0.460
16101W        W77467  22.063  41.955  12.912
16102W        W77468  23.614  34.039   1.749
16103W        W77469  10.719  26.156  13.793
16104W        W77470  11.829  15.190   0.807
16105W        W77471  36.515  14.801  14.871
16106W        W77472  43.315   2.784   3.367
16107W        W77473  26.489   8.767  10.104
16108W        W77474  34.597  12.719  14.455
16109W        W77475  18.675  37.536  12.843
16110W        W77476  28.654  20.073  10.459
16111W        W77477   0.858  15.277   1.347
16112W        W77478  23.224  11.671  13.909
16113W        W77479   6.355  10.187  14.784
16114W        W77480   9.744  22.135   1.755
16115W        W77481  43.010  29.990  14.013
16116W        W77482  22.707  40.518  14.797
16117W        W77483  42.330  40.049  12.344
16118W        W77484  23.504  36.491   0.925
16119W        W77485  26.956  12.141   2.280
16120W        W77486  11.697  41.892   5.247
16121W        W77487   0.434  42.939  11.484
16122W        W77488   6.842  31.060   2.274
16123W        W77489   8.727   0.911   1.867
16124W        W77490  39.865   8.684  14.993
16125W        W77491  29.557   8.784  12.084
16126W        W77492  38.552   1.319   0.885
16127W        W77493  21.162  15.146  13.819
16128W        W77494  16.234  15.613  13.826
16129W        W77495  24.167  15.656   3.639
16130W        W77496   8.756  13.823   1.406
16131W        W77497  11.749  38.847   4.639
16132W        W77498  43.304  20.056  11.915
16133W        W77499  33.038  35.506  12.982
16134W        W77500   0.440  34.918  11.957
16135W        W77501  21.038  26.178   2.871
16136W        W77502   1.851  24.196   4.224
16137W        W77503  23.515   6.225  12.502
16138W        W77504  13.706   1.295   2.354
16139W        W77505  20.639  10.375   3.826
16140W        W77506  25.035  24.205  12.533
16141W        W77507  26.676   5.200   4.234
16142W        W77508  30.162  44.000  13.951
16143W        W77509   8.405   9.197  14.330
16144W        W77510  27.587   3.929   0.416
16145W        W77511  15.788   9.767  12.964
16146W        W77512   0.340   4.379  14.980
16147W        W77513  40.942  22.172  11.925
16148W        W77514  28.097  10.653   3.149
16149W        W77515   9.764  27.658  12.474
16150W        W77516   1.328  21.076  13.901
16151W        W77517  42.889  37.371  12.066
16152W        W77518  20.224  19.536   4.226
16153W        W77519  32.395  30.500  14.947
16154W        W77520  20.193   3.918   1.809
16155W        W77521  42.840  42.473  13.519
16156W        W77522  25.620   0.790   5.092
16157W        W77523  30.508  33.476  10.643
16158W        W77524  27.172  24.702   1.355
16159W        W77525  21.538  39.861  13.962
16160W        W77526  33.437  23.659  13.939
16161W        W77527  41.808   7.705   2.742
16162W        W77528  23.120  40.960  12.966
16163W        W77529  18.655   6.885   4.218
16164W        W77530   3.301   0.917   1.710
16165W        W77531  15.814  18.060  13.514
16166W        W77532  27.535  27.524   3.861
16167W        W77533  18.721  43.469  14.289
16168W        W77534   4.762  15.145   1.849
16169W        W77535   0.932  37.930   3.658
16170W        W77536  25.513  23.133  12.988
16171W        W77537  12.805  22.212  10.530
16172W        W77538  24.074   0.428   9.967
16173W        W77539  11.144  31.532  10.529
16174W        W77540   4.251  44.987   0.817
16175W        W77541   8.725   0.849  11.444
16176W        W77542  10.632  43.384   3.750
16177W        W77543   3.257  30.930   5.727
16178W        W77544  41.023  42.342   0.431
16179W        W77545  26.622   5.287   2.393
16180W        W77546  21.223  28.042  13.330
16181W        W77547  14.758   1.969   3.806
16182W        W77548  43.470   3.954  12.482
16183W        W77549  28.457  35.925  10.953
16184W        W77550  16.243  35.907  12.912
16185W        W77551  16.186  15.797  11.568
16186W        W77552  40.867  23.207   0.742
16187W        W77553  22.164  42.397   0.332
16188W        W77554  31.419  16.227   4.755
16189W        W77555   9.198  41.325  11.974
16190W        W77556   0.476  14.096  11.087
16191W        W77557  15.096   2.290  14.384
16192W        W77558  33.018  39.402   4.154
16193W        W77559  36.856  30.101   4.119
16194W        W77560   4.828  26.627  11.592
16195W        W77561  39.050  41.443  12.081
16196W        W77562  37.507  39.420  14.361
16197W        W77563   4.882  34.106   3.829
16198W        W77564  12.836  15.254   4.696
16199W        W77565  40.396   4.263  11.083
16200W        W77566  25.012   0.949  11.999
16201W        W77567  14.722   2.233   1.749
16202W        W77568  43.469  44.813  14.937
16203W        W77569   1.856  25.568  13.969
16204W        W77570   5.233   5.808   1.714
16205W        W77571   8.733  40.514  13.942
16206W        W77572  30.417  18.224   2.291
16207W        W77573  15.090  14.276   0.752
16208W        W77574  41.947  26.134   4.310
16209W        W77575  20.725  44.961  10.907
16210W        W77576  24.204  42.497  14.962
16211W        W77577  43.901   7.275  13.316
16212W        W77578  37.523  15.656   5.096
16213W        W77579  35.055  25.049  14.790
16214W        W77580  14.123  34.076  13.503
16215W        W77581  29.442  20.627  14.463
16216W        W77582  11.742  28.444  14.006
16217W        W77583  16.807  14.097   3.386
16218W        W77584  24.633  32.079  14.322
16219W        W77585  41.988  23.696   5.150
16220W        W77586  24.690  27.480   5.617
16221W        W77587  16.121  21.145   3.251
16222W        W77588  22.043  21.675   1.702
16223W        W77589  43.880  37.066   4.303
16224W        W77590  31.493   6.299   3.673
16225W        W77591   8.831  18.548  12.977
16226W        W77592  21.605   0.791   4.116
16227W        W77593  36.939  14.623   2.894
16228W        W77594  11.238  17.153  10.622
16229W        W77595   5.725  37.485  13.815
16230W        W77596  32.121  18.254   1.698
16231W        W77597   5.752  36.055   0.938
16232W        W77598   1.820  33.616   1.416
16233W        W77599  39.491  43.818  13.397
16234W        W77600   1.918  40.874   3.291
16235W        W77601  44.981  14.772  13.920
16236W        W77602   0.980  35.002  13.482
16237W        W77603  17.094  23.207   0.244
16238W        W77604   1.810  15.797  10.998
16239W        W77605  14.282  13.737  14.335
16240W        W77606  43.468  30.576   4.323
16241W        W77607  20.591  26.046  14.838
16242W        W77608  19.119  25.655   3.242
16243W        W77609   3.839  35.868   3.764
16244W        W77610  32.047  36.907   4.806
16245W        W77611   3.219  24.610  11.589
16246W        W77612  21.144  35.971  12.878
16247W        W77613  29.634  13.225   5.209
16248W        W77614  40.923  42.823  11.591
16249W        W77615  27.471  13.826   0.437
16250W        W77616   3.421  41.294   2.825
16251W        W77617  19.177  17.258  12.930
16252W        W77618   4.774  28.172   9.956
16253W        W77619  44.308  34.577   3.223
16254W        W77620  31.022   7.202   0.315
16255W        W77621  16.605  33.969  13.925
16256W        W77622  19.154  33.445   4.691
16257W        W77623  22.161  35.003   3.848
16258W        W77624   4.218   5.262  11.877
16259W        W77625   7.794  21.054   3.780
16260W        W77626  42.395  32.041   0.398
16261W        W77627  10.170  36.917   4.145
16262W        W77628  25.546  17.217  10.439
16263W        W77629   9.698  18.179  11.925
16264W        W77630   2.265  39.383   4.793
16265W        W77631  30.002  29.163   2.392
16266W        W77632  40.425  11.183  11.912
16267W        W77633   3.246  18.591  14.366
16268W        W77634  32.522  41.926  11.597
16269W        W77635  18.070  22.095   4.686
16270W        W77636  44.447   6.756  14.772
16271W        W77637   0.764  39.008  13.944
16272W        W77638  41.302  11.224   3.776
16273W        W77639  33.112  22.718  14.506
16274W        W77640  44.889  16.705   1.914
16275W        W77641  29.480   2.460   3.831
16276W        W77642  20.721  39.346   3.253
16277W        W77643   4.235  18.683  12.076
16278W        W77644  14.129  23.238  10.595
16279W        W77645   6.262  15.655   0.836
16280W        W77646  32.984  33.533  13.517
16281W        W77647  28.444  34.612  14.370
16282W        W77648   2.853  38.974   4.781
16283W        W77649  35.520   3.827  11.457
16284W        W77650  26.001  15.191   4.805
16285W        W77651   2.776  17.292  11.501
16286W        W77652   3.424   5.921  13.411
16287W        W77653  13.688  30.496   4.625
16288W        W77654  43.765  14.290   2.769
16289W        W77655   0.904  13.142  10.944
16290W        W77656  14.203  37.512  12.889
16291W        W77657  36.496  24.095  11.882
16292W        W77658  39.992  36.881  14.955
16293W        W77659  36.870   2.403  10.470
16294W        W77660  31.524  21.688  13.444
16295W        W77661  31.508  21.259  13.528
16296W        W77662   7.217  10.633   2.290
16297W        W77663  42.865  29.469   0.951
16298W        W77664  23.688   2.472   5.132
16299W        W77665  14.670  36.552   4.796
16300W        W77666  21.754  16.239  12.455
16301W        W77667   0.843  17.706   4.661
16302W        W77668   6.689  10.336   3.747
16303W        W77669  27.523  34.971   3.737
16304W        W77670  24.625   1.467  11.498
16305W        W77671  15.674  24.109  12.846
16306W        W77672   0.847  15.623   4.332
16307W        W77673  23.491  43.948  14.492
16308W        W77674  18.151  29.558   3.190
16309W        W77675  35.508  15.611   0.828
16310W        W77676  24.485   2.966  10.528
16311W        W77677   5.857   2.786   9.949
16312W        W77678   0.888  19.249   1.336
16313W        W77679  12.678  40.401  12.442
16314W        W77680  17.202  19.651   4.142
16315W        W77681  30.916  31.445  13.379
16316W        W77682  21.624  30.484   3.691
16317W        W77683   3.306  35.446  13.017
16318W        W77684  21.158  26.998   0.873
16319W        W77685  37.564  22.566  14.354
16320W        W77686  12.309   9.337   0.351
16321W        W77687   5.253  21.041  12.823
16322W        W77688  14.197  22.532   3.213
16323W        W77689  25.502  15.759  13.811
16324W        W77690   6.346  24.125   0.925
16325W        W77691  17.133  20.241   3.667
16326W        W77692  17.784  18.250  11.951
16327W        W77693  44.001  25.161   3.842
16328W        W77694  43.805  32.509   3.361
16329W        W77695  41.494  17.307  10.522
16330W        W77696  31.409  30.163  14.776
16331W        W77697  23.132   4.747   2.898
16332W        W77698  24.613  38.365   0.268
16333W        W77699  33.413  21.230  11.069
16334W        W77700  28.067  18.558   2.805
16335W        W77701  34.979  29.575   3.369
16336W        W77702  13.788  27.065   1.221
16337W        W77703  41.988  23.148   2.811
16338W        W77704   8.334  30.041  14.343
16339W        W77705  14.767  29.929  12.382
16340W        W77706  34.609  12.708  13.917
16341W        W77707  15.209   2.802  13.968
16342W        W77708  23.699  43.342  13.878
16343W        W77709  33.068  18.296  14.335
16344W        W77710  24.655  16.761  13.337
16345W        W77711  30.534  30.029  12.513
16346W        W77712  32.053  29.625   1.228
16347W        W77713  23.680   2.269   1.219
16348W        W77714  21.592   5.261  10.024
16349W        W77715  30.507  32.480   3.246
16350W        W77716  40.537  36.388   0.895
16351W        W77717  31.963  30.487   5.114
16352W        W77718  29.926  34.551  10.982
16353W        W77719  24.610  37.959   1.774
16354W        W77720  14.664  38.928  13.837
16355W        W77721  26.659  29.604   5.274
16356W        W77722  29.055  27.625  13.028
16357W        W77723  22.192  19.678   2.789
16358W        W77724  12.339  16.622  13.407
16359W        W77725  19.658   7.259   4.784
16360W        W77726   7.199   0.369  12.484
16361W        W77727   2.375  41.936   4.282
16362W        W77728  11.256   2.738  13.832
16363W        W77729  13.306   0.315   3.179
16364W        W77730  44.491  30.599  12.457
16365W        W77731  30.602  28.511  11.430
16366W        W77732  19.565  13.661  11.089
16367W        W77733  40.945  38.436  12.067
16368W        W77734  38.342  16.793  12.946
16369W        W77735   8.269  33.953   0.773
16370W        W77736  40.962  40.868  11.410
16371W        W77737  16.282  17.219   1.907
16372W        W77738  27.092  25.206  12.886
16373W        W77739   1.453  27.946  12.417
16374W        W77740  12.688  14.253  13.934
16375W        W77741  40.397  13.197  12.956
16376W        W77742  20.202  42.371   1.288
16377W        W77743  19.080  32.946  13.986
16378W        W77744  31.143  10.664  13.883
16379W        W77745  15.733  42.956  10.974
16380W        W77746  25.607   9.704  14.492
16381W        W77747  10.642  18.125   1.344
16382W        W77748  35.592  16.166   2.807
16383W        W77749  25.175  15.090   3.264
16384W        W77750  19.608  12.693  13.531
16385W        W77751  17.181  19.756  10.046
16386W        W77752  12.799  25.541   1.918
16387W        W77753  39.328   9.388  11.989
16388W        W77754  38.561  16.780  10.634
16389W        W77755  40.350  21.675   0.931
16390W        W77756   3.813  36.869  10.904
16391W        W77757   2.954  14.109   0.874
16392W        W77758   5.710  16.727   0.369
16393W        W77759   4.790  44.290  14.316
16394W        W77760  42.462  35.913  11.897
16395W        W77761  23.216   2.935  12.069
16396W        W77762  29.628  22.032   2.409
16397W        W77763  10.851  19.728  12.050
16398W        W77764   1.745  44.810   2.823
16399W        W77765  20.213  32.614   3.633
16400W        W77766  14.259  30.548  11.449
16401W        W77767  40.505   5.241  14.451
16402W        W77768  14.280  27.616  10.099
16403W        W77769  35.425  13.681  11.879
16404W        W77770   1.261   5.325  11.906
16405W        W77771   1.952   1.407  14.301
16406W        W77772   6.792  30.445   3.226
16407W        W77773  10.181   7.849  11.077
16408W        W77774  25.094  36.365  10.994
16409W        W77775   0.915  26.147  12.425
16410W        W77776  38.425  12.786  12.340
16411W        W77777  18.617   7.308  12.047
16412W        W77778  34.479  37.936  14.313
16413W        W77779   3.938  13.705   9.638
16414W        W77780  27.452   5.815  11.971
16415W        W77781   0.423   4.250   0.251
16416W        W77782  14.099  41.469  11.446
16417W        W77783   7.669  38.060   4.774
16418W        W77784  29.502   2.750   1.271
16419W        W77785   6.763  35.088  13.337
16420W        W77786  43.405  36.561   2.192
16421W        W77787  44.268  12.810  14.459
16422W        W77788  21.727   0.438  11.532
16423W        W77789   1.337  29.921  13.470
16424W        W77790   5.834  14.626   0.312
16425W        W77791  14.182  21.547  14.775
16426W        W77792  38.987   9.758   0.354
16427W        W77793   6.398  23.985   3.720
16428W        W77794  13.202  40.877  11.083
16429W        W77795   5.376  23.013   2.298
16430W        W77796  15.620  41.040  11.489
16431W        W77797  43.800  17.592   0.246
16432W        W77798  23.539   8.780   3.849
16433W        W77799  30.989  43.343   3.675
16434W        W77800  36.479  35.109  11.008
16435W        W77801  38.462  10.672   0.793
16436W        W77802  38.987  27.500   3.814
16437W        W77803   6.362  33.472   3.226
16438W        W77804  25.667   9.217  14.887
16439W        W77805  25.120  10.779   3.213
16440W        W77806  44.464  36.011   2.781
16441W        W77807  44.290  30.969   0.959
16442W        W77808  44.914  30.122  12.913
16443W        W77809  28.097  42.352  12.975
16444W        W77810  33.512  37.946  13.522
16445W        W77811  43.501  25.093  12.377
16446W        W77812  17.697   8.656  14.823
16447W        W77813  37.553  33.987  13.825
16448W        W77814  13.180   6.698  14.780
16449W        W77815  26.964  43.856  14.420
16450W        W77816   5.335  11.737  14.287
16451W        W77817  31.544  38.908  12.959
16452W        W77818  21.249  37.962   3.276
16453W        W77819  14.213  34.592   4.351
16454W        W77820  41.879  38.020  10.618
16455W        W77821   0.899  14.797  13.797
16456W        W77822  28.635  34.003   3.239
16457W        W77823  43.002   2.756  14.446
16458W        W77824  12.699  22.538  11.935
16459W        W77825  10.822  14.696  14.435
16460W        W77826  42.319   5.278  12.054
16461W        W77827  10.841  13.795  12.828
16462W        W77828  29.960  41.817   4.350
16463W        W77829  20.231   8.815   2.283
16464W        W77830  40.907  28.578   0.259
16465W        W77831  29.617  18.116   4.738
16466W        W77832  16.715  22.168  13.425
16467W        W77833  28.159  19.591   4.334
16468W        W77834  37.955  13.126   0.913
16469W        W77835  44.429  40.308  12.070
16470W        W77836   1.909  36.364   0.763
16471W        W77837  44.805  10.766  12.825
16472W        W77838  38.426   7.252   0.804
16473W        W77839  33.080  43.976   0.475
16474W        W77840  33.606  35.887   2.303
16475W        W77841  33.561  31.109   5.155
16476W        W77842  42.316  22.176  14.934
16477W        W77843  34.376  30.621  11.465
16478W        W77844   4.726  20.720  13.434
16479W        W77845   6.241   6.244   2.359
16480W        W77846  29.934  27.941   3.274
16481W        W77847   5.776  18.136  10.946
16482W        W77848  19.102  35.444  12.376
16483W        W77849   2.752  41.396  11.436
16484W        W77850  21.221  39.537   1.358
16485W        W77851  13.732   4.800  11.450
16486W        W77852  37.554  21.074   2.208
16487W        W77853   8.881  36.403   1.228
16488W        W77854  19.103   8.672   3.653
16489W        W77855  26.648  35.010   3.734
16490W        W77856   6.248  32.012  12.913
16491W        W77857  41.994   4.885   4.726
16492W        W77858  33.462  42.918   4.332
16493W        W77859  17.691   6.383   2.318
16494W        W77860  28.132  36.976  14.376
16495W        W77861  43.007  18.089   4.129
16496W        W77862   9.216  28.019  14.903
16497W        W77863   5.691   4.444  13.311
16498W        W77864  26.040  14.177   3.281
16499W        W77865  21.077  34.933  14.879
16500W        W77866  26.195   7.907   4.790
16501W        W77867  20.587  10.686   1.409
16502W        W77868  19.755  14.311   0.267
16503W        W77869  31.959  42.379  11.873
16504W        W77870  25.068   7.777  14.329
16505W        W77871  28.640  30.511   4.752
16506W        W77872  24.577  14.628   0.888
16507W        W77873  41.026   9.720   3.387
16508W        W77874   6.746  16.773  14.363
16509W        W77875  41.388   4.767   1.838
16510W        W77876  29.601  25.210  14.759
16511W        W77877  38.470  24.003   3.276
16512W        W77878   3.821  26.967  14.015
16513W        W77879  40.420  27.148   2.704
16514W        W77880  28.502   2.875  11.047
16515W        W77881   2.883   1.858  13.880
16516W        W77882  17.130  25.541  11.500
16517W        W77883  30.930  30.002   3.235
16518W        W77884   2.923  19.121  11.522
16519W        W77885  19.050   7.199  10.545
16520W        W77886  37.008  11.655  14.989
16521W        W77887  13.639  36.478   4.644
16522W        W77888   3.823   3.768  14.938
16523W        W77889  21.145  38.067   3.691
16524W        W77890   8.243  15.163  12.456
16525W        W77891  12.826  15.182  13.985
16526W        W77892  31.637  15.750   0.281
16527W        W77893  36.075   3.287  12.057
16528W        W77894   8.900  19.121  10.612
16529W        W77895  25.175  38.853  12.001
16530W        W77896  41.968   8.283   0.361
16531W        W77897  26.081  34.104  12.019
16532W        W77898  28.005  33.416   2.295
16533W        W77899  33.623  33.385  12.528
16534W        W77900   3.828  28.952  11.959
16535W        W77901  37.978  25.603   2.198
16536W        W77902  39.873  23.030   4.152
16537W        W77903  29.650   6.883   4.187
16538W        W77904  17.163  21.735   2.708
16539W        W77905   1.471  39.498   0.257
16540W        W77906  44.421  29.596  10.952
16541W        W77907   5.772  42.352   3.819
16542W        W77908   1.802  17.652   4.616
16543W        W77909  38.930  22.503   1.243
16544W        W77910  44.909  32.963  14.991
16545W        W77911  31.448  31.945   1.772
16546W        W77912  20.716  38.338   1.879
16547W        W77913  39.390  20.132  11.408
16548W        W77914   2.388  15.297  13.009
16549W        W77915  39.411  44.010  11.375
16550W        W77916  26.525   5.438  13.327
16551W        W77917  12.791   2.914  13.445
16552W        W77918  15.322  20.651   2.355
16553W        W77919  16.738  33.446   0.839
16554W        W77920  35.936  18.650  11.986
16555W        W77921   1.340  43.498   1.300
16556W        W77922  15.820  43.979   3.209
16557W        W77923  32.991   7.218  14.847
16558W        W77924  15.789   4.716  11.871
16559W        W77925   8.684  35.410   0.935
16560W        W77926  10.852   1.241   1.351
16561W        W77927  20.247  28.104  11.066
16562W        W77928  38.937  20.226   3.735
16563W        W77929  30.460  37.056  12.384
16564W        W77930  24.154  29.994  13.536
16565W        W77931  38.431  34.500  10.415
16566W        W77932  28.052  36.859   1.795
16567W        W77933   2.362  42.468  14.280
16568W        W77934  29.626  28.932   3.233
16569W        W77935  20.197  31.600   1.266
16570W        W77936  42.341  27.103   1.402
16571W        W77937  23.589  12.154   1.851
16572W        W77938  26.184  41.530   4.186
16573W        W77939  21.726  10.264   4.293
16574W        W77940  43.840   4.705  13.362
16575W        W77941  22.147  18.676   4.631
16576W        W77942  36.481  10.736  13.471
16577W        W77943  40.052  28.575  13.372
16578W        W77944  27.614  39.324  10.922
16579W        W77945   2.865  10.719  12.021
16580W        W77946  14.238  37.490   2.701
16581W        W77947  27.085   5.222  13.000
16582W        W77948   4.393   3.256   0.948
16583W        W77949  17.770  30.466  13.848
16584W        W77950   6.887  13.294   4.293
16585W        W77951  18.665  10.160   4.830
16586W        W77952  31.897  42.298   1.897
16587W        W77953  24.718   8.885   2.670
16588W        W77954  24.008  28.532   3.708
16589W        W77955   9.249   0.812   0.440
16590W        W77956   4.321  36.452  12.057
16591W        W77957  11.141   1.934  14.970
16592W        W77958  29.513  19.553   5.185
16593W        W77959  31.972  14.705   5.240
16594W        W77960  23.643  40.419   0.863
16595W        W77961  33.016  20.758  12.025
16596W        W77962  23.173  14.618  13.358
16597W        W77963  24.570  23.538   1.860
16598W        W77964  10.284  13.163   4.240
16599W        W77965  14.697  32.958  14.833
16600W        W77966  34.403   1.402   4.772
16601W        W77967  40.039  25.976  11.438
16602W        W77968  26.509  40.316   3.264
16603W        W77969  35.902  16.316  12.527
16604W        W77970   9.865  25.968   3.288
16605W        W77971   9.704  33.044   3.387
16606W        W77972   3.433  15.316  12.075
16607W        W77973  37.944  15.806   1.372
16608W        W77974  33.461  32.989  10.477
16609W        W77975   7.677  20.162   1.292
16610W        W77976  19.636  26.544   5.255
16611W        W77977  39.526   0.781  10.529
16612W        W77978  33.612  43.938  13.802
16613W        W77979  32.943  41.895  12.412
16614W        W77980  23.660  19.728  12.496
16615W        W77981   7.232  44.466   2.359
16616W        W77982  41.887  43.954  12.551
16617W        W77983   7.312  13.187  13.879
16618W        W77984  26.114  33.389  14.875
16619W        W77985  18.782  44.271   3.684
16620W        W77986  13.739  30.093   9.960
16621W        W77987   2.342  44.328  13.968
16622W        W77988   2.760  32.491   1.350
16623W        W77989   3.730   3.277   3.302
16624W        W77990  36.358  27.557   1.903
16625W        W77991  32.515  31.972  10.628
16626W        W77992  14.237  40.439  10.625
16627W        W77993  40.357  37.852  12.936
16628W        W77994   7.777   6.189  14.387
16629W        W77995   8.307  31.587  12.944
16630W        W77996  14.666  16.779  13.971
16631W        W77997  24.718  42.802  10.954
16632W        W77998  38.388  40.436  12.839
16633W        W77999  44.770  22.635   1.839
16634W        W78000  32.886  29.151  12.860
16635W        W78001   0.794  38.383   1.405
16636W        W78002  19.252  36.577  12.829
16637W        W78003  37.560  42.493  12.345
16638W        W78004   6.239  26.118   4.727
16639W        W78005  11.265  24.483   3.156
16640W        W78006  42.844  16.617   3.729
16641W        W78007  28.951   2.843   1.238
16642W        W78008  10.338   6.291   0.886
16643W        W78009   6.329   0.909   5.237
16644W        W78010  20.711  32.059   1.382
16645W        W78011  21.223  13.159   3.729
16646W        W78012  19.711  15.596  14.775
16647W        W78013  20.219  16.250   0.886
16648W        W78014  40.501  33.577  13.345
16649W        W78015  24.493  27.081   5.127
16650W        W78016  42.857   0.458  14.977
16651W        W78017  24.067  14.166   4.772
16652W        W78018  22.739  36.955   0.954
16653W        W78019  39.026  40.541  11.065
16654W        W78020  16.316  21.040  13.800
16655W        W78021  34.443  38.335  14.309
16656W        W78022  36.913   6.396   2.675
16657W        W78023  25.472  16.072   2.784
16658W        W78024   0.422   6.294  10.584
16659W        W78025  43.489  16.143  12.086
16660W        W78026   3.391   9.885   4.675
16661W        W78027  16.213  41.488   2.286
16662W        W78028  12.156  10.866  12.491
16663W        W78029  41.421  14.204  10.946
16664W        W78030  11.658   6.860   4.237
16665W        W78031  25.075  26.642   3.217
16666W        W78032   0.936   8.863   0.396
16667W        W78033  19.177  10.871   1.333
16668W        W78034  30.050  27.127   4.174
16669W        W78035  20.538  30.451  13.941
16670W        W78036   9.801  17.656   0.800
16671W        W78037  41.515  15.255   0.415
16672W        W78038   8.822  35.878   1.782
16673W        W78039  18.288   4.744  12.870
16674W        W78040  15.235  27.060  13.508
16675W        W78041  41.036  12.194   4.221
16676W        W78042  30.913   0.402   4.263
16677W        W78043  30.114  39.375  13.011
16678W        W78044  42.287  10.764  12.039
16679W        W78045   1.335  11.265  13.903
16680W        W78046   6.323  34.600  10.493
16681W        W78047  35.920  10.715   0.856
16682W        W78048  32.043   5.360  10.423
16683W        W78049  12.220  36.437  10.976
16684W        W78050  34.553  10.846   2.220
16685W        W78051   2.854   2.830  10.413
16686W        W78052  11.165  11.762   3.356
16687W        W78053   1.926  43.458   3.290
16688W        W78054  34.461  17.599  11.482
16689W        W78055  32.482  12.229   2.212
16690W        W78056  23.033  32.504   2.784
16691W        W78057  10.646  42.492   2.847
16692W        W78058  16.137  44.988  13.966
16693W        W78059   9.835  35.602  14.945
16694W        W78060  33.081   3.267   5.207
16695W        W78061  27.487  43.368  11.971
16696W        W78062   0.315   7.863   2.331
16697W        W78063  27.663  26.046   2.364
16698W        W78064  14.595  14.189  12.569
16699W        W78065   8.370  17.721  11.454
16700W        W78066  42.504  18.186   2.247
16701W        W78067  31.623  21.264  13.818
16702W        W78068  33.959  33.083  11.888
16703W        W78069   7.380  43.304  14.866
16704W        W78070  41.932  41.476  14.402
16705W        W78071   1.753  22.105  11.543
16706W        W78072  29.063  19.722  13.393
16707W        W78073  41.841  23.567  10.528
16708W        W78074  32.480   4.313   2.672
16709W        W78075  44.846  11.709   1.236
16710W        W78076   1.433   9.765  11.036
16711W        W78077  25.691  40.815   4.607
16712W        W78078  23.640  27.131  10.581
16713W        W78079  19.140  43.310  12.071
16714W        W78080   8.789  40.870  12.825
16715W        W78081  26.030  14.829   0.387
16716W        W78082  24.570  24.081  13.416
16717W        W78083  11.742  40.366  11.561
16718W        W78084   8.805  36.524   3.271
16719W        W78085   7.376   4.731  13.531
16720W        W78086  29.423   6.287  11.575
16721W        W78087  10.158  28.014  14.348
16722W        W78088   6.810  21.130   3.167
16723W        W78089  35.428  43.777  11.529
16724W        W78090   4.848   4.768  13.337
16725W        W78091   7.874  22.660   1.920
16726W        W78092  16.652  30.489  14.423
16727W        W78093  37.922  41.814   4.798
16728W        W78094  12.813  29.489  12.991
16729W        W78095   6.316  20.674   2.275
16730W        W78096   4.734  23.501   2.266
16731W        W78097  37.838  15.186   3.157
16732W        W78098  36.879  15.600   4.682
16733W        W78099  20.532   7.799   1.717
16734W        W78100   0.961  20.659   1.427
16735W        W78101  28.573  16.678  13.421
16736W        W78102   6.428   5.228   1.262
16737W        W78103  30.980  28.620   1.903
16738W        W78104  15.268  18.691  10.406
16739W        W78105  26.089  12.281  12.867
16740W        W78106  26.669  21.162  14.965
16741W        W78107  14.610  10.292  14.478
16742W        W78108   4.933   7.850   2.187
16743W        W78109   4.833  32.141  11.863
16744W        W78110  25.026  26.522   0.939
16745W        W78111  12.211  36.529   0.350
16746W        W78112  13.169   6.899   1.891
16747W        W78113  28.540  41.294  11.869
16748W        W78114  44.327  15.691   2.747
16749W        W78115  36.592   0.929   4.271
16750W        W78116  44.443  31.090  14.975
16751W        W78117   8.757  43.893  13.979
16752W        W78118  12.809  12.816   0.254
16753W        W78119  36.976  18.216  13.506
16754W        W78120   4.416  24.636  12.002
16755W        W78121   7.180   7.671   3.303
16756W        W78122  25.703  44.985  11.580
16757W        W78123  10.259  40.832   4.686
16758W        W78124  17.681   1.906  12.943
16759W        W78125  13.184  18.188   1.431
16760W        W78126  35.401  12.263  11.879
16761W        W78127  35.575  14.617  14.292
16762W        W78128  39.946  42.013  12.069
16763W        W78129  10.282  15.097   5.134
16764W        W78130  10.274   9.735   3.717
16765W        W78131  14.632  30.620   0.730
16766W        W78132  25.031  12.749  13.388
16767W        W78133  24.539  41.467  13.831
16768W        W78134  21.596  16.138   2.763
16769W        W78135  41.525  16.673   3.250
16770W        W78136   2.272  41.432   1.241
16771W        W78137   1.765   3.908   1.735
16772W        W78138  40.426  32.439   2.277
16773W        W78139  16.287  37.008   2.257
16774W        W78140  42.934  43.931  12.455
16775W        W78141  28.959  36.069  10.622
16776W        W78142  14.190  42.907  12.886
16777W        W78143   3.433  40.020   9.955
16778W        W78144  13.334  26.456   0.435
16779W        W78145   3.842   7.822   2.261
16780W        W78146  39.414  21.624   3.242
16781W        W78147  24.601  33.002   2.810
16782W        W78148  32.917   7.288  14.278
16783W        W78149  26.675  26.554  10.137
16784W        W78150  37.898  32.958   1.724
16785W        W78151  28.993  35.408  14.026
16786W        W78152  12.313  27.027  13.997
16787W        W78153  33.010  20.137   1.340
16788W        W78154   8.882   7.774   4.624
16789W        W78155  34.398   7.816  13.974
16790W        W78156  25.470  23.170   4.633
16791W        W78157  37.020  21.568  10.565
16792W        W78158  24.510  24.126  10.576
16793W        W78159  33.607  39.051   4.339
16794W        W78160  14.177  16.711   3.335
16795W        W78161  20.066  28.068  12.349
16796W        W78162   6.727   5.781  14.882
16797W        W78163   5.920  27.151   3.821
16798W        W78164  41.517  13.694   0.953
16799W        W78165   9.357  43.924  10.623
16800W        W78166  21.197  19.584  10.467
16801W        W78167  15.277  11.249   4.835
16802W        W78168  10.809  36.574  10.904
16803W        W78169  36.899   2.834   3.656
16804W        W78170  29.580  37.848  11.977
16805W        W78171   7.326  23.508  12.845
16806W        W78172  23.034   8.673   3.273
16807W        W78173  43.847   7.329  13.824
16808W        W78174  43.852  38.907  14.971
16809W        W78175  41.900  43.418   0.439
16810W        W78176   4.381  37.884   1.887
16811W        W78177  11.675  34.375  10.499
16812W        W78178  24.624   7.386   0.964
16813W        W78179  15.134  15.126  12.953
16814W        W78180   4.884  40.918   4.715
16815W        W78181  18.590  19.535  11.420
16816W        W78182   4.782  28.640   4.161
16817W        W78183  26.636   0.304   2.795
16818W        W78184  10.281  32.932  10.968
16819W        W78185  26.626  42.811  11.047
16820W        W78186   0.279  10.723   0.955
16821W        W78187  12.335   2.733  12.452
16822W        W78188  35.558  43.880   9.992
16823W        W78189   0.424  26.030   2.700
16824W        W78190  34.533   5.349   4.191
16825W        W78191  42.859  34.393  13.338
16826W        W78192  24.049  21.577   1.759
16827W        W78193   1.263  35.514   3.757
16828W        W78194  18.162  10.313   2.866
16829W        W78195  30.434   6.732   2.244
16830W        W78196   2.315   1.785   3.199
16831W        W78197  24.606  13.706   2.706
16832W        W78198  24.642   9.278   1.263
16833W        W78199  25.580  14.163   2.878
16834W        W78200  32.449  38.994  11.035
16835W        W78201  38.457  28.130  14.809
16836W        W78202  42.343  18.739   1.375
16837W        W78203  17.194  10.344  14.334
16838W        W78204  18.568   6.295  13.307
16839W        W78205  35.894  33.070  10.957
16840W        W78206  37.948  25.005  11.555
16841W        W78207  35.029  38.498   1.735
16842W        W78208  30.512  38.867   3.702
16843W        W78209   1.345  28.534  13.518
16844W        W78210  36.355  26.207   2.753
16845W        W78211  14.721  19.280  14.880
16846W        W78212  14.131   7.714   3.794
16847W        W78213  42.791  14.327   4.284
16848W        W78214   4.388  29.455   0.312
16849W        W78215  10.855   9.771   4.190
16850W        W78216  18.642  32.978  12.404
16851W        W78217  38.965  15.795  11.979
16852W        W78218   9.779  16.113   2.845
16853W        W78219  29.067  15.220  12.423
16854W        W78220  34.934  13.269  11.083
16855W        W78221  41.356   8.293  11.121
16856W        W78222   5.325  37.921   4.309
16857W        W78223  28.615  42.525   0.306
16858W        W78224  24.053   9.732   1.318
16859W        W78225  23.007  26.192   1.818
16860W        W78226   0.475  36.561   3.837
16861W        W78227  37.433  37.977   4.299
16862W        W78228  36.412  23.614   1.398
16863W        W78229  27.172   4.209  12.441
16864W        W78230  26.029  42.995  10.940
16865W        W78231   9.759   1.967  14.352
16866W        W78232  34.100  11.639  10.607
16867W        W78233  22.198  17.175   1.434
16868W        W78234  13.600  13.746  11.037
16869W        W78235  24.641   8.891   0.763
16870W        W78236  21.221  42.403  14.505
16871W        W78237  27.671  39.938   0.284
16872W        W78238  14.724  39.947  13.506
16873W        W78239  28.980  39.480   4.619
16874W        W78240  33.593  26.192  12.998
16875W        W78241   6.393  33.529   1.305
16876W        W78242   8.225   4.834   5.241
16877W        W78243   2.730  15.646  11.108
16878W        W78244   5.302  37.017  12.348
16879W        W78245  25.175  25.161  11.913
16880W        W78246  11.818  22.188   2.337
16881W        W78247   2.250  31.484   3.180
16882W        W78248  25.997   8.794   3.291
16883W        W78249  15.719  41.522   1.351
16884W        W78250  19.735  13.329  10.949
16885W        W78251  28.629   5.435   3.190
16886W        W78252   6.892  44.331  14.863
16887W        W78253   1.390  11.697   4.774
16888W        W78254   5.893   1.837  11.612
16889W        W78255  18.616  21.126  12.010
16890W        W78256  31.116  10.141   4.250
16891W        W78257  38.520  40.322  14.878
16892W        W78258  19.724  41.923   3.734
16893W        W78259  30.550   4.205   4.184
16894W        W78260  43.779  43.303   2.756
16895W        W78261  44.420   3.847   3.833
16896W        W78262  34.110  10.276  12.539
16897W        W78263  41.426   2.400   3.208
16898W        W78264   4.394  38.369  10.564
16899W        W78265   9.275  25.977  12.949
16900W        W78266  25.578  11.300  13.366
16901W        W78267  31.076   3.243  10.584
16902W        W78268  38.419  28.519   1.372
16903W        W78269  34.505  12.818  11.120
16904W        W78270  12.304  36.894   4.129
16905W        W78271  13.226  13.693   1.847
16906W        W78272   2.857  21.579  14.012
16907W        W78273  22.578  21.022  13.912
16908W        W78274  22.747  24.557  13.867
16909W        W78275  40.504  21.678  11.426
16910W        W78276  29.495  28.988  10.993
16911W        W78277  14.613  43.369  13.017
16912W        W78278  13.668  34.064   2.728
16913W        W78279  39.057  36.084   5.261
16914W        W78280  16.091  42.822   3.716
16915W        W78281  39.951  12.673  14.465
16916W        W78282   9.307  15.207  12.458
16917W        W78283   4.411  35.874  10.610
16918W        W78284   8.728  43.978   0.781
16919W        W78285  22.518  33.891   0.459
16920W        W78286  13.803  28.056  13.017
16921W        W78287   0.773  19.741  12.894
16922W        W78288   1.886   2.776  11.960
16923W        W78289  43.291  35.092   3.314
16924W        W78290  32.569  12.357  13.975
16925W        W78291  41.322  21.532  14.937
16926W        W78292   8.386  15.239  14.484
16927W        W78293  27.514  35.912  14.510
16928W        W78294  19.136  16.275  11.943
16929W        W78295  35.364  38.860   0.442
16930W        W78296  27.501  33.974  11.047
16931W        W78297  32.454  29.082  13.872
16932W        W78298   4.207  11.758  11.898
16933W        W78299  41.821   0.271   0.260
16934W        W78300  34.040  39.410   9.655
16935W        W78301  23.630   2.892   3.163
16936W        W78302  39.823  16.723  13.812
16937W        W78303  12.842  43.994  14.394
16938W        W78304   2.964  13.161   4.618
16939W        W78305  32.554  23.206   1.845
16940W        W78306  37.362  43.774   3.663
16941W        W78307  30.042  41.020  12.515
16942W        W78308  19.285   9.872   4.602
16943W        W78309  28.167  42.924   5.096
16944W        W78310  25.536  28.654  13.481
16945W        W78311  25.031   9.792  11.897
16946W        W78312   9.827  31.427   3.759
16947W        W78313  40.925  35.377   3.648
16948W        W78314  17.682  29.667  12.999
16949W        W78315  14.260  16.646  12.014
16950W        W78316  28.437  23.689   0.865
16951W        W78317   8.165  40.893  11.435
16952W        W78318  30.497  37.513   1.442
16953W        W78319  12.145  24.025  10.988
16954W        W78320  14.763  44.822  13.320
16955W        W78321  39.873  22.521   3.154
16956W        W78322  19.643  20.085  13.905
16957W        W78323   7.853  31.065  11.025
16958W        W78324  24.977  14.189  10.501
16959W        W78325  10.235   3.803   0.352
16960W        W78326  10.176  25.139   2.340
16961W        W78327  26.466  34.047  13.839
16962W        W78328  21.645  19.196  14.963
16963W        W78329   8.710  34.401   1.384
16964W        W78330  16.184  21.055   4.669
16965W        W78331  29.623  28.034  14.892
16966W        W78332  33.530  35.487   1.734
16967W        W78333   1.240   9.814   2.851
16968W        W78334  19.099  12.795   0.895
16969W        W78335  33.000  40.427   3.635
16970W        W78336   5.220  36.916  10.590
16971W        W78337  42.406   0.358  10.487
16972W        W78338  40.424   3.779  13.546
16973W        W78339  42.981   6.320  13.038
16974W        W78340  44.412   1.243   3.340
16975W        W78341  22.500  27.673  13.414
16976W        W78342   4.208   7.782  14.346
16977W        W78343  30.154  37.530   4.751
16978W        W78344  13.148  10.651  13.406
16979W        W78345  36.949  13.285  10.483
16980W        W78346  10.844  25.695  13.022
16981W        W78347  15.241  17.557   1.828
16982W        W78348  36.025  14.734   2.901
16983W        W78349   5.728   1.964  10.014
16984W        W78350  31.955  38.904  12.930
16985W        W78351  37.861  37.041  14.306
16986W        W78352  35.881  24.691  11.010
16987W        W78353  27.090   4.212  10.919
16988W        W78354  44.336  14.733   0.966
16989W        W78355  27.092  35.379  13.375
16990W        W78356   9.855   9.367  13.936
16991W        W78357  24.072  15.221   4.809
16992W        W78358  12.259  38.440  12.551
16993W        W78359   6.685  17.115   2.187
16994W        W78360   8.322   0.339  12.949
16995W        W78361  34.089  39.824  13.325
16996W        W78362  20.144  32.601   4.305
16997W        W78363  32.476   1.814   1.896
16998W        W78364  42.872  23.571  14.969
16999W        W78365   9.321  31.626  10.412
17000W        W78366  38.559  35.086  12.908
17001W        W78367  23.562  37.024  11.609
17002W        W78368   4.425  13.822  12.347
17003W        W78369  34.491  22.685  13.312
17004W        W78370  17.652  31.427   2.372
17005W        W78371  22.012  25.992  12.511
17006W        W78372  34.514  40.369   3.685
17007W        W78373  27.462   9.322  10.912
17008W        W78374  26.521   0.369  10.104
17009W        W78375  11.828  25.058  14.356
17010W        W78376   7.209  26.118   1.848
17011W        W78377  39.912  35.976  13.421
17012W        W78378   0.977  37.353  13.899
17013W        W78379  20.114  39.978   3.355
17014W        W78380   3.903  43.481  13.003
17015W        W78381  21.568   5.248  12.897
17016W        W78382  30.073  12.699   2.219
17017W        W78383  24.188   4.261   5.098
17018W        W78384  31.499   5.730  12.392
17019W        W78385  39.974  19.577   1.731
17020W        W78386  19.721  32.425  10.607
17021W        W78387   0.745  26.539  11.942
17022W        W78388   5.311  41.316   1.881
17023W        W78389  38.495  42.894  14.475
17024W        W78390   5.932  17.158  12.500
17025W        W78391  17.267  43.439  12.937
17026W        W78392   0.911  32.536   0.341
17027W        W78393  31.956   2.853  12.892
17028W        W78394  32.577   3.352   3.315
17029W        W78395  33.898  43.485   3.348
17030W        W78396  20.745  29.008  11.045
17031W        W78397  32.045  41.986   1.213
17032W        W78398  25.595   5.221   4.639
17033W        W78399  26.134  16.122   1.767
17034W        W78400  35.011  26.109  11.863
17035W        W78401  17.764  43.817  10.631
17036W        W78402  28.473   1.425   1.757
17037W        W78403   6.221   3.276   2.418
17038W        W78404  17.136   5.305  13.050
17039W        W78405  41.988  28.052  12.543
17040W        W78406  37.501   2.903  13.464
17041W        W78407  32.008   6.824   0.871
17042W        W78408  18.077  28.942   0.433
17043W        W78409  35.859  16.778  11.886
17044W        W78410  38.996  43.819   1.353
17045W        W78411  43.904  26.042   1.703
17046W        W78412  30.102  14.746   3.645
17047W        W78413   8.351   5.277   4.253
17048W        W78414  10.762  43.396  12.007
17049W        W78415   9.230  22.063   1.243
17050W        W78416   6.420   5.230   3.364
17051W        W78417  30.608  10.815  13.937
17052W        W78418  23.238  37.457   0.465
17053W        W78419   8.377   9.346  12.883
17054W        W78420   7.290  17.613   0.458
17055W        W78421  10.350  20.138   5.215
17056W        W78422  20.542  42.786  14.515
17057W        W78423  35.101  19.094   3.703
17058W        W78424  22.082  33.578  11.430
17059W        W78425  26.566   3.934   1.348
17060W        W78426  28.971  27.092  13.860
17061W        W78427   4.415  41.334  14.820
17062W        W78428  12.740   3.273   5.142
17063W        W78429  44.921  29.040   4.284
17064W        W78430  14.669   0.263  13.542
17065W        W78431  34.423   8.268  11.382
17066W        W78432  10.823  12.669  13.834
17067W        W78433  39.323  29.482   1.789
17068W        W78434   7.751   9.312   3.175
17069W        W78435   6.827   4.334   1.313
17070W        W78436  22.672  35.463  12.011
17071W        W78437  41.413  14.605   2.418
17072W        W78438  14.236  18.207   4.145
17073W        W78439  29.632  24.104  10.429
17074W        W78440  15.650   8.754  11.580
17075W        W78441   8.828  22.181  14.783
17076W        W78442  16.298  15.613   0.927
17077W        W78443  23.699  12.798  14.475
17078W        W78444   9.389  36.462   0.837
17079W        W78445   5.705  44.360   0.420
17080W        W78446  20.197   0.941   4.259
17081W        W78447   3.838  43.486  13.332
17082W        W78448  30.975   1.292   2.743
17083W        W78449  30.947  20.717   0.267
17084W        W78450  24.679  19.773   0.833
17085W        W78451  29.124  29.445   4.746
17086W        W78452  27.010  26.982   3.678
17087W        W78453  17.616  32.537  14.020
17088W        W78454  10.173   9.240   2.787
17089W        W78455  12.139  17.265  12.479
17090W        W78456   1.826  38.407  14.459
17091W        W78457   9.684  23.571   0.912
17092W        W78458  35.015  20.192  12.550
17093W        W78459  17.139  22.719   3.253
17094W        W78460   9.749   9.808  14.862
17095W        W78461   0.438  16.742   3.164
17096W        W78462   6.699  32.024   4.828
17097W        W78463  29.559   3.766   2.233
17098W        W78464  34.611   7.808  14.411
17099W        W78465  27.512  38.880  14.801
17100W        W78466  34.390  25.574   0.918
17101W        W78467  18.688  38.914  11.568
17102W        W78468  31.107  19.138  10.894
17103W        W78469  36.378   0.415  10.962
17104W        W78470  12.676  18.282   2.180
17105W        W78471  34.532  41.814   0.938
17106W        W78472  37.085  26.551  13.548
17107W        W78473  43.952   7.861  13.327
17108W        W78474  25.983  38.001  12.946
17109W        W78475  32.391   7.333   3.280
17110W        W78476  26.476  20.532   0.364
17111W        W78477  16.083  27.140  10.993
17112W        W78478  21.154  32.586   5.284
17113W        W78479  13.677  21.148   3.823
17114W        W78480  24.089  30.083   0.844
17115W        W78481  41.041  41.028  12.928
17116W        W78482  40.906   8.687   0.267
17117W        W78483  16.286  37.039   3.825
17118W        W78484   9.804  26.049  14.923
17119W        W78485  29.564  44.298   5.198
17120W        W78486  13.323  43.895   1.704
17121W        W78487  28.072  36.053  11.979
17122W        W78488   4.304   6.296  12.045
17123W        W78489  25.046  27.059   2.225
17124W        W78490  36.893  25.633  13.051
17125W        W78491  34.019  39.815  14.894
17126W        W78492  13.133  29.539   5.304
17127W        W78493  20.062  33.614   2.683
17128W        W78494  44.362  41.008  12.376
17129W        W78495  32.089  34.874   0.873
17130W        W78496   5.832  34.994   1.235
17131W        W78497   2.241  40.007  11.451
17132W        W78498  29.593   6.841  13.864
17133W        W78499   5.884  24.984  13.445
17134W        W78500  44.810  38.398  11.604
17135W        W78501  42.945   8.345  10.635
17136W        W78502  33.909  36.437  14.475
17137W        W78503  11.305  39.061  13.862
17138W        W78504  30.151   9.237   2.852
17139W        W78505  33.398  25.200  14.847
17140W        W78506   5.800  22.629   3.669
17141W        W78507  24.717  25.630  12.095
17142W        W78508   2.381  34.540  13.888
17143W        W78509   7.755   3.799   0.401
17144W        W78510  32.100   5.692   4.144
17145W        W78511  39.365  31.550   4.166
17146W        W78512  42.428  44.794  14.431
17147W        W78513   0.290  27.968  12.466
17148W        W78514  15.094  41.520   4.773
17149W        W78515  22.703  39.502  12.570
17150W        W78516  16.175  30.608   0.861
17151W        W78517   8.379  26.090   4.223
17152W        W78518  19.239  42.800  11.999
17153W        W78519  26.522   9.729   2.714
17154W        W78520  17.631  42.854   3.693
17155W        W78521   3.936  39.835  13.939
17156W        W78522   4.412  17.725   1.920
17157W        W78523  21.671  32.923   5.117
17158W        W78524   3.939  12.240   0.845
17159W        W78525  16.135   1.791   0.827
17160W        W78526  36.066  21.081  13.904
17161W        W78527   7.745  12.221  10.989
17162W        W78528  38.975  34.465   2.359
17163W        W78529  27.681  38.477   0.478
17164W        W78530  15.146  19.215  14.915
17165W        W78531   8.381  15.678   4.819
17166W        W78532   9.215  25.608  10.953
17167W        W78533  41.797   5.862   1.864
17168W        W78534  37.936   1.956  10.988
17169W        W78535  33.049  36.382   3.751
17170W        W78536  41.875  40.484   2.895
17171W        W78537  26.062  24.055   4.685
17172W        W78538   4.332  27.164  11.983
17173W        W78539  39.869   0.816  14.930
17174W        W78540  44.376   0.256  12.950
17175W        W78541  10.159   5.767   1.795
17176W        W78542  31.037   9.206  11.079
17177W        W78543   5.197   1.752   1.344
17178W        W78544  19.258  14.200   4.115
17179W        W78545  23.066  28.020  12.475
17180W        W78546  40.043  15.240  13.542
17181W        W78547  30.451  39.547   2.196
17182W        W78548  15.794  13.640   0.783
17183W        W78549  40.004  31.531   1.901
17184W        W78550  33.027  12.134   2.256
17185W        W78551  16.307  35.092  11.061
17186W        W78552  14.679  24.541   2.693
17187W        W78553  38.352  26.101  14.011
17188W        W78554  21.034  29.123  14.830
17189W        W78555  38.446  40.328   3.250
17190W        W78556   9.199  13.199   0.874
17191W        W78557  14.114  37.939   0.249
17192W        W78558  39.462  39.374   2.720
17193W        W78559  19.098   7.697  13.928
17194W        W78560  35.480  28.579   1.367
17195W        W78561  33.562  21.648  13.430
17196W        W78562  36.458   7.843   0.394
17197W        W78563  31.407  23.600  13.060
17198W        W78564  17.289  36.443   0.462
17199W        W78565  41.361  23.527  11.539
17200W        W78566  24.483  15.132  12.539
17201W        W78567  32.415  42.984  11.394
17202W        W78568  21.136   1.457  14.495
17203W        W78569  29.008  17.783  10.470
17204W        W78570  36.541  35.005   4.134
17205W        W78571  12.638  10.844   1.376
17206W        W78572  19.594  24.636  11.412
17207W        W78573  22.138  13.304   0.854
17208W        W78574  16.246  44.410   2.878
17209W        W78575   8.261  32.886  12.575
17210W        W78576   2.368  42.995  10.466
17211W        W78577   2.361  43.783  13.389
17212W        W78578  11.147  40.845   3.732
17213W        W78579  16.239  10.704  14.833
17214W        W78580  20.109  23.674   2.687
17215W        W78581  15.279  34.971   3.216
17216W        W78582  17.274  12.244   0.320
17217W        W78583   2.447   9.823   2.712
17218W        W78584  36.992   5.828   2.750
17219W        W78585  39.888  36.417   2.329
17220W        W78586  10.866  18.206   4.784
17221W        W78587   1.463  33.948  13.913
17222W        W78588  14.649   4.402  14.276
17223W        W78589  38.452  40.042  12.934
17224W        W78590  42.939  25.665  13.446
17225W        W78591  36.911   6.773  13.850
17226W        W78592   9.871  11.754   4.684
17227W        W78593  29.618   4.251  11.911
17228W        W78594  12.150  33.038   3.278
17229W        W78595  36.354  36.021   4.690
17230W        W78596  42.510  39.406   3.363
17231W        W78597   2.927  12.769  12.527
17232W        W78598   5.723   4.407   9.935
17233W        W78599  24.160  14.173   0.739
17234W        W78600  18.050  35.079  12.413
17235W        W78601  23.007   7.709  13.991
17236W        W78602  10.699  27.490  13.517
17237W        W78603  32.988   6.196  14.335
17238W        W78604   8.733   7.345   0.821
17239W        W78605  41.998  20.159  13.986
17240W        W78606  22.710  29.544   4.799
17241W        W78607  14.211  12.145   3.657
17242W        W78608  21.528   3.871  10.465
17243W        W78609  43.783  11.752  12.866
17244W        W78610  21.681  19.737  12.831
17245W        W78611  32.120  32.519   3.343
17246W        W78612  17.266  27.030   4.682
17247W        W78613   1.803  43.957  13.954
17248W        W78614  41.378  30.614  14.375
17249W        W78615   8.195   1.812   0.747
17250W        W78616  20.672  32.448  10.642
17251W        W78617  40.915  26.972  14.278
17252W        W78618  34.947  41.413  11.477
17253W        W78619  21.540  33.961   2.826
17254W        W78620   8.691   2.827   3.354
17255W        W78621  36.348   9.171  11.991
17256W        W78622  38.010   5.391   4.304
17257W        W78623   3.827  40.026   3.214
17258W        W78624  41.000   6.262   2.753
17259W        W78625  39.552  38.567  14.001
17260W        W78626  28.562  20.101  12.823
17261W        W78627  10.786  18.063  12.877
17262W        W78628  13.625  22.520   1.903
17263W        W78629   2.861  12.829   4.338
17264W        W78630  35.001  23.226  12.523
17265W        W78631  26.494   9.195  12.072
17266W        W78632   6.302  39.405   2.294
17267W        W78633  38.923  28.987  11.484
17268W        W78634  24.621  22.252  12.948
17269W        W78635  21.650  18.745   2.837
17270W        W78636  38.956   7.706  14.927
17271W        W78637  30.508  39.042   0.279
17272W        W78638  30.956  13.145   1.346
17273W        W78639  25.643  36.971   1.318
17274W        W78640  15.645   9.847   0.371
17275W        W78641   4.708  32.921  13.854
17276W        W78642  17.268   4.766  11.419
17277W        W78643  42.029  43.366   0.893
17278W        W78644   6.725   3.330   1.864
17279W        W78645  38.463   7.213   3.766
17280W        W78646   0.304  29.656   3.789
17281W        W78647  16.637  21.555   3.364
17282W        W78648  10.213  41.367  11.565
17283W        W78649  19.163  39.547   0.414
17284W        W78650  25.020  32.510  13.867
17285W        W78651  37.032   2.285   1.353
17286W        W78652  32.923   9.318  11.489
17287W        W78653  28.449  40.848  14.452
17288W        W78654  36.984  38.003   1.902
17289W        W78655  24.637   8.772  13.374
17290W        W78656  18.240  44.281  12.049
17291W        W78657  42.503  28.057   2.218
17292W        W78658  13.663  16.641   4.720
17293W        W78659  22.057  32.120  10.021
17294W        W78660  29.599  10.296  11.578
17295W        W78661  16.094  39.991  12.344
17296W        W78662  25.479   2.852   0.381
17297W        W78663  20.701  38.978  10.583
17298W        W78664   4.420  38.411   4.676
17299W        W78665  21.117  30.642  10.038
17300W        W78666  31.596   8.698  11.481
17301W        W78667  24.051  41.807  11.599
17302W        W78668   2.733  41.442   2.301
17303W        W78669  27.983   5.221  14.308
17304W        W78670  16.613  44.984   4.600
17305W        W78671  31.936   2.807   2.379
17306W        W78672   9.244  41.912   1.286
17307W        W78673  34.368  33.032   3.809
17308W        W78674  39.538  41.328  11.065
17309W        W78675  33.115  26.699   3.695
17310W        W78676   6.728  14.301   0.844
17311W        W78677  18.187  26.086  12.540
17312W        W78678  34.884  19.672   0.308
17313W        W78679  38.466  40.372   1.779
17314W        W78680   2.418   9.880   0.467
17315W        W78681  35.945  10.796   4.337
17316W        W78682   7.184  12.799   3.152
17317W        W78683  31.434   2.749   1.922
17318W        W78684  44.758   3.946   3.204
17319W        W78685  30.547  44.011  13.907
17320W        W78686  29.491  17.778  14.515
17321W        W78687  21.632  12.229  12.064
17322W        W78688  21.055  23.995   1.819
17323W        W78689   2.415  44.441  10.102
17324W        W78690  20.245  31.049  12.381
17325W        W78691  26.475  33.568  10.508
17326W        W78692  10.853   7.179   4.788
17327W        W78693   2.240  31.119   4.350
17328W        W78694  21.250  42.916   9.932
17329W        W78695   3.714  32.595   1.391
17330W        W78696  39.922  14.609   1.716
17331W        W78697  24.486  15.621  13.892
17332W        W78698  39.486  37.851  14.956
17333W        W78699   2.721  34.410  10.485
17334W        W78700  16.609  43.361  10.502
17335W        W78701  42.288   0.796   3.171
17336W        W78702   2.942  36.093  10.935
17337W        W78703  38.901  18.252   3.340
17338W        W78704  17.302  23.599   0.328
17339W        W78705  39.002  30.455  10.103
17340W        W78706   5.735  18.289  13.868
17341W        W78707  26.634  17.640   1.720
17342W        W78708  37.063  28.481  12.018
17343W        W78709  28.007  30.596  11.515
17344W        W78710  32.950  21.048  10.099
17345W        W78711  31.094  13.314   3.286
17346W        W78712  23.644  35.874  13.962
17347W        W78713   2.747   5.794   2.317
17348W        W78714   4.321  35.491  13.464
17349W        W78715  42.411   5.905   1.237
17350W        W78716  34.581   2.311  14.971
17351W        W78717  10.715  39.019  10.026
17352W        W78718  15.238  22.604   0.842
17353W        W78719   1.819   6.414   1.798
17354W        W78720  15.314   4.303  11.427
17355W        W78721  28.671  38.877   1.774
17356W        W78722  24.547   5.204  14.412
17357W        W78723  23.610  37.941  12.386
17358W        W78724   5.762   0.475   0.849
17359W        W78725  23.128  31.474  11.974
17360W        W78726  22.695  36.378   5.664
17361W        W78727  22.735  24.070  13.942
17362W        W78728  44.293  16.284  10.995
17363W        W78729  24.597  29.134   2.849
17364W        W78730  27.607  17.755  11.899
17365W        W78731  15.201  44.869  12.924
17366W        W78732  15.316   2.862  10.428
17367W        W78733  13.806  18.262   1.696
17368W        W78734   3.330   1.424   2.394
17369W        W78735  11.713  33.610   0.822
17370W        W78736  22.573  44.398  13.365
17371W        W78737   3.747   1.462  10.515
17372W        W78738  35.382  21.641  10.417
17373W        W78739  18.572  24.119  12.943
17374W        W78740  36.964  14.641   0.742
17375W        W78741  12.335  40.413  12.004
17376W        W78742  33.875  27.532  10.443
17377W        W78743  20.672  32.528   0.780
17378W        W78744  41.464  14.226  12.364
17379W        W78745   6.377  35.375  10.554
17380W        W78746  34.458  21.170  14.468
17381W        W78747  29.052   9.764   1.808
17382W        W78748  10.825  11.273   1.837
17383W        W78749   1.480  25.031   0.846
17384W        W78750  13.252   7.409  13.495
17385W        W78751   5.914  33.606   4.716
17386W        W78752   7.303   7.688   4.171
17387W        W78753  36.855  19.620  11.381
17388W        W78754  37.943  23.686   1.927
17389W        W78755  36.920  27.561   0.414
17390W        W78756  12.212  42.945   0.855
17391W        W78757  10.144  31.905   2.314
17392W        W78758  10.657   6.728   4.785
17393W        W78759  24.171  15.725   2.208
17394W        W78760  27.663  35.392   4.256
17395W        W78761  20.578  39.553   3.731
17396W        W78762  31.100  33.532  11.043
17397W        W78763  42.014  12.652   4.695
17398W        W78764  13.267  16.658   4.728
17399W        W78765  25.519  42.370   2.233
17400W        W78766  28.178  17.778   1.884
17401W        W78767   1.282   1.940   0.306
17402W        W78768  19.764  23.004  10.556
17403W        W78769  36.470  38.868   2.381
17404W        W78770  44.280  14.642  14.942
17405W        W78771  17.187  32.615   4.126
17406W        W78772  38.340   2.810   1.270
17407W        W78773   4.243   3.845   2.198
17408W        W78774  32.467   7.291  12.038
17409W        W78775  29.448   7.371   5.289
17410W        W78776  29.128  17.269   4.754
17411W        W78777  11.285  40.880  13.377
17412W        W78778   8.212  27.684  13.493
17413W        W78779   8.305  38.958   0.768
17414W        W78780  38.530  12.182   0.729
17415W        W78781   3.342  30.146  14.869
17416W        W78782   4.807  27.649  13.383
17417W        W78783  11.708  30.508  13.037
17418W        W78784  41.019  38.464   1.259
17419W        W78785  35.440  22.671   0.363
17420W        W78786  25.470   5.827   4.726
17421W        W78787  35.361  25.472  12.410
17422W        W78788   8.215  19.197  14.884
17423W        W78789  19.614  20.532   4.725
17424W        W78790  43.340  33.014   4.783
17425W        W78791   7.671  11.750  10.626
17426W        W78792  32.899  44.268   3.326
17427W        W78793   8.391  44.816  11.436
17428W        W78794  29.003  15.730   3.226
17429W        W78795  31.146  36.862   0.770
17430W        W78796   0.879  41.376  10.615
17431W        W78797  38.329  31.403   2.821
17432W        W78798  42.822  35.552  12.855
17433W        W78799   2.428  27.109  14.512
17434W        W78800  14.800  16.787  12.421
17435W        W78801   6.195  41.953  13.894
17436W        W78802  28.059  19.740  12.961
17437W        W78803  21.687  25.051   0.854
17438W        W78804  17.259  25.649  11.054
17439W        W78805  27.499  26.561  13.844
17440W        W78806  23.693   8.329  13.885
17441W        W78807   7.379  38.021   2.883
17442W        W78808  40.848  16.125  13.446
17443W        W78809  16.601  42.783   4.324
17444W        W78810  40.394  39.526  12.546
17445W        W78811   4.446  38.017   3.705
17446W        W78812   4.234   7.772  11.033
17447W        W78813  29.029  25.497   2.768
17448W        W78814  27.553  40.439   2.304
17449W        W78815  27.511  36.395   3.826
17450W        W78816  20.164  30.950  13.869
17451W        W78817  32.963  18.596   3.867
17452W        W78818  16.791  42.445   2.867
17453W        W78819   4.824   5.809   4.187
17454W        W78820  17.277  24.600   0.938
17455W        W78821   7.354  30.111   4.144
17456W        W78822  25.570  13.743  13.360
17457W        W78823  44.340   8.303  11.907
17458W        W78824  40.854  19.239   4.156
17459W        W78825  23.730  21.188  11.553
17460W        W78826  15.615  37.053   4.197
17461W        W78827  17.178   4.265   0.873
17462W        W78828  25.673  23.706  14.290
17463W        W78829  35.031  44.771   3.326
17464W        W78830  34.105  30.491   3.680
17465W        W78831  31.616  40.961  13.423
17466W        W78832  34.057  12.785   0.310
17467W        W78833  31.425  24.047  10.106
17468W        W78834  20.717  40.998   3.788
17469W        W78835  10.155   4.275   4.241
17470W        W78836  10.276  12.778   3.818
17471W        W78837  18.185  28.474  14.003
17472W        W78838  12.790   1.483  11.378
17473W        W78839  41.833  31.628   2.833
17474W        W78840  15.312   2.350   1.882
17475W        W78841  42.345  23.590  11.574
17476W        W78842   2.439   0.358   0.740
17477W        W78843  19.633   3.862   0.323
17478W        W78844  26.651  22.222  11.930
17479W        W78845   2.868  11.243  10.538
17480W        W78846  22.724  24.536  14.970
17481W        W78847  36.942   9.350   3.645
17482W        W78848  36.557  28.497  14.329
17483W        W78849   9.734   3.828  12.968
17484W        W78850   8.167   4.238  11.583
17485W        W78851  24.547  41.368   3.361
17486W        W78852  22.014  13.113  13.484
17487W        W78853  14.620  34.942   2.856
17488W        W78854  27.021   1.387  14.768
17489W        W78855  29.558  38.899  11.127
17490W        W78856  24.215  23.118   2.795
17491W        W78857  19.047   6.724   2.199
17492W        W78858  14.239  22.128  10.602
17493W        W78859  32.914  36.092  12.032
17494W        W78860   9.231   2.849   3.254
17495W        W78861  27.487  36.065   2.700
17496W        W78862  40.932  27.575   0.835
17497W        W78863  30.117  39.547  11.974
17498W        W78864  18.203  18.573   0.760
17499W        W78865  38.480  13.172   3.688
17500W        W78866  39.964  36.980  12.903
17501W        W78867  30.621  39.470   4.227
17502W        W78868   2.815   4.311   2.356
17503W        W78869  43.924  30.554  10.156
17504W        W78870  18.086   2.935  13.412
17505W        W78871  38.386  19.750   0.276
17506W        W78872  10.279  43.771   2.236
17507W        W78873  21.673  43.447   2.325
17508W        W78874   6.412   1.868  12.072
17509W        W78875   0.267  36.893   2.214
17510W        W78876  11.136  42.928   1.754
17511W        W78877   9.380  24.664  12.563
17512W        W78878   2.352   8.392   0.913
17513W        W78879   9.868  31.615   0.965
17514W        W78880  27.459   5.376  13.369
17515W        W78881   5.829  30.462   3.841
17516W        W78882  12.241  22.213   2.798
17517W        W78883  33.070   0.945   3.287
17518W        W78884  44.770  23.004   4.239
17519W        W78885  14.251   4.343   3.631
17520W        W78886   5.365  12.155  14.305
17521W        W78887  21.531  27.161   2.293
17522W        W78888  15.262  17.619   4.113
17523W        W78889  40.880   3.733  12.563
17524W        W78890  23.517  41.395   2.268
17525W        W78891  21.700   4.367  12.040
17526W        W78892   5.912  31.520  14.004
17527W        W78893  36.003  12.844  13.343
17528W        W78894  24.028  37.513  13.814
17529W        W78895  26.147  43.285   0.365
17530W        W78896  34.594  16.185  10.475
17531W        W78897   1.971   5.860   4.152
17532W        W78898   5.356  29.156   4.741
17533W        W78899  20.145   6.403   3.281
17534W        W78900  28.100  11.820  11.485
17535W        W78901  23.237   3.925  13.063
17536W        W78902  19.126   4.236   0.807
17537W        W78903  40.929  44.274   2.780
17538W        W78904  26.034  38.558  13.339
17539W        W78905  31.629  26.126   1.238
17540W        W78906  23.715  26.029  13.837
17541W        W78907   2.874  15.250  12.536
17542W        W78908   6.303  10.775  14.014
17543W        W78909  22.122   1.772  10.628
17544W        W78910  19.761   6.874  13.031
17545W        W78911  33.889  42.917  12.564
17546W        W78912   6.800   8.305   4.121
17547W        W78913  21.076  21.149  13.364
17548W        W78914  38.464  24.004   1.721
17549W        W78915   0.751  36.407  14.789
17550W        W78916   1.815  20.571  13.453
17551W        W78917  44.260   5.305  11.093
17552W        W78918  10.247  25.163   4.289
17553W        W78919  35.411   7.244  11.447
17554W        W78920  31.060  32.944   0.422
17555W        W78921  39.935   2.241   3.345
17556W        W78922  18.714  33.471   4.822
17557W        W78923  19.747  39.846   3.635
17558W        W78924  30.908  40.343  10.520
17559W        W78925  23.235   6.223  10.965
17560W        W78926  22.129  16.572  10.621
17561W        W78927  19.159  42.422   2.318
17562W        W78928  41.854  32.968  12.975
17563W        W78929  22.163  25.669  12.375
17564W        W78930   6.861   3.218   1.223
17565W        W78931  12.208  28.630  14.813
17566W        W78932  16.566  13.305  14.784
17567W        W78933  17.801  44.934  13.433
17568W        W78934  42.929  17.673   1.747
17569W        W78935  33.099  42.290   2.890
17570W        W78936  15.660  21.242  12.411
17571W        W78937   4.399   7.295  14.993
17572W        W78938   7.712   2.253   0.392
17573W        W78939  14.833   7.703   2.713
17574W        W78940  27.524  41.013  14.443
17575W        W78941  34.397  15.244   0.394
17576W        W78942  17.306   6.732   0.905
17577W        W78943  24.107   6.397  12.919
17578W        W78944  11.371   2.929  11.889
17579W        W78945  22.142  43.863   3.278
17580W        W78946  42.822  33.927  10.491
17581W        W78947   0.322  43.451   2.234
17582W        W78948   0.347  24.533   2.838
17583W        W78949   0.323  38.845  13.368
17584W        W78950   6.403   7.254  14.875
17585W        W78951  33.602   6.752  12.376
17586W        W78952   6.747  26.459   0.794
17587W        W78953  17.277  20.560   0.845
17588W        W78954  36.389   8.264  11.555
17589W        W78955  25.063  23.162   4.153
17590W        W78956  24.054  15.294  13.046
17591W        W78957  41.424   0.305   0.342
17592W        W78958  17.565  33.055   3.656
17593W        W78959  30.570  42.813   3.190
17594W        W78960  27.659   9.879  13.430
17595W        W78961  32.620   3.890   1.396
17596W        W78962  21.081  24.087  11.606
17597W        W78963  41.786  37.411   4.354
17598W        W78964  44.277  14.265   2.794
17599W        W78965  39.901  37.938   0.891
17600W        W78966   6.895   8.675  13.439
17601W        W78967  14.158  35.944   5.185
17602W        W78968  13.263  17.122  13.492
17603W        W78969  40.390   1.324   1.286
17604W        W78970  21.687   4.730  13.004
17605W        W78971  12.721  33.974  14.796
17606W        W78972  27.951  22.635  11.437
17607W        W78973  39.410  10.770   2.668
17608W        W78974   7.350  35.361   4.346
17609W        W78975  26.462  13.206  11.941
17610W        W78976   9.743   0.281   3.213
17611W        W78977  13.208  34.376   1.252
17612W        W78978  32.434  39.983  13.805
17613W        W78979   2.325  30.607   0.289
17614W        W78980  13.618  12.257   3.189
17615W        W78981  41.898  30.550  12.538
17616W        W78982  37.072   0.280   3.766
17617W        W78983  17.170  40.482  12.450
17618W        W78984  14.776   7.192   2.360
17619W        W78985  22.056   9.738   3.827
17620W        W78986  35.921  22.599   3.376
17621W        W78987  24.550  19.767  11.931
17622W        W78988  39.418   1.853  11.388
17623W        W78989   5.906  32.492   3.637
17624W        W78990  21.258  38.891  11.415
17625W        W78991  33.389  22.730  10.431
17626W        W78992  39.845  18.255   0.286
17627W        W78993  18.263  44.758  11.391
17628W        W78994  25.676   8.262  14.315
17629W        W78995  25.712  27.041   9.439
17630W        W78996  18.552  15.781  11.083
17631W        W78997  33.481  26.152   0.424
17632W        W78998  32.469   1.766  11.098
17633W        W78999   2.862  18.248   4.827
17634W        W79000  42.787   2.938  14.936
17635W        W79001  41.447  38.927  12.959
17636W        W79002  22.677   8.785   0.291
17637W        W79003   4.703  42.998   9.967
17638W        W79004   8.780   6.235  12.383
17639W        W79005  22.105   2.395   1.355
17640W        W79006  29.120  14.829   3.685
17641W        W79007  23.193  36.487   0.852
17642W        W79008  37.468  26.113  14.833
17643W        W79009  44.437  18.241   2.830
17644W        W79010  20.137  41.437  13.539
17645W        W79011  30.116  12.271  11.050
17646W        W79012  29.517   6.746  10.614
17647W        W79013  44.931   9.681   1.347
17648W        W79014  26.014  39.375  13.925
17649W        W79015  44.971  22.733   2.205
17650W        W79016  29.456  21.182   4.222
17651W        W79017   3.859  31.087  12.064
17652W        W79018   7.198  43.495   1.893
17653W        W79019   7.257  26.163   3.711
17654W        W79020  22.060  18.733  12.971
17655W        W79021  33.596   1.790  13.461
17656W        W79022   9.852  10.346  10.524
17657W        W79023  22.667  26.000  13.346
17658W        W79024  15.814  39.420   1.284
17659W        W79025  29.537  10.813  12.996
17660W        W79026   5.338  43.987   2.212
17661W        W79027  41.521  20.204  11.932
17662W        W79028  40.531   0.801  13.449
17663W        W79029  33.557  14.223  14.885
17664W        W79030  44.789  23.507  12.849
17665W        W79031  29.650   2.907  13.847
17666W        W79032   3.326  32.034   2.406
17667W        W79033  38.973  37.490   3.191
17668W        W79034  40.374  25.487   0.820
17669W        W79035   5.204   8.365   1.301
17670W        W79036   3.352  44.871   3.204
17671W        W79037  32.077  34.544  14.948
17672W        W79038  16.572   9.713   2.671
17673W        W79039  12.347  23.997   0.835
17674W        W79040  37.880  33.993  11.949
17675W        W79041   0.786  27.005  14.843
17676W        W79042   9.830  17.255   0.866
17677W        W79043   5.301  41.324   3.326
17678W        W79044  38.540  31.641  10.916
17679W        W79045  44.945  13.321   0.390
17680W        W79046  23.222  34.074   2.667
17681W        W79047  44.273  44.970  11.380
17682W        W79048  14.714   0.311  10.978
17683W        W79049  19.237  16.623  14.884
17684W        W79050  28.499  30.605   0.369
17685W        W79051   5.829  38.863   2.893
17686W        W79052  16.686  43.361  13.944
17687W        W79053   7.753  21.619  10.584
17688W        W79054   2.877   0.894   4.798
17689W        W79055   9.684  12.837  13.004
17690W        W79056  38.514   1.820  11.590
17691W        W79057  36.529  14.325   2.340
17692W        W79058  24.182  41.899  12.345
17693W        W79059  35.097  12.166   4.758
17694W        W79060   2.751  30.060   3.217
17695W        W79061  39.483   8.810   3.187
17696W        W79062   9.852  14.803   1.914
17697W        W79063  28.529  15.149  11.375
17698W        W79064  24.672  37.063   4.713
17699W        W79065  35.428   0.807  14.910
17700W        W79066  36.436  10.648   1.747
17701W        W79067  36.857  34.569   1.835
17702W        W79068  35.082  33.427  10.560
17703W        W79069  13.154  44.910   3.633
17704W        W79070  41.863  18.140  10.926
17705W        W79071  34.504  39.554   3.724
17706W        W79072  26.614  14.288   0.414
17707W        W79073  15.308   9.685  12.935
17708W        W79074  21.528  36.417  13.929
17709W        W79075  15.319   4.417   3.790
17710W        W79076  21.156  33.471   2.287
17711W        W79077  10.874  24.707  13.537
17712W        W79078  10.294  41.839  11.498
17713W        W79079  15.730  15.617   4.223
17714W        W79080  10.817  16.243   0.942
17715W        W79081  19.209  41.426   1.845
17716W        W79082  27.579  21.224  13.359
17717W        W79083  16.695  10.286   4.610
17718W        W79084   3.712   7.820  10.981
17719W        W79085  27.568  11.150  13.323
17720W        W79086  33.458   6.823  14.023
17721W        W79087  17.278  37.064   2.814
17722W        W79088   4.717  37.020  11.400
17723W        W79089  33.600  40.870   2.179
17724W        W79090   1.819  11.666  10.974
17725W        W79091  29.664  41.409  10.158
17726W        W79092  37.067  41.387   4.282
17727W        W79093  12.723   5.344   1.297
17728W        W79094  37.482  44.421  11.114
17729W        W79095  14.825  24.663   3.834
17730W        W79096  29.148  22.596  14.918
17731W        W79097  33.614  11.636  14.841
17732W        W79098  28.019   9.855  11.581
17733W        W79099  32.931   7.881   4.257
17734W        W79100  36.080  30.916   1.448
17735W        W79101   5.767  35.012  10.930
17736W        W79102  28.172   8.663  12.833
17737W        W79103  24.201  37.494   5.276
17738W        W79104  41.475  28.458  10.417
17739W        W79105  23.553  40.904   0.727
17740W        W79106  41.976  17.776  13.533
17741W        W79107  15.715   1.449   0.450
17742W        W79108   7.754  23.663   2.804
17743W        W79109  26.500  13.816  10.424
17744W        W79110  32.428   5.368   2.861
17745W        W79111   3.237  16.269   1.300
17746W        W79112  22.171  39.003   4.680
17747W        W79113  22.696  38.552  12.893
17748W        W79114  25.041  32.040   0.337
17749W        W79115  11.796  41.793   2.710
17750W        W79116  44.860  21.737  10.549
17751W        W79117  12.833  11.771   4.707
17752W        W79118   5.791  25.538   2.800
17753W        W79119  31.470  17.779   0.301
17754W        W79120   2.794  25.679  10.951
17755W        W79121  38.357   5.841   0.781
17756W        W79122   5.227   3.324   3.670
17757W        W79123  13.658  11.346   1.385
17758W        W79124  37.390  17.077  13.055
17759W        W79125  44.991   1.285  14.303
17760W        W79126  22.528  29.479   2.212
17761W        W79127  40.055  26.562   5.161
17762W        W79128  15.292  20.122   3.651
17763W        W79129  35.513  10.738  13.478
17764W        W79130  17.265  30.448   1.408
17765W        W79131  35.044  42.423  11.976
17766W        W79132  32.432  44.956  14.991
17767W        W79133  41.409   5.260   4.760
17768W        W79134  11.185  29.938  14.879
17769W        W79135   9.890  10.285   4.318
17770W        W79136  17.732  42.384   1.303
17771W        W79137  38.460  26.061  11.984
17772W        W79138  10.871  31.003   0.744
17773W        W79139  32.886  42.832  13.412
17774W        W79140  33.621  32.132   4.710
17775W        W79141  29.125   8.334  13.808
17776W        W79142  43.491   8.711   1.254
17777W        W79143   7.282  17.143   1.885
17778W        W79144  17.194   7.395   0.319
17779W        W79145  33.542  11.188  11.034
17780W        W79146  26.981  15.085   3.386
17781W        W79147  24.171  36.991  12.931
17782W        W79148   6.794  24.094  11.945
17783W        W79149   6.407  11.267   3.850
17784W        W79150  17.135   4.302  11.930
17785W        W79151  13.783  21.607  14.893
17786W        W79152  44.005  23.098   2.182
17787W        W79153   6.403  25.012  13.906
17788W        W79154   5.258   0.907  11.001
17789W        W79155  40.410   5.250  14.998
17790W        W79156  25.568  21.598  13.932
17791W        W79157  37.061   6.262  11.382
17792W        W79158  39.815  31.101   2.683
17793W        W79159   4.844  38.353   3.310
17794W        W79160  28.025  10.733   4.748
17795W        W79161   3.755   1.773  11.063
17796W        W79162  34.024  38.489   0.854
17797W        W79163   8.870  36.012   1.404
17798W        W79164  25.485  14.205   0.482
17799W        W79165  32.543  20.237  14.896
17800W        W79166  43.009  12.247  14.433
17801W        W79167  32.961  17.716  13.814
17802W        W79168  20.553  31.921  10.420
17803W        W79169  36.539  14.261   4.792
17804W        W79170   3.941  28.134  12.386
17805W        W79171  36.056  10.380   0.901
17806W        W79172  24.553  27.666  14.948
17807W        W79173  42.966  11.689   0.313
17808W        W79174   0.446   3.247  13.940
17809W        W79175  32.562  20.220   2.714
17810W        W79176  44.862  40.990   2.695
17811W        W79177   6.364  28.182  12.026
17812W        W79178  25.601  18.597  10.496
17813W        W79179   0.815  19.242  14.759
17814W        W79180  40.388   6.241  12.076
17815W        W79181  19.621  24.668   1.224
17816W        W79182  43.512  42.874  10.418
17817W        W79183  23.997  12.669   0.251
17818W        W79184  16.197  19.167  11.880
17819W        W79185  40.367  21.722  13.446
17820W        W79186  33.101  32.518   3.849
17821W        W79187   4.876  15.804  12.387
17822W        W79188  42.302  11.727  11.397
17823W        W79189   7.291  19.265  12.013
17824W        W79190   2.401  18.595   0.333
17825W        W79191  27.960  25.143  13.029
17826W        W79192  33.553  29.957   1.889
17827W        W79193  18.254  44.375  11.466
17828W        W79194   5.430  24.685   2.739
17829W        W79195  35.012  39.393  11.469
17830W        W79196  33.552  20.740  14.381
17831W        W79197  38.041  37.486  11.105
17832W        W79198  33.954  42.961   3.841
17833W        W79199  25.630  21.085  13.381
17834W        W79200   5.717  15.227  13.507
17835W        W79201   5.699  32.606  11.499
17836W        W79202  24.500  28.139  12.855
17837W        W79203   8.235  44.402  13.821
17838W        W79204  14.289  43.936   1.446
17839W        W79205  10.167  16.183  11.029
17840W        W79206   0.483  39.002  11.931
17841W        W79207  44.471  37.867   3.205
17842W        W79208  24.499   3.931   0.884
17843W        W79209  30.474   9.293   3.357
17844W        W79210   3.856  40.817   3.202
17845W        W79211   8.177  31.035  11.986
17846W        W79212  18.589   1.327   1.749
17847W        W79213  21.545  37.848   0.759
17848W        W79214  26.146  22.142  11.083
17849W        W79215  14.619  35.430   3.866
17850W        W79216   1.833  44.790  14.340
17851W        W79217  43.449  11.172   2.215
17852W        W79218  42.931  38.491  11.611
17853W        W79219  28.150  24.195   2.288
17854W        W79220  21.215  14.605   5.316
17855W        W79221  12.197  34.463  12.510
17856W        W79222   9.256  38.884  10.020
17857W        W79223  25.047  30.463   2.857
17858W        W79224  19.167  37.496  14.487
17859W        W79225  44.781   2.462  14.807
17860W        W79226  23.053  38.047   2.705
17861W        W79227  37.966   9.325   1.367
17862W        W79228   6.904  26.057  14.016
17863W        W79229  42.966  33.568  13.045
17864W        W79230   4.342  30.967   3.348
17865W        W79231   1.423  26.524   3.316
17866W        W79232  29.506   5.431  14.952
17867W        W79233  28.152   2.916  14.360
17868W        W79234  11.858  31.610   4.715
17869W        W79235  40.336  26.518  14.796
17870W        W79236  16.723   0.361  11.073
17871W        W79237   2.948   3.360  13.796
17872W        W79238  42.855  42.872   2.882
17873W        W79239  13.309  19.624  10.622
17874W        W79240  36.875  35.939  10.928
17875W        W79241   3.440  36.587   4.714
17876W        W79242   3.829  37.531   2.291
17877W        W79243  42.000  34.495   0.310
17878W        W79244   7.818  25.126   0.929
17879W        W79245  19.280  15.304  11.589
17880W        W79246  21.631  27.994   2.358
17881W        W79247  42.439  38.363  11.453
17882W        W79248  11.720   2.470   3.685
17883W        W79249   8.250  11.210   4.228
17884W        W79250  32.917  40.536  14.342
17885W        W79251   9.885  41.996  13.031
17886W        W79252   0.303   3.355   0.945
17887W        W79253  20.671  40.374  11.023
17888W        W79254  11.627  33.947  11.065
17889W        W79255  42.869  42.507  11.539
17890W        W79256  15.140  18.253   1.911
17891W        W79257  19.053  20.655  14.760
17892W        W79258   4.263  30.929   0.459
17893W        W79259  36.972  38.428   0.318
17894W        W79260  16.203  23.607  14.362
17895W        W79261  38.017  29.954  11.885
17896W        W79262  39.438   9.287   1.910
17897W        W79263  25.116   3.238  14.788
17898W        W79264  25.133  30.599   2.228
17899W        W79265  12.691  27.059   0.757
17900W        W79266  15.624  17.640   0.355
17901W        W79267  40.330  24.678  13.844
17902W        W79268   8.763  29.441  11.517
17903W        W79269  10.694   7.260  11.540
17904W        W79270  20.229  20.212  11.011
17905W        W79271   3.293  26.541   3.364
17906W        W79272  17.157  32.484  14.905
17907W        W79273  30.455  27.947   0.923
17908W        W79274  34.023  40.949  12.091
17909W        W79275  38.051  38.388  10.443
17910W        W79276  37.380  29.977   4.793
17911W        W79277  36.381  27.673   2.390
17912W        W79278   7.311  41.044  12.568
17913W        W79279   9.160   3.284  10.411
17914W        W79280  20.709  27.468   0.395
17915W        W79281  18.122  39.428  12.027
17916W        W79282  32.497  30.469   0.265
17917W        W79283  36.974  43.833  12.564
17918W        W79284  37.559  40.347   3.205
17919W        W79285  27.163  31.619  14.949
17920W        W79286   9.374  40.004   2.737
17921W        W79287  41.533  32.081  13.509
17922W        W79288  21.656  21.655   2.787
17923W        W79289  28.508  19.677  10.486
17924W        W79290   7.171  38.543   4.742
17925W        W79291   9.840  39.838  11.424
17926W        W79292  15.104  40.802  11.069
17927W        W79293  40.403  30.139  13.348
17928W        W79294  38.936  32.136  11.929
17929W        W79295   9.374  29.963   0.343
17930W        W79296  37.026  14.617   3.646
17931W        W79297  11.260  28.112   3.257
17932W        W79298  28.989  35.508  11.496
17933W        W79299  14.740  30.017   2.387
17934W        W79300  39.826   7.215   0.305
17935W        W79301  40.904  41.344   0.453
17936W        W79302  27.664  30.004   4.339
17937W        W79303  18.292  21.251  13.891
17938W        W79304  35.077  28.092   2.280
17939W        W79305  18.684  40.823   0.767
17940W        W79306  39.949   8.185   1.430
17941W        W79307  37.423  19.162  12.927
17942W        W79308   1.243  36.563  11.899
17943W        W79309  18.102   4.393   2.867
17944W        W79310  44.363  13.786  10.916
17945W        W79311  19.595   8.690  12.977
17946W        W79312  39.855  35.503  14.281
17947W        W79313  22.604   3.236   4.117
17948W        W79314  18.735  30.534   0.327
17949W        W79315  11.628   4.272   1.291
17950W        W79316  40.425  15.684  10.159
17951W        W79317   2.848  26.549  13.877
17952W        W79318   2.287  17.107   0.309
17953W        W79319  29.918   4.737   9.954
17954W        W79320  16.181  37.054   4.756
17955W        W79321   3.715  36.353  14.333
17956W        W79322  11.831   7.707   2.798
17957W        W79323  27.525  26.700   4.308
17958W        W79324  16.126  27.080   3.206
17959W        W79325  12.847   4.446   1.342
17960W        W79326  44.773  44.350  13.041
17961W        W79327  29.658  28.096   4.168
17962W        W79328   5.831  31.401  12.908
17963W        W79329  34.605  35.493  11.087
17964W        W79330  43.353  25.184  11.545
17965W        W79331  21.105   2.904   2.667
17966W        W79332  42.483  15.708  10.007
17967W        W79333  40.441  10.357   1.786
17968W        W79334   6.334  33.476   2.827
17969W        W79335   6.230  11.625   1.763
17970W        W79336  19.672   9.353   3.155
17971W        W79337  29.496  40.304  11.047
17972W        W79338  26.141  36.553   4.834
17973W        W79339   5.699  25.640  10.522
17974W        W79340   9.330  44.384  14.852
17975W        W79341   7.356  31.103  14.934
17976W        W79342  40.303  28.565  14.026
17977W        W79343  19.236  43.930   2.729
17978W        W79344   7.882  22.171   3.794
17979W        W79345   1.790  43.851   1.429
17980W        W79346  11.255  20.712  10.942
17981W        W79347   3.454   8.182  14.457
17982W        W79348   5.767  35.878   3.664
17983W        W79349  33.392  25.175  14.281
17984W        W79350  44.313  38.962  14.404
17985W        W79351  44.399  26.515  13.791
17986W        W79352   5.896  33.560  13.512
17987W        W79353   1.840  16.080  14.924
17988W        W79354  44.920   1.433   0.393
17989W        W79355  32.399   0.917   1.896
17990W        W79356  33.116  16.807   0.364
17991W        W79357  39.461  32.028  14.810
17992W        W79358  26.476  26.111  10.075
17993W        W79359  38.402  21.672   0.345
17994W        W79360   8.844  17.133   4.263
17995W        W79361   3.381  38.534   0.950
17996W        W79362  20.714   1.482   2.316
17997W        W79363  25.043  40.887   4.343
17998W        W79364  11.253  10.634   0.742
17999W        W79365   6.890  44.264   0.777
18000W        W79366   3.389  33.102   1.256
18001W        W79367  20.206  21.678  10.991
18002W        W79368  37.899  11.236   1.339
18003W        W79369  11.655  36.354   2.189
18004W        W79370  34.405  44.962  12.876
18005W        W79371   5.306  23.108  13.396
18006W        W79372  30.481  20.532  14.889
18007W        W79373  34.882  29.659  12.995
18008W        W79374  34.396  22.247   3.696
18009W        W79375  25.965   8.287  11.374
18010W        W79376  25.599  19.710   1.266
18011W        W79377   6.851  13.154  14.870
18012W        W79378  26.538   7.253   2.881
18013W        W79379  22.178  24.181   4.240
18014W        W79380  11.667  44.987   4.186
18015W        W79381   0.988  12.764  11.964
18016W        W79382  44.984  42.777   1.422
18017W        W79383  43.910   6.259   1.712
18018W        W79384  34.523   6.786   4.195
18019W        W79385  16.726  44.491   3.802
18020W        W79386   3.383  18.204  12.959
18021W        W79387  34.400  15.769  14.790
18022W        W79388   8.785  31.477   4.257
18023W        W79389  17.644  23.518  10.499
18024W        W79390  20.147  17.226   2.246
18025W        W79391   9.863  20.214   2.311
18026W        W79392  41.383   0.347   2.765
18027W        W79393  19.195  26.106  14.460
18028W        W79394  37.996  36.945   2.851
18029W        W79395  33.532  24.538   4.599
18030W        W79396  11.346  10.745  13.892
18031W        W79397   7.762  25.619  13.908
18032W        W79398   4.441   2.722  13.392
18033W        W79399  24.168  20.527   1.435
18034W        W79400  29.092  22.064  12.991
18035W        W79401  10.726   2.226  13.020
18036W        W79402  32.391  39.412   2.807
18037W        W79403  12.356  18.292   4.148
18038W        W79404   4.450  41.434  12.933
18039W        W79405  33.530  24.494  10.447
18040W        W79406  17.244   6.803   3.291
18041W        W79407   5.355   9.886   4.683
18042W        W79408  11.267   5.824   0.727
18043W        W79409   0.493  15.159   2.267
18044W        W79410  41.502  41.526   2.191
18045W        W79411  37.370  42.320   9.619
18046W        W79412  16.130   1.337   4.805
18047W        W79413  36.916  21.219  13.956
18048W        W79414  34.376  23.492   0.461
18049W        W79415  28.123  15.630  14.980
18050W        W79416  23.062  18.695   4.794
18051W        W79417  32.577  34.105  12.932
18052W        W79418  26.555   7.276   1.935
18053W        W79419  17.305  32.409   3.374
18054W        W79420   3.934  18.606   2.380
18055W        W79421  42.976  15.601  14.842
18056W        W79422  24.229  34.985   3.645
18057W        W79423  35.059  43.415   4.705
18058W        W79424   7.356  42.007   2.375
18059W        W79425  16.691  21.528   2.283
18060W        W79426  27.619  10.822  13.384
18061W        W79427  24.146   8.204   3.242
18062W        W79428  40.843  14.113   4.782
18063W        W79429  19.599  10.379   2.240
18064W        W79430  19.725  44.854  12.830
18065W        W79431  21.029  39.048  14.994
18066W        W79432  33.879  44.818   3.338
18067W        W79433  17.065  32.048   9.996
18068W        W79434  32.597   8.261   3.191
18069W        W79435  20.740  23.502  14.902
18070W        W79436  21.138  17.617  11.101
18071W        W79437   1.285  33.923   0.361
18072W        W79438  30.926  29.155   1.445
18073W        W79439  14.651  42.969  13.437
18074W        W79440   9.648  25.581   1.261
18075W        W79441   2.819  12.764  11.412
18076W        W79442  43.955  14.715  14.939
18077W        W79443  11.308  41.848   3.356
18078W        W79444  44.261  17.113  13.346
18079W        W79445  20.702  14.236   4.181
18080W        W79446   2.279  34.478   0.742
18081W        W79447   9.222  14.339   3.640
18082W        W79448   6.704  33.412  12.074
18083W        W79449  19.284   6.252   1.411
18084W        W79450  24.092  44.495   3.725
18085W        W79451  27.579  17.774  12.503
18086W        W79452  19.660  40.370   1.232
18087W        W79453  28.166  13.654  11.091
18088W        W79454  35.602  34.863  13.507
18089W        W79455  14.286  24.686  11.593
18090W        W79456  22.141  37.044   4.332
18091W        W79457  28.008  28.553  13.013
18092W        W79458   8.761  31.091  13.848
18093W        W79459   6.790  23.556   4.657
18094W        W79460   8.815  23.521   2.678
18095W        W79461   1.422  43.425  14.929
18096W        W79462  12.827  32.107   1.257
18097W        W79463  15.284  38.919  12.065
18098W        W79464  28.084  26.053  12.512
18099W        W79465   3.435  10.763  13.053
18100W        W79466  21.211  33.405   1.862
18101W        W79467  43.338  13.325  13.963
18102W        W79468   3.941  36.360   4.789
18103W        W79469  15.768  29.014  12.560
18104W        W79470  32.597  12.650   2.312
18105W        W79471  10.336  15.253  11.407
18106W        W79472  44.894  22.154  13.812
18107W        W79473  31.093  18.276   2.883
18108W        W79474  26.628   8.842  13.397
18109W        W79475  34.470  26.039   1.247
18110W        W79476  21.668  32.029   1.751
18111W        W79477  41.818  33.432   1.851
18112W        W79478   0.402  11.847   2.761
18113W        W79479  34.500  34.934   1.292
18114W        W79480  12.686  43.923  12.565
18115W        W79481  30.007  41.506  11.887
18116W        W79482   4.731   7.794   2.892
18117W        W79483   0.772  24.050   1.309
18118W        W79484  21.084  44.938  14.494
18119W        W79485   8.366  36.554   0.931
18120W        W79486  26.640  43.512  12.359
18121W        W79487  18.635  44.884   4.723
18122W        W79488  23.071  36.999   3.254
18123W        W79489  28.513  30.097   4.120
18124W        W79490  38.385   8.792  14.026
18125W        W79491  13.271  24.135  11.113
18126W        W79492   4.246   9.346   3.226
18127W        W79493  23.098  43.006   0.745
18128W        W79494  19.585   1.438  10.986
18129W        W79495  32.578   0.901   2.208
18130W        W79496  13.604  19.162  14.397
18131W        W79497   9.149   7.825  12.389
18132W        W79498  29.582  26.155  10.953
18133W        W79499  24.089  17.107  14.029
18134W        W79500   9.326  10.744  13.425
18135W        W79501  36.887  42.448   3.844
18136W        W79502   2.397  19.661   4.288
18137W        W79503  44.354  15.647  11.524
18138W        W79504  32.044  31.115   5.268
18139W        W79505  21.086  34.605  12.993
18140W        W79506  24.084  31.505   1.352
18141W        W79507  38.878  13.610  10.020
18142W        W79508  33.593  42.297   2.315
18143W        W79509  22.635  15.197  14.850
18144W        W79510   4.265  19.081  11.029
18145W        W79511  27.135   6.396   1.748
18146W        W79512  14.309  20.176   3.800
18147W        W79513  10.280   4.258   1.880
18148W        W79514  30.053  35.398  13.932
18149W        W79515  10.694  21.521  12.367
18150W        W79516  23.197   7.740  12.906
18151W        W79517  42.432  18.224   1.344
18152W        W79518  18.599  28.015   3.306
18153W        W79519  41.790  41.435  13.416
18154W        W79520  14.094  41.849  11.883
18155W        W79521  36.874  42.005   3.725
18156W        W79522  18.251  29.081   4.178
18157W        W79523   2.273  29.603   3.197
18158W        W79524  36.999  32.550   0.378
18159W        W79525  10.151  19.265   1.927
18160W        W79526  30.631  14.319   0.908
18161W        W79527  44.308  20.559   3.799
18162W        W79528  36.588  27.067  10.495
18163W        W79529  17.275  31.140   0.888
18164W        W79530   5.436  17.090   5.143
18165W        W79531  33.909  40.320  10.985
18166W        W79532  42.783  32.552  12.980
18167W        W79533  29.042  29.972  10.985
18168W        W79534  37.521  35.469  10.976
18169W        W79535  20.181  44.417  12.534
18170W        W79536  37.044  21.520   4.752
18171W        W79537  33.401  32.933   0.827
18172W        W79538  33.908   4.450  11.110
18173W        W79539  42.417  19.670   3.813
18174W        W79540   2.414  35.361  14.010
18175W        W79541  34.064  38.982  14.437
18176W        W79542  13.241   5.317  14.796
18177W        W79543  27.135   0.926  11.104
18178W        W79544  32.905  21.239  12.568
18179W        W79545  19.166  21.159  14.859
18180W        W79546  32.051  28.476  13.053
18181W        W79547  36.920  33.911   1.802
18182W        W79548  23.187  16.709   4.236
18183W        W79549  44.380  10.651   2.228
18184W        W79550  42.428  28.005  12.067
18185W        W79551  24.171  31.543  12.046
18186W        W79552   3.278  33.382   0.324
18187W        W79553  38.920  23.153   1.732
18188W        W79554  10.662   1.881   0.432
18189W        W79555  21.600  26.700  10.888
18190W        W79556  15.725  34.111   9.994
18191W        W79557  43.406   9.845   4.794
18192W        W79558   1.406  43.321   3.189
18193W        W79559   3.225   8.800  12.343
18194W        W79560  21.753  23.555   1.882
18195W        W79561  27.532  20.107   4.627
18196W        W79562  33.441  18.627  14.471
18197W        W79563  22.636  30.126  14.776
18198W        W79564  34.098  17.095   0.728
18199W        W79565  41.954  42.355  10.441
18200W        W79566  33.033  36.568  12.006
18201W        W79567  15.123  34.108   2.179
18202W        W79568  42.381  24.106   3.192
18203W        W79569  17.232   1.258   2.790
18204W        W79570   7.279  17.266   3.332
18205W        W79571  42.846  20.245   4.116
18206W        W79572  26.076  22.083  14.957
18207W        W79573   5.707  27.504  13.429
18208W        W79574  20.078  39.980  12.498
18209W        W79575  10.248  13.350  11.045
18210W        W79576  25.165   2.763  12.986
18211W        W79577  19.147  23.655   0.825
18212W        W79578   4.274   7.181  13.868
18213W        W79579  33.510  25.599  14.926
18214W        W79580  25.548  23.578  12.423
18215W        W79581  11.361   8.779  13.337
18216W        W79582  10.795  30.631   1.831
18217W        W79583  44.335  37.947  11.096
18218W        W79584  15.785  24.048  10.464
18219W        W79585  30.655  18.238  12.957
18220W        W79586  35.364  13.187  12.056
18221W        W79587  40.809  23.185  10.905
18222W        W79588   5.780  26.159   1.418
18223W        W79589  15.092  10.178   3.256
18224W        W79590  18.688  42.872  11.453
18225W        W79591  41.361  13.781   2.323
18226W        W79592  12.710  18.076  13.355
18227W        W79593   8.296  23.109  11.511
18228W        W79594   6.306  15.128  13.412
18229W        W79595   6.263  12.753   0.476
18230W        W79596  36.453  33.079  13.454
18231W        W79597  23.172  12.737  10.499
18232W        W79598  32.452   2.880  12.474
18233W        W79599  43.331  23.049  11.900
18234W        W79600  19.541  35.529  12.472
18235W        W79601  44.329  37.529   3.234
18236W        W79602  16.097   0.832   2.416
18237W        W79603  36.395  38.946   1.712
18238W        W79604  19.585  36.882  12.515
18239W        W79605  36.918  41.934  12.927
18240W        W79606  10.149  33.081   2.826
18241W        W79607  15.755  18.175   0.842
18242W        W79608  38.944  17.699   2.226
18243W        W79609  15.103  32.627  12.512
18244W        W79610   7.684  26.042   1.258
18245W        W79611  17.711  37.993  12.456
18246W        W79612   8.747  19.662   3.687
18247W        W79613   4.761  15.715  13.319
18248W        W79614  43.431  27.972  13.018
18249W        W79615  35.450  32.143   1.257
18250W        W79616   2.958  11.151   0.740
18251W        W79617  15.232   7.792   4.333
18252W        W79618   2.464  30.165  12.866
18253W        W79619   2.348  29.538  13.905
18254W        W79620  36.888  13.746   0.269
18255W        W79621   1.438  15.614   4.791
18256W        W79622  41.345  16.675  14.763
18257W        W79623  44.367  24.005  14.294
18258W        W79624  13.667  19.068  12.492
18259W        W79625   8.370   4.370   2.686
18260W        W79626  28.678  10.674   1.380
18261W        W79627  28.019  11.842   3.239
18262W        W79628  37.833   7.901  12.920
18263W        W79629  38.878  33.982   0.379
18264W        W79630  32.885  23.239  13.437
18265W        W79631   8.358  17.764   2.271
18266W        W79632  29.600  43.774  11.111
18267W        W79633   4.908  39.808  12.890
18268W        W79634  12.232   6.866  12.964
18269W        W79635  14.236  15.600  14.879
18270W        W79636  44.941  29.624   1.313
18271W        W79637  17.705  44.800  10.926
18272W        W79638  22.076  14.231  13.532
18273W        W79639  17.184  12.797   2.763
18274W        W79640  18.672   8.166   0.806
18275W        W79641  11.328  31.069   4.333
18276W        W79642  39.442  26.986  10.921
18277W        W79643  35.570   6.778   2.256
18278W        W79644  15.726  39.434   0.364
18279W        W79645  20.684   5.913  11.377
18280W        W79646   6.764  29.582  13.911
18281W        W79647  17.116  33.586   0.772
18282W        W79648   9.392  31.065  12.890
18283W        W79649   4.272  39.893   3.318
18284W        W79650  39.990  30.118   1.296
18285W        W79651  24.559  16.796   4.338
18286W        W79652  40.914   0.788   4.183
18287W        W79653   1.306  32.020  10.980
18288W        W79654   1.877  12.196   0.950
18289W        W79655  27.163  29.130   2.286
18290W        W79656  27.082   2.324  12.860
18291W        W79657   6.263  33.462   1.895
18292W        W79658  32.031  31.032   1.815
18293W        W79659  12.117  23.070   1.927
18294W        W79660   2.912  32.078   1.933
18295W        W79661  38.452  31.067   0.264
18296W        W79662   2.247   4.284  14.497
18297W        W79663  32.614   5.426  13.824
18298W        W79664  16.153  12.743  11.422
18299W        W79665  41.334  16.615  10.601
18300W        W79666  18.574  21.692  12.939
18301W        W79667  35.036   4.889  13.391
18302W        W79668   4.752   9.378   1.223
18303W        W79669  25.541  23.719  10.892
18304W        W79670  21.146   9.819   1.278
18305W        W79671   8.368  40.929  10.440
18306W        W79672   1.343  27.135   0.344
18307W        W79673  32.450   8.264   4.677
18308W        W79674  11.696  38.961   2.796
18309W        W79675  29.623  17.664  13.391
18310W        W79676  10.701   0.298   1.913
18311W        W79677  11.292  43.991  10.922
18312W        W79678  30.591  22.123   0.389
18313W        W79679  12.193  23.532  11.125
18314W        W79680   4.415  28.113  12.854
18315W        W79681   4.737  11.295   1.268
18316W        W79682   1.967  29.952   5.313
18317W        W79683  42.997  25.053   2.283
18318W        W79684  12.157  12.220  13.000
18319W        W79685  42.990  33.512  12.560
18320W        W79686  34.454  40.014  10.621
18321W        W79687  10.257   7.352   2.339
18322W        W79688  19.114  25.175  11.946
18323W        W79689  21.722  26.057   3.676
18324W        W79690  14.734  14.326  12.956
18325W        W79691  36.541   8.392  14.505
18326W        W79692  27.124  12.775  12.915
18327W        W79693  33.576  27.965   1.270
18328W        W79694  33.970  44.794   1.886
18329W        W79695   1.385  24.979   5.137
18330W        W79696  44.905  26.491  11.071
18331W        W79697  28.503  23.521   4.131
18332W        W79698  25.000  41.341   9.982
18333W        W79699  21.124  36.424   1.850
18334W        W79700  11.166  14.633  11.948
18335W        W79701  24.189   5.727   1.712
18336W        W79702  24.677   1.248   1.418
18337W        W79703  40.535  30.063  14.833
18338W        W79704  16.755  34.405  11.558
18339W        W79705   6.270  23.136   0.328
18340W        W79706  17.610  12.136   2.376
18341W        W79707   8.162  43.406  13.984
18342W        W79708  29.554  28.526  14.320
18343W        W79709  44.778  36.533  10.633
18344W        W79710  20.641  30.413   3.184
18345W        W79711  27.643  36.519  11.527
18346W        W79712  14.675   1.457   1.818
18347W        W79713  20.167   2.309   2.698
18348W        W79714  20.528   8.298   2.895
18349W        W79715  41.936   9.827   3.698
18350W        W79716  12.195  44.755   3.370
18351W        W79717  41.309  21.019   3.206
18352W        W79718  43.982  21.568   1.247
18353W        W79719  30.550  13.203  13.416
18354W        W79720   1.309  21.652  13.339
18355W        W79721  34.084  19.239   2.887
18356W        W79722  28.964  44.961  14.963
18357W        W79723  26.696  24.644  13.030
18358W        W79724  15.710   3.291  12.358
18359W        W79725   6.238  27.499   1.820
18360W        W79726  13.692   8.301   4.220
18361W        W79727   7.814  10.859   4.218
18362W        W79728  35.877  20.217   2.832
18363W        W79729  31.996  21.752  14.479
18364W        W79730  27.548  42.344   1.289
18365W        W79731  31.562   3.909  12.419
18366W        W79732  25.206   5.327   5.193
18367W        W79733  16.663  23.994  13.905
18368W        W79734  26.092   6.242   3.839
18369W        W79735  33.950   9.328  11.073
18370W        W79736   2.242  25.706   3.798
18371W        W79737  20.552   3.384   1.871
18372W        W79738  38.980  37.453   0.349
18373W        W79739   5.199  35.895   2.842
18374W        W79740  15.807  32.435   0.902
18375W        W79741  13.761  35.592   4.238
18376W        W79742  34.962  15.710  10.140
18377W        W79743  44.962  28.617  12.021
18378W        W79744  28.550  22.202   3.147
18379W        W79745  19.051  20.527   3.695
18380W        W79746  12.146   7.678   4.785
18381W        W79747  36.007  31.599   2.180
18382W        W79748  29.481   1.820   0.460
18383W        W79749  26.532  27.533   1.773
18384W        W79750   9.227  34.864   3.310
18385W        W79751  15.135  27.985  14.398
18386W        W79752   9.777   6.357   3.266
18387W        W79753   2.316  39.039  14.490
18388W        W79754  43.004  22.037   0.458
18389W        W79755  42.331  33.550   0.793
18390W        W79756  25.130  44.763   0.373
18391W        W79757  36.018  28.026   4.671
18392W        W79758  34.427   8.822   3.860
18393W        W79759  29.932  27.181  10.507
18394W        W79760  19.147  29.644   0.437
18395W        W79761  39.532   2.325   0.936
18396W        W79762  37.543   7.320  11.574
18397W        W79763  15.705  18.140  11.921
18398W        W79764  44.454  17.773  10.613
18399W        W79765   4.344  19.557  11.598
18400W        W79766  12.650  32.949   0.408
18401W        W79767  18.730  44.419  14.431
18402W        W79768  22.117   9.784   0.823
18403W        W79769  23.603   5.830  14.774
18404W        W79770   9.874  37.517   1.246
18405W        W79771  35.054  31.430   1.860
18406W        W79772  32.554  16.088   3.739
18407W        W79773   0.919   4.799  13.847
18408W        W79774  42.524  18.196   3.830
18409W        W79775  29.464   1.471  13.964
18410W        W79776  16.275  17.728   0.947
18411W        W79777  40.935  13.603  11.563
18412W        W79778  16.644  41.927   1.811
18413W        W79779   4.411   4.408   2.828
18414W        W79780  43.864  32.519  11.024
18415W        W79781   4.411  37.542   3.846
18416W        W79782  20.080  23.150  14.501
18417W        W79783  32.018  22.176   0.397
18418W        W79784   1.394  11.808  12.909
18419W        W79785   1.768  21.206  14.955
18420W        W79786  12.745  26.472  11.454
18421W        W79787  16.184   6.412  11.858
18422W        W79788   0.953  43.777   3.212
18423W        W79789  15.600   6.220   1.332
18424W        W79790  36.977  35.580  11.123
18425W        W79791  32.119   8.749   4.674
18426W        W79792  22.196   2.835  14.881
18427W        W79793  14.808   9.390   2.390
18428W        W79794  39.331  18.160  11.129
18429W        W79795   9.861  34.461  12.530
18430W        W79796   8.702   1.468  12.010
18431W        W79797  35.936  36.013  14.010
18432W        W79798   6.739  26.150  12.345
18433W        W79799  13.105  31.026  12.045
18434W        W79800  41.007  38.004   0.898
18435W        W79801  29.141  28.538   3.834
18436W        W79802  15.202  39.837  11.448
18437W        W79803  22.226  10.209   9.967
18438W        W79804  14.652  12.791   1.807
18439W        W79805  22.136  18.104   3.799
18440W        W79806  31.468  42.898  10.605
18441W        W79807  40.930  18.278   4.720
18442W        W79808   5.287   5.298   4.186
18443W        W79809   2.822  44.777   4.353
18444W        W79810   8.787   6.378   9.954
18445W        W79811   6.837  35.051   0.805
18446W        W79812  23.729   2.401  12.985
18447W        W79813  40.021  15.095  11.583
18448W        W79814   9.379   1.786   1.363
18449W        W79815  40.882  42.434  11.019
18450W        W79816  26.198  30.955   0.314
18451W        W79817  43.948  40.816   0.438
18452W        W79818  21.154  18.660   5.143
18453W        W79819  28.989   7.226  13.917
18454W        W79820  39.979   1.392   3.703
18455W        W79821  13.322   2.733  11.605
18456W        W79822  10.708  37.354  11.024
18457W        W79823   1.319  22.508  13.887
18458W        W79824  15.305  36.406   0.935
18459W        W79825  32.542  34.376   2.310
18460W        W79826  35.525   7.291   1.928
18461W        W79827   2.246  17.642   3.195
18462W        W79828  18.215  42.866   4.803
18463W        W79829  41.043   5.813   3.798
18464W        W79830  33.967  18.698  10.960
18465W        W79831  42.943  20.673  14.503
18466W        W79832  41.793  41.025   1.765
18467W        W79833  40.321  36.087  13.481
18468W        W79834   9.749  12.226   2.226
18469W        W79835  13.240  38.939   2.717
18470W        W79836  26.019  39.427  14.906
18471W        W79837  15.744  42.481  11.001
18472W        W79838  33.499  28.121  12.878
18473W        W79839  15.276  39.061   3.332
18474W        W79840  17.306  15.821   0.809
18475W        W79841  43.397  21.185  13.532
18476W        W79842  32.559  39.354  12.953
18477W        W79843  14.588  23.651   3.193
18478W        W79844  16.238   6.855   2.877
18479W        W79845  39.830  27.654  12.954
18480W        W79846  34.453  39.443  12.028
18481W        W79847  22.692   5.822   2.672
18482W        W79848  15.745   7.700  13.965
18483W        W79849  13.763  41.392   0.739
18484W        W79850   0.415  42.461  10.501
18485W        W79851  28.137   1.797  14.306
18486W        W79852  33.984  13.297   1.315
18487W        W79853  11.238  26.164  11.520
18488W        W79854   2.748  31.443   9.670
18489W        W79855  41.827  41.873   1.424
18490W        W79856  22.055  21.606  14.845
18491W        W79857  20.628   2.862   3.856
18492W        W79858  34.396  29.997   3.842
18493W        W79859  36.537  23.089  13.803
18494W        W79860  22.636  28.585  14.913
18495W        W79861  29.058  39.029   2.330
18496W        W79862  32.005  25.173   1.731
18497W        W79863  35.922  19.644   3.351
18498W        W79864  28.484  22.013  12.357
18499W        W79865  27.691  29.519   3.152
18500W        W79866  25.604  35.484  12.537
18501W        W79867  43.966  37.845   0.855
18502W        W79868  18.721   2.780  11.022
18503W        W79869  39.338  20.202  12.523
18504W        W79870  36.347  31.637  14.897
18505W        W79871  40.018  12.214   0.246
18506W        W79872  35.475  40.901  14.893
18507W        W79873  25.599  15.706  14.990
18508W        W79874  22.654  43.972  12.537
18509W        W79875  23.121  22.144   1.406
18510W        W79876  13.724  24.552   1.340
18511W        W79877  27.567  35.498   4.834
18512W        W79878   3.239  38.001   5.183
18513W        W79879   0.915  44.972   2.703
18514W        W79880  39.894  41.792   4.245
18515W        W79881  27.670  11.220  10.945
18516W        W79882  38.393   8.320  13.886
18517W        W79883  24.637  14.194  12.382
18518W        W79884  31.104  40.381   2.392
18519W        W79885   9.344  16.738   0.918
18520W        W79886  28.479  14.797  14.441
18521W        W79887  32.450  38.506  12.997
18522W        W79888  32.082  23.593   0.890
18523W        W79889  19.575   9.322  12.933
18524W        W79890  40.348  12.631  14.818
18525W        W79891  28.980  34.414   1.919
18526W        W79892   4.721  17.125  12.019
18527W        W79893   8.828  35.418  13.933
18528W        W79894  15.092   5.424   1.300
18529W        W79895  38.853  44.381   1.832
18530W        W79896  27.668  34.107   4.276
18531W        W79897  19.128   0.330  11.010
18532W        W79898   2.235  31.932  13.924
18533W        W79899   8.278  15.585   1.344
18534W        W79900  13.801   4.385  10.547
18535W        W79901  26.538  27.455  11.372
18536W        W79902  27.016  41.965  13.967
18537W        W79903  19.200  11.358   0.929
18538W        W79904  28.560  30.546  10.949
18539W        W79905  21.125  29.174  11.105
18540W        W79906  21.665  24.604   0.803
18541W        W79907  44.337  12.130   1.878
18542W        W79908  40.991   4.295   1.249
18543W        W79909  35.039  20.162  13.895
18544W        W79910  44.977  42.946  10.565
18545W        W79911  27.641   6.329   4.772
18546W        W79912  17.178  24.492  13.906
18547W        W79913   3.810  29.541   5.207
18548W        W79914  27.159   4.935   3.153
18549W        W79915  37.550  22.208   4.637
18550W        W79916  10.372  17.690   0.398
18551W        W79917  33.600  19.179   3.679
18552W        W79918  11.729   3.348   5.139
18553W        W79919  16.623  27.185   1.393
18554W        W79920   0.778  37.382  12.371
18555W        W79921   5.901  20.148  13.872
18556W        W79922  44.492  14.325  10.554
18557W        W79923   9.268   3.758  11.495
18558W        W79924   1.388  22.079  10.541
18559W        W79925   7.289  33.449  11.480
18560W        W79926  27.940  22.218  13.883
18561W        W79927  10.255  39.354   3.697
18562W        W79928  31.413  39.433   3.209
18563W        W79929  13.213  27.644  13.058
18564W        W79930  24.497   3.710   1.345
18565W        W79931  41.960  41.333  10.939
18566W        W79932   7.830  35.873  13.535
18567W        W79933  37.026  16.225  12.504
18568W        W79934   7.883   4.257  13.834
18569W        W79935  22.201   9.264   0.929
18570W        W79936   5.722  25.983  11.421
18571W        W79937   2.368  33.569   3.682
18572W        W79938  28.635  40.048  13.897
18573W        W79939  29.030  13.108   1.843
18574W        W79940   2.924  27.577   0.905
18575W        W79941  27.488  32.920   3.159
18576W        W79942  41.361   4.828   0.344
18577W        W79943  34.888  41.451   2.671
18578W        W79944  20.221  22.506   0.303
18579W        W79945  24.576   9.885   3.870
18580W        W79946   3.220   5.427   3.304
18581W        W79947  34.099  23.564   3.344
18582W        W79948  41.910  11.232  13.039
18583W        W79949  39.816  28.943   4.331
18584W        W79950   3.238  13.820   0.800
18585W        W79951  42.361  12.648   1.889
18586W        W79952  32.893  13.351  12.442
18587W        W79953  35.105  43.450  12.845
18588W        W79954   1.426  17.565   1.813
18589W        W79955  30.517   5.808  12.042
18590W        W79956   4.853  41.980   4.777
18591W        W79957  15.748  20.030  13.320
18592W        W79958  22.119  42.930  12.478
18593W        W79959  41.893  41.853   2.696
18594W        W79960  21.572  20.165   3.205
18595W        W79961  11.175  33.012  11.559
18596W        W79962   1.320  33.420  13.524
18597W        W79963  34.402   4.262   2.808
18598W        W79964  36.962   0.970  12.509
18599W        W79965  22.080  12.315  11.950
18600W        W79966  43.472  32.507  11.418
18601W        W79967  39.031  13.206  13.796
18602W        W79968  33.983  17.176   0.483
18603W        W79969   5.340  13.232  14.016
18604W        W79970  35.377  26.986   2.815
18605W        W79971  21.732   0.796  13.833
18606W        W79972   6.710   7.780  10.909
18607W        W79973   9.687   1.823   1.447
18608W        W79974  36.007  41.036   2.807
18609W        W79975  44.264  39.506  10.608
18610W        W79976   6.306  15.299   3.267
18611W        W79977  40.421   5.397   0.340
18612W        W79978  27.008  28.673   3.636
18613W        W79979  22.531  11.717   1.337
18614W        W79980  28.539  11.144   4.298
18615W        W79981  37.385   6.260   4.137
18616W        W79982   5.218  19.223   0.803
18617W        W79983  14.316  28.593   1.253
18618W        W79984  11.702  30.044  10.041
18619W        W79985  17.638  12.146   1.822
18620W        W79986  20.073  26.088  11.970
18621W        W79987  10.253  15.606   4.337
18622W        W79988   9.846  26.539   2.802
18623W        W79989   5.205  29.145   1.377
18624W        W79990   0.477  10.368   0.857
18625W        W79991   5.836   3.296   2.790
18626W        W79992  35.084  39.840   1.913
18627W        W79993   5.322  43.380  14.991
18628W        W79994  13.217   7.689  11.599
18629W        W79995  11.642  19.055   4.157
18630W        W79996   0.793   7.734  13.899
18631W        W79997  26.490  13.684   2.669
18632W        W79998  41.826   3.314  11.049
18633W        W79999  10.701  21.746   0.785
18634W        W80000   8.279  23.565   2.706
18635W        W80001  41.974  12.292  11.944
18636W        W80002   0.746  15.786   1.330
18637W        W80003   4.427  31.911   2.311
18638W        W80004  40.928   0.269   4.267
18639W        W80005  41.478  36.854   0.963
18640W        W80006  19.262  43.345  13.394
18641W        W80007  22.056  40.407   0.843
18642W        W80008  11.233   2.447  13.974
18643W        W80009  22.110  31.056  11.581
18644W        W80010   0.478  18.231   4.266
18645W        W80011  20.621  35.032  14.823
18646W        W80012  14.153  11.228   0.901
18647W        W80013  14.268  41.524   4.761
18648W        W80014  31.090  12.710   2.770
18649W        W80015  17.600   6.253  12.021
18650W        W80016  31.554  16.143  13.360
18651W        W80017  42.360  25.171   4.353
18652W        W80018  21.517  36.012  14.799
18653W        W80019  23.073  29.653   2.662
18654W        W80020  42.836   8.664  13.907
18655W        W80021  30.452  26.476   0.936
18656W        W80022  13.632  20.610   2.368
18657W        W80023  10.277  18.053  13.055
18658W        W80024  24.624  20.551  13.011
18659W        W80025  26.184   0.957  14.380
18660W        W80026   7.746  19.719   3.802
18661W        W80027  43.831  42.486   2.809
18662W        W80028   2.360  42.924   1.280
18663W        W80029  25.046  40.446   0.312
18664W        W80030  29.551  22.202  12.425
18665W        W80031  36.053  23.578  11.102
18666W        W80032  38.551  13.671   4.792
18667W        W80033  38.076  32.468   3.744
18668W        W80034  21.535  12.856  12.049
18669W        W80035  24.597  38.563  11.055
18670W        W80036  34.501  39.359   1.407
18671W        W80037  26.100  32.571  13.844
18672W        W80038   8.247  38.831   1.223
18673W        W80039  21.107  22.246  12.558
18674W        W80040  33.946   5.708  10.528
18675W        W80041   6.384  16.308   1.436
18676W        W80042  20.558   7.323   2.203
18677W        W80043   8.790  43.989  11.956
18678W        W80044   3.405  24.192  13.972
18679W        W80045   2.320   8.794  11.394
18680W        W80046   2.802  40.388   4.753
18681W        W80047  38.925   2.806  11.382
18682W        W80048  36.911  18.164   3.321
18683W        W80049   6.813  11.187   0.765
18684W        W80050   1.807  40.400   2.867
18685W        W80051  27.523  26.175   3.323
18686W        W80052  26.646  39.850  11.950
18687W        W80053  13.256   7.329  10.113
18688W        W80054  27.670  40.427  14.464
18689W        W80055  24.154  36.351  10.968
18690W        W80056   7.236  44.371   1.774
18691W        W80057  33.555  26.049   4.764
18692W        W80058  34.514   6.383   0.464
18693W        W80059   2.964   9.784   3.342
18694W        W80060   0.463  29.997  12.023
18695W        W80061  14.329  32.116  13.991
18696W        W80062  33.427  34.039   0.444
18697W        W80063  22.055   2.236  11.589
18698W        W80064  38.437  25.656   0.255
18699W        W80065   6.872   2.843  13.860
18700W        W80066   2.232  33.945  12.060
18701W        W80067  14.647  39.384   4.752
18702W        W80068  39.003   1.405   3.865
18703W        W80069  17.556  29.960  13.497
18704W        W80070  21.628  12.726  10.410
18705W        W80071  43.427  35.484   3.737
18706W        W80072   8.176  15.758  13.934
18707W        W80073  23.177  40.968  13.421
18708W        W80074  41.938  40.826  11.862
18709W        W80075   2.958  26.663   2.758
18710W        W80076  16.215  30.653  10.889
18711W        W80077  13.285  12.698  13.533
18712W        W80078   7.886  29.493   0.838
18713W        W80079  26.587  19.185  12.843
18714W        W80080  21.076  20.587   0.879
18715W        W80081  42.815  39.030  11.868
18716W        W80082  15.208  38.856   0.290
18717W        W80083   5.827  26.969   4.326
18718W        W80084   7.413  20.687   4.833
18719W        W80085  10.841  37.887  11.461
18720W        W80086  36.977  35.503  12.933
18721W        W80087  31.536  27.596  11.453
18722W        W80088  27.065   8.252  13.337
18723W        W80089   5.859  29.535  10.498
18724W        W80090  13.764  35.041   0.811
18725W        W80091  22.155   3.440  10.954
18726W        W80092  16.148  22.531   2.381
18727W        W80093   4.719  33.480  12.571
18728W        W80094  37.412   0.983  12.885
18729W        W80095   1.853  34.013   0.802
18730W        W80096  44.757   6.851   2.331
18731W        W80097  40.499   4.771  11.373
18732W        W80098  41.999  36.493  14.804
18733W        W80099  35.885  41.043   1.831
18734W        W80100  40.888   7.355   4.332
18735W        W80101  43.965   5.381   3.307
18736W        W80102  25.984  12.653  11.499
18737W        W80103  40.000  20.037   2.416
18738W        W80104   8.406  38.568   1.293
18739W        W80105  23.028   8.809  13.858
18740W        W80106   2.953  25.970   4.293
18741W        W80107  40.001  11.863  11.604
18742W        W80108  15.196  17.219   4.639
18743W        W80109  21.597  31.599   1.751
18744W        W80110  15.643  34.593  12.360
18745W        W80111  36.407   5.404  12.023
18746W        W80112  35.430   5.404  13.528
18747W        W80113  22.033  13.167  11.902
18748W        W80114   5.230   9.777   1.743
18749W        W80115  19.132   2.844  10.435
18750W        W80116   1.766   0.425  11.420
18751W        W80117  44.465  16.278   1.438
18752W        W80118  20.206  11.644   3.803
18753W        W80119  18.745   8.245   4.140
18754W        W80120   9.319   0.362  13.309
18755W        W80121   3.891  22.045  14.830
18756W        W80122  19.056  41.421  13.478
18757W        W80123   3.423   5.268  10.597
18758W        W80124  34.041  27.671   1.395
18759W        W80125  34.490  14.775  14.326
18760W        W80126  29.063  33.016  11.503
18761W        W80127  25.035  12.140  13.444
18762W        W80128  37.999  15.315   4.779
18763W        W80129   8.335   6.191  11.484
18764W        W80130  35.942  39.843   4.833
18765W        W80131  37.413   7.250  11.949
18766W        W80132  32.124  27.511   1.830
18767W        W80133   2.389  11.640   1.745
18768W        W80134  25.057  40.996   2.772
18769W        W80135  41.303  20.052   4.745
18770W        W80136   0.919  17.115  10.473
18771W        W80137   4.856  43.858   3.296
18772W        W80138  10.164  26.636  13.044
18773W        W80139  16.617  29.542  11.875
18774W        W80140  43.955  12.717  13.546
18775W        W80141  34.543  28.162   1.428
18776W        W80142   1.800  21.030  10.458
18777W        W80143  14.279  10.226  13.461
18778W        W80144  32.108  21.191   2.784
18779W        W80145  42.802  34.486   3.662
18780W        W80146   5.731   8.798   4.715
18781W        W80147  39.339  29.032  14.979
18782W        W80148  39.040  11.180   4.606
18783W        W80149  13.659  25.131  11.916
18784W        W80150  26.173  33.093   4.133
18785W        W80151  20.179  20.117  13.929
18786W        W80152   7.861  14.796   2.680
18787W        W80153   5.716  28.111  12.008
18788W        W80154  40.454  17.077  12.900
18789W        W80155  42.929  35.025   5.133
18790W        W80156  27.010  30.078   5.208
18791W        W80157   5.299   5.900   2.781
18792W        W80158  41.525  42.871  11.929
18793W        W80159  38.548  32.563   0.288
18794W        W80160  28.107  14.589  13.830
18795W        W80161  30.979  21.196  12.086
18796W        W80162   7.393  21.624   3.713
18797W        W80163   9.250  14.745  12.356
18798W        W80164  16.216   8.658   0.930
18799W        W80165  38.941  35.054  10.412
18800W        W80166  34.431  23.728   3.672
18801W        W80167  10.747   0.289  10.894
18802W        W80168  43.387  23.021  13.826
18803W        W80169  41.022  37.044  12.067
18804W        W80170  44.497  43.374   0.896
18805W        W80171  20.237   8.774  10.969
18806W        W80172  35.965   5.367  11.018
18807W        W80173  12.141  40.481  13.351
18808W        W80174  26.650  37.469  11.967
18809W        W80175  27.150   7.298   4.703
18810W        W80176   7.847  22.539  13.791
18811W        W80177  23.584  27.083  14.428
18812W        W80178  37.504  20.228  11.554
18813W        W80179  35.600  10.808  14.509
18814W        W80180  25.050   2.331   1.905
18815W        W80181  21.746  21.688  10.618
18816W        W80182  34.411  41.820   4.175
18817W        W80183  11.175  17.112   1.900
18818W        W80184  21.548  28.636   1.732
18819W        W80185  12.195   2.763   2.835
18820W        W80186  10.274  40.304   3.202
18821W        W80187  21.212  38.866   4.236
18822W        W80188  35.900  35.871  12.446
18823W        W80189  32.134  10.159   0.807
18824W        W80190   3.303   6.253   4.722
18825W        W80191  11.267  44.356  14.318
18826W        W80192  35.008  35.413  11.986
18827W        W80193  13.270   7.725  13.544
18828W        W80194  22.644  43.273  12.558
18829W        W80195  20.754  44.443   1.933
18830W        W80196  37.086  15.809   1.394
18831W        W80197  43.504  44.387   2.749
18832W        W80198  35.938  28.575  12.951
18833W        W80199  39.912  15.577  14.914
18834W        W80200  40.891  18.658   4.600
18835W        W80201  26.176  25.626   3.331
18836W        W80202   1.310  43.811   3.816
18837W        W80203   0.825  31.054  11.469
18838W        W80204   7.237   1.908   0.767
18839W        W80205  11.817  44.798   2.310
18840W        W80206  42.781  32.936  14.916
18841W        W80207  42.951  36.001   4.233
18842W        W80208  10.198  10.641   3.700
18843W        W80209  23.196   4.773   1.384
18844W        W80210  40.829  23.230  11.512
18845W        W80211  18.665  11.264   0.299
18846W        W80212  41.969  33.411  13.426
18847W        W80213  19.072  30.437  14.882
18848W        W80214  17.749  13.795   4.778
18849W        W80215  22.624  39.820  13.402
18850W        W80216  15.713  27.642  10.935
18851W        W80217  40.838  19.139   0.387
18852W        W80218  38.975  27.630  14.825
18853W        W80219  32.910  36.986   4.692
18854W        W80220  27.089   6.779   1.934
18855W        W80221  14.765   6.226   3.334
18856W        W80222   0.970   7.216   2.295
18857W        W80223  36.886  40.797  14.934
18858W        W80224  34.459  32.002  10.012
18859W        W80225  27.087  40.034  12.975
18860W        W80226  29.521   1.252   2.313
18861W        W80227  28.492  16.180  12.053
18862W        W80228   5.883   3.877  11.484
18863W        W80229  21.591  35.370  11.103
18864W        W80230  23.728  10.781   0.382
18865W        W80231  42.991   0.889   4.836
18866W        W80232  43.010  34.577  12.359
18867W        W80233  17.128  26.627  11.607
18868W        W80234  28.509  25.130   2.838
18869W        W80235  38.547  18.666   1.743
18870W        W80236  31.078  24.990   0.796
18871W        W80237  27.025  13.288   1.339
18872W        W80238   5.847  11.778   2.398
18873W        W80239   3.395   5.416   4.342
18874W        W80240   4.726  43.952   0.753
18875W        W80241  36.890  40.911   0.389
18876W        W80242  32.896   2.844  13.873
18877W        W80243  41.447  32.913  14.371
18878W        W80244  40.482  18.763   5.083
18879W        W80245   8.799  43.991   1.721
18880W        W80246  40.379  44.347  10.619
18881W        W80247  33.527  10.267   1.226
18882W        W80248  10.721  29.633   2.690
18883W        W80249  38.919  37.963  13.801
18884W        W80250  16.804  42.444   4.730
18885W        W80251  27.576  38.875   4.244
18886W        W80252  33.479  41.523   3.153
18887W        W80253  10.716   0.276   3.260
18888W        W80254  42.954  29.534   5.100
18889W        W80255  34.471  14.191  11.910
18890W        W80256  10.641  14.162   1.763
18891W        W80257  41.953  38.398  11.410
18892W        W80258  41.887  30.961  13.360
18893W        W80259  43.475  42.945   4.736
18894W        W80260  37.028   4.808  11.866
18895W        W80261   1.435  38.903  14.890
18896W        W80262  19.751   8.269  14.825
18897W        W80263  35.405  25.194  10.625
18898W        W80264  18.633  12.850  13.340
18899W        W80265  42.438  25.477   2.678
18900W        W80266  21.037  19.650   5.170
18901W        W80267   3.226  31.614   2.866
18902W        W80268  34.501  19.715   1.326
18903W        W80269  20.196  42.299  13.389
18904W        W80270  41.437  25.667   1.764
18905W        W80271  29.634  26.517   2.220
18906W        W80272  13.126   1.773   0.481
18907W        W80273  11.737  11.250   2.862
18908W        W80274   1.800  44.408  12.581
18909W        W80275  17.761   6.290   4.292
18910W        W80276   8.167  37.339   0.251
18911W        W80277  28.447  38.465   4.687
18912W        W80278   5.927  14.753   4.649
18913W        W80279  22.109  15.309  11.018
18914W        W80280  38.925  20.739  14.992
18915W        W80281  30.596   3.945   4.789
18916W        W80282  23.712  44.760   2.771
18917W        W80283   3.771  42.472   0.909
18918W        W80284  36.473  43.398  14.388
18919W        W80285  33.393   0.927   4.704
18920W        W80286  10.232  41.924  13.002
18921W        W80287  36.954  26.087   3.210
18922W        W80288  10.314  19.703   9.947
18923W        W80289  38.042   8.718   0.306
18924W        W80290  33.433  26.165  12.474
18925W        W80291  10.343  40.453  14.340
18926W        W80292  25.008  44.876  14.858
18927W        W80293  39.904  13.765   4.315
18928W        W80294   3.416  19.626  12.854
18929W        W80295  30.044  43.961  13.045
18930W        W80296  29.654  17.085   3.252
18931W        W80297  16.703  16.619   0.930
18932W        W80298   9.206  10.270  10.073
18933W        W80299  30.508  33.516   2.670
18934W        W80300  13.269   9.240   2.204
18935W        W80301  31.532  25.031   3.221
18936W        W80302  42.354  41.874   0.334
18937W        W80303  31.949  37.367   4.620
18938W        W80304  23.079   4.941  12.028
18939W        W80305  23.681  10.232  11.383
18940W        W80306  42.024  11.796  10.497
18941W        W80307   0.267  29.983  14.279
18942W        W80308  13.152  27.644   3.148
18943W        W80309  20.091  36.013   2.791
18944W        W80310  16.136  39.900   4.216
18945W        W80311  19.638  44.772   4.737
18946W        W80312  13.304  12.222   2.180
18947W        W80313   5.833  10.327  12.509
18948W        W80314  15.721  26.097   2.404
18949W        W80315  19.096  32.637   3.750
18950W        W80316   5.814  27.471  12.524
18951W        W80317  29.540  38.822   5.088
18952W        W80318  24.212   7.408   2.297
18953W        W80319  31.571   8.682  13.898
18954W        W80320  39.330   8.654  13.951
18955W        W80321  42.823  19.754  11.964
18956W        W80322  41.933  23.226  14.774
18957W        W80323  25.018   2.740  14.329
18958W        W80324  28.050  37.047  10.562
18959W        W80325  17.581  17.668   4.659
18960W        W80326  21.240   8.700   3.712
18961W        W80327  27.662  41.388  14.910
18962W        W80328  12.737  20.058   0.947
18963W        W80329  12.156  39.062   4.263
18964W        W80330   7.263  20.646   1.911
18965W        W80331  38.449   5.370   2.704
18966W        W80332  24.092  25.613  12.080
18967W        W80333  39.942  31.000  14.366
18968W        W80334  20.712  19.588  10.643
18969W        W80335  38.449  40.505   1.366
18970W        W80336  11.868   4.730   0.798
18971W        W80337   1.751  11.200  14.835
18972W        W80338  38.420  14.737   3.846
18973W        W80339  41.034  18.070  11.976
18974W        W80340  39.042  14.633  14.471
18975W        W80341  30.941  40.990   3.764
18976W        W80342  22.595  10.193   5.184
18977W        W80343   3.934  31.955  14.481
18978W        W80344  20.600  43.429   2.825
18979W        W80345  23.204  32.475  12.418
18980W        W80346  28.107  28.518   0.257
18981W        W80347   8.726   5.274   9.945
18982W        W80348  11.644  34.954   4.670
18983W        W80349  14.272  26.538  14.797
18984W        W80350  32.575  18.098   4.797
18985W        W80351  23.095  13.799  13.377
18986W        W80352  29.456   4.744   9.951
18987W        W80353   4.781  20.744   0.401
18988W        W80354  13.252  37.970  14.482
18989W        W80355   9.667   2.864   4.623
18990W        W80356  11.193   5.252  12.907
18991W        W80357  11.630  21.561   1.710
18992W        W80358  18.072  34.031   2.341
18993W        W80359  40.045  18.664   3.357
18994W        W80360  39.331  32.630  14.997
18995W        W80361  42.841  44.993  13.511
18996W        W80362   9.758   9.804  12.058
18997W        W80363   2.877  25.527   4.270
18998W        W80364  11.184  41.346   1.841
18999W        W80365  22.045   1.372   0.355
19000W        W80366   7.756   7.734   1.357
19001W        W80367  11.198   1.430   1.915
19002W        W80368  12.618  27.477  12.066
19003W        W80369  16.290  22.107   2.769
19004W        W80370  31.408   1.312   0.427
19005W        W80371  12.737  13.294  10.967
19006W        W80372  10.746  23.158  10.941
19007W        W80373  15.184  12.280   1.747
19008W        W80374   3.731   1.338   2.771
19009W        W80375  21.556  35.009  12.883
19010W        W80376   9.752   7.775   0.412
19011W        W80377  43.485   7.849  13.463
19012W        W80378  38.925   7.230   2.861
19013W        W80379  15.613  37.375  13.860
19014W        W80380  18.276  33.569  14.883
19015W        W80381  15.317  31.129   0.788
19016W        W80382   9.293   1.244  14.924
19017W        W80383  44.331  43.396   2.341
19018W        W80384  10.378   0.255  14.277
19019W        W80385  14.274   7.367  13.020
19020W        W80386   3.459  24.642  14.960
19021W        W80387  37.885  22.172  13.063
19022W        W80388  41.307   0.883   2.669
19023W        W80389  39.947  35.945   2.316
19024W        W80390  21.134   9.802   1.745
19025W        W80391  16.234  31.413   3.662
19026W        W80392  42.000   9.701  13.888
19027W        W80393   4.805  23.541   4.126
19028W        W80394  25.665  20.654  14.796
19029W        W80395  35.519  35.894   2.714
19030W        W80396  31.477  26.484   3.192
19031W        W80397  12.156  24.614  14.880
19032W        W80398  13.778  22.579  11.874
19033W        W80399   3.865  32.970   3.702
19034W        W80400  26.466  41.466   4.686
19035W        W80401  26.463  38.363   4.693
19036W        W80402  23.539   7.310  14.985
19037W        W80403   6.828  41.795  13.314
19038W        W80404  14.595  38.339  13.500
19039W        W80405  38.389  37.959   0.956
19040W        W80406  14.220  30.456  13.837
19041W        W80407  18.581   8.362  10.630
19042W        W80408  33.530   3.313   1.289
19043W        W80409  15.100  25.057   0.380
19044W        W80410   5.910  22.634  13.030
19045W        W80411  14.695  17.790  10.910
19046W        W80412  10.669  32.894   4.616
19047W        W80413  13.721  43.323  11.903
19048W        W80414  16.226  21.657  14.325
19049W        W80415  41.503  36.866   1.318
19050W        W80416  35.089  38.989  14.843
19051W        W80417  35.485   2.409  12.083
19052W        W80418  29.930   6.728   2.668
19053W        W80419  44.270   7.203   3.250
19054W        W80420  33.917  25.972  14.345
19055W        W80421  17.790  21.115  13.004
19056W        W80422  31.017  35.407  10.996
19057W        W80423  38.916   2.433  12.860
19058W        W80424  10.743  12.653  11.391
19059W        W80425  40.840  31.132  13.483
19060W        W80426  18.713  18.271  11.057
19061W        W80427   1.343   1.827  12.343
19062W        W80428  10.160  29.139  12.986
19063W        W80429   2.904  34.025  13.930
19064W        W80430  21.714  23.730   3.691
19065W        W80431  13.746  41.891  13.036
19066W        W80432  35.882  18.293   1.314
19067W        W80433  18.735  42.970   5.084
19068W        W80434  32.533   9.386   0.837
19069W        W80435  23.549  27.073  13.063
19070W        W80436  32.432  37.508  11.437
19071W        W80437  27.126   5.780  11.605
19072W        W80438   1.743  44.846   0.274
19073W        W80439  22.218  15.684  14.304
19074W        W80440  29.142  35.513  12.410
19075W        W80441  17.105  36.416   1.833
19076W        W80442  34.890  34.982  11.062
19077W        W80443  32.089  44.454  14.402
19078W        W80444  31.069  12.300   2.902
19079W        W80445  29.458  21.102   3.690
19080W        W80446   9.321  28.515   3.736
19081W        W80447  18.085  10.149  11.413
19082W        W80448  20.594  15.153  12.853
19083W        W80449  25.095  13.170   1.845
19084W        W80450   0.326  21.705   0.360
19085W        W80451  31.402  23.212   1.322
19086W        W80452   7.349   6.844  13.041
19087W        W80453  28.486  40.865  11.065
19088W        W80454   5.818  44.784   0.337
19089W        W80455  26.536   3.335   5.108
19090W        W80456  11.174   5.398  11.978
19091W        W80457  21.168  44.289   4.817
19092W        W80458  34.949  33.114   0.447
19093W        W80459  41.517   1.343   1.288
19094W        W80460  32.095   2.449   0.962
19095W        W80461   3.289   5.417  12.916
19096W        W80462  19.574  36.896  11.965
19097W        W80463  16.786  26.503  12.528
19098W        W80464   5.735  40.354  12.058
19099W        W80465  23.517  44.932  10.641
19100W        W80466   2.903  33.931  12.441
19101W        W80467  21.606   2.360  14.339
19102W        W80468  14.713  40.447  11.058
19103W        W80469   6.385  17.068  13.839
19104W        W80470   7.897  18.069   2.713
19105W        W80471   0.357  19.061   3.808
19106W        W80472  26.183  44.497  14.441
19107W        W80473   5.226  16.185   0.953
19108W        W80474  44.413  33.130   4.324
19109W        W80475  17.266  24.509  11.407
19110W        W80476  15.818  39.997  13.958
19111W        W80477  35.952  24.661  11.866
19112W        W80478   1.374  14.249  13.903
19113W        W80479  27.055   3.848  14.951
19114W        W80480  28.936  43.328  10.892
19115W        W80481  28.677  37.532  12.061
19116W        W80482  30.529  27.686   1.432
19117W        W80483  40.385  43.946  10.584
19118W        W80484  17.232  21.250  13.385
19119W        W80485   1.252  22.676   3.777
19120W        W80486  44.430  36.867   1.345
19121W        W80487  10.212  20.127  13.987
19122W        W80488  14.646  41.367  12.007
19123W        W80489  14.668  19.199  13.524
19124W        W80490   9.848  29.140   4.697
19125W        W80491   6.738  34.448   0.446
19126W        W80492   9.389  34.535  14.342
19127W        W80493  16.628  23.200   2.664
19128W        W80494  36.480  40.374   5.270
19129W        W80495  34.112  33.623  12.041
19130W        W80496   5.198   5.436   1.221
19131W        W80497   9.189  28.118   2.279
19132W        W80498  16.800  28.624   3.326
19133W        W80499  43.856   9.880  13.062
19134W        W80500   8.348  18.217  12.940
19135W        W80501  42.875  32.545  13.825
19136W        W80502  38.908  33.965   3.349
19137W        W80503  29.932  29.623   5.081
19138W        W80504  31.051   7.737  14.838
19139W        W80505  38.857  24.210   0.300
19140W        W80506  17.081  16.291   3.791
19141W        W80507  22.047  24.195  13.318
19142W        W80508   1.333   5.880  11.046
19143W        W80509  34.050   5.413   0.883
19144W        W80510  19.070  32.438   2.405
19145W        W80511  44.983  10.829   2.774
19146W        W80512  11.214  19.186   3.662
19147W        W80513  15.782  19.580   2.238
19148W        W80514  20.183  40.981  13.867
19149W        W80515  20.234  40.911  13.516
19150W        W80516  39.385  20.536  11.859
19151W        W80517  40.352  33.047   0.372
19152W        W80518  14.232  22.618  12.511
19153W        W80519  43.821  26.591  13.948
19154W        W80520  30.591  39.923  12.013
19155W        W80521   9.795   3.235   4.244
19156W        W80522  40.974  28.054   1.926
19157W        W80523  17.658   6.870   2.315
19158W        W80524  38.393   0.839   0.958
19159W        W80525   7.381  25.679   0.804
19160W        W80526   2.776   6.693   3.720
19161W        W80527  13.333  27.448  12.576
19162W        W80528   1.328  35.494  14.914
19163W        W80529   9.209  25.113  14.804
19164W        W80530  34.519  12.222  13.407
19165W        W80531  32.497  13.761   2.394
19166W        W80532  33.592   9.723   3.300
19167W        W80533  32.395  18.759  11.945
19168W        W80534   5.331  11.744  10.415
19169W        W80535  22.182  32.574  11.109
19170W        W80536  22.105  29.927   4.636
19171W        W80537   1.330  29.026  14.323
19172W        W80538  41.955   2.440  14.354
19173W        W80539   4.865  12.208   1.324
19174W        W80540  15.139  17.222  12.859
19175W        W80541  21.030  40.990   1.378
19176W        W80542  32.518  42.361   2.386
19177W        W80543   8.223  14.714   3.657
19178W        W80544  42.299  40.809  12.924
19179W        W80545  43.416  33.611   4.331
19180W        W80546  19.124  31.024  13.930
19181W        W80547   1.463  44.366  14.000
19182W        W80548  11.259   9.746  11.884
19183W        W80549  25.156  39.387   4.192
19184W        W80550  31.919  37.965  10.617
19185W        W80551  24.623   9.181   4.233
19186W        W80552   5.318  32.038  13.337
19187W        W80553   6.346  37.070   0.911
19188W        W80554  10.171  37.453  14.450
19189W        W80555   9.309  15.691  14.391
19190W        W80556   2.849  43.815   3.332
19191W        W80557  39.040   8.289  11.985
19192W        W80558  32.583  16.627  12.929
19193W        W80559  21.642   5.725  10.889
19194W        W80560   9.294   8.268  11.886
19195W        W80561  12.752  39.902  12.489
19196W        W80562  29.438  27.649  14.489
19197W        W80563  20.207  22.039  12.885
19198W        W80564  12.308  25.153  14.788
19199W        W80565  10.787  14.160  14.421
19200W        W80566  19.165  37.040  14.967
19201W        W80567  23.697  28.439  11.959
19202W        W80568  29.552  39.851   1.729
19203W        W80569  40.911  26.701   0.328
19204W        W80570  39.504  28.610   4.238
19205W        W80571   9.659  32.520  10.488
19206W        W80572  27.126  21.260  14.003
19207W        W80573  17.758  11.660   1.323
19208W        W80574  42.777  26.598   0.383
19209W        W80575  28.474   5.397  13.904
19210W        W80576   1.305  40.883  14.431
19211W        W80577  42.873  23.001   4.337
19212W        W80578  26.110  12.642   1.865
19213W        W80579  28.091   9.220  10.551
19214W        W80580  28.513  12.745  13.905
19215W        W80581   7.909  37.861  12.500
19216W        W80582  14.735  24.599   3.379
19217W        W80583  33.967  15.104  11.445
19218W        W80584   8.805  14.823  11.485
19219W        W80585  37.902   6.801  11.408
19220W        W80586  16.682   8.859  14.306
19221W        W80587  11.149  35.076   0.902
19222W        W80588  12.356  10.172  12.476
19223W        W80589  12.293  39.331  11.490
19224W        W80590  14.629  19.631  12.561
19225W        W80591  14.173  38.876  11.601
19226W        W80592  28.972  19.728   4.331
19227W        W80593  35.422  11.770   2.756
19228W        W80594  20.619  43.878  13.849
19229W        W80595  37.431  33.523  13.933
19230W        W80596  24.059   2.408  11.900
19231W        W80597  16.192  44.403  14.918
19232W        W80598   3.943  20.754  13.347
19233W        W80599  35.952   1.887   3.291
19234W        W80600  31.565  27.600   4.683
19235W        W80601  40.406  22.613   2.248
19236W        W80602  23.064  30.073  12.840
19237W        W80603   5.747  29.056   1.730
19238W        W80604  26.164   7.705   0.899
19239W        W80605  27.023   8.785  14.998
19240W        W80606   1.857  20.250  12.384
19241W        W80607  44.955  38.439   2.207
19242W        W80608  10.220   2.265  11.527
19243W        W80609  18.141   4.257  12.374
19244W        W80610  39.393  28.004  10.498
19245W        W80611  32.601  42.296  12.448
19246W        W80612   3.792   8.257   4.640
19247W        W80613  28.152  36.355   1.259
19248W        W80614  35.496  30.444  12.514
19249W        W80615  34.088   6.410   1.377
19250W        W80616   1.343  15.240   1.298
19251W        W80617  41.030  21.749   2.269
19252W        W80618  18.085  21.530  10.599
19253W        W80619   7.360   6.412   0.263
19254W        W80620  42.319  23.023   0.351
19255W        W80621  20.652  27.502   3.857
19256W        W80622  34.424  17.689   3.688
19257W        W80623  19.081  10.378   1.221
19258W        W80624  30.111  38.856   4.137
19259W        W80625  25.964  12.636   2.318
19260W        W80626   1.810  43.358  11.947
19261W        W80627  11.241  33.944  12.836
19262W        W80628  39.884  41.917  10.520
19263W        W80629  43.950  20.035  11.494
19264W        W80630   6.242  22.035   4.711
19265W        W80631  30.488  40.525   9.929
19266W        W80632   9.699  20.115  13.898
19267W        W80633   2.446  10.737  12.053
19268W        W80634  35.442  40.053   5.303
19269W        W80635  13.113  18.241   2.332
19270W        W80636  18.192  33.125   0.752
19271W        W80637  38.008  20.633   2.835
19272W        W80638  22.068  22.195   3.647
19273W        W80639  43.460  37.005   4.127
19274W        W80640  34.050  10.825   3.698
19275W        W80641  28.061  40.998  12.928
19276W        W80642  27.660   9.242   1.748
19277W        W80643   8.794  19.242   1.277
19278W        W80644  28.965  39.952   1.752
19279W        W80645  44.360  16.693  10.534
19280W        W80646  36.907   2.866  12.043
19281W        W80647  35.531  25.643  10.504
19282W        W80648  13.193  17.709   9.471
19283W        W80649  25.998  11.782  11.446
19284W        W80650  32.890  37.872  10.642
19285W        W80651  35.085  31.021   1.353
19286W        W80652  17.714   7.211   4.298
19287W        W80653   7.799  36.076  11.455
19288W        W80654  16.713  24.080   4.144
19289W        W80655  11.369  16.686   2.681
19290W        W80656  11.739  15.712  10.606
19291W        W80657  18.676  37.003   3.645
19292W        W80658  28.946  28.557  13.003
19293W        W80659  20.665  27.525   2.394
19294W        W80660   0.949  42.379   3.775
19295W        W80661  38.373   7.761  12.382
19296W        W80662  20.265  20.661  13.359
19297W        W80663   4.269   9.671   2.673
19298W        W80664  39.456   7.907   0.732
19299W        W80665  10.372   0.267   2.280
19300W        W80666   5.230  34.888  10.039
19301W        W80667  14.170  22.572  13.403
19302W        W80668  31.091  23.047  12.851
19303W        W80669  27.451  28.128   3.704
19304W        W80670  34.538  25.093   4.162
19305W        W80671  11.216   0.771  13.973
19306W        W80672  36.394  17.120  13.448
19307W        W80673  33.975  32.533  13.989
19308W        W80674  16.649  32.906  13.902
19309W        W80675  13.623  28.450   0.361
19310W        W80676  23.514   1.973   1.928
19311W        W80677  26.652  43.476   3.310
19312W        W80678  31.614   2.377   2.682
19313W        W80679   5.726   4.251   0.734
19314W        W80680  35.598  33.015  10.566
19315W        W80681  31.933   9.206   0.807
19316W        W80682   8.253  37.391   1.250
19317W        W80683  18.707  42.352   2.853
19318W        W80684  22.675  10.262  13.000
19319W        W80685  36.394  18.695  13.936
19320W        W80686  32.997  10.782  13.007
19321W        W80687  43.781  10.876  11.504
19322W        W80688   8.162  37.904  13.914
19323W        W80689   5.783  13.211   4.178
19324W        W80690  32.045  17.201   3.227
19325W        W80691  12.808  22.056   1.285
19326W        W80692  30.504  12.211   1.239
19327W        W80693  29.434  18.632  14.480
19328W        W80694  23.138   5.399  13.313
19329W        W80695  27.577  19.178  12.024
19330W        W80696  16.311   3.383   5.214
19331W        W80697   1.878  15.109  11.858
19332W        W80698  30.113   4.437  14.948
19333W        W80699  27.474  41.536  10.612
19334W        W80700   3.387  22.128  13.340
19335W        W80701  41.849  22.056  11.112
19336W        W80702  20.237  41.852  13.951
19337W        W80703   5.919   3.412  10.548
19338W        W80704  16.659  14.739   1.422
19339W        W80705  39.393   9.777   0.359
19340W        W80706   1.401  38.861  11.991
19341W        W80707  11.207  28.045   2.670
19342W        W80708   0.280  29.043  10.095
19343W        W80709  33.592  38.502   5.637
19344W        W80710   8.324  18.724  13.528
19345W        W80711  31.557  16.680   0.318
19346W        W80712   5.324  37.913  11.434
19347W        W80713  27.176  32.949   4.774
19348W        W80714  31.008  39.828  14.286
19349W        W80715   9.666  32.976  14.878
19350W        W80716  40.429  24.080   0.268
19351W        W80717  42.856   5.347   2.347
19352W        W80718   4.864  17.799  13.342
19353W        W80719  25.499  33.132   4.329
19354W        W80720  15.670   0.422  13.525
19355W        W80721  25.502  16.674  13.908
19356W        W80722  44.984  44.381   2.225
19357W        W80723  44.298  35.412   4.725
19358W        W80724  25.116   3.330  13.006
19359W        W80725   7.359  27.582  13.424
19360W        W80726  41.897  13.118  13.360
19361W        W80727  30.619  32.133  11.052
19362W        W80728  10.824  31.557  14.880
19363W        W80729  36.353  41.350  11.480
19364W        W80730  27.488  43.437   0.384
19365W        W80731   5.835  10.676   3.382
19366W        W80732  10.146   2.394  13.908
19367W        W80733  30.481   7.376  11.872
19368W        W80734   1.397   7.845   2.707
19369W        W80735  20.639  40.028  13.847
19370W        W80736   8.249  17.193   2.885
19371W        W80737  19.275   2.808  13.981
19372W        W80738  26.021   2.381   4.187
19373W        W80739  28.677  31.961  12.570
19374W        W80740  20.682  43.338   2.186
19375W        W80741   9.699  28.453  12.847
19376W        W80742  12.676  34.493   2.894
19377W        W80743  35.536   6.850  11.938
19378W        W80744  20.731  41.832   0.395
19379W        W80745  20.559  44.785  12.514
19380W        W80746  21.159   3.837  10.629
19381W        W80747  28.601   5.826   3.810
19382W        W80748   4.715  40.415   2.391
19383W        W80749  24.527  31.581   2.271
19384W        W80750  16.132   1.314  12.971
19385W        W80751  10.845  12.188   2.329
19386W        W80752   9.382  26.041   2.815
19387W        W80753   4.226  36.977   3.163
19388W        W80754  29.505  37.571  13.348
19389W        W80755  35.100  42.417  10.460
19390W        W80756  39.932   7.338   2.184
19391W        W80757   2.885  39.861  12.530
19392W        W80758  30.596   4.434   1.819
19393W        W80759  41.903  14.104  13.456
19394W        W80760  31.630  40.431   5.255
19395W        W80761   2.423   8.257  12.824
19396W        W80762  30.572  24.998  14.776
19397W        W80763  13.656  34.021   1.393
19398W        W80764   8.381  11.301   4.649
19399W        W80765  21.055  22.710   3.825
19400W        W80766   7.765  28.004  11.469
19401W        W80767  35.899   6.909   4.122
19402W        W80768   9.240  21.591  13.535
19403W        W80769   0.787  22.576  13.519
19404W        W80770   1.928  20.544   3.740
19405W        W80771  41.831   8.871   0.379
19406W        W80772   4.292  44.341  11.110
19407W        W80773  20.094  19.645  14.420
19408W        W80774   7.247  40.536   1.801
19409W        W80775  16.569  26.590  13.865
19410W        W80776  23.630  36.421  12.382
19411W        W80777  24.154  23.222  11.487
19412W        W80778  32.990   4.205  10.894
19413W        W80779  21.594  10.306   3.722
19414W        W80780  27.475  14.681   0.284
19415W        W80781  41.350  16.135  12.573
19416W        W80782  23.160  35.871  10.464
19417W        W80783  18.178   0.451  14.024
19418W        W80784  21.541   3.230  10.431
19419W        W80785  33.895  22.054  11.959
19420W        W80786   9.327  27.077   2.227
19421W        W80787  25.187  18.261  14.790
19422W        W80788   5.373   3.330   3.148
19423W        W80789  39.507   8.315   3.154
19424W        W80790  40.826  32.456   4.688
19425W        W80791   4.934  33.918   1.322
19426W        W80792   4.761  39.413  14.437
19427W        W80793  10.190   0.947   0.346
19428W        W80794  21.145   6.819   0.773
19429W        W80795  15.738   7.339   4.645
19430W        W80796  39.810  33.388   1.427
19431W        W80797  34.940  43.817  11.470
19432W        W80798  36.923  27.979   2.313
19433W        W80799   6.885   4.770  12.458
19434W        W80800  44.433  13.808   0.255
19435W        W80801  16.246  21.135  11.028
19436W        W80802   2.431  22.521  10.434
19437W        W80803  31.994   0.331  13.846
19438W        W80804  29.633  21.752  13.972
19439W        W80805   2.418  21.595  11.587
19440W        W80806  14.633  12.710   0.861
19441W        W80807   6.791  20.681  12.447
19442W        W80808  20.651  11.192  14.321
19443W        W80809  30.557  43.468   4.339
19444W        W80810  15.242  13.240  12.899
19445W        W80811   5.300  43.857   3.314
19446W        W80812  16.632  22.712   1.305
19447W        W80813  27.196  11.339   0.254
19448W        W80814  14.128   5.218   4.768
19449W        W80815  21.077   4.821  14.860
19450W        W80816  40.840  19.652   1.875
19451W        W80817  16.097   2.949  12.496
19452W        W80818   6.825   5.915   4.700
19453W        W80819  12.336  23.173   2.232
19454W        W80820  16.307   8.732  11.052
19455W        W80821  19.729  42.293  14.871
19456W        W80822  21.626  25.070   0.258
19457W        W80823  27.478  30.415   2.694
19458W        W80824   9.208  10.246  11.088
19459W        W80825   2.790  18.691   1.862
19460W        W80826  27.192  42.456  14.997
19461W        W80827  26.124   8.710  10.430
19462W        W80828  26.535  39.909   2.877
19463W        W80829  19.277  30.935   3.771
19464W        W80830  28.002  22.563   0.882
19465W        W80831  39.051  23.607  10.462
19466W        W80832  31.608  33.400  13.841
19467W        W80833   3.780  22.206  13.948
19468W        W80834  39.919  29.115   0.344
19469W        W80835   8.204   3.798  10.946
19470W        W80836   7.197  10.152   0.416
19471W        W80837  26.617  17.761   3.376
19472W        W80838   2.454  26.657   3.757
19473W        W80839  36.953  30.946  11.894
19474W        W80840   0.413   4.794   0.966
19475W        W80841  12.355  17.627  10.409
19476W        W80842   4.285  29.043   3.815
19477W        W80843  11.311  26.105  10.923
19478W        W80844   2.946   8.717   3.343
19479W        W80845  36.364  44.362   1.283
19480W        W80846  15.724  22.716   2.792
19481W        W80847  31.430  35.374   4.707
19482W        W80848   7.857  14.683  13.541
19483W        W80849  35.574  27.673   0.273
19484W        W80850  31.462   9.696  10.930
19485W        W80851  36.049  10.785   1.902
19486W        W80852  18.579  19.676  13.355
19487W        W80853  15.211   4.801  10.637
19488W        W80854  12.773  25.588  12.837
19489W        W80855  34.916  31.040  10.618
19490W        W80856  42.954  17.126   2.851
19491W        W80857  10.283  42.940  10.523
19492W        W80858  37.433  21.726   0.283
19493W        W80859  29.927   6.918  13.946
19494W        W80860  33.480  27.122  12.408
19495W        W80861   8.379  13.831  11.121
19496W        W80862  28.041  37.885   2.381
19497W        W80863  36.475  22.099   3.781
19498W        W80864  21.256  23.532  14.279
19499W        W80865  15.669   1.258  13.005
19500W        W80866  26.992  36.506  13.014
19501W        W80867  36.959  43.868   0.796
19502W        W80868   6.787  43.765   1.308
19503W        W80869   5.904  21.039   1.288
19504W        W80870   3.391  28.460   0.317
19505W        W80871  44.329  31.111  14.344
19506W        W80872   1.837  28.582   3.306
19507W        W80873  29.655  21.644   0.757
19508W        W80874  44.793  42.465   1.922
19509W        W80875  39.315   6.408   1.243
19510W        W80876  27.666  39.922   2.239
19511W        W80877  27.049  43.434  12.551
19512W        W80878  24.045  37.955  14.375
19513W        W80879  15.276  22.153  12.555
19514W        W80880   8.202  26.644   4.296
19515W        W80881  20.125   5.817   0.896
19516W        W80882  21.527  14.830  12.471
19517W        W80883  42.970   7.901  13.791
19518W        W80884  12.653  19.082  14.822
19519W        W80885  19.092  16.151  14.860
19520W        W80886   9.883   1.349  11.465
19521W        W80887  10.697  39.374   0.945
19522W        W80888  16.237  15.298  12.854
19523W        W80889  40.365  20.672   0.419
19524W        W80890  24.097  33.387  14.765
19525W        W80891  13.105  19.169   4.728
19526W        W80892  31.587  40.506   1.829
19527W        W80893  11.764   7.269   4.653
19528W        W80894  40.892   3.900   2.277
19529W        W80895  35.567  17.668  11.892
19530W        W80896   3.800  20.566   2.800
19531W        W80897   1.238  34.585   3.211
19532W        W80898   7.301  10.802  14.469
19533W        W80899   5.295   5.806  10.913
19534W        W80900   8.793  32.922  12.075
19535W        W80901   0.436  44.403   1.308
19536W        W80902  16.667  18.060  12.996
19537W        W80903  30.574  31.129  14.488
19538W        W80904  27.010  17.593  13.361
19539W        W80905   6.847   5.352   5.277
19540W        W80906   8.684  11.203   1.704
19541W        W80907  35.380  31.064   1.761
19542W        W80908  30.559  40.516   4.629
19543W        W80909   0.414  17.247   4.828
19544W        W80910  19.767  21.125   0.297
19545W        W80911  28.185  38.410  14.922
19546W        W80912   0.761   1.969   1.445
19547W        W80913  35.027  36.385  11.056
19548W        W80914  16.147  43.363  13.060
19549W        W80915   7.776  43.922  12.077
19550W        W80916  23.635  37.533   4.199
19551W        W80917  31.934  26.700  12.895
19552W        W80918  40.375  17.594  13.466
19553W        W80919  39.881  26.490   3.713
19554W        W80920  14.663  24.141  11.070
19555W        W80921  25.636   0.423  14.401
19556W        W80922  17.141  40.053  11.553
19557W        W80923   7.234  16.309  14.879
19558W        W80924  37.878  38.363   2.828
19559W        W80925  37.580  16.301   3.297
19560W        W80926  26.462  12.344   4.273
19561W        W80927   1.925  28.946   2.784
19562W        W80928  40.968  13.271  10.970
19563W        W80929  21.658  30.044   3.815
19564W        W80930  31.122  16.601  12.448
19565W        W80931  12.210  33.609   2.803
19566W        W80932  32.495   3.898  10.480
19567W        W80933  25.671  17.173   2.201
19568W        W80934  35.553  36.480   2.868
19569W        W80935  31.038   5.242  14.317
19570W        W80936  37.405   9.797  11.081
19571W        W80937   7.774   1.974   0.403
19572W        W80938  41.454  16.169   1.922
19573W        W80939  21.132  24.106   2.879
19574W        W80940  21.241  29.519   3.843
19575W        W80941  22.698   9.342  12.567
19576W        W80942  18.233  12.847   3.276
19577W        W80943  27.174  10.663  13.414
19578W        W80944  42.422  40.498   4.650
19579W        W80945  40.545  33.482   2.805
19580W        W80946  39.924  10.218  14.371
19581W        W80947  42.026  20.124  14.497
19582W        W80948  14.234  43.476  12.339
19583W        W80949  30.626  28.953  12.931
19584W        W80950  33.025  22.725   2.822
19585W        W80951  10.795   1.755   5.184
19586W        W80952   7.286  27.193   2.281
19587W        W80953  32.549  13.760   1.264
19588W        W80954  39.434  37.939   4.336
19589W        W80955   9.860  23.498  12.940
19590W        W80956   5.757   6.712   5.109
19591W        W80957   1.783  25.522  13.064
19592W        W80958  17.289  18.104  11.990
19593W        W80959  18.598  11.240  14.457
19594W        W80960   2.922   8.374  12.403
19595W        W80961  34.078  42.370  11.391
19596W        W80962   0.811  44.312   4.704
19597W        W80963   8.313  28.568   4.787
19598W        W80964  29.017  13.749  14.480
19599W        W80965   4.289  18.183  13.037
19600W        W80966  32.905  44.011   2.692
19601W        W80967  38.536  21.257   4.340
19602W        W80968   3.916  30.530   4.281
19603W        W80969  23.515  44.451   0.931
19604W        W80970   3.362  40.951  11.526
19605W        W80971  39.389  16.707  14.950
19606W        W80972   8.732  28.929   2.362
19607W        W80973  19.613  34.900   5.275
19608W        W80974  30.645   5.199   1.366
19609W        W80975  17.126  27.060  11.892
19610W        W80976  44.900  13.715   0.862
19611W        W80977   2.352  37.999   0.341
19612W        W80978   7.778  44.938   3.824
19613W        W80979   6.395  42.886  13.918
19614W        W80980   5.841  37.498   4.735
19615W        W80981  32.100  14.279  10.907
19616W        W80982  15.725  23.053   4.211
19617W        W80983   4.714  24.985  14.812
19618W        W80984  17.631   3.769   3.659
19619W        W80985  17.564  44.001   3.198
19620W        W80986   8.287   6.272  12.356
19621W        W80987  21.175  42.402  13.031
19622W        W80988  11.772  44.262  12.976
19623W        W80989   6.261  37.362   4.147
19624W        W80990   6.284   7.300  13.510
19625W        W80991  43.993  13.162   4.690
19626W        W80992   4.871  18.707  13.852
19627W        W80993  43.785   5.890   4.604
19628W        W80994  29.075  21.690  10.642
19629W        W80995  10.212  41.417  13.923
19630W        W80996  34.389  12.339   1.364
19631W        W80997  30.639  22.583   9.926
19632W        W80998   6.734   9.376   2.766
19633W        W80999  18.209  38.049   1.770
19634W        W81000   1.790  24.678  11.073
19635W        W81001  25.029  12.307  12.933
19636W        W81002  13.271  22.028   2.700
19637W        W81003   9.727  27.533   3.849
19638W        W81004  39.876  32.443   3.289
19639W        W81005  14.754  33.979   0.249
19640W        W81006  37.363  10.173  13.545
19641W        W81007  34.865  16.703  13.333
19642W        W81008  19.188  15.167  14.920
19643W        W81009  37.395  22.677   2.733
19644W        W81010  24.041   5.929  13.051
19645W        W81011   4.401  43.903   0.928
19646W        W81012   6.195  42.778   4.653
19647W        W81013   5.687  18.168   0.960
19648W        W81014  32.526   1.283   4.167
19649W        W81015  40.320  33.452  12.390
19650W        W81016   1.935   4.438  13.369
19651W        W81017  22.162   4.383  14.473
19652W        W81018   6.679  15.604  14.912
19653W        W81019   9.814  30.159   2.754
19654W        W81020  16.606  42.786   2.843
19655W        W81021  36.092  39.538   1.920
19656W        W81022   2.926  20.189   1.837
19657W        W81023   0.456  33.032  14.902
19658W        W81024  11.360  36.974  12.838
19659W        W81025  42.907  42.884   0.795
19660W        W81026  20.072   0.423   0.890
19661W        W81027  42.393  17.619   3.774
19662W        W81028  42.520  18.671  13.954
19663W        W81029  43.427  38.527   0.749
19664W        W81030  20.646   3.315  12.916
19665W        W81031  13.156  43.921  13.362
19666W        W81032  33.615  34.514  12.543
19667W        W81033   6.685  10.764   2.675
19668W        W81034  13.748  16.245  14.789
19669W        W81035  11.318  15.190   3.676
19670W        W81036  25.071  37.367   4.744
19671W        W81037  22.646   1.803  14.341
19672W        W81038  38.423  31.106  10.896
19673W        W81039  18.052  40.829  11.052
19674W        W81040   2.960   2.437   0.313
19675W        W81041   4.431  30.009  13.505
19676W        W81042  25.149  19.710  11.921
19677W        W81043   6.326  38.360  11.440
19678W        W81044  29.592   2.793   3.689
19679W        W81045  29.463   7.375  11.102
19680W        W81046  37.879   3.767  12.008
19681W        W81047   2.461  11.271  14.793
19682W        W81048   2.234   7.730   2.844
19683W        W81049  29.130  11.180   3.863
19684W        W81050  11.811  24.174  14.440
19685W        W81051  38.389  23.660   2.281
19686W        W81052  26.160  38.066  10.502
19687W        W81053  17.156   5.885  13.891
19688W        W81054   6.905  15.294   1.352
19689W        W81055  39.458  38.955   1.326
19690W        W81056  32.068  15.643  12.570
19691W        W81057   8.311  20.214   3.147
19692W        W81058  14.694  11.639   2.670
19693W        W81059  31.576  35.017   3.658
19694W        W81060  11.262  41.880  11.443
19695W        W81061  19.234  12.180  13.920
19696W        W81062  12.319   0.886  14.472
19697W        W81063  22.658  26.967  12.527
19698W        W81064  24.115  10.755  14.945
19699W        W81065  44.327  38.922   1.437
19700W        W81066  27.134   7.343   2.221
19701W        W81067  29.026  26.543   0.479
19702W        W81068  37.501  31.583   0.356
19703W        W81069  38.069  23.186  11.927
19704W        W81070  19.175  21.039   3.259
19705W        W81071   0.399  16.126   2.873
19706W        W81072  22.092  16.282  10.642
19707W        W81073   7.825  40.985   3.294
19708W        W81074  19.279  17.262  12.374
19709W        W81075   3.404  43.507  12.087
19710W        W81076  32.020  29.944  11.475
19711W        W81077  38.495  28.959   0.756
19712W        W81078  24.213   4.309  10.130
19713W        W81079   7.766  30.149  10.643
19714W        W81080  26.543   7.814  14.897
19715W        W81081  32.581  10.337  11.529
19716W        W81082   1.482  38.875   2.704
19717W        W81083   0.760  28.510  14.322
19718W        W81084  16.271  17.197   2.265
19719W        W81085  40.934  32.605   0.730
19720W        W81086  41.371   0.866   1.812
19721W        W81087  31.043  25.637   0.394
19722W        W81088  34.948   1.365   1.290
19723W        W81089  39.322  35.105   4.196
19724W        W81090  36.587  26.968   0.938
19725W        W81091  38.418  29.535  12.042
19726W        W81092  41.863  32.967  14.958
19727W        W81093   4.779   2.805  12.402
19728W        W81094  21.566  23.004   2.244
19729W        W81095  24.067  41.791   1.809
19730W        W81096  14.188  12.630  13.913
19731W        W81097  32.519  37.894  14.814
19732W        W81098  40.377  17.109   2.865
19733W        W81099  11.236  44.368  14.025
19734W        W81100  21.211  17.578  10.536
19735W        W81101   6.374  42.489  12.832
19736W        W81102  19.122  27.171   3.865
19737W        W81103  44.774  17.747   3.358
19738W        W81104  35.914  15.200   0.875
19739W        W81105   1.381   3.778  11.440
19740W        W81106  29.973  24.599  14.862
19741W        W81107  42.395  43.900  11.103
19742W        W81108  13.750  38.437   1.292
19743W        W81109  19.064   4.815   2.384
19744W        W81110  35.892  38.430  12.457
19745W        W81111  39.927  22.106   2.414
19746W        W81112  34.074  36.871   3.327
19747W        W81113  25.494  31.610   3.813
19748W        W81114  43.945  29.444  12.918
19749W        W81115   9.307  18.624   4.137
19750W        W81116   3.358  23.172  14.878
19751W        W81117   2.410  29.488  12.041
19752W        W81118   4.895  10.730  14.821
19753W        W81119   6.418  12.357   1.732
19754W        W81120  32.028  31.068  13.016
19755W        W81121  43.477  36.548  13.323
19756W        W81122  26.697  36.078  14.427
19757W        W81123  34.990  30.014   0.752
19758W        W81124  24.686  18.700   4.788
19759W        W81125   8.859  23.547   1.429
19760W        W81126   7.310   9.733   3.697
19761W        W81127   4.829  40.491   2.677
19762W        W81128  38.901  42.340  13.467
19763W        W81129  23.201  40.931   2.235
19764W        W81130  11.742  20.071   1.436
19765W        W81131  27.021  19.236   1.393
19766W        W81132  43.819  21.633  12.461
19767W        W81133  11.261  26.578  11.057
19768W        W81134  18.700   6.737   1.309
19769W        W81135  12.680  12.257  13.512
19770W        W81136  27.965  25.654   0.437
19771W        W81137  44.436  29.595  11.562
19772W        W81138  16.219  10.297  14.828
19773W        W81139   6.831  21.543   3.194
19774W        W81140   0.808  27.501  14.472
19775W        W81141  17.216  21.048   3.349
19776W        W81142  29.532   2.957   0.732
19777W        W81143  12.655  18.713   3.683
19778W        W81144  11.366  17.142  14.912
19779W        W81145   0.260  44.463   0.353
19780W        W81146  18.689   5.729  12.539
19781W        W81147  12.734   6.353  11.949
19782W        W81148   3.251  41.439  10.998
19783W        W81149   7.198  13.118  13.357
19784W        W81150  37.560  29.453  13.036
19785W        W81151  42.305  26.179  13.369
19786W        W81152  15.107  26.110   4.249
19787W        W81153   1.476  12.334  12.877
19788W        W81154  40.911   8.370   1.881
19789W        W81155  23.624  39.357   4.333
19790W        W81156   1.820  30.553  12.414
19791W        W81157  37.339  15.806   4.204
19792W        W81158  42.384  43.431   3.359
19793W        W81159  31.091  12.701  11.589
19794W        W81160  28.180  23.080  14.939
19795W        W81161  36.521   4.920   2.279
19796W        W81162   3.836   8.807  12.896
19797W        W81163  29.168  28.613  11.075
19798W        W81164  25.629  17.169   2.807
19799W        W81165   1.818  28.996  14.333
19800W        W81166  17.606   6.282  14.814
19801W        W81167   7.371  39.009   3.749
19802W        W81168  11.723  44.261   0.738
19803W        W81169   4.355   7.194  11.607
19804W        W81170  20.525  31.524   4.239
19805W        W81171  17.114  34.070   3.684
19806W        W81172  11.164  11.654   1.448
19807W        W81173   6.385  23.635  11.534
19808W        W81174  14.101  34.518  12.580
19809W        W81175  25.205  17.198  12.963
19810W        W81176  25.698   0.875   0.383
19811W        W81177   2.734  29.039  11.529
19812W        W81178  39.444   9.677  13.418
19813W        W81179  10.138  22.561   3.382
19814W        W81180  26.028   1.891  11.389
19815W        W81181  32.071  11.134  10.046
19816W        W81182  12.183   6.191   4.797
19817W        W81183  34.978   4.295  13.442
19818W        W81184  18.763  33.950  10.035
19819W        W81185   7.671  41.964   0.326
19820W        W81186   9.344  12.749   3.332
19821W        W81187  14.330  29.027  13.862
19822W        W81188  36.907  15.197  11.991
19823W        W81189  31.499  19.246  12.979
19824W        W81190  22.109  29.097   1.394
19825W        W81191   4.873  39.558   4.816
19826W        W81192  27.969  41.930   0.260
19827W        W81193   4.440   1.436   1.294
19828W        W81194  16.091  21.686   0.894
19829W        W81195  42.404  30.450  10.572
19830W        W81196  24.621   1.913   3.295
19831W        W81197  31.463  11.169  11.874
19832W        W81198  29.161  27.106   2.713
19833W        W81199  20.666  15.141   2.215
19834W        W81200   5.422  17.279   0.750
19835W        W81201  17.305  14.291   3.257
19836W        W81202  37.964  13.335  10.550
19837W        W81203  43.792  13.233  12.354
19838W        W81204  27.153  12.771   2.751
19839W        W81205  35.592  28.635  10.467
19840W        W81206  36.387  21.152  12.417
19841W        W81207  12.313  41.404   4.310
19842W        W81208  38.948  32.133  10.632
19843W        W81209   3.784   2.462  14.816
19844W        W81210   7.393  14.700   3.386
19845W        W81211  19.653  34.905   5.710
19846W        W81212  21.184  42.835   1.751
19847W        W81213  36.067   3.230   5.278
19848W        W81214  35.920  10.830  13.845
19849W        W81215  40.882  41.323   1.704
19850W        W81216  37.544  25.711   0.432
19851W        W81217   4.844   6.394   1.245
19852W        W81218  39.008  34.934   0.245
19853W        W81219  41.383   7.870   0.944
19854W        W81220  20.189   4.243   3.819
19855W        W81221  21.678  43.477   4.683
19856W        W81222  19.176  13.701  11.111
19857W        W81223  11.199  42.002  13.885
19858W        W81224   5.235  36.079  13.041
19859W        W81225  40.021  34.069   0.941
19860W        W81226  19.771  38.360  13.832
19861W        W81227  41.400   5.214   0.292
19862W        W81228  33.985  29.471   4.244
19863W        W81229  43.977  34.024   4.121
19864W        W81230  44.379  17.702   2.708
19865W        W81231  11.775  32.439  12.928
19866W        W81232   6.711   6.884  12.950
19867W        W81233  40.847  36.904  12.905
19868W        W81234  41.347  22.051   0.944
19869W        W81235  44.973  13.236   4.212
19870W        W81236  27.068  15.626  13.365
19871W        W81237  14.740  21.198   0.359
19872W        W81238  14.338  29.464  11.941
19873W        W81239  40.357  23.141   1.910
19874W        W81240  33.594  25.104  10.952
19875W        W81241  29.653   6.816  14.499
19876W        W81242  21.056  19.272   4.276
19877W        W81243  43.508  11.682   3.702
19878W        W81244  34.929  34.916   2.417
19879W        W81245   9.264  29.662  13.017
19880W        W81246  28.071   9.685   0.959
19881W        W81247  11.183  18.266   2.226
19882W        W81248   4.789   7.708  10.977
19883W        W81249  21.623   8.828   4.160
19884W        W81250  36.959  37.516  12.398
19885W        W81251   3.276   0.264  12.884
19886W        W81252  33.953  20.234   3.653
19887W        W81253  36.406  20.052  12.561
19888W        W81254   9.203   2.796   4.298
19889W        W81255  10.708  27.481  11.889
19890W        W81256  32.454  13.665  11.539
19891W        W81257  20.202  20.252  12.899
19892W        W81258  29.968  31.905   0.862
19893W        W81259  43.881  42.507   1.880
19894W        W81260  23.021  18.103   4.670
19895W        W81261  33.413  16.231   4.159
19896W        W81262  41.011   0.783  12.893
19897W        W81263   9.197  14.678   1.241
19898W        W81264  12.640  36.422  14.029
19899W        W81265  17.798  10.684  11.589
19900W        W81266  37.950  20.109  10.987
19901W        W81267  19.121  10.855  11.964
19902W        W81268  27.968  27.117   1.885
19903W        W81269   8.395  15.127   4.132
19904W        W81270  32.026  12.753  13.019
19905W        W81271  38.035  39.393  14.019
19906W        W81272   9.686  14.237  10.503
19907W        W81273  31.961  36.398   4.662
19908W        W81274  15.805  10.335  13.941
19909W        W81275  38.360  19.170   0.366
19910W        W81276  21.575  14.727  10.504
19911W        W81277  19.250  30.606   3.778
19912W        W81278   2.420   5.856  11.991
19913W        W81279  24.640  22.726  14.385
19914W        W81280  20.045   5.332   0.949
19915W        W81281  13.710   3.766   1.871
19916W        W81282  41.468  26.042  11.905
19917W        W81283  43.903  12.182  13.937
19918W        W81284  16.799  31.927  11.938
19919W        W81285  10.754  41.510   3.769
19920W        W81286  41.432  26.053   1.234
19921W        W81287  22.216  27.995   0.366
19922W        W81288  19.567  19.562  12.969
19923W        W81289  13.772  15.283  13.426
19924W        W81290  14.112  17.565   2.313
19925W        W81291  12.683  14.775  14.280
19926W        W81292  38.851  30.033  12.351
19927W        W81293  34.396   9.839  14.462
19928W        W81294  26.680  31.965   1.889
19929W        W81295  32.548  20.740   1.814
19930W        W81296   8.170  12.816  11.026
19931W        W81297  13.202   5.247  12.952
19932W        W81298  22.720  28.604   3.369
19933W        W81299  16.725  43.870  14.865
19934W        W81300  23.607   3.738   0.957
19935W        W81301  40.365  38.367   1.884
19936W        W81302  16.210   5.731  13.426
19937W        W81303  39.879  21.123   4.741
19938W        W81304  35.559  20.203  13.876
19939W        W81305  24.691  10.661  11.934
19940W        W81306   8.777  13.710  14.000
19941W        W81307  30.159  31.045  10.540
19942W        W81308  29.668   8.689  13.840
19943W        W81309   4.435  30.938  11.611
19944W        W81310  24.013  43.946  12.341
19945W        W81311  23.717  13.619  11.059
19946W        W81312  17.216   6.225   1.409
19947W        W81313  10.815  27.954   2.894
19948W        W81314  36.926  43.814  14.980
19949W        W81315   6.336  18.715  14.389
19950W        W81316   5.286  41.904   3.284
19951W        W81317  44.948  14.253   3.324
19952W        W81318  40.344  32.895   1.387
19953W        W81319  19.201  42.984   2.757
19954W        W81320  26.663  20.163  12.963
19955W        W81321  26.035  40.446  11.031
19956W        W81322   5.391  14.282   2.722
19957W        W81323  39.826   1.750  12.392
19958W        W81324  20.721   8.329  13.382
19959W        W81325  11.786   1.829  12.837
19960W        W81326   3.307  29.663   0.802
19961W        W81327  40.990  15.774   3.791
19962W        W81328  37.991   6.717   0.907
19963W        W81329   6.256  23.642   2.366
19964W        W81330  41.831  29.469  13.061
19965W        W81331   9.182  11.188  13.937
19966W        W81332  43.782   5.877  10.541
19967W        W81333  29.038  15.162  10.596
19968W        W81334  15.590  17.228   4.773
19969W        W81335   2.229  35.566   2.329
19970W        W81336   6.848  11.805  14.843
19971W        W81337  18.254  38.845  11.593
19972W        W81338  44.403   9.244   1.839
19973W        W81339  29.139  27.049  11.398
19974W        W81340   8.843  34.451  11.596
19975W        W81341   2.380  15.217   1.701
19976W        W81342  39.495  13.187  11.464
19977W        W81343  16.776  42.808   3.245
19978W        W81344  11.721   4.449   0.756
19979W        W81345  30.926  28.070   0.369
19980W        W81346  29.495  26.152   2.807
19981W        W81347  43.858  15.152  12.453
19982W        W81348   2.950  40.999  10.980
19983W        W81349  24.071  10.242   3.251
19984W        W81350   6.785  10.299   2.327
19985W        W81351  18.137  15.811   3.248
19986W        W81352  11.630  26.955  11.511
19987W        W81353   6.758   2.404  13.404
19988W        W81354  24.532  42.523  13.480
19989W        W81355  32.487  18.621   2.810
19990W        W81356   2.269  25.022  13.478
19991W        W81357   4.425  22.593   3.840
19992W        W81358  35.484   7.703  11.405
19993W        W81359  23.689  24.528  14.318
19994W        W81360  11.172  32.992   2.281
19995W        W81361  13.273  30.623   0.317
19996W        W81362  41.016  29.439  13.478
19997W        W81363  21.676  25.127  10.922
19998W        W81364  39.364  33.016   2.365
19999W        W81365  32.005  34.411  10.995
20000W        W81366  13.303  38.565   3.156
20001W        W81367  33.874  27.053  10.591
20002W        W81368   8.797  35.444  10.597
20003W        W81369  44.834  11.145   3.754
20004W        W81370   7.842  17.673  13.998
20005W        W81371  24.600  12.707  10.927
20006W        W81372  43.949   9.377  11.555
20007W        W81373  32.569  11.737   2.771
20008W        W81374  27.990  35.514   2.756
20009W        W81375  32.974   4.843   4.281
20010W        W81376  21.134  37.545   1.740
20011W        W81377  37.527   9.225  11.868
20012W        W81378   9.327  22.718  11.527
20013W        W81379  34.408   2.423  13.506
20014W        W81380  13.170  40.893   3.795
20015W        W81381  23.040  33.606   4.131
20016W        W81382  30.971  31.047   2.388
20017W        W81383  41.008  24.047  10.563
20018W        W81384   3.794  12.611  11.463
20019W        W81385  37.451   0.392   3.381
20020W        W81386   0.795   6.769   4.691
20021W        W81387  20.562   1.886  11.119
20022W        W81388  29.630  21.556   2.826
20023W        W81389   8.328   3.880  10.592
20024W        W81390  44.851  11.280  11.591
20025W        W81391  22.646  20.576   4.627
20026W        W81392  15.233  23.078  14.355
20027W        W81393   0.291  27.655   0.747
20028W        W81394  26.971   5.705  13.925
20029W        W81395  37.480  13.675   0.448
20030W        W81396  43.840  44.755   4.149
20031W        W81397  31.533  29.081   4.732
20032W        W81398   9.271  12.348   3.323
20033W        W81399   0.898  17.196  14.928
20034W        W81400  31.917  11.163  10.440
20035W        W81401  26.624  38.487  10.110
20036W        W81402   3.219  42.909  10.531
20037W        W81403  11.131  38.923  10.624
20038W        W81404  15.801   4.863  10.955
20039W        W81405  31.521  42.951   4.828
20040W        W81406  36.477   3.813   1.423
20041W        W81407  24.622  31.978   1.753
20042W        W81408  14.135  25.186   2.815
20043W        W81409  43.474  32.102  14.334
20044W        W81410  32.972  27.678  10.951
20045W        W81411   6.356   2.441   0.820
20046W        W81412   5.698   0.425   1.403
20047W        W81413   3.763  16.703  12.030
20048W        W81414  35.956  44.291   1.931
20049W        W81415   0.268  21.575   3.356
20050W        W81416  11.795   4.208   0.332
20051W        W81417  43.835  38.976  10.411
20052W        W81418  37.973  40.341  14.885
20053W        W81419   1.773   8.784  11.524
20054W        W81420   9.282   3.290   2.268
20055W        W81421   1.370   5.787  13.399
20056W        W81422  41.812  41.026   1.334
20057W        W81423  40.378   9.834   1.866
20058W        W81424  17.085  28.460   3.288
20059W        W81425  20.129  12.230   4.766
20060W        W81426  19.738   2.917  10.892
20061W        W81427  37.344   9.359   2.724
20062W        W81428  18.271  13.832   0.334
20063W        W81429  32.008  29.666  11.530
20064W        W81430  23.060  39.328   3.692
20065W        W81431  24.190  33.425   2.376
20066W        W81432   8.881  44.901   3.146
20067W        W81433  13.284  42.873  11.044
20068W        W81434  28.595  37.069   1.262
20069W        W81435   0.420  31.064   2.754
20070W        W81436  38.981   3.445   3.762
20071W        W81437  38.876  19.215  10.921
20072W        W81438   0.794   2.865   2.244
20073W        W81439   4.416   5.255  11.602
20074W        W81440  13.215  20.133  12.981
20075W        W81441  34.541   4.880  12.473
20076W        W81442   1.346  28.125   0.318
20077W        W81443  20.097  37.017  14.460
20078W        W81444  11.274  27.644  11.396
20079W        W81445  26.553   7.708  14.508
20080W        W81446   0.957  41.357  11.075
20081W        W81447   5.291  14.723  13.524
20082W        W81448  12.708  15.186  12.514
20083W        W81449  29.121  40.958   1.918
20084W        W81450  21.232  25.537   3.164
20085W        W81451  33.517  33.086   1.864
20086W        W81452  44.452   9.298   4.267
20087W        W81453  42.391   3.726   4.200
20088W        W81454  11.647  33.121  13.538
20089W        W81455  10.256  14.802   3.233
20090W        W81456  39.874   8.865   1.822
20091W        W81457  37.456  38.393   0.474
20092W        W81458  27.488  42.914   1.376
20093W        W81459  32.506   9.251  13.814
20094W        W81460  31.598  44.936  14.409
20095W        W81461  13.700  22.110   4.751
20096W        W81462  23.128  31.079   3.869
20097W        W81463  24.613   6.724  14.796
20098W        W81464  12.711   2.437  11.024
20099W        W81465  21.594  34.879   3.643
20100W        W81466   1.875  22.145  13.542
20101W        W81467  28.153  22.066   1.824
20102W        W81468   1.276  36.855  10.515
20103W        W81469  33.406   4.842   9.982
20104W        W81470  16.215  42.312   4.246
20105W        W81471   7.259  24.574  12.919
20106W        W81472   8.223   9.697   2.710
20107W        W81473  24.031  17.211   2.684
20108W        W81474   0.354  42.339   0.363
20109W        W81475   2.820  29.619  14.319
20110W        W81476  32.608  34.611  14.817
20111W        W81477  32.897   0.428  10.461
20112W        W81478   4.823  29.528  10.967
20113W        W81479  37.891   0.905  11.071
20114W        W81480  16.251   0.410  13.377
20115W        W81481  36.491   2.886  11.579
20116W        W81482  18.752  21.165  12.845
20117W        W81483   1.246   9.681  12.487
20118W        W81484  41.475  25.039  14.514
20119W        W81485  39.936  32.075   0.752
20120W        W81486  36.495  15.095  11.986
20121W        W81487   2.726   4.217  10.518
20122W        W81488   9.294  12.727  10.057
20123W        W81489  44.359   3.418   3.712
20124W        W81490  16.733  30.974  10.413
20125W        W81491  11.348   5.241  14.280
20126W        W81492  34.501  21.129   4.181
20127W        W81493   2.788  33.489  10.520
20128W        W81494  12.667  28.959  11.523
20129W        W81495  35.020   7.289   2.334
20130W        W81496  12.635  24.678   0.800
20131W        W81497  13.123  12.784  13.799
20132W        W81498  13.349  26.130   2.297
20133W        W81499  18.666  27.059  13.801
20134W        W81500   0.848  27.067  13.534
20135W        W81501  29.131  42.287   1.235
20136W        W81502  33.478   3.259  12.881
20137W        W81503  10.268  30.606  11.960
20138W        W81504  37.921  26.975   1.351
20139W        W81505  18.765  36.925   2.188
20140W        W81506  40.916  24.671  11.587
20141W        W81507   3.802  37.839  13.818
20142W        W81508  44.966  14.172  10.538
20143W        W81509  40.369  43.375  14.414
20144W        W81510  44.455   5.703  14.017
20145W        W81511   9.162  26.005  13.984
20146W        W81512  19.569  44.455   0.818
20147W        W81513  17.179  22.671   0.352
20148W        W81514   0.782  28.032  14.516
20149W        W81515  30.934  41.341  11.397
20150W        W81516  21.627  32.021  13.509
20151W        W81517  36.487  18.258  10.621
20152W        W81518  20.540  19.068   3.676
20153W        W81519   5.879  18.135  12.484
20154W        W81520   1.891  23.603   4.349
20155W        W81521  30.621  14.175  13.424
20156W        W81522  17.131  33.884   1.272
20157W        W81523  43.340   9.181  14.277
20158W        W81524  13.718   7.666   2.829
20159W        W81525   4.793  24.018   0.909
20160W        W81526  34.558  44.932  12.034
20161W        W81527  29.655   1.950  14.025
20162W        W81528  27.482  24.645  12.860
20163W        W81529  35.097  32.491   3.827
20164W        W81530   3.907  21.159   1.399
20165W        W81531  44.484  29.117   4.343
20166W        W81532  12.289   7.381  12.936
20167W        W81533   3.807  13.196  14.298
20168W        W81534  43.863  23.117   1.239
20169W        W81535   9.237  11.361   0.459
20170W        W81536   0.841  10.331  13.468
20171W        W81537  32.963  21.706  11.123
20172W        W81538  40.050  23.733   1.325
20173W        W81539  26.156  22.035   0.816
20174W        W81540  40.995  10.147  12.049
20175W        W81541  20.086  13.639  13.350
20176W        W81542   9.272  32.103   4.706
20177W        W81543  15.719  11.836  10.530
20178W        W81544   0.457  15.713   1.311
20179W        W81545  30.541  44.913   4.259
20180W        W81546  24.190   3.847   1.918
20181W        W81547  29.559  37.002   1.805
20182W        W81548  42.876  37.876   4.769
20183W        W81549  36.509  19.565   0.879
20184W        W81550  21.575  36.581   9.968
20185W        W81551  28.074  27.131   9.447
20186W        W81552  40.874   3.247  14.394
20187W        W81553  34.438   0.793  13.374
20188W        W81554  44.861  15.328   2.324
20189W        W81555  37.059  28.011   4.352
20190W        W81556  38.507  17.095   4.307
20191W        W81557  42.794  10.650  14.766
20192W        W81558  29.141  21.665  11.455
20193W        W81559  13.600   4.801   0.330
20194W        W81560  44.319  43.443   2.753
20195W        W81561  24.994  23.175  11.496
20196W        W81562  14.269  37.414   1.352
20197W        W81563  29.122  44.477  12.994
20198W        W81564  18.138  44.980   4.281
20199W        W81565  38.862  24.519   0.397
20200W        W81566  11.774  10.838  12.866
20201W        W81567   9.192  23.183  11.386
20202W        W81568  22.154  10.826  11.521
20203W        W81569  43.380  11.312  11.558
20204W        W81570  41.515  43.483  11.074
20205W        W81571  34.476   0.471   2.799
20206W        W81572   3.894  24.098   1.445
20207W        W81573  34.386   3.224  12.349
20208W        W81574  21.630   8.746  13.359
20209W        W81575   6.413  10.633   0.341
20210W        W81576  17.717   3.313   0.936
20211W        W81577  20.759  42.281  12.400
20212W        W81578  36.497   5.339   3.189
20213W        W81579  15.778   1.249  10.429
20214W        W81580  37.000  38.425  12.496
20215W        W81581   4.360  28.492   3.801
20216W        W81582  27.005  30.414  10.591
20217W        W81583  26.532  42.450  14.875
20218W        W81584  44.266  10.264   4.660
20219W        W81585   4.796  10.382   1.698
20220W        W81586  13.656  39.942   2.209
20221W        W81587  17.097  40.326   5.202
20222W        W81588   2.805  36.458  11.961
20223W        W81589  22.532   3.373  13.541
20224W        W81590   6.424  37.358  14.994
20225W        W81591  13.829  31.448   1.315
20226W        W81592  37.978  19.623   3.845
20227W        W81593   6.906  34.452  10.477
20228W        W81594   8.289   1.771   2.798
20229W        W81595  15.622  18.545  11.459
20230W        W81596  31.607  36.888   2.766
20231W        W81597  19.134  30.980   1.890
20232W        W81598  34.087  21.660   4.216
20233W        W81599  38.524  20.261   1.324
20234W        W81600  44.785  43.947   0.398
20235W        W81601  19.114  16.183  13.423
20236W        W81602  22.633   3.919   1.921
20237W        W81603  18.233  34.489  13.038
20238W        W81604  33.963  24.643   0.289
20239W        W81605  26.641  39.559  13.532
20240W        W81606  42.356   0.328   3.700
20241W        W81607  10.344  14.250  13.346
20242W        W81608  44.958  38.077  12.459
20243W        W81609  41.950  41.425  12.871
20244W        W81610  43.406  38.946   3.811
20245W        W81611  36.569  20.253   2.384
20246W        W81612  43.897  29.971   3.212
20247W        W81613  19.569  37.923  11.451
20248W        W81614   4.902  14.124   2.890
20249W        W81615  10.666  39.455   4.817
20250W        W81616  39.473  12.767   3.196
20251W        W81617  16.674   4.761   1.914
20252W        W81618  27.665  17.127  13.357
20253W        W81619   3.352  34.070   1.924
20254W        W81620  15.750  30.653   1.318
20255W        W81621  33.005   8.682   4.193
20256W        W81622  10.755  15.617   1.423
20257W        W81623   3.930  20.533  11.029
20258W        W81624  25.616  20.740   2.394
20259W        W81625  42.372  17.157   2.217
20260W        W81626   1.832   7.224  12.840
20261W        W81627  13.346  42.860   1.377
20262W        W81628   0.485  21.528  13.315
20263W        W81629  25.714  15.707   9.964
20264W        W81630  32.116  11.699  12.032
20265W        W81631  10.706  23.990  14.820
20266W        W81632   5.400  11.158  14.338
20267W        W81633  40.937  16.737   3.228
20268W        W81634  37.037   8.759  12.069
20269W        W81635  43.984  14.774   4.695
20270W        W81636  37.435  18.706   1.714
20271W        W81637  39.909  38.482  13.509
20272W        W81638   5.795  10.155  12.894
20273W        W81639  28.473  40.956  13.831
20274W        W81640  16.192  17.075  11.454
20275W        W81641  24.668  12.651   2.220
20276W        W81642  23.680  28.154  14.509
20277W        W81643  19.071  26.484   5.092
20278W        W81644   5.413   1.464   9.936
20279W        W81645  38.424  32.109  13.540
20280W        W81646   1.468  26.114   4.648
20281W        W81647  30.145  18.194   3.201
20282W        W81648  39.928  31.047   1.778
20283W        W81649  19.565  43.434  12.416
20284W        W81650  10.746  37.423  13.927
20285W        W81651  24.123   2.425  13.461
20286W        W81652   2.242   6.403   1.214
20287W        W81653  42.419  19.276  11.439
20288W        W81654  43.488  29.169   4.735
20289W        W81655  15.126  18.200   3.776
20290W        W81656  21.259  33.971  11.392
20291W        W81657  34.501  38.529   1.797
20292W        W81658  27.655  24.613  11.964
20293W        W81659  32.629  23.658   4.143
20294W        W81660  39.962  34.101  12.538
20295W        W81661   1.880  11.649   4.281
20296W        W81662   8.727  16.682  12.429
20297W        W81663  24.176  10.824  13.500
20298W        W81664   1.468   7.798  11.019
20299W        W81665  42.788   3.725   1.273
20300W        W81666  43.914   5.807   3.253
20301W        W81667  26.524  34.594   2.238
20302W        W81668   5.218   6.836   3.284
20303W        W81669  41.853  15.305   0.298
20304W        W81670  30.412  10.179  10.485
20305W        W81671  23.010  38.976  13.960
20306W        W81672  34.508   1.425   1.417
20307W        W81673  41.924   1.407   0.383
20308W        W81674  39.916  39.875   4.337
20309W        W81675  27.573  11.720  14.984
20310W        W81676   7.665  44.350  13.382
20311W        W81677  26.664   3.790  12.530
20312W        W81678  35.465   5.411   1.212
20313W        W81679  36.062  10.707  14.294
20314W        W81680  11.742   5.844  12.577
20315W        W81681  38.939  26.014   2.688
20316W        W81682   6.905  19.104  13.973
20317W        W81683  30.062   4.301  11.596
20318W        W81684  30.454  41.431   0.245
20319W        W81685  11.760  39.849   4.685
20320W        W81686  44.474  39.853  11.578
20321W        W81687  43.956  16.662  11.540
20322W        W81688  15.253  19.176   1.284
20323W        W81689  16.711  42.990   1.764
20324W        W81690  38.570  30.138   1.444
20325W        W81691   4.914   1.870   9.961
20326W        W81692  18.627   5.744  14.359
20327W        W81693  39.506   0.918   4.120
20328W        W81694  21.122   4.295  12.068
20329W        W81695  26.660  28.969   3.190
20330W        W81696  20.245   5.396  14.508
20331W        W81697  32.621   3.261   2.248
20332W        W81698  35.897  28.549   2.770
20333W        W81699  35.370  26.481  10.989
20334W        W81700   4.311   1.903   0.944
20335W        W81701  19.270  25.698   2.311
20336W        W81702  30.076  40.524   3.832
20337W        W81703   3.397   3.406  12.557
20338W        W81704  25.086  20.194   2.832
20339W        W81705  36.901  34.478  13.835
20340W        W81706   3.336   7.725  14.975
20341W        W81707  19.086   2.305   3.795
20342W        W81708   6.356  28.181  14.835
20343W        W81709  16.248  16.303   4.273
20344W        W81710  23.161  40.523   4.220
20345W        W81711   7.689  28.111  14.799
20346W        W81712  29.528  43.858   2.862
20347W        W81713  29.530  33.482  10.629
20348W        W81714  14.184   9.787  11.048
20349W        W81715  11.775   1.801  10.609
20350W        W81716   9.332  26.688   1.402
20351W        W81717  24.160  13.226  13.323
20352W        W81718  18.227  24.584   1.771
20353W        W81719  41.840  17.798   1.775
20354W        W81720   0.793  27.060  11.384
20355W        W81721  40.330   2.236  14.777
20356W        W81722  30.642  33.059   3.157
20357W        W81723  43.387  35.106  13.803
20358W        W81724  32.421  29.598  14.433
20359W        W81725  41.460  28.101   1.360
20360W        W81726  13.267  26.001  14.290
20361W        W81727   6.800  28.069   0.865
20362W        W81728   7.898   2.792  13.502
20363W        W81729   8.768   4.927  10.523
20364W        W81730   5.408  14.133   1.344
20365W        W81731  18.605  28.984  10.475
20366W        W81732  42.906  15.628   0.829
20367W        W81733  25.710  23.043  11.537
20368W        W81734  28.953  11.315  14.398
20369W        W81735  12.658  37.511   3.692
20370W        W81736   4.878  10.830  12.020
20371W        W81737  14.278  43.509   5.097
20372W        W81738   8.833   7.305   1.316
20373W        W81739  10.777  14.728   3.668
20374W        W81740  19.609  26.976   4.679
20375W        W81741  19.683  42.396  13.042
20376W        W81742  11.368   1.805   2.870
20377W        W81743   3.879   1.832  13.534
20378W        W81744  38.070  34.503   3.764
20379W        W81745  28.454   5.793   4.809
20380W        W81746  12.319  44.900   4.688
20381W        W81747  37.433  29.534  10.510
20382W        W81748   6.718  27.597  10.595
20383W        W81749  38.866  15.681   0.453
20384W        W81750  22.543   4.348   0.755
20385W        W81751  39.374  40.380   0.810
20386W        W81752  25.127  34.083  14.396
20387W        W81753  20.592  38.443  13.909
20388W        W81754  15.153   1.302   3.788
20389W        W81755  11.755  12.132   2.713
20390W        W81756  43.456  10.638  11.608
20391W        W81757  35.894  21.682   0.949
20392W        W81758  13.809  44.895   3.673
20393W        W81759  24.135  34.013  11.949
20394W        W81760  44.984  29.586   4.118
20395W        W81761  21.608  36.435   4.203
20396W        W81762  34.590   1.957  14.934
20397W        W81763  22.699  28.934   3.154
20398W        W81764  29.613  28.480   4.799
20399W        W81765  35.564   5.251  14.510
20400W        W81766  36.849  15.154   2.350
20401W        W81767   2.330  38.540  10.946
20402W        W81768  26.091  26.576  13.890
20403W        W81769  30.069  26.971   4.829
20404W        W81770  31.440  34.563  14.498
20405W        W81771  11.343  39.347   4.268
20406W        W81772  39.313   0.328   3.758
20407W        W81773  26.651  29.013   3.762
20408W        W81774   3.266  21.135  13.417
20409W        W81775   6.423  21.138  13.433
20410W        W81776  35.594   6.684  13.399
20411W        W81777   0.274  39.560   1.787
20412W        W81778  20.646  15.597   1.765
20413W        W81779  27.026   5.778  12.012
20414W        W81780   5.229  20.095  14.866
20415W        W81781  14.597  24.082   3.161
20416W        W81782  21.081  14.273   4.158
20417W        W81783  19.559  34.070   4.193
20418W        W81784  23.156   8.335  14.413
20419W        W81785   2.326  41.538  10.137
20420W        W81786   2.461  30.573   1.786
20421W        W81787  44.418  12.639   0.254
20422W        W81788  22.251  11.640  10.522
20423W        W81789   8.160  36.477  11.013
20424W        W81790  12.666  43.407   2.795
20425W        W81791  27.557   4.808   2.860
20426W        W81792  34.091   0.374  11.979
20427W        W81793   9.325   6.802   4.293
20428W        W81794  16.228  27.658   2.831
20429W        W81795   4.445  12.728  11.043
20430W        W81796  19.689  32.432   2.776
20431W        W81797  28.097  37.465  11.990
20432W        W81798  36.427  26.579   5.301
20433W        W81799  28.145  10.208  10.586
20434W        W81800   7.373   7.806   3.746
20435W        W81801  23.229  29.932   3.374
20436W        W81802  16.593  27.155  11.938
20437W        W81803  24.049  42.029  11.075
20438W        W81804  37.926  42.366   4.131
20439W        W81805  32.584   5.845  14.340
20440W        W81806  16.618   0.936  13.951
20441W        W81807  37.380  30.046   2.338
20442W        W81808  21.108   4.322   0.445
20443W        W81809  11.823  15.128   2.285
20444W        W81810  35.442  44.379   4.222
20445W        W81811  33.952   1.410  14.457
20446W        W81812  17.215  38.938   2.768
20447W        W81813   6.398   0.746   0.327
20448W        W81814  26.107  22.090   3.647
20449W        W81815   7.375   6.325  12.870
20450W        W81816  16.797  22.033  13.854
20451W        W81817   6.259   1.307   0.823
20452W        W81818  28.573  25.180   1.433
20453W        W81819  17.186  39.898   2.311
20454W        W81820  25.704   8.192  12.537
20455W        W81821  44.372  30.481  11.598
20456W        W81822  39.355  27.659   4.831
20457W        W81823   8.662  11.360  14.344
20458W        W81824  19.682  12.819   2.849
20459W        W81825  36.864   1.265  12.492
20460W        W81826  40.813   6.903  10.912
20461W        W81827  12.828  25.217  13.481
20462W        W81828  34.054  17.158  14.819
20463W        W81829  20.173  10.233  14.339
20464W        W81830   4.317  39.831   2.270
20465W        W81831  16.696  31.559  14.516
20466W        W81832   5.878  24.218   3.837
20467W        W81833  25.635  30.413   2.334
20468W        W81834  30.509  23.524  14.933
20469W        W81835   2.786   0.330  12.042
20470W        W81836   5.379  25.531   0.254
20471W        W81837  29.531  34.542  11.396
20472W        W81838  40.322   5.908  13.360
20473W        W81839  32.939  26.105   3.247
20474W        W81840  43.883  44.342   3.281
20475W        W81841   4.438  32.464  11.089
20476W        W81842  25.085  30.053  14.889
20477W        W81843  21.145   2.281   5.140
20478W        W81844  11.270  34.019   4.627
20479W        W81845   3.818  40.021   4.686
20480W        W81846  43.370  23.542   0.332
20481W        W81847   2.252  13.709  12.525
20482W        W81848  35.402   7.807  10.600
20483W        W81849  28.943   0.365   0.280
20484W        W81850   2.444  44.928  13.012
20485W        W81851  29.474  24.628  11.121
20486W        W81852  38.868  25.173   1.327
20487W        W81853  19.691  41.359  10.955
20488W        W81854   8.267  39.948   3.831
20489W        W81855  41.451  14.723  10.513
20490W        W81856  27.153  40.445  11.127
20491W        W81857   1.744  18.216  10.893
20492W        W81858  25.177  30.588  12.486
20493W        W81859  26.198  39.948  12.451
20494W        W81860  28.163  42.470   4.196
20495W        W81861  32.470   6.284  14.907
20496W        W81862  25.600   9.306   3.684
20497W        W81863  22.625  11.648  13.430
20498W        W81864   4.271  10.840   1.728
20499W        W81865  18.163  40.885   4.177
20500W        W81866  41.863   9.366  10.940
20501W        W81867  41.452  13.350   1.225
20502W        W81868  22.537   4.429  13.981
20503W        W81869  18.778  22.503   1.321
20504W        W81870   7.837  29.933  14.949
20505W        W81871   8.854  38.891  14.481
20506W        W81872  42.287  17.646   1.798
20507W        W81873  31.067  19.087   0.265
20508W        W81874  34.090  23.651   2.330
20509W        W81875  34.058  25.627  10.449
20510W        W81876  15.824  24.678  13.859
20511W        W81877  23.023  34.984   3.305
20512W        W81878  13.111  43.916  14.981
20513W        W81879  42.015  16.692  14.414
20514W        W81880  27.456  35.079   1.337
20515W        W81881  36.875  13.268  13.543
20516W        W81882  43.936  43.874   0.328
20517W        W81883  40.870  37.405   0.823
20518W        W81884  33.002   7.329  12.946
20519W        W81885  29.456  22.549  12.949
20520W        W81886  22.678  40.850   0.344
20521W        W81887   5.861  18.242   1.368
20522W        W81888  19.744  10.247  12.824
20523W        W81889   6.846  24.054   2.213
20524W        W81890  10.644  42.481   2.417
20525W        W81891  11.164  11.242  12.867
20526W        W81892  34.901   6.735   0.946
20527W        W81893  11.819  32.421  12.358
20528W        W81894   3.778  23.502   2.220
20529W        W81895  32.615  24.085   4.639
20530W        W81896  16.163  36.381   3.803
20531W        W81897   1.739  43.916   0.863
20532W        W81898  15.305  32.404   2.687
20533W        W81899  31.084  11.773   3.818
20534W        W81900  22.995  23.722   1.770
20535W        W81901   7.833  43.429  12.411
20536W        W81902  32.599  39.829  14.839
20537W        W81903   3.802   8.796   4.679
20538W        W81904  43.434   2.449  13.916
20539W        W81905  11.679  29.617  13.828
20540W        W81906  31.633  13.732  12.933
20541W        W81907   4.722   8.784  14.286
20542W        W81908  24.228  22.010  14.306
20543W        W81909  14.619   3.921  10.945
20544W        W81910  17.227  38.369   4.347
20545W        W81911  19.725  14.792   3.838
20546W        W81912  14.720  37.068  12.037
20547W        W81913  17.756  34.404  10.549
20548W        W81914  44.942  27.983   3.701
20549W        W81915  13.286  19.196   2.224
20550W        W81916  28.592  10.741   2.842
20551W        W81917  19.755  31.146  13.483
20552W        W81918  33.479  26.674   2.719
20553W        W81919   5.292  25.483   1.896
20554W        W81920   2.413   5.308  14.821
20555W        W81921  19.706  29.085   2.255
20556W        W81922   6.278  14.802   3.697
20557W        W81923   8.250  14.171   1.320
20558W        W81924  18.658  16.694   0.958
20559W        W81925  34.378  11.625   2.332
20560W        W81926  30.974  16.290  10.583
20561W        W81927   4.427  32.531   2.793
20562W        W81928  36.568  33.480   0.813
20563W        W81929  44.955  17.692  13.840
20564W        W81930  32.534  44.275   2.256
20565W        W81931  23.549  22.596   3.268
20566W        W81932  35.372   6.382  11.444
20567W        W81933  11.644  40.973   4.811
20568W        W81934  40.987  40.415  14.024
20569W        W81935  36.414  44.888  13.867
20570W        W81936  36.888  30.522  10.927
20571W        W81937  24.159   5.827   5.165
20572W        W81938  37.500  31.517   1.917
20573W        W81939  42.506  18.544  14.330
20574W        W81940  26.176  29.436  14.393
20575W        W81941  20.054   2.848   4.152
20576W        W81942  16.269  29.039  13.370
20577W        W81943  27.973  26.206  13.315
20578W        W81944   2.225  25.687   3.254
20579W        W81945  23.622  31.558   0.461
20580W        W81946  14.700  26.596  12.984
20581W        W81947  10.729  30.609   0.939
20582W        W81948  36.001  10.725   3.819
20583W        W81949   8.818  31.089   1.350
20584W        W81950  31.591  17.063  14.396
20585W        W81951  22.173   5.283   0.727
20586W        W81952  25.642   4.445   1.745
20587W        W81953  30.536  34.598   4.263
20588W        W81954   2.231  41.021  11.027
20589W        W81955  17.573   5.343   0.292
20590W        W81956  36.444  36.584   2.337
20591W        W81957   0.453  29.486   5.106
20592W        W81958  25.562  18.275   4.213
20593W        W81959  16.232  12.323   4.232
20594W        W81960  19.129  10.208   3.841
20595W        W81961  41.491  36.392  12.982
20596W        W81962  20.528  28.107   4.646
20597W        W81963  29.628  32.055  10.446
20598W        W81964  39.909  37.434  14.859
20599W        W81965  34.892   2.250   0.419
20600W        W81966  42.826  37.394   1.234
20601W        W81967  34.917   2.435   4.132
20602W        W81968  15.257  42.027  11.887
20603W        W81969  21.536  12.145  14.311
20604W        W81970  25.095  10.808   0.319
20605W        W81971  36.549  31.125  12.908
20606W        W81972   4.290   7.206   3.744
20607W        W81973  27.158  25.039   1.917
20608W        W81974  27.017   2.242   1.855
20609W        W81975  10.324  13.329  12.502
20610W        W81976  16.747   3.748  12.027
20611W        W81977  14.276   0.957   4.696
20612W        W81978  37.888   4.315   2.810
20613W        W81979  15.668  31.039   4.257
20614W        W81980  41.825   0.828  11.417
20615W        W81981   0.282  33.496  10.963
20616W        W81982  21.601   8.405  12.495
20617W        W81983  31.146   8.678  10.561
20618W        W81984  32.117   4.380   0.787
20619W        W81985  40.486  34.611   2.364
20620W        W81986  17.064   2.815  14.956
20621W        W81987  41.952   9.851  11.952
20622W        W81988  27.035  30.436   5.294
20623W        W81989  39.891  33.442  11.889
20624W        W81990  28.966  12.854   2.721
20625W        W81991  14.222  24.544  11.110
20626W        W81992  34.873  21.114   2.884
20627W        W81993  33.573  16.675   4.640
20628W        W81994  32.954   8.878   1.276
20629W        W81995  36.510  11.858   9.969
20630W        W81996  39.886  37.913  11.404
20631W        W81997  19.694  20.767   4.295
20632W        W81998  13.126  35.572  14.363
20633W        W81999   7.828  20.044  11.017
20634W        W82000  36.033  19.776   1.301
20635W        W82001  16.783  30.048  12.531
20636W        W82002  20.129  15.586  14.003
20637W        W82003  31.537  10.353  12.015
20638W        W82004  27.021  37.434   4.273
20639W        W82005  38.925  12.824  14.942
20640W        W82006  37.416  17.289  13.485
20641W        W82007   7.766  21.132  10.536
20642W        W82008  38.043  28.672  13.409
20643W        W82009  14.118  31.422  13.041
20644W        W82010   7.836  13.320  11.090
20645W        W82011  33.498  25.142   5.109
20646W        W82012  26.675   3.741  12.875
20647W        W82013  37.840  13.323  13.857
20648W        W82014  20.243  31.614  10.916
20649W        W82015  15.610  37.957  13.314
20650W        W82016  28.616  27.514  12.005
20651W        W82017   6.690   1.860   4.651
20652W        W82018  23.209  19.614   2.863
20653W        W82019  12.612  44.266   3.147
20654W        W82020  27.162  24.093   4.326
20655W        W82021   6.200  14.305   4.223
20656W        W82022  17.760  36.975   3.654
20657W        W82023  12.819  21.659  12.932
20658W        W82024  21.709   3.766  13.857
20659W        W82025  14.326  30.423   2.205
20660W        W82026   6.686  24.531  13.422
20661W        W82027   6.358  44.278  14.388
20662W        W82028  13.643  32.900   2.318
20663W        W82029   1.424   0.277  14.402
20664W        W82030  36.500  25.202   1.261
20665W        W82031  15.223  13.789   1.891
20666W        W82032  37.839  36.883   1.413
20667W        W82033   6.885  33.096  10.979
20668W        W82034   2.313  34.098   0.329
20669W        W82035  28.058  43.825  11.391
20670W        W82036  33.052  13.611  13.376
20671W        W82037  27.173   5.372  11.861
20672W        W82038  42.466   0.954   0.459
20673W        W82039  26.480   4.913  10.529
20674W        W82040  30.083  28.080  11.588
20675W        W82041  10.826  32.563  12.498
20676W        W82042  18.755  19.059   4.646
20677W        W82043   0.942  26.552   4.218
20678W        W82044  23.530  18.145  14.301
20679W        W82045  20.612  20.146  12.063
20680W        W82046  39.882  16.706   3.363
20681W        W82047  36.520  12.351   1.254
20682W        W82048  26.978  31.458  10.621
20683W        W82049  11.320  18.593  11.504
20684W        W82050   7.191  16.670  13.421
20685W        W82051   4.256  25.016  14.374
20686W        W82052  28.647   2.425  13.029
20687W        W82053  11.269  36.548   1.743
20688W        W82054  22.702  19.040   0.314
20689W        W82055  13.311  22.587  12.397
20690W        W82056  26.667  20.651  13.535
20691W        W82057  39.346   9.150   0.462
20692W        W82058  11.239  20.110   4.709
20693W        W82059  15.269  43.440  12.996
20694W        W82060  24.525   1.739   1.220
20695W        W82061   0.921  23.517   3.251
20696W        W82062  30.470  11.184   3.286
20697W        W82063   4.790  26.022   2.896
20698W        W82064  29.530  23.093  13.527
20699W        W82065   4.311  19.696  12.468
20700W        W82066  30.950  13.766   4.317
20701W        W82067  24.229  21.032   5.257
20702W        W82068  36.896   5.345  12.072
20703W        W82069  27.456  38.430  12.526
20704W        W82070  38.420  17.743  11.402
20705W        W82071   9.371  30.040  10.550
20706W        W82072  29.969  29.653   9.988
20707W        W82073  20.651   3.885   1.247
20708W        W82074   9.714  43.496  12.028
20709W        W82075  23.198  26.556  12.033
20710W        W82076  31.139  35.883  12.857
20711W        W82077  19.539   3.381  10.899
20712W        W82078  20.089  14.134   3.862
20713W        W82079  18.562  10.240   3.703
20714W        W82080  40.913  42.428   2.670
20715W        W82081  43.435   8.716   2.396
20716W        W82082  43.920  12.814   0.892
20717W        W82083  16.147   5.880  14.787
20718W        W82084  29.467  15.657  14.948
20719W        W82085  34.972  31.933  11.479
20720W        W82086  12.699  39.437   0.269
20721W        W82087  12.727  34.561   3.243
20722W        W82088   1.363   9.745   1.828
20723W        W82089  23.539  36.095  13.063
20724W        W82090  14.827   7.345  13.477
20725W        W82091   8.889   2.418   2.410
20726W        W82092  11.753   6.699  12.384
20727W        W82093   5.908  40.345  13.467
20728W        W82094  43.908  16.170   3.844
20729W        W82095  31.406  12.610   4.331
20730W        W82096   6.888   8.348   0.379
20731W        W82097  27.688  24.651  10.485
20732W        W82098  34.371  28.505   0.310
20733W        W82099   3.400  44.261   4.148
20734W        W82100   0.868  25.029   3.846
20735W        W82101  43.511  38.430  11.417
20736W        W82102  22.578  43.471  14.491
20737W        W82103   0.765  44.913   2.266
20738W        W82104   7.408  22.249   2.297
20739W        W82105  13.803  13.644   1.211
20740W        W82106   6.837  33.922   2.358
20741W        W82107  11.177  31.515   3.642
20742W        W82108  38.419  34.597  14.809
20743W        W82109   1.413  18.768   3.373
20744W        W82110  39.329  12.679  11.961
20745W        W82111  43.002   1.354   0.317
20746W        W82112  29.150  37.499  11.118
20747W        W82113  40.481  29.623   4.220
20748W        W82114  40.392  29.094   1.426
20749W        W82115   1.389  35.466  12.365
20750W        W82116  22.180  30.123  10.440
20751W        W82117  21.227  22.722  14.772
20752W        W82118  19.061  16.751  12.957
20753W        W82119  23.046  42.410  14.810
20754W        W82120  13.669  16.254   0.948
20755W        W82121   0.779  24.005   4.703
20756W        W82122   0.796   0.934   2.731
20757W        W82123  11.296   3.414   3.290
20758W        W82124  11.282  28.944   1.306
20759W        W82125  11.159  16.261  11.068
20760W        W82126   4.727  14.333  13.014
20761W        W82127  36.398  16.193   1.923
20762W        W82128  18.235   2.242   0.881
20763W        W82129  15.812   1.885   4.176
20764W        W82130  20.053  40.385  10.566
20765W        W82131   3.349  32.114   4.801
20766W        W82132  10.328  14.127  13.911
20767W        W82133  33.051   2.954   2.868
20768W        W82134   0.942   4.439  13.543
20769W        W82135   4.704  26.035   2.326
20770W        W82136  44.831  22.092   0.780
20771W        W82137  40.398  34.964  14.935
20772W        W82138  39.557  37.921  10.636
20773W        W82139  42.875  31.626  13.483
20774W        W82140  10.184  26.156   0.271
20775W        W82141  27.962  32.506   4.775
20776W        W82142   7.725   6.218  13.448
20777W        W82143  21.550  24.551   4.324
20778W        W82144   2.303   1.442   0.738
20779W        W82145  10.338  42.335  13.015
20780W        W82146  26.204   8.186  14.435
20781W        W82147  34.104  10.867  11.048
20782W        W82148  31.507  34.914  12.411
20783W        W82149  15.225  43.808  14.792
20784W        W82150  37.028  40.827   3.739
20785W        W82151  43.853   9.265   3.374
20786W        W82152  26.200  38.056   1.210
20787W        W82153  28.509   4.269   3.194
20788W        W82154   4.832  38.995   0.355
20789W        W82155  42.300   9.722   3.732
20790W        W82156  22.245  30.608  11.376
20791W        W82157   3.427  14.612   3.655
20792W        W82158   7.265  11.303  12.896
20793W        W82159   4.776  38.553   4.308
20794W        W82160   7.207  17.723   1.374
20795W        W82161   0.801  26.138   1.451
20796W        W82162  14.602  29.943   4.828
20797W        W82163   2.753  20.601   3.635
20798W        W82164   9.354  20.094  11.402
20799W        W82165  31.135  36.910  12.463
20800W        W82166  30.058  35.466   3.841
20801W        W82167  30.130  25.143   1.439
20802W        W82168   2.909  30.470   9.602
20803W        W82169  38.419   7.674  11.483
20804W        W82170  29.517   0.822  11.129
20805W        W82171  38.939   3.258   4.174
20806W        W82172  18.098  32.058  12.365
20807W        W82173  12.814  28.083  11.021
20808W        W82174  18.583  10.837  12.552
20809W        W82175  22.013  15.241   1.855
20810W        W82176   1.445   4.267  14.939
20811W        W82177  41.827  22.027  13.890
20812W        W82178  37.921   5.372  12.030
20813W        W82179  26.588  30.014  13.002
20814W        W82180   0.932   4.243  12.854
20815W        W82181  44.914   7.393   1.782
20816W        W82182  12.298  41.306  14.339
20817W        W82183  25.015  23.729   0.780
20818W        W82184  21.165  30.094  13.323
20819W        W82185  32.105  17.082  14.448
20820W        W82186  18.248  41.348  14.923
20821W        W82187  16.720  34.504  14.948
20822W        W82188  37.979   9.177   2.368
20823W        W82189  25.671  32.637  10.487
20824W        W82190  12.118  11.667  14.374
20825W        W82191   9.245  16.600   1.837
20826W        W82192  30.097  17.790  11.418
20827W        W82193  16.285   2.452  10.504
20828W        W82194   5.820   3.264   4.639
20829W        W82195  18.179  43.995   3.841
20830W        W82196   8.264   1.947   2.204
20831W        W82197  18.103  36.498   2.902
20832W        W82198  30.093   9.686   2.667
20833W        W82199  43.434  37.426  12.835
20834W        W82200  19.135  32.489   3.222
20835W        W82201  41.348  33.974  11.020
20836W        W82202  25.663   9.884  12.976
20837W        W82203  34.059   3.385  13.511
20838W        W82204  27.500  39.054   0.778
20839W        W82205   7.188  42.959  14.764
20840W        W82206  22.233   2.335   0.904
20841W        W82207   9.878  28.083  14.022
20842W        W82208  32.133  24.208   1.702
20843W        W82209  23.117  43.997  13.961
20844W        W82210   6.885  27.010   1.865
20845W        W82211  18.688   1.945  10.001
20846W        W82212  32.508  20.043   3.700
20847W        W82213   9.390  16.577   1.391
20848W        W82214  37.493  22.019   1.715
20849W        W82215  19.707  17.778   2.877
20850W        W82216  27.485  44.275  13.357
20851W        W82217  40.918  34.076  14.394
20852W        W82218  22.679  16.093   3.325
20853W        W82219  15.611  40.481  13.040
20854W        W82220  38.987  34.901   2.725
20855W        W82221  42.508  36.953  14.433
20856W        W82222  25.575   5.334   2.700
20857W        W82223  42.933  22.530  13.985
20858W        W82224  25.683  19.127  13.868
20859W        W82225  31.541   2.391  14.349
20860W        W82226  27.086   3.740  14.400
20861W        W82227  16.732  39.551  12.016
20862W        W82228  33.910  35.442  11.878
20863W        W82229  44.481  24.120   1.804
20864W        W82230   8.826  29.149   1.282
20865W        W82231   0.793  19.234   4.184
20866W        W82232  30.164  27.124  12.390
20867W        W82233  37.915   7.390   3.229
20868W        W82234  36.985  12.680   4.260
20869W        W82235  28.000  36.500   1.853
20870W        W82236  33.987   1.926  11.009
20871W        W82237  27.495   3.318  11.490
20872W        W82238  18.673   7.880   4.732
20873W        W82239  43.797  18.239   2.390
20874W        W82240  20.234  28.670   1.911
20875W        W82241  36.349  10.726   4.830
20876W        W82242  38.894  21.093  13.915
20877W        W82243  31.123  27.543   2.706
20878W        W82244  34.920  17.742  13.428
20879W        W82245  35.026  11.662   1.349
20880W        W82246  18.595  29.987  11.908
20881W        W82247  24.711   2.407   1.907
20882W        W82248  38.368  39.028  13.395
20883W        W82249  40.351  29.608  14.370
20884W        W82250  37.081  29.500  12.515
20885W        W82251  35.552  44.942   1.829
20886W        W82252  11.221  37.440  13.874
20887W        W82253  43.384  10.319  11.955
20888W        W82254  39.464  37.344  14.326
20889W        W82255  43.495   3.438  11.588
20890W        W82256  38.560   4.838   4.156
20891W        W82257  37.890  11.855   4.312
20892W        W82258  20.535  23.568   1.747
20893W        W82259   0.461  36.542  11.536
20894W        W82260  29.033   2.907   2.885
20895W        W82261  27.977  22.598  10.099
20896W        W82262  36.496  20.083  12.839
20897W        W82263  22.051  31.900   0.960
20898W        W82264  35.917  28.569  12.473
20899W        W82265  34.993  19.588  13.350
20900W        W82266  34.964  42.944  10.435
20901W        W82267  37.017  30.108   0.787
20902W        W82268  22.589  31.095  13.335
20903W        W82269  18.101  40.508  11.897
20904W        W82270  35.966  11.176   4.243
20905W        W82271  26.558  39.556  14.387
20906W        W82272  17.705  33.593  12.065
20907W        W82273  29.471  13.340   0.373
20908W        W82274  30.139  27.577  11.129
20909W        W82275   4.353   3.369   3.209
20910W        W82276  42.863  20.685  12.552
20911W        W82277  38.416   0.844   1.233
20912W        W82278  24.559  23.659  11.056
20913W        W82279   7.800  19.095  11.941
20914W        W82280  24.196  22.209   4.318
20915W        W82281  23.028  20.644  11.058
20916W        W82282  32.087  32.056  11.889
20917W        W82283  35.385  42.523   2.350
20918W        W82284   0.487  29.429  13.445
20919W        W82285  31.123  34.431  10.060
20920W        W82286  30.098  30.545   2.826
20921W        W82287  12.313  10.649  13.376
20922W        W82288  17.696  21.629  11.482
20923W        W82289  38.442  20.123   3.821
20924W        W82290  41.485  29.125  12.574
20925W        W82291  19.091  10.185   1.879
20926W        W82292  39.546  35.099  14.880
20927W        W82293  38.038  16.285  14.776
20928W        W82294  26.484  27.576   0.831
20929W        W82295  22.704  18.053  13.039
20930W        W82296  26.059  24.204  10.434
20931W        W82297  36.931   1.248  13.061
20932W        W82298  23.559  34.912  11.402
20933W        W82299  44.399  13.839  11.857
20934W        W82300   1.266  10.144   2.231
20935W        W82301  13.184  17.177  13.954
20936W        W82302  27.121  21.043  10.512
20937W        W82303  10.736  25.113   4.155
20938W        W82304  27.569  20.163   3.761
20939W        W82305  43.965   9.319   4.637
20940W        W82306  23.169  34.468  14.820
20941W        W82307   5.353  12.667   2.389
20942W        W82308   3.924  41.347  11.440
20943W        W82309  13.644  33.609   3.634
20944W        W82310  36.927  44.841   4.321
20945W        W82311  44.767  37.021  11.461
20946W        W82312  21.666  21.053  12.026
20947W        W82313   6.711  36.926  14.951
20948W        W82314  34.051  10.648   2.700
20949W        W82315  19.539  26.120   4.794
20950W        W82316  28.168  28.149   1.392
20951W        W82317  30.490  34.397   1.420
20952W        W82318  31.527  14.167  14.913
20953W        W82319  19.140  30.626   2.775
20954W        W82320  11.239  34.036  10.977
20955W        W82321  10.223  15.697  11.538
20956W        W82322   3.956  28.664  14.913
20957W        W82323   7.779  35.911   5.131
20958W        W82324  16.697  21.540   1.239
20959W        W82325  41.003  10.233  14.772
20960W        W82326  10.203  29.048   1.340
20961W        W82327   6.747   6.367   4.242
20962W        W82328  30.988   3.263  14.821
20963W        W82329  38.057  21.240   1.356
20964W        W82330  35.100   8.842   1.263
20965W        W82331  23.064  35.887   0.947
20966W        W82332   8.706  31.936   1.877
20967W        W82333  20.270   1.785  14.914
20968W        W82334  15.668   0.382  10.510
20969W        W82335   9.212  43.922   4.777
20970W        W82336  39.840  43.800  13.517
20971W        W82337  22.624  18.239  13.887
20972W        W82338  28.974  44.799  12.390
20973W        W82339  40.017  15.820  10.149
20974W        W82340  40.534  40.376   3.272
20975W        W82341  16.287  19.574  13.929
20976W        W82342  13.194   7.823  12.836
20977W        W82343  11.180  40.955   1.367
20978W        W82344  43.303  22.106   1.757
20979W        W82345  40.914  41.884  14.377
20980W        W82346  37.904  38.891   1.210
20981W        W82347   9.828  17.620   1.807
20982W        W82348  30.031   7.906   0.289
20983W        W82349   7.253  31.436  10.416
20984W        W82350  29.467  35.857   1.893
20985W        W82351  33.466  24.678   1.697
20986W        W82352  23.514  42.783  12.061
20987W        W82353  19.665   9.711  13.958
20988W        W82354  13.810  35.048   1.908
20989W        W82355  34.550   7.350  10.464
20990W        W82356  40.420  26.136  13.984
20991W        W82357  42.896   4.239   1.718
20992W        W82358  12.658  16.201   4.315
20993W        W82359   0.759  29.642  14.971
20994W        W82360   2.298  18.679   3.809
20995W        W82361  28.025  12.192  14.392
20996W        W82362  34.115  37.443  11.050
20997W        W82363  26.675  13.191   2.889
20998W        W82364   8.258  34.552   2.801
20999W        W82365   0.904  39.356   3.346
21000W        W82366  15.200  16.589   0.865
21001W        W82367   0.280  11.862  13.392
21002W        W82368  16.671  43.448  11.081
21003W        W82369  36.517  43.482  13.501
21004W        W82370   1.335  37.435   2.838
21005W        W82371  27.966  29.993  14.811
21006W        W82372   7.905  31.599   2.722
21007W        W82373  27.976   4.347  10.549
21008W        W82374  31.435   5.210  10.465
21009W        W82375  40.985  41.301  12.011
21010W        W82376  40.442  39.524   1.881
21011W        W82377  23.592  35.073   5.711
21012W        W82378  15.672   3.807   3.641
21013W        W82379   7.249  31.143   1.769
21014W        W82380  40.404  35.984   3.659
21015W        W82381  20.227  29.586  13.037
21016W        W82382   0.859  36.069  11.483
21017W        W82383   9.691   2.431   3.378
21018W        W82384   7.825  33.002   3.262
21019W        W82385  15.268  36.357   2.750
21020W        W82386  38.020   1.271  13.442
21021W        W82387  25.211   8.186  11.910
21022W        W82388  17.264  22.047  14.410
21023W        W82389  29.488  34.383  14.897
21024W        W82390  13.727  30.589   9.926
21025W        W82391  16.730  25.076   3.651
21026W        W82392  21.225   9.844   4.255
21027W        W82393  18.112  15.695  13.970
21028W        W82394   9.343  39.331  11.876
21029W        W82395  23.016  32.547  11.542
21030W        W82396  29.979   5.842  13.489
21031W        W82397  43.022  11.782  11.990
21032W        W82398  16.652  22.616   3.767
21033W        W82399  20.050  18.211   0.791
21034W        W82400  25.106   8.321   0.772
21035W        W82401   1.405  23.673   4.166
21036W        W82402  43.461  34.868  14.293
21037W        W82403  10.674   2.883   0.339
21038W        W82404  31.951   3.433  11.508
21039W        W82405  23.073   0.342   0.296
21040W        W82406  35.916  37.380   2.218
21041W        W82407  35.558  30.498   1.342
21042W        W82408   2.434  23.685   4.342
21043W        W82409  22.187  29.464   2.414
21044W        W82410  21.736   1.274  10.543
21045W        W82411  10.774  22.165   1.237
21046W        W82412  39.989  31.992  12.023
21047W        W82413  26.703  18.177   4.663
21048W        W82414  23.614   7.778  12.880
21049W        W82415  22.243  29.115  12.873
21050W        W82416  32.621  32.503   0.760
21051W        W82417   3.921   2.772  11.899
21052W        W82418  23.086  29.434   4.127
21053W        W82419   7.308   9.823  13.469
21054W        W82420   7.789  41.494  14.945
21055W        W82421  40.485  42.988   2.181
21056W        W82422  14.218   0.345   4.839
21057W        W82423   1.243  11.233  12.085
21058W        W82424  33.887   8.766  14.935
21059W        W82425   7.696   4.384   3.837
21060W        W82426   4.378  27.156   4.182
21061W        W82427  44.835  44.404  11.607
21062W        W82428  39.838  28.462   3.769
21063W        W82429  23.703  23.062  11.998
21064W        W82430  34.410  39.967   1.762
21065W        W82431  19.688  32.606   1.797
21066W        W82432  34.066  42.836   0.429
21067W        W82433  35.879   7.851   3.182
21068W        W82434  12.696  21.020   3.635
21069W        W82435  15.135   9.205   4.837
21070W        W82436   2.943  39.913   3.197
21071W        W82437  31.416  21.673  12.571
21072W        W82438  28.994  16.121  13.894
21073W        W82439  40.975  15.596   3.184
21074W        W82440  26.565  41.823   2.875
21075W        W82441  15.703  28.068  10.456
21076W        W82442  24.181  35.022  12.384
21077W        W82443   4.918  19.071  12.396
21078W        W82444   7.694  10.722   3.167
21079W        W82445  21.523  22.528   1.215
21080W        W82446  10.362  13.164   1.227
21081W        W82447  34.906   9.247  12.014
21082W        W82448  41.837  35.454   4.618
21083W        W82449  17.220   7.342   4.190
21084W        W82450  14.142  10.800   4.337
21085W        W82451  32.440   0.890   3.210
21086W        W82452  10.338   9.695  14.845
21087W        W82453  12.130  44.398  13.061
21088W        W82454  17.207  16.666  14.985
21089W        W82455  32.593  24.646   0.821
21090W        W82456   8.793  23.491   0.399
21091W        W82457  18.733   1.764  12.472
21092W        W82458  29.942   6.196   1.864
21093W        W82459   2.366   6.734  12.373
21094W        W82460   3.777  12.242   0.360
21095W        W82461  30.451  25.107  10.467
21096W        W82462   4.222  16.812  12.066
21097W        W82463  39.521  12.275  10.984
21098W        W82464  10.152   9.888   1.321
21099W        W82465  25.475  20.610  13.063
21100W        W82466  26.497   0.815  10.564
21101W        W82467   9.250  20.733  13.819
21102W        W82468  34.425  22.593  12.988
21103W        W82469  15.324  34.502   5.202
21104W        W82470  24.149   8.315  12.379
21105W        W82471  11.846  28.089  13.476
21106W        W82472  21.625   5.717   2.340
21107W        W82473  36.070  28.583   0.938
21108W        W82474  13.309  19.136  12.985
21109W        W82475  38.369   9.643  14.817
21110W        W82476  19.246  24.522   2.336
21111W        W82477  15.288  29.526   2.858
21112W        W82478  34.868   0.403  12.969
21113W        W82479   1.297  28.637   1.823
21114W        W82480  26.477  11.203   4.609
21115W        W82481   5.852  30.467   0.431
21116W        W82482   4.226   6.413  14.467
21117W        W82483  10.829  44.963  13.855
21118W        W82484  23.114  32.039   2.851
21119W        W82485  22.102  20.070   1.298
21120W        W82486  40.918  32.621   3.269
21121W        W82487  12.142  20.158   0.311
21122W        W82488  28.179  37.951  14.817
21123W        W82489  19.561   3.722  11.946
21124W        W82490   7.290  14.831   5.755
21125W        W82491  27.658  44.492  11.418
21126W        W82492  17.702  29.569   3.270
21127W        W82493  37.401  14.655  12.072
21128W        W82494  39.542  32.911  14.822
21129W        W82495  40.524  11.190   4.193
21130W        W82496   6.838  20.679   1.890
21131W        W82497  28.636  38.528   1.436
21132W        W82498  31.966  42.942  13.542
21133W        W82499  25.528  32.606  14.969
21134W        W82500  28.069  14.834  10.486
21135W        W82501  14.319  37.961  13.055
21136W        W82502  22.574  23.114  13.984
21137W        W82503  16.666  25.144  11.976
21138W        W82504  21.529   0.269  11.894
21139W        W82505  23.082  40.330   3.173
21140W        W82506  26.619  28.981   5.282
21141W        W82507  29.603   0.839  13.956
21142W        W82508  43.821  37.465   4.344
21143W        W82509  19.703  10.188   4.767
21144W        W82510   1.784  15.795  13.931
21145W        W82511  29.997  23.713   1.294
21146W        W82512   2.231  25.622  13.417
21147W        W82513  10.708   4.395  13.410
21148W        W82514   7.183  44.423  11.902
21149W        W82515  30.148   8.243   2.725
21150W        W82516   3.818  11.756   1.352
21151W        W82517  31.404  16.277   3.836
21152W        W82518  36.501  15.715  13.445
21153W        W82519   8.314   7.196  14.373
21154W        W82520  39.491  41.520   5.177
21155W        W82521  20.569  37.571  14.516
21156W        W82522  19.556  36.354   3.695
21157W        W82523   0.978  34.566  12.072
21158W        W82524   4.748  30.911   5.255
21159W        W82525  31.520  20.039  11.451
21160W        W82526  13.689  37.342   1.776
21161W        W82527  25.973  26.495   2.237
21162W        W82528  24.223  37.490   4.290
21163W        W82529  13.609  41.012  11.905
21164W        W82530  13.229  32.464   3.699
21165W        W82531  11.733  39.927  14.441
21166W        W82532  22.670  39.020   1.382
21167W        W82533   8.165  31.014   4.150
21168W        W82534  44.801  11.811   4.669
21169W        W82535  29.965  37.401  10.477
21170W        W82536  16.271  40.041  13.930
21171W        W82537  34.115  10.379   1.708
21172W        W82538  14.610  22.103  10.955
21173W        W82539  24.588  10.296  13.891
21174W        W82540   8.772   3.268  12.423
21175W        W82541  44.405   8.315  11.039
21176W        W82542  11.141  40.992  11.561
21177W        W82543  35.927  18.706   2.178
21178W        W82544  42.963  11.185  11.960
21179W        W82545  25.524  31.626  13.907
21180W        W82546   2.341  16.075   0.324
21181W        W82547  29.432   8.351   3.780
21182W        W82548  35.510  17.761   0.471
21183W        W82549  18.696  17.192   2.217
21184W        W82550  19.701  10.165  10.952
21185W        W82551  21.607  22.672  10.607
21186W        W82552  25.024  12.722   0.481
21187W        W82553  20.715   5.329  12.036
21188W        W82554  29.513   5.739   4.720
21189W        W82555  40.997  25.087   2.295
21190W        W82556  33.011   5.401   2.340
21191W        W82557  26.160  18.617   1.310
21192W        W82558  34.911  27.488   3.337
21193W        W82559  15.216  39.862   4.826
21194W        W82560  37.880   6.303  12.360
21195W        W82561  26.074  21.721   1.435
21196W        W82562  15.663  43.770  11.575
21197W        W82563   8.786  28.966  13.418
21198W        W82564  27.102   5.412   4.259
21199W        W82565   7.779   1.797  11.535
21200W        W82566  18.552  15.112   1.237
21201W        W82567  38.404  33.090   1.834
21202W        W82568  44.915  36.981   1.344
21203W        W82569  44.981  42.010  11.557
21204W        W82570   6.371  43.924   4.131
21205W        W82571  30.944  31.630   2.245
21206W        W82572  31.411  30.925  12.475
21207W        W82573  14.792  38.359   2.275
21208W        W82574  11.282   1.466  12.040
21209W        W82575  18.127  26.680  13.919
21210W        W82576   5.795  42.811   1.925
21211W        W82577  40.497   3.283   9.972
21212W        W82578  35.091  19.754   5.163
21213W        W82579  18.231  18.708   0.259
21214W        W82580  26.116  19.775   3.685
21215W        W82581  12.317   1.813  10.958
21216W        W82582  22.610  40.319   1.392
21217W        W82583  26.510  29.944   2.702
21218W        W82584   2.776   9.748  13.478
21219W        W82585   4.446  16.170   0.271
21220W        W82586   6.741  32.120   5.091
21221W        W82587   0.483  33.557   4.205
21222W        W82588  30.925   9.801  12.571
21223W        W82589   9.173  21.226   0.966
21224W        W82590  29.484  14.690  13.046
21225W        W82591  29.600   3.326   0.758
21226W        W82592   5.345   8.840   4.176
21227W        W82593  40.865  18.159   4.335
21228W        W82594   6.817  34.614   3.171
21229W        W82595  27.623  37.347  12.500
21230W        W82596  44.988  20.554  11.029
21231W        W82597   4.894  42.509   0.381
21232W        W82598  11.277  43.997  13.461
21233W        W82599  18.161  26.974  10.949
21234W        W82600  15.669  34.909  12.835
21235W        W82601  12.207  40.827  11.023
21236W        W82602  24.069  38.375  13.918
21237W        W82603  39.042   3.453   2.312
21238W        W82604   6.374  32.450   0.440
21239W        W82605  41.820  44.779   1.343
21240W        W82606  40.527  37.950  14.314
21241W        W82607  37.844  39.333   2.872
21242W        W82608  17.698  31.539  11.415
21243W        W82609  41.955  35.902   0.477
21244W        W82610  17.063  36.913  10.522
21245W        W82611  43.317  38.976  14.952
21246W        W82612  40.837  16.642  11.916
21247W        W82613  40.481   7.311  13.835
21248W        W82614  11.310   6.712   2.414
21249W        W82615  37.511   5.398  13.815
21250W        W82616   0.766  29.643   3.156
21251W        W82617  10.155  11.812  14.494
21252W        W82618  22.597  18.585   1.802
21253W        W82619  21.076  21.669  11.029
21254W        W82620   7.740   8.862   2.810
21255W        W82621  26.123   5.390  13.961
21256W        W82622  35.012  10.741  11.449
21257W        W82623  12.338   9.319  14.992
21258W        W82624  22.031   6.799  13.859
21259W        W82625  43.933  32.885  13.375
21260W        W82626  32.088  22.690  11.407
21261W        W82627  41.882  23.717   0.957
21262W        W82628   2.280  19.692  12.846
21263W        W82629  39.344  40.900   3.327
21264W        W82630  30.570  25.176   3.667
21265W        W82631  28.103  41.388   4.138
21266W        W82632  35.409  25.538   2.204
21267W        W82633   9.204   2.225  10.970
21268W        W82634  35.083  25.601  13.871
21269W        W82635   6.198   9.778  14.430
21270W        W82636  14.161   1.352   0.339
21271W        W82637  25.040  15.766  11.107
21272W        W82638  37.053  20.601   2.896
21273W        W82639  26.117  27.643   3.280
21274W        W82640   2.420  29.964  12.570
21275W        W82641   8.709  25.019   4.804
21276W        W82642   8.269  13.718   4.707
21277W        W82643  35.476  14.241   5.099
21278W        W82644  44.871   4.733   4.313
21279W        W82645  26.495   0.819   1.715
21280W        W82646  32.930   1.438   2.884
21281W        W82647   9.287  13.771  10.994
21282W        W82648  32.598  15.613   2.835
21283W        W82649   4.938  28.531   0.481
21284W        W82650  20.149  42.835  10.029
21285W        W82651  21.534  33.904  11.484
21286W        W82652  36.884  19.207   4.328
21287W        W82653   8.178  36.957  13.490
21288W        W82654  32.015   9.194  14.284
21289W        W82655  17.784   1.759   1.355
21290W        W82656  32.421  14.295  12.362
21291W        W82657   6.280  11.170   1.805
21292W        W82658  21.667  32.421  14.942
21293W        W82659  12.128  17.731   2.261
21294W        W82660  27.952  16.248   0.799
21295W        W82661  42.920  12.265  11.003
21296W        W82662  26.062  14.664  12.350
21297W        W82663   2.740  22.065   4.151
21298W        W82664  30.046  43.271   0.320
21299W        W82665  24.033  41.987  14.981
21300W        W82666  39.314   3.806   0.458
21301W        W82667  44.461  41.986  13.931
21302W        W82668  13.277   3.783  11.039
21303W        W82669   8.659   9.718   1.260
21304W        W82670   6.721  37.876   1.787
21305W        W82671  33.509  12.333   4.230
21306W        W82672  23.212   0.294  12.865
21307W        W82673  28.030   7.389   2.358
21308W        W82674  36.878  18.219  11.903
21309W        W82675  39.379  30.123   2.857
21310W        W82676   8.209  37.440   4.313
21311W        W82677  44.972  42.517   3.326
21312W        W82678   1.449  20.596   1.313
21313W        W82679  16.622   8.166   4.291
21314W        W82680   0.468  13.327   1.413
21315W        W82681  40.371  17.562   4.345
21316W        W82682  34.495  18.052   4.683
21317W        W82683  39.860  28.674   2.263
21318W        W82684  22.108  27.991   3.791
21319W        W82685  28.479  44.448   2.709
21320W        W82686  44.317  21.150   1.807
21321W        W82687  37.342   7.732   1.876
21322W        W82688  30.049  32.456   4.599
21323W        W82689  44.986   6.414   4.327
21324W        W82690   7.213  40.337   0.327
21325W        W82691  43.812  33.935  13.952
21326W        W82692  11.178  13.641   1.829
21327W        W82693  29.538  28.450   1.886
21328W        W82694  21.132  11.189   0.441
21329W        W82695   3.751  11.232   4.117
21330W        W82696  25.635  42.025  12.841
21331W        W82697  15.731  18.710  13.483
21332W        W82698   0.467  22.221   3.290
21333W        W82699  33.885  21.673  13.987
21334W        W82700  43.851  29.429  14.817
21335W        W82701  15.713  39.018   4.617
21336W        W82702   3.326  44.410  10.559
21337W        W82703  12.827  26.048  10.936
21338W        W82704  25.640  21.530  11.924
21339W        W82705  28.472   1.393   1.298
21340W        W82706  18.169  22.187  11.401
21341W        W82707  16.211  13.144   9.626
21342W        W82708  11.192   2.742  10.987
21343W        W82709   4.778  41.411   3.347
21344W        W82710  11.698  42.954  14.410
21345W        W82711  13.301  39.995  12.907
21346W        W82712  22.545   2.319   3.867
21347W        W82713  33.587   9.272  13.014
21348W        W82714  35.918  43.401  12.960
21349W        W82715  36.432  44.803   4.792
21350W        W82716   7.379  19.706   3.258
21351W        W82717   0.484  36.905   0.773
21352W        W82718  29.611  41.812  11.930
21353W        W82719   3.296  20.218   0.919
21354W        W82720   8.287  19.643  12.414
21355W        W82721  15.706   5.758  14.354
21356W        W82722   1.850  13.254  12.054
21357W        W82723  24.480  10.850  12.551
21358W        W82724  20.754  42.944   3.639
21359W        W82725  10.337  42.415   4.159
21360W        W82726   6.747  18.071   1.286
21361W        W82727  17.186  26.182   4.246
21362W        W82728  28.095  40.352  10.534
21363W        W82729  36.929  35.419   4.602
21364W        W82730   1.403  34.417  13.390
21365W        W82731   9.210   5.257  14.360
21366W        W82732  15.602  12.783  14.781
21367W        W82733  16.244  41.805   0.447
21368W        W82734  39.554  25.009   1.727
21369W        W82735   2.425  30.499   0.757
21370W        W82736  34.425  17.587  13.370
21371W        W82737  39.894  23.216  14.780
21372W        W82738  39.462  15.612  12.344
21373W        W82739  24.514  22.675   0.322
21374W        W82740   1.912  40.508  10.504
21375W        W82741   4.922  12.789  13.899
21376W        W82742  30.124  30.453   2.318
21377W        W82743  38.333  33.393   3.322
21378W        W82744   6.400  22.041   3.387
21379W        W82745   4.282   6.190   2.308
21380W        W82746  23.563   2.784  11.580
21381W        W82747  19.724  41.961  13.321
21382W        W82748  36.921  41.314  13.940
21383W        W82749  13.619  17.734  10.894
21384W        W82750  24.556   8.849   1.910
21385W        W82751  22.515   3.275   5.637
21386W        W82752   4.814   6.292   0.740
21387W        W82753  40.842  17.573   4.687
21388W        W82754  22.153   0.758   4.716
21389W        W82755  35.361  37.956   0.382
21390W        W82756   7.306  31.529   2.335
21391W        W82757  16.233   5.393   0.850
21392W        W82758   6.685  38.924   1.828
21393W        W82759  31.575  25.555   0.425
21394W        W82760  20.707  43.285  12.415
21395W        W82761  17.734  40.418  10.968
21396W        W82762  33.538  21.032   2.233
21397W        W82763  25.474   1.922   0.823
21398W        W82764  37.499   8.350   3.261
21399W        W82765  22.650   3.864  14.007
21400W        W82766  27.057  30.969   4.178
21401W        W82767   1.404  43.948  12.541
21402W        W82768  36.351  13.833  12.928
21403W        W82769   8.833  40.010  12.910
21404W        W82770  36.978   9.874   3.775
21405W        W82771  36.032  29.499   1.871
21406W        W82772  18.644  35.083   4.623
21407W        W82773  19.550  34.894  13.012
21408W        W82774  33.472  20.129   5.322
21409W        W82775  34.946  25.199  10.514
21410W        W82776  13.316  44.425  13.441
21411W        W82777  18.547  20.741   3.733
21412W        W82778  12.205   0.810   3.238
21413W        W82779  21.612   2.813  13.012
21414W        W82780  42.875  20.686   1.758
21415W        W82781  41.493  28.563  12.563
21416W        W82782   1.866   3.776  12.411
21417W        W82783  30.019  31.941  13.985
21418W        W82784  17.713  24.720  11.964
21419W        W82785  33.449  21.256  12.424
21420W        W82786  19.245  14.284   5.199
21421W        W82787  37.445  22.604  10.551
21422W        W82788   0.977   2.330  11.572
21423W        W82789   8.680  16.230  11.472
21424W        W82790  30.551  40.004  14.489
21425W        W82791  18.286  42.987   0.319
21426W        W82792  10.287  27.061  12.436
21427W        W82793   8.783  38.912  14.971
21428W        W82794   2.439  16.136   3.275
21429W        W82795   3.733  20.599   1.921
21430W        W82796  35.386  34.093  10.644
21431W        W82797  14.318   0.376   4.350
21432W        W82798  18.221  27.074   3.237
21433W        W82799  10.643  29.569  12.544
21434W        W82800  43.778   4.811   4.791
21435W        W82801  21.665  35.482   5.219
21436W        W82802   2.763  24.163  10.478
21437W        W82803  42.786  19.049  13.826
21438W        W82804  22.702  15.175  11.099
21439W        W82805  11.824  28.060   5.318
21440W        W82806  19.721  32.972   1.796
21441W        W82807  33.070  14.101  14.288
21442W        W82808  14.333  14.658  14.016
21443W        W82809  38.474   5.739  12.492
21444W        W82810  28.969  28.467  14.760
21445W        W82811  28.066   2.855  11.467
21446W        W82812  40.306  39.027  13.540
21447W        W82813  36.008  33.936  12.095
21448W        W82814  34.951  13.617  11.475
21449W        W82815  44.410  34.458  13.905
21450W        W82816  38.429  14.302  11.946
21451W        W82817  31.921  30.913  12.487
21452W        W82818  26.964   3.335  12.434
21453W        W82819  12.161  12.701   3.859
21454W        W82820  16.599   2.874   3.182
21455W        W82821  17.147  38.026  10.108
21456W        W82822  15.637  30.558  10.465
21457W        W82823  44.281  16.744   3.684
21458W        W82824  28.584   4.889   1.378
21459W        W82825   5.253  16.183   1.250
21460W        W82826  36.430  11.799   4.655
21461W        W82827  13.314  34.483  11.934
21462W        W82828  28.973  16.741   1.830
21463W        W82829  19.711  32.408   5.193
21464W        W82830   3.282  32.136  10.951
21465W        W82831  18.652  17.215   4.807
21466W        W82832  32.629  10.267   3.330
21467W        W82833  22.706  22.020   2.677
21468W        W82834   6.908  39.463   3.729
21469W        W82835  41.443  26.624   0.851
21470W        W82836  13.259  15.216   2.247
21471W        W82837  16.689  29.984  11.519
21472W        W82838  24.499   5.719   3.223
21473W        W82839   0.865  34.080   2.313
21474W        W82840  31.627  21.607   4.327
21475W        W82841   2.902   4.329  12.947
21476W        W82842   3.327  14.809  12.530
21477W        W82843  28.083  24.992  11.526
21478W        W82844   8.710   1.774  11.073
21479W        W82845  27.144  42.019   4.677
21480W        W82846   3.230  37.448  13.328
21481W        W82847  14.606   4.220  11.929
21482W        W82848  22.066  39.553   1.728
21483W        W82849  23.713  10.376   0.247
21484W        W82850   7.828  34.884  13.446
21485W        W82851  27.468  20.547   1.290
21486W        W82852   5.921  44.974  11.018
21487W        W82853  36.405  34.888  14.416
21488W        W82854  41.035  34.422  13.522
21489W        W82855  31.913  22.056  11.937
21490W        W82856  19.126  18.782  13.003
21491W        W82857  42.512  27.666   3.668
21492W        W82858  35.358  40.837   3.672
21493W        W82859  13.699  28.660   3.365
21494W        W82860  14.761  37.358   0.869
21495W        W82861  24.100  11.818  11.126
21496W        W82862  14.629   8.703  13.019
21497W        W82863  23.189  40.009   4.315
21498W        W82864  17.244  13.215  12.851
21499W        W82865  42.979  12.637  14.894
21500W        W82866  27.637   9.187  13.006
21501W        W82867  41.364  41.980  13.918
21502W        W82868  10.765  43.854   4.726
21503W        W82869  13.765  28.003  11.414
21504W        W82870  12.182  20.620  10.891
21505W        W82871  21.097  13.811  13.347
21506W        W82872  16.291  10.782   4.597
21507W        W82873  10.691   7.363   2.368
21508W        W82874  20.136  17.737  11.885
21509W        W82875  37.366  33.587   4.625
21510W        W82876  42.398  22.007   2.863
21511W        W82877  27.503  17.790  11.448
21512W        W82878   1.815  18.749  10.451
21513W        W82879  31.119   7.694  12.506
21514W        W82880  14.097   3.415  13.037
21515W        W82881  19.635  28.112  14.318
21516W        W82882  38.949  20.724   2.416
21517W        W82883  12.836  38.931  14.401
21518W        W82884   3.238   0.786  14.415
21519W        W82885  41.502   6.894   4.794
21520W        W82886  14.714  41.459  13.059
21521W        W82887  14.779  24.150  11.902
21522W        W82888  42.409  19.046  14.403
21523W        W82889  31.958  29.434  12.926
21524W        W82890   9.265  35.996  12.480
21525W        W82891  36.012   8.870   2.687
21526W        W82892  11.755  22.137  14.860
21527W        W82893  24.652  44.970  13.510
21528W        W82894  18.603  29.477  14.798
21529W        W82895  11.860  25.166   1.726
21530W        W82896  37.879   0.760   3.287
21531W        W82897   1.445  21.239  14.506
21532W        W82898  41.963  31.945  10.013
21533W        W82899  28.176  33.060   4.820
21534W        W82900  21.153  32.518   4.282
21535W        W82901  31.526   7.391   3.629
21536W        W82902  17.200  44.340  14.949
21537W        W82903  41.972  35.099  13.041
21538W        W82904  43.486  29.547  12.474
21539W        W82905  31.536  33.098  13.018
21540W        W82906   5.879  32.586   4.345
21541W        W82907   4.918  17.124  14.799
21542W        W82908   2.958   8.844  12.924
21543W        W82909  33.436  43.997  14.785
21544W        W82910   3.419  33.455   3.197
21545W        W82911   8.744  10.289  14.759
21546W        W82912  34.887  11.256   1.904
21547W        W82913  33.399   4.432  12.462
21548W        W82914   9.188  22.209   0.844
21549W        W82915   5.875  31.115  13.415
21550W        W82916  37.439  11.196  13.332
21551W        W82917  31.597  21.226   2.342
21552W        W82918  35.904   8.869  14.504
21553W        W82919  17.192   0.260  11.530
21554W        W82920  22.512  43.295   4.209
21555W        W82921  36.591   0.772  10.524
21556W        W82922  31.992  35.875  14.884
21557W        W82923  27.981  32.076  11.483
21558W        W82924   4.779  38.400   4.790
21559W        W82925  26.672  29.425   9.548
21560W        W82926  19.779  20.615  11.606
21561W        W82927  41.388   4.294  12.048
21562W        W82928  31.457  29.958   3.750
21563W        W82929  34.094   1.335   3.672
21564W        W82930   3.237  19.166   2.835
21565W        W82931  36.897   1.912   2.229
21566W        W82932  44.868  44.292   1.433
21567W        W82933  33.904  20.677   1.252
21568W        W82934  11.270  19.590   2.221
21569W        W82935  25.999  36.485   2.259
21570W        W82936  32.545  32.894   0.946
21571W        W82937  42.999  42.896  11.482
21572W        W82938  20.603   9.323  13.833
21573W        W82939  15.105   1.264   2.868
21574W        W82940  42.423  25.055   2.263
21575W        W82941  10.234   3.245   0.854
21576W        W82942  44.416  37.931  11.573
21577W        W82943  31.554  11.267   1.210
21578W        W82944  44.949   9.740  14.512
21579W        W82945   3.907  18.614   5.227
21580W        W82946   9.294  10.814  10.426
21581W        W82947  25.520  30.104  13.340
21582W        W82948  38.884  20.689   4.323
21583W        W82949  43.304   4.325  14.926
21584W        W82950   9.662  44.395  13.546
21585W        W82951  41.830  15.812  14.434
21586W        W82952   3.860  37.983   1.868
21587W        W82953  39.542  33.891  10.527
21588W        W82954  17.616  16.740   3.255
21589W        W82955  19.146  38.472  14.484
21590W        W82956  21.224  37.527  14.410
21591W        W82957   8.724   5.834  12.554
21592W        W82958  17.762   7.317   2.336
21593W        W82959  21.633  14.241   3.796
21594W        W82960  38.015   2.904   2.221
21595W        W82961   9.301  42.961  13.461
21596W        W82962   0.459  32.421   0.789
21597W        W82963  22.673  39.852  10.902
21598W        W82964  28.091  12.829   4.273
21599W        W82965  15.086   5.235  11.003
21600W        W82966  43.276  20.070   0.477
21601W        W82967  22.688  31.152  12.548
21602W        W82968  26.012  30.649  12.542
21603W        W82969  18.102  39.407   1.271
21604W        W82970  24.050   1.798  13.043
21605W        W82971  44.498  24.557  10.447
21606W        W82972  38.416  35.400  14.475
21607W        W82973  15.266  26.691  14.437
21608W        W82974  39.062  18.269   0.313
21609W        W82975  24.172  31.986   2.789
21610W        W82976  21.684  18.723  11.870
21611W        W82977  43.789   6.416  13.447
21612W        W82978  30.616  44.762   4.776
21613W        W82979  18.753  42.896   4.167
21614W        W82980  19.583  19.136  11.415
21615W        W82981  14.194   3.737  11.979
21616W        W82982  44.353  44.324   4.120
21617W        W82983  39.317  19.186   2.288
21618W        W82984  21.564   7.305   2.896
21619W        W82985  19.146  24.128  10.595
21620W        W82986   5.296  20.737  12.896
21621W        W82987  21.141  32.963   9.650
21622W        W82988   7.856  44.780  14.026
21623W        W82989   2.895  10.331   0.454
21624W        W82990  17.675  14.322  14.360
21625W        W82991  34.947  43.312  14.366
21626W        W82992  35.555   5.312  10.906
21627W        W82993  10.335  14.208  10.571
21628W        W82994   1.303   9.733   3.208
21629W        W82995  17.189   2.413   0.354
21630W        W82996  15.592  38.835  11.886
21631W        W82997  43.929  20.179  11.129
21632W        W82998  43.796  41.849  10.903
21633W        W82999   5.766   7.211   1.246
21634W        W83000  26.025  22.216   2.823
21635W        W83001  25.106   6.260   3.240
21636W        W83002  36.507  43.369   0.411
21637W        W83003  35.408   2.963   4.341
21638W        W83004   5.911  41.881   4.798
21639W        W83005  10.637   8.180  11.449
21640W        W83006  42.835  25.633  14.316
21641W        W83007  25.041  21.179  11.445
21642W        W83008  44.309  22.528   1.823
21643W        W83009   6.398  35.358   4.796
21644W        W83010  34.497  26.067   3.809
21645W        W83011  16.194  23.143   0.739
21646W        W83012  14.297  18.751  12.874
21647W        W83013  19.671  23.192   2.704
21648W        W83014  19.262  36.985  10.110
21649W        W83015  29.613  30.578   4.151
21650W        W83016  38.475  21.528   3.174
21651W        W83017  38.496  22.250   3.376
21652W        W83018  38.380   1.482  11.038
21653W        W83019  31.035  18.682  14.337
21654W        W83020  44.261  14.643   4.750
21655W        W83021  31.118  34.957   4.142
21656W        W83022  14.121  29.574  12.907
21657W        W83023  28.522  25.133   5.129
21658W        W83024  29.949  37.921  12.005
21659W        W83025  30.546  35.110   1.427
21660W        W83026   0.302  21.076   3.694
21661W        W83027  22.200  12.215  14.800
21662W        W83028  26.681  41.841   0.785
21663W        W83029  23.532  31.513  12.044
21664W        W83030  16.627  20.126  14.927
21665W        W83031  25.004   8.875   2.896
21666W        W83032  32.977  39.518   0.243
21667W        W83033  37.522  20.535   1.234
21668W        W83034  11.669  34.904   1.770
21669W        W83035  15.269  35.900   0.823
21670W        W83036  18.573  11.783  11.002
21671W        W83037   8.170  15.187   3.258
21672W        W83038  44.460   0.406   3.715
21673W        W83039  37.406  10.154  14.893
21674W        W83040  14.683  10.798   2.733
21675W        W83041  10.347  16.800  14.855
21676W        W83042  18.166  41.498  13.374
21677W        W83043  16.231   8.786  14.300
21678W        W83044  27.052  10.817   1.358
21679W        W83045  29.017  11.356  13.309
21680W        W83046   3.757  38.072  14.313
21681W        W83047  18.282  28.651  11.955
21682W        W83048  28.109  13.169   3.816
21683W        W83049   3.886  31.590  10.581
21684W        W83050   4.221  27.622  14.936
21685W        W83051   4.341  36.848   0.420
21686W        W83052  14.718  34.502   2.721
21687W        W83053  42.785  43.346   1.230
21688W        W83054  10.187  26.504  10.092
21689W        W83055  43.389   4.350   2.259
21690W        W83056  41.950  38.962   0.258
21691W        W83057  39.386  10.209  11.957
21692W        W83058  28.171  23.067  10.596
21693W        W83059   5.362   6.235   2.274
21694W        W83060  13.655  38.477  12.963
21695W        W83061   8.303  10.301   1.210
21696W        W83062  33.010   0.455  14.391
21697W        W83063   4.218  27.031  13.970
21698W        W83064  43.508   6.239   2.393
21699W        W83065   2.864  32.515   5.760
21700W        W83066  22.178  39.838   0.244
21701W        W83067  32.006  14.163  13.500
21702W        W83068  24.485  17.627   2.400
21703W        W83069  40.351  39.962  10.092
21704W        W83070  44.280  31.635  14.847
21705W        W83071   5.431  25.113  10.954
21706W        W83072   6.425  44.369   2.699
21707W        W83073   9.307  16.080   0.960
21708W        W83074  42.016  34.527  12.531
21709W        W83075  28.058  42.422   0.242
21710W        W83076  33.567  19.774   3.797
21711W        W83077   6.822  41.512   3.233
21712W        W83078  43.839  38.487   0.473
21713W        W83079  20.121  30.130   1.336
21714W        W83080   0.465  11.718   2.255
21715W        W83081  29.069   1.928   1.922
21716W        W83082  37.869  44.846  12.018
21717W        W83083  13.309  23.060   4.225
21718W        W83084  38.992  39.497   2.669
21719W        W83085   9.851   7.402  10.945
21720W        W83086  19.726   3.819   3.743
21721W        W83087  20.740  27.067   3.232
21722W        W83088  39.890  13.248  11.866
21723W        W83089  22.534  33.590  12.564
21724W        W83090  32.625   2.846  10.513
21725W        W83091  37.078  11.155   1.264
21726W        W83092  10.262  17.559   4.350
21727W        W83093   0.762   3.400  13.433
21728W        W83094  39.424   8.741  14.276
21729W        W83095  44.953   9.211   0.356
21730W        W83096  36.583  21.754  14.827
21731W        W83097  31.465  18.239   3.263
21732W        W83098  42.329   0.395   0.374
21733W        W83099  34.380  37.579   2.264
21734W        W83100   2.443  24.047  14.311
21735W        W83101   3.894  37.555   0.785
21736W        W83102  18.578  40.525   0.792
21737W        W83103  13.733  28.654   1.278
21738W        W83104   7.374  17.289  11.396
21739W        W83105  32.540   6.779  13.352
21740W        W83106  33.044  21.017   3.159
21741W        W83107  20.114  28.988  11.079
21742W        W83108  27.564  34.081  13.360
21743W        W83109  18.633  21.573  10.950
21744W        W83110  15.745  33.111  11.926
21745W        W83111  18.760  10.793  13.052
21746W        W83112  33.053  30.479  11.115
21747W        W83113   7.414  24.995  14.884
21748W        W83114  22.080  42.792   3.849
21749W        W83115  37.375  10.324   3.827
21750W        W83116  26.699  37.933  10.940
21751W        W83117  40.025   6.238   4.284
21752W        W83118  10.318  34.894   0.728
21753W        W83119  20.629  30.094   3.161
21754W        W83120  25.473   7.802  14.864
21755W        W83121   6.380  11.128   4.203
21756W        W83122  37.875   7.372  11.577
21757W        W83123  34.574   9.732   1.307
21758W        W83124  22.050  36.860  12.529
21759W        W83125  44.887  33.063  11.016
21760W        W83126   8.835  44.966  14.929
21761W        W83127  11.653   5.811   0.835
21762W        W83128  17.681  29.001  13.307
21763W        W83129   6.758  34.955  14.958
21764W        W83130  27.633  16.172  11.507
21765W        W83131  11.189  38.429   0.753
21766W        W83132  25.013  27.578  12.936
21767W        W83133  20.587  37.376  10.498
21768W        W83134   5.909  18.144  12.993
21769W        W83135  15.587  26.003   1.780
21770W        W83136   2.837  31.041  10.039
21771W        W83137  32.930  38.563   2.829
21772W        W83138   8.314  19.755   0.825
21773W        W83139  25.588   4.824   3.738
21774W        W83140   1.342  30.612  14.323
21775W        W83141  23.036  13.280   2.813
21776W        W83142  35.941  40.977   9.611
21777W        W83143  24.667  17.296  10.993
21778W        W83144   5.746  23.521  10.427
21779W        W83145  27.137   5.931   1.356
21780W        W83146  19.259  20.555  12.009
21781W        W83147  30.136  12.328   1.837
21782W        W83148  16.673  25.620  10.959
21783W        W83149  21.632  20.559  13.402
21784W        W83150  43.795   4.795   3.735
21785W        W83151  11.158  35.885  11.095
21786W        W83152  21.514  40.944  13.985
21787W        W83153  12.683  17.130   0.333
21788W        W83154   6.263  33.923   3.752
21789W        W83155  11.330   5.915   0.387
21790W        W83156  25.079  15.321  12.449
21791W        W83157   3.721   5.828   3.168
21792W        W83158  42.389  21.650   4.124
21793W        W83159  24.197  22.550   1.366
21794W        W83160   2.341  23.686   2.687
21795W        W83161  26.967  25.156  10.925
21796W        W83162  31.000  25.609  11.856
21797W        W83163  33.588  14.614  10.498
21798W        W83164  38.459  21.577  14.451
21799W        W83165  37.537   8.868   0.464
21800W        W83166  22.073  10.761  11.975
21801W        W83167   7.769  25.139   0.364
21802W        W83168  18.176  27.519  10.986
21803W        W83169  14.256   3.766  12.961
21804W        W83170  24.013  40.506   0.884
21805W        W83171  13.778  19.649   1.408
21806W        W83172  37.998  41.380   2.418
21807W        W83173  28.165  16.125   0.253
21808W        W83174  37.857   0.986  12.915
21809W        W83175  44.988  38.029   3.869
21810W        W83176  36.939  35.036  13.458
21811W        W83177  35.453  37.861  13.354
21812W        W83178  29.548  42.913   3.659
21813W        W83179  38.408  34.540  13.367
21814W        W83180   0.903  19.757   2.300
21815W        W83181  44.487   7.400  11.877
21816W        W83182  28.504   4.929   0.383
21817W        W83183  10.830   6.190  14.031
21818W        W83184  43.775  35.074   1.408
21819W        W83185  10.241  23.646  11.910
21820W        W83186  41.984  20.539   2.363
21821W        W83187  37.518  20.632  11.115
21822W        W83188  32.488   6.190  13.060
21823W        W83189  36.897   1.837   3.313
21824W        W83190  42.893  35.526  13.434
21825W        W83191  40.409  23.650   2.216
21826W        W83192  30.095  22.219   3.205
21827W        W83193   0.356  43.898   0.845
21828W        W83194   7.221  26.065  11.382
21829W        W83195  38.833  21.180   4.350
21830W        W83196   3.719  23.226   1.717
21831W        W83197  11.140  28.942  14.759
21832W        W83198  44.431  33.548  10.550
21833W        W83199   6.826  14.100   2.209
21834W        W83200  12.818  26.701  13.012
21835W        W83201  44.974  14.127   4.337
21836W        W83202  30.011   4.249   2.765
21837W        W83203  25.666  21.736   4.269
21838W        W83204  11.152  30.977   1.773
21839W        W83205   0.320  11.682   1.261
21840W        W83206  15.145  40.831  13.464
21841W        W83207  33.110  12.154   3.364
21842W        W83208  17.772   4.410  12.396
21843W        W83209  17.229  28.144  10.082
21844W        W83210  33.526  12.201   0.899
21845W        W83211  30.558   8.220  12.555
21846W        W83212   6.922  11.866  11.453
21847W        W83213   6.409   1.417   4.311
21848W        W83214  32.514  44.393  14.349
21849W        W83215  40.012  26.475  12.928
21850W        W83216   5.241  22.223  14.333
21851W        W83217  20.663  18.683   4.263
21852W        W83218  21.727  14.254   1.315
21853W        W83219  31.901   9.692  10.946
21854W        W83220  26.985   9.205  13.404
21855W        W83221   3.318  36.055  10.521
21856W        W83222   5.261  18.750  12.546
21857W        W83223   8.871  23.675  12.970
21858W        W83224  32.907  42.998   0.275
21859W        W83225  37.451   6.347   2.768
21860W        W83226  36.023  39.936   1.819
21861W        W83227  11.681  29.661   3.258
21862W        W83228   5.229  20.764  14.367
21863W        W83229  44.324  11.266  14.483
21864W        W83230  28.170  38.556   0.258
21865W        W83231   8.784  31.112  11.125
21866W        W83232  11.324  43.345   2.217
21867W        W83233  14.596   6.259   2.739
21868W        W83234  12.693  27.621  13.013
21869W        W83235  22.201  13.179   3.164
21870W        W83236  27.623  44.977  13.896
21871W        W83237  18.293  23.686   4.748
21872W        W83238  13.332  20.240  11.373
21873W        W83239  17.711  33.388   4.714
21874W        W83240  37.962  29.462   3.336
21875W        W83241  11.800  34.398  11.068
21876W        W83242  15.599   8.690   0.274
21877W        W83243   0.476   4.943  11.064
21878W        W83244  12.142  13.347  13.406
21879W        W83245  29.095  16.714   0.358
21880W        W83246  33.560  18.281  14.284
21881W        W83247  25.669  32.461   2.736
21882W        W83248   6.683  40.330   0.412
21883W        W83249   3.302   8.367   2.699
21884W        W83250   0.392   1.345   1.368
21885W        W83251  43.413  23.525   3.784
21886W        W83252  40.861  11.141   3.343
21887W        W83253   6.380  35.026   0.927
21888W        W83254   2.307   3.410  14.972
21889W        W83255  44.967  28.631   1.309
21890W        W83256  37.353   9.684   2.228
21891W        W83257  37.533  17.673  13.972
21892W        W83258  34.373  21.702  14.448
21893W        W83259  12.217  23.035   2.772
21894W        W83260  28.175  23.668   3.202
21895W        W83261  18.642  25.708   4.344
21896W        W83262  44.321  18.598   2.297
21897W        W83263  14.671   4.771  11.904
21898W        W83264  25.023  35.046  10.430
21899W        W83265  25.562  18.613  14.364
21900W        W83266  29.116  24.035   4.264
21901W        W83267   3.444  44.429   5.247
21902W        W83268   4.702  16.810   1.700
21903W        W83269  21.748   6.197   3.840
21904W        W83270  38.492  34.411  11.975
21905W        W83271  30.040   5.240  14.928
21906W        W83272  12.330  20.581  11.423
21907W        W83273   5.844  38.007  14.513
21908W        W83274  19.064   6.778  14.483
21909W        W83275  41.984   9.368   4.132
21910W        W83276  32.065  14.641   3.719
21911W        W83277  14.676  32.620   2.801
21912W        W83278   3.943  27.531  14.809
21913W        W83279  28.151  41.378   2.244
21914W        W83280  31.411  38.076   1.733
21915W        W83281  28.111  26.468  13.456
21916W        W83282   5.870  14.193   2.901
21917W        W83283  11.740  37.907   2.858
21918W        W83284   8.255   3.224  10.615
21919W        W83285  21.697  41.426   0.255
21920W        W83286   6.329  28.132   1.904
21921W        W83287  29.525  23.037  11.514
21922W        W83288  41.040  44.462  11.484
21923W        W83289  28.945  15.586   4.605
21924W        W83290  19.254  27.503  14.356
21925W        W83291  18.642  11.357  14.982
21926W        W83292   7.232  22.164  13.844
21927W        W83293  35.405  37.899   2.878
21928W        W83294  12.301   5.885   3.685
21929W        W83295  34.935  25.547   4.736
21930W        W83296   1.238  42.314  13.492
21931W        W83297   5.725  41.363  12.407
21932W        W83298  40.346  39.946  12.529
21933W        W83299  20.764  33.409   0.289
21934W        W83300  22.031  43.863   4.612
21935W        W83301  39.488  10.270  13.810
21936W        W83302   7.254  13.287   1.438
21937W        W83303   5.891  43.369   1.402
21938W        W83304  26.681  28.929  12.375
21939W        W83305  13.351  25.185   0.343
21940W        W83306  18.067  29.006  10.471
21941W        W83307   9.237  33.936  11.042
21942W        W83308  31.121  32.975  11.008
21943W        W83309  21.614   3.944  11.913
21944W        W83310   3.945  35.543   2.389
21945W        W83311   5.388   1.743  11.597
21946W        W83312  37.380  36.876   3.322
21947W        W83313  32.011  26.491   0.403
21948W        W83314  19.260  23.131  14.946
21949W        W83315  38.489  34.561   4.355
21950W        W83316  34.928  38.547  11.458
21951W        W83317  35.557  44.000   9.504
21952W        W83318   6.299  36.080   2.309
21953W        W83319  24.143  22.133   3.296
21954W        W83320  24.048   3.349   2.184
21955W        W83321  30.440  39.959  14.813
21956W        W83322  31.472  24.126   3.760
21957W        W83323  24.553  13.162  14.806
21958W        W83324   4.213  43.877   3.836
21959W        W83325  44.436  44.292   1.286
21960W        W83326   4.265   5.317   4.623
21961W        W83327  27.940  22.704  13.823
21962W        W83328  11.178  27.167  13.968
21963W        W83329  29.920  19.195   1.377
21964W        W83330  39.036   7.184  11.589
21965W        W83331  27.490   6.258   3.853
21966W        W83332  37.990  37.962  11.865
21967W        W83333   8.237   7.210   1.383
21968W        W83334  15.131  12.352   0.834
21969W        W83335  27.669   9.241  11.528
21970W        W83336  14.790  26.520   1.822
21971W        W83337   8.739  14.247   3.380
21972W        W83338  35.563   1.258  11.047
21973W        W83339  21.245  39.005   4.757
21974W        W83340  27.088  21.615   3.375
21975W        W83341  41.867  23.713   0.409
21976W        W83342  12.742  28.100   2.367
21977W        W83343  15.698   2.407  14.969
21978W        W83344  26.138  24.527  12.406
21979W        W83345  25.171  22.618  13.015
21980W        W83346  26.527   6.753   4.669
21981W        W83347  38.068   4.278  14.314
21982W        W83348  21.601  11.786  12.955
21983W        W83349  34.993  40.959   1.403
21984W        W83350  20.083  21.740  12.500
21985W        W83351  31.463  37.579  12.042
21986W        W83352  28.069   5.199   2.377
21987W        W83353  12.191  24.978   2.799
21988W        W83354   4.410  43.830  12.453
21989W        W83355  18.258  36.434  11.524
21990W        W83356  34.100  14.272   2.307
21991W        W83357  28.093  28.998  12.533
21992W        W83358  10.157  33.399  13.919
21993W        W83359  16.586  41.875   4.670
21994W        W83360  29.162  40.846   2.339
21995W        W83361   3.825   5.921  11.058
21996W        W83362  17.074  10.234   4.730
21997W        W83363   0.755  26.095   2.184
21998W        W83364  42.364   6.780   4.830
21999W        W83365  34.976   6.861   3.843
22000W        W83366  35.012  23.558   0.301
22001W        W83367   3.919   8.659   0.882
22002W        W83368   2.864   7.732   4.830
22003W        W83369  19.233  22.740  13.483
22004W        W83370  38.426  10.750  13.808
22005W        W83371  44.417  17.094  14.460
22006W        W83372   0.321  11.787  10.532
22007W        W83373   8.362  35.559   4.144
22008W        W83374  16.703  19.774  13.337
22009W        W83375   6.895  40.509  10.507
22010W        W83376  37.930  21.070   3.753
22011W        W83377  35.530   2.801  13.348
22012W        W83378  41.906   4.232  13.959
22013W        W83379  27.579  38.888   1.890
22014W        W83380  17.073  10.767   3.255
22015W        W83381  13.752  21.079   1.271
22016W        W83382  44.369  16.772  11.899
22017W        W83383  43.437  16.654   3.818
22018W        W83384  35.993  35.037  11.378
22019W        W83385  30.053  42.944  10.566
22020W        W83386   9.761  39.994  14.776
22021W        W83387  20.646  26.132  11.920
22022W        W83388  12.666  44.317  10.577
22023W        W83389   9.655  15.124  13.526
22024W        W83390   6.874  24.597   4.633
22025W        W83391  11.863  32.417   0.375
22026W        W83392  13.708  21.588  13.418
22027W        W83393  22.023  18.231  10.504
22028W        W83394  43.271  21.180   4.341
22029W        W83395  24.618  39.552  12.985
22030W        W83396  11.647  42.461  12.345
22031W        W83397  44.466  26.984  12.946
22032W        W83398  41.315  27.531  12.904
22033W        W83399  16.810  37.575  13.832
22034W        W83400  26.474  38.434   2.306
22035W        W83401   7.209  16.100   3.684
22036W        W83402  10.330  43.987  14.005
22037W        W83403  18.596  33.058  12.860
22038W        W83404  30.534  42.861  13.008
22039W        W83405   4.872   7.199  10.587
22040W        W83406  20.186   3.265   2.204
22041W        W83407  23.508  10.186   5.191
22042W        W83408  28.457  31.935   0.946
22043W        W83409  15.267   1.830  11.377
22044W        W83410  11.293  13.618  12.890
22045W        W83411  44.003  35.880   0.306
22046W        W83412  15.296  34.926   0.793
22047W        W83413  11.856  27.525   2.315
22048W        W83414  40.975   9.383  13.850
22049W        W83415  40.427  30.943   1.855
22050W        W83416  31.016  30.603   0.967
22051W        W83417  33.538  31.013  10.889
22052W        W83418  42.992   2.788   4.616
22053W        W83419   1.319  36.852   1.443
22054W        W83420  34.615  38.434  10.507
22055W        W83421  12.291  29.156   1.441
22056W        W83422  40.447  38.062   2.236
22057W        W83423  20.173  12.164  14.283
22058W        W83424  20.101   5.386   4.775
22059W        W83425  17.597  29.600   1.818
22060W        W83426  14.732  38.435  10.974
22061W        W83427  15.145  15.777  13.023
22062W        W83428   7.782  30.984  10.480
22063W        W83429  35.948  39.893   2.181
22064W        W83430  12.355  20.640   3.365
22065W        W83431  43.825  19.076  10.493
22066W        W83432  33.070   8.404   1.736
22067W        W83433  27.449  37.906   0.828
22068W        W83434   7.783  17.750  10.593
22069W        W83435  20.571  35.431   0.372
22070W        W83436  16.624  37.500   2.342
22071W        W83437  18.075  36.898   2.215
22072W        W83438  37.899  40.016   5.643
22073W        W83439  25.529  28.164   1.896
22074W        W83440   3.325  41.884  14.498
22075W        W83441  32.138  43.389  13.896
22076W        W83442  31.102  31.003   1.350
22077W        W83443   6.188  30.932  10.403
22078W        W83444   2.902  29.128   0.393
22079W        W83445   6.910  41.878  14.998
22080W        W83446  12.853   7.805   1.306
22081W        W83447  37.358  40.012   5.601
22082W        W83448  38.537  27.631   1.412
22083W        W83449   7.174   6.208  11.977
22084W        W83450  30.124  42.953  12.342
22085W        W83451  18.700  20.674   3.241
22086W        W83452  17.182  35.559  12.490
22087W        W83453   6.272   6.686   1.387
22088W        W83454  17.771  31.997   4.224
22089W        W83455  13.193  43.400  10.603
22090W        W83456   7.177  29.142  11.918
22091W        W83457  35.383  37.992  12.488
22092W        W83458   9.676  19.727   0.406
22093W        W83459  32.417  11.303  10.425
22094W        W83460   1.279  26.969   3.689
22095W        W83461  44.801  32.076  10.545
22096W        W83462  41.372  15.756  14.347
22097W        W83463  17.654  34.009  11.552
22098W        W83464   9.749   3.304   4.716
22099W        W83465   9.258  26.156  14.384
22100W        W83466  30.582  23.177   4.778
22101W        W83467  21.685  33.038  13.452
22102W        W83468  10.198  33.540   4.654
22103W        W83469  44.477   3.764  14.801
22104W        W83470  41.395  44.858  11.566
22105W        W83471  35.920  20.671  14.351
22106W        W83472  22.746  24.658  14.468
22107W        W83473  43.423   1.918   2.329
22108W        W83474  21.552  26.023  11.980
22109W        W83475  20.243  42.287   3.386
22110W        W83476  20.703  38.527  12.518
22111W        W83477  34.615  27.961  13.971
22112W        W83478  10.314  10.866  13.404
22113W        W83479  42.777  37.010  14.811
22114W        W83480  15.159  28.041  12.400
22115W        W83481  29.658  30.158  10.427
22116W        W83482  27.997  29.651  10.589
22117W        W83483  10.761  26.136  13.503
22118W        W83484   7.374  26.077  12.554
22119W        W83485  23.564   7.840  10.975
22120W        W83486  36.073  29.094  10.497
22121W        W83487   4.933   3.735   3.247
22122W        W83488   8.673  40.979  14.498
22123W        W83489   2.256  43.393  14.305
22124W        W83490  32.396  29.942  10.899
22125W        W83491  26.141  41.371   2.275
22126W        W83492   5.836  27.083   1.783
22127W        W83493   7.682  26.181   3.198
22128W        W83494   5.243  38.852  12.412
22129W        W83495  20.656  26.650   0.336
22130W        W83496  35.878   3.909   1.266
22131W        W83497  32.987  16.196  13.371
22132W        W83498   4.303  37.467  11.957
22133W        W83499  20.141  24.082   2.284
22134W        W83500   2.373  36.943  13.804
22135W        W83501  44.942  32.060   0.248
22136W        W83502  39.024  43.806   3.834
22137W        W83503  32.480  34.118  10.953
22138W        W83504  17.263  18.297   3.208
22139W        W83505   2.373  28.938   3.215
22140W        W83506  29.998  32.471  14.791
22141W        W83507   8.359  18.551   9.987
22142W        W83508   1.815  16.617   3.320
22143W        W83509   0.892   0.777   3.798
22144W        W83510  22.579  39.868   2.329
22145W        W83511  35.080  13.342   2.387
22146W        W83512   6.360  26.478  12.422
22147W        W83513  17.265  27.560  13.341
22148W        W83514  23.214  20.750   1.326
22149W        W83515   3.775  38.011   0.755
22150W        W83516   6.347  20.667  13.400
22151W        W83517  39.936  23.568  11.412
22152W        W83518  27.640  27.100   5.686
22153W        W83519  38.036   5.787   3.750
22154W        W83520   6.851  39.970   1.731
22155W        W83521  33.968  39.326   2.881
22156W        W83522  43.386  20.199  12.463
22157W        W83523  17.141  32.623  10.640
22158W        W83524  42.904  16.770   2.223
22159W        W83525  32.047   2.422   4.661
22160W        W83526  32.501  11.239  11.082
22161W        W83527  38.028  41.914   9.946
22162W        W83528   8.873  19.144   3.199
22163W        W83529  35.547  32.024  10.489
22164W        W83530  37.580  15.133  11.889
22165W        W83531   0.788  38.476  12.514
22166W        W83532  39.508  25.522  12.552
22167W        W83533  36.076  18.126   2.757
22168W        W83534  15.657  34.105   2.220
22169W        W83535  30.437  15.681  10.453
22170W        W83536   7.794  39.988  11.907
22171W        W83537  22.213  27.987  12.512
22172W        W83538  32.927  34.372  11.061
22173W        W83539   7.348  30.066  11.129
22174W        W83540  14.331  40.432   1.384
22175W        W83541   0.797  22.177  12.552
22176W        W83542  28.552  16.227   0.833
22177W        W83543  42.413  22.118   2.382
22178W        W83544  35.927  43.950   1.796
22179W        W83545  24.001  14.689   2.741
22180W        W83546  43.963  40.937   3.841
22181W        W83547  44.785  31.503   3.219
22182W        W83548  19.243   2.360   1.434
22183W        W83549   9.657  29.016  11.049
22184W        W83550  11.673  28.013  12.580
22185W        W83551   7.259  35.579   2.876
22186W        W83552  40.054  34.389   4.283
22187W        W83553  35.576  22.648  10.965
22188W        W83554  32.590  21.174   2.301
22189W        W83555  37.949   4.896   0.920
22190W        W83556  14.617  37.353   2.187
22191W        W83557   1.901   2.849   0.959
22192W        W83558  42.444  28.053   1.738
22193W        W83559  42.991   4.349   4.190
22194W        W83560  16.674  26.151   1.751
22195W        W83561  25.060  26.477  12.996
22196W        W83562   0.261  44.816   1.862
22197W        W83563  30.449   0.400   4.786
22198W        W83564  20.568  42.879   4.766
22199W        W83565   8.404   0.815  12.885
22200W        W83566  11.223  16.581  10.460
22201W        W83567   4.264  24.017  12.417
22202W        W83568  18.711  40.491  12.945
22203W        W83569  38.032  18.785   2.844
22204W        W83570  31.048  35.449   3.797
22205W        W83571  12.344  32.454  12.946
22206W        W83572  36.039   9.212   4.291
22207W        W83573  18.066  17.648  14.512
22208W        W83574   9.756  17.593  13.324
22209W        W83575  31.433  40.478   3.847
22210W        W83576  38.534   5.770  14.980
22211W        W83577   6.234  16.772  12.068
22212W        W83578   3.282  23.593  14.796
22213W        W83579  37.836  25.515   1.339
22214W        W83580  27.050   8.369   2.398
22215W        W83581  44.476  41.898   1.416
22216W        W83582  31.015  14.759   0.733
22217W        W83583  19.152  34.524   1.409
22218W        W83584  37.924  37.489   1.774
22219W        W83585  10.191   8.681  13.487
22220W        W83586  36.476  13.836  12.446
22221W        W83587  37.336  19.659  12.950
22222W        W83588  25.064   3.422   1.289
22223W        W83589  21.715  16.790  10.521
22224W        W83590  41.507   3.359   4.823
22225W        W83591  42.379  44.887  11.110
22226W        W83592  40.333  27.475  13.424
22227W        W83593  33.558  13.651  14.794
22228W        W83594  25.680  34.088   4.136
22229W        W83595  13.617  13.215   4.150
22230W        W83596   1.790   0.354  12.875
22231W        W83597  16.242  34.058  11.977
22232W        W83598  27.629  13.211   3.267
22233W        W83599  23.121  27.080   1.364
22234W        W83600  16.278   0.905   0.921
22235W        W83601  25.174  14.613   4.753
22236W        W83602  18.074  21.120  11.088
22237W        W83603  30.151  40.368  11.421
22238W        W83604  39.885  34.872   2.820
22239W        W83605   4.880  42.006  10.403
22240W        W83606  27.457  19.222   0.352
22241W        W83607  25.560   1.386   2.207
22242W        W83608  33.457  30.066  11.043
22243W        W83609   5.789  27.191   4.686
22244W        W83610  26.122  20.710  12.967
22245W        W83611  27.107  19.609   1.871
22246W        W83612  43.446  40.382  11.521
22247W        W83613  23.099  35.464  14.766
22248W        W83614  39.956  35.503  12.987
22249W        W83615  36.006  23.212  14.012
22250W        W83616  30.056  24.644  14.375
22251W        W83617  33.497  18.206   2.693
22252W        W83618  31.041  36.566  10.547
22253W        W83619  24.539  40.844   2.314
22254W        W83620  30.972  39.396   2.902
22255W        W83621  35.006  35.023   4.635
22256W        W83622   3.713  34.987  12.944
22257W        W83623  35.105  23.631   2.821
22258W        W83624   0.328  42.903  14.358
22259W        W83625  27.635  30.657  13.537
22260W        W83626  35.856  26.511   3.189
22261W        W83627   7.849  20.685  13.906
22262W        W83628   5.695  38.374   4.244
22263W        W83629  29.452  36.064  14.320
22264W        W83630  17.557  20.534   4.662
22265W        W83631  29.603  35.522  10.443
22266W        W83632  22.555  31.554  13.429
22267W        W83633  26.113  30.119  10.562
22268W        W83634  11.344  15.205   0.758
22269W        W83635  41.300   4.209   0.825
22270W        W83636   2.857   8.794  14.800
22271W        W83637  44.426   4.787  13.006
22272W        W83638  25.039   9.234   0.348
22273W        W83639  34.068  12.242   4.304
22274W        W83640  41.031  37.513  14.348
22275W        W83641  21.225  13.321   3.157
22276W        W83642  30.564  18.720   0.833
22277W        W83643  27.659  18.585   2.408
22278W        W83644  20.067  39.906   1.248
22279W        W83645  30.163  41.505   1.343
22280W        W83646  44.466   2.331  11.588
22281W        W83647   4.365  29.438  14.514
22282W        W83648  40.871  24.050  11.080
22283W        W83649  36.889  41.344  10.024
22284W        W83650  17.183   7.752  14.415
22285W        W83651  17.195   7.865   4.254
22286W        W83652  28.501  31.490   4.176
22287W        W83653  32.970  34.908  13.872
22288W        W83654  44.422  11.178   3.691
22289W        W83655  34.539   3.772   1.264
22290W        W83656   8.397  41.960  12.034
22291W        W83657  12.267   7.824  13.829
22292W        W83658  24.061  44.900   0.362
22293W        W83659  29.053   0.290   3.684
22294W        W83660   6.260  29.135   2.272
22295W        W83661  16.678   4.704   2.282
22296W        W83662  13.798  24.607   3.348
22297W        W83663  43.813  32.410  11.858
22298W        W83664  33.947  28.677  13.398
22299W        W83665  12.281  27.496   2.857
22300W        W83666  20.116  37.839   2.796
22301W        W83667  36.573  29.136  14.284
22302W        W83668  36.052   1.380  14.373
22303W        W83669  36.986   9.183  14.375
22304W        W83670  44.470  28.460   3.690
22305W        W83671  12.225  35.897   0.780
22306W        W83672  38.058  42.780   1.732
22307W        W83673  31.550  28.999   2.212
22308W        W83674  31.551  13.229   2.696
22309W        W83675  36.459  21.536   3.347
22310W        W83676  10.186   1.947   4.603
22311W        W83677  11.853  16.569   4.653
22312W        W83678  16.748  18.603  10.584
22313W        W83679  42.293   2.949   2.744
22314W        W83680  22.719   2.785  12.052
22315W        W83681  28.987  16.682   4.127
22316W        W83682  42.914  44.775   4.675
22317W        W83683  34.920   6.312   2.194
22318W        W83684  37.048  32.983  14.806
22319W        W83685  25.005  20.031  13.894
22320W        W83686  27.618   7.341   2.285
22321W        W83687   3.791   9.275   4.223
22322W        W83688  27.050  25.117  10.482
22323W        W83689  11.360  23.593   2.800
22324W        W83690  29.985   9.773  14.031
22325W        W83691  24.176   6.366  14.021
22326W        W83692  34.957  21.683   0.329
22327W        W83693   9.250  36.997  14.373
22328W        W83694  27.104  38.456   2.288
22329W        W83695   9.880  40.907   0.744
22330W        W83696   0.865  44.485  14.951
22331W        W83697  28.186  13.790  12.026
22332W        W83698  28.475  23.042  11.061
22333W        W83699  42.387  31.520   2.871
22334W        W83700  18.706  26.012  13.481
22335W        W83701   1.775  15.584  13.010
22336W        W83702   6.893  29.448   4.190
22337W        W83703  15.174  18.245   2.197
22338W        W83704  32.565   7.225  11.099
22339W        W83705   0.894  22.063  12.078
22340W        W83706  30.510  16.786   2.347
22341W        W83707  38.992   7.320   2.396
22342W        W83708  10.815  28.017   0.301
22343W        W83709  41.419  29.509   1.741
22344W        W83710  38.872  24.165  11.871
22345W        W83711  26.631  31.010  12.992
22346W        W83712  32.137  35.439   2.246
22347W        W83713  11.304  28.612   0.912
22348W        W83714  32.470  44.768  10.920
22349W        W83715   7.263   7.905  14.877
22350W        W83716  43.906  31.072   9.671
22351W        W83717  33.398   1.959   5.153
22352W        W83718  25.660  28.674   3.355
22353W        W83719   3.785  37.957   2.381
22354W        W83720  15.599  43.302   3.344
22355W        W83721  10.670  12.248   1.249
22356W        W83722  35.933  42.799   0.406
22357W        W83723   4.850   3.788  13.470
22358W        W83724  16.687  26.469   3.166
22359W        W83725  24.196  37.439  12.072
22360W        W83726  12.674  13.673   2.321
22361W        W83727  17.099  33.400  14.395
22362W        W83728  34.472  29.979   3.362
22363W        W83729  11.323  12.685  11.868
22364W        W83730  14.746   0.307   3.385
22365W        W83731  26.116  26.635   9.613
22366W        W83732  38.544  15.113   3.649
22367W        W83733  35.000  35.858   9.979
22368W        W83734  33.017  35.536  12.500
22369W        W83735  29.446  14.104   0.786
22370W        W83736   7.883  23.144  10.541
22371W        W83737  28.678  41.438  12.415
22372W        W83738  29.941  17.259  11.371
22373W        W83739   4.918  34.468   3.333
22374W        W83740  30.999  30.018   4.142
22375W        W83741  26.195  43.771   3.174
22376W        W83742  25.082  40.389  12.953
22377W        W83743  33.951  35.099  11.546
22378W        W83744  41.816  21.608   2.364
22379W        W83745  19.098  15.297   1.905
22380W        W83746  33.940  42.464  14.981
22381W        W83747  15.312   7.719   0.822
22382W        W83748  27.112  35.561  14.450
22383W        W83749   6.793  27.066   3.709
22384W        W83750   1.286  41.492   1.763
22385W        W83751  15.116  22.571  14.847
22386W        W83752   6.201  30.097  10.579
22387W        W83753   4.755  20.761  12.899
22388W        W83754  33.484  37.353  10.987
22389W        W83755  30.114  13.136   4.647
22390W        W83756   6.359  42.911  10.465
22391W        W83757   8.389   8.690  14.779
22392W        W83758  31.090  17.772   0.892
22393W        W83759  42.352  13.646  11.080
22394W        W83760  21.262  17.799   4.743
22395W        W83761  17.219  40.951  11.603
22396W        W83762  31.011  39.502  13.457
22397W        W83763  31.960  21.587   1.798
22398W        W83764  11.198  37.449   2.301
22399W        W83765   0.813  28.630   3.767
22400W        W83766   9.662  31.065  13.506
22401W        W83767   1.808  11.746   2.298
22402W        W83768  11.622   4.325  14.354
22403W        W83769  28.985  34.614  13.970
22404W        W83770   5.288  30.062   3.728
22405W        W83771   0.885   7.873  10.917
22406W        W83772  38.937  11.763   5.094
22407W        W83773  10.697   3.262  14.764
22408W        W83774  28.585  20.722  14.835
22409W        W83775   3.439   6.852   5.151
22410W        W83776   4.287   4.828  11.895
22411W        W83777  41.492  42.300  11.950
22412W        W83778  23.132  38.945   3.299
22413W        W83779  37.062  21.027   4.278
22414W        W83780  43.999  33.000   3.743
22415W        W83781   7.735  41.451  11.865
22416W        W83782  14.830  26.151  12.974
22417W        W83783  39.537  12.754   1.695
22418W        W83784  21.095   2.776   1.429
22419W        W83785  22.657  40.030  11.520
22420W        W83786  37.411   4.791  10.561
22421W        W83787  29.097   8.220   4.145
22422W        W83788  30.111  10.682  13.958
22423W        W83789   9.855  10.816   1.356
22424W        W83790   0.390  31.964  14.445
22425W        W83791   1.325  27.014   5.629
22426W        W83792  32.626  43.338   1.398
22427W        W83793  32.890  15.732   1.315
22428W        W83794   1.855  41.359  11.873
22429W        W83795  10.143  26.541  14.335
22430W        W83796   4.392   8.771  10.540
22431W        W83797  27.538  36.843   4.134
22432W        W83798  34.061   9.293  13.396
22433W        W83799   2.461  44.284  14.983
22434W        W83800  35.425  37.549  11.612
22435W        W83801   9.226  12.233  14.960
22436W        W83802   2.818  16.235  10.520
22437W        W83803   6.342   3.834  12.896
22438W        W83804  19.209   4.259  14.295
22439W        W83805   6.394   5.910  14.869
22440W        W83806  37.561   2.436  13.454
22441W        W83807  32.970   9.220  12.489
22442W        W83808  11.162   0.435  13.998
22443W        W83809  22.613  44.294   5.234
22444W        W83810  40.962   3.317   3.842
22445W        W83811  37.875  41.832   2.808
22446W        W83812  23.516  27.138   1.275
22447W        W83813  14.264  39.905   0.284
22448W        W83814  16.194  27.977  10.052
22449W        W83815  18.283  42.480   0.850
22450W        W83816  12.117   2.815  10.544
22451W        W83817  20.047  21.694   4.683
22452W        W83818  34.376  31.123  12.566
22453W        W83819  17.625  15.304   5.754
22454W        W83820  37.414  28.569  14.404
22455W        W83821   4.862  37.445   2.250
22456W        W83822   0.933  36.972   0.931
22457W        W83823   6.293  15.609   2.872
22458W        W83824  17.642  27.463   0.792
22459W        W83825  11.319  13.338  11.380
22460W        W83826  30.629  38.855   4.815
22461W        W83827  28.558  39.511  13.333
22462W        W83828  42.957  19.268   0.878
22463W        W83829   4.704   0.250  12.909
22464W        W83830  22.503  11.851  14.448
22465W        W83831  41.867  16.138  13.046
22466W        W83832  19.577  26.618  14.327
22467W        W83833  43.996  34.593  13.937
22468W        W83834   2.807  26.986   4.321
22469W        W83835  22.153  25.657  12.924
22470W        W83836  36.916  41.920  14.930
22471W        W83837  22.112   0.945  14.822
22472W        W83838  27.015  20.147  11.476
22473W        W83839   4.431  15.239  12.835
22474W        W83840  22.251   2.402   1.852
22475W        W83841  16.116  39.048   0.755
22476W        W83842  41.941  25.003  14.960
22477W        W83843  28.053  34.966   1.318
22478W        W83844  36.060  21.090   2.675
22479W        W83845  30.024  40.401   1.330
22480W        W83846  25.677  20.548   0.456
22481W        W83847  26.518  14.617   3.666
22482W        W83848  40.346   0.346   4.620
22483W        W83849  28.562  35.868   0.905
22484W        W83850  15.247  17.765  11.592
22485W        W83851  12.825  37.014   4.236
22486W        W83852   4.757  15.761   0.373
22487W        W83853  33.556  21.613  14.329
22488W        W83854   7.898  26.589  12.462
22489W        W83855  38.051  31.081   1.416
22490W        W83856  16.739  21.705  11.100
22491W        W83857  30.015  44.931   4.714
22492W        W83858   9.708  13.834   0.873
22493W        W83859   7.781   3.815   5.264
22494W        W83860  18.784  37.573   1.355
22495W        W83861  14.232  24.197   4.220
22496W        W83862  11.627   5.728   3.328
22497W        W83863  25.589  38.062   4.690
22498W        W83864  39.480  27.190   2.238
22499W        W83865  39.452   1.361  10.936
22500W        W83866  22.719   9.317  14.909
22501W        W83867  32.936  35.402   3.856
22502W        W83868  24.077  39.548  12.886
22503W        W83869   4.437  43.393  12.475
22504W        W83870  10.842  24.674   1.903
22505W        W83871  14.303   7.691  13.328
22506W        W83872  44.890   1.868  10.922
22507W        W83873  44.300  26.164  10.074
22508W        W83874  10.374  29.567  14.438
22509W        W83875   0.320  18.085   0.257
22510W        W83876  38.004  12.855   1.402
22511W        W83877  28.078  13.623  13.414
22512W        W83878  22.673  35.467   1.309
22513W        W83879   2.937  44.926  10.950
22514W        W83880  27.190  34.609   2.802
22515W        W83881  21.172  41.479  10.966
22516W        W83882  40.803  23.620  10.578
22517W        W83883  10.821  31.408   1.269
22518W        W83884  18.137  44.782  13.404
22519W        W83885  37.902  33.895  13.862
22520W        W83886  32.009   2.903  14.833
22521W        W83887  21.571  28.442  12.530
22522W        W83888  24.133  10.259  13.997
22523W        W83889  12.264  43.878   1.427
22524W        W83890  43.427  21.136   3.373
22525W        W83891  11.634  17.281  12.878
22526W        W83892   4.819  11.178   2.254
22527W        W83893  23.734   2.440   0.877
22528W        W83894  22.672  34.464  12.501
22529W        W83895  15.792  34.025   5.315
22530W        W83896  27.454   3.814   4.769
22531W        W83897  43.320   4.394  10.988
22532W        W83898  37.444   0.902  13.853
22533W        W83899  34.405  20.245   1.351
22534W        W83900  22.517  28.142   4.734
22535W        W83901  38.480  38.893  14.909
22536W        W83902  32.911  33.626  10.629
22537W        W83903  12.848  28.015   0.306
22538W        W83904  22.513  17.074  10.984
22539W        W83905  27.625  18.779   3.232
22540W        W83906  32.430  42.422   0.440
22541W        W83907  11.277  32.887   3.275
22542W        W83908  15.320   5.750   2.689
22543W        W83909  32.966   4.403  14.902
22544W        W83910  19.671   7.736   4.764
22545W        W83911   9.654   3.366   3.672
22546W        W83912  40.432  39.825   3.823
22547W        W83913  44.822  21.227  10.992
22548W        W83914  18.202   5.840   0.783
22549W        W83915  23.073  35.401  13.851
22550W        W83916  36.499   9.275  13.375
22551W        W83917  18.721  39.482  11.922
22552W        W83918  41.993  31.513  11.011
22553W        W83919  12.752   5.799  11.040
22554W        W83920  20.751  24.648   2.225
22555W        W83921  21.684   1.408  14.792
22556W        W83922  10.287  17.640  12.547
22557W        W83923  33.947  22.716  11.872
22558W        W83924   7.280  27.593  12.554
22559W        W83925   7.777  25.473  14.361
22560W        W83926   2.447  32.422   0.332
22561W        W83927   6.713  18.682  11.997
22562W        W83928   1.297  25.965   0.350
22563W        W83929  15.666  39.481   4.696
22564W        W83930  33.924  15.776   9.972
22565W        W83931   9.789  21.088   1.251
22566W        W83932  25.034  44.410  10.563
22567W        W83933   0.277  31.640   1.718
22568W        W83934   3.778  33.988  12.842
22569W        W83935   5.931   5.414   3.256
22570W        W83936  41.314  26.637  11.086
22571W        W83937   2.428   2.313   1.350
22572W        W83938  42.312  22.530  14.862
22573W        W83939   0.876  42.873  14.917
22574W        W83940  33.608  10.278   0.753
22575W        W83941  36.399   7.817  13.464
22576W        W83942   0.845  43.454   1.929
22577W        W83943  25.511  26.043  11.002
22578W        W83944  13.315  14.249   1.796
22579W        W83945  38.550  34.027   0.397
22580W        W83946  41.320   9.284  12.906
22581W        W83947  18.750  44.815  12.362
22582W        W83948  39.351   9.186  11.004
22583W        W83949  14.267  43.490   0.410
22584W        W83950  26.641  29.925   1.862
22585W        W83951   2.335  17.710  10.429
22586W        W83952  36.002  25.581   4.694
22587W        W83953  17.675   6.293  10.415
22588W        W83954  26.547  43.358   1.757
22589W        W83955   5.717   5.287   0.387
22590W        W83956  29.559  40.031   4.668
22591W        W83957   0.906   3.363  11.111
22592W        W83958  31.431  36.092   2.804
22593W        W83959  30.920  11.254  13.490
22594W        W83960  11.634  29.522  13.029
22595W        W83961  42.407  39.922   4.316
22596W        W83962  40.013   6.765  12.087
22597W        W83963  34.994  32.084  12.564
22598W        W83964  13.219   8.355   3.299
22599W        W83965  11.179  21.260   4.297
22600W        W83966   0.345  44.920  14.511
22601W        W83967  29.052  14.192  10.958
22602W        W83968  18.761  25.056   0.366
22603W        W83969  21.259  24.003   0.800
22604W        W83970  36.901  35.477  14.957
22605W        W83971  21.756   4.898  11.390
22606W        W83972  18.282  21.595  12.871
22607W        W83973  20.682   4.802  14.833
22608W        W83974  30.606   3.830  13.055
22609W        W83975  24.045   9.273   0.340
22610W        W83976   6.911  32.600   2.792
22611W        W83977  30.021  36.459   2.199
22612W        W83978  34.569  14.257   3.686
22613W        W83979  30.431  26.692  10.006
22614W        W83980  11.809  14.148   1.722
22615W        W83981   5.194  39.314  12.884
22616W        W83982  41.786  22.617   4.131
22617W        W83983   6.189  28.027   9.999
22618W        W83984   8.778  15.599   1.720
22619W        W83985  35.380  20.561   2.265
22620W        W83986  31.638  25.175  13.856
22621W        W83987  40.046  30.915  11.880
22622W        W83988  29.632  34.453   4.608
22623W        W83989  39.017  22.177  12.849
22624W        W83990  33.382  43.505   0.370
22625W        W83991  28.157  43.304   2.715
22626W        W83992   7.684   7.672   4.616
22627W        W83993   4.369  25.633   4.705
22628W        W83994   6.291  21.223   2.251
22629W        W83995  28.475  33.114  10.544
22630W        W83996  42.842  44.269   4.821
22631W        W83997  35.100  13.248  11.996
22632W        W83998  25.086  43.005  14.943
22633W        W83999  27.184   1.248  11.079
22634W        W84000  35.018  41.022  14.791
22635W        W84001  15.678  40.500   4.688
22636W        W84002  34.501  38.895   5.704
22637W        W84003  24.718   4.292  11.997
22638W        W84004   4.404   7.315  11.103
22639W        W84005  43.795  25.482  13.923
22640W        W84006  12.767  38.987   1.759
22641W        W84007  35.459  31.025   4.724
22642W        W84008  41.851  34.419   3.365
22643W        W84009  36.497  32.984   1.866
22644W        W84010  11.823  25.113  12.567
22645W        W84011  29.035  14.201  12.526
22646W        W84012  19.567  23.651   1.919
22647W        W84013  38.448  31.559   3.849
22648W        W84014  33.965  40.370   1.249
22649W        W84015  37.361  22.022   0.823
22650W        W84016  27.192  28.493  13.542
22651W        W84017  39.060  15.104  12.495
22652W        W84018  39.398  29.962  13.471
22653W        W84019  36.042  29.140   0.273
22654W        W84020  34.410  10.179  11.577
22655W        W84021  30.078  40.027  14.385
22656W        W84022  28.668  18.229  14.379
22657W        W84023  13.651   5.345   0.930
22658W        W84024  35.096  44.452   5.190
22659W        W84025  12.303  32.063  13.833
22660W        W84026  39.348   1.944   5.242
22661W        W84027  39.558  42.997  13.808
22662W        W84028   4.352  31.966   3.197
22663W        W84029  15.214  27.597  13.377
22664W        W84030  24.204  10.816   1.856
22665W        W84031  25.198   7.698  10.952
22666W        W84032  34.522  21.034   0.326
22667W        W84033   8.351  16.609   3.796
22668W        W84034   9.214   2.757  12.048
22669W        W84035  30.083   3.805   4.193
22670W        W84036   2.856   9.763   4.137
22671W        W84037  27.987  18.293  10.403
22672W        W84038  41.434  39.373   4.626
22673W        W84039  27.167  27.560  14.452
22674W        W84040  37.438  14.126   4.241
22675W        W84041   9.318  44.459   2.328
22676W        W84042  29.133   1.732   3.364
22677W        W84043  37.365  35.957   4.347
22678W        W84044   4.343  14.101  14.780
22679W        W84045   3.420  34.945  11.483
22680W        W84046  40.935  19.121   2.720
22681W        W84047  10.821  12.803   4.735
22682W        W84048  44.947  44.272  14.947
22683W        W84049  29.521  40.917   0.898
22684W        W84050   2.316   1.327  11.607
22685W        W84051  21.559  21.560  11.559
22686W        W84052   9.776  30.994  12.436
22687W        W84053  13.798  23.627  14.474
22688W        W84054  29.998  31.508   3.665
22689W        W84055   1.258  22.006  14.303
22690W        W84056  14.784  12.325  14.816
22691W        W84057  42.316  44.280  14.439
22692W        W84058  31.976  31.520  14.377
22693W        W84059  35.545   9.171   4.634
22694W        W84060  13.743  34.402  12.567
22695W        W84061  15.117  16.599  12.084
22696W        W84062  31.101  26.494  12.853
22697W        W84063   0.493  17.135   2.304
22698W        W84064  31.582  25.063  13.005
22699W        W84065  10.197   8.794   2.776
22700W        W84066  39.351  14.139   1.725
22701W        W84067  13.207  15.816  14.831
22702W        W84068  20.162  10.721   4.286
22703W        W84069  17.135  13.652  11.375
22704W        W84070  39.376   5.809   1.210
22705W        W84071  26.007  29.540   0.290
22706W        W84072  33.031  20.748   1.792
22707W        W84073  38.559  31.069   2.790
22708W        W84074   7.310   8.774   2.876
22709W        W84075   9.696   5.849  13.056
22710W        W84076   9.720  44.395  14.866
22711W        W84077  37.380  21.259  14.800
22712W        W84078  12.127   6.816   1.278
22713W        W84079  43.989  22.569  12.943
22714W        W84080  36.499  35.997   1.720
22715W        W84081  17.292  27.677   0.339
22716W        W84082  13.160  25.539  10.902
22717W        W84083  16.567  36.470  14.462
22718W        W84084  15.742  27.092   0.333
22719W        W84085  41.958   2.884   2.767
22720W        W84086  27.988  39.974   3.703
22721W        W84087  27.113  31.900  12.896
22722W        W84088  27.676  32.934   3.638
22723W        W84089  18.787   0.960  10.438
22724W        W84090  38.351   9.263   0.323
22725W        W84091   8.181  18.769  11.061
22726W        W84092   3.276  26.078  10.977
22727W        W84093  32.072  34.414   1.292
22728W        W84094  28.458  38.534  11.868
22729W        W84095  33.920  38.860   5.691
22730W        W84096  16.100  10.337  13.899
22731W        W84097  17.578  20.683   3.340
22732W        W84098  32.980   6.278  10.632
22733W        W84099  29.480  24.981  11.536
22734W        W84100  25.138  14.144   0.253
22735W        W84101   3.381  22.213  14.858
22736W        W84102   5.874  17.594  11.459
22737W        W84103   4.293  16.783  13.048
22738W        W84104   6.731  24.086  14.877
22739W        W84105  19.157  24.029   3.834
22740W        W84106   0.384  24.019   0.451
22741W        W84107  43.468   1.962  11.531
22742W        W84108  12.690  10.138   4.219
22743W        W84109   4.432  40.975   3.635
22744W        W84110  41.857   5.843  14.300
22745W        W84111   4.440   7.806   0.879
22746W        W84112  14.240   6.239   4.318
22747W        W84113  43.308  26.589   1.817
22748W        W84114  24.184  43.836   0.828
22749W        W84115  34.896  14.121  12.498
22750W        W84116  24.482  44.955  14.960
22751W        W84117  28.966   6.243   0.243
22752W        W84118  30.629  26.680  11.589
22753W        W84119   7.368  41.789  13.858
22754W        W84120  18.120  31.931   4.830
22755W        W84121   8.787  23.146   1.404
22756W        W84122  43.966  10.724  12.892
22757W        W84123  34.090  32.533   3.732
22758W        W84124  17.128   0.413  11.078
22759W        W84125  32.906  15.634  13.432
22760W        W84126  37.367  21.093   5.210
22761W        W84127  14.300  13.816   3.702
22762W        W84128  33.567   9.208  14.317
22763W        W84129  19.568  39.523   1.301
22764W        W84130   2.272  24.514   0.373
22765W        W84131   1.382   4.752   0.899
22766W        W84132  24.715  29.115  12.408
22767W        W84133  34.011  26.659  11.098
22768W        W84134  44.438  29.604  14.509
22769W        W84135   0.773  23.532  10.464
22770W        W84136   8.800  22.568   0.773
22771W        W84137   3.450  35.602  10.434
22772W        W84138  34.991  17.635  10.925
22773W        W84139  36.841  40.462   0.446
22774W        W84140  29.071   1.968  13.930
22775W        W84141  12.820  25.059  12.355
22776W        W84142  23.536  22.700  13.395
22777W        W84143  26.066  36.995  10.454
22778W        W84144  11.297   1.236   1.376
22779W        W84145   3.925  25.111  14.431
22780W        W84146  10.317  27.016   1.735
22781W        W84147  42.521  15.205   2.351
22782W        W84148   2.429  29.944  13.508
22783W        W84149  19.603  33.924   3.631
22784W        W84150   1.836  36.082   1.451
22785W        W84151  38.021  42.289   2.826
22786W        W84152  22.016  21.046  11.904
22787W        W84153   6.379  32.553  11.125
22788W        W84154  25.585  43.462   1.277
22789W        W84155  21.525   3.867   3.664
22790W        W84156   9.159  23.161  12.469
22791W        W84157  10.289  27.191   1.370
22792W        W84158  23.995  25.469   4.331
22793W        W84159  17.066  29.641  13.538
22794W        W84160   5.692  35.598  12.839
22795W        W84161   1.237  24.578  14.509
22796W        W84162  22.995  21.135  13.384
22797W        W84163  32.079   7.366   4.254
22798W        W84164   3.461  31.487  11.048
22799W        W84165   1.389   1.815   1.213
22800W        W84166  34.420  34.996  11.492
22801W        W84167  42.901  36.097   1.842
22802W        W84168  38.385   9.702   2.882
22803W        W84169   7.208   3.816   1.231
22804W        W84170  17.794  25.213   2.219
22805W        W84171  13.735  17.167   0.860
22806W        W84172  21.732   3.917   3.322
22807W        W84173  26.545  39.927   1.913
22808W        W84174  42.449  13.688   0.757
22809W        W84175  19.768  43.960   0.872
22810W        W84176   1.261  38.928  13.337
22811W        W84177   2.304  24.631  12.487
22812W        W84178  13.612   2.926   1.794
22813W        W84179  10.635  10.818  13.330
22814W        W84180  16.570  39.415   4.238
22815W        W84181  10.800   1.293  14.326
22816W        W84182  33.597  39.851   2.673
22817W        W84183  16.296  36.583   1.793
22818W        W84184  40.528   7.716   1.285
22819W        W84185  21.235  33.052   5.107
22820W        W84186  23.215   3.787   1.370
22821W        W84187   7.764  38.385   1.251
22822W        W84188   5.389   7.308  10.423
22823W        W84189  37.962  27.049  13.454
22824W        W84190  25.101  43.412  13.475
22825W        W84191  32.468  37.537  12.390
22826W        W84192  21.190  30.527  10.464
22827W        W84193   1.908  15.119   2.247
22828W        W84194  34.989  10.169   0.877
22829W        W84195  22.117  13.147  14.010
22830W        W84196   1.815   1.316   4.353
22831W        W84197  16.306  11.717   1.312
22832W        W84198  22.087  29.440   3.220
22833W        W84199  38.874  24.576   2.207
22834W        W84200  17.147  23.506  10.411
22835W        W84201  27.644  29.048  12.869
22836W        W84202   2.372  10.758  11.039
22837W        W84203  34.968   2.369  12.900
22838W        W84204  17.167   4.916   4.759
22839W        W84205  38.549  24.019   0.401
22840W        W84206  17.708   6.749  12.016
22841W        W84207  18.587  21.629  13.329
22842W        W84208   1.913   5.892   3.287
22843W        W84209   6.410  19.626   3.849
22844W        W84210  43.305  42.465   4.639
22845W        W84211  23.543  27.504  14.011
22846W        W84212  37.944  37.444   1.238
22847W        W84213  35.409  34.559   2.851
22848W        W84214  28.670  18.276   0.965
22849W        W84215  41.433  20.062   0.846
22850W        W84216  17.296   1.342  13.332
22851W        W84217  33.980  10.255  14.991
22852W        W84218  34.465  18.608  12.400
22853W        W84219  30.439   3.883   2.696
22854W        W84220  34.545  18.092  13.492
22855W        W84221  21.200  30.509   4.693
22856W        W84222   3.291  41.931   4.169
22857W        W84223  28.102  34.882   4.292
22858W        W84224  15.587  34.059  11.493
22859W        W84225   0.774  17.747   4.211
22860W        W84226  35.598   7.224  13.542
22861W        W84227  24.689   5.193  13.355
22862W        W84228  37.012  38.889   2.808
22863W        W84229  32.089   1.847  10.573
22864W        W84230  31.486  15.733   1.800
22865W        W84231  14.283  12.637   3.653
22866W        W84232  20.597  11.184   3.721
22867W        W84233  22.618  40.941  12.440
22868W        W84234   4.436   5.772   0.810
22869W        W84235  27.121  12.781  11.550
22870W        W84236  27.138  29.475  14.825
22871W        W84237   0.777  23.123   1.227
22872W        W84238  32.587   2.321  13.409
22873W        W84239   5.275  41.475   1.383
22874W        W84240  23.651  11.255   3.164
22875W        W84241  38.490  39.858  11.434
22876W        W84242   0.863  43.834   4.172
22877W        W84243  44.878  14.643  11.873
22878W        W84244   9.286  21.121  11.546
22879W        W84245  43.421  28.040  12.454
22880W        W84246  20.762  34.422  11.985
22881W        W84247  29.068  16.769  11.471
22882W        W84248  42.804  38.950   4.222
22883W        W84249  20.220   4.824   0.321
22884W        W84250  21.758  23.128   1.293
22885W        W84251   7.315  29.111   1.844
22886W        W84252  39.348   9.873  12.869
22887W        W84253  22.052   3.709  10.937
22888W        W84254   9.655  41.480  12.361
22889W        W84255  33.449  44.493   0.442
22890W        W84256  27.537  19.757  12.838
22891W        W84257  14.725  10.808   1.839
22892W        W84258   7.246  14.631   0.376
22893W        W84259  32.124   0.982   1.810
22894W        W84260  17.686   8.721   0.932
22895W        W84261  10.356  25.694   0.372
22896W        W84262  25.541   3.366   2.255
22897W        W84263  20.241  24.220  13.831
22898W        W84264  26.536  35.102  14.946
22899W        W84265  22.603  28.484   1.259
22900W        W84266  29.593  16.628   0.809
22901W        W84267   8.382  44.828  14.395
22902W        W84268  31.900  23.509   1.772
22903W        W84269  23.998  14.741  10.998
22904W        W84270  18.092  33.417  10.894
22905W        W84271  12.637  29.470   1.379
22906W        W84272  37.057  22.149  10.483
22907W        W84273  14.752  25.544  10.439
22908W        W84274  15.311  44.389   0.246
22909W        W84275   5.331  38.511   1.245
22910W        W84276  10.209  37.501  13.355
22911W        W84277  43.418  11.734   4.248
22912W        W84278  10.313  39.065  11.963
22913W        W84279  28.628  41.338   2.901
22914W        W84280   3.461  22.732   3.646
22915W        W84281  27.190   6.191  13.049
22916W        W84282  12.685  10.669   2.212
22917W        W84283  16.169   9.282   0.854
22918W        W84284  20.533  22.731   1.421
22919W        W84285  23.006  44.923  12.094
22920W        W84286  38.980  16.797   3.695
22921W        W84287   4.913  18.130  14.375
22922W        W84288  27.956  17.659  12.039
22923W        W84289  15.114   9.176   3.174
22924W        W84290  32.087  11.865   5.309
22925W        W84291  15.652  26.659   4.725
22926W        W84292  30.978  43.330  12.002
22927W        W84293  39.985   8.284   3.276
22928W        W84294  19.080  27.598   0.397
22929W        W84295  21.651  40.964   2.836
22930W        W84296   1.813  26.512  14.339
22931W        W84297  30.626  32.096   5.231
22932W        W84298   4.443  43.357   1.341
22933W        W84299  35.424  23.133  14.494
22934W        W84300  17.730  44.405  12.976
22935W        W84301  41.944   8.736  12.526
22936W        W84302  43.831  40.533   3.200
22937W        W84303  37.987  14.671  14.880
22938W        W84304  22.128  14.194  13.979
22939W        W84305   5.858  11.214  13.472
22940W        W84306   7.681   0.417  14.814
22941W        W84307   2.870  28.182   0.936
22942W        W84308  32.035   4.862  10.495
22943W        W84309  23.017  35.018  12.091
22944W        W84310  41.802  13.188  11.062
22945W        W84311   5.889  13.655  13.013
22946W        W84312   5.261  27.047  13.334
22947W        W84313  11.257  24.973   3.277
22948W        W84314   7.858  16.142  12.510
22949W        W84315   0.436  35.068  14.025
22950W        W84316  26.489  10.660  14.365
22951W        W84317  43.922  26.682   0.922
22952W        W84318  41.807  25.563   0.758
22953W        W84319  31.057  30.024  12.406
22954W        W84320  14.589   4.338   4.729
22955W        W84321  38.950  14.830  10.608
22956W        W84322  26.518  23.709  10.059
22957W        W84323  12.172  18.590   2.258
22958W        W84324  39.374   1.735  14.934
22959W        W84325  22.688   6.354  12.484
22960W        W84326  21.038   5.742  14.287
22961W        W84327  38.371  30.572   3.358
22962W        W84328   1.426  27.580   1.788
22963W        W84329  28.497   6.779   0.899
22964W        W84330  18.150  33.886  10.604
22965W        W84331  29.021  33.607   0.337
22966W        W84332  22.070  36.570  10.473
22967W        W84333  36.945  35.494   0.856
22968W        W84334   6.911   7.354   3.642
22969W        W84335  11.760  18.638   4.780
22970W        W84336  34.446  27.470  11.049
22971W        W84337  23.088  14.313   0.334
22972W        W84338  24.575   9.369  11.123
22973W        W84339  33.413  40.934   3.699
22974W        W84340  10.720   3.775   0.415
22975W        W84341  40.950  36.075  14.925
22976W        W84342  30.019  15.636  14.369
22977W        W84343  28.019   3.313  14.391
22978W        W84344  27.449  20.529  13.367
22979W        W84345   6.850  26.603  10.940
22980W        W84346   9.250   0.487   4.294
22981W        W84347  12.645  14.311   1.403
22982W        W84348  34.402   3.264   2.781
22983W        W84349  30.960  43.421   1.320
22984W        W84350   5.394  22.600  11.385
22985W        W84351   9.654   1.936   1.907
22986W        W84352  44.420  24.702  11.572
22987W        W84353  15.590  39.538  11.968
22988W        W84354  40.804  19.751   0.475
22989W        W84355   7.241  41.935   4.206
22990W        W84356   7.719  17.698   2.355
22991W        W84357   3.910  18.165   4.788
22992W        W84358  32.478   9.271   4.152
22993W        W84359  27.061   2.828   2.841
22994W        W84360   1.427  11.293  10.453
22995W        W84361  33.626  34.951  12.009
22996W        W84362   6.347  24.152  11.059
22997W        W84363  41.338  22.709  11.491
22998W        W84364  38.325   7.224  10.447
22999W        W84365  18.157  19.643   3.749
23000W        W84366  41.821  19.059   3.230
23001W        W84367  20.107  33.024  14.981
23002W        W84368  20.246   0.788  12.852
23003W        W84369  32.402  44.842   2.372
23004W        W84370  29.670  19.073  10.061
23005W        W84371  16.158  17.665  11.379
23006W        W84372  14.109  40.338  14.853
23007W        W84373  30.056  29.433   1.837
23008W        W84374  38.932  44.962   1.276
23009W        W84375  29.095  36.862   4.190
23010W        W84376  34.966  35.046   3.211
23011W        W84377  34.902  31.970  13.882
23012W        W84378  44.285  20.246   1.343
23013W        W84379  34.437  40.360  10.529
23014W        W84380   6.884   0.422   1.742
23015W        W84381  39.378  36.066  14.895
23016W        W84382   2.381  22.252   0.749
23017W        W84383  36.961  41.820  13.538
23018W        W84384  44.347  21.172  13.916
23019W        W84385  23.494  18.649  13.834
23020W        W84386   2.888   3.719   0.734
23021W        W84387  44.304  39.903   1.922
23022W        W84388  44.481  35.934  12.373
23023W        W84389   5.737  31.622   3.717
23024W        W84390  24.597  22.662   3.364
23025W        W84391  42.814   3.263   0.308
23026W        W84392  14.685  27.132  14.813
23027W        W84393  26.032  37.419   5.297
23028W        W84394   2.884   4.218   2.730
23029W        W84395  28.976   6.826  14.822
23030W        W84396  28.473  26.092  11.031
23031W        W84397  41.930  10.362   3.728
23032W        W84398  10.876  12.289  13.420
23033W        W84399  36.845  15.681   0.471
23034W        W84400  29.585  44.466   4.177
23035W        W84401  11.661  36.041   4.812
23036W        W84402  31.140  29.503  14.383
23037W        W84403  12.171  33.550  13.887
23038W        W84404   9.341  17.282   0.966
23039W        W84405   2.423  37.508   3.299
23040W        W84406  35.383  19.074  14.912
23041W        W84407  30.626  29.115   0.327
23042W        W84408  43.388  12.257   1.443
23043W        W84409   8.811  29.090  14.495
23044W        W84410  21.636  43.778   3.776
23045W        W84411   0.259   6.865  13.913
23046W        W84412  15.214  10.822   4.698
23047W        W84413  18.202  10.779   4.760
23048W        W84414  27.651  10.750   0.407
23049W        W84415  41.972  44.981   3.676
23050W        W84416  18.181  37.582  14.979
23051W        W84417  17.196  30.636  10.463
23052W        W84418   0.775  18.700  10.551
23053W        W84419   8.207  25.515   0.827
23054W        W84420  10.868  38.409  12.574
23055W        W84421  21.117  21.230   3.719
23056W        W84422  30.030  25.101   3.190
23057W        W84423   9.654  12.678  14.003
23058W        W84424  42.289   4.422   0.728
23059W        W84425   3.431   9.277   5.100
23060W        W84426  42.416  39.508   3.864
23061W        W84427  11.192  28.634   3.641
23062W        W84428   8.352  32.126   2.300
23063W        W84429  13.117  13.752  12.406
23064W        W84430   9.149  42.024  13.455
23065W        W84431  30.079  31.404  11.875
23066W        W84432  26.973  22.541  14.004
23067W        W84433   3.413  34.956   0.751
23068W        W84434  20.156  26.513   1.717
23069W        W84435   3.393  34.539  14.787
23070W        W84436  30.497  12.729   4.739
23071W        W84437  33.031  40.829   2.226
23072W        W84438  41.489  41.950  10.519
23073W        W84439  44.294  16.129   3.732
23074W        W84440  26.477  38.865  12.031
23075W        W84441  23.017  18.081  12.850
23076W        W84442  39.000  33.056  12.495
23077W        W84443  21.024  36.017   1.325
23078W        W84444  35.569  14.312  11.587
23079W        W84445   0.370  13.316   0.838
23080W        W84446  19.074  19.556  14.417
23081W        W84447  12.793  15.734   3.385
23082W        W84448  43.923  16.706  12.575
23083W        W84449  31.619   4.337  13.801
23084W        W84450  25.011  39.826   4.312
23085W        W84451  10.270  32.949   4.813
23086W        W84452  21.212  14.300   5.094
23087W        W84453  15.180  17.099  14.848
23088W        W84454   2.860  32.441   9.930
23089W        W84455  33.586  26.084   1.230
23090W        W84456  30.912  15.730   2.782
23091W        W84457  19.253  18.710  13.460
23092W        W84458  35.528  41.460  12.852
23093W        W84459   2.850   6.798  11.467
23094W        W84460  22.159  32.062   3.828
23095W        W84461  15.823  20.629  13.853
23096W        W84462  27.103  15.323   0.739
23097W        W84463  28.641  30.136  10.896
23098W        W84464  13.804  41.839   2.716
23099W        W84465  37.027  18.212  10.578
23100W        W84466  35.026  15.319  14.877
23101W        W84467  31.931  42.800  14.964
23102W        W84468  11.793  34.889  11.500
23103W        W84469  44.475  30.007  14.511
23104W        W84470  13.113  32.975  12.491
23105W        W84471  25.469   4.900  11.549
23106W        W84472   6.700  20.162   3.262
23107W        W84473  18.750  10.768   4.330
23108W        W84474  33.495  11.752   3.635
23109W        W84475  42.934  16.739   0.407
23110W        W84476   2.918  31.561   5.291
23111W        W84477  41.452  11.357   0.275
23112W        W84478  11.189   2.760   3.353
23113W        W84479   7.906   8.194  14.958
23114W        W84480  26.552  43.285  11.584
23115W        W84481  25.148  20.766   1.777
23116W        W84482  37.566   6.311  10.919
23117W        W84483  40.014  22.008  13.311
23118W        W84484  42.874   8.744  13.426
23119W        W84485  42.946  33.492  13.993
23120W        W84486  12.315  16.707   2.822
23121W        W84487  30.995   4.306   2.208
23122W        W84488  23.568  18.671   4.791
23123W        W84489  11.175  36.541   2.786
23124W        W84490   7.339  14.711  10.555
23125W        W84491  12.698   0.489   0.845
23126W        W84492  25.517  31.050  11.488
23127W        W84493  29.556  41.535  11.121
23128W        W84494   0.336   5.817   2.349
23129W        W84495  42.343  29.010   3.262
23130W        W84496  26.634   3.345   3.811
23131W        W84497  38.439  22.225  13.382
23132W        W84498  34.433   2.354   1.249
23133W        W84499  36.546   4.780  12.486
23134W        W84500  13.273  35.586   3.191
23135W        W84501  24.624  32.419   3.345
23136W        W84502   7.382  20.150  11.411
23137W        W84503  27.073  30.158   1.390
23138W        W84504  26.508  21.044   4.347
23139W        W84505   3.832  18.276   2.318
23140W        W84506   4.885  41.532  11.485
23141W        W84507  21.221   1.789   0.788
23142W        W84508  39.063  14.727  11.039
23143W        W84509  17.782  26.642  12.828
23144W        W84510   1.846  26.963   2.225
23145W        W84511   6.232  16.211  14.003
23146W        W84512   3.312  11.283   2.868
23147W        W84513  12.341  43.295   2.668
23148W        W84514  33.482  28.947  12.871
23149W        W84515  43.363  27.651  11.607
23150W        W84516  30.055   1.759   3.156
23151W        W84517  26.696  15.635   4.181
23152W        W84518   4.766  20.166   1.315
23153W        W84519  31.919   0.841  11.478
23154W        W84520  42.376  15.270  11.438
23155W        W84521  38.869  30.959   2.894
23156W        W84522   4.398  29.153   3.278
23157W        W84523   1.368   6.805  13.439
23158W        W84524  35.572  32.016  12.502
23159W        W84525   8.261  18.640  11.880
23160W        W84526  23.607  26.635  12.578
23161W        W84527  31.982  33.402   2.242
23162W        W84528  42.513  12.799  12.424
23163W        W84529  15.126   3.709   4.147
23164W        W84530  21.679  22.567   2.828
23165W        W84531  38.433   6.819  13.969
23166W        W84532  20.058  22.045   1.731
23167W        W84533  22.214  34.077   3.817
23168W        W84534  33.498   7.723  14.340
23169W        W84535  27.049  43.778  11.021
23170W        W84536  36.536  23.984  12.968
23171W        W84537  13.705  38.373  11.087
23172W        W84538  29.655  39.481  13.534
23173W        W84539   9.339  27.043   0.755
23174W        W84540  38.874   1.866   3.336
23175W        W84541  31.601  34.467  13.986
23176W        W84542  44.988  31.602   2.778
23177W        W84543  30.500  34.530  11.120
23178W        W84544  19.662  33.000   2.267
23179W        W84545   5.718  24.589  13.812
23180W        W84546  26.698  31.502   1.863
23181W        W84547  25.495  30.913  10.596
23182W        W84548  26.162  18.700  10.433
23183W        W84549   9.155  35.891  14.326
23184W        W84550  17.767  35.924  12.457
23185W        W84551  13.653   3.760   0.312
23186W        W84552  43.814   6.361   4.291
23187W        W84553  16.212  43.308  14.347
23188W        W84554   8.255  44.956  14.953
23189W        W84555  29.628  28.027  13.410
23190W        W84556   0.354  43.298  13.325
23191W        W84557   1.438  33.541   2.746
23192W        W84558   4.723  25.109  13.385
23193W        W84559  17.591  41.427  13.352
23194W        W84560  41.427  10.729   0.966
23195W        W84561  19.756   6.253  11.504
23196W        W84562  21.679  13.725   0.424
23197W        W84563  43.443  26.586   2.293
23198W        W84564   5.916  33.053   4.766
23199W        W84565  42.319  25.522  13.385
23200W        W84566  21.556   8.339   0.308
23201W        W84567  18.747  41.329  12.965
23202W        W84568  41.826  35.917   3.342
23203W        W84569   0.318   3.790  12.525
23204W        W84570  21.261  19.751   4.333
23205W        W84571  11.353  32.967   4.759
23206W        W84572  12.302  18.631   0.430
23207W        W84573  14.134  10.146   3.230
23208W        W84574  13.801   2.832   4.697
23209W        W84575  41.467  44.259  13.314
23210W        W84576  17.673  43.333  11.899
23211W        W84577  29.478  42.781  13.462
23212W        W84578  31.477  25.643   0.798
23213W        W84579  30.918  26.639   1.297
23214W        W84580  31.115   2.749   4.199
23215W        W84581  39.974   6.853   2.900
23216W        W84582  18.659  12.743   1.346
23217W        W84583  23.046  29.620  12.540
23218W        W84584  25.657  36.499  10.612
23219W        W84585  42.900   6.837   3.670
23220W        W84586  36.071  13.160   4.690
23221W        W84587  21.605  30.030  14.442
23222W        W84588  14.806  22.732  12.467
23223W        W84589  12.234   9.246  12.917
23224W        W84590  24.012  22.055  10.529
23225W        W84591  13.260  15.180   4.664
23226W        W84592  36.461  27.679  14.867
23227W        W84593  21.246  35.379  13.810
23228W        W84594  15.724  42.323   1.366
23229W        W84595  12.778   5.918  13.539
23230W        W84596  36.860   8.292  10.899
23231W        W84597   1.944  25.544   0.248
23232W        W84598   6.915   7.729   3.353
23233W        W84599  22.544  27.504  12.442
23234W        W84600  20.549  29.090  14.817
23235W        W84601  13.174  44.316   3.258
23236W        W84602  12.770  18.066   1.729
23237W        W84603  23.135  35.439  12.369
23238W        W84604  20.254  31.134  10.549
23239W        W84605   3.942  11.250  13.523
23240W        W84606  41.876   8.656   4.731
23241W        W84607  29.012  10.271   0.881
23242W        W84608  31.411  36.471  14.009
23243W        W84609  22.074   8.332   3.246
23244W        W84610  28.044  44.468  12.457
23245W        W84611  14.696  40.499   1.263
23246W        W84612   8.333  41.806   1.737
23247W        W84613  41.895   1.827   2.802
23248W        W84614  17.265  12.358   1.921
23249W        W84615   9.790  24.598   3.267
23250W        W84616   9.670  43.310  13.941
23251W        W84617  25.472  25.169   9.993
23252W        W84618  43.418   3.931   3.856
23253W        W84619  40.410  13.722   2.401
23254W        W84620  12.213  18.058   4.642
23255W        W84621   8.672  12.319   3.808
23256W        W84622  28.549  43.431   1.287
23257W        W84623   9.764   8.405  10.587
23258W        W84624  38.398  32.410   2.768
23259W        W84625   1.431   2.253  13.390
23260W        W84626   1.383  14.776   1.755
23261W        W84627  38.432  43.287   4.605
23262W        W84628   9.839  16.693   2.855
23263W        W84629  15.619   5.426   2.182
23264W        W84630  15.317  44.352  13.835
23265W        W84631  42.976  23.997   4.251
23266W        W84632  25.117  44.323  11.050
23267W        W84633  12.851   5.380  11.589
23268W        W84634  20.745  10.240   2.847
23269W        W84635  41.486  43.337  12.941
23270W        W84636  25.634   2.760  10.987
23271W        W84637  27.646   8.318   1.752
23272W        W84638  37.904  17.752  11.971
23273W        W84639  37.991   8.183   2.393
23274W        W84640   2.395  14.240  10.568
23275W        W84641   1.394  44.874   1.243
23276W        W84642   5.787  23.734  14.867
23277W        W84643  43.822  15.689   4.175
23278W        W84644   6.859  18.260  10.153
23279W        W84645  31.486  34.432  14.881
23280W        W84646   6.694  20.683   2.770
23281W        W84647   4.914  12.156   4.276
23282W        W84648   3.755  16.147   5.663
23283W        W84649  39.382  34.055   4.153
23284W        W84650  13.708  40.016   3.375
23285W        W84651  25.547  11.700  13.932
23286W        W84652  30.974  44.273  10.626
23287W        W84653  16.581  20.107   4.267
23288W        W84654  38.570  39.517   3.164
23289W        W84655  29.447  13.226   4.352
23290W        W84656  13.290   1.756   2.822
23291W        W84657  28.129   1.769   4.794
23292W        W84658  16.746  43.844  12.517
23293W        W84659   7.789  39.378   0.336
23294W        W84660  36.436  25.545  12.534
23295W        W84661  19.665  18.150  13.501
23296W        W84662   8.199   1.855  13.863
23297W        W84663  40.869   7.179   3.792
23298W        W84664  20.131  30.039  13.000
23299W        W84665  23.679  21.600  14.344
23300W        W84666  28.538  44.971  14.508
23301W        W84667  12.801  14.753  11.057
23302W        W84668  39.362  41.449   2.889
23303W        W84669  14.271  17.298   1.887
23304W        W84670  36.523  18.091   0.893
23305W        W84671  15.099   8.301  11.536
23306W        W84672  35.926  25.617  14.473
23307W        W84673  27.020  13.604  12.569
23308W        W84674  33.449   7.410   2.299
23309W        W84675   5.222  39.323   4.186
23310W        W84676  10.729   9.756   1.874
23311W        W84677   5.296   6.219   1.895
23312W        W84678  17.651  33.018  10.607
23313W        W84679  26.171  23.102   2.285
23314W        W84680   2.935  41.937  10.485
23315W        W84681   1.391  13.176   1.865
23316W        W84682  42.904  37.833   0.879
23317W        W84683  10.166  34.444   0.859
23318W        W84684   6.307  25.082  13.498
23319W        W84685  41.025  21.169   1.217
23320W        W84686  10.870  31.935   4.622
23321W        W84687  24.120  31.601  11.552
23322W        W84688   1.451  24.565  10.407
23323W        W84689  38.982  21.678  13.335
23324W        W84690  40.863  43.301  11.879
23325W        W84691   4.340  17.158  11.001
23326W        W84692  24.510  34.036  13.844
23327W        W84693  35.912   2.427   2.895
23328W        W84694  27.564  33.121  10.960
23329W        W84695  27.575  31.447   9.559
23330W        W84696  26.619  36.038  12.057
23331W        W84697   0.870   3.838   1.722
23332W        W84698  14.254  36.927   1.874
23333W        W84699  32.627   9.648  10.586
23334W        W84700   1.393  42.400   3.835
23335W        W84701  42.809  10.305   0.339
23336W        W84702  19.760  25.168   1.761
23337W        W84703  34.057  17.085   2.406
23338W        W84704   4.725  24.687  13.393
23339W        W84705   5.695  13.609  11.929
23340W        W84706  22.670   8.751   0.831
23341W        W84707  20.141  15.164   2.780
23342W        W84708  32.614  14.144  11.071
23343W        W84709  12.774  36.866   0.889
23344W        W84710   3.258  22.049  13.047
23345W        W84711  37.435  37.072   0.781
23346W        W84712   5.211   2.775  11.087
23347W        W84713  37.346  37.039   4.806
23348W        W84714  16.283  16.776  11.115
23349W        W84715  43.375  12.235  12.065
23350W        W84716  20.703  21.146  11.498
23351W        W84717   7.394  29.082  14.999
23352W        W84718  28.095   1.904  11.524
23353W        W84719  36.539  44.816  14.412
23354W        W84720   4.256  44.870  12.450
23355W        W84721  25.149  11.206   2.268
23356W        W84722  26.660  28.653  11.572
23357W        W84723  29.599   9.223   0.936
23358W        W84724  41.935  36.464   3.262
23359W        W84725   7.669  16.806  14.465
23360W        W84726   9.861  43.437   0.289
23361W        W84727  29.925  11.156  12.958
23362W        W84728  27.091  39.036  13.335
23363W        W84729  31.642  32.637   2.889
23364W        W84730  35.439  40.990   2.706
23365W        W84731  14.813  27.565  10.412
23366W        W84732  23.690  38.347   4.650
23367W        W84733   2.332  42.377   3.208
23368W        W84734  29.108   3.281   0.387
23369W        W84735  22.216  17.629  11.977
23370W        W84736  18.588  30.567  13.862
23371W        W84737   1.820   2.234  11.045
23372W        W84738  17.133  16.102   5.308
23373W        W84739  19.077  44.505   4.668
23374W        W84740  10.817   8.160  13.803
23375W        W84741  38.492  25.122  14.021
23376W        W84742  39.907  39.013  14.457
23377W        W84743  13.835  36.393  14.009
23378W        W84744  33.532  24.157   3.715
23379W        W84745   9.157  25.083  10.408
23380W        W84746  24.632   3.412   2.893
23381W        W84747  33.033  31.145  14.769
23382W        W84748  26.120  29.442  13.906
23383W        W84749   4.808  23.159   1.330
23384W        W84750  15.205   6.730   0.889
23385W        W84751   2.282  11.306  10.637
23386W        W84752  37.452  22.251  14.281
23387W        W84753  22.224  32.567   1.799
23388W        W84754  36.514  25.093   1.725
23389W        W84755  25.071   0.816  12.421
23390W        W84756  24.565  14.646   3.683
23391W        W84757  25.556  20.698  12.082
23392W        W84758  18.292  13.681  11.122
23393W        W84759  20.647   4.353  13.405
23394W        W84760  13.784   7.874  14.438
23395W        W84761  22.059  11.679   2.349
23396W        W84762  21.073  44.280  12.027
23397W        W84763  27.531   4.303   0.250
23398W        W84764  39.037  11.352   2.396
23399W        W84765  24.487  14.238  14.873
23400W        W84766   4.937  15.661  12.986
23401W        W84767  27.951   5.273  12.386
23402W        W84768  35.561   6.337  10.928
23403W        W84769   6.376   8.813   1.820
23404W        W84770  31.592  24.002  12.021
23405W        W84771  15.803  30.630  11.964
23406W        W84772  35.529   5.315  13.985
23407W        W84773   9.231   2.432  14.928
23408W        W84774   1.972  20.617   1.217
23409W        W84775  42.858  21.027   0.358
23410W        W84776  29.431   8.888  14.764
23411W        W84777  33.018  32.102   2.816
23412W        W84778  33.514  20.196  11.401
23413W        W84779  15.207  15.146   1.819
23414W        W84780  21.710  44.938  12.081
23415W        W84781  44.841  12.819   2.887
23416W        W84782   3.849  44.276  13.380
23417W        W84783  36.040  24.149   1.421
23418W        W84784  36.419  31.514  11.542
23419W        W84785  40.847  12.639  10.472
23420W        W84786  43.896   6.376  11.521
23421W        W84787  19.194  36.467   0.398
23422W        W84788  30.128  21.725   0.327
23423W        W84789  15.320  37.339   1.331
23424W        W84790  36.474   0.824  12.998
23425W        W84791  41.462   7.377   0.307
23426W        W84792  31.435   6.398  14.878
23427W        W84793   0.389  30.516   3.679
23428W        W84794  44.931  42.343  10.927
23429W        W84795   5.760   8.347   3.664
23430W        W84796  11.844   8.307  14.327
23431W        W84797  10.696  16.146  14.344
23432W        W84798  21.693  16.728   3.804
23433W        W84799  13.350  25.093   3.281
23434W        W84800  44.268   5.311   5.141
23435W        W84801  29.056   7.731   3.316
23436W        W84802  15.705  41.320   3.172
23437W        W84803  23.498   8.769   0.373
23438W        W84804   8.703  26.702   3.181
23439W        W84805  27.004   0.329   3.245
23440W        W84806  42.348  15.767  14.024
23441W        W84807  35.508  22.103  10.962
23442W        W84808  33.406  37.872  12.421
23443W        W84809  16.729  31.940   4.240
23444W        W84810   9.345  10.189   2.263
23445W        W84811  11.808  39.045  13.326
23446W        W84812  17.220  39.421   0.319
23447W        W84813  21.523  31.491  11.450
23448W        W84814  21.533   6.843   4.643
23449W        W84815   1.275  30.462  10.977
23450W        W84816  25.976  39.337   2.881
23451W        W84817  44.273  41.041  11.892
23452W        W84818  33.909  11.683  14.817
23453W        W84819  23.613  29.158   2.772
23454W        W84820  38.546  26.001   3.821
23455W        W84821  24.103  13.703   4.708
23456W        W84822  23.692  22.159  14.406
23457W        W84823  44.921  29.083  14.992
23458W        W84824  35.034  38.521   9.955
23459W        W84825  15.275  34.876  13.887
23460W        W84826  30.457  30.937   0.740
23461W        W84827  32.975  31.404  13.025
23462W        W84828  15.632  29.084  14.788
23463W        W84829  40.468  19.555   0.403
23464W        W84830  43.898  19.669  14.494
23465W        W84831   9.392  23.194   3.748
23466W        W84832  28.949  13.147   3.265
23467W        W84833  34.072  27.153   2.185
23468W        W84834  41.924  23.987  14.904
23469W        W84835   1.966  23.006   3.299
23470W        W84836  39.535  19.665  10.613
23471W        W84837  11.733  11.822   4.610
23472W        W84838  18.554  24.979  10.512
23473W        W84839   9.793  16.316   1.393
23474W        W84840  35.512   4.236  14.011
23475W        W84841   3.231  22.662  13.459
23476W        W84842  19.157  35.568   9.499
23477W        W84843  36.354  32.630   4.684
23478W        W84844  43.286  37.964   0.863
23479W        W84845   2.809  25.649   0.920
23480W        W84846  17.119  22.150   3.263
23481W        W84847  16.752  18.701   4.604
23482W        W84848  29.620  34.389  13.831
23483W        W84849   5.340  25.111   4.239
23484W        W84850  39.959  12.702  12.496
23485W        W84851  31.089  20.709   4.600
23486W        W84852  20.563  24.221  14.405
23487W        W84853  20.147  31.093  14.463
23488W        W84854  12.208   6.199   0.352
23489W        W84855  11.172  43.841  14.461
23490W        W84856   3.889  43.415  11.428
23491W        W84857  12.649  36.916  14.298
23492W        W84858  39.015  31.963  11.553
23493W        W84859  34.539  38.325  12.506
23494W        W84860  29.494  21.229  14.989
23495W        W84861  30.004  23.655   4.184
23496W        W84862   6.840  16.308   3.279
23497W        W84863  24.540  11.864   3.309
23498W        W84864  41.911  32.087  10.617
23499W        W84865  24.109   6.235   2.296
23500W        W84866  35.475  26.957  12.047
23501W        W84867  12.748   6.833   2.411
23502W        W84868  32.530  36.079   2.769
23503W        W84869   2.959  38.072   1.751
23504W        W84870  11.672  21.717  12.456
23505W        W84871  18.648  24.521  13.809
23506W        W84872   2.736  23.043   3.830
23507W        W84873   4.436  27.100   3.154
23508W        W84874   3.242  23.189  13.513
23509W        W84875  12.801  42.002  14.882
23510W        W84876  34.379  21.517   0.828
23511W        W84877   6.196  12.303   2.381
23512W        W84878  33.992  40.503   4.785
23513W        W84879  38.039  10.169   4.806
23514W        W84880  14.661  31.024   4.664
23515W        W84881  18.127   8.676  13.838
23516W        W84882  15.807  19.107   3.699
23517W        W84883  28.931   4.725   2.678
23518W        W84884   0.269  18.155   2.368
23519W        W84885  10.691  12.144  14.360
23520W        W84886  20.604   2.884   0.734
23521W        W84887  23.122  32.058  13.517
23522W        W84888  22.713   0.369   1.258
23523W        W84889  20.634  19.592  13.981
23524W        W84890   3.862   9.845   3.700
23525W        W84891  12.785  36.396  10.429
23526W        W84892  32.040  17.659   4.603
23527W        W84893  39.483  30.441  13.805
23528W        W84894  30.638  19.717   3.280
23529W        W84895  28.141  20.136   0.354
23530W        W84896  41.324   9.784   2.310
23531W        W84897  28.135  26.174   1.724
23532W        W84898  15.192  19.581   0.369
23533W        W84899   7.850  19.688   1.778
23534W        W84900  33.936  22.550   4.276
23535W        W84901  41.995  28.515   0.884
23536W        W84902   2.896  34.937   1.416
23537W        W84903   4.917  20.752   1.259
23538W        W84904  21.139  38.992  12.085
23539W        W84905  41.296  35.927  12.057
23540W        W84906  14.136  27.468   3.633
23541W        W84907  42.411  33.017   2.309
23542W        W84908  31.620  41.027  14.870
23543W        W84909  23.132  33.397   9.627
23544W        W84910  24.487  42.859   0.298
23545W        W84911   7.842  13.792   2.354
23546W        W84912  37.507  27.084  12.014
23547W        W84913  17.706   2.858  11.918
23548W        W84914  31.641   9.381   1.713
23549W        W84915  15.802  14.216   4.238
23550W        W84916  10.842  30.956  12.916
23551W        W84917  12.751  27.516   4.832
23552W        W84918   5.276  11.217  11.975
23553W        W84919   6.843   5.836   3.304
23554W        W84920  25.082  42.320  13.355
23555W        W84921  34.908  26.078   0.253
23556W        W84922   5.387  10.702  11.024
23557W        W84923  27.601   3.429   2.241
23558W        W84924  20.045  29.152   4.710
23559W        W84925  10.752  34.422  10.478
23560W        W84926  33.397   5.274  13.415
23561W        W84927  38.958  26.072   4.157
23562W        W84928  26.118  15.291  10.529
23563W        W84929  28.175  40.466   4.631
23564W        W84930  14.614  44.295   2.385
23565W        W84931  36.084   3.790  14.778
23566W        W84932  31.625  15.594   4.203
23567W        W84933  14.204  20.192   1.814
23568W        W84934  27.947  27.476  12.944
23569W        W84935  11.623  16.092   0.913
23570W        W84936  16.129  24.213  12.424
23571W        W84937  39.430   7.798  13.971
23572W        W84938  37.450  34.510   3.759
23573W        W84939  24.154  28.164   4.305
23574W        W84940   8.308  39.553  13.045
23575W        W84941  22.016  20.108  13.893
23576W        W84942  21.702  43.294  10.929
23577W        W84943  22.580  41.043  14.847
23578W        W84944  34.566  41.438   4.607
23579W        W84945  10.851   2.455   3.297
23580W        W84946   5.303  26.096  13.056
23581W        W84947  43.808   0.435   1.231
23582W        W84948  10.713  26.033   1.848
23583W        W84949  35.859  19.753   0.806
23584W        W84950  29.561  41.997   3.342
23585W        W84951  27.619   0.833   0.370
23586W        W84952  29.976  24.092   4.138
23587W        W84953  35.461  39.351  11.937
23588W        W84954  11.639  35.357   3.778
23589W        W84955   1.749  37.861  13.343
23590W        W84956  38.903  30.092   4.206
23591W        W84957  16.756  40.848  11.087
23592W        W84958  35.926  24.585   4.752
23593W        W84959  35.925  32.596   4.784
23594W        W84960  34.440  34.498   4.685
23595W        W84961  28.681  31.647  10.943
23596W        W84962  16.657  41.830  13.962
23597W        W84963  35.935  34.545  12.418
23598W        W84964   6.197  18.204   0.442
23599W        W84965  26.142  19.087  14.361
23600W        W84966  34.975  36.928   3.816
23601W        W84967  33.969  41.956   0.302
23602W        W84968  26.996  34.562   2.290
23603W        W84969  20.066  24.498   3.338
23604W        W84970  13.786  32.132   4.713
23605W        W84971   2.424  43.409  11.946
23606W        W84972  14.809  14.691   1.352
23607W        W84973  35.496  24.211  12.856
23608W        W84974  38.952  32.524   1.906
23609W        W84975  13.674  17.107  13.979
23610W        W84976  42.006  15.708   0.470
23611W        W84977  16.798  40.417   1.265
23612W        W84978  17.618  40.435   4.633
23613W        W84979  33.608  27.977   1.866
23614W        W84980  34.886   8.815   5.135
23615W        W84981   9.744   1.847  12.399
23616W        W84982  32.995  10.639  12.545
23617W        W84983  41.402  42.387  13.903
23618W        W84984  13.779  32.028  11.021
23619W        W84985  15.773  30.508  12.560
23620W        W84986  13.307  11.670  11.106
23621W        W84987  44.463  27.657  10.441
23622W        W84988  15.775  17.794   5.206
23623W        W84989   5.303  15.166   0.299
23624W        W84990  42.359  44.939  12.365
23625W        W84991  28.956  12.847  11.986
23626W        W84992   6.748  26.468  13.455
23627W        W84993  33.937  42.314   0.392
23628W        W84994   2.427  37.958   4.813
23629W        W84995  37.346  23.188  10.499
23630W        W84996  22.163   9.271   2.688
23631W        W84997  28.013  13.812   1.374
23632W        W84998   2.422  27.165  12.501
23633W        W84999  22.504   2.811  11.414
23634W        W85000   0.887  27.105  12.492
23635W        W85001   7.764   1.900  10.951
23636W        W85002  29.613  36.012  12.889
23637W        W85003   4.745  17.176   1.811
23638W        W85004  18.720  33.596  12.948
23639W        W85005  21.111  28.569   4.817
23640W        W85006  19.105  27.010   2.291
23641W        W85007  17.726  28.187   3.764
23642W        W85008  14.711  38.962  11.411
23643W        W85009  19.132  26.110   3.688
23644W        W85010   5.341  25.219  12.537
23645W        W85011   7.864  29.040  13.417
23646W        W85012  21.017  25.559   3.700
23647W        W85013  15.204  19.740  13.514
23648W        W85014  10.737  44.858   2.751
23649W        W85015   0.349  34.989   2.396
23650W        W85016  19.633  28.107   2.200
23651W        W85017  30.480  34.932  12.997
23652W        W85018  30.128  28.642  11.118
23653W        W85019  38.038  29.475   0.287
23654W        W85020   1.966  40.933  13.489
23655W        W85021  34.015  30.099  14.830
23656W        W85022  15.693   2.753   3.171
23657W        W85023  13.618  27.941  11.059
23658W        W85024   2.879   4.738   9.983
23659W        W85025  26.139  13.326   3.233
23660W        W85026  41.515  26.047  13.925
23661W        W85027  16.250  39.824  12.078
23662W        W85028  27.645  33.425  11.974
23663W        W85029  44.759  36.952   2.674
23664W        W85030  35.982  15.204  10.956
23665W        W85031  38.964  43.300  13.350
23666W        W85032  13.351  42.454   2.794
23667W        W85033  10.290   1.366  10.433
23668W        W85034  36.070  38.052  12.489
23669W        W85035  16.256   9.862  12.870
23670W        W85036  15.307  36.583   5.764
23671W        W85037  39.920  39.933   0.925
23672W        W85038  35.461  29.658  13.042
23673W        W85039   2.394  25.200   5.218
23674W        W85040   5.910  32.964  12.903
23675W        W85041  41.034  38.069  13.406
23676W        W85042   9.390  41.387   2.807
23677W        W85043  11.197   7.669   1.285
23678W        W85044   0.307  39.440  12.534
23679W        W85045  35.062   5.727   1.347
23680W        W85046   9.355  33.584   1.278
23681W        W85047  26.165  11.800   3.825
23682W        W85048  27.478   6.187   1.419
23683W        W85049  33.409  39.994  13.345
23684W        W85050   6.914  23.152   2.729
23685W        W85051  38.056   0.292  12.505
23686W        W85052   1.430  18.220  12.558
23687W        W85053  35.532  24.038  13.994
23688W        W85054  10.861  24.059   4.163
23689W        W85055  14.319  33.573   1.817
23690W        W85056  12.152  28.090  11.869
23691W        W85057  13.197  12.831  10.419
23692W        W85058  44.269  17.077   0.402
23693W        W85059   3.253  44.437   3.716
23694W        W85060  40.812  39.543   0.775
23695W        W85061  44.499  26.140  14.944
23696W        W85062  25.996   6.856  11.897
23697W        W85063  25.487  40.051   4.650
23698W        W85064  36.946  25.154  10.611
23699W        W85065  30.144  28.596  14.469
23700W        W85066  16.307  40.973  13.423
23701W        W85067   9.658   9.285   4.644
23702W        W85068  30.558  12.301  11.557
23703W        W85069  14.303  30.509   0.942
23704W        W85070  44.819  27.189  12.049
23705W        W85071   7.783  19.552   0.844
23706W        W85072  39.008  10.147   3.869
23707W        W85073  38.425  25.205  14.866
23708W        W85074  41.013   3.791   3.752
23709W        W85075   1.381  26.146  12.986
23710W        W85076   5.295  10.768  13.462
23711W        W85077   0.486  13.719  11.097
23712W        W85078  18.781  29.095  14.371
23713W        W85079  34.915  39.865  12.060
23714W        W85080  26.551   1.464   1.834
23715W        W85081  36.017  43.820  11.892
23716W        W85082  15.640  38.887   5.125
23717W        W85083  31.571  31.114  13.899
23718W        W85084  42.527   2.401   4.239
23719W        W85085  10.156  32.988   1.370
23720W        W85086  42.383  19.599   3.216
23721W        W85087  41.834   8.822  14.765
23722W        W85088  19.174  37.897  12.843
23723W        W85089  13.599  17.148  14.810
23724W        W85090  18.098  34.546  11.965
23725W        W85091  39.836  29.578   1.430
23726W        W85092  40.930   3.889  14.913
23727W        W85093  36.015  20.589   2.824
23728W        W85094  43.456   0.489   0.784
23729W        W85095  24.119  29.466   1.316
23730W        W85096  41.977  10.649   3.640
23731W        W85097  13.792   9.248   3.331
23732W        W85098  42.396  33.560   1.410
23733W        W85099  17.175  19.705  11.865
23734W        W85100   4.795  32.588   0.371
23735W        W85101   8.870  26.078  10.108
23736W        W85102  19.546  11.761  11.497
23737W        W85103  40.843  37.857  12.387
23738W        W85104   7.312  26.025  10.635
23739W        W85105  24.013   6.761  14.909
23740W        W85106  18.073   2.247   4.288
23741W        W85107  31.011  23.223   2.795
23742W        W85108  33.462  18.600   3.828
23743W        W85109  26.090  42.776  12.514
23744W        W85110  18.126   4.302  13.388
23745W        W85111  11.349  23.141  13.020
23746W        W85112  11.332   5.349  11.036
23747W        W85113  20.269  27.184  11.395
23748W        W85114   7.701   0.764  13.009
23749W        W85115  44.383   9.815  12.944
23750W        W85116  28.116   5.901  11.398
23751W        W85117  28.483   9.859  13.840
23752W        W85118  39.382  21.120  13.921
23753W        W85119  22.518   1.388   0.844
23754W        W85120  10.772  37.988   0.440
23755W        W85121   2.859   7.211   0.898
23756W        W85122  24.574  43.331  14.004
23757W        W85123  29.551  25.029   3.190
23758W        W85124  42.348  13.235  11.531
23759W        W85125   5.257  25.533  13.523
23760W        W85126   2.731  10.372  10.634
23761W        W85127   4.811  26.568  11.004
23762W        W85128  17.589  44.488   2.785
23763W        W85129  25.038  27.000   2.853
23764W        W85130   6.917   8.370  10.578
23765W        W85131  25.033  16.136   3.845
23766W        W85132  10.233   7.387  14.366
23767W        W85133  11.258  11.312  14.351
23768W        W85134  39.013   0.918  11.998
23769W        W85135  37.521  38.391   0.842
23770W        W85136   5.876  15.193  11.919
23771W        W85137   8.672  26.626   1.854
23772W        W85138  16.123  26.185  12.343
23773W        W85139  38.875  24.026   2.707
23774W        W85140  14.237  19.130   1.863
23775W        W85141   7.285  27.638   0.306
23776W        W85142  32.567  20.189  11.456
23777W        W85143  11.725  29.534  13.470
23778W        W85144  39.832  31.063   4.142
23779W        W85145  34.611  42.820   1.699
23780W        W85146  18.766   0.460  13.020
23781W        W85147  37.378  33.577  11.444
23782W        W85148   5.326  34.070   3.259
23783W        W85149  36.378  14.667   4.140
23784W        W85150  43.304  23.133   2.889
23785W        W85151  43.936  34.441  10.433
23786W        W85152  35.438   1.393  12.092
23787W        W85153   3.460   8.315   0.339
23788W        W85154  26.502  34.903   5.125
23789W        W85155  14.334  41.832  14.400
23790W        W85156  33.526  41.354   2.689
23791W        W85157  25.668  10.190   3.157
23792W        W85158   5.783  43.827   3.785
23793W        W85159   4.942  37.336   1.433
23794W        W85160   8.901  25.018   4.261
23795W        W85161   5.368  20.263  11.380
23796W        W85162  18.291   2.817  12.468
23797W        W85163  19.577   2.286   4.313
23798W        W85164  39.892   7.909  14.765
23799W        W85165  19.761  19.223  10.499
23800W        W85166  10.760  36.966   3.853
23801W        W85167  35.551   6.780  12.946
23802W        W85168  35.468  44.305  11.942
23803W        W85169  16.081  25.035   1.376
23804W        W85170  39.860  18.718   1.919
23805W        W85171  39.027  33.045  14.961
23806W        W85172  15.222  18.155   0.443
23807W        W85173  40.024  12.221   3.353
23808W        W85174  29.550  44.450   2.814
23809W        W85175  41.453  14.158   3.386
23810W        W85176  28.177   8.722  10.596
23811W        W85177   4.912   7.334  11.073
23812W        W85178   9.702  30.462   4.222
23813W        W85179  29.423  43.849  12.370
23814W        W85180  32.019  34.005   1.718
23815W        W85181  41.006  24.158  14.381
23816W        W85182  10.761  42.899   0.925
23817W        W85183  39.033   0.944   3.802
23818W        W85184  35.878  43.834   0.772
23819W        W85185  43.293  27.528   0.951
23820W        W85186  39.546   6.804   0.296
23821W        W85187  22.655  41.908   1.878
23822W        W85188   8.796  26.608   3.658
23823W        W85189  24.198  11.173  11.036
23824W        W85190  25.699  30.128  14.812
23825W        W85191  13.845   5.379   2.244
23826W        W85192   3.866   1.812   0.797
23827W        W85193  26.074   2.300   4.744
23828W        W85194   9.161  14.289  13.356
23829W        W85195  38.358  32.631   4.812
23830W        W85196  33.056  20.574  13.915
23831W        W85197  20.105  17.624   0.910
23832W        W85198  41.802  22.528   2.740
23833W        W85199  30.157   9.331   0.421
23834W        W85200  32.398  37.991  13.998
23835W        W85201   9.178  16.726  13.341
23836W        W85202  21.034  16.266   4.323
23837W        W85203  20.764  40.514   4.770
23838W        W85204  34.010  36.017  12.963
23839W        W85205  27.602  18.635   1.750
23840W        W85206  35.553  17.143  14.322
23841W        W85207   4.321  27.555   4.149
23842W        W85208  18.787   3.775  12.480
23843W        W85209   7.759  38.963   0.885
23844W        W85210  14.281  27.060   4.251
23845W        W85211  26.693  41.439  13.984
23846W        W85212   9.662  41.831  14.315
23847W        W85213  17.718   2.393  12.075
23848W        W85214   7.674  36.861   1.895
23849W        W85215   0.422  41.013  10.894
23850W        W85216  19.143   6.383   2.662
23851W        W85217   7.888  22.014  12.447
23852W        W85218  30.588  34.977   2.312
23853W        W85219  13.194  12.180   0.337
23854W        W85220   9.241  20.234  14.345
23855W        W85221  16.678  40.470  10.984
23856W        W85222  42.414  38.883   1.903
23857W        W85223  33.952  14.192  10.516
23858W        W85224  41.889  35.909  12.483
23859W        W85225  29.039  35.896  10.896
23860W        W85226  21.678  41.471  11.478
23861W        W85227   1.428  10.306   2.877
23862W        W85228   5.926  36.515  12.930
23863W        W85229  31.537  18.161   1.848
23864W        W85230  11.834  39.550   3.342
23865W        W85231  16.699   7.860   2.840
23866W        W85232   4.219  29.930   2.305
23867W        W85233   8.827  15.219  13.313
23868W        W85234  43.831  24.501  13.482
23869W        W85235   1.746   3.246  11.415
23870W        W85236  12.355   1.367   0.811
23871W        W85237  40.015   4.411  12.094
23872W        W85238  26.669  25.088   1.247
23873W        W85239  40.029  29.595  11.980
23874W        W85240   4.254   5.246   1.324
23875W        W85241  37.869   8.396   4.285
23876W        W85242  15.765   5.877  13.354
23877W        W85243  36.087  13.157  13.457
23878W        W85244  36.861  33.101  12.984
23879W        W85245  32.524  30.944   4.298
23880W        W85246  21.647  31.466   9.994
23881W        W85247   2.913  38.533   0.334
23882W        W85248  43.270  18.220  14.945
23883W        W85249  21.244  21.550   5.239
23884W        W85250   1.460  16.613  13.038
23885W        W85251  19.233  34.569   9.476
23886W        W85252  44.795  16.599   3.692
23887W        W85253  38.058  13.631   2.404
23888W        W85254   8.405   4.805  10.039
23889W        W85255  29.660  28.167   0.285
23890W        W85256  38.852  29.662  10.891
23891W        W85257  11.373   2.900  14.324
23892W        W85258  36.894  39.407  12.491
23893W        W85259  23.603  26.102  12.387
23894W        W85260  29.489  43.916  14.469
23895W        W85261  29.175  44.897   3.365
23896W        W85262   3.756   8.837  10.041
23897W        W85263  30.565   0.320   0.937
23898W        W85264   6.864  14.161   3.315
23899W        W85265  33.906  16.714  11.506
23900W        W85266   7.769  34.948   3.744
23901W        W85267  24.653  20.108  13.879
23902W        W85268  16.723  31.581  11.127
23903W        W85269  14.588  19.174   1.316
23904W        W85270  19.251  29.084   2.693
23905W        W85271  21.230   1.891   0.342
23906W        W85272  20.255  27.050   4.711
23907W        W85273   5.206  38.339  11.870
23908W        W85274  43.288  14.338  13.048
23909W        W85275  31.939  44.988   1.219
23910W        W85276   9.882  25.588  13.836
23911W        W85277  30.502  12.674  12.467
23912W        W85278   2.319  30.004   5.264
23913W        W85279  16.207  13.263   5.181
23914W        W85280  22.613  19.572  13.433
23915W        W85281  21.600  28.982  13.494
23916W        W85282  28.959  33.489   4.194
23917W        W85283  26.122   4.836   2.414
23918W        W85284   2.879  21.541   0.433
23919W        W85285   0.478  16.078   4.171
23920W        W85286  22.128  30.921  11.914
23921W        W85287  43.960  11.850   4.194
23922W        W85288  18.734  21.069  13.448
23923W        W85289  24.497  21.023  10.632
23924W        W85290  41.430  30.512   3.240
23925W        W85291  14.594  38.060   1.357
23926W        W85292   9.196  33.406  13.406
23927W        W85293  41.321   4.939  11.419
23928W        W85294  43.305  15.663  10.415
23929W        W85295  26.977  10.846   4.600
23930W        W85296  21.244  34.542  14.951
23931W        W85297  20.763  44.863  13.826
23932W        W85298  21.115  32.104   2.185
23933W        W85299  11.672  40.413   0.753
23934W        W85300  21.166  23.148  14.425
23935W        W85301  16.788  13.186  11.593
23936W        W85302  14.749  22.075  10.610
23937W        W85303  29.925  23.092  10.940
23938W        W85304  25.214   8.822   0.965
23939W        W85305  24.557  32.065   1.321
23940W        W85306  14.142  42.863  14.872
23941W        W85307  42.793   9.394   2.322
23942W        W85308  16.744  36.848   4.119
23943W        W85309  35.520  35.939   3.339
23944W        W85310  28.533  22.661  13.866
23945W        W85311   6.409  12.266  12.361
23946W        W85312  44.887  38.432   3.149
23947W        W85313  43.485  40.504  10.463
23948W        W85314  29.644  16.131   2.710
23949W        W85315  40.973  18.562  12.557
23950W        W85316   7.353  14.256  12.907
23951W        W85317  13.738  34.407   0.310
23952W        W85318  25.620   2.926  13.872
23953W        W85319  43.859   5.286   3.727
23954W        W85320  20.207   6.865   4.600
23955W        W85321  18.073  10.730   1.279
23956W        W85322   0.801  11.818   9.954
23957W        W85323  26.697  43.897   1.400
23958W        W85324   4.379  22.179   4.783
23959W        W85325  11.755  35.011   3.205
23960W        W85326  41.955  27.611   4.176
23961W        W85327  42.391  30.018   0.959
23962W        W85328  27.128  17.165   0.848
23963W        W85329  37.421  17.270   0.753
23964W        W85330  25.588  25.099   2.815
23965W        W85331  43.792  16.157  14.444
23966W        W85332  10.681  19.653   2.311
23967W        W85333  35.489   3.439   2.413
23968W        W85334  37.574  32.549   0.478
23969W        W85335  38.893  44.856   0.824
23970W        W85336  19.104  30.419   0.444
23971W        W85337   3.955  16.731   1.378
23972W        W85338  16.284  21.256  10.621
23973W        W85339  29.973   9.255   1.230
23974W        W85340  11.710   2.318  12.017
23975W        W85341  32.033   7.338  11.942
23976W        W85342  42.972  42.975  13.899
23977W        W85343  32.565   9.738  13.062
23978W        W85344  24.660  11.372  11.575
23979W        W85345  34.404  22.586   0.469
23980W        W85346  15.219  25.154  10.935
23981W        W85347  35.404  39.388   5.222
23982W        W85348   4.241  22.524  11.387
23983W        W85349  19.597  20.247  12.528
23984W        W85350   1.306  30.930   0.439
23985W        W85351  40.473  42.783  13.491
23986W        W85352  34.014  33.002  10.912
23987W        W85353  43.435  13.759   4.331
23988W        W85354  29.110   4.282  14.759
23989W        W85355  28.090   5.812   4.275
23990W        W85356  16.115   1.884  14.306
23991W        W85357   9.661   8.243  12.972
23992W        W85358  24.099  40.353   2.282
23993W        W85359  17.742  13.223  13.838
23994W        W85360  26.057  41.488   0.957
23995W        W85361  42.411   7.219  13.315
23996W        W85362  31.445  30.061  11.125
23997W        W85363   7.341  20.241  14.925
23998W        W85364  34.402   7.730  14.972
23999W        W85365  25.098  19.633  13.320
24000W        W85366  30.120  21.755  13.419
24001W        W85367  40.348  31.488  11.896
24002W        W85368  12.706   4.938  10.463
24003W        W85369  26.099  15.270  12.370
24004W        W85370  19.157  28.080  11.982
24005W        W85371  16.111  27.002  10.433
24006W        W85372  11.867  18.591   4.313
24007W        W85373   7.199  39.446  10.616
24008W        W85374  24.547  31.053  12.049
24009W        W85375  37.400   4.223   2.304
24010W        W85376  10.187  35.917   5.119
24011W        W85377  19.219  14.600  10.067
24012W        W85378   5.259  19.187  10.629
24013W        W85379  26.987  32.575  13.507
24014W        W85380  20.261  11.217  10.605
24015W        W85381  40.878  42.876   0.940
24016W        W85382   2.340   0.492  14.965
24017W        W85383  16.762   5.787  13.900
24018W        W85384   0.435  41.313  13.985
24019W        W85385  26.170  21.725  11.588
24020W        W85386  37.351   4.254  14.449
24021W        W85387   5.781  17.132   4.752
24022W        W85388  27.947  27.509  13.504
24023W        W85389  42.319  35.870   3.729
24024W        W85390  39.816  21.134  11.937
24025W        W85391   9.644   4.380  12.059
24026W        W85392  30.161  30.057  12.963
24027W        W85393  31.431  22.580   3.672
24028W        W85394  19.562   0.758   4.279
24029W        W85395   7.215  11.151  13.518
24030W        W85396  39.509  31.108   1.268
24031W        W85397  10.698  43.016   2.400
24032W        W85398  16.744   4.406  11.472
24033W        W85399  33.515  24.108  12.555
24034W        W85400  44.839  38.518   4.146
24035W        W85401  40.877   8.710  12.508
24036W        W85402  10.849  33.393  14.765
24037W        W85403  18.068  10.870   3.655
24038W        W85404  22.177  14.336   4.292
24039W        W85405   6.364  27.077   4.702
24040W        W85406   2.416  44.441   2.855
24041W        W85407  42.347  19.756  11.521
24042W        W85408  18.564   3.339   3.698
24043W        W85409  41.833  16.200   3.229
24044W        W85410   3.258  34.933   4.189
24045W        W85411   3.283  12.649   0.822
24046W        W85412  17.143   3.438  10.904
24047W        W85413  39.921  22.106  14.820
24048W        W85414  22.599  39.515   3.868
24049W        W85415  35.444  15.809   2.414
24050W        W85416   3.282   2.444  13.521
24051W        W85417   1.880  25.982  12.571
24052W        W85418   3.736  21.660   2.380
24053W        W85419  34.085   8.235   0.949
24054W        W85420  26.581   5.425  12.560
24055W        W85421   6.395   6.253  10.119
24056W        W85422   3.323  40.523   2.249
24057W        W85423   0.908  21.093  14.830
24058W        W85424  16.225  18.637  11.488
24059W        W85425  42.008   0.747   2.745
24060W        W85426   0.878   5.288   4.158
24061W        W85427  10.304  35.886   3.215
24062W        W85428  28.658  31.463  12.516
24063W        W85429  28.652  40.319   3.660
24064W        W85430   6.287  36.527  12.469
24065W        W85431  16.184  20.716   2.335
24066W        W85432   0.412  15.821  14.292
24067W        W85433  36.356  20.640   0.307
24068W        W85434  34.452   7.737   4.727
24069W        W85435  12.349   6.365  11.397
24070W        W85436   6.835  33.933   1.408
24071W        W85437   1.897   5.253  12.877
24072W        W85438  12.823  43.372   0.390
24073W        W85439  33.542  36.974  13.036
24074W        W85440  37.532   1.249   2.759
24075W        W85441   5.793   9.670  14.884
24076W        W85442  29.476   5.229  12.887
24077W        W85443  18.104  40.500   2.276
24078W        W85444  15.805  14.690  10.520
24079W        W85445  32.091  13.161   1.333
24080W        W85446  31.482  31.109  12.991
24081W        W85447   5.807   4.875  13.867
24082W        W85448  39.349  13.604   1.344
24083W        W85449  35.990  33.940   0.761
24084W        W85450  21.675  43.856  12.418
24085W        W85451  28.481  21.580   3.323
24086W        W85452  25.122  27.042   5.308
24087W        W85453  18.219  27.653  12.874
24088W        W85454  18.764  17.195   0.959
24089W        W85455   9.738  42.833   2.662
24090W        W85456  12.763  15.780  13.959
24091W        W85457  10.655  38.339  11.479
24092W        W85458  16.141  29.511  11.557
24093W        W85459   4.440  18.250   4.323
24094W        W85460  42.001  21.031   3.779
24095W        W85461   7.912  11.700   1.409
24096W        W85462  28.605  34.992   3.204
24097W        W85463  24.631  41.804   1.754
24098W        W85464  26.618  40.927  12.431
24099W        W85465  20.620  17.223  11.934
24100W        W85466  27.582  32.130  13.840
24101W        W85467  14.589  27.545  10.949
24102W        W85468  15.590  16.233   3.799
24103W        W85469  11.357   2.947   1.902
24104W        W85470   0.428  28.068  12.062
24105W        W85471  39.813  40.480   0.426
24106W        W85472  44.854  24.230   3.836
24107W        W85473   6.396  22.094   4.317
24108W        W85474  29.003  35.971  13.855
24109W        W85475  25.472  27.022  12.976
24110W        W85476  24.107   4.773   1.705
24111W        W85477  28.155  23.203  11.973
24112W        W85478  16.567  39.938   0.411
24113W        W85479  44.319   6.871   2.866
24114W        W85480  38.406   6.364   0.260
24115W        W85481  12.131   7.730  13.307
24116W        W85482  19.535  16.144   3.371
24117W        W85483  32.499  34.892  12.010
24118W        W85484  16.703  30.034   1.904
24119W        W85485   2.961  31.499  12.861
24120W        W85486  30.162  41.038   0.904
24121W        W85487  33.105  23.011  10.514
24122W        W85488  16.100  13.198  11.410
24123W        W85489  28.179  14.642  11.962
24124W        W85490  23.001  42.011   2.739
24125W        W85491  30.012  29.095   0.316
24126W        W85492   9.178  32.003  14.865
24127W        W85493  32.427  34.493   4.808
24128W        W85494  30.031  43.339  13.996
24129W        W85495  24.208  27.024   4.193
24130W        W85496  18.270  34.447   4.116
24131W        W85497  13.332  23.214  12.876
24132W        W85498  37.882  15.100   1.422
24133W        W85499  27.168  36.549  13.524
24134W        W85500  38.925  16.780   2.766
24135W        W85501  40.387  35.596   3.671
24136W        W85502  31.926  12.678  14.324
24137W        W85503   9.161  29.060   3.707
24138W        W85504   6.843  37.349  11.432
24139W        W85505  17.262  33.043  11.018
24140W        W85506  29.663  31.100  12.964
24141W        W85507   5.802   1.897  12.573
24142W        W85508  42.375  34.519  13.420
24143W        W85509  28.600   5.256  10.987
24144W        W85510   9.886  32.615  14.478
24145W        W85511  30.079  14.315   3.793
24146W        W85512  21.678  26.472   2.668
24147W        W85513  32.047  13.210   2.843
24148W        W85514  31.534  29.596  11.392
24149W        W85515  33.078   2.253  10.635
24150W        W85516  41.870  36.487  12.972
24151W        W85517  14.733  41.911  13.541
24152W        W85518  14.176   1.440   2.707
24153W        W85519  43.327  40.855   1.330
24154W        W85520   1.949   9.752   4.144
24155W        W85521  10.787  30.466   1.327
24156W        W85522   4.879  28.509  14.770
24157W        W85523   9.792  15.248   2.870
24158W        W85524  23.524  31.453  10.473
24159W        W85525  26.496  14.708   4.138
24160W        W85526  19.197   2.247  12.041
24161W        W85527   5.726  28.601  10.637
24162W        W85528  18.611  27.158  14.424
24163W        W85529   3.948  16.162  14.921
24164W        W85530  14.276  43.939   3.800
24165W        W85531  37.416   9.204  11.428
24166W        W85532   6.797  24.019  11.085
24167W        W85533  39.041  26.499  10.948
24168W        W85534   2.454  20.610  10.441
24169W        W85535  16.726   1.925  12.358
24170W        W85536  42.980   9.685  11.406
24171W        W85537   5.932  32.540   4.838
24172W        W85538   2.379  21.204  13.417
24173W        W85539  43.775  28.152  14.344
24174W        W85540  14.646  22.053  13.495
24175W        W85541  13.750   4.318   2.837
24176W        W85542  40.961  43.857  11.869
24177W        W85543  18.737  11.676  12.378
24178W        W85544  37.490  42.024  11.062
24179W        W85545  14.683  18.237  12.577
24180W        W85546   7.235   1.392  10.610
24181W        W85547   9.301  28.140   2.685
24182W        W85548  37.917  24.619  13.887
24183W        W85549  24.212  21.741  13.995
24184W        W85550  39.538   9.670   3.164
24185W        W85551  40.315  22.561   3.684
24186W        W85552  40.811  13.247  11.598
24187W        W85553   2.282  42.825   2.738
24188W        W85554  25.090   2.246  10.425
24189W        W85555  10.265  38.021  11.939
24190W        W85556  40.382  25.174   2.213
24191W        W85557   0.771  21.095   3.793
24192W        W85558  36.882  41.374   5.754
24193W        W85559  31.418  16.213   1.360
24194W        W85560   6.722  16.783  14.955
24195W        W85561  37.558  40.320  14.823
24196W        W85562  37.857   7.836   1.277
24197W        W85563  35.421   1.838   0.918
24198W        W85564  17.240  27.486  14.401
24199W        W85565  12.188  27.977  14.480
24200W        W85566  30.048  21.568   0.952
24201W        W85567  30.032  24.075  11.490
24202W        W85568  31.407  35.071   3.295
24203W        W85569  44.315  26.173   3.339
24204W        W85570  28.939  30.961  11.447
24205W        W85571   2.837  44.867   1.323
24206W        W85572  29.579  24.001  11.608
24207W        W85573  43.344  35.437   0.937
24208W        W85574  12.678  38.992  11.552
24209W        W85575   4.894  29.161  13.510
24210W        W85576  30.966  41.788   0.323
24211W        W85577   6.906  38.064  11.393
24212W        W85578  25.512   1.399   2.711
24213W        W85579  15.145  25.075   3.651
24214W        W85580  30.434  44.268   4.781
24215W        W85581  39.888   9.708  10.628
24216W        W85582  40.983  22.107  13.006
24217W        W85583   6.361  41.489   3.186
24218W        W85584  26.564   9.386   1.265
24219W        W85585  14.172  20.129  13.048
24220W        W85586  24.549  32.622   2.902
24221W        W85587   4.722  15.788  11.461
24222W        W85588  25.167   3.445   2.798
24223W        W85589  24.103  14.323   2.745
24224W        W85590  40.519  20.558  11.058
24225W        W85591  44.332  37.427   4.712
24226W        W85592  30.921  10.170  10.092
24227W        W85593  39.863  22.238   4.617
24228W        W85594   5.726  14.183   1.418
24229W        W85595   5.876   2.433  13.515
24230W        W85596  25.540  36.485  12.505
24231W        W85597   8.193  35.089   4.131
24232W        W85598  37.037  36.861   3.638
24233W        W85599   8.323  28.027   0.765
24234W        W85600  22.997  33.500   1.899
24235W        W85601  14.217  29.571   3.786
24236W        W85602   6.840  37.355  13.327
24237W        W85603  43.881  44.272  13.312
24238W        W85604  22.109  37.551  10.895
24239W        W85605  24.686   3.319  14.967
24240W        W85606  27.981  14.721   0.342
24241W        W85607  21.075  13.674  12.532
24242W        W85608  37.520  30.624  11.441
24243W        W85609  27.527  42.475  10.607
24244W        W85610   0.917  12.776  14.881
24245W        W85611   3.876  44.318   3.675
24246W        W85612   7.907  37.898  11.446
24247W        W85613  14.221  41.483   0.893
24248W        W85614  10.284  38.558   0.415
24249W        W85615  35.451   1.260   3.707
24250W        W85616  21.032  26.051  11.956
24251W        W85617  39.022  40.362   1.904
24252W        W85618   7.305  32.942  13.903
24253W        W85619  10.358  31.547   2.223
24254W        W85620  19.742  28.152   5.274
24255W        W85621  10.340  11.708  11.518
24256W        W85622  27.077  22.191  11.971
24257W        W85623  21.227  29.135   0.904
24258W        W85624  27.975  20.177  11.883
24259W        W85625  28.004  17.710   2.778
24260W        W85626  23.713   3.885   0.289
24261W        W85627   0.830  17.272   3.675
24262W        W85628   3.451  29.520  12.841
24263W        W85629  23.696  27.657  13.026
24264W        W85630  29.522  25.691  10.629
24265W        W85631  42.886  41.320   1.707
24266W        W85632  19.780  20.142   3.748
24267W        W85633  44.830  14.659   3.670
24268W        W85634  43.275  30.450   2.380
24269W        W85635  44.855  15.770   1.392
24270W        W85636  32.586  34.013   3.261
24271W        W85637  26.102  15.288   3.213
24272W        W85638  27.557  16.682  14.318
24273W        W85639  16.278  22.683  13.423
24274W        W85640  34.608  33.003   1.388
24275W        W85641  12.629  14.148   1.722
24276W        W85642  35.870  27.165  10.478
24277W        W85643  44.413  12.215  11.384
24278W        W85644  30.595  43.928   2.282
24279W        W85645  40.320  24.992  13.324
24280W        W85646  34.892  15.652   0.894
24281W        W85647   0.325  30.504   4.346
24282W        W85648  13.310  29.444  13.431
24283W        W85649  42.809   3.878   4.327
24284W        W85650  43.997  44.448   1.896
24285W        W85651  30.003   4.434  10.457
24286W        W85652  17.564  42.374   3.237
24287W        W85653  26.125  33.118   0.464
24288W        W85654  10.653  31.102   2.796
24289W        W85655  14.710   3.424  11.412
24290W        W85656  30.652  16.747  11.480
24291W        W85657  30.594  32.545   1.867
24292W        W85658  12.144  39.881  12.086
24293W        W85659  19.649  42.339  10.547
24294W        W85660  13.276   8.185   2.281
24295W        W85661  17.152  43.971  11.046
24296W        W85662   7.280   5.376  13.819
24297W        W85663   8.182   4.424  14.488
24298W        W85664  13.283  35.490   1.916
24299W        W85665  34.059  17.734   2.731
24300W        W85666  21.659  13.281   0.783
24301W        W85667  35.368   2.959   0.287
24302W        W85668  27.190  11.219   2.309
24303W        W85669  42.843  33.590   2.198
24304W        W85670  33.112  22.704  10.420
24305W        W85671   1.894   6.717  14.797
24306W        W85672  29.441  11.813  11.910
24307W        W85673  34.942  31.070  14.509
24308W        W85674  24.981  32.039  11.094
24309W        W85675   2.931  44.799   3.843
24310W        W85676  42.389   9.653  11.912
24311W        W85677  42.937  17.284   1.832
24312W        W85678  20.665  11.858   2.232
24313W        W85679  13.601  26.076  11.612
24314W        W85680  20.028  38.011  11.013
24315W        W85681   5.334  15.179  14.493
24316W        W85682   1.970  28.082   2.309
24317W        W85683  43.989  12.636   2.857
24318W        W85684  21.733   8.838   0.347
24319W        W85685   9.772  14.662  11.967
24320W        W85686  44.299   4.333  14.344
24321W        W85687   2.850   2.837  13.865
24322W        W85688   0.274  16.081   4.709
24323W        W85689  44.971  39.981  13.022
24324W        W85690  13.176   3.280   0.843
24325W        W85691   4.753   5.281  14.900
24326W        W85692  38.009  34.402   2.294
24327W        W85693  44.315  10.664   1.756
24328W        W85694  15.648  20.144   2.666
24329W        W85695  37.351   6.418   1.867
24330W        W85696   2.884  11.755   4.719
24331W        W85697  29.667  41.814   0.414
24332W        W85698  20.565  43.395  14.912
24333W        W85699   1.367  43.469   0.743
24334W        W85700  26.989  23.519   0.747
24335W        W85701  19.179   6.678   4.813
24336W        W85702  20.205   4.738  13.328
24337W        W85703  17.602   1.872   3.748
24338W        W85704  41.797  41.319   3.696
24339W        W85705  18.188  31.561   2.311
24340W        W85706  43.448  17.667  10.921
24341W        W85707  32.512   7.743   2.883
24342W        W85708  38.941  41.787   3.688
24343W        W85709   8.216   9.296   4.122
24344W        W85710  22.547  23.103  10.550
24345W        W85711  32.577  24.002   2.735
24346W        W85712  11.295   7.908  13.062
24347W        W85713   1.896   8.344  13.315
24348W        W85714  32.595  14.715  11.583
24349W        W85715  24.529  34.010   2.724
24350W        W85716  23.118  20.711  12.407
24351W        W85717  43.014  18.082   4.614
24352W        W85718  24.206   1.460   3.174
24353W        W85719  19.696   3.409   4.159
24354W        W85720  35.056   9.234   0.926
24355W        W85721  22.150  16.774   4.140
24356W        W85722  15.163   5.840   0.273
24357W        W85723  39.945  44.373   0.429
24358W        W85724  32.563   7.389   4.684
24359W        W85725   7.268  43.340   2.419
24360W        W85726  44.767  35.408  12.490
24361W        W85727  39.459   0.424  13.474
24362W        W85728  34.925  32.130  13.391
24363W        W85729  28.107  39.556   4.637
24364W        W85730  18.574   9.664  12.913
24365W        W85731  29.514  13.671  12.032
24366W        W85732  31.993  21.558  12.095
24367W        W85733  19.272  24.632  14.909
24368W        W85734  20.613  28.641   2.277
24369W        W85735  36.880  28.475  12.373
24370W        W85736  29.597  16.206  11.083
24371W        W85737  29.518  20.036   0.273
24372W        W85738  18.235  23.517  13.475
24373W        W85739  27.047  13.137  14.294
24374W        W85740   3.748  35.488  13.409
24375W        W85741   6.740  20.655   4.256
24376W        W85742  11.190  15.225  14.407
24377W        W85743   1.351  36.956   3.312
24378W        W85744  14.733   3.939  14.961
24379W        W85745  22.715  26.648  13.850
24380W        W85746  35.892  38.443  14.761
24381W        W85747  30.525   6.867  10.511
24382W        W85748  22.563  34.937  11.972
24383W        W85749  13.780  25.592  11.972
24384W        W85750  20.758  44.931   3.282
24385W        W85751   9.696  20.163   1.698
24386W        W85752  18.709  33.433   2.322
24387W        W85753   9.245   1.827   2.342
24388W        W85754  25.712  22.997  10.581
24389W        W85755   9.883  36.946   2.392
24390W        W85756   3.935   3.436   2.734
24391W        W85757  18.087  11.137   0.946
24392W        W85758   8.896  27.677  11.504
24393W        W85759  40.340  43.460   0.794
24394W        W85760  28.089   1.386  14.311
24395W        W85761  28.558  29.550   2.750
24396W        W85762   8.226  38.332  12.463
24397W        W85763  18.181  24.047   3.681
24398W        W85764  24.177  25.049   0.835
24399W        W85765  14.247   1.418   0.948
24400W        W85766  34.950  44.328   3.867
24401W        W85767  41.022  12.674  11.088
24402W        W85768  27.629  40.054  13.495
24403W        W85769  28.055  26.043   1.381
24404W        W85770  44.840  36.931   0.900
24405W        W85771  39.508  13.307   3.225
24406W        W85772  30.025  43.005  13.008
24407W        W85773  15.328  14.331   3.792
24408W        W85774  18.561   9.819  11.982
24409W        W85775   3.361  28.029   3.823
24410W        W85776  40.514  26.471   5.206
24411W        W85777  12.621  40.943  14.785
24412W        W85778  43.778  28.076  13.055
24413W        W85779   9.353   1.402   4.649
24414W        W85780  17.182  12.309  14.936
24415W        W85781  42.857   3.297   0.944
24416W        W85782  13.137  13.219   3.305
24417W        W85783   2.229  24.986   2.752
24418W        W85784  13.190  36.952  12.369
24419W        W85785  37.527  19.173  11.980
24420W        W85786  24.479  11.686  13.955
24421W        W85787  31.136   1.264  12.433
24422W        W85788  41.402  23.099  13.483
24423W        W85789  30.111  19.271   3.695
24424W        W85790  37.889  29.454   2.207
24425W        W85791  31.532  22.730   4.836
24426W        W85792  30.099   6.910  11.472
24427W        W85793   8.802  43.352   2.830
24428W        W85794   2.252  39.036  11.479
24429W        W85795  27.537   1.851   0.267
24430W        W85796  25.187  39.934   0.437
24431W        W85797   6.241  29.171  12.430
24432W        W85798  16.571  41.525   0.892
24433W        W85799  40.840  44.874  11.491
24434W        W85800  39.862  44.290   4.619
24435W        W85801  25.520  36.418   4.771
24436W        W85802   3.358  15.221  10.921
24437W        W85803  12.278  42.314  10.905
24438W        W85804   5.859  34.584   4.790
24439W        W85805  16.133  41.844   4.673
24440W        W85806   8.669  30.506   3.291
24441W        W85807  41.443  23.203  12.091
24442W        W85808  12.840  10.855  10.929
24443W        W85809  33.108  11.844  11.474
24444W        W85810  25.184   8.313   2.709
24445W        W85811  38.353  15.640  14.786
24446W        W85812   3.879  29.535  14.500
24447W        W85813  28.626  28.976   3.277
24448W        W85814  43.378  35.586   2.710
24449W        W85815   8.312  32.896   2.235
24450W        W85816  28.083   5.302   3.805
24451W        W85817  37.449   2.825  14.477
24452W        W85818  20.037  38.875   1.249
24453W        W85819   0.790  11.694   4.248
24454W        W85820  39.314  35.021  12.365
24455W        W85821  21.038  16.620   3.850
24456W        W85822   8.343  23.082   2.281
24457W        W85823  17.683  12.211   4.704
24458W        W85824   2.737  34.031  11.931
24459W        W85825  12.335  38.337  13.499
24460W        W85826  20.537  23.625   1.420
24461W        W85827  26.047   4.405  14.893
24462W        W85828  17.697  34.479   2.229
24463W        W85829  22.671  18.695   3.167
24464W        W85830  14.637  27.131   3.329
24465W        W85831   4.829   8.348  14.019
24466W        W85832  22.719  15.121  12.530
24467W        W85833  13.613  32.568  14.470
24468W        W85834   5.280  13.709   4.207
24469W        W85835   1.478  16.624  10.989
24470W        W85836  27.515  16.116  14.932
24471W        W85837  29.427   5.698   2.377
24472W        W85838  26.019  13.148  10.941
24473W        W85839   5.360  33.130   2.290
24474W        W85840   7.785  32.485  11.109
24475W        W85841  23.666  10.670   3.813
24476W        W85842  28.656  43.784  14.003
24477W        W85843  17.626  36.007  13.046
24478W        W85844  15.623  41.887  13.418
24479W        W85845  39.011   4.753   2.851
24480W        W85846  36.928  30.454  11.577
24481W        W85847   7.416  30.472  10.949
24482W        W85848  43.939  33.463  13.539
24483W        W85849  39.430  43.376  13.014
24484W        W85850  25.076   6.361  13.974
24485W        W85851  30.989   3.875  10.511
24486W        W85852  33.988  28.624   4.766
24487W        W85853  42.328  35.484  12.064
24488W        W85854  12.665  42.517   3.202
24489W        W85855  34.590   7.879   3.215
24490W        W85856  31.934  12.738  13.499
24491W        W85857   0.396  41.334  12.476
24492W        W85858   3.761  27.112  11.480
24493W        W85859   7.391   5.829  11.126
24494W        W85860  15.298  37.055  11.063
24495W        W85861  23.125  41.908   1.835
24496W        W85862  14.115   6.330   0.780
24497W        W85863   7.844  31.920   1.373
24498W        W85864  15.151  32.393  14.011
24499W        W85865   5.358  32.139  12.826
24500W        W85866  41.016   8.829  10.589
24501W        W85867  33.473  30.594   3.821
24502W        W85868   7.746  17.582   1.395
24503W        W85869   0.487  23.690   3.863
24504W        W85870  33.523  37.067  10.430
24505W        W85871  27.568  16.307  10.617
24506W        W85872  44.877  19.077  12.560
24507W        W85873  22.726  10.191   1.923
24508W        W85874  32.558  19.098  14.380
24509W        W85875   5.690  44.407  13.052
24510W        W85876  41.876  22.076   2.677
24511W        W85877  37.522  29.099  13.803
24512W        W85878  44.335   2.409   4.299
24513W        W85879  23.190  27.116   0.726
24514W        W85880  30.417  33.613   2.197
24515W        W85881  37.935  17.694   4.321
24516W        W85882  24.114   6.921   1.744
24517W        W85883  44.999   5.709  13.345
24518W        W85884   0.349  13.664   0.963
24519W        W85885  17.248  20.524   3.853
24520W        W85886   2.937  40.357  11.512
24521W        W85887   2.749  17.571   4.286
24522W        W85888  17.672  31.437   4.160
24523W        W85889   2.327   8.869  13.388
24524W        W85890  39.055  15.155   1.271
24525W        W85891  13.224  12.161  11.596
24526W        W85892  38.914  17.202   5.299
24527W        W85893  30.414  40.867  10.953
24528W        W85894  35.599  27.159  11.083
24529W        W85895   2.458  39.988   0.247
24530W        W85896   2.439  33.886  10.977
24531W        W85897  10.182  25.636  11.537
24532W        W85898  40.371   0.802  14.291
24533W        W85899  26.508  27.551  10.535
24534W        W85900  38.348  13.114   1.715
24535W        W85901  11.817   3.458   2.204
24536W        W85902  28.490   1.739   4.675
24537W        W85903  44.264  34.506   0.328
24538W        W85904  31.529  18.769  13.508
24539W        W85905  18.069  31.980   5.114
24540W        W85906  36.410  44.855  10.476
24541W        W85907   6.397  33.030  12.390
24542W        W85908  20.755  16.197   0.345
24543W        W85909  43.916   7.299   1.775
24544W        W85910  43.771  34.924   2.856
24545W        W85911  16.133  16.664  10.631
24546W        W85912   3.856  15.181   9.579
24547W        W85913   1.336  36.026  12.346
24548W        W85914   6.411  15.163   0.849
24549W        W85915  13.215   2.370  10.416
24550W        W85916  27.959  31.937   1.260
24551W        W85917   4.416  13.826   1.695
24552W        W85918  20.187  37.553   9.942
24553W        W85919   8.715  40.892  10.922
24554W        W85920  34.037  34.998   2.262
24555W        W85921   3.276  36.455  14.821
24556W        W85922  43.437  29.121  13.015
24557W        W85923  13.788  41.478  14.800
24558W        W85924  22.527  16.662   4.823
24559W        W85925  36.909  18.599   2.343
24560W        W85926   1.397  27.089   9.454
24561W        W85927   5.889  20.222  11.016
24562W        W85928  37.510  42.867  12.085
24563W        W85929   9.849  43.299  10.505
24564W        W85930  18.106  31.537   3.346
24565W        W85931  38.414  40.941   3.751
24566W        W85932   1.751  39.367   2.785
24567W        W85933  37.422  39.026   1.825
24568W        W85934  26.200   2.471  10.958
24569W        W85935  24.189  15.122   4.255
24570W        W85936  10.384   2.869   0.806
24571W        W85937   8.336  32.479   4.306
24572W        W85938  20.050  41.361  14.880
24573W        W85939  41.318  26.608   2.240
24574W        W85940  34.021  34.866   0.419
24575W        W85941   0.822  30.643  12.869
24576W        W85942  12.854  30.537   2.823
24577W        W85943  38.397  39.846   2.782
24578W        W85944  14.830   8.897   0.419
24579W        W85945  14.261  26.690   3.151
24580W        W85946   5.934   4.718   2.181
24581W        W85947  37.849   8.845   3.214
24582W        W85948  33.904  17.745   1.825
24583W        W85949  17.061  44.379   1.277
24584W        W85950  23.015   6.331  14.298
24585W        W85951  12.620  42.298   0.406
24586W        W85952  30.020  29.090  12.577
24587W        W85953  19.697   6.342  13.859
24588W        W85954  21.079  21.027  13.037
24589W        W85955  11.249   1.873  10.635
24590W        W85956  24.173  12.648  12.948
24591W        W85957   7.349  19.700   2.776
24592W        W85958   9.740  38.889   4.178
24593W        W85959   7.203   0.376  11.461
24594W        W85960  25.155  14.706  12.483
24595W        W85961  20.205  41.373   4.782
24596W        W85962  24.201  18.176   2.211
24597W        W85963   8.355  14.105   4.241
24598W        W85964  35.951   0.931  11.437
24599W        W85965  24.542  40.526   3.179
24600W        W85966  18.073  43.436   0.808
24601W        W85967  35.053  35.419  11.392
24602W        W85968  39.033  29.466  12.845
24603W        W85969   3.461  21.688   2.417
24604W        W85970  26.161  22.503   2.893
24605W        W85971   8.192  40.016   1.212
24606W        W85972  27.582  10.836  11.511
24607W        W85973  27.562  36.878   1.820
24608W        W85974   6.733  32.573  12.525
24609W        W85975  36.881   0.950  14.934
24610W        W85976  44.425  30.562   4.670
24611W        W85977  21.522   7.363  11.883
24612W        W85978  43.350  30.649  11.557
24613W        W85979  41.971   7.284   0.280
24614W        W85980  21.647  13.757  13.884
24615W        W85981  35.497  29.171   1.773
24616W        W85982  12.348   9.365   0.965
24617W        W85983  23.722  24.124   4.298
24618W        W85984  20.713   3.351  10.002
24619W        W85985  43.854  25.596  11.888
24620W        W85986   3.307  15.597   4.772
24621W        W85987  23.620  28.642  14.457
24622W        W85988   7.671  42.002   2.351
24623W        W85989   0.974  36.943  10.429
24624W        W85990  22.200  26.964   2.319
24625W        W85991  34.394   4.808  14.282
24626W        W85992  36.077  23.585   0.846
24627W        W85993  20.618   9.164   0.938
24628W        W85994  19.132  40.380  13.967
24629W        W85995  35.948  38.346   0.893
24630W        W85996   7.332  18.591  10.522
24631W        W85997  17.073   8.279   2.815
24632W        W85998  17.065   7.770   4.823
24633W        W85999  37.381  33.071   0.838
24634W        W86000  44.363   3.301  13.993
24635W        W86001  39.498  28.637  12.009
24636W        W86002   3.820  26.021   2.800
24637W        W86003   8.663  16.251  13.389
24638W        W86004  32.611   8.171  13.841
24639W        W86005   8.330   9.799   0.794
24640W        W86006  22.202   6.398  12.070
24641W        W86007  32.457  25.999  11.394
24642W        W86008  11.769  10.175   3.181
24643W        W86009  44.504  32.004  13.515
24644W        W86010  38.864  11.370  10.958
24645W        W86011  40.447  18.159   4.352
24646W        W86012  21.163   9.183  11.532
24647W        W86013  16.807  38.504   0.249
24648W        W86014  32.411  39.884   4.643
24649W        W86015  27.470  29.519   1.863
24650W        W86016  31.925  33.116   4.209
24651W        W86017  33.591  18.228  11.970
24652W        W86018  31.897   7.410  14.376
24653W        W86019  13.833  10.861   3.327
24654W        W86020  43.968   8.290  11.900
24655W        W86021  37.958   1.354   3.708
24656W        W86022  37.545  31.123  11.977
24657W        W86023  15.740  24.024   3.823
24658W        W86024  12.247  43.815   4.197
24659W        W86025   3.250  21.024   9.979
24660W        W86026   3.314  16.213  10.144
24661W        W86027  18.183  41.958   1.739
24662W        W86028  30.628  43.807   0.883
24663W        W86029  33.027   3.225  14.771
24664W        W86030  33.020  13.802  11.539
24665W        W86031  11.821  11.852   3.353
24666W        W86032  24.698  19.051   1.239
24667W        W86033  31.619  42.924  12.911
24668W        W86034  16.764  34.062   1.306
24669W        W86035  16.159  19.213   1.303
24670W        W86036  41.485  22.709   4.319
24671W        W86037  12.774  21.574  11.487
24672W        W86038  10.263  23.043  10.975
24673W        W86039  20.594  40.465   4.340
24674W        W86040  24.079  42.299   1.405
24675W        W86041  44.007  22.103   4.155
24676W        W86042  16.613  14.124  14.382
24677W        W86043  21.651  37.477  10.982
24678W        W86044  32.043  41.941   0.421
24679W        W86045  40.873  14.210   3.733
24680W        W86046  10.816   3.885   2.842
24681W        W86047  38.036   5.225  10.531
24682W        W86048  13.296  21.106   1.752
24683W        W86049  10.863  39.959   3.711
24684W        W86050   9.381  20.142   4.197
24685W        W86051  44.838   7.303  13.924
24686W        W86052  12.283   6.836  12.388
24687W        W86053  23.147   3.264  11.962
24688W        W86054  12.805   0.772   2.902
24689W        W86055  23.714  10.322   4.319
24690W        W86056  19.582  44.470  13.899
24691W        W86057  13.630   3.399   4.312
24692W        W86058  42.492  27.156  13.998
24693W        W86059  42.425   9.727  14.813
24694W        W86060  16.574  32.587  14.428
24695W        W86061   1.735   3.256   0.884
24696W        W86062  35.517  24.055   1.908
24697W        W86063  36.986  10.225  12.350
24698W        W86064  42.894  23.104   2.687
24699W        W86065  12.174  35.422  13.541
24700W        W86066  13.727  40.313   1.415
24701W        W86067  30.572  28.031   1.865
24702W        W86068  27.461  34.492   3.770
24703W        W86069  20.251  38.502  10.530
24704W        W86070  20.077  24.073   4.238
24705W        W86071  35.045   3.233  13.056
24706W        W86072   2.857  30.983   2.388
24707W        W86073  13.792  19.154   3.731
24708W        W86074  33.399  35.977  14.858
24709W        W86075   1.780  35.358   3.255
24710W        W86076  19.550  41.006  13.312
24711W        W86077  13.246  16.733   2.347
24712W        W86078  19.659  42.968   1.782
24713W        W86079  17.759  31.408   2.882
24714W        W86080   5.739  11.264   0.909
24715W        W86081   5.922   1.285  10.003
24716W        W86082  35.978  44.793  12.487
24717W        W86083  21.119  10.350   1.703
24718W        W86084   3.453   2.328  12.827
24719W        W86085  19.724   9.653  14.433
24720W        W86086  34.932   8.685  12.935
24721W        W86087   3.330  30.466  13.419
24722W        W86088  30.443  29.527  12.559
24723W        W86089  41.996   0.486  10.582
24724W        W86090  31.568  10.752  10.559
24725W        W86091  38.979  44.763  12.999
24726W        W86092   4.907   8.304  10.944
24727W        W86093  21.739  25.000   3.740
24728W        W86094  26.671  10.245  11.006
24729W        W86095  37.886  11.654   3.796
24730W        W86096  24.121  10.670  12.913
24731W        W86097  18.204   2.878  12.074
24732W        W86098  42.996   9.756   3.808
24733W        W86099  44.461  10.215  10.102
24734W        W86100   4.835  20.106  14.465
24735W        W86101  25.559  15.820  14.340
24736W        W86102  42.792  23.033   1.779
24737W        W86103  25.601   1.265  10.945
24738W        W86104  34.511  41.474  12.035
24739W        W86105   6.859  14.335  13.029
24740W        W86106  39.854  34.099   3.190
24741W        W86107   7.338  42.873  12.990
24742W        W86108  16.169  41.399   0.342
24743W        W86109  25.692  19.155   2.328
24744W        W86110   1.812  40.815   4.683
24745W        W86111  10.818  44.444  10.590
24746W        W86112  17.784   2.898  14.512
24747W        W86113  30.429  22.671  11.881
24748W        W86114  21.523  34.563   4.633
24749W        W86115  34.397  23.732  13.938
24750W        W86116  34.078  31.975  13.397
24751W        W86117   9.296  26.483  10.603
24752W        W86118   6.767  14.127   1.696
24753W        W86119   3.780   5.233  11.044
24754W        W86120  41.531  41.320   3.811
24755W        W86121  10.159   7.408  10.631
24756W        W86122  31.990   5.377  11.120
24757W        W86123  41.025   9.858   4.216
24758W        W86124  34.530   4.416   3.866
24759W        W86125  36.434  15.701   4.157
24760W        W86126   7.678  22.212   1.288
24761W        W86127  35.950  16.764   0.286
24762W        W86128  18.240  39.322   2.407
24763W        W86129  22.618   5.296   2.825
24764W        W86130  35.902  22.651   2.335
24765W        W86131  29.077  32.599   4.286
24766W        W86132   4.794  31.511  10.985
24767W        W86133  44.838  37.355  10.419
24768W        W86134  12.667  14.744  14.005
24769W        W86135  40.867   0.864   3.766
24770W        W86136  29.010  27.519  12.021
24771W        W86137  22.531  19.674   5.162
24772W        W86138  42.375  11.703  14.993
24773W        W86139  44.954  21.207  11.950
24774W        W86140  20.717  29.949  13.970
24775W        W86141  22.184  23.559  12.931
24776W        W86142  44.449  33.966  11.890
24777W        W86143  14.169  11.373   4.639
24778W        W86144  22.048  33.991   2.388
24779W        W86145   0.987  24.720  10.576
24780W        W86146  27.636  10.839  13.925
24781W        W86147   6.233  18.081  12.018
24782W        W86148  16.215  24.098  10.498
24783W        W86149   2.275  20.630   4.164
24784W        W86150   1.801  27.631   0.845
24785W        W86151  31.616  40.028  13.054
24786W        W86152  15.705   5.797   2.808
24787W        W86153   7.319  27.186  13.798
24788W        W86154  21.616  14.285   0.951
24789W        W86155  17.595  11.739  12.468
24790W        W86156  31.435  11.858  11.561
24791W        W86157  31.130  27.454  12.913
24792W        W86158  44.455  22.718  14.778
24793W        W86159  44.884  19.775   2.227
24794W        W86160  39.950   2.278   1.353
24795W        W86161  32.140  16.783   3.217
24796W        W86162  30.084  38.499  14.958
24797W        W86163  43.982  38.405  14.017
24798W        W86164   5.791  13.338  14.936
24799W        W86165  28.160  13.258   1.805
24800W        W86166  44.480  13.268   4.648
24801W        W86167  13.273  44.999   3.258
24802W        W86168  18.276  37.413   0.905
24803W        W86169  31.628  40.508  11.562
24804W        W86170  14.762  32.528  11.551
24805W        W86171   9.771  12.125  11.457
24806W        W86172  21.238  29.052  14.349
24807W        W86173  20.591   7.222  12.492
24808W        W86174  30.104   9.232  10.472
24809W        W86175  41.318  24.487   3.146
24810W        W86176  19.776  12.847  11.054
24811W        W86177  42.844   7.850   3.219
24812W        W86178  28.629  17.648   4.821
24813W        W86179  23.990  21.049   4.668
24814W        W86180  19.142  30.161   1.440
24815W        W86181  19.771  29.653   4.823
24816W        W86182   8.694  39.414  14.977
24817W        W86183  40.934  40.849   1.258
24818W        W86184  44.432  22.200  14.996
24819W        W86185  26.604  23.053   2.877
24820W        W86186   7.672  32.125   5.201
24821W        W86187  29.447  30.997  13.871
24822W        W86188  10.850  21.533  10.413
24823W        W86189  25.004  30.027  11.956
24824W        W86190  29.156  40.812   0.944
24825W        W86191  39.940  33.883   4.314
24826W        W86192  30.653  21.262  12.883
24827W        W86193  39.044  19.099  13.426
24828W        W86194  22.198  31.443   9.462
24829W        W86195  42.344  10.741   4.632
24830W        W86196  31.915  12.164  12.374
24831W        W86197  32.023  17.779   4.138
24832W        W86198  14.778   9.228   3.769
24833W        W86199  42.351  35.487   2.683
24834W        W86200   5.793  28.489  12.882
24835W        W86201  29.517  29.938  14.925
24836W        W86202  29.608  17.732  14.966
24837W        W86203  36.917  10.710   4.815
24838W        W86204  28.490  12.787   3.731
24839W        W86205  44.355  12.632   2.814
24840W        W86206   0.758  35.890  12.988
24841W        W86207  43.909   6.679   3.221
24842W        W86208  27.032  22.025   0.469
24843W        W86209  33.599  34.558   1.401
24844W        W86210   5.813  37.004   0.802
24845W        W86211  22.650  24.678   3.758
24846W        W86212  20.647  18.193   0.890
24847W        W86213   4.731   5.319   4.739
24848W        W86214  13.601  23.523  11.093
24849W        W86215  36.854  26.203   2.874
24850W        W86216  24.186  32.928  10.486
24851W        W86217  28.947  33.969   2.899
24852W        W86218   1.423  43.809   1.319
24853W        W86219  13.309  10.649   1.797
24854W        W86220  33.128  29.157   2.350
24855W        W86221  16.795  28.506  14.926
24856W        W86222   4.726  12.153   2.233
24857W        W86223   6.400   1.237   2.829
24858W        W86224  40.386   2.394   0.266
24859W        W86225  20.693  41.841   4.227
24860W        W86226  37.516  34.567  14.473
24861W        W86227  21.735  10.366   0.861
24862W        W86228  42.854  34.079  10.976
24863W        W86229  42.986  27.527  12.832
24864W        W86230  33.576  24.010   4.699
24865W        W86231  40.976  16.753  12.448
24866W        W86232  29.940  27.985   4.837
24867W        W86233  29.127  21.078   0.764
24868W        W86234   9.643   1.434  11.918
24869W        W86235  14.178  36.040   9.990
24870W        W86236  25.125   9.371  10.621
24871W        W86237  20.722  11.141  10.903
24872W        W86238   0.450   4.873   3.174
24873W        W86239  43.281  13.187   4.679
24874W        W86240  30.613  24.050   4.163
24875W        W86241  35.001  40.806   3.206
24876W        W86242   2.410  14.764  12.855
24877W        W86243  40.879  41.959  13.945
24878W        W86244  18.722   0.450  10.423
24879W        W86245  35.992  10.346  14.913
24880W        W86246  33.018   1.359  11.527
24881W        W86247  10.877  34.002   2.755
24882W        W86248   8.400   5.281   0.338
24883W        W86249  40.013   9.701   1.721
24884W        W86250   1.309   5.790  12.968
24885W        W86251  32.623   1.476   4.663
24886W        W86252  23.614   6.297  10.107
24887W        W86253   3.417  39.533  14.836
24888W        W86254  12.707  14.717   2.882
24889W        W86255  42.432  28.025   0.837
24890W        W86256  26.685  14.126  12.844
24891W        W86257  13.678  19.057   1.227
24892W        W86258   3.893   7.192   5.196
24893W        W86259  12.147  26.041  10.621
24894W        W86260   2.368  25.081  10.517
24895W        W86261  12.615  41.361  14.469
24896W        W86262  37.450  11.627  11.080
24897W        W86263  23.200  30.654   1.383
24898W        W86264  14.148  17.061  12.838
24899W        W86265  32.903  31.626   3.791
24900W        W86266  24.074  14.683  13.339
24901W        W86267  27.019   1.834  12.481
24902W        W86268  29.592  16.636   3.642
24903W        W86269  32.551  39.393  14.977
24904W        W86270  22.511  36.465   4.206
24905W        W86271  21.078   7.713  11.442
24906W        W86272  44.888  37.559  14.347
24907W        W86273  20.261   2.414  11.052
24908W        W86274  34.392  38.035  10.024
24909W        W86275  37.508  31.540   2.264
24910W        W86276   0.469   2.860  13.047
24911W        W86277   3.291  39.842   4.129
24912W        W86278  42.834   6.252  11.432
24913W        W86279  26.679   4.363   2.699
24914W        W86280  19.171  32.484  12.014
24915W        W86281  36.482  24.562   2.770
24916W        W86282  34.907  18.571   0.386
24917W        W86283  16.235  23.137  11.917
24918W        W86284  28.147  25.016   2.202
24919W        W86285   5.758   1.255  12.964
24920W        W86286  17.281  11.186  12.564
24921W        W86287  27.488  27.539  14.935
24922W        W86288  27.088   4.877  11.972
24923W        W86289  14.767  16.282  12.530
24924W        W86290   8.881   6.706  12.848
24925W        W86291  31.604   7.675  13.963
24926W        W86292  11.795   9.173   3.819
24927W        W86293  43.362  42.967   3.188
24928W        W86294  17.755  11.274   0.258
24929W        W86295  44.266  29.942   0.742
24930W        W86296  12.853   8.255   4.819
24931W        W86297  42.911  36.396   4.746
24932W        W86298   6.777  17.748   2.849
24933W        W86299   3.292   1.334   0.436
24934W        W86300  42.299   9.313  13.801
24935W        W86301   6.907  30.145   4.118
24936W        W86302  41.373  39.821   2.275
24937W        W86303  31.574  40.921   0.459
24938W        W86304  28.570   4.827  12.936
24939W        W86305  44.971  19.258  14.320
24940W        W86306  10.823  43.404  10.427
24941W        W86307  26.157  18.600  13.435
24942W        W86308  25.504  26.467  11.537
24943W        W86309  30.965  18.710  12.855
24944W        W86310  16.645  33.117   2.214
24945W        W86311  11.347  17.704  14.933
24946W        W86312  44.383  28.092  12.540
24947W        W86313  11.729  12.258   4.653
24948W        W86314  21.724  44.875   0.266
24949W        W86315  24.496  34.014   4.275
24950W        W86316  41.346  15.222  10.957
24951W        W86317  10.307  38.046  10.889
24952W        W86318  12.183  23.222   0.864
24953W        W86319   9.204  17.136   4.217
24954W        W86320  23.220   2.808   2.808
24955W        W86321  16.163   6.379   3.305
24956W        W86322  29.428  39.327   1.215
24957W        W86323  38.505  41.491   0.401
24958W        W86324  41.355  19.658   2.347
24959W        W86325  11.163   8.169  13.956
24960W        W86326  38.325  18.721  14.851
24961W        W86327  44.801  32.634   1.217
24962W        W86328  12.249  20.127  10.904
24963W        W86329  24.024  12.337  14.897
24964W        W86330   8.831  30.560   0.440
24965W        W86331  14.178  15.775  14.434
24966W        W86332  44.380  10.648  13.372
24967W        W86333   0.933  27.116  10.148
24968W        W86334   6.848   4.335   0.890
24969W        W86335  32.140  32.925  10.045
24970W        W86336   8.160   5.210  14.300
24971W        W86337   9.845   1.781  10.559
24972W        W86338  36.509  27.138  13.896
24973W        W86339  26.551  21.107   0.809
24974W        W86340  21.175  21.232  14.369
24975W        W86341  29.035  40.389  13.370
24976W        W86342   9.869   6.687   1.367
24977W        W86343  27.161  22.508   3.846
24978W        W86344  27.688   1.363   3.667
24979W        W86345  20.176  15.683  12.578
24980W        W86346  20.084   3.335  11.960
24981W        W86347  41.041  12.762   4.143
24982W        W86348  20.665  37.484   0.911
24983W        W86349   9.354  28.498   0.244
24984W        W86350  18.576  36.098  11.885
24985W        W86351  10.301  44.901   0.940
24986W        W86352  35.445  40.465  13.434
24987W        W86353  26.156  11.744  11.987
24988W        W86354   0.839  41.462   0.853
24989W        W86355   7.193  15.727   0.884
24990W        W86356  33.050   8.256  10.453
24991W        W86357  20.738  40.968  12.522
24992W        W86358  28.454  26.065   0.453
24993W        W86359  21.610  13.843   4.224
24994W        W86360  30.106  11.778   4.353
24995W        W86361  15.223  26.015   1.862
24996W        W86362  33.110  36.924   2.252
24997W        W86363   9.645  33.062   2.827
24998W        W86364   4.215  27.942   3.635
24999W        W86365  11.656  31.591  14.450
25000W        W86366  27.620   0.878  14.479
25001W        W86367  35.049  36.884   2.849
25002W        W86368  44.397  22.050   0.860
25003W        W86369  21.043  31.153   4.762
25004W        W86370  43.475  35.975   4.136
25005W        W86371  20.688  11.269   0.967
25006W        W86372   7.208  24.159  13.822
25007W        W86373  27.122  38.986   0.775
25008W        W86374   6.426  25.069  14.866
25009W        W86375  14.306   6.853   3.157
25010W        W86376  26.184  35.939  13.045
25011W        W86377  15.320   7.255   2.844
25012W        W86378  17.673  18.184  10.429
25013W        W86379  35.392  15.756  10.019
25014W        W86380  43.904  19.672   2.696
25015W        W86381  15.703   8.198   0.353
25016W        W86382  38.485  26.161  14.323
25017W        W86383  30.472  14.286   5.258
25018W        W86384  13.822  24.216   1.407
25019W        W86385   1.259   6.916  10.918
25020W        W86386  30.163   0.260   2.407
25021W        W86387  34.994  37.545   9.977
25022W        W86388  28.490  18.207  10.966
25023W        W86389  18.197   3.940   4.139
25024W        W86390  43.816  34.927  13.415
25025W        W86391  24.994  42.029   1.908
25026W        W86392  20.631  27.156   1.271
25027W        W86393  39.033   8.162   0.902
25028W        W86394  22.530  11.783  10.905
25029W        W86395   4.407  11.785   0.749
25030W        W86396  29.986  39.380   2.753
25031W        W86397  12.288   0.935   2.725
25032W        W86398  21.038  18.253  12.553
25033W        W86399  40.807   1.429   2.736
25034W        W86400  17.677  41.534   4.752
25035W        W86401  21.569   1.426  13.010
25036W        W86402  18.167   2.379  11.121
25037W        W86403  15.792  12.185   2.386
25038W        W86404  43.371  14.204   3.235
25039W        W86405  30.649   8.724  14.958
25040W        W86406  44.956   0.442   0.255
25041W        W86407  18.777  14.830  12.069
25042W        W86408   3.452  24.513   1.238
25043W        W86409  31.015  34.883  14.799
25044W        W86410  33.465  12.352  13.022
25045W        W86411  41.828   0.986  13.379
25046W        W86412  10.228  33.615   0.776
25047W        W86413   1.460   2.457   4.826
25048W        W86414  10.800  22.021  13.491
25049W        W86415  17.270  32.551  10.029
25050W        W86416  41.462  15.621   2.818
25051W        W86417  41.391  36.480   4.254
25052W        W86418   3.805  42.897  14.888
25053W        W86419  34.101  22.647  10.956
25054W        W86420   2.837   6.905  14.346
25055W        W86421  31.468  36.361  10.491
25056W        W86422  30.107  40.835  10.529
25057W        W86423  29.056  18.253  11.386
25058W        W86424  26.169   2.403  12.929
25059W        W86425  10.685  44.364  13.523
25060W        W86426  33.509   9.756   2.733
25061W        W86427  36.948  31.042   1.364
25062W        W86428  34.483  38.822  13.488
25063W        W86429  32.605  21.516   3.373
25064W        W86430  44.468  38.010  11.876
25065W        W86431   9.203  33.051  11.418
25066W        W86432  27.061  26.698  12.468
25067W        W86433  24.146   8.776   3.332
25068W        W86434  13.260  36.093   5.169
25069W        W86435  15.757  24.042  11.445
25070W        W86436   9.288   5.385   5.583
25071W        W86437  37.041  11.366  13.009
25072W        W86438  43.507   9.283  14.771
25073W        W86439  18.100  27.564   1.884
25074W        W86440  22.558   0.492  13.826
25075W        W86441  41.395  16.581   0.434
25076W        W86442  42.467  27.498   0.450
25077W        W86443  31.130  10.155   0.262
25078W        W86444   5.728  22.061  14.012
25079W        W86445  34.928  43.331  10.099
25080W        W86446  34.105  34.489   4.310
25081W        W86447  17.244  14.205   5.791
25082W        W86448   7.860  41.320   1.770
25083W        W86449   0.768  37.367  14.374
25084W        W86450  25.124  43.908   1.834
25085W        W86451  42.396  14.328  10.919
25086W        W86452  42.897  16.140   3.732
25087W        W86453   7.380   7.268   3.816
25088W        W86454   8.805  19.604   0.951
25089W        W86455  23.536  22.614  12.905
25090W        W86456   9.826  31.639  13.309
25091W        W86457  43.932  18.585   1.886
25092W        W86458  26.574  43.980   4.176
25093W        W86459  43.346  18.634   4.198
25094W        W86460  41.941  38.023   3.194
25095W        W86461  23.155  11.833  11.517
25096W        W86462   5.235   6.843  10.951
25097W        W86463  20.095  18.642   1.297
25098W        W86464   6.353  35.474   1.807
25099W        W86465  38.857   2.393  10.138
25100W        W86466  37.535  35.426  11.580
25101W        W86467   4.780  24.082  14.769
25102W        W86468   7.309  31.968   1.897
25103W        W86469  44.346  36.470  11.418
25104W        W86470  20.178  28.673  13.515
25105W        W86471  23.085   7.820   4.667
25106W        W86472   9.706   8.838  13.391
25107W        W86473   6.805  35.880   3.279
25108W        W86474  22.185  41.977   2.351
25109W        W86475  40.810  33.410   4.767
25110W        W86476  32.417  11.309  13.497
25111W        W86477  44.388  37.391   0.446
25112W        W86478  39.987   1.250   0.260
25113W        W86479  19.638  36.490  11.537
25114W        W86480  42.330  29.486  10.567
25115W        W86481   1.948   1.252  10.541
25116W        W86482  41.472   4.903   4.172
25117W        W86483  19.694  22.596  12.484
25118W        W86484   3.282  13.295  13.421
25119W        W86485  28.095  40.484  12.871
25120W        W86486  39.999  39.864  13.425
25121W        W86487  37.856  29.966   3.655
25122W        W86488  25.125  15.313   0.481
25123W        W86489  24.538  40.800  14.852
25124W        W86490  43.790  13.326   0.301
25125W        W86491  25.079   9.326   4.319
25126W        W86492  30.500   4.711   1.815
25127W        W86493   9.670  17.718  12.425
25128W        W86494   8.702  39.042   5.179
25129W        W86495  17.227  35.013   2.895
25130W        W86496   9.733   6.223  10.561
25131W        W86497  28.989   5.314   2.690
25132W        W86498  40.894  26.486  11.116
25133W        W86499  34.083  42.366   3.263
25134W        W86500  34.023   5.318   2.766
25135W        W86501   4.394  41.388   3.316
25136W        W86502  31.056   3.377   1.300
25137W        W86503  36.089  25.134   0.947
25138W        W86504  37.021  15.608   2.770
25139W        W86505  29.426  31.549  11.611
25140W        W86506   8.821  10.328   0.963
25141W        W86507  37.374  17.272   1.862
25142W        W86508  29.471  28.446   1.421
25143W        W86509  17.588  11.694  14.941
25144W        W86510  28.126   0.755   2.793
25145W        W86511  28.056  27.037  13.354
25146W        W86512   0.903  32.920  14.353
25147W        W86513   5.413  22.245   1.260
25148W        W86514  34.887  31.086   0.910
25149W        W86515  42.783  36.023   0.370
25150W        W86516  33.048   5.926   0.846
25151W        W86517  28.518  19.138   4.201
25152W        W86518  32.899  33.964   1.840
25153W        W86519  44.010  42.477   3.717
25154W        W86520  36.946  27.189   2.682
25155W        W86521  40.982  10.801  12.400
25156W        W86522  29.055  44.816  14.382
25157W        W86523  32.528  22.222  14.945
25158W        W86524  28.661  20.567   4.775
25159W        W86525  25.635  31.503   2.735
25160W        W86526  39.003   5.914  12.869
25161W        W86527  34.536   1.885  14.289
25162W        W86528  41.353  39.374   2.694
25163W        W86529  42.026   6.404   1.700
25164W        W86530  40.801   5.370   1.245
25165W        W86531  24.690  19.679  10.522
25166W        W86532  14.282  16.181   3.153
25167W        W86533   5.222  13.822   3.166
25168W        W86534  33.620   0.834  14.508
25169W        W86535   9.272  25.515   4.333
25170W        W86536  24.222   1.838   0.315
25171W        W86537  23.599  33.999  12.907
25172W        W86538  28.638  24.218   1.438
25173W        W86539  19.070  23.715   2.834
25174W        W86540  27.172  19.134   2.894
25175W        W86541   0.263  38.412  14.032
25176W        W86542   0.451   8.175   1.767
25177W        W86543  17.297   1.794   4.612
25178W        W86544  28.026  19.167   1.442
25179W        W86545   3.296  31.570   0.940
25180W        W86546  21.030   2.791  12.068
25181W        W86547  15.786  30.649  14.790
25182W        W86548   6.858  24.625  14.852
25183W        W86549  37.430  41.029  14.767
25184W        W86550  22.604   3.793   3.731
25185W        W86551  10.234   3.413   1.331
25186W        W86552  10.703  11.368  13.833
25187W        W86553  27.674  12.760   1.784
25188W        W86554  14.185  21.631   0.391
25189W        W86555  26.689  42.329  12.375
25190W        W86556  35.542  31.153   2.214
25191W        W86557  10.181  28.502  10.420
25192W        W86558  38.459  37.055   1.881
25193W        W86559  39.411  14.781   1.780
25194W        W86560  40.049   2.912   0.410
25195W        W86561   3.350  23.598  12.445
25196W        W86562  27.611  43.340   3.812
25197W        W86563  37.986  40.496  11.435
25198W        W86564  29.473  11.626  12.873
25199W        W86565  26.509  12.746  12.434
25200W        W86566  40.804   7.745  10.579
25201W        W86567  40.308   3.931  11.956
25202W        W86568   0.894   3.856   2.351
25203W        W86569  18.118  15.585  10.529
25204W        W86570   7.798  43.451  14.971
25205W        W86571   5.392  26.085  13.419
25206W        W86572  22.730   1.772  10.930
25207W        W86573  14.282   0.776   3.297
25208W        W86574  28.538  28.110   2.262
25209W        W86575   7.376  16.285   0.881
25210W        W86576  32.113  22.596  13.544
25211W        W86577   7.308  27.034   3.377
25212W        W86578   6.208  17.557   5.779
25213W        W86579  32.449  28.029  14.329
25214W        W86580  33.598  36.974   3.763
25215W        W86581  32.420  37.030   4.347
25216W        W86582  22.230  18.079   0.342
25217W        W86583  12.186  16.795  14.458
25218W        W86584  19.229  39.909   3.798
25219W        W86585   2.230  30.111  11.033
25220W        W86586  43.982  20.251  13.060
25221W        W86587  36.355  24.661   1.228
25222W        W86588  22.214  19.681  14.321
25223W        W86589  29.116  15.083  13.374
25224W        W86590  41.468  11.140   4.732
25225W        W86591  15.813  41.389   2.667
25226W        W86592  28.597  21.753   3.808
25227W        W86593  20.064  35.472  12.892
25228W        W86594  39.434  40.476  11.021
25229W        W86595  18.062   3.313  14.790
25230W        W86596  40.864   4.830   1.773
25231W        W86597  27.585  21.195  12.962
25232W        W86598  24.483  23.164   3.681
25233W        W86599  13.758  31.589   5.204
25234W        W86600   8.712   3.274   0.801
25235W        W86601  39.891   1.804   4.248
25236W        W86602  19.702   7.357   0.946
25237W        W86603  10.850   6.684  14.437
25238W        W86604  35.864  39.372  13.938
25239W        W86605   3.416   7.310  10.556
25240W        W86606  11.647  36.408   4.623
25241W        W86607  38.912   3.805   1.319
25242W        W86608   4.933  23.683  14.813
25243W        W86609  10.795  23.117  14.759
25244W        W86610  19.145  26.046   3.292
25245W        W86611  20.576  18.731   1.859
25246W        W86612  41.868   2.913  12.889
25247W        W86613  16.614  30.638  10.917
25248W        W86614  33.030  44.955   1.796
25249W        W86615  28.560  41.819  11.610
25250W        W86616  29.461  23.603   2.196
25251W        W86617   3.298  43.003  12.067
25252W        W86618   3.256  10.222   4.350
25253W        W86619  42.792  25.094  11.432
25254W        W86620  32.627  40.367   1.355
25255W        W86621  39.827  18.243   4.199
25256W        W86622  27.595  24.037   1.215
25257W        W86623   6.400  22.681  11.596
25258W        W86624  22.145  13.798   4.773
25259W        W86625  34.880  27.093  12.382
25260W        W86626  26.072   4.424   1.309
25261W        W86627  29.126  36.478   4.217
25262W        W86628   6.246  29.173  14.016
25263W        W86629  19.073  20.693   0.479
25264W        W86630  40.422  38.006   3.199
25265W        W86631  30.106  13.618  14.927
25266W        W86632  32.604   0.346   4.350
25267W        W86633  32.480  23.601   4.639
25268W        W86634  20.766  32.978   4.790
25269W        W86635   3.269  18.062  11.393
25270W        W86636  33.025  18.291   5.273
25271W        W86637  24.705   6.428   2.330
25272W        W86638  16.238  42.997  14.952
25273W        W86639  37.949  38.892  14.315
25274W        W86640  39.427  42.017   2.359
25275W        W86641  18.280  33.505  10.533
25276W        W86642   1.289  33.438   1.761
25277W        W86643  28.182  20.208  14.298
25278W        W86644  36.896   5.211   3.708
25279W        W86645   9.813  34.010  11.396
25280W        W86646   5.361  28.561   4.733
25281W        W86647  18.098  33.510  13.432
25282W        W86648  23.600  30.486  12.396
25283W        W86649  11.765  10.639  12.037
25284W        W86650   5.707  44.981   4.781
25285W        W86651  27.576  39.950   4.720
25286W        W86652  34.594  26.531   4.178
25287W        W86653   2.246  27.113   3.303
25288W        W86654  20.633  12.735   2.751
25289W        W86655  34.089   2.245   0.307
25290W        W86656  15.228  31.629   3.763
25291W        W86657  28.574  14.760   0.253
25292W        W86658  22.156   4.283  13.429
25293W        W86659  40.916  19.566   2.196
25294W        W86660  44.913  26.628  14.876
25295W        W86661   5.897   9.797  12.519
25296W        W86662  19.543  16.570   4.137
25297W        W86663  32.431   1.405  14.401
25298W        W86664  14.136   3.874   4.747
25299W        W86665  32.607   1.819  13.884
25300W        W86666  44.322  12.675  13.314
25301W        W86667  38.541  39.498   0.482
25302W        W86668  33.442   2.838  14.023
25303W        W86669  34.599  22.594   3.225
25304W        W86670  39.329  25.100   2.415
25305W        W86671  22.649  29.153   2.307
25306W        W86672  10.158  30.978   2.838
25307W        W86673  11.858   2.459   2.246
25308W        W86674  31.917   2.815   1.262
25309W        W86675  29.128   9.153  14.839
25310W        W86676  22.701  29.518   4.352
25311W        W86677  41.935  28.529  10.633
25312W        W86678  37.366   9.386   0.848
25313W        W86679  25.175  28.632  14.952
25314W        W86680  20.569  43.942  14.825
25315W        W86681  18.194   6.370  11.074
25316W        W86682  15.280   3.224   0.365
25317W        W86683   2.396   5.855   3.199
25318W        W86684  15.736  41.408  10.638
25319W        W86685   2.430   5.362  13.324
25320W        W86686   6.220  17.200   5.617
25321W        W86687   6.387   4.885  13.436
25322W        W86688  23.187  41.364   0.754
25323W        W86689  31.582  28.021  13.496
25324W        W86690   7.724   3.878   0.775
25325W        W86691  24.566   1.916   4.253
25326W        W86692  16.752  33.994   4.764
25327W        W86693  11.673  10.651  11.488
25328W        W86694  35.398  25.482  13.316
25329W        W86695  10.832   9.299  11.016
25330W        W86696   2.290  37.439  11.061
25331W        W86697  16.631  10.321  13.838
25332W        W86698  28.450  36.097  13.027
25333W        W86699  28.483  30.438   1.319
25334W        W86700  18.778  25.029  12.006
25335W        W86701  43.872  11.152   2.370
25336W        W86702  25.684  21.568  14.312
25337W        W86703  11.828  22.138  10.997
25338W        W86704  40.524  40.471  12.445
25339W        W86705  22.657   0.405  11.867
25340W        W86706  36.985  14.336  11.016
25341W        W86707  19.206  36.065  10.595
25342W        W86708  20.108  31.418   0.829
25343W        W86709   7.385  18.223   3.869
25344W        W86710  10.638  30.592   3.247
25345W        W86711  20.642   7.181  12.840
25346W        W86712  17.649  42.286  10.466
25347W        W86713  11.753  34.598   2.882
25348W        W86714  31.974  33.020   2.790
25349W        W86715  32.391   1.429  12.063
25350W        W86716  17.720  36.006  13.510
25351W        W86717  41.511  34.411  13.325
25352W        W86718   7.804  31.447   3.287
25353W        W86719  16.623  20.103  11.922
25354W        W86720  20.088  31.152  12.082
25355W        W86721  25.036   6.207   2.705
25356W        W86722  44.437  43.015   4.613
25357W        W86723  11.639  13.763   1.395
25358W        W86724  14.299   4.824   1.240
25359W        W86725  25.156   9.177   0.817
25360W        W86726  26.039  40.463  13.372
25361W        W86727  13.747  15.269  12.454
25362W        W86728  19.039  28.130   1.902
25363W        W86729  32.610  16.756  13.364
25364W        W86730   6.901  29.530  10.541
25365W        W86731   5.203  10.380  13.383
25366W        W86732  38.073  41.916   2.385
25367W        W86733  23.172  31.119  12.067
25368W        W86734  11.754  23.679  11.891
25369W        W86735  22.132  28.049  11.598
25370W        W86736  27.162  19.708  10.492
25371W        W86737  35.078   8.658   3.858
25372W        W86738  31.897  29.924  14.855
25373W        W86739  21.650  28.595  11.949
25374W        W86740  32.973   4.851   4.700
25375W        W86741  13.334  25.199  11.974
25376W        W86742  26.038  17.735   1.699
25377W        W86743  41.005  11.127  10.585
25378W        W86744  18.723  10.833  14.358
25379W        W86745   0.453  18.167  12.956
25380W        W86746   7.752   9.194  14.458
25381W        W86747  30.449  15.218  12.089
25382W        W86748  18.592  16.143  10.942
25383W        W86749  42.494  34.450   3.841
25384W        W86750  34.561  10.222  12.414
25385W        W86751  38.076   7.892  12.378
25386W        W86752  43.907  33.528  14.325
25387W        W86753  23.216  38.871  10.001
25388W        W86754  34.988   9.798   4.797
25389W        W86755  28.485  18.557   0.386
25390W        W86756  43.447  31.930   2.377
25391W        W86757  38.911  18.063  11.956
25392W        W86758  24.483  42.880   4.672
25393W        W86759  17.627  23.736  12.373
25394W        W86760  38.533  11.804  11.391
25395W        W86761  35.443  13.626   0.883
25396W        W86762  37.359  38.331  14.912
25397W        W86763  20.113  44.372  14.300
25398W        W86764  11.203  35.479   1.784
25399W        W86765   7.191  10.145  13.009
25400W        W86766  27.019  11.808   3.288
25401W        W86767  30.003  33.433  14.451
25402W        W86768   7.690  15.304   5.611
25403W        W86769  32.908   6.394  11.892
25404W        W86770  20.732  14.609   1.215
25405W        W86771  30.033  20.582  11.971
25406W        W86772   9.679  13.697  12.368
25407W        W86773   9.733  23.237  12.349
25408W        W86774   6.413  27.943   3.814
25409W        W86775  33.008  13.308  13.811
25410W        W86776  39.350  21.188   0.454
25411W        W86777  11.677  11.246   4.287
25412W        W86778  29.527  33.953   3.194
25413W        W86779   3.286  10.253   1.229
25414W        W86780  26.544  22.217   9.967
25415W        W86781  28.660  28.123  14.944
25416W        W86782  39.984  26.059   4.768
25417W        W86783   6.777  29.430  14.311
25418W        W86784  33.041  21.226  10.416
25419W        W86785  37.540  13.182  12.038
25420W        W86786  33.090  16.216   2.194
25421W        W86787  42.344  38.976   3.162
25422W        W86788  20.656  44.411  12.537
25423W        W86789   8.896  23.668  11.412
25424W        W86790  30.029  21.114   1.731
25425W        W86791  16.708  17.675  13.378
25426W        W86792  22.062  26.523  10.948
25427W        W86793  36.414   6.296   1.276
25428W        W86794  18.153  41.411  12.537
25429W        W86795  25.556  24.227  11.877
25430W        W86796  34.447  26.646  12.927
25431W        W86797   2.736   1.425  11.933
25432W        W86798  14.670   4.911   2.281
25433W        W86799  39.511  36.938   2.295
25434W        W86800  36.433  18.227  12.056
25435W        W86801  30.006  19.689   1.919
25436W        W86802  16.100  31.480  12.502
25437W        W86803   1.912  31.521   3.869
25438W        W86804   6.206   1.418   5.166
25439W        W86805   1.394  21.204   0.339
25440W        W86806  13.240   3.458   2.329
25441W        W86807  38.426   5.193  10.960
25442W        W86808  42.890  39.560  11.907
25443W        W86809   1.974   9.291   2.376
25444W        W86810  14.741  10.241   1.438
25445W        W86811   4.253  25.568  11.594
25446W        W86812  19.203   9.879  11.029
25447W        W86813  28.970  27.047  11.868
25448W        W86814   2.280  42.449  12.420
25449W        W86815   1.813  11.323   1.411
25450W        W86816  33.899  38.918   9.558
25451W        W86817  15.171  42.019   0.814
25452W        W86818  28.547  30.499   4.141
25453W        W86819  36.477  21.159  11.935
25454W        W86820  19.257  32.439   1.755
25455W        W86821  32.457  28.668  10.921
25456W        W86822  20.687  24.545   1.780
25457W        W86823  36.531  40.405   4.130
25458W        W86824  35.603  24.079  14.307
25459W        W86825  28.936  35.430  12.062
25460W        W86826  15.158  41.009  10.600
25461W        W86827  34.956  20.752  10.932
25462W        W86828   1.264  41.923  11.070
25463W        W86829   6.802  29.552  13.058
25464W        W86830   8.175  38.983   4.321
25465W        W86831  25.176  16.771  10.625
25466W        W86832  37.564   6.349  11.533
25467W        W86833   5.212   9.808   0.462
25468W        W86834   7.221  40.501  12.881
25469W        W86835   9.861   2.809  14.853
25470W        W86836  38.853  25.612   3.747
25471W        W86837  11.322  29.598   4.172
25472W        W86838  22.701   9.833   4.676
25473W        W86839  19.543  24.173  13.878
25474W        W86840  38.072   9.753   4.615
25475W        W86841  42.879  17.127   0.320
25476W        W86842  13.117  11.144  10.420
25477W        W86843  22.637  28.062   5.149
25478W        W86844  25.131   6.195  12.837
25479W        W86845  12.160  41.028  12.974
25480W        W86846  29.074  44.840   3.760
25481W        W86847   9.196  13.274  13.958
25482W        W86848  10.227  13.829   4.191
25483W        W86849  12.335  43.426  11.585
25484W        W86850  18.149  16.244   4.236
25485W        W86851  21.735   8.286  10.906
25486W        W86852   0.844  30.005   4.813
25487W        W86853   1.405   9.271  14.285
25488W        W86854  17.556  37.019   4.634
25489W        W86855  38.967  21.143  12.409
25490W        W86856  36.377  37.461  11.078
25491W        W86857  16.697  13.171  10.991
25492W        W86858  17.133   8.269   4.787
25493W        W86859   2.794   0.863   1.736
25494W        W86860  31.600  40.935   3.691
25495W        W86861  38.445  36.478  10.555
25496W        W86862  26.666  13.232  12.471
25497W        W86863  39.866   2.793  13.448
25498W        W86864   9.819  25.598  11.967
25499W        W86865  38.872  37.343  11.389
25500W        W86866  28.148  10.279  12.035
25501W        W86867  28.527  32.524  10.427
25502W        W86868   2.744  39.998  14.029
25503W        W86869  13.161   8.254  13.893
25504W        W86870  34.863   2.868   3.631
25505W        W86871  40.471   9.227  14.771
25506W        W86872  30.443  27.110  13.538
25507W        W86873  20.553  31.084   0.930
25508W        W86874  30.106  41.019   3.198
25509W        W86875  38.828  26.980  11.470
25510W        W86876  19.602  28.035   3.842
25511W        W86877  39.029   9.283   0.846
25512W        W86878  43.280  18.720   1.290
25513W        W86879   4.420  18.264   0.864
25514W        W86880  18.169   8.826   4.677
25515W        W86881   0.815  11.788  12.978
25516W        W86882  20.738  32.945  11.580
25517W        W86883   7.833  31.049   2.692
25518W        W86884  34.462  20.617   2.391
25519W        W86885   0.914  33.544  10.001
25520W        W86886  21.566   1.891  14.422
25521W        W86887  24.045   6.376   5.205
25522W        W86888   5.765  39.862   2.727
25523W        W86889  11.202   7.366   0.795
25524W        W86890  32.482  34.018  12.086
25525W        W86891  13.156  23.601  14.410
25526W        W86892  27.614  13.252   4.287
25527W        W86893  17.722   5.806  12.892
25528W        W86894   0.333  42.919  14.833
25529W        W86895   1.448  11.629   0.788
25530W        W86896  40.498  11.855  14.848
25531W        W86897   5.217   2.786   1.223
25532W        W86898   3.937  25.115   4.201
25533W        W86899  12.358   0.824  10.505
25534W        W86900  29.482  11.673   3.285
25535W        W86901  37.836  10.312   0.882
25536W        W86902  36.357  24.549   2.339
25537W        W86903  41.435  15.735   4.157
25538W        W86904  43.404   4.941  11.003
25539W        W86905  23.544  12.194  12.403
25540W        W86906  26.032  29.559   1.281
25541W        W86907  32.008  37.353   2.180
25542W        W86908  29.484   2.751  10.619
25543W        W86909  44.802  11.321   1.394
25544W        W86910  24.124   2.794  10.151
25545W        W86911   8.243  22.135   4.262
25546W        W86912   0.986  39.918  13.533
25547W        W86913  19.656  35.415  10.029
25548W        W86914  19.060   2.452  13.383
25549W        W86915  38.053  33.397  14.771
25550W        W86916  23.014   2.748   9.550
25551W        W86917   6.819  21.031  12.468
25552W        W86918  15.188  14.336   1.437
25553W        W86919  37.493  23.120   4.332
25554W        W86920   0.432  27.052   3.316
25555W        W86921   0.838  41.807   2.234
25556W        W86922  37.871  28.952   4.653
25557W        W86923  37.443  18.638  12.093
25558W        W86924  28.545  21.687  11.956
25559W        W86925  36.519  13.134  14.295
25560W        W86926  20.199  39.425  13.361
25561W        W86927  12.210   9.163  14.398
25562W        W86928  42.419   4.252   4.763
25563W        W86929  15.143  33.989   5.579
25564W        W86930  42.976  19.247  11.064
25565W        W86931  41.350  12.815   3.156
25566W        W86932  40.820  21.131   2.412
25567W        W86933  24.486  18.067   4.194
25568W        W86934  36.069  43.299  10.599
25569W        W86935   1.379  24.200  12.041
25570W        W86936   3.225  27.992  14.884
25571W        W86937  28.956  39.315  13.811
25572W        W86938   4.295  15.580   1.747
25573W        W86939  38.055  43.454   2.304
25574W        W86940  39.378  17.279   4.766
25575W        W86941  36.582   2.252   0.834
25576W        W86942  31.617  44.481  10.491
25577W        W86943  27.061  12.269   0.726
25578W        W86944   9.280  23.176  14.865
25579W        W86945   0.297  38.398  11.378
25580W        W86946  22.726   1.387  13.958
25581W        W86947   4.355  17.606   1.419
25582W        W86948  44.881  17.787  11.906
25583W        W86949   6.725  22.727  11.117
25584W        W86950  32.557  19.659   2.212
25585W        W86951  44.959  24.181   0.813
25586W        W86952   9.316  29.122   4.278
25587W        W86953  19.595   5.865  11.596
25588W        W86954  24.502  11.674  14.997
25589W        W86955   7.373  33.387   3.740
25590W        W86956  25.686  43.939  11.561
25591W        W86957  17.264   5.793  10.546
25592W        W86958  16.589  31.532  13.309
25593W        W86959  28.651  43.287  11.400
25594W        W86960  10.870  19.275  13.426
25595W        W86961  19.694  12.215  10.896
25596W        W86962  37.026  43.419  11.932
25597W        W86963  23.180   2.232   2.202
25598W        W86964  11.867  35.398  11.926
25599W        W86965  23.595  31.602  13.797
25600W        W86966  19.705  31.093   1.377
25601W        W86967  25.708   8.801  14.988
25602W        W86968  22.112  10.339   4.185
25603W        W86969  21.554  27.093   0.768
25604W        W86970  35.374  12.173   0.373
25605W        W86971  19.137  39.358  14.876
25606W        W86972  22.635   1.782   1.872
25607W        W86973  27.620  13.764   4.731
25608W        W86974  33.999  13.830   1.317
25609W        W86975  15.253  30.618   3.352
25610W        W86976  18.632  37.538  13.824
25611W        W86977  38.440   6.918   4.820
25612W        W86978  26.515  33.509  13.807
25613W        W86979  26.622  30.605  14.822
25614W        W86980  38.897  41.902  10.485
25615W        W86981  24.482   1.957   2.406
25616W        W86982  34.420  42.339   1.434
25617W        W86983  32.424   5.358  11.546
25618W        W86984  24.150  22.531   2.243
25619W        W86985  13.657  36.902  11.528
25620W        W86986  18.140  28.580   1.825
25621W        W86987  33.402  41.823   3.635
25622W        W86988  10.826  21.644  11.019
25623W        W86989  19.276  15.624   3.367
25624W        W86990  21.128  21.246  10.996
25625W        W86991  11.776  37.531  13.808
25626W        W86992  10.336  17.101   5.105
25627W        W86993   2.431  17.721   2.817
25628W        W86994  36.932  31.992   3.748
25629W        W86995  40.489   8.230   4.731
25630W        W86996  27.986  41.998   5.130
25631W        W86997  21.528  18.282  12.946
25632W        W86998  31.050  18.639  10.014
25633W        W86999  37.888   4.368   0.908
25634W        W87000  39.982  41.042   2.276
25635W        W87001  10.720  34.477  11.488
25636W        W87002  33.905  43.014  13.384
25637W        W87003   4.874  27.654   4.684
25638W        W87004  35.902  36.025   2.375
25639W        W87005  16.317   3.768  10.573
25640W        W87006  17.243  13.107  10.915
25641W        W87007   7.820  43.344   2.779
25642W        W87008  31.557  26.700   3.856
25643W        W87009  30.532  37.984   3.855
25644W        W87010  23.075  44.992   2.179
25645W        W87011  26.510  29.592  11.423
25646W        W87012  15.779   9.659  14.007
25647W        W87013  22.231  19.206  12.995
25648W        W87014  36.998  30.529   3.820
25649W        W87015  24.544  39.047   0.868
25650W        W87016  44.805  38.380   1.724
25651W        W87017   4.260  44.478  11.496
25652W        W87018  18.235  38.428  13.537
25653W        W87019  38.059  10.635   2.221
25654W        W87020  33.469   7.666   0.448
25655W        W87021  10.839   2.327   3.731
25656W        W87022  29.639   2.872  12.021
25657W        W87023  43.886  37.534   3.689
25658W        W87024  28.130  23.995   4.238
25659W        W87025  17.585  12.251  10.478
25660W        W87026  10.825  34.965   2.668
25661W        W87027  27.649  31.456   3.867
25662W        W87028  14.700  24.052   4.647
25663W        W87029   9.831  17.133  10.928
25664W        W87030  26.480  23.502  12.339
25665W        W87031   9.774   5.382   1.276
25666W        W87032   8.808  43.494   1.862
25667W        W87033  29.037  35.048  12.480
25668W        W87034   0.910  20.236   2.306
25669W        W87035  33.888   7.340   4.755
25670W        W87036  31.148  30.616  14.989
25671W        W87037  28.508  35.048   2.823
25672W        W87038  42.899  24.479  13.872
25673W        W87039  22.158  29.489   0.795
25674W        W87040   7.722  34.535  13.821
25675W        W87041  12.187  18.615   3.280
25676W        W87042  29.562  23.692  10.144
25677W        W87043  44.994  40.872   0.813
25678W        W87044   0.885  22.187   0.887
25679W        W87045   3.349   2.913   1.315
25680W        W87046  11.688  31.936   4.279
25681W        W87047  28.933  10.358  14.924
25682W        W87048  22.038  23.490  12.504
25683W        W87049  13.764  32.919  11.914
25684W        W87050  40.448  38.476  11.531
25685W        W87051  19.737  25.073  13.993
25686W        W87052  23.111  39.406   2.248
25687W        W87053  27.143   3.401   3.800
25688W        W87054  27.053  30.626   4.116
25689W        W87055   4.722  20.136   5.317
25690W        W87056  38.515  18.242   4.776
25691W        W87057  12.715  18.760  12.402
25692W        W87058   5.312  36.091  14.985
25693W        W87059  23.532  43.004   1.781
25694W        W87060  29.931  26.169   4.249
25695W        W87061  31.449  20.070   1.750
25696W        W87062  14.159  31.904   0.837
25697W        W87063  36.064  31.056  13.797
25698W        W87064  42.335  36.559   2.765
25699W        W87065  21.169  25.143   4.260
25700W        W87066  40.865  17.299   4.171
25701W        W87067  43.878  39.510   4.602
25702W        W87068   6.272  35.996  12.570
25703W        W87069  38.468  36.861  10.632
25704W        W87070  31.997  31.581  11.972
25705W        W87071  40.837  35.960  12.008
25706W        W87072  39.970  39.882   4.620
25707W        W87073  13.602  14.653  13.971
25708W        W87074   2.240   0.408  13.548
25709W        W87075  16.741   5.290  14.764
25710W        W87076   2.750  26.681   4.339
25711W        W87077  34.439   7.226  12.910
25712W        W87078  24.513  16.687   1.346
25713W        W87079   0.743  37.847  12.871
25714W        W87080  37.883  32.018  12.928
25715W        W87081  30.504   8.378   3.331
25716W        W87082  17.725   1.943   0.787
25717W        W87083   3.422  16.314  10.578
25718W        W87084  32.517  34.872  14.295
25719W        W87085  35.382  37.048   3.169
25720W        W87086   9.315   7.785   3.192
25721W        W87087  16.091  22.508  12.013
25722W        W87088  15.319  34.452   0.934
25723W        W87089  37.010   2.797  14.412
25724W        W87090  42.428   1.353   0.370
25725W        W87091  19.219   6.795  14.014
25726W        W87092  30.499  44.449   1.278
25727W        W87093  27.051   4.272   1.795
25728W        W87094  22.646  28.596  13.499
25729W        W87095  31.516  13.139   3.378
25730W        W87096   4.260  16.721   4.307
25731W        W87097  27.540  31.957   4.741
25732W        W87098   9.354  26.692   3.368
25733W        W87099  27.519  33.950   1.224
25734W        W87100   2.346   2.356   2.402
25735W        W87101  37.444  25.173   3.185
25736W        W87102  27.155  43.924  11.593
25737W        W87103  18.169  13.774  12.067
25738W        W87104  41.305  28.596  13.515
25739W        W87105  10.776   3.215   4.254
25740W        W87106  40.808  13.234   3.305
25741W        W87107  36.852  19.534  14.872
25742W        W87108  43.861  28.580   3.759
25743W        W87109  28.554   6.346   0.745
25744W        W87110  35.868  20.125  10.500
25745W        W87111  21.739  32.554   0.370
25746W        W87112  33.540  18.252  10.495
25747W        W87113  18.733  15.122  13.913
25748W        W87114  26.609  34.924   1.878
25749W        W87115  43.017  37.869   1.264
25750W        W87116  14.156  33.895   0.319
25751W        W87117  26.616  11.182  14.438
25752W        W87118   6.200  44.889   1.752
25753W        W87119   8.789   3.764   0.444
25754W        W87120  34.074  43.847  10.574
25755W        W87121  34.954   5.377  13.476
25756W        W87122   0.380  12.193  11.073
25757W        W87123   0.927  25.479  10.405
25758W        W87124   9.652  12.711   1.833
25759W        W87125  35.486   7.393   2.803
25760W        W87126   1.455  24.520   1.764
25761W        W87127  42.971  35.995  10.492
25762W        W87128  16.307  14.228   2.379
25763W        W87129  15.754  22.995  10.938
25764W        W87130   2.857  28.132   2.705
25765W        W87131  19.284   8.338   0.740
25766W        W87132  43.401  33.581  11.048
25767W        W87133  27.665   9.757   1.406
25768W        W87134   4.245  26.124   0.281
25769W        W87135  40.356  24.219   4.826
25770W        W87136  14.214  37.886  13.920
25771W        W87137  27.634  19.105  10.063
25772W        W87138  40.978   5.770   4.317
25773W        W87139   5.898  20.620  14.357
25774W        W87140  40.890  34.013   1.445
25775W        W87141   6.388  33.380   0.258
25776W        W87142   0.827   8.224  11.426
25777W        W87143  36.044  42.441   1.241
25778W        W87144  33.565  24.994  12.482
25779W        W87145   9.225  22.527   0.829
25780W        W87146  35.037  24.002   5.222
25781W        W87147  25.183  19.241   4.155
25782W        W87148  42.294  18.714   0.330
25783W        W87149   2.866   4.929  11.938
25784W        W87150  30.091  38.436  13.960
25785W        W87151  10.269  41.436  14.334
25786W        W87152   6.341  22.670   0.461
25787W        W87153  26.161  43.338  11.915
25788W        W87154  37.487   3.896   0.413
25789W        W87155  24.708   6.420  14.842
25790W        W87156  14.283  19.689   3.696
25791W        W87157   0.285  32.472   4.157
25792W        W87158  33.000  36.016  13.979
25793W        W87159   9.375  36.543   1.763
25794W        W87160   8.400  42.369   0.310
25795W        W87161   1.756  11.648   1.216
25796W        W87162  32.517   7.708   4.237
25797W        W87163   1.733  21.651   2.771
25798W        W87164  42.844  40.023   4.336
25799W        W87165  34.043  32.096  14.942
25800W        W87166  37.344  16.595  13.319
25801W        W87167   0.950  40.022   2.190
25802W        W87168  11.648  36.030  14.019
25803W        W87169  18.139  40.821   3.254
25804W        W87170   9.719  24.997   2.661
25805W        W87171  30.102  32.035  11.433
25806W        W87172   2.279   3.307   4.601
25807W        W87173   2.888  19.110   2.218
25808W        W87174  40.983  17.249  12.829
25809W        W87175   1.255  38.013   3.190
25810W        W87176  18.600  19.673   0.441
25811W        W87177   0.479  33.404   1.251
25812W        W87178   3.732  40.460   4.661
25813W        W87179  19.039  11.303  14.926
25814W        W87180   8.332   0.839   2.339
25815W        W87181  12.811  31.070  13.892
25816W        W87182   9.877  10.335  12.384
25817W        W87183  44.796  19.063  13.443
25818W        W87184  25.983  24.568   2.677
25819W        W87185   7.210   6.394  11.033
25820W        W87186   2.390  44.787   3.664
25821W        W87187  22.025  31.112   2.888
25822W        W87188  31.978  13.223  13.399
25823W        W87189  38.820  43.349  12.907
25824W        W87190  33.958  25.079   2.676
25825W        W87191  32.025  38.981   0.876
25826W        W87192  13.754  31.633   1.824
25827W        W87193  16.580  26.975   4.729
25828W        W87194  41.309  21.254   0.748
25829W        W87195   0.829  35.925   4.150
25830W        W87196  10.699  36.520   3.240
25831W        W87197  14.213  10.172   2.812
25832W        W87198  35.482  24.213   4.145
25833W        W87199  17.579  22.239  12.967
25834W        W87200  22.594   8.341   1.867
25835W        W87201   4.853  23.582   3.243
25836W        W87202  13.112  24.679  12.995
25837W        W87203  29.514  33.394  14.376
25838W        W87204  16.134  15.317  11.506
25839W        W87205   5.433  35.971   1.407
25840W        W87206   5.867   5.895  13.924
25841W        W87207  21.632  24.206  10.986
25842W        W87208  16.121   0.947  14.483
25843W        W87209   7.185  42.878  11.973
25844W        W87210   1.823  38.403   1.382
25845W        W87211  30.968  29.948  11.887
25846W        W87212  12.668  35.973  10.585
25847W        W87213   8.683  18.143   2.843
25848W        W87214  30.134  19.235   1.707
25849W        W87215  21.680  32.555   5.123
25850W        W87216  20.268   6.825  10.604
25851W        W87217   8.177  28.024  11.903
25852W        W87218  38.000  35.358   2.883
25853W        W87219   3.241   8.811  14.435
25854W        W87220   5.740  36.845  10.459
25855W        W87221  41.533  15.136  10.507
25856W        W87222  37.500  26.495  11.381
25857W        W87223  13.767  36.952   0.852
25858W        W87224  12.330  29.648   2.378
25859W        W87225  41.798  13.814  10.496
25860W        W87226  11.661  18.665   3.761
25861W        W87227  26.558  16.798   1.395
25862W        W87228  26.123  15.646   4.204
25863W        W87229   5.268  44.401   3.826
25864W        W87230   7.875   0.381  14.008
25865W        W87231  11.695  32.469  11.947
25866W        W87232  34.899   0.480   2.870
25867W        W87233  33.950   3.238  13.805
25868W        W87234  40.860  43.817   2.762
25869W        W87235  41.484  15.273  12.508
25870W        W87236  35.499  36.540   4.691
25871W        W87237  15.322  29.574   0.257
25872W        W87238   1.895  42.489  11.438
25873W        W87239  28.068   6.295   4.683
25874W        W87240  31.087   1.258   2.257
25875W        W87241   3.797   8.208   4.225
25876W        W87242   7.788   1.356  14.984
25877W        W87243  14.634   0.828  11.605
25878W        W87244  14.254  44.938  12.857
25879W        W87245  34.388  29.938  10.539
25880W        W87246   2.802  32.129   1.234
25881W        W87247   8.183   4.923  11.426
25882W        W87248  42.860  25.210  12.832
25883W        W87249  27.024  26.607  10.480
25884W        W87250  32.129  19.047   2.735
25885W        W87251   4.845   3.724   2.198
25886W        W87252  25.018  11.260   4.715
25887W        W87253  38.402  18.719   2.197
25888W        W87254   5.260  22.184   1.871
25889W        W87255  35.095  34.455  14.019
25890W        W87256  15.284   8.814   2.335
25891W        W87257  14.268  17.293   1.364
25892W        W87258  34.585  44.878  14.868
25893W        W87259   0.362  27.614  13.391
25894W        W87260  29.542  13.775   3.209
25895W        W87261   3.920  32.899   1.424
25896W        W87262  33.950  12.737  11.084
25897W        W87263  28.117  29.103   3.745
25898W        W87264   4.732  29.055   5.136
25899W        W87265   0.439  18.619   1.821
25900W        W87266  26.963   5.885   0.438
25901W        W87267  41.447  31.479  11.533
25902W        W87268  15.120   4.885  11.388
25903W        W87269  21.679  13.749   3.330
25904W        W87270  41.439  16.707  12.488
25905W        W87271  20.684  23.498   3.183
25906W        W87272  34.882  13.686  11.955
25907W        W87273  21.626  43.876  10.489
25908W        W87274  10.855  29.457   0.891
25909W        W87275   7.781   0.877  12.517
25910W        W87276  17.200  30.132  14.024
25911W        W87277   3.908  18.589   4.249
25912W        W87278  35.871  21.112   0.858
25913W        W87279  34.949  43.916  11.913
25914W        W87280   1.388   6.202   3.256
25915W        W87281  38.455  35.459   0.946
25916W        W87282  19.611  43.328   3.667
25917W        W87283  16.599  33.117   3.757
25918W        W87284  21.606  20.247  12.008
25919W        W87285   5.930   9.664  10.500
25920W        W87286   6.860  22.143  12.012
25921W        W87287  32.899  41.852  14.939
25922W        W87288   5.925   1.934   3.376
25923W        W87289  34.570  43.414  12.552
25924W        W87290  42.780   6.196   5.185
25925W        W87291  18.126   9.261   2.860
25926W        W87292   9.657  12.716  13.435
25927W        W87293  23.000  30.602  14.857
25928W        W87294  37.895  36.045   0.894
25929W        W87295  22.207  28.017  13.406
25930W        W87296  41.023  42.815  10.583
25931W        W87297  30.494  41.968   4.776
25932W        W87298  28.011  26.574   2.300
25933W        W87299   8.380  17.738   3.368
25934W        W87300   6.202  13.136   3.274
25935W        W87301  32.974  18.670   2.419
25936W        W87302  19.136  39.512  10.972
25937W        W87303  31.995  16.253   1.805
25938W        W87304  11.804  19.146   0.256
25939W        W87305   9.671  43.909   3.326
25940W        W87306  15.628  30.131   4.735
25941W        W87307  38.488  27.194   4.172
25942W        W87308   0.365  35.478   2.871
25943W        W87309  13.334  34.492  14.443
25944W        W87310   2.469  24.546   4.732
25945W        W87311  25.992  14.134   4.328
25946W        W87312  12.322  42.985  11.466
25947W        W87313  39.401  10.320  12.966
25948W        W87314   5.323   7.402   9.972
25949W        W87315  39.939  11.182  12.998
25950W        W87316  25.042  10.750  11.523
25951W        W87317  39.948  43.450   4.732
25952W        W87318  28.961  21.088  14.322
25953W        W87319  21.543  21.625   3.855
25954W        W87320  27.971  42.777  10.086
25955W        W87321  25.651   9.321   4.354
25956W        W87322  21.108  11.281   3.851
25957W        W87323   4.355   6.339   0.870
25958W        W87324  15.254  17.076   1.434
25959W        W87325   9.312  34.496  10.434
25960W        W87326   1.960  18.126   4.658
25961W        W87327  25.061  42.996   4.828
25962W        W87328  18.654  15.208   3.247
25963W        W87329  17.212  29.082   4.246
25964W        W87330  28.529  18.114  13.011
25965W        W87331  41.930  13.137   3.356
25966W        W87332   9.280   4.766  14.319
25967W        W87333  23.152  38.023  13.032
25968W        W87334  20.700  26.172  13.994
25969W        W87335  41.524  11.144  11.934
25970W        W87336  22.517  28.565   3.753
25971W        W87337  32.548  43.996   0.738
25972W        W87338  13.646  25.486  10.463
25973W        W87339  28.573  41.510  11.060
25974W        W87340  15.783  31.031  14.770
25975W        W87341  10.324  38.961  12.417
25976W        W87342  15.312  39.424   3.738
25977W        W87343  20.140  20.545   0.957
25978W        W87344   0.924  30.990  13.347
25979W        W87345  21.625   0.451  12.396
25980W        W87346  40.049   3.921   0.849
25981W        W87347  30.091  40.978   1.365
25982W        W87348   2.838  25.070  12.452
25983W        W87349  18.725  23.567  13.485
25984W        W87350  24.168  26.676  14.441
25985W        W87351   5.331  16.317  14.769
25986W        W87352   5.918  25.655   1.426
25987W        W87353  16.572  15.667   2.204
25988W        W87354  34.963  15.680  13.885
25989W        W87355  36.442  32.632  13.315
25990W        W87356  34.604  41.854  12.510
25991W        W87357  20.531  28.497   3.797
25992W        W87358  40.902   4.747  13.538
25993W        W87359  35.983  38.012   1.318
25994W        W87360  28.561  28.993   0.844
25995W        W87361  41.847  28.005  11.539
25996W        W87362  43.018  14.739   4.350
25997W        W87363  29.593  19.677  14.769
25998W        W87364  26.491   2.466   4.222
25999W        W87365  30.099  40.386  10.528
26000W        W87366  12.847  38.005  10.579
26001W        W87367  26.087   4.889   4.204
26002W        W87368  15.327   2.778  11.938
26003W        W87369  16.179  36.586  10.530
26004W        W87370  19.661   8.759   4.697
26005W        W87371  31.484  40.928   3.294
26006W        W87372  17.693  42.923  14.864
26007W        W87373  30.143   7.795   2.772
26008W        W87374  18.577   6.359  11.585
26009W        W87375  44.928  36.381   4.239
26010W        W87376  20.042  40.830   2.742
26011W        W87377   3.949  43.323  14.320
26012W        W87378  42.367  28.066   2.750
26013W        W87379  32.904  41.500   1.269
26014W        W87380  25.637   5.726  12.889
26015W        W87381  26.003   2.461   1.887
26016W        W87382  43.948  25.536   0.802
26017W        W87383   5.923  42.405   0.847
26018W        W87384   2.725  43.808  14.827
26019W        W87385  15.795   4.307   4.202
26020W        W87386  22.037  44.800   2.380
26021W        W87387  40.435  16.674   3.192
26022W        W87388  11.749  22.999   1.744
26023W        W87389  27.468  41.978   4.174
26024W        W87390  19.636  35.521  14.338
26025W        W87391  22.043  27.043  10.430
26026W        W87392  44.840  32.525  14.445
26027W        W87393  12.285   3.828   4.264
26028W        W87394   9.306  30.624  11.415
26029W        W87395   6.911   1.803  12.526
26030W        W87396  21.221  36.914  10.622
26031W        W87397  30.490  23.710   1.794
26032W        W87398  29.994  35.928  11.917
26033W        W87399  18.679   5.408  10.925
26034W        W87400  35.923  37.564  13.536
26035W        W87401  37.958  11.686   1.876
26036W        W87402  22.056  34.416   2.859
26037W        W87403  10.762  39.964   2.306
26038W        W87404   1.271  38.483   3.653
26039W        W87405  12.208  22.569  11.533
26040W        W87406  42.952  24.516   1.439
26041W        W87407  10.247  17.582   2.318
26042W        W87408  28.661  28.158  14.005
26043W        W87409  10.282  13.311   0.878
26044W        W87410  21.755  17.147  11.573
26045W        W87411  26.146  26.622   0.372
26046W        W87412  42.809  21.176  14.467
26047W        W87413   1.244  23.718  10.611
26048W        W87414   3.929   3.390  10.960
26049W        W87415   1.850  16.701  13.463
26050W        W87416  26.117  36.434  12.936
26051W        W87417  21.539  39.377   3.733
26052W        W87418  44.762  33.587  12.389
26053W        W87419  25.593   1.838   4.774
26054W        W87420   0.260   0.461  12.046
26055W        W87421  38.939  34.863   1.422
26056W        W87422  29.041  33.611  14.011
26057W        W87423  34.551   5.310  13.900
26058W        W87424  29.160  14.636   1.287
26059W        W87425  41.388  34.460  10.995
26060W        W87426   3.779   5.887  13.883
26061W        W87427   4.258  18.751  14.870
26062W        W87428   5.364  29.044   3.843
26063W        W87429   0.920  20.045   0.272
26064W        W87430  31.022   8.365  12.490
26065W        W87431  11.747  35.445   0.906
26066W        W87432  42.338  19.198  11.954
26067W        W87433  39.470  32.483  13.368
26068W        W87434   6.265   4.367  11.504
26069W        W87435  31.023  40.438   4.334
26070W        W87436  15.690  38.923  13.883
26071W        W87437  27.053  11.278  10.620
26072W        W87438  30.145   2.887   1.738
26073W        W87439  17.686   0.272  12.549
26074W        W87440  24.222  12.146   2.837
26075W        W87441   6.410  18.611  10.952
26076W        W87442   4.358  24.032  14.943
26077W        W87443  42.888  41.912  10.455
26078W        W87444  30.601  19.695  13.437
26079W        W87445   4.736  33.625  13.894
26080W        W87446  25.137  17.685   1.448
26081W        W87447  22.150  11.238  12.074
26082W        W87448  31.964  14.642   4.620
26083W        W87449  43.430  31.588  12.848
26084W        W87450  32.611   4.429   0.909
26085W        W87451  35.952  34.093   3.630
26086W        W87452  31.599   8.330  14.008
26087W        W87453  29.652  32.904   4.187
26088W        W87454  33.626   0.807   0.458
26089W        W87455  36.977   4.707   4.639
26090W        W87456  21.206  11.202  14.289
26091W        W87457   7.357  38.009   4.232
26092W        W87458  11.315   2.885   2.296
26093W        W87459   3.723   5.400  14.472
26094W        W87460  27.084  34.971   3.778
26095W        W87461  26.541  41.511   3.271
26096W        W87462  12.348  26.073   0.316
26097W        W87463   9.371  44.427   2.838
26098W        W87464  30.418   6.230  12.478
26099W        W87465   1.793  15.798  14.929
26100W        W87466  35.584  32.065  13.539
26101W        W87467  21.045  19.692   0.283
26102W        W87468  10.648  28.497  10.596
26103W        W87469  40.839  37.059   0.267
26104W        W87470  21.594   3.829   1.443
26105W        W87471  14.254  29.147   4.817
26106W        W87472  29.082  34.604   1.372
26107W        W87473   5.752  37.935   4.341
26108W        W87474   4.702  15.766   2.337
26109W        W87475  14.815  25.040  13.960
26110W        W87476  38.823  37.866   4.186
26111W        W87477  33.121   4.322  13.919
26112W        W87478   3.891  31.986  10.931
26113W        W87479   0.453  23.101  11.467
26114W        W87480  23.505  29.102   2.264
26115W        W87481  31.067  20.265  13.005
26116W        W87482  18.571   5.782  11.386
26117W        W87483  23.195  28.637  11.510
26118W        W87484   0.914  39.457  12.943
26119W        W87485  37.011  25.192  11.898
26120W        W87486  20.669  26.614  13.983
26121W        W87487   3.447  12.238  10.587
26122W        W87488  23.157  39.473   1.770
26123W        W87489   2.282  13.332   3.772
26124W        W87490  16.763  23.610  12.945
26125W        W87491   9.269   4.840  13.378
26126W        W87492  36.051  31.024  12.977
26127W        W87493   4.754  23.993  13.347
26128W        W87494  18.773  11.648  13.977
26129W        W87495  39.823  29.108   1.416
26130W        W87496  40.817  32.629   0.455
26131W        W87497  29.561  42.428  10.546
26132W        W87498  34.569   6.297   0.816
26133W        W87499   0.255  13.639  11.973
26134W        W87500  33.402  12.175   2.695
26135W        W87501  11.837  35.392  14.476
26136W        W87502  24.607   8.703  11.967
26137W        W87503  35.101   6.863   1.247
26138W        W87504  41.345   8.300   0.460
26139W        W87505   8.768   5.272   5.172
26140W        W87506  37.340  38.988   2.307
26141W        W87507   4.232  13.704  13.030
26142W        W87508  15.723  25.024   0.397
26143W        W87509  26.103  31.920  11.008
26144W        W87510  19.772  42.421   1.803
26145W        W87511  37.413  17.248  10.951
26146W        W87512  35.568  32.117  11.395
26147W        W87513  23.620   0.434   3.188
26148W        W87514  34.601  22.638   2.676
26149W        W87515   2.745  35.081  13.939
26150W        W87516  14.103  33.471   0.415
26151W        W87517   5.212  13.204  11.912
26152W        W87518  11.820  24.563   3.677
26153W        W87519  22.087   9.673  11.609
26154W        W87520   3.787  34.396   2.375
26155W        W87521  11.862  31.522  10.451
26156W        W87522  31.072  41.870   4.736
26157W        W87523  36.872  27.507  13.432
26158W        W87524  31.915   9.182   1.746
26159W        W87525   8.741  21.565  11.038
26160W        W87526  16.607   4.760   3.226
26161W        W87527  15.244  21.682  12.544
26162W        W87528  40.386  30.975   0.345
26163W        W87529  43.439  26.536  13.351
26164W        W87530   4.803  32.571  10.462
26165W        W87531  12.330  44.488  10.439
26166W        W87532  35.883   2.878   3.239
26167W        W87533   2.243  19.771  11.045
26168W        W87534  15.706  24.025   5.123
26169W        W87535  11.698  22.726   0.733
26170W        W87536   0.432  44.354  12.952
26171W        W87537  16.164   4.264   2.365
26172W        W87538  19.664  33.878  12.365
26173W        W87539   4.755  27.121   2.891
26174W        W87540  24.046  39.030   1.259
26175W        W87541  11.318  38.480  13.444
26176W        W87542  28.098  17.628  10.454
26177W        W87543  34.499   2.836   3.797
26178W        W87544  43.006  30.930   2.229
26179W        W87545  12.118  40.438  13.840
26180W        W87546  16.587   9.672  14.997
26181W        W87547  11.232   2.447   0.283
26182W        W87548  13.351   5.746   1.248
26183W        W87549  23.719   5.755   2.229
26184W        W87550  27.638  38.331   3.284
26185W        W87551  41.982  13.658   3.741
26186W        W87552  25.127   4.303  11.857
26187W        W87553  25.029  25.087   4.138
26188W        W87554  31.151  42.505   0.452
26189W        W87555   8.166  32.984  14.005
26190W        W87556   1.357  22.223   0.408
26191W        W87557  43.406  23.725  13.361
26192W        W87558  22.573  10.338   0.777
26193W        W87559  19.716   8.374  14.385
26194W        W87560  25.505  44.387  14.320
26195W        W87561  17.115   1.966  13.954
26196W        W87562  12.274   8.313   0.841
26197W        W87563  12.209  19.651  10.575
26198W        W87564  41.525  33.614  13.333
26199W        W87565  37.008  35.995   2.370
26200W        W87566   3.292  34.558   0.859
26201W        W87567   7.268  16.207  13.853
26202W        W87568  28.946  19.719  10.469
26203W        W87569  30.024   9.753   1.288
26204W        W87570  31.522  31.898  14.390
26205W        W87571   3.875  44.950   4.149
26206W        W87572  39.927  25.569   4.163
26207W        W87573  14.272   5.332  12.874
26208W        W87574  14.240  40.453   5.273
26209W        W87575  38.510  10.783  10.914
26210W        W87576  36.363  12.843   0.374
26211W        W87577  21.708  17.176  12.494
26212W        W87578  25.602  33.110  12.825
26213W        W87579  29.054   9.703   4.251
26214W        W87580  27.134  38.337  14.356
26215W        W87581   1.868   4.767  12.016
26216W        W87582  29.923  18.142  11.112
26217W        W87583   8.195   6.350   2.239
26218W        W87584  30.968  34.391  11.417
26219W        W87585  11.300  21.017  11.552
26220W        W87586  25.046  12.182   4.324
26221W        W87587  31.516  21.026   1.431
26222W        W87588  17.061  41.924   3.164
26223W        W87589  22.086   0.922   2.413
26224W        W87590  31.077  40.874   0.857
26225W        W87591   7.911  21.736   2.178
26226W        W87592  10.863  39.406   0.397
26227W        W87593   6.720  16.737  13.974
26228W        W87594  40.531  36.440   1.429
26229W        W87595  11.817  36.404   1.279
26230W        W87596  16.727  16.805   2.693
26231W        W87597  15.607  13.713  13.487
26232W        W87598  33.513   4.820   1.889
26233W        W87599  34.906  26.028   2.686
26234W        W87600  16.211  41.348  14.947
26235W        W87601  30.073  16.623   4.115
26236W        W87602  25.673   1.259   3.320
26237W        W87603  18.212   4.342   2.309
26238W        W87604  41.992  26.139  10.533
26239W        W87605   3.384  23.169   3.647
26240W        W87606  25.090  14.696   2.708
26241W        W87607  38.511  26.014   0.417
26242W        W87608  30.928  31.607  14.985
26243W        W87609  26.955   3.370  14.966
26244W        W87610  35.601  12.210  11.044
26245W        W87611  12.255  12.745   1.712
26246W        W87612  25.684  19.601  12.088
26247W        W87613  44.274  22.507   3.836
26248W        W87614  36.094  33.496   5.177
26249W        W87615  21.255  21.019  14.861
26250W        W87616  33.586  13.207   3.832
26251W        W87617  31.525   1.903  12.055
26252W        W87618  12.207  15.702   4.242
26253W        W87619  34.965  15.717  11.545
26254W        W87620   8.750   8.819   4.688
26255W        W87621  30.067  14.808  12.979
26256W        W87622   6.330  38.516   2.679
26257W        W87623  26.005  41.920   2.306
26258W        W87624  25.972  23.096   1.330
26259W        W87625  12.820   4.341   0.771
26260W        W87626  22.128   8.843   4.774
26261W        W87627  34.400  14.318  12.519
26262W        W87628  21.254   0.839   3.794
26263W        W87629  41.514  35.951  10.964
26264W        W87630  12.701  19.736   4.625
26265W        W87631  18.220  44.832  12.077
26266W        W87632  24.686  35.530   3.369
26267W        W87633   5.276   4.855   0.856
26268W        W87634  29.525  32.529  14.856
26269W        W87635  21.184  12.614   3.771
26270W        W87636  25.684   0.855  12.870
26271W        W87637  35.515  43.894   2.766
26272W        W87638  31.555  24.228   0.776
26273W        W87639  13.837   5.928  12.022
26274W        W87640   5.334  12.849  12.843
26275W        W87641  10.292  42.352   0.346
26276W        W87642   1.857  41.813  10.558
26277W        W87643  25.025  13.150   3.355
26278W        W87644  32.626  11.636   2.412
26279W        W87645  17.690  25.999   4.216
26280W        W87646   1.935   5.747   0.923
26281W        W87647  30.461  30.137  14.313
26282W        W87648   8.263  30.610  10.404
26283W        W87649  10.240  24.516  12.377
26284W        W87650  37.441   3.271   3.351
26285W        W87651  17.245   9.275   1.413
26286W        W87652  14.233  31.414  10.001
26287W        W87653   0.866   1.912  12.955
26288W        W87654  17.277   6.681   4.216
26289W        W87655  18.614   0.296  12.354
26290W        W87656  40.378  13.157   2.178
26291W        W87657  28.443   3.331  11.863
26292W        W87658  34.876  17.172  11.556
26293W        W87659  32.575  38.044  11.380
26294W        W87660  24.126  31.937   3.256
26295W        W87661  10.244  36.013   2.687
26296W        W87662  39.903  40.054   2.739
26297W        W87663  19.537  44.945  11.421
26298W        W87664   5.835   7.362  10.624
26299W        W87665  24.161  13.684  13.418
26300W        W87666  24.199  40.949   4.827
26301W        W87667  11.211   8.744   2.353
26302W        W87668  39.812  43.385  10.487
26303W        W87669  34.946   6.907  13.329
26304W        W87670  22.131   2.357   3.839
26305W        W87671  13.685  10.208   3.209
26306W        W87672  40.477  20.136  12.007
26307W        W87673  35.361  18.198   2.404
26308W        W87674  23.993  21.583   0.401
26309W        W87675  29.456  44.814   3.852
26310W        W87676   0.318   8.352  11.114
26311W        W87677  28.061  39.988   0.774
26312W        W87678  25.650  20.181  14.894
26313W        W87679  14.238   8.193  13.880
26314W        W87680  44.890  17.200   3.836
26315W        W87681  25.652  41.494   1.297
26316W        W87682   5.883  42.026  11.444
26317W        W87683  21.063  44.344   1.213
26318W        W87684  24.117  29.072   9.957
26319W        W87685   8.372  19.776   4.741
26320W        W87686  25.180   8.893  13.865
26321W        W87687  21.654  17.573   3.287
26322W        W87688  29.027  30.587  11.430
26323W        W87689   8.237  20.579   4.246
26324W        W87690  33.537  42.782   1.790
26325W        W87691  40.922  19.068  13.952
26326W        W87692  26.164  23.593   3.842
26327W        W87693   7.266  13.188   3.683
26328W        W87694  11.835  31.610   2.794
26329W        W87695  28.617  14.745  10.527
26330W        W87696   5.312  44.806   3.691
26331W        W87697  41.936   3.391  13.332
26332W        W87698  29.999  34.550   3.771
26333W        W87699  11.751  11.649   4.352
26334W        W87700  20.080  25.138  12.850
26335W        W87701   0.916  28.110  11.475
26336W        W87702  23.176   1.425   5.321
26337W        W87703  28.495  42.830  14.453
26338W        W87704   1.867  22.616   0.740
26339W        W87705   9.300  38.445  10.605
26340W        W87706   1.441   9.292   3.821
26341W        W87707  40.538  19.148  12.052
26342W        W87708  21.699  21.017  11.532
26343W        W87709   0.914  31.002   3.800
26344W        W87710  27.535  43.471   4.328
26345W        W87711   6.298  32.438   4.337
26346W        W87712  26.507   3.289   4.613
26347W        W87713  30.993   9.660  10.472
26348W        W87714  40.382   3.262   1.720
26349W        W87715  13.171   9.778   1.776
26350W        W87716   3.352  41.834   4.830
26351W        W87717   3.220  36.057  12.532
26352W        W87718  30.453  31.081   2.374
26353W        W87719  22.233  28.090  14.366
26354W        W87720  12.846  22.197  12.566
26355W        W87721  24.486  12.625  11.880
26356W        W87722   1.409   7.231  11.859
26357W        W87723   6.357  16.640   5.720
26358W        W87724   6.383  40.037  13.467
26359W        W87725  24.710  36.564   2.847
26360W        W87726  10.142  34.489  12.347
26361W        W87727  34.933  43.995   2.855
26362W        W87728   4.935  27.603   1.860
26363W        W87729  16.710   4.852  10.587
26364W        W87730   2.842  44.327   2.215
26365W        W87731  11.272  24.648  12.923
26366W        W87732  34.416  40.991   2.393
26367W        W87733  27.464  20.151   5.110
26368W        W87734  44.944  37.474  13.379
26369W        W87735   0.808  35.900   2.669
26370W        W87736  26.202  39.949  12.932
26371W        W87737  41.436  32.463  14.448
26372W        W87738  43.946  15.745   3.200
26373W        W87739  31.127  13.120  13.050
26374W        W87740  27.569  43.885   4.189
26375W        W87741  18.138  18.205  10.548
26376W        W87742   7.311  23.675  10.613
26377W        W87743  23.666   0.421  14.336
26378W        W87744   9.783  21.709   0.894
26379W        W87745  10.797  28.122  12.056
26380W        W87746  33.555  34.486   2.307
26381W        W87747  23.116   6.745  12.455
26382W        W87748  16.156  25.190   2.194
26383W        W87749  42.965  19.639   4.135
26384W        W87750   9.781  26.645  12.951
26385W        W87751  31.036  25.602  14.944
26386W        W87752  15.179   3.915   2.801
26387W        W87753  38.463  42.437  11.611
26388W        W87754  38.050   2.911   1.395
26389W        W87755  19.148  29.144   0.860
26390W        W87756  40.309  41.390  13.362
26391W        W87757  28.663   8.405   1.695
26392W        W87758  32.461  19.208   2.779
26393W        W87759  40.919   2.284   1.852
26394W        W87760   2.445  25.990   1.431
26395W        W87761  24.135  27.458   9.536
26396W        W87762  14.191  44.421   1.857
26397W        W87763  30.004   4.414   4.259
26398W        W87764  29.172  43.818  11.088
26399W        W87765  23.687  22.597  10.466
26400W        W87766   0.753   9.178   2.677
26401W        W87767  27.099  37.874   3.224
26402W        W87768  42.387  29.981   0.481
26403W        W87769  31.055  35.533  14.881
26404W        W87770  35.594  24.620   3.292
26405W        W87771  30.460  12.127   0.405
26406W        W87772  34.446  17.268   2.870
26407W        W87773  40.456  30.441  13.930
26408W        W87774   0.325   4.224  13.801
26409W        W87775  31.603   3.835   4.785
26410W        W87776  40.383  15.734  14.813
26411W        W87777  12.302   9.287   1.445
26412W        W87778  24.229   4.407   2.743
26413W        W87779  41.347  44.460   3.841
26414W        W87780  44.445  21.598  14.496
26415W        W87781   9.843   8.705   3.218
26416W        W87782  35.525  15.296  14.374
26417W        W87783  33.492  19.168   4.702
26418W        W87784  32.029  30.504  11.938
26419W        W87785  33.132  38.493   1.261
26420W        W87786  17.635  26.011   2.831
26421W        W87787  23.052  10.796  13.795
26422W        W87788  32.457  28.634   1.232
26423W        W87789   0.388  29.585  11.042
26424W        W87790  31.641  31.549  11.989
26425W        W87791  28.547  14.738  11.451
26426W        W87792  11.750  33.452   5.157
26427W        W87793  33.528  11.700  10.084
26428W        W87794  44.935  15.201  11.484
26429W        W87795   5.700  31.406  14.294
26430W        W87796  33.481   5.435   2.279
26431W        W87797  31.588  10.728  12.529
26432W        W87798   1.781  44.903  11.055
26433W        W87799   7.224  34.605   2.845
26434W        W87800  15.799  10.701  12.529
26435W        W87801  18.600   9.689   1.280
26436W        W87802  25.040  35.547  10.144
26437W        W87803  36.446  19.565   5.145
26438W        W87804  23.619  11.187   1.830
26439W        W87805  30.152  24.070   0.467
26440W        W87806  21.108  39.932  11.411
26441W        W87807  41.963  17.125   3.319
26442W        W87808  41.338  19.625  10.540
26443W        W87809  23.619  24.127  12.875
26444W        W87810  12.119  21.211  14.769
26445W        W87811  20.140  11.860   1.712
26446W        W87812   9.194  38.824   0.264
26447W        W87813  10.874   1.748   0.863
26448W        W87814  12.709  40.997  11.947
26449W        W87815  38.416  18.724  12.066
26450W        W87816   2.420  30.981   0.371
26451W        W87817   5.917  39.548  10.896
26452W        W87818  41.803  22.667   4.673
26453W        W87819  39.338  40.446   3.724
26454W        W87820   5.233   4.445   4.257
26455W        W87821  39.416  24.577   0.842
26456W        W87822  13.141   7.795   1.255
26457W        W87823  26.074  44.438  13.889
26458W        W87824  30.129  13.317  14.290
26459W        W87825  28.991  39.957  13.034
26460W        W87826  12.855  34.120   3.637
26461W        W87827  36.888  26.657  13.808
26462W        W87828  10.315  29.126  11.589
26463W        W87829   7.265  16.662   9.493
26464W        W87830  26.656   8.668  11.054
26465W        W87831  28.935  13.215  11.881
26466W        W87832  22.672  26.058   4.225
26467W        W87833  39.008  16.634  10.040
26468W        W87834  29.110  33.603   1.224
26469W        W87835  31.636  23.998   4.783
26470W        W87836  32.969  20.754  11.519
26471W        W87837  29.583  24.652  13.934
26472W        W87838   8.291  14.268  13.908
26473W        W87839  15.625  35.068   1.365
26474W        W87840  21.174  29.538   0.865
26475W        W87841   3.853  12.174  14.444
26476W        W87842  18.119  42.915   0.808
26477W        W87843  36.430   2.361   1.873
26478W        W87844  32.889  39.325  14.944
26479W        W87845  38.993  41.428  14.891
26480W        W87846  41.353  43.844   0.726
26481W        W87847  29.555  15.700  11.031
26482W        W87848  12.705  29.918   4.670
26483W        W87849  16.794  18.228   3.148
26484W        W87850  32.412  40.359   1.885
26485W        W87851  18.765  13.173  13.439
26486W        W87852  11.695   6.398   1.717
26487W        W87853  27.575  34.565  10.545
26488W        W87854  24.501  40.020   4.770
26489W        W87855  32.612   2.872   2.233
26490W        W87856  14.734  35.990   2.261
26491W        W87857  44.440  36.952   5.255
26492W        W87858  44.791  35.068   4.114
26493W        W87859  11.668  37.437  14.781
26494W        W87860  21.551  25.603  12.458
26495W        W87861  37.460  29.111  12.364
26496W        W87862   1.412  27.631  14.923
26497W        W87863   8.737  24.651  13.942
26498W        W87864  27.455  34.373   2.746
26499W        W87865  39.371  21.163   9.965
26500W        W87866   8.169  43.934   3.823
26501W        W87867  23.725  27.552   5.178
26502W        W87868  29.460  16.255  13.946
26503W        W87869  16.073  27.613  11.508
26504W        W87870  14.166   5.688  13.489
26505W        W87871  29.141  34.080   0.891
26506W        W87872  41.908  30.595  10.542
26507W        W87873  40.881  23.545  14.022
26508W        W87874  19.557  12.775   4.625
26509W        W87875  26.530  15.266   4.272
26510W        W87876  19.571  12.649  10.100
26511W        W87877  17.098  20.160  13.515
26512W        W87878  10.866  17.695  14.940
26513W        W87879  37.063  33.992  14.432
26514W        W87880  20.237  31.635  13.798
26515W        W87881  34.973  39.010  11.040
26516W        W87882  32.886  21.544   3.806
26517W        W87883  40.974  11.244   2.792
26518W        W87884  27.154  30.601   2.331
26519W        W87885  34.893   4.327  14.928
26520W        W87886  19.059  28.154   2.317
26521W        W87887  12.730  27.658   0.285
26522W        W87888  37.962   8.354  13.045
26523W        W87889  30.008  16.141  14.855
26524W        W87890  32.885  23.006  12.530
26525W        W87891   4.930  44.890   2.179
26526W        W87892   0.939   8.668   2.666
26527W        W87893  20.086  15.818  13.509
26528W        W87894  24.519  21.133  13.418
26529W        W87895  11.185  33.469  13.329
26530W        W87896  10.732  42.946  12.008
26531W        W87897  24.043  19.699  10.623
26532W        W87898  43.806  22.555   2.795
26533W        W87899  30.956  19.224   2.884
26534W        W87900  36.997  16.144   2.181
26535W        W87901   5.419  25.662  11.435
26536W        W87902  33.893   0.489  11.526
26537W        W87903  13.843  29.142   3.270
26538W        W87904  28.608  37.365  14.311
26539W        W87905  25.112  17.618   4.303
26540W        W87906  43.498  33.380   2.235
26541W        W87907  24.506  14.315   0.926
26542W        W87908  24.504  11.630   2.760
26543W        W87909  28.617  13.708  12.950
26544W        W87910  39.378  29.654  11.857
26545W        W87911  14.734   9.713  14.469
26546W        W87912  32.486   7.889  11.031
26547W        W87913  28.585  30.152  14.009
26548W        W87914  44.426   0.900  13.862
26549W        W87915  18.731  30.025   4.789
26550W        W87916   0.320  36.987   0.370
26551W        W87917   6.323  11.304  13.983
26552W        W87918  42.780  10.861  10.888
26553W        W87919   7.299  11.676   1.273
26554W        W87920   5.414  13.211  10.947
26555W        W87921  24.999  19.557   3.236
26556W        W87922  43.870   6.280   3.264
26557W        W87923  39.439  42.302   4.329
26558W        W87924  13.132  29.093   2.214
26559W        W87925  37.459   6.918  11.126
26560W        W87926   4.209  43.009   3.365
26561W        W87927   7.309  30.589   4.120
26562W        W87928  22.660  30.650   0.964
26563W        W87929  43.480  31.126   3.733
26564W        W87930  38.953   1.829   3.812
26565W        W87931  26.514  35.516  12.434
26566W        W87932  20.183  14.268  12.013
26567W        W87933  39.391  33.130  12.980
26568W        W87934  23.012   0.314   1.781
26569W        W87935  22.641  24.067   2.331
26570W        W87936  22.590  21.742  10.943
26571W        W87937  14.668  33.602   2.886
26572W        W87938  36.994   1.465   2.297
26573W        W87939  13.213  30.025  14.783
26574W        W87940  25.023  16.181  14.032
26575W        W87941  42.455   8.396   0.268
26576W        W87942  26.699  43.773  12.466
26577W        W87943  39.833  14.831  13.850
26578W        W87944  29.129  13.788   3.771
26579W        W87945  18.216  38.401   4.222
26580W        W87946   6.856  11.653   0.960
26581W        W87947  13.165   3.229   1.730
26582W        W87948   1.777  16.710   4.785
26583W        W87949  18.282  11.199   3.631
26584W        W87950  24.060  15.155   3.231
26585W        W87951  37.412  31.571  11.385
26586W        W87952  25.218  24.195   0.882
26587W        W87953   3.437  16.116  14.365
26588W        W87954  14.180  30.497  10.074
26589W        W87955  36.926  21.141   3.745
26590W        W87956   5.233  29.653   0.729
26591W        W87957   1.822  20.110  10.463
26592W        W87958  13.766  19.641  12.019
26593W        W87959  11.315  15.735  10.406
26594W        W87960  13.764  11.333   4.771
26595W        W87961   9.324  28.955   0.335
26596W        W87962  27.582  31.428   2.678
26597W        W87963  10.241  35.887   4.352
26598W        W87964  42.794  11.634   3.316
26599W        W87965   1.777  17.646   1.919
26600W        W87966  16.285  37.374   3.846
26601W        W87967   4.247  30.100  12.372
26602W        W87968  31.549  43.847  14.027
26603W        W87969  29.956  42.303   3.363
26604W        W87970  13.116   6.276   1.292
26605W        W87971  26.038  12.168   3.372
26606W        W87972  38.366  35.923  10.916
26607W        W87973  26.089  39.329  11.049
26608W        W87974  32.137   4.869  12.449
26609W        W87975  27.975  44.405   2.367
26610W        W87976  16.288  32.047  13.368
26611W        W87977  42.371  30.915  12.364
26612W        W87978  30.594  38.968  11.874
26613W        W87979  23.657   8.846  13.834
26614W        W87980  11.278  44.443  14.836
26615W        W87981  16.260  44.973   1.831
26616W        W87982  14.132  36.960  14.292
26617W        W87983  17.740  24.104  10.978
26618W        W87984  11.795   5.194  11.581
26619W        W87985  42.854   4.816   3.676
26620W        W87986   3.756  11.631  10.523
26621W        W87987   8.737  38.328  12.359
26622W        W87988  20.669  18.086   1.782
26623W        W87989   2.952  23.734   0.265
26624W        W87990  34.990   1.318  12.834
26625W        W87991   0.414   7.199  11.885
26626W        W87992  37.886  25.518   4.719
26627W        W87993  33.462  30.497   2.707
26628W        W87994  27.077  13.334  14.920
26629W        W87995  11.181  39.823  13.462
26630W        W87996  12.726  11.820  13.439
26631W        W87997  32.544  24.152  14.782
26632W        W87998   0.932  23.693  14.998
26633W        W87999  17.305   7.785   1.802
26634W        W88000  44.410  22.581  12.559
26635W        W88001  16.770  42.323   2.353
26636W        W88002  21.642   4.449   9.610
26637W        W88003  31.439   8.283  10.895
26638W        W88004  10.215  39.961  12.459
26639W        W88005  30.164  22.698  11.070
26640W        W88006  29.937  27.007   2.324
26641W        W88007  12.707   3.374   4.622
26642W        W88008  22.515  12.699   1.383
26643W        W88009  44.864  43.445  13.474
26644W        W88010   9.763  17.280  13.985
26645W        W88011   4.890  29.169   5.771
26646W        W88012  13.669  13.308   3.279
26647W        W88013   6.203  25.175   4.217
26648W        W88014  28.086  42.991   2.725
26649W        W88015  31.586  38.070  13.397
26650W        W88016  42.463  21.732  13.043
26651W        W88017  28.637  20.757   3.211
26652W        W88018   5.439  16.188   1.721
26653W        W88019  20.538  12.850   3.329
26654W        W88020  40.981  22.006  14.806
26655W        W88021  36.910  26.531   4.677
26656W        W88022  22.639  29.133  13.485
26657W        W88023   2.296  10.229   0.246
26658W        W88024   1.421  42.024   1.935
26659W        W88025   6.362   4.425  13.472
26660W        W88026  37.943  44.949   1.935
26661W        W88027  20.222   4.402   1.355
26662W        W88028  17.076  35.880   2.903
26663W        W88029  37.446   6.713   4.679
26664W        W88030  35.538  16.678   0.950
26665W        W88031  31.613  36.463  14.793
26666W        W88032   1.319  10.715  13.377
26667W        W88033  39.042  32.001  13.325
26668W        W88034  40.387  27.578   2.260
26669W        W88035  44.300  36.504   4.732
26670W        W88036  11.644   9.722  11.997
26671W        W88037  27.596   4.929  12.500
26672W        W88038  11.767  38.887  14.401
26673W        W88039  27.524  10.382  14.453
26674W        W88040  34.400  38.048  10.636
26675W        W88041   3.825  16.641   1.812
26676W        W88042  35.108  36.464  14.002
26677W        W88043  39.030   5.875   2.184
26678W        W88044  21.552  18.775   4.129
26679W        W88045  22.217  30.496  12.420
26680W        W88046  14.805  42.502   2.285
26681W        W88047  11.774   9.358  14.424
26682W        W88048  22.680  10.169   2.392
26683W        W88049   1.298  27.986  12.845
26684W        W88050   9.677   4.864  10.953
26685W        W88051  22.089  25.002   2.799
26686W        W88052  30.447  29.524   4.222
26687W        W88053  42.958  38.422  14.512
26688W        W88054   4.830  36.367   4.776
26689W        W88055  16.286   5.291  13.908
26690W        W88056  40.930  34.583  14.373
26691W        W88057  17.219   5.266  13.448
26692W        W88058   9.319  22.104  13.986
26693W        W88059  25.711  43.883  14.023
26694W        W88060  20.713  32.972  12.080
26695W        W88061  21.085  34.440  12.087
26696W        W88062  39.939  21.649  13.864
26697W        W88063  22.113  30.533  13.328
26698W        W88064  15.118  10.861   3.158
26699W        W88065  11.330  15.655   1.437
26700W        W88066  42.933   9.709  12.953
26701W        W88067  39.828  12.237   1.796
26702W        W88068  27.047  38.050  14.430
26703W        W88069   0.304  26.549   3.746
26704W        W88070  20.271  27.063   3.347
26705W        W88071  41.019  14.234  14.382
26706W        W88072   7.873   1.253   1.359
26707W        W88073   4.436  43.358   4.190
26708W        W88074   6.279  38.481  12.944
26709W        W88075   3.217  44.913  10.999
26710W        W88076  32.973  37.402  14.506
26711W        W88077  36.408  21.228   1.385
26712W        W88078  42.508  26.120   2.772
26713W        W88079  36.364  10.369   1.751
26714W        W88080  34.928  42.844   4.707
26715W        W88081  23.234   6.922  12.984
26716W        W88082  10.199  23.720  14.869
26717W        W88083  14.820   3.762  11.441
26718W        W88084  20.601  27.963   2.399
26719W        W88085  43.329   0.312   1.238
26720W        W88086  10.283   5.321   1.385
26721W        W88087   7.234  41.806   4.610
26722W        W88088  35.545  19.766   2.200
26723W        W88089  22.010  24.079   1.277
26724W        W88090   9.202  15.784   0.340
26725W        W88091  30.523  34.070   2.317
26726W        W88092  39.419  24.974   3.772
26727W        W88093  18.189  15.810   1.893
26728W        W88094  21.246  32.963   1.391
26729W        W88095  29.167   8.377   2.254
26730W        W88096  41.291   7.340   3.766
26731W        W88097   1.858   7.718  11.567
26732W        W88098   6.681  32.988   4.198
26733W        W88099  44.002   0.978   2.177
26734W        W88100  44.441  40.497   1.886
26735W        W88101   1.906  36.919  13.928
26736W        W88102  22.190  22.659   2.680
26737W        W88103   4.921  24.661   1.339
26738W        W88104  23.559  11.793   3.192
26739W        W88105  31.122  44.383   2.268
26740W        W88106  30.949  17.297   1.864
26741W        W88107   0.418  43.360  14.808
26742W        W88108  21.657  13.318  10.905
26743W        W88109  19.062  31.429   4.756
26744W        W88110  32.084   8.720   1.258
26745W        W88111  24.189  41.528  14.002
26746W        W88112  37.409   6.786   2.831
26747W        W88113  37.572   6.304  13.856
26748W        W88114  17.095  23.660   1.394
26749W        W88115  44.004  24.025   0.949
26750W        W88116   0.379   1.277   4.241
26751W        W88117   9.746   9.152  13.359
26752W        W88118  41.925   7.186   1.288
26753W        W88119  40.491  19.280   2.221
26754W        W88120   7.845   7.394   0.865
26755W        W88121  13.820   1.774   3.674
26756W        W88122   0.799   1.356   2.727
26757W        W88123  10.737  38.071  11.012
26758W        W88124  28.651  30.064  11.379
26759W        W88125  29.481  20.168  13.470
26760W        W88126   0.487  42.390  10.999
26761W        W88127  15.106  28.112   4.232
26762W        W88128  23.097  17.586   3.861
26763W        W88129   0.492  17.675   3.860
26764W        W88130  29.958  28.459   4.333
26765W        W88131  32.454  42.510   3.758
26766W        W88132  33.510  37.452   2.757
26767W        W88133  28.621  40.439   2.744
26768W        W88134  37.903  13.758  13.981
26769W        W88135   4.365   9.229   0.424
26770W        W88136  15.663  28.592  13.524
26771W        W88137  36.869   7.289   3.739
26772W        W88138  34.004  31.071   1.239
26773W        W88139  16.252  12.834   1.305
26774W        W88140  10.786  26.493  12.866
26775W        W88141  25.609  43.791  12.420
26776W        W88142  19.280  36.565   0.822
26777W        W88143  36.987  13.726   4.137
26778W        W88144  35.375  18.627  13.524
26779W        W88145  33.023  14.657  11.864
26780W        W88146  21.043   0.332   2.340
26781W        W88147  11.813  35.524  11.120
26782W        W88148  15.758  22.020   4.739
26783W        W88149  20.218  27.999  10.644
26784W        W88150  42.011  25.667   4.650
26785W        W88151  41.308  21.529  11.427
26786W        W88152  12.234  24.982  13.877
26787W        W88153  11.731  18.603   2.376
26788W        W88154  29.012  36.934  13.402
26789W        W88155  38.015  22.199  13.879
26790W        W88156  44.398  36.416   2.817
26791W        W88157   1.741   3.756   3.304
26792W        W88158  14.193   2.731  14.850
26793W        W88159   8.218   3.376  12.536
26794W        W88160  42.358  11.200   3.765
26795W        W88161  10.210  26.547   2.377
26796W        W88162  32.390   5.728   3.189
26797W        W88163  41.530  36.996  11.868
26798W        W88164   1.291  25.160   0.442
26799W        W88165  18.264  39.433  12.914
26800W        W88166  16.687  23.525   0.289
26801W        W88167  13.765  44.929   1.297
26802W        W88168  39.341  39.021   2.822
26803W        W88169  24.531  23.643  13.941
26804W        W88170  27.949  31.953  14.000
26805W        W88171   3.278   9.655   1.300
26806W        W88172   5.788   0.455  13.316
26807W        W88173  17.767  42.983   3.366
26808W        W88174  21.063  20.608   0.479
26809W        W88175   7.238  24.992   4.721
26810W        W88176   4.302   8.808   2.790
26811W        W88177  41.030   2.901  14.932
26812W        W88178  29.535  18.064   0.417
26813W        W88179  21.596  27.544   0.383
26814W        W88180  11.198  15.313  13.546
26815W        W88181   2.296  32.893   3.714
26816W        W88182  26.702   4.754   0.375
26817W        W88183  34.018  33.569  12.981
26818W        W88184  10.634  42.849   9.939
26819W        W88185  22.018   0.774  14.346
26820W        W88186   7.713  13.676  11.093
26821W        W88187  16.317   4.280  13.544
26822W        W88188   5.891   0.423   1.737
26823W        W88189   1.378   5.830   4.714
26824W        W88190  43.932  11.637  10.471
26825W        W88191   2.300  23.212  10.578
26826W        W88192   7.251  44.295   0.277
26827W        W88193  20.187  41.927  11.446
26828W        W88194  38.491  41.878  11.580
26829W        W88195   2.935  19.256  14.421
26830W        W88196   3.458  37.566   1.389
26831W        W88197  22.103  21.253   2.819
26832W        W88198  37.030  42.471  11.036
26833W        W88199  17.259   0.378  12.033
26834W        W88200   2.754  28.024   3.159
26835W        W88201  34.927  42.952  14.367
26836W        W88202   8.661  29.981   2.681
26837W        W88203  36.502  13.612   2.337
26838W        W88204  37.376  10.239   5.317
26839W        W88205  28.957  32.048   4.281
26840W        W88206  44.826  35.414  13.469
26841W        W88207   8.838   9.790   3.353
26842W        W88208  13.799  28.506  10.987
26843W        W88209  18.148  32.109  10.575
26844W        W88210  40.901   6.326   3.769
26845W        W88211  35.977  37.956  11.028
26846W        W88212  43.341   5.344   3.197
26847W        W88213   7.824  10.326   3.788
26848W        W88214   0.923  43.009  11.880
26849W        W88215  42.863  30.997  14.505
26850W        W88216   8.314  19.087  11.897
26851W        W88217  10.732   0.300   1.265
26852W        W88218  27.194   5.289  10.640
26853W        W88219  22.008  13.192  10.987
26854W        W88220  25.140  16.073   2.822
26855W        W88221  41.917  13.340   5.143
26856W        W88222   4.774   7.886   3.344
26857W        W88223   4.387   3.904  11.419
26858W        W88224  25.476  34.083  14.827
26859W        W88225  21.159  32.554  12.912
26860W        W88226  31.627   8.695  10.599
26861W        W88227  25.016   3.803  11.375
26862W        W88228  34.120  35.018  10.955
26863W        W88229   0.462  24.618  11.095
26864W        W88230   6.868   9.645   0.455
26865W        W88231  18.114  39.359  14.820
26866W        W88232  17.582  42.335   0.930
26867W        W88233  18.269  16.257  12.861
26868W        W88234   5.767   3.397  11.919
26869W        W88235  30.035  31.409  12.903
26870W        W88236  21.185  41.912   4.226
26871W        W88237  13.820  42.439   3.196
26872W        W88238   3.889  16.785   9.676
26873W        W88239  33.098   4.887   3.364
26874W        W88240  37.438  21.590  11.111
26875W        W88241  34.412  33.511  12.478
26876W        W88242  29.100   5.265  10.957
26877W        W88243  29.925   1.754   1.912
26878W        W88244  17.744   8.246  12.076
26879W        W88245  28.184  13.199  10.545
26880W        W88246  31.950  15.128   0.844
26881W        W88247   6.357  18.765  13.904
26882W        W88248  18.571  29.564  12.020
26883W        W88249  28.552  12.337  13.467
26884W        W88250  17.713   2.853  11.597
26885W        W88251  21.529  23.690  14.992
26886W        W88252  13.159  31.076  11.441
26887W        W88253   2.281   6.848   4.728
26888W        W88254  37.038  37.500  12.852
26889W        W88255  32.016  11.140   3.286
26890W        W88256   0.263  16.243  12.964
26891W        W88257   0.934   1.291   0.256
26892W        W88258  28.058  40.389  10.072
26893W        W88259  31.985   7.885  13.320
26894W        W88260   7.261  15.582  11.964
26895W        W88261  26.120  30.627   3.331
26896W        W88262  17.749  20.125   2.314
26897W        W88263   5.243   5.225  12.501
26898W        W88264  21.674  10.649   0.792
26899W        W88265  44.407  44.412  13.396
26900W        W88266  40.873  25.159  14.798
26901W        W88267  33.003  30.516   3.178
26902W        W88268  24.031  26.600   4.761
26903W        W88269  10.248   0.393   1.387
26904W        W88270   1.324  37.400  12.828
26905W        W88271  25.184   5.234  12.507
26906W        W88272  34.547   6.394   2.680
26907W        W88273  10.810  35.010   2.208
26908W        W88274  38.537  39.477  14.307
26909W        W88275  42.444  20.629   4.302
26910W        W88276  24.614  18.233  11.942
26911W        W88277   1.766  20.218  14.291
26912W        W88278  34.912   8.333  12.038
26913W        W88279  17.197  20.653  14.505
26914W        W88280   8.876  16.259   3.836
26915W        W88281  13.779  10.360   0.280
26916W        W88282   0.370  36.965  14.340
26917W        W88283  17.114  28.172   3.224
26918W        W88284  11.179  43.878  12.980
26919W        W88285  13.329  23.153   1.904
26920W        W88286  23.045  14.620  11.382
26921W        W88287  33.608  39.406  10.939
26922W        W88288  36.927  38.480  12.915
26923W        W88289   9.352  21.611   4.757
26924W        W88290  18.109  41.443  12.051
26925W        W88291  18.550  28.629  12.412
26926W        W88292  38.452  30.466   4.270
26927W        W88293  32.978  27.040   4.193
26928W        W88294  30.989  34.453   0.379
26929W        W88295  43.916  31.908   1.713
26930W        W88296  43.516  35.433  13.390
26931W        W88297  32.524  20.630  11.425
26932W        W88298  14.696   7.786   3.364
26933W        W88299  19.751   5.692   2.685
26934W        W88300  34.378   0.810  11.897
26935W        W88301   0.971   7.186   3.158
26936W        W88302  19.217  13.674  11.950
26937W        W88303  28.670   0.889  11.390
26938W        W88304   3.227  36.421   4.227
26939W        W88305  12.709  14.293  11.876
26940W        W88306  36.489  10.635   1.261
26941W        W88307  36.958   8.786   4.151
26942W        W88308  36.484  17.115   2.892
26943W        W88309  11.310  29.517   0.479
26944W        W88310   4.391   7.689   0.273
26945W        W88311  18.177  24.990  13.497
26946W        W88312  18.087  27.970   0.874
26947W        W88313  21.227  36.392  14.392
26948W        W88314  36.537  43.828   0.365
26949W        W88315   2.417   8.824  14.427
26950W        W88316  26.988   7.278  10.574
26951W        W88317  34.386  36.445   2.853
26952W        W88318  40.828  37.021  13.489
26953W        W88319   5.344  21.522  10.419
26954W        W88320   6.279  13.265   1.438
26955W        W88321  16.743   6.240  13.808
26956W        W88322  12.174  28.002  10.146
26957W        W88323  19.135  37.920   2.749
26958W        W88324  41.296   0.462  14.352
26959W        W88325  23.212   2.784   0.816
26960W        W88326  10.279   4.383   0.953
26961W        W88327  36.462  35.598   3.269
26962W        W88328  43.786  11.715   4.680
26963W        W88329  23.584  20.763   2.419
26964W        W88330  43.402  28.481   4.705
26965W        W88331  34.087  25.126   1.409
26966W        W88332  22.580  28.516   1.750
26967W        W88333  21.660  10.139   1.888
26968W        W88334   6.417  40.813   2.698
26969W        W88335  20.661  32.955  11.041
26970W        W88336  26.630  11.865   4.613
26971W        W88337   6.896   5.881  14.416
26972W        W88338   6.689  39.375   4.748
26973W        W88339  12.197  17.197  14.342
26974W        W88340  20.728  28.076  14.300
26975W        W88341  28.009  11.717   3.637
26976W        W88342   8.695   2.902   1.225
26977W        W88343  39.915  40.852   3.221
26978W        W88344  10.742  34.614  11.878
26979W        W88345  14.699  29.423   9.947
26980W        W88346  42.436  27.079   2.881
26981W        W88347   0.833   0.818   1.791
26982W        W88348  24.984  11.628  12.551
26983W        W88349  36.955  20.144   4.798
26984W        W88350   3.448  20.154   1.381
26985W        W88351   2.843  18.716   2.699
26986W        W88352  13.737  40.516  10.559
26987W        W88353  26.483  39.873  13.798
26988W        W88354  23.226   8.346   1.334
26989W        W88355  42.509  30.541   1.354
26990W        W88356  41.991   3.418   4.783
26991W        W88357  19.249  28.005   3.650
26992W        W88358  42.998   4.943   3.202
26993W        W88359   8.340  31.591  10.500
26994W        W88360  19.621  31.048   1.866
26995W        W88361  38.984  24.086  10.551
26996W        W88362  36.042   9.283  12.366
26997W        W88363   9.294   9.318  10.912
26998W        W88364  22.731  13.785  11.542
26999W        W88365  10.369  33.126   0.356
27000W        W88366  26.176  16.764  11.456
27001W        W88367   9.750  34.091   1.725
27002W        W88368  33.626  30.026  13.046
27003W        W88369  28.469  38.842   4.255
27004W        W88370  33.560  14.285   4.801
27005W        W88371  37.003   5.264  12.925
27006W        W88372  26.050  31.090  13.960
27007W        W88373   4.334  33.085   2.755
27008W        W88374   4.806  17.123  13.857
27009W        W88375   4.225   0.820  12.414
27010W        W88376  42.452   1.825   3.247
27011W        W88377  17.751  38.454   4.706
27012W        W88378  43.286  21.736   2.827
27013W        W88379  16.678   4.342  10.959
27014W        W88380   5.360  12.825   1.921
27015W        W88381  18.177  28.625   0.963
27016W        W88382  21.227  33.517  10.940
27017W        W88383   2.863  29.068   3.313
27018W        W88384  31.001  17.118  13.843
27019W        W88385  13.813  30.413   1.302
27020W        W88386  33.439   6.682  10.554
27021W        W88387  16.596  12.753  13.826
27022W        W88388  13.134  38.399  10.521
27023W        W88389  29.952   8.357   2.226
27024W        W88390  20.074  18.687  11.926
27025W        W88391  28.993  29.168  13.872
27026W        W88392  42.778  14.131   1.882
27027W        W88393  10.141   0.761  14.879
27028W        W88394  44.282  33.384   4.790
27029W        W88395  21.625  26.493  12.945
27030W        W88396  29.453  34.891  14.022
27031W        W88397  22.686  17.177   2.333
27032W        W88398  10.697  37.468  10.407
27033W        W88399   6.791  19.601  10.979
27034W        W88400   0.765   6.923   3.150
27035W        W88401   1.832   6.781  13.333
27036W        W88402   1.915   3.881  11.933
27037W        W88403  37.931  29.033   2.334
27038W        W88404  27.072  14.104   2.376
27039W        W88405  44.289  40.448   0.960
27040W        W88406  20.081  13.807  11.569
27041W        W88407   5.726  30.916   1.358
27042W        W88408  17.712  30.971  14.819
27043W        W88409  34.089  14.214   5.244
27044W        W88410   6.342   2.779   3.283
27045W        W88411  37.947  43.503  14.384
27046W        W88412   4.729  32.107   1.749
27047W        W88413  43.888  32.618   2.186
27048W        W88414  29.049  13.185   4.285
27049W        W88415  25.138  16.267  13.523
27050W        W88416  32.043  41.925   1.922
27051W        W88417   2.819  38.372  12.564
27052W        W88418  40.926  15.147  10.520
27053W        W88419  42.989  28.120   1.701
27054W        W88420  18.747   1.339   4.350
27055W        W88421   2.372  13.118  13.867
27056W        W88422  27.549  18.059   4.143
27057W        W88423  34.980   8.160   3.631
27058W        W88424  27.951  38.923  11.387
27059W        W88425  11.141  32.407   4.648
27060W        W88426   9.843   9.226   0.894
27061W        W88427   1.408   5.339   3.256
27062W        W88428  40.940  29.655   4.346
27063W        W88429  33.464  10.235  11.892
27064W        W88430  25.185  32.965   2.233
27065W        W88431  11.732  34.880  14.282
27066W        W88432  13.737  18.672  12.054
27067W        W88433  35.856  33.052  10.494
27068W        W88434  10.274   5.352  13.369
27069W        W88435  18.131   4.931   0.907
27070W        W88436   5.219  18.164  13.902
27071W        W88437   8.659  14.710  12.410
27072W        W88438  32.924   4.801  12.063
27073W        W88439  29.138  13.670  13.378
27074W        W88440   9.879  18.694  12.091
27075W        W88441   2.243  16.657  10.407
27076W        W88442  13.712  24.203   2.809
27077W        W88443  10.641   0.750   4.639
27078W        W88444  42.010  18.642   1.427
27079W        W88445   0.398  28.168  12.974
27080W        W88446  35.869  40.903   3.299
27081W        W88447  19.711  28.518   1.405
27082W        W88448  38.467  19.699   0.965
27083W        W88449  30.486  36.852  11.409
27084W        W88450  23.735   6.735   0.272
27085W        W88451  14.265  25.087  12.377
27086W        W88452  42.302  23.081  13.475
27087W        W88453  18.692  41.883   2.226
27088W        W88454  41.942  39.845   3.205
27089W        W88455  18.590  18.682  13.819
27090W        W88456  26.663  29.603   5.578
27091W        W88457  29.005  23.036   1.724
27092W        W88458  13.618  15.259   3.847
27093W        W88459  37.899  18.149  12.460
27094W        W88460   8.363   2.312  14.465
27095W        W88461  37.408  14.756   1.916
27096W        W88462  33.484   0.805  10.410
27097W        W88463   5.902  42.512   1.760
27098W        W88464  34.512  40.437   4.293
27099W        W88465  17.261   9.791  14.806
27100W        W88466  24.687   8.753  11.425
27101W        W88467  14.605  36.475   2.203
27102W        W88468   3.323  16.759   4.165
27103W        W88469   0.484  16.757  11.560
27104W        W88470  22.514  20.093   0.290
27105W        W88471  31.062  30.514  12.564
27106W        W88472   0.746  25.601   3.692
27107W        W88473  14.242  24.505   0.853
27108W        W88474   7.713  15.236  12.053
27109W        W88475  30.048  41.929  11.977
27110W        W88476  18.142  23.060  11.473
27111W        W88477  20.525  23.726  12.510
27112W        W88478  41.444  15.142   2.718
27113W        W88479   8.212  10.853  13.447
27114W        W88480  24.016  29.453  13.988
27115W        W88481  16.764  24.493  11.577
27116W        W88482   0.305   1.268   4.744
27117W        W88483  35.419  43.326   0.941
27118W        W88484  13.824  29.618  12.548
27119W        W88485  15.241  31.642  12.976
27120W        W88486  23.500  41.876  11.430
27121W        W88487  36.485  38.916   3.266
27122W        W88488   9.362  18.752  11.485
27123W        W88489  40.498   3.945  10.535
27124W        W88490  20.661  36.068  12.087
27125W        W88491  35.483  35.878   0.243
27126W        W88492  38.421  31.989  14.006
27127W        W88493  18.237  29.509   4.807
27128W        W88494  24.005   8.183  10.431
27129W        W88495  18.688   5.885   3.194
27130W        W88496   1.304  40.405   4.706
27131W        W88497   6.288  39.864   1.358
27132W        W88498  42.303  12.700   4.726
27133W        W88499  23.009  23.117   3.711
27134W        W88500  21.575   2.366  14.914
27135W        W88501  36.066  19.613  11.395
27136W        W88502  16.078   1.307  12.018
27137W        W88503  29.088  28.568   5.722
27138W        W88504  40.464  10.842  11.966
27139W        W88505  40.388   4.834   1.246
27140W        W88506  42.960  38.423   0.267
27141W        W88507  12.208  36.968  13.467
27142W        W88508  21.522  34.012   4.708
27143W        W88509   8.389  10.673   0.298
27144W        W88510  26.118   7.824   4.237
27145W        W88511  12.786  20.557   0.458
27146W        W88512  44.991  16.689  12.909
27147W        W88513  39.534  34.975  11.096
27148W        W88514   7.377  40.050  11.531
27149W        W88515  11.723  14.748   0.392
27150W        W88516  25.563  34.507  10.558
27151W        W88517  37.470  11.849  14.907
27152W        W88518   6.880  41.294  12.977
27153W        W88519  21.094  11.342  10.958
27154W        W88520  43.415  14.264  11.517
27155W        W88521  36.037  17.648  13.978
27156W        W88522  29.637   5.706  14.767
27157W        W88523   7.854  12.670   0.286
27158W        W88524  10.182   1.823   2.688
27159W        W88525  16.150  20.088   4.783
27160W        W88526  19.091  16.289   1.908
27161W        W88527  32.092  14.754  11.116
27162W        W88528  37.507   5.886  11.526
27163W        W88529  42.500  37.878  12.930
27164W        W88530  33.885  20.256   1.336
27165W        W88531  12.331   7.221   3.339
27166W        W88532  13.195  15.162   3.823
27167W        W88533  28.064  25.206   2.881
27168W        W88534  41.471  25.217  10.590
27169W        W88535  15.808  44.490  13.452
27170W        W88536  16.740  15.098   1.226
27171W        W88537  13.803   9.723  14.488
27172W        W88538   0.885  35.096   4.642
27173W        W88539   6.246  31.007  14.424
27174W        W88540  31.573  21.655   1.342
27175W        W88541  17.719  25.491   3.778
27176W        W88542  35.936   8.394  14.344
27177W        W88543  16.685  29.607   1.323
27178W        W88544  37.531  33.052  10.518
27179W        W88545   3.434  23.735  14.011
27180W        W88546   8.286  12.808   0.378
27181W        W88547  29.500  37.062   3.329
27182W        W88548  20.190   5.198  13.952
27183W        W88549  41.976  29.128   4.726
27184W        W88550  24.135  24.081  12.894
27185W        W88551  13.177  16.782   0.366
27186W        W88552  39.035  14.277  11.534
27187W        W88553  37.472   7.828   0.318
27188W        W88554  16.197  24.577   4.233
27189W        W88555  28.538  29.666   0.887
27190W        W88556  23.227   1.913  14.492
27191W        W88557   3.734  21.532  11.051
27192W        W88558  19.560   1.314  12.925
27193W        W88559  28.168  44.900  10.563
27194W        W88560  32.986  16.705   2.388
27195W        W88561  38.834  32.505   3.309
27196W        W88562  37.473  30.545   9.996
27197W        W88563  18.286  20.153   4.834
27198W        W88564  34.424  34.475  11.981
27199W        W88565  12.824  26.028   1.421
27200W        W88566   5.278   4.776   3.693
27201W        W88567  29.992   7.313  14.855
27202W        W88568  38.006   4.375  13.396
27203W        W88569   7.244  44.431  10.493
27204W        W88570   3.393  28.438   3.167
27205W        W88571  12.147  11.225   2.842
27206W        W88572  38.414  31.080  11.971
27207W        W88573  20.654  14.684  11.092
27208W        W88574  34.535  35.578  11.378
27209W        W88575  32.025  25.067   4.696
27210W        W88576  37.084   4.258  12.441
27211W        W88577   4.874  28.644   3.631
27212W        W88578  23.597   6.894   4.128
27213W        W88579  28.641  11.683  11.899
27214W        W88580   6.248  38.023  12.055
27215W        W88581   5.411  24.121   3.867
27216W        W88582  31.000  23.081  11.542
27217W        W88583  16.640  21.231   4.177
27218W        W88584   7.790  11.144  12.571
27219W        W88585  11.801   3.252  10.548
27220W        W88586   6.332  16.252   2.754
27221W        W88587  43.442  23.115   4.290
27222W        W88588  25.572  10.634  14.903
27223W        W88589  15.702  29.436   3.833
27224W        W88590   9.153  26.654   0.459
27225W        W88591  36.931  29.951  14.803
27226W        W88592  42.814  16.704  10.465
27227W        W88593  13.335  11.283  14.338
27228W        W88594  34.867  32.899   0.740
27229W        W88595  17.091  27.998   4.803
27230W        W88596  44.980  38.046   2.695
27231W        W88597  41.353  14.147   3.807
27232W        W88598  24.114   6.292  14.952
27233W        W88599   8.791  29.110  10.516
27234W        W88600  42.985  28.664  14.975
27235W        W88601   7.747  15.208  11.008
27236W        W88602  25.069  17.089   3.703
27237W        W88603   1.784  43.368  14.322
27238W        W88604  41.893   7.822   1.252
27239W        W88605   0.778  20.644  12.074
27240W        W88606   0.285   0.446  11.114
27241W        W88607  39.388  37.552  13.860
27242W        W88608   5.355  20.210   0.284
27243W        W88609   9.703  14.244   4.127
27244W        W88610  22.020   4.935   2.242
27245W        W88611  11.628  15.220   2.698
27246W        W88612  26.607  28.183  12.568
27247W        W88613  28.626  25.166   2.253
27248W        W88614  10.712  17.210  12.389
27249W        W88615  17.654  14.190  11.017
27250W        W88616  28.576  30.657   2.272
27251W        W88617  14.831  17.795   5.580
27252W        W88618  25.985   2.277   5.294
27253W        W88619  32.441  12.332   4.702
27254W        W88620  30.434   2.435  14.301
27255W        W88621  36.007   7.879   5.084
27256W        W88622  41.474  17.696   3.207
27257W        W88623  41.335   3.777  12.072
27258W        W88624   6.385  42.834   0.380
27259W        W88625   6.812   8.801  12.907
27260W        W88626   1.901  41.408  12.847
27261W        W88627  20.042   8.367  11.003
27262W        W88628   2.453  41.471  10.579
27263W        W88629  15.181  42.302  14.888
27264W        W88630  26.188  26.043   2.376
27265W        W88631  44.934  29.492   2.873
27266W        W88632   0.313  36.017   1.922
27267W        W88633  13.267   1.376  13.053
27268W        W88634  40.982  18.073  13.940
27269W        W88635  30.519   4.274  11.855
27270W        W88636  18.640   7.199  11.028
27271W        W88637  37.373  19.190   1.734
27272W        W88638   1.790  10.754   0.404
27273W        W88639  31.152  36.957  10.604
27274W        W88640   3.435   9.338   1.857
27275W        W88641   0.290  17.654  14.334
27276W        W88642  14.769  42.425  14.797
27277W        W88643  29.515  15.267  13.446
27278W        W88644  22.639  31.110   4.181
27279W        W88645   8.378  25.483   3.799
27280W        W88646   5.306  44.360   3.261
27281W        W88647  38.879  25.472   2.296
27282W        W88648  26.992  12.316  12.490
27283W        W88649   3.710  28.969  10.075
27284W        W88650  26.078  21.198   1.904
27285W        W88651  25.126  32.402  11.583
27286W        W88652   4.352  20.571  11.578
27287W        W88653  19.647   1.748   1.744
27288W        W88654  33.078  10.702  14.879
27289W        W88655  28.593  24.619   1.760
27290W        W88656   8.863   1.834   1.213
27291W        W88657  17.202  13.604   2.290
27292W        W88658  35.456   2.748   3.311
27293W        W88659  28.567  38.964   4.771
27294W        W88660  39.472  41.388  14.911
27295W        W88661  38.838  36.510  14.764
27296W        W88662  30.155  29.025   2.668
27297W        W88663  20.561   1.387  14.845
27298W        W88664   3.397   2.897   0.434
27299W        W88665  13.268  28.520   1.780
27300W        W88666   9.655  41.986  14.845
27301W        W88667   1.363  34.866   1.436
27302W        W88668  24.103   5.837   4.335
27303W        W88669   8.836  38.352   0.275
27304W        W88670  28.557  28.167  13.332
27305W        W88671  22.060  18.053   4.772
27306W        W88672  21.070  23.732  11.966
27307W        W88673   1.253  13.733   3.734
27308W        W88674   3.428  37.060   1.810
27309W        W88675  21.729   8.684   5.282
27310W        W88676   1.740   7.386   2.215
27311W        W88677   2.733  44.288   1.912
27312W        W88678  33.546  17.224  11.127
27313W        W88679  44.292   3.712  11.971
27314W        W88680  41.389  15.278   1.874
27315W        W88681  42.811   4.839   2.693
27316W        W88682  33.086  37.371  13.872
27317W        W88683  35.946  43.882   2.889
27318W        W88684   1.359  38.370  13.901
27319W        W88685   0.260  36.404  14.412
27320W        W88686  38.909   9.675  12.496
27321W        W88687  26.696   5.397  13.806
27322W        W88688  19.601  30.958   4.203
27323W        W88689  19.059  29.946  14.832
27324W        W88690  44.358  12.318   2.355
27325W        W88691   6.915   0.342   0.900
27326W        W88692  16.802  30.491   3.335
27327W        W88693  36.408  25.117  14.886
27328W        W88694  13.658   8.873  12.044
27329W        W88695  25.016   0.979  10.532
27330W        W88696   9.726  20.146  10.462
27331W        W88697   5.244  29.045  12.422
27332W        W88698  16.791  10.729   2.786
27333W        W88699  24.133  35.484  11.042
27334W        W88700  41.942  24.581  13.014
27335W        W88701  26.563  11.666   1.906
27336W        W88702  12.253  30.029   1.447
27337W        W88703  43.384  37.956   0.402
27338W        W88704   3.303  24.188   1.257
27339W        W88705  44.368   9.793  11.095
27340W        W88706  34.894   1.350   0.243
27341W        W88707  32.438   3.801  13.831
27342W        W88708  21.544  28.075   3.174
27343W        W88709  28.534   0.472  12.543
27344W        W88710  31.004   7.399  12.889
27345W        W88711  41.838   1.820  13.374
27346W        W88712  42.507  34.407  12.426
27347W        W88713  16.104  14.728  14.784
27348W        W88714  14.677  38.486   0.344
27349W        W88715   9.730  15.720   3.154
27350W        W88716   4.853   9.774   3.370
27351W        W88717  38.547  37.465  11.005
27352W        W88718  20.153  37.538   0.321
27353W        W88719   7.199  27.990   2.305
27354W        W88720  39.441   5.344  12.835
27355W        W88721  35.362  29.956  14.292
27356W        W88722  22.013  27.593  13.524
27357W        W88723  12.316  19.704  11.947
27358W        W88724  24.549   2.843  12.835
27359W        W88725   7.409  22.503  10.975
27360W        W88726  27.083  36.038   2.662
27361W        W88727  33.542  42.918  13.541
27362W        W88728  27.528  39.371  10.628
27363W        W88729  22.049  14.241   2.740
27364W        W88730  19.755  24.503  13.395
27365W        W88731  39.924  42.780   0.287
27366W        W88732  10.678  22.553   3.219
27367W        W88733  13.648   4.801   1.291
27368W        W88734  43.294   8.732  14.008
27369W        W88735   1.871  26.109  13.845
27370W        W88736  32.463  30.126   4.196
27371W        W88737  28.565  13.813   3.820
27372W        W88738  14.701  44.976   2.350
27373W        W88739  43.332   9.805   2.214
27374W        W88740  30.100  22.746  11.867
27375W        W88741   3.222   2.914  14.362
27376W        W88742  12.205  13.343   3.652
27377W        W88743   5.285  24.569   4.677
27378W        W88744  22.035   7.287   3.266
27379W        W88745   2.272   7.686  13.443
27380W        W88746  14.795  35.013   1.804
27381W        W88747  27.189  21.160  12.079
27382W        W88748  30.502  10.217   1.780
27383W        W88749  16.166  19.107  14.004
27384W        W88750   7.332  29.048  11.069
27385W        W88751  36.010  20.673   1.851
27386W        W88752  40.822  17.161  12.457
27387W        W88753  20.142  41.357   3.722
27388W        W88754  16.587  28.653  13.854
27389W        W88755  23.030  16.276   3.191
27390W        W88756  23.663  16.707  11.092
27391W        W88757  15.689  26.700   3.786
27392W        W88758  17.135  34.088   4.334
27393W        W88759   0.795  17.770  10.919
27394W        W88760  44.897  25.986   1.245
27395W        W88761   7.171  31.075   3.360
27396W        W88762  31.424   4.220   2.304
27397W        W88763   9.872  43.317   1.809
27398W        W88764  39.371  33.599   2.188
27399W        W88765  41.789  17.746  14.965
27400W        W88766  31.016  41.378   3.706
27401W        W88767  21.076  27.620   3.277
27402W        W88768  23.107   8.289   2.268
27403W        W88769  11.176  24.694  14.330
27404W        W88770   1.945  20.693  14.830
27405W        W88771  17.276  37.994   0.306
27406W        W88772  44.444  13.117   3.659
27407W        W88773  41.446  20.161  12.552
27408W        W88774   7.776  42.382  11.474
27409W        W88775  42.879  26.700   3.266
27410W        W88776   7.816  11.207   1.823
27411W        W88777  40.897  26.153   0.373
27412W        W88778  41.301  34.064  13.502
27413W        W88779  31.097  34.570   1.433
27414W        W88780   7.191  17.629  14.378
27415W        W88781  36.087  27.197   4.629
27416W        W88782   3.905  31.539  14.806
27417W        W88783  15.216   0.837  12.451
27418W        W88784  21.062  16.315  10.455
27419W        W88785  20.155  25.154  13.460
27420W        W88786  26.467  16.700   4.158
27421W        W88787   6.711  42.857  10.899
27422W        W88788  34.957  30.070  12.942
27423W        W88789  14.127  10.176  12.078
27424W        W88790  35.961  32.592   4.297
27425W        W88791  39.533  30.633   1.904
27426W        W88792  32.990   2.427  13.825
27427W        W88793  32.027  38.541  10.944
27428W        W88794  15.196  11.829   1.907
27429W        W88795   5.275   8.201  12.862
27430W        W88796  22.502  29.101   1.288
27431W        W88797  23.131   0.891   2.270
27432W        W88798  11.850  11.273   2.401
27433W        W88799   9.270   1.375   2.257
27434W        W88800  14.319  21.659   0.853
27435W        W88801   8.858  32.627   4.182
27436W        W88802  33.070  24.999  13.948
27437W        W88803  30.484  34.951  13.526
27438W        W88804  27.187  43.285   2.797
27439W        W88805  34.097  31.960  13.813
27440W        W88806  31.041   5.347  10.596
27441W        W88807  15.796  34.039   1.323
27442W        W88808   8.673   6.830  11.995
27443W        W88809  28.134  28.517   0.888
27444W        W88810  12.777  27.676   1.851
27445W        W88811  33.960  18.717   0.470
27446W        W88812  14.784  33.429  11.005
27447W        W88813  13.663  38.025   2.232
27448W        W88814  35.895   5.345  12.495
27449W        W88815   5.371  10.282   4.686
27450W        W88816   7.860  25.973   4.643
27451W        W88817   3.866  24.092  12.442
27452W        W88818   5.347  38.980   1.821
27453W        W88819  23.677  10.700  14.891
27454W        W88820  37.888  39.943  12.898
27455W        W88821  43.469  29.534  13.988
27456W        W88822  32.108  40.904  12.512
27457W        W88823  26.161  32.482  12.979
27458W        W88824   1.380  37.510   5.296
27459W        W88825  38.423  44.771   1.395
27460W        W88826  11.632  44.264   2.294
27461W        W88827  42.503   1.823   0.756
27462W        W88828  11.367  40.993  12.443
27463W        W88829  44.768  24.516   0.755
27464W        W88830   1.959  25.669   2.847
27465W        W88831  17.720  36.911  14.942
27466W        W88832   2.422  40.900  13.869
27467W        W88833  30.073  18.662  14.773
27468W        W88834   1.422  34.416   3.712
27469W        W88835   5.224  11.778   3.825
27470W        W88836   3.294  30.508  11.566
27471W        W88837  10.680  25.472  10.457
27472W        W88838  16.290  33.609  14.924
27473W        W88839   6.882   5.298  12.554
27474W        W88840  26.703   1.782  12.027
27475W        W88841  11.646  30.152  12.405
27476W        W88842  39.965  21.085   0.813
27477W        W88843   9.206   5.730   1.931
27478W        W88844   4.342  24.484   3.372
27479W        W88845  15.683  25.555  10.907
27480W        W88846  27.101  26.488   0.924
27481W        W88847   4.944  21.042   0.448
27482W        W88848  33.043  36.850   3.830
27483W        W88849  10.854   7.335  14.998
27484W        W88850  28.600  21.091   4.661
27485W        W88851  42.823  28.490  13.392
27486W        W88852  29.610   6.250  13.389
27487W        W88853  31.011   7.676  12.915
27488W        W88854  33.107  29.922  14.374
27489W        W88855   8.776   6.324   3.311
27490W        W88856  41.531  39.818   4.301
27491W        W88857  38.841  14.651  10.149
27492W        W88858  23.114  30.991   2.246
27493W        W88859  19.603  36.852   2.896
27494W        W88860  38.020  20.678   1.298
27495W        W88861  35.934   2.467   1.297
27496W        W88862  20.657  31.016   1.300
27497W        W88863   2.401  14.216   0.483
27498W        W88864   4.938  28.580  12.045
27499W        W88865  25.595  24.618  13.031
27500W        W88866  25.104  31.579   1.699
27501W        W88867   8.696  43.420  13.414
27502W        W88868  23.628   7.879   0.734
27503W        W88869  14.739  17.063  14.825
27504W        W88870  13.620  31.075   5.150
27505W        W88871  36.551  11.350  13.832
27506W        W88872   4.340   9.229  13.544
27507W        W88873  42.776  38.473  12.569
27508W        W88874  13.127  15.792   3.825
27509W        W88875   9.375  22.743  11.953
27510W        W88876  24.629  24.999  13.370
27511W        W88877  25.517  24.194   0.305
27512W        W88878   7.342  30.121  14.404
27513W        W88879  31.058  19.279   5.307
27514W        W88880  11.851  36.400   3.754
27515W        W88881  34.555  13.115  11.612
27516W        W88882   0.907  36.969   1.741
27517W        W88883  10.871  40.417   2.384
27518W        W88884   5.700   6.857  14.285
27519W        W88885  10.340  38.895   0.449
27520W        W88886  25.052  25.586   3.353
27521W        W88887  39.057  28.614  14.798
27522W        W88888  31.423  29.491   3.324
27523W        W88889  32.397  11.347   2.288
27524W        W88890  36.049  27.687  12.022
27525W        W88891  37.488   5.401   2.739
27526W        W88892   1.403  18.654  12.030
27527W        W88893  17.068  38.916   2.303
27528W        W88894   3.911  20.573   3.862
27529W        W88895  41.909  29.464   4.667
27530W        W88896  13.783   1.732   3.362
27531W        W88897  38.022  21.627   4.664
27532W        W88898  36.434  42.989  12.957
27533W        W88899   3.332  15.601  10.935
27534W        W88900  21.645   2.800   0.409
27535W        W88901   3.904   7.856   3.313
27536W        W88902   5.850  19.089  11.938
27537W        W88903  42.526  29.007  11.521
27538W        W88904   3.431   3.856  13.485
27539W        W88905  13.346  38.066   1.828
27540W        W88906   3.376  26.468  11.036
27541W        W88907  10.703  20.044   1.734
27542W        W88908  45.000  27.577   3.683
27543W        W88909   7.863  21.653   4.321
27544W        W88910  18.735  30.420  10.012
27545W        W88911   4.276   1.910   0.359
27546W        W88912  23.127  19.081   4.250
27547W        W88913  20.249  23.667   9.943
27548W        W88914  18.576   8.838   0.810
27549W        W88915  24.006  43.452  12.069
27550W        W88916  38.562   3.269   0.336
27551W        W88917  41.436   7.716  13.343
27552W        W88918  25.569  27.647   2.863
27553W        W88919  24.082   2.758  11.571
27554W        W88920  29.448  16.759  10.429
27555W        W88921  14.622  39.840   1.867
27556W        W88922  19.777   9.334  14.815
27557W        W88923  37.362  12.732   4.662
27558W        W88924   0.808  21.687   0.441
27559W        W88925  17.150  30.079   1.234
27560W        W88926  30.607  22.040   4.345
27561W        W88927  13.169  12.171   4.626
27562W        W88928  41.292  40.459  11.472
27563W        W88929   3.780  40.452   0.306
27564W        W88930  32.956  37.860   4.189
27565W        W88931  25.479  24.064  12.978
27566W        W88932  40.396   7.175   2.393
27567W        W88933  41.312  24.619  13.423
27568W        W88934  19.153  33.943   5.670
27569W        W88935  30.538  40.318   1.270
27570W        W88936  23.066  14.740  12.047
27571W        W88937  17.129  36.497   1.369
27572W        W88938  24.536   2.798   1.702
27573W        W88939  43.958  11.205   1.714
27574W        W88940  17.786  32.971  14.905
27575W        W88941  36.051   2.795  11.089
27576W        W88942  13.670   3.763  13.968
27577W        W88943   8.833  26.002  11.944
27578W        W88944  42.812  43.966   2.720
27579W        W88945  42.946  25.603   1.914
27580W        W88946  20.114   7.738  12.408
27581W        W88947  22.035  21.708  12.025
27582W        W88948  10.808  34.009  11.127
27583W        W88949  12.200  10.209   4.186
27584W        W88950  41.485  27.475  11.472
27585W        W88951   5.910  33.549   0.787
27586W        W88952   5.298   5.794  12.881
27587W        W88953  26.149  39.823   2.892
27588W        W88954   2.794  13.299   0.350
27589W        W88955  40.801  36.393   0.863
27590W        W88956  32.588   2.248   3.785
27591W        W88957   5.211   7.893  14.387
27592W        W88958  15.329  34.957  13.333
27593W        W88959  18.566   9.334  12.557
27594W        W88960   9.172  12.349   0.887
27595W        W88961  35.860  43.864  10.408
27596W        W88962  32.114  32.126   1.262
27597W        W88963  14.125  24.224  13.400
27598W        W88964  17.161  37.381   3.829
27599W        W88965  23.139   3.358  14.884
27600W        W88966  19.250  18.701  14.488
27601W        W88967  38.563  42.425   0.275
27602W        W88968  13.824   0.284  14.351
27603W        W88969   1.434  20.252   3.297
27604W        W88970   7.842   7.849  12.473
27605W        W88971  13.296   7.686   0.302
27606W        W88972  14.630   4.419   1.247
27607W        W88973  21.566  30.142   4.294
27608W        W88974  12.777  20.598  12.542
27609W        W88975  27.460  11.297   4.807
27610W        W88976  18.704  43.497   3.677
27611W        W88977  44.280  41.343  11.438
27612W        W88978   8.202  43.287   3.867
27613W        W88979  39.498   4.792  11.505
27614W        W88980  16.605   1.366  14.474
27615W        W88981  17.654  39.905   1.704
27616W        W88982  43.878   8.745  10.959
27617W        W88983  32.497  26.138  14.489
27618W        W88984   1.306  12.792   4.710
27619W        W88985  43.271  19.147  12.435
27620W        W88986  39.356  21.053   4.797
27621W        W88987  42.793   9.270  12.993
27622W        W88988  22.027  30.540   2.237
27623W        W88989   8.395  31.955  12.368
27624W        W88990  21.061   5.338  14.951
27625W        W88991  34.485  40.320   2.888
27626W        W88992  42.977  10.196  12.028
27627W        W88993  37.937  16.769   3.196
27628W        W88994  32.953  37.884   1.261
27629W        W88995  10.715  43.878   0.822
27630W        W88996  44.970  24.521   4.602
27631W        W88997   1.260   7.832  14.815
27632W        W88998  28.615  24.479   0.774
27633W        W88999  35.955  15.266  14.411
27634W        W89000  24.702  37.460   2.896
27635W        W89001  30.077  18.271  11.502
27636W        W89002  26.594   6.686   0.351
27637W        W89003  18.781   3.826  14.976
27638W        W89004  12.853  35.044   4.312
27639W        W89005  40.507   9.759  13.811
27640W        W89006  27.589  14.177  11.479
27641W        W89007  10.161  27.130  14.772
27642W        W89008  32.571  15.106   2.359
27643W        W89009   6.798  17.718   2.222
27644W        W89010  25.085  43.304   3.222
27645W        W89011   6.226  11.249   4.764
27646W        W89012  17.261  36.009   0.793
27647W        W89013  14.805   4.387   2.727
27648W        W89014  18.122  38.847  13.340
27649W        W89015  14.756  18.088   0.885
27650W        W89016  42.464   9.159  13.525
27651W        W89017   1.785  39.358  12.520
27652W        W89018  19.170  34.894  11.868
27653W        W89019   8.324  34.546   4.175
27654W        W89020  17.621  39.918   2.760
27655W        W89021   8.302  23.540   4.636
27656W        W89022  27.550  16.234  14.276
27657W        W89023   7.356   6.798   5.698
27658W        W89024  37.511  37.834  10.898
27659W        W89025  40.401  40.831   2.214
27660W        W89026  26.653  32.397  14.284
27661W        W89027  33.936  27.498   2.728
27662W        W89028  30.473  16.191   2.341
27663W        W89029  38.347  22.156  10.587
27664W        W89030   0.449   4.726   4.638
27665W        W89031  34.026  38.550  14.511
27666W        W89032   7.863  14.726  14.829
27667W        W89033  16.178  30.960  10.535
27668W        W89034  14.259  31.433   2.249
27669W        W89035   5.349  20.029   2.363
27670W        W89036  12.741  32.114  13.938
27671W        W89037  17.260  25.563   3.206
27672W        W89038  37.003  32.135   0.439
27673W        W89039  38.413  26.494  12.463
27674W        W89040  43.278  12.277   3.300
27675W        W89041  16.672   3.762  14.924
27676W        W89042   3.712  21.623  13.894
27677W        W89043  27.453   9.307   3.384
27678W        W89044   8.196   1.422   1.314
27679W        W89045   7.406  21.105   0.272
27680W        W89046  28.554   3.288   4.318
27681W        W89047  40.419  39.861   0.275
27682W        W89048  42.975  26.661   2.678
27683W        W89049  38.516  33.951  10.596
27684W        W89050  26.083  20.538  13.869
27685W        W89051  22.742   9.795   0.893
27686W        W89052   3.413   4.918   3.341
27687W        W89053  10.187  23.204   2.707
27688W        W89054  44.432  34.033  13.316
27689W        W89055   4.757   1.242  13.343
27690W        W89056  21.625  19.166   0.349
27691W        W89057  23.501  21.049  14.012
27692W        W89058  14.656  30.094  13.490
27693W        W89059  32.625  25.591  12.059
27694W        W89060   3.796   2.447  10.914
27695W        W89061  15.137  13.213   3.689
27696W        W89062  43.926   1.408  13.971
27697W        W89063  21.243   7.288  13.364
27698W        W89064  41.306  21.557  13.961
27699W        W89065  16.598  12.632   3.702
27700W        W89066  16.260  43.938  14.432
27701W        W89067   2.315  35.375  10.904
27702W        W89068  25.075  28.590  14.295
27703W        W89069  42.980  44.332   1.210
27704W        W89070  40.984  38.029  14.832
27705W        W89071  35.993  12.330   0.267
27706W        W89072  33.437  40.364   2.663
27707W        W89073  13.624   2.287   3.252
27708W        W89074  42.818  23.592  10.570
27709W        W89075  35.551  44.003  12.860
27710W        W89076  32.521  18.554  10.918
27711W        W89077   9.310  43.964  14.982
27712W        W89078  41.475  41.874  11.605
27713W        W89079  29.477  25.666   1.811
27714W        W89080  27.612  28.586   1.222
27715W        W89081  40.860  23.692   4.821
27716W        W89082   5.202  21.180  14.481
27717W        W89083  38.071  11.295   0.362
27718W        W89084  22.154  43.779  12.021
27719W        W89085  41.306   3.414   2.262
27720W        W89086   0.312  12.250   0.923
27721W        W89087   0.865  37.575  12.016
27722W        W89088  10.304  42.789   3.686
27723W        W89089  31.143  37.838   4.676
27724W        W89090   2.304  10.333  13.829
27725W        W89091  18.761  17.772  13.056
27726W        W89092  19.134  11.836   2.349
27727W        W89093  32.570   8.882   5.288
27728W        W89094  44.998  21.240   4.734
27729W        W89095  31.078  39.018   4.352
27730W        W89096  24.530  44.761   0.441
27731W        W89097  41.292  32.397   1.217
27732W        W89098  38.028  32.132   3.724
27733W        W89099  29.935  35.016   3.859
27734W        W89100  41.859  25.161   5.160
27735W        W89101  12.134  21.122  14.325
27736W        W89102   4.704   6.740  10.912
27737W        W89103   4.228   0.771  10.626
27738W        W89104  16.150  27.540  14.386
27739W        W89105  25.594  22.099  12.897
27740W        W89106  37.079  31.417   2.825
27741W        W89107  44.312  15.185   1.367
27742W        W89108  25.555  37.986  14.285
27743W        W89109   8.704   3.304  11.958
27744W        W89110   9.772   6.766   2.360
27745W        W89111  23.240  10.696  11.941
27746W        W89112  12.165   7.260  11.492
27747W        W89113  34.908  18.630   3.683
27748W        W89114  28.974  14.331  13.407
27749W        W89115   6.405  17.728   1.755
27750W        W89116  41.908  37.068   0.879
27751W        W89117   8.280   4.893   0.271
27752W        W89118  23.079  37.460   4.683
27753W        W89119  27.191  15.685  11.436
27754W        W89120  14.119  20.671   0.951
27755W        W89121  36.591   0.973   1.734
27756W        W89122  24.485  35.068   3.167
27757W        W89123   8.680   0.312  14.009
27758W        W89124  34.982   1.741   0.269
27759W        W89125  18.602  34.981   1.410
27760W        W89126  37.470  41.357  14.363
27761W        W89127   3.746  12.301  12.419
27762W        W89128  26.994   5.898  12.931
27763W        W89129  28.162  41.926  14.428
27764W        W89130  42.382  15.677   1.750
27765W        W89131  22.634  42.469   2.737
27766W        W89132  25.199  39.430  12.887
27767W        W89133  36.976  25.107  12.926
27768W        W89134   2.462  40.995  11.997
27769W        W89135  12.634  15.217   4.192
27770W        W89136   7.670  14.246   3.370
27771W        W89137   9.227  26.099  12.007
27772W        W89138  10.809   8.731  10.611
27773W        W89139  16.309  20.709   0.311
27774W        W89140  16.793   9.395  12.458
27775W        W89141   6.838   4.768   2.369
27776W        W89142  16.314   2.236   0.839
27777W        W89143  37.558  16.272  10.454
27778W        W89144  27.580  20.140  12.543
27779W        W89145  17.160  12.744  12.913
27780W        W89146   7.747  43.823  11.415
27781W        W89147  21.683  35.094   4.312
27782W        W89148  22.502  36.379  14.785
27783W        W89149  18.655  29.435  14.405
27784W        W89150  14.601   9.790   1.855
27785W        W89151  21.699  22.678   2.217
27786W        W89152   5.707   2.844   3.348
27787W        W89153  33.532  21.155  10.030
27788W        W89154   9.817   0.861   1.881
27789W        W89155  22.620   3.439   0.296
27790W        W89156  30.997   1.916   4.295
27791W        W89157  36.923  42.281  10.612
27792W        W89158   4.225  21.699  12.039
27793W        W89159  13.758  18.573   4.801
27794W        W89160  15.326  35.001  11.552
27795W        W89161  35.941  14.598  14.765
27796W        W89162  22.189  17.268  14.966
27797W        W89163  31.501  37.896   1.288
27798W        W89164  10.375  30.463  12.374
27799W        W89165  41.426  25.028   0.959
27800W        W89166  15.774  36.052   3.629
27801W        W89167  24.032  29.531   4.225
27802W        W89168   5.763  16.286   4.268
27803W        W89169  14.778  15.690   1.928
27804W        W89170   6.922  26.960  14.291
27805W        W89171  26.512  11.641   2.785
27806W        W89172  37.424  29.431  12.016
27807W        W89173   2.934  18.079  13.863
27808W        W89174  15.772   9.216  10.905
27809W        W89175  38.569  15.642   1.811
27810W        W89176  30.620  14.252   0.278
27811W        W89177  39.921  18.277   2.678
27812W        W89178  41.414  21.163   3.662
27813W        W89179  19.628  21.574  10.416
27814W        W89180  28.087  21.624   9.630
27815W        W89181  30.039  24.568   2.296
27816W        W89182  13.816   2.796   0.269
27817W        W89183  16.294  26.576   4.115
27818W        W89184  36.513  30.652  11.932
27819W        W89185  21.692   9.308  12.062
27820W        W89186  23.023  39.324   4.808
27821W        W89187  43.861  21.114  14.345
27822W        W89188   8.391  13.194  12.351
27823W        W89189  36.377  42.385  11.453
27824W        W89190  35.915  22.628   4.138
27825W        W89191   5.211   2.962  13.525
27826W        W89192  21.240  20.749   3.217
27827W        W89193   2.784  22.006   3.352
27828W        W89194  28.078  27.095   2.383
27829W        W89195   8.249  43.388  14.788
27830W        W89196  43.778  30.526   4.612
27831W        W89197  34.118  20.087   0.415
27832W        W89198  21.623  17.746  11.104
27833W        W89199   9.258  15.671  12.949
27834W        W89200  25.129   7.172  14.443
27835W        W89201  38.002  27.192  10.890
27836W        W89202  16.220   9.202  14.866
27837W        W89203   9.751  33.406   2.394
27838W        W89204  24.192  13.622   3.216
27839W        W89205   3.847  12.302  13.369
27840W        W89206   5.253   0.388  11.980
27841W        W89207  10.199   8.216   4.198
27842W        W89208  21.682  39.428  14.296
27843W        W89209  35.864  27.165   0.451
27844W        W89210   6.222  27.527  11.456
27845W        W89211  35.105   0.862   5.111
27846W        W89212   8.284  25.691  13.439
27847W        W89213  39.551  16.812   0.407
27848W        W89214  25.173  37.007   4.353
27849W        W89215   6.414  20.147  10.461
27850W        W89216  14.784  17.677  13.007
27851W        W89217  31.528  13.137  10.553
27852W        W89218   3.232  18.125  14.936
27853W        W89219  11.853   6.388   0.247
27854W        W89220  19.139  38.012   0.753
27855W        W89221  39.065  15.207  10.468
27856W        W89222  29.016   0.490   4.160
27857W        W89223  26.479  34.116   3.849
27858W        W89224  26.160  28.513  13.046
27859W        W89225  16.576   8.314   2.239
27860W        W89226  43.408   9.164  12.422
27861W        W89227  28.578  43.493  14.003
27862W        W89228  30.446  26.046   4.353
27863W        W89229  20.220  19.130  11.519
27864W        W89230  32.524  36.395  12.891
27865W        W89231  27.190  39.977  14.814
27866W        W89232  12.264   9.861  12.369
27867W        W89233  12.847  12.648   0.791
27868W        W89234  19.093  12.255   3.380
27869W        W89235  35.560  32.038   5.107
27870W        W89236  27.018   5.242   3.356
27871W        W89237  27.159  24.577   0.388
27872W        W89238   5.719   8.656   3.167
27873W        W89239  38.330  27.120   0.470
27874W        W89240  40.447  32.950   2.284
27875W        W89241  13.707  22.706   2.889
27876W        W89242  39.558  20.235   1.312
27877W        W89243  11.649  21.192   2.796
27878W        W89244  25.567   5.911   4.201
27879W        W89245  30.917  36.023  12.462
27880W        W89246  18.617  20.543   2.269
27881W        W89247  21.040   2.903  12.549
27882W        W89248  31.432   9.885   0.960
27883W        W89249  25.633  35.033   4.742
27884W        W89250  36.063  39.501   3.341
27885W        W89251  44.909   6.308  13.485
27886W        W89252  42.505  20.091   2.734
27887W        W89253  21.193   7.905  11.006
27888W        W89254  13.765  36.496   0.890
27889W        W89255  40.053  20.122  10.935
27890W        W89256  20.586  19.230   0.413
27891W        W89257  17.280  18.772  11.885
27892W        W89258  17.761  37.854   2.405
27893W        W89259  25.705  12.813  14.965
27894W        W89260  29.928  33.011  12.381
27895W        W89261  11.759  39.914  10.990
27896W        W89262  15.231  20.226  11.971
27897W        W89263   7.210   4.759   3.795
27898W        W89264   4.734  43.960   0.444
27899W        W89265  10.649  21.632  13.036
27900W        W89266  35.542   5.217   0.294
27901W        W89267  15.788  30.425   2.358
27902W        W89268  17.729  39.940  14.346
27903W        W89269  43.466  41.929   0.966
27904W        W89270  24.029  25.488   2.198
27905W        W89271  11.648   6.270   4.738
27906W        W89272  19.760   9.830  12.836
27907W        W89273  12.715   1.904   0.815
27908W        W89274   9.798  21.669  12.968
27909W        W89275  33.567  17.215   3.791
27910W        W89276  10.818  41.399   1.230
27911W        W89277   9.365   9.274  12.519
27912W        W89278   1.883  28.029   1.297
27913W        W89279  15.768   3.884  11.069
27914W        W89280  42.980  27.003   1.876
27915W        W89281  13.118   9.657   1.305
27916W        W89282  30.444  43.414  13.058
27917W        W89283  42.397  39.325  13.857
27918W        W89284  23.664  21.023  12.873
27919W        W89285   2.775  21.107  12.480
27920W        W89286   4.395  36.048  13.947
27921W        W89287  40.320  35.408   1.310
27922W        W89288  10.815  19.266   3.264
27923W        W89289  10.205  31.593   2.762
27924W        W89290   1.868   8.805   2.274
27925W        W89291   0.273  27.489  10.625
27926W        W89292   9.253  34.993   2.391
27927W        W89293  17.595  15.249   2.319
27928W        W89294  20.107  35.406   0.473
27929W        W89295  28.607  28.019   3.385
27930W        W89296  41.322  21.127  12.864
27931W        W89297   9.782  25.535   1.836
27932W        W89298  14.231  41.354  12.067
27933W        W89299  18.677  39.513   1.223
27934W        W89300   1.338  12.143  14.276
27935W        W89301  39.881   1.770  11.961
27936W        W89302  37.437  28.475   3.193
27937W        W89303  22.608  37.937  12.888
27938W        W89304   5.360   9.160  14.307
27939W        W89305  10.785   0.788  13.949
27940W        W89306  43.965   7.221   4.160
27941W        W89307  22.218  33.068   4.645
27942W        W89308  38.915  24.087   1.376
27943W        W89309  40.414  31.411  14.920
27944W        W89310  28.139  32.487   1.428
27945W        W89311  15.626  13.787   5.598
27946W        W89312  43.415  42.524  11.537
27947W        W89313  33.991  29.044   2.203
27948W        W89314  39.970  27.097   4.348
27949W        W89315  20.761  15.739   2.293
27950W        W89316  18.289  22.094   3.747
27951W        W89317   4.339  18.252  13.508
27952W        W89318  44.464   2.248  14.291
27953W        W89319  12.840  32.082   3.343
27954W        W89320  14.237  11.800  12.400
27955W        W89321  27.002  42.873   0.922
27956W        W89322  20.708  16.248   4.629
27957W        W89323  22.121  42.440  14.912
27958W        W89324  36.843   7.264   1.316
27959W        W89325  13.626  24.003  14.363
27960W        W89326  39.468   5.892   3.867
27961W        W89327  33.922  19.117  11.054
27962W        W89328  20.585   7.873  11.511
27963W        W89329  27.585  24.583   0.940
27964W        W89330  42.866  14.227  12.864
27965W        W89331  42.418  36.962  11.556
27966W        W89332   3.813  22.072   1.706
27967W        W89333  24.602   6.242   3.328
27968W        W89334   4.450  24.034  11.108
27969W        W89335  28.990  35.528  14.447
27970W        W89336  10.828  32.998  12.533
27971W        W89337  38.508   9.828  11.557
27972W        W89338  33.095  37.018   1.292
27973W        W89339  11.753  43.809   1.314
27974W        W89340  14.622  43.944  11.062
27975W        W89341  22.087  27.126   3.838
27976W        W89342   9.806  13.272   3.360
27977W        W89343  21.136  43.351   0.786
27978W        W89344  38.838  18.159   3.796
27979W        W89345   9.645  43.465   0.866
27980W        W89346  14.663  28.988   0.379
27981W        W89347  37.509   0.466  14.474
27982W        W89348  14.718  26.074  11.982
27983W        W89349   4.769   8.386   1.225
27984W        W89350  41.392  42.518  12.375
27985W        W89351  33.435   5.244   1.238
27986W        W89352   7.351  34.394  14.275
27987W        W89353  26.052  23.549   1.394
27988W        W89354  22.532  36.998   9.979
27989W        W89355   8.712  27.516  12.500
27990W        W89356  39.873  29.172  11.995
27991W        W89357  31.946   0.424  10.424
27992W        W89358  24.131  33.986   9.578
27993W        W89359  35.038  37.832   2.845
27994W        W89360  27.142   5.767   2.742
27995W        W89361  37.856  30.627   4.154
27996W        W89362  26.527   0.476   0.340
27997W        W89363   3.427  38.484  14.877
27998W        W89364  37.476   9.786   4.695
27999W        W89365  43.792  39.025  14.513
28000W        W89366   2.460   2.842  13.863
28001W        W89367  31.607  19.231  11.581
28002W        W89368  16.281  21.639   4.734
28003W        W89369  42.336  36.370  12.406
28004W        W89370  12.618   6.781   0.888
28005W        W89371  33.875  31.002  12.531
28006W        W89372   9.854  16.254  14.024
28007W        W89373  10.706  11.194   4.674
28008W        W89374  18.100   5.280   1.858
28009W        W89375  31.451  26.007   3.660
28010W        W89376   2.263  24.554  14.357
28011W        W89377   0.882  32.396   4.639
28012W        W89378  44.969   8.269   1.893
28013W        W89379  11.146  44.452  11.492
28014W        W89380  20.624  38.847   0.778
28015W        W89381  42.880  10.327   1.707
28016W        W89382  31.954  26.546  13.987
28017W        W89383  10.155   5.748  10.439
28018W        W89384   5.848  34.474  10.460
28019W        W89385  12.639  32.129  14.391
28020W        W89386  34.536  16.111  12.095
28021W        W89387  24.700  38.890   4.248
28022W        W89388  36.987   6.838   0.356
28023W        W89389  39.397  44.384  11.452
28024W        W89390   1.360  21.522   2.387
28025W        W89391  43.854  14.309   1.417
28026W        W89392  24.189  20.589   3.788
28027W        W89393  35.898  24.635   2.684
28028W        W89394  20.249  32.055  14.322
28029W        W89395  33.047  24.063  13.894
28030W        W89396  11.775   5.292  14.798
28031W        W89397  27.942  22.694  13.496
28032W        W89398  22.138  34.870  12.384
28033W        W89399  22.635  44.821  12.494
28034W        W89400  11.840   8.233  13.519
28035W        W89401  44.483  31.924  12.975
28036W        W89402  24.975  40.505  12.042
28037W        W89403  23.183  26.539  10.077
28038W        W89404  26.039  28.443  12.543
28039W        W89405   8.666   5.282  13.467
28040W        W89406  43.934  35.486  13.402
28041W        W89407  23.665  38.493   3.645
28042W        W89408  13.675  15.621   1.812
28043W        W89409  18.224  28.512   2.893
28044W        W89410  34.968  34.485  12.362
28045W        W89411  44.493   4.424   1.265
28046W        W89412   8.848   5.362   0.827
28047W        W89413  27.592  14.164  14.508
28048W        W89414  14.164  21.522   4.300
28049W        W89415   3.445  14.686   2.260
28050W        W89416   5.922   6.809   4.269
28051W        W89417  24.172  29.154  14.455
28052W        W89418  19.751  10.325  11.456
28053W        W89419   0.403  31.093   0.411
28054W        W89420  20.171  13.733  14.505
28055W        W89421   6.902  31.463  10.423
28056W        W89422  22.072  40.929  10.543
28057W        W89423  43.480  17.158  13.535
28058W        W89424  37.978  37.920   4.626
28059W        W89425  29.458  12.345   3.179
28060W        W89426  41.294  10.707   3.328
28061W        W89427   9.762   0.770   3.665
28062W        W89428  29.572  16.148  10.551
28063W        W89429  15.326  44.367   1.774
28064W        W89430   2.822  11.177  14.794
28065W        W89431   9.163  25.119  13.312
28066W        W89432  14.723  18.239  13.393
28067W        W89433  21.194   6.415  14.005
28068W        W89434  12.653   0.362   2.316
28069W        W89435   8.665  20.124   4.192
28070W        W89436   5.292  43.493   0.369
28071W        W89437  16.656  35.392  14.032
28072W        W89438  27.621  28.449   3.243
28073W        W89439  35.038  40.374   1.299
28074W        W89440  19.706   2.321  12.507
28075W        W89441  26.609  17.744  12.372
28076W        W89442   5.931  17.781   3.193
28077W        W89443  34.001  20.526   0.283
28078W        W89444   3.351  15.098   2.405
28079W        W89445   0.842  26.652   0.444
28080W        W89446   6.339  11.305   3.378
28081W        W89447  34.948  26.640   0.842
28082W        W89448  30.472  26.575  14.425
28083W        W89449  23.538   9.335  14.313
28084W        W89450  11.132  13.774   1.351
28085W        W89451  16.268  32.439  12.422
28086W        W89452  10.633   1.421  12.994
28087W        W89453  20.534   6.826   4.172
28088W        W89454  35.095  23.155   1.354
28089W        W89455   4.403  43.910   2.200
28090W        W89456  21.074  42.788   4.790
28091W        W89457  28.006   4.260   1.382
28092W        W89458  36.865  34.079   4.742
28093W        W89459  24.995   8.738   0.304
28094W        W89460  38.065  28.563  12.999
28095W        W89461   4.221  37.930   2.280
28096W        W89462  11.734   9.229   4.210
28097W        W89463  30.956  23.159  11.075
28098W        W89464   2.834  26.558   2.327
28099W        W89465  40.032  32.955  14.941
28100W        W89466  17.766  29.533  11.510
28101W        W89467  20.266   9.343   2.257
28102W        W89468   1.890   0.967  12.411
28103W        W89469   8.238   0.322  11.994
28104W        W89470   6.850   3.837   1.404
28105W        W89471  38.917  28.606  11.998
28106W        W89472  26.606  40.036   3.779
28107W        W89473  33.437   2.287  13.393
28108W        W89474   2.805   6.823   2.297
28109W        W89475  18.738  30.034  11.126
28110W        W89476  26.032  19.775   1.270
28111W        W89477   7.321   8.178  14.333
28112W        W89478   5.903  28.554  14.381
28113W        W89479  37.477   9.189   1.919
28114W        W89480  44.308  33.905   4.125
28115W        W89481  40.977   4.387  10.631
28116W        W89482  43.499  18.754  13.327
28117W        W89483  40.878  15.272   4.146
28118W        W89484  40.892  24.622  10.921
28119W        W89485  19.681   1.338  14.289
28120W        W89486  20.549  32.570  12.906
28121W        W89487  40.843   3.270   2.355
28122W        W89488  20.599  41.907  12.959
28123W        W89489  23.023  40.039   3.804
28124W        W89490   3.459  22.643  10.510
28125W        W89491  23.052  33.489   5.700
28126W        W89492   1.957  44.316   0.816
28127W        W89493  15.732  11.666   0.368
28128W        W89494   7.185  38.879  14.918
28129W        W89495  12.759  43.011  12.833
28130W        W89496  40.344  32.068   0.825
28131W        W89497  13.276  26.703  12.018
28132W        W89498   7.389  31.022   3.634
28133W        W89499   6.702   5.219  14.015
28134W        W89500  33.487  28.480   2.838
28135W        W89501  19.777  28.634   0.431
28136W        W89502  10.696  44.315   1.383
28137W        W89503  26.658   8.747   0.349
28138W        W89504  27.604  19.638   0.935
28139W        W89505  12.836  13.278   2.831
28140W        W89506  14.656  23.066   3.300
28141W        W89507   1.279  16.607   2.860
28142W        W89508  17.581   9.865   4.767
28143W        W89509  38.495  42.307   3.823
28144W        W89510   8.699   9.269   1.274
28145W        W89511  23.012  23.679   1.433
28146W        W89512  21.665  13.634  14.895
28147W        W89513  11.715  27.067  13.516
28148W        W89514   5.251   3.953  14.495
28149W        W89515  43.963  36.459   2.712
28150W        W89516   8.392   1.887  14.778
28151W        W89517   7.680  16.652  14.910
28152W        W89518  44.945  28.447  12.542
28153W        W89519   7.772  14.247  13.916
28154W        W89520  22.023   9.854  11.896
28155W        W89521  35.060  16.206   3.753
28156W        W89522   6.188  41.891   1.433
28157W        W89523  11.776   4.792   3.780
28158W        W89524  38.904  42.824   9.966
28159W        W89525  17.075   5.901   1.882
28160W        W89526  36.977  21.554   2.734
28161W        W89527  32.953  18.728  10.640
28162W        W89528  35.867  27.646  12.834
28163W        W89529   8.175  12.180   2.662
28164W        W89530   6.801  22.544  12.974
28165W        W89531  23.150  38.417   2.875
28166W        W89532  14.217  10.189   0.770
28167W        W89533  10.173  44.458  12.954
28168W        W89534  12.360  14.170  11.377
28169W        W89535  37.408   2.762   4.243
28170W        W89536  34.506  26.085   4.627
28171W        W89537  35.982  14.689   0.446
28172W        W89538   4.248  16.241   3.806
28173W        W89539   1.895   2.867   1.846
28174W        W89540   1.470  36.044  10.437
28175W        W89541  39.032  20.173  10.562
28176W        W89542  33.405  18.072   0.926
28177W        W89543   9.746  12.624  10.465
28178W        W89544  29.432  41.834   3.737
28179W        W89545   6.691   9.274  14.759
28180W        W89546  31.465  28.991  11.478
28181W        W89547  28.506  33.404   4.768
28182W        W89548  29.105  27.066   4.236
28183W        W89549  19.688  31.427   0.932
28184W        W89550  40.425  30.012  11.988
28185W        W89551  40.504  40.347   0.927
28186W        W89552  20.040  40.913  12.568
28187W        W89553   4.726   5.878   3.765
28188W        W89554  18.147  11.229   4.774
28189W        W89555  35.095   7.210  10.080
28190W        W89556  11.182  43.332  12.437
28191W        W89557  12.776   4.870  11.930
28192W        W89558  33.108  30.599   2.407
28193W        W89559   5.862  39.038   1.775
28194W        W89560  16.185  24.213  14.378
28195W        W89561  38.971  30.562   0.254
28196W        W89562  19.225  33.097  14.812
28197W        W89563   1.760  25.044  11.421
28198W        W89564  19.716  39.896  10.949
28199W        W89565  39.398  36.081  12.512
28200W        W89566  12.343  42.009  14.339
28201W        W89567  15.719  20.621  10.912
28202W        W89568   4.259  40.869  13.838
28203W        W89569  11.245   3.895  10.603
28204W        W89570  24.099  40.415  13.539
28205W        W89571  37.537  43.892  11.022
28206W        W89572  33.966  44.834  12.029
28207W        W89573  14.270  35.426   4.693
28208W        W89574  41.037  30.470  11.922
28209W        W89575  13.184  31.112   1.858
28210W        W89576  23.725  12.126  14.905
28211W        W89577  15.275  40.964  13.884
28212W        W89578  37.373   9.725  11.880
28213W        W89579   8.860  32.455   0.391
28214W        W89580  12.818  22.077  13.840
28215W        W89581  27.076  27.620   1.844
28216W        W89582  37.412  23.028  13.476
28217W        W89583  18.095  15.713   4.308
28218W        W89584  37.435  35.593   4.703
28219W        W89585   6.905   8.166  12.957
28220W        W89586  34.457   5.798   0.255
28221W        W89587  25.501  14.312   4.792
28222W        W89588  39.004  16.190   1.398
28223W        W89589  41.493   4.927  12.827
28224W        W89590  26.640  41.939  11.485
28225W        W89591  13.839  28.676  12.350
28226W        W89592  26.084  34.040   1.253
28227W        W89593   7.791  19.091   2.374
28228W        W89594  11.710  15.142  13.478
28229W        W89595   7.396  44.970   0.797
28230W        W89596   2.256  15.734   4.832
28231W        W89597  25.583  32.022  14.408
28232W        W89598   9.180  44.323   1.430
28233W        W89599   1.936  42.860  10.594
28234W        W89600  28.006  34.054  10.409
28235W        W89601  16.718  24.555   1.352
28236W        W89602  28.083   1.242   4.157
28237W        W89603  41.976  15.699  12.413
28238W        W89604  19.768   8.884   4.158
28239W        W89605  25.710  44.810   2.294
28240W        W89606  40.489  33.449   1.862
28241W        W89607  23.568   1.454  14.466
28242W        W89608  21.089  43.307  13.017
28243W        W89609  13.305  41.530   5.131
28244W        W89610  33.420   6.705   4.154
28245W        W89611   6.256  33.571   2.326
28246W        W89612  40.514  36.569  12.955
28247W        W89613   2.799  15.190  10.902
28248W        W89614  21.057   5.869  13.518
28249W        W89615  25.576  33.625  12.531
28250W        W89616   4.943  36.561   1.854
28251W        W89617   4.379  14.168   0.260
28252W        W89618  30.455   3.838  12.026
28253W        W89619  25.028  35.532   4.682
28254W        W89620  15.639  36.981  10.522
28255W        W89621  16.635  40.825  10.452
28256W        W89622  44.284  44.944   0.733
28257W        W89623  34.116  36.917   1.746
28258W        W89624   2.398  23.167   3.288
28259W        W89625  33.418  38.448   9.611
28260W        W89626  12.197  21.206   1.705
28261W        W89627  32.043  23.602  11.994
28262W        W89628  34.481  33.886   3.741
28263W        W89629  34.984  41.840  14.283
28264W        W89630  25.676  38.056   1.315
28265W        W89631   5.863   5.813  10.609
28266W        W89632  22.522  35.873   0.851
28267W        W89633   0.310  35.427  14.770
28268W        W89634   6.885  34.373  14.303
28269W        W89635  29.120  14.300   2.681
28270W        W89636  23.590   3.766   2.705
28271W        W89637  29.427  13.232   1.364
28272W        W89638  29.101  23.148  12.377
28273W        W89639  20.265  42.950  12.580
28274W        W89640  34.480   8.293   2.196
28275W        W89641  10.348  13.655   0.964
28276W        W89642  11.177  24.150  14.001
28277W        W89643  18.218  36.938  12.092
28278W        W89644  30.434  19.088   3.666
28279W        W89645  35.102  11.716  14.838
28280W        W89646  14.284  34.962   4.761
28281W        W89647  36.429  12.731  10.605
28282W        W89648  36.586   5.789  11.482
28283W        W89649  23.041  38.401   4.201
28284W        W89650   0.808   3.314   4.242
28285W        W89651  28.046  32.595   3.194
28286W        W89652  10.759  24.524  11.917
28287W        W89653  11.640   5.916   4.691
28288W        W89654  18.150  18.645   3.685
28289W        W89655   6.354  34.110  11.425
28290W        W89656   5.829  27.952   2.185
28291W        W89657  26.033   1.306  14.415
28292W        W89658  36.406  15.635   1.744
28293W        W89659  31.419  14.673  11.863
28294W        W89660   9.386  19.125  12.018
28295W        W89661  17.638  27.584   1.236
28296W        W89662  11.237   2.760  13.493
28297W        W89663  25.667  36.563  12.959
28298W        W89664  37.533  20.185   3.759
28299W        W89665  30.928   0.410   1.445
28300W        W89666  40.952   5.207   3.824
28301W        W89667  25.691  24.129  12.514
28302W        W89668  43.383  28.969   1.253
28303W        W89669  34.569  15.136  11.109
28304W        W89670  28.030  12.206   1.271
28305W        W89671   5.893   4.307  10.897
28306W        W89672  31.422  34.073  14.851
28307W        W89673   2.874  33.505   3.384
28308W        W89674   8.844  34.495   3.830
28309W        W89675  22.202  33.078   9.487
28310W        W89676  10.712  24.113   0.833
28311W        W89677  28.976  39.002  14.324
28312W        W89678  34.922  28.514  12.002
28313W        W89679  25.122  33.544  12.414
28314W        W89680   4.437  13.351   2.364
28315W        W89681  37.504  23.095   2.830
28316W        W89682  19.772  33.395   0.259
28317W        W89683  14.590   3.789  11.886
28318W        W89684   3.332  44.997   4.153
28319W        W89685  41.799  20.246  10.954
28320W        W89686  26.177  12.330   1.415
28321W        W89687   0.303   2.435  13.487
28322W        W89688   4.780   5.737  10.922
28323W        W89689  17.264  28.569   1.385
28324W        W89690  29.521  30.162   0.784
28325W        W89691  31.983  35.060  12.573
28326W        W89692   0.425   6.335  12.577
28327W        W89693   6.384  24.514   0.954
28328W        W89694  15.599   0.764   4.736
28329W        W89695  34.863  33.452  10.125
28330W        W89696  10.708  13.657  10.510
28331W        W89697  34.494  33.958   4.705
28332W        W89698  23.080  36.589  12.460
28333W        W89699  43.981  40.801  13.345
28334W        W89700  19.256  31.647  12.388
28335W        W89701  32.959  20.615  12.425
28336W        W89702  40.354  42.314  10.914
28337W        W89703  20.076   6.189  13.412
28338W        W89704  22.565  29.050  12.473
28339W        W89705  13.149  21.256   2.728
28340W        W89706  42.952   0.302   4.283
28341W        W89707  36.561  13.274   4.615
28342W        W89708  11.823  42.971  13.442
28343W        W89709  15.625  34.944   3.159
28344W        W89710  30.555   6.842   3.369
28345W        W89711   4.826  38.056  13.899
28346W        W89712   4.239  18.704   2.801
28347W        W89713  28.677   2.792   3.793
28348W        W89714  18.290  24.214  14.458
28349W        W89715  30.585  36.516   1.328
28350W        W89716  34.455  38.419  11.442
28351W        W89717  19.164  12.344   1.872
28352W        W89718  27.620  16.626  12.570
28353W        W89719  40.833  28.147   3.233
28354W        W89720  36.493  38.431  13.456
28355W        W89721  38.512  32.894  11.440
28356W        W89722  24.577   5.299   3.231
28357W        W89723  42.829  31.065   1.774
28358W        W89724  31.063  16.662   0.950
28359W        W89725  42.026  27.612   1.780
28360W        W89726  29.649   6.263   3.661
28361W        W89727   4.725  20.193   4.172
28362W        W89728  34.092  40.417  13.470
28363W        W89729  36.354  12.620  10.893
28364W        W89730  14.235  17.775   1.301
28365W        W89731  32.592   2.359   4.667
28366W        W89732  43.502  14.256   0.293
28367W        W89733  28.437  26.074   3.780
28368W        W89734  43.493  18.281   4.166
28369W        W89735  40.986  29.074   2.677
28370W        W89736  23.026   6.835   1.277
28371W        W89737  18.617  13.213   3.169
28372W        W89738  27.459  41.963   2.741
28373W        W89739  27.983   8.268   0.313
28374W        W89740   9.321  42.371  14.330
28375W        W89741  16.726   7.387  13.880
28376W        W89742  13.236  29.139   1.860
28377W        W89743  11.195   8.773  11.031
28378W        W89744  23.565  43.008  14.288
28379W        W89745  21.121  35.924   3.861
28380W        W89746  44.276  35.992   3.724
28381W        W89747   3.353   9.239  11.028
28382W        W89748   8.345  32.462  12.999
28383W        W89749  29.563  35.486   0.861
28384W        W89750  19.164  18.624  11.874
28385W        W89751   7.291  37.915  11.470
28386W        W89752  40.016  27.683  13.872
28387W        W89753  32.066  17.239   5.090
28388W        W89754  35.376  27.639  12.021
28389W        W89755   4.213  34.390  14.913
28390W        W89756  17.136  10.183   4.203
28391W        W89757   7.826  25.071   2.246
28392W        W89758  22.515  34.069  14.998
28393W        W89759  37.939   1.946   1.228
28394W        W89760  16.709  29.433  13.311
28395W        W89761  21.037  14.596  14.016
28396W        W89762  18.763  44.945   2.836
28397W        W89763   5.752  19.222  11.045
28398W        W89764  33.412  42.440  12.020
28399W        W89765   1.910  23.731  10.942
28400W        W89766  30.623  29.037  11.108
28401W        W89767  30.156  37.989   3.231
28402W        W89768  11.237   3.339  11.101
28403W        W89769  23.169  19.159  12.984
28404W        W89770  17.595  29.109   2.315
28405W        W89771  17.221  31.110  10.587
28406W        W89772   8.874  12.653  11.534
28407W        W89773   9.808  17.565  13.966
28408W        W89774  40.957  31.051   3.251
28409W        W89775  32.918  34.101  12.903
28410W        W89776  33.411  43.276  12.950
28411W        W89777   9.796  11.704   3.282
28412W        W89778   7.314  37.962  13.327
28413W        W89779   4.266  22.529  14.380
28414W        W89780  28.156  19.700   2.262
28415W        W89781   4.426  31.114  12.561
28416W        W89782  40.904  39.520   2.806
28417W        W89783  23.693   8.204  12.511
28418W        W89784  36.030  13.290   0.449
28419W        W89785  28.021  11.227   0.353
28420W        W89786  34.448  14.724  12.976
28421W        W89787  24.638   5.376   0.950
28422W        W89788  33.040  35.882   1.421
28423W        W89789  13.753   5.748  14.850
28424W        W89790  28.947  19.604  12.831
28425W        W89791  23.156  23.148   0.746
28426W        W89792  20.534  10.141  11.567
28427W        W89793  33.548  18.151  13.901
28428W        W89794   6.839   2.772   2.198
28429W        W89795   2.347   2.792   0.290
28430W        W89796   9.784  17.226   1.850
28431W        W89797  32.509  16.135  14.305
28432W        W89798  10.799  28.023   3.293
28433W        W89799  25.063  25.117   1.373
28434W        W89800   2.294  32.443   2.278
28435W        W89801  35.442  44.483   0.966
28436W        W89802   9.762   6.804  12.024
28437W        W89803   6.703  22.137   4.642
28438W        W89804  42.446   9.223   4.723
28439W        W89805   7.701  38.430   2.770
28440W        W89806  33.128  13.839  12.831
28441W        W89807  21.547  36.470   0.258
28442W        W89808   4.359  28.625  14.781
28443W        W89809  26.673  23.988   3.830
28444W        W89810  36.533  38.335  11.997
28445W        W89811   8.698  26.144   2.703
28446W        W89812  39.460  41.825   2.663
28447W        W89813  16.669  31.031  12.394
28448W        W89814   7.755  13.737   3.807
28449W        W89815  14.333  29.595  10.920
28450W        W89816  44.998  38.393  14.008
28451W        W89817   5.233  23.078  11.075
28452W        W89818   5.812  16.618  12.551
28453W        W89819  33.583  12.220  10.950
28454W        W89820   1.402  28.600  14.306
28455W        W89821  42.001   5.332  14.450
28456W        W89822  34.877  18.758  12.879
28457W        W89823  22.569   6.241  13.347
28458W        W89824  11.226  35.506  14.335
28459W        W89825  43.802  12.198  11.510
28460W        W89826  20.638  32.992  14.911
28461W        W89827  26.011  20.238   3.802
28462W        W89828  15.637   9.789  11.446
28463W        W89829   4.920  29.637   4.178
28464W        W89830   4.244  43.376   0.813
28465W        W89831  36.545  22.999  14.296
28466W        W89832  24.532   6.707  12.502
28467W        W89833  44.775  37.416   0.377
28468W        W89834  18.694   0.491   0.799
28469W        W89835  32.060  41.474  10.503
28470W        W89836   1.731  29.507  11.430
28471W        W89837  15.662  23.599  11.915
28472W        W89838  40.505  41.340   4.611
28473W        W89839   8.385  27.491  14.906
28474W        W89840   1.883  13.677  14.407
28475W        W89841   8.862   2.872   2.282
28476W        W89842   3.447   0.912   3.694
28477W        W89843  25.105  26.025   2.354
28478W        W89844  14.632  21.041   3.768
28479W        W89845  31.075   1.767   4.834
28480W        W89846  20.047  30.991  11.544
28481W        W89847  34.008  36.872   0.349
28482W        W89848  22.107  36.549   2.834
28483W        W89849   0.344   3.748  13.331
28484W        W89850  17.665  20.639  10.997
28485W        W89851  41.948  35.982   3.774
28486W        W89852  21.566   0.377   2.772
28487W        W89853  35.554  41.537   1.224
28488W        W89854  38.828  35.567  11.583
28489W        W89855  36.856  11.740  10.536
28490W        W89856  18.758  41.814  10.630
28491W        W89857  31.064   4.916   0.402
28492W        W89858   5.397   2.272   4.336
28493W        W89859  18.120  25.026   3.691
28494W        W89860   9.704  36.847   3.717
28495W        W89861  38.411  42.391  14.283
28496W        W89862  32.101  11.799   2.384
28497W        W89863  42.998  28.441   3.756
28498W        W89864  17.573  43.855  12.861
28499W        W89865  39.325   5.307  12.472
28500W        W89866  29.137   8.341  12.985
28501W        W89867  39.917  31.458   1.328
28502W        W89868  14.658  14.719   0.886
28503W        W89869  27.182  27.663  11.602
28504W        W89870  13.821  15.687   5.772
28505W        W89871  25.469   5.911  14.361
28506W        W89872  16.791   6.266   4.270
28507W        W89873  39.863   4.699   2.879
28508W        W89874   8.719  38.409  13.465
28509W        W89875  19.679  31.560   2.283
28510W        W89876   4.450  13.802   3.743
28511W        W89877  18.112  27.514  12.451
28512W        W89878  43.809  25.117  13.841
28513W        W89879   4.445  16.661   0.254
28514W        W89880  10.800  18.786  11.581
28515W        W89881   0.819  29.071   0.388
28516W        W89882  36.969  16.800   1.799
28517W        W89883  26.208  42.954   4.744
28518W        W89884  41.008   7.747   1.759
28519W        W89885  24.569   4.841   1.412
28520W        W89886   9.678  38.981  11.560
28521W        W89887  34.546   3.818   4.769
28522W        W89888   8.674  38.500   3.674
28523W        W89889   0.961   2.456   0.914
28524W        W89890  32.585  41.360   0.258
28525W        W89891   1.786  41.909   4.154
28526W        W89892  16.595  31.647  12.897
28527W        W89893   2.278  14.278  14.985
28528W        W89894   3.869  20.555  14.989
28529W        W89895  17.279   2.904   4.792
28530W        W89896  14.246  18.646  12.068
28531W        W89897   1.866  38.885   0.480
28532W        W89898  37.953  20.649  12.418
28533W        W89899   6.365  11.169   1.247
28534W        W89900  40.377   7.800   2.238
28535W        W89901   5.257  39.455   1.372
28536W        W89902   8.375   8.782   0.337
28537W        W89903  38.950  30.572   3.221
28538W        W89904   3.397   8.869  12.849
28539W        W89905  24.003  44.809  11.420
28540W        W89906  10.818  27.998  13.913
28541W        W89907   1.971  18.637  14.478
28542W        W89908  15.764   5.218  13.055
28543W        W89909  32.622  40.921   5.670
28544W        W89910  14.748   5.429   3.354
28545W        W89911  38.928  40.476  13.912
28546W        W89912  13.782  25.525  10.979
28547W        W89913  44.303  11.220   2.277
28548W        W89914  39.044  24.581   0.770
28549W        W89915  36.430  25.560   3.729
28550W        W89916   1.301  20.620  12.451
28551W        W89917  41.962  22.076   3.336
28552W        W89918   5.432  14.725   1.410
28553W        W89919  40.379  31.957  12.090
28554W        W89920  24.049  10.764  12.489
28555W        W89921  36.021   6.846  14.369
28556W        W89922  10.730  27.029  14.464
28557W        W89923  34.425  39.918   2.221
28558W        W89924  40.493   9.768   3.228
28559W        W89925  44.347  41.884   1.888
28560W        W89926  34.899  16.283   4.802
28561W        W89927  42.463  11.625   3.193
28562W        W89928  15.136  39.328  11.374
28563W        W89929  20.210  14.317  12.940
28564W        W89930  33.500  25.584  11.533
28565W        W89931  40.849  35.448   0.274
28566W        W89932  27.184  14.758  10.925
28567W        W89933  44.468  42.517  13.499
28568W        W89934  30.051  38.521   1.723
28569W        W89935   0.845  44.316  13.485
28570W        W89936  15.177   2.307   4.713
28571W        W89937  21.055  13.166  10.610
28572W        W89938   1.805  10.868  13.888
28573W        W89939  30.460  39.993  13.895
28574W        W89940  20.080  38.440   0.779
28575W        W89941  33.014  12.768   4.329
28576W        W89942  29.956   6.704   3.176
28577W        W89943  18.296  29.434  14.416
28578W        W89944  28.021  11.736  10.977
28579W        W89945  35.494  19.721  11.411
28580W        W89946  30.618  28.003  13.850
28581W        W89947  13.304  38.848   1.297
28582W        W89948  20.629  41.453   4.707
28583W        W89949  14.664  38.956   3.691
28584W        W89950  11.320  10.251  11.570
28585W        W89951  23.116  18.053   0.359
28586W        W89952  26.557  42.360   2.356
28587W        W89953   7.178  42.518   1.914
28588W        W89954  14.221  28.481   0.313
28589W        W89955  33.942  38.550  12.386
28590W        W89956  34.091  29.136  11.966
28591W        W89957   1.968  26.622  10.962
28592W        W89958  14.097  44.975  12.367
28593W        W89959  30.507  38.440  14.027
28594W        W89960  18.650  10.227  11.937
28595W        W89961   9.326  19.768  14.407
28596W        W89962  18.700   2.791  12.995
28597W        W89963  32.538   9.312  13.497
28598W        W89964  34.549  37.391   0.959
28599W        W89965  11.261   2.338   1.295
28600W        W89966   2.400  28.564  10.056
28601W        W89967  29.502  28.157  12.945
28602W        W89968  32.917   5.794   3.659
28603W        W89969  36.070  29.562  12.427
28604W        W89970  13.674  13.731  13.822
28605W        W89971  33.542  42.317  14.992
28606W        W89972  42.336  11.848   1.856
28607W        W89973  13.828  12.242  11.553
28608W        W89974   8.836   1.974   2.727
28609W        W89975  38.431  22.518   1.237
28610W        W89976  29.574  30.959   3.813
28611W        W89977  12.170  31.632   0.381
28612W        W89978   7.231  30.562   1.310
28613W        W89979  30.542  23.723  10.055
28614W        W89980  24.624   2.830  14.278
28615W        W89981  11.359  26.510  11.951
28616W        W89982  23.161  37.444   4.179
28617W        W89983  32.059  26.471   2.814
28618W        W89984  30.532  23.621   0.441
28619W        W89985  29.616  19.067   0.326
28620W        W89986  20.042  37.039   3.717
28621W        W89987  41.298  41.786   4.197
28622W        W89988  25.203  42.356  14.851
28623W        W89989  11.235  20.109  14.767
28624W        W89990  21.166  43.937   3.788
28625W        W89991  11.368   2.284   4.261
28626W        W89992   4.804  13.210   2.360
28627W        W89993  33.428   3.242  12.048
28628W        W89994   7.801   2.756  12.937
28629W        W89995  25.624  22.558   0.302
28630W        W89996  19.688  42.373   4.629
28631W        W89997  28.021  23.706  13.868
28632W        W89998  17.286   8.378  14.377
28633W        W89999   7.357  34.092   2.870
28634W        W90000  29.041  13.313   4.643
28635W        W90001  30.552  44.954  13.531
28636W        W90002  28.517   8.703   1.914
28637W        W90003  10.837  41.382   4.734
28638W        W90004  32.074  36.494  13.489
28639W        W90005  44.387  19.125  11.084
28640W        W90006  33.049  24.177   2.317
28641W        W90007  18.622   5.203  11.552
28642W        W90008  44.445  40.443   4.232
28643W        W90009  13.319  23.131   2.878
28644W        W90010  28.538   7.869   3.685
28645W        W90011  11.312  24.649   3.731
28646W        W90012  17.794  23.068  12.561
28647W        W90013   6.324   7.372   2.223
28648W        W90014  37.891   3.907  11.538
28649W        W90015  16.177  35.446  11.569
28650W        W90016  43.852  36.925   2.347
28651W        W90017  13.270  20.743  13.537
28652W        W90018  15.777  43.878  11.960
28653W        W90019   3.714  14.779  12.517
28654W        W90020  22.520  21.555   3.681
28655W        W90021  28.078  33.950   0.821
28656W        W90022  30.122  13.644  14.419
28657W        W90023  35.016  11.361  12.899
28658W        W90024  21.152  20.252  11.475
28659W        W90025   9.381  39.507   1.343
28660W        W90026  13.328  31.113   3.240
28661W        W90027  20.718  27.006  12.987
28662W        W90028  29.494  26.608  11.371
28663W        W90029  33.620  32.588  11.085
28664W        W90030  30.054  44.332   1.788
28665W        W90031  30.486  40.344   4.252
28666W        W90032   6.270  24.146  11.998
28667W        W90033  29.069  38.065   3.246
28668W        W90034  24.044   4.723  11.372
28669W        W90035   8.674  43.871   3.835
28670W        W90036  15.759  14.823  13.457
28671W        W90037  28.043   4.231  12.537
28672W        W90038  43.973   3.839   0.807
28673W        W90039   7.313   0.330   0.775
28674W        W90040  39.956  36.347  13.514
28675W        W90041  42.942  34.385   1.392
28676W        W90042   2.867  24.488  11.485
28677W        W90043  17.157  32.083   1.724
28678W        W90044  20.033  24.210   3.365
28679W        W90045  14.659   9.859   4.245
28680W        W90046  17.723  26.630  10.546
28681W        W90047  25.996  42.282   1.326
28682W        W90048  15.228  22.703   2.807
28683W        W90049  33.414   9.229  11.582
28684W        W90050  15.300   9.174   1.809
28685W        W90051  26.532  27.462  11.933
28686W        W90052  24.717  28.450   1.881
28687W        W90053  44.967  25.516  10.573
28688W        W90054  18.572  12.672  11.088
28689W        W90055  26.553  29.538   0.854
28690W        W90056  42.392  14.790   3.833
28691W        W90057  26.600   7.236   0.868
28692W        W90058  37.579  14.188  13.475
28693W        W90059  12.128  17.170   2.816
28694W        W90060  36.952  36.451   2.245
28695W        W90061   1.754  17.103   5.309
28696W        W90062  20.725   5.814  10.505
28697W        W90063  12.685  34.399  10.959
28698W        W90064  31.569  16.651   2.185
28699W        W90065  43.495  14.149   5.184
28700W        W90066  21.118  28.579   1.706
28701W        W90067   6.226   3.427   2.817
28702W        W90068  38.833  14.815   4.347
28703W        W90069   8.660  39.366  14.409
28704W        W90070  43.490  41.476  13.417
28705W        W90071  26.527   4.936  12.458
28706W        W90072  20.186  44.947   3.248
28707W        W90073  30.110   8.174   4.279
28708W        W90074  11.628  26.129   3.214
28709W        W90075   0.839  36.582   3.162
28710W        W90076  10.687  36.510  13.003
28711W        W90077  16.712  36.911  11.058
28712W        W90078  24.555  42.420  12.038
28713W        W90079  42.924  37.022  12.461
28714W        W90080  20.101  19.625  12.941
28715W        W90081  18.646  34.944  12.879
28716W        W90082  27.560  10.722  12.487
28717W        W90083  26.144  22.084   3.244
28718W        W90084   3.370  18.718  12.497
28719W        W90085  15.205  12.685   2.674
28720W        W90086  35.891  25.595  13.997
28721W        W90087   0.480  36.447   2.263
28722W        W90088   0.813  34.400   4.147
28723W        W90089  11.745  20.766  11.613
28724W        W90090  27.639  33.482   1.291
28725W        W90091  41.979  44.501  11.607
28726W        W90092  17.171  22.195  11.415
28727W        W90093  26.541   0.480  11.984
28728W        W90094  16.572   5.850  11.971
28729W        W90095   8.327  43.465  14.383
28730W        W90096  41.426  25.161  14.900
28731W        W90097  15.100  11.663  10.966
28732W        W90098   2.276  28.146  12.044
28733W        W90099   8.664  44.862  12.036
28734W        W90100  42.871  19.182   4.643
28735W        W90101  36.077  36.503   4.758
28736W        W90102   1.273  43.945  11.063
28737W        W90103  41.024  33.909  11.561
28738W        W90104  41.466  22.559  11.861
28739W        W90105  37.070  26.556   0.329
28740W        W90106  22.502  30.983  10.423
28741W        W90107  14.274  32.398  13.820
28742W        W90108   5.740  10.806   2.708
28743W        W90109  32.540   7.406  10.598
28744W        W90110  44.499   1.279  11.568
28745W        W90111  40.391   8.726   3.802
28746W        W90112   5.319  11.284  12.538
28747W        W90113  38.496  16.250  12.974
28748W        W90114  30.552  25.983  10.453
28749W        W90115  15.226  31.443  14.844
28750W        W90116  14.751  27.156  13.462
28751W        W90117  19.197  34.475   0.318
28752W        W90118  34.100  20.760  13.826
28753W        W90119   8.721  42.465   2.256
28754W        W90120  34.033  44.760   0.422
28755W        W90121   8.268   3.813   2.779
28756W        W90122  34.924  15.241  13.429
28757W        W90123  18.590  23.085  12.459
28758W        W90124  25.051  43.453  11.038
28759W        W90125  16.761  14.139   3.677
28760W        W90126  35.986  36.074   1.919
28761W        W90127  13.133  34.450   3.732
28762W        W90128  26.530   2.339  10.906
28763W        W90129  19.176  14.730  14.466
28764W        W90130  34.990  28.150   4.788
28765W        W90131  39.492  35.905   0.899
28766W        W90132  41.887   3.860   2.290
28767W        W90133  30.511  43.276  11.440
28768W        W90134  25.683  21.073   1.259
28769W        W90135  20.099  38.058   1.438
28770W        W90136  29.004   5.870   0.426
28771W        W90137  36.566  34.465  11.047
28772W        W90138  26.599  17.651  10.924
28773W        W90139  28.628   6.813  14.378
28774W        W90140  33.960  16.732  13.936
28775W        W90141  12.621   8.846   4.161
28776W        W90142   1.935  14.713   1.443
28777W        W90143   5.316  43.476  13.039
28778W        W90144  13.681   2.452  13.371
28779W        W90145  38.018   4.803  10.973
28780W        W90146  19.745  23.041   1.741
28781W        W90147  33.096  11.684  14.996
28782W        W90148   5.789  35.909   4.688
28783W        W90149  17.709   1.374   4.267
28784W        W90150  38.326  36.098  10.508
28785W        W90151  13.337   4.899   0.933
28786W        W90152   4.282  42.361   2.688
28787W        W90153  19.765  16.627   4.678
28788W        W90154   3.856  35.971  13.547
28789W        W90155   7.321  30.624  13.416
28790W        W90156  17.612   0.878  12.344
28791W        W90157   5.392  40.448   3.343
28792W        W90158  40.899  20.726  12.855
28793W        W90159   5.231  18.633  12.858
28794W        W90160  29.994  25.482  13.545
28795W        W90161  44.831  12.135  10.964
28796W        W90162   9.239  16.249  12.352
28797W        W90163  19.597  35.508   1.449
28798W        W90164  38.347   3.808  13.547
28799W        W90165  32.931  23.732  13.835
28800W        W90166  31.471   5.924  10.967
28801W        W90167  37.061  34.037  12.523
28802W        W90168  34.086  43.855  14.301
28803W        W90169  34.023  26.055   1.234
28804W        W90170  18.758  19.067  10.406
28805W        W90171  41.900  37.431   5.101
28806W        W90172  44.923   9.778  11.924
28807W        W90173  42.789   4.371   0.958
28808W        W90174  23.006  22.219  12.070
28809W        W90175  14.831  18.146  14.390
28810W        W90176  31.128  17.742   4.289
28811W        W90177   3.861   1.308   0.306
28812W        W90178   0.871   0.837   4.626
28813W        W90179  28.479  21.525  10.987
28814W        W90180  33.916  44.438  14.020
28815W        W90181  28.591  12.254  14.417
28816W        W90182  36.379  28.047   0.259
28817W        W90183   6.392  16.660  11.543
28818W        W90184   4.389  40.826   0.920
28819W        W90185   8.294  17.095   0.243
28820W        W90186   6.904   6.270   2.745
28821W        W90187   1.304  43.813  14.810
28822W        W90188  30.017  39.860  11.571
28823W        W90189  31.434  23.526  10.963
28824W        W90190   5.736  36.470   3.371
28825W        W90191  32.598  18.294   1.449
28826W        W90192  19.600  33.453   2.745
28827W        W90193   4.419   1.434  11.603
28828W        W90194  29.137  33.918   3.293
28829W        W90195  21.585  37.472   4.154
28830W        W90196  43.445  29.059  11.581
28831W        W90197  11.219  24.067  13.392
28832W        W90198  17.699  27.495   0.331
28833W        W90199  31.599  33.124   2.834
28834W        W90200  17.222  31.430  14.292
28835W        W90201  43.359  19.595   5.320
28836W        W90202  33.951  19.730  13.812
28837W        W90203  40.401  14.331  10.463
28838W        W90204  23.155  17.116  11.514
28839W        W90205  18.174  14.713  12.000
28840W        W90206  17.136   2.858   3.778
28841W        W90207   2.899   5.264   1.747
28842W        W90208  42.479  40.900   4.657
28843W        W90209  21.119  20.552   3.870
28844W        W90210  36.088  34.108  13.834
28845W        W90211  18.678  44.858  13.932
28846W        W90212  40.866  17.656   0.427
28847W        W90213  44.269   7.726  10.472
28848W        W90214  40.410  34.476   5.242
28849W        W90215  20.746  33.617   4.686
28850W        W90216  39.550  20.071   4.129
28851W        W90217   8.745  39.537   3.291
28852W        W90218  41.300   5.193  13.859
28853W        W90219  14.834  44.480   3.323
28854W        W90220   1.811  30.465   0.946
28855W        W90221   0.315   9.221  13.435
28856W        W90222  44.261  22.036   2.411
28857W        W90223  28.929  37.511  14.816
28858W        W90224  20.118   9.298  14.428
28859W        W90225  22.561   8.678  10.065
28860W        W90226  15.715  23.702  12.507
28861W        W90227  37.048  23.992   0.774
28862W        W90228  26.054   4.885  10.899
28863W        W90229  17.087  13.816   1.802
28864W        W90230  22.218  16.597   0.898
28865W        W90231  43.380  17.281  11.944
28866W        W90232  44.502  12.214   3.272
28867W        W90233  41.831  42.378  13.952
28868W        W90234  24.223  10.340   0.451
28869W        W90235  19.748   0.444  14.309
28870W        W90236  24.199  27.484  13.900
28871W        W90237  28.983   0.377  14.876
28872W        W90238  23.212  43.467  11.954
28873W        W90239  38.835   2.256  10.564
28874W        W90240  12.302  27.675   3.732
28875W        W90241  10.633   4.864   3.230
28876W        W90242  26.135   1.302   2.194
28877W        W90243  35.941   7.761  11.949
28878W        W90244   4.235  17.226  12.984
28879W        W90245  16.659  22.543  14.984
28880W        W90246   8.899   5.405  12.426
28881W        W90247   8.229   4.225   3.335
28882W        W90248  36.050  26.494  12.481
28883W        W90249  41.334  14.145  11.451
28884W        W90250   9.284  29.543  12.580
28885W        W90251   5.321  25.544  14.362
28886W        W90252  37.559  41.315   4.340
28887W        W90253   2.438  12.817   4.684
28888W        W90254   6.353  20.243   0.913
28889W        W90255  10.732   9.712  13.309
28890W        W90256   6.237  33.388  10.977
28891W        W90257  20.139   1.748   0.745
28892W        W90258  41.408  17.118  13.886
28893W        W90259  34.524  40.813  10.446
28894W        W90260  21.673   1.948  10.587
28895W        W90261  15.225   1.774  13.948
28896W        W90262   5.902  15.728  11.118
28897W        W90263  12.620  18.653  12.908
28898W        W90264  36.496  44.391   2.682
28899W        W90265  30.083  12.701   4.797
28900W        W90266  16.128   7.207   0.245
28901W        W90267  27.982  41.327  10.555
28902W        W90268   3.281  11.754   1.224
28903W        W90269  28.491  21.168  11.379
28904W        W90270  41.463  28.534   3.202
28905W        W90271  11.753  42.964   0.897
28906W        W90272  11.332  30.555  13.025
28907W        W90273  41.985  14.834  12.968
28908W        W90274   9.202  41.419  11.401
28909W        W90275  34.953  43.018  12.889
28910W        W90276   4.763  11.747  14.776
28911W        W90277  42.414  20.157  13.833
28912W        W90278  21.224   1.736   1.247
28913W        W90279  14.646  29.172  11.477
28914W        W90280   0.491  29.475   2.765
28915W        W90281  16.254  22.149   2.327
28916W        W90282  39.985  39.494  13.949
28917W        W90283  29.551   7.767   4.229
28918W        W90284  13.621  33.014   3.236
28919W        W90285  29.989  19.236  11.588
28920W        W90286  19.117  29.050  14.878
28921W        W90287  15.099  22.119   4.718
28922W        W90288  42.484  12.259   2.223
28923W        W90289  25.975  34.599   4.633
28924W        W90290  42.955   2.389   5.188
28925W        W90291  16.183  26.031   2.680
28926W        W90292  24.505  40.456  14.377
28927W        W90293  18.782   4.861   0.912
28928W        W90294  35.934  30.460  12.342
28929W        W90295  21.214   8.305   1.428
28930W        W90296  26.595  27.991  13.540
28931W        W90297   4.926  37.352  10.067
28932W        W90298  13.601  10.636   1.717
28933W        W90299   7.187  17.569   2.232
28934W        W90300   9.364  32.069   4.288
28935W        W90301  36.983  33.568   2.739
28936W        W90302   9.662  20.092  12.427
28937W        W90303  32.595  34.426  12.851
28938W        W90304  31.527  30.448  14.900
28939W        W90305  18.564  25.159  13.033
28940W        W90306  38.845  29.977  12.010
28941W        W90307  17.225  16.267  12.057
28942W        W90308  15.644  31.542  11.017
28943W        W90309   8.849  39.407   2.211
28944W        W90310   6.767   2.791  11.963
28945W        W90311   1.823  16.726  12.892
28946W        W90312  42.323  12.225  14.791
28947W        W90313  15.100  43.783   0.909
28948W        W90314   5.430  15.301  11.907
28949W        W90315  19.605  23.586   0.952
28950W        W90316  28.553  22.733   1.320
28951W        W90317  44.949  39.058  11.395
28952W        W90318  11.724   1.854  14.855
28953W        W90319  20.684  12.857  12.019
28954W        W90320  25.115  33.480  14.944
28955W        W90321  20.098  19.728  13.413
28956W        W90322  16.187  44.273   0.422
28957W        W90323  21.637  31.045  14.759
28958W        W90324  31.935  16.101   4.318
28959W        W90325  28.437  21.171  10.477
28960W        W90326   4.439  40.491   2.709
28961W        W90327   3.820  13.781  14.455
28962W        W90328  38.950  20.120  10.897
28963W        W90329  12.278  30.469  11.876
28964W        W90330  20.088  25.182   5.291
28965W        W90331  25.134  43.022  13.980
28966W        W90332   9.883  40.855  12.986
28967W        W90333   6.336  43.402   3.697
28968W        W90334  34.941  42.789   5.247
28969W        W90335  16.801  18.597  12.891
28970W        W90336   4.286  42.951   9.992
28971W        W90337  42.776  22.594  11.879
28972W        W90338  23.038  10.246   3.635
28973W        W90339   6.888  36.470   4.253
28974W        W90340  40.962  20.211   1.262
28975W        W90341  39.556   4.944  12.375
28976W        W90342   6.908  16.668   3.194
28977W        W90343  39.399   1.800   1.847
28978W        W90344   1.972   9.848  13.962
28979W        W90345  18.244  11.210  11.126
28980W        W90346  43.385   1.768  13.810
28981W        W90347  30.513  10.207   0.293
28982W        W90348  33.487  10.777  12.944
28983W        W90349  38.997  17.068   0.365
28984W        W90350   4.863  26.970   0.271
28985W        W90351  16.567  26.658  12.873
28986W        W90352  19.159  26.616   4.831
28987W        W90353  29.948   8.368   1.274
28988W        W90354  15.176   9.326  12.053
28989W        W90355  28.079   3.752  12.364
28990W        W90356   0.869  31.492  13.956
28991W        W90357  38.913  24.512   1.367
28992W        W90358  18.659   4.762  11.907
28993W        W90359  23.204  37.870   0.752
28994W        W90360  32.500  22.733   2.898
28995W        W90361  25.159  35.897  12.435
28996W        W90362  19.259  43.347   2.732
28997W        W90363   7.693  41.498   3.155
28998W        W90364  27.605  29.618   5.176
28999W        W90365   0.384  13.838  14.481
29000W        W90366  33.080  25.147   3.767
29001W        W90367  14.225  12.821  12.523
29002W        W90368  42.438  15.289   0.753
29003W        W90369  38.058  17.611   0.869
29004W        W90370  11.330  35.400   4.238
29005W        W90371  17.731   4.880  11.015
29006W        W90372  42.910   6.810  12.865
29007W        W90373  36.441  23.172   2.320
29008W        W90374  27.952  40.929   4.145
29009W        W90375  36.473  30.498   2.399
29010W        W90376  23.067  20.144  14.871
29011W        W90377  12.740   9.351   0.856
29012W        W90378  31.550  43.514  13.338
29013W        W90379  15.233  44.287  11.380
29014W        W90380  41.467   3.943  12.513
29015W        W90381  44.943  27.683   3.259
29016W        W90382  44.348  22.617  10.967
29017W        W90383  44.005  28.586   2.706
29018W        W90384  21.614  29.591  14.918
29019W        W90385   3.748  35.549  12.076
29020W        W90386  35.477  11.214   0.332
29021W        W90387   6.718  35.876  13.002
29022W        W90388  13.299  35.362   0.462
29023W        W90389  17.657  15.135   0.874
29024W        W90390  36.974  42.954  12.957
29025W        W90391   7.353  18.264   0.815
29026W        W90392   9.761   6.818   3.356
29027W        W90393  24.148  32.524   1.354
29028W        W90394   9.312   0.469  11.984
29029W        W90395  41.037   4.245  14.499
29030W        W90396  35.406   3.236  13.515
29031W        W90397   6.746   9.176  13.904
29032W        W90398  38.026   7.205   4.684
29033W        W90399  32.047  26.974  11.953
29034W        W90400  35.423   0.984  11.915
29035W        W90401   7.898  41.879  10.508
29036W        W90402  39.406  17.233  11.929
29037W        W90403  42.355  37.963   1.927
29038W        W90404  12.191  12.298   3.850
29039W        W90405  17.265   6.909  12.911
29040W        W90406  14.743  14.161  14.889
29041W        W90407  21.103  27.538   4.710
29042W        W90408  43.429  33.967   1.819
29043W        W90409  26.976  12.352   4.255
29044W        W90410   1.475  41.524   2.191
29045W        W90411  12.188   2.467   0.294
29046W        W90412  13.189  37.550   2.311
29047W        W90413  18.684  36.348   0.772
29048W        W90414  44.757  18.062  12.052
29049W        W90415  15.640  33.401   2.206
29050W        W90416  15.151  35.523   2.868
29051W        W90417   2.807   7.338   2.812
29052W        W90418  20.724   2.862   4.192
29053W        W90419  20.687  21.695  10.406
29054W        W90420  35.368  30.460  13.498
29055W        W90421  34.032  22.232   3.822
29056W        W90422   3.362  36.018   2.875
29057W        W90423  23.193   3.258   1.894
29058W        W90424  35.448  16.098   0.821
29059W        W90425  37.405  43.436  13.422
29060W        W90426   9.645  21.204   4.151
29061W        W90427  36.444   3.383   5.166
29062W        W90428  17.214   9.205  12.546
29063W        W90429  36.974  24.499   0.387
29064W        W90430  12.226  14.329   0.462
29065W        W90431  40.037  32.481  10.467
29066W        W90432  32.924   1.888   1.245
29067W        W90433  36.555  13.755   1.295
29068W        W90434  19.740  40.969   2.725
29069W        W90435   4.320  31.974  12.571
29070W        W90436  29.953  35.074  12.857
29071W        W90437  44.448  42.353   4.809
29072W        W90438  23.727   7.294   3.262
29073W        W90439   3.361  16.647   9.572
29074W        W90440  37.962  31.413  12.058
29075W        W90441  43.935  39.880   4.234
29076W        W90442  29.168  31.420   0.931
29077W        W90443  29.960  26.986   0.478
29078W        W90444  24.131  12.827  10.471
29079W        W90445  22.518  24.037  11.115
29080W        W90446  39.809  16.699  12.573
29081W        W90447  36.846  33.969   3.264
29082W        W90448  36.570  39.065   1.426
29083W        W90449  36.505  30.131   0.264
29084W        W90450  16.648  20.683  12.876
29085W        W90451  15.648  28.644  11.874
29086W        W90452  32.986  29.518  14.429
29087W        W90453   3.385  35.408  11.373
29088W        W90454  27.127   3.823  10.930
29089W        W90455  39.547  30.961   2.710
29090W        W90456   4.826   0.742  14.414
29091W        W90457  30.044  41.301   3.650
29092W        W90458  40.510  15.092   2.215
29093W        W90459  12.180  30.950  13.339
29094W        W90460  36.585  32.556  10.429
29095W        W90461  30.564  12.697  12.050
29096W        W90462  42.358  40.379  13.984
29097W        W90463  16.717  13.823  13.487
29098W        W90464   6.187  18.066   9.981
29099W        W90465  10.815  33.436  13.937
29100W        W90466  11.773  36.035  14.493
29101W        W90467  20.235   3.304   0.464
29102W        W90468   9.781  43.843  12.476
29103W        W90469  13.253   4.405  10.559
29104W        W90470  28.512   6.311   1.339
29105W        W90471  24.705  19.676  10.899
29106W        W90472  15.714  37.468   2.751
29107W        W90473  35.990   0.457   4.612
29108W        W90474   6.349  41.910  13.526
29109W        W90475  39.445   3.722   2.804
29110W        W90476  43.460  16.146  13.517
29111W        W90477  20.056  15.296   4.656
29112W        W90478  13.153  41.334  13.530
29113W        W90479  29.983  15.239   4.688
29114W        W90480   5.200  32.075  14.876
29115W        W90481  32.912  22.548   0.909
29116W        W90482  26.088  19.658  14.293
29117W        W90483  37.849  25.660  12.439
29118W        W90484  33.621  42.930   1.421
29119W        W90485  29.437  18.257   1.227
29120W        W90486  36.510  21.739  14.030
29121W        W90487  38.974  23.050   4.735
29122W        W90488  21.145  39.379   3.189
29123W        W90489  28.491  18.173   3.150
29124W        W90490  11.826  27.454  13.492
29125W        W90491  16.315   6.361   1.776
29126W        W90492  36.371  21.212  14.394
29127W        W90493  42.420  28.962   0.351
29128W        W90494  43.020  40.397   4.826
29129W        W90495  40.993  24.673  13.876
29130W        W90496  31.040  23.234  11.936
29131W        W90497  26.550  25.049   0.438
29132W        W90498   3.390  27.610   1.872
29133W        W90499  43.345  41.020  12.946
29134W        W90500  25.678  19.086  12.031
29135W        W90501  30.100  44.307  12.476
29136W        W90502  21.143  34.509   2.700
29137W        W90503  38.467   8.710  14.836
29138W        W90504  34.907   9.697   4.335
29139W        W90505  20.726  41.896  11.900
29140W        W90506  37.913  35.564  12.425
29141W        W90507  31.552   2.276   4.240
29142W        W90508   9.824   2.879   0.350
29143W        W90509   7.306  13.148  12.984
29144W        W90510   9.853  34.095   1.282
29145W        W90511   4.749  43.274  13.812
29146W        W90512   0.869  31.122   1.277
29147W        W90513  10.185  11.159  13.347
29148W        W90514   3.458  40.434   3.866
29149W        W90515  14.647  10.636  11.388
29150W        W90516  36.878  22.166  13.980
29151W        W90517  37.944  44.270   1.783
29152W        W90518   9.762  30.961   3.720
29153W        W90519  32.509  27.989  10.457
29154W        W90520   6.208  18.109  14.380
29155W        W90521  36.098  42.477   4.155
29156W        W90522  31.979   5.934   2.356
29157W        W90523  39.991  15.697   0.886
29158W        W90524   8.278  10.804   0.929
29159W        W90525  11.243  13.144  14.841
29160W        W90526   1.735  30.504   5.212
29161W        W90527  16.163  41.320  10.919
29162W        W90528  15.191  12.712  13.328
29163W        W90529  29.457  22.513   3.859
29164W        W90530  42.816   4.333  11.017
29165W        W90531  43.381   6.391  12.034
29166W        W90532   6.389  32.505   2.808
29167W        W90533  25.976  34.969  10.552
29168W        W90534  23.715   4.927  13.530
29169W        W90535  27.174  32.421   3.858
29170W        W90536   0.798   6.329   2.198
29171W        W90537   4.450  27.105  10.467
29172W        W90538  13.313  41.430   2.806
29173W        W90539  29.001   5.824   1.823
29174W        W90540  31.113   7.855   1.407
29175W        W90541  37.949  25.128  14.987
29176W        W90542  14.313  43.455  13.872
29177W        W90543  11.269   7.702  13.353
29178W        W90544  16.612  15.305  14.843
29179W        W90545  12.205   8.763  14.340
29180W        W90546  35.376  36.366   3.863
29181W        W90547  31.448  11.851  10.505
29182W        W90548  31.067  23.988  13.527
29183W        W90549   5.376  28.060   0.823
29184W        W90550  15.128   9.382   3.636
29185W        W90551  30.639  20.028  13.897
29186W        W90552  16.745   9.808  10.504
29187W        W90553  17.115  23.996  12.347
29188W        W90554   5.412   6.799   5.255
29189W        W90555  22.096  14.714   1.743
29190W        W90556  15.599  13.770   0.404
29191W        W90557  36.569  44.797  14.828
29192W        W90558  11.345  12.792   0.759
29193W        W90559  19.642  14.205  14.854
29194W        W90560   1.959  34.972   3.373
29195W        W90561  11.276  28.554  13.401
29196W        W90562  25.569  24.083  11.030
29197W        W90563  17.555  19.100   3.788
29198W        W90564  22.229  32.575  13.913
29199W        W90565  31.934  38.344  11.966
29200W        W90566  20.142  35.922   3.194
29201W        W90567   8.374  43.982   4.284
29202W        W90568   3.736  19.266   1.720
29203W        W90569  12.340  39.506  10.550
29204W        W90570  15.751  12.134  10.092
29205W        W90571  16.220  44.876   0.964
29206W        W90572  11.212   1.255  11.591
29207W        W90573  44.887  40.836   1.735
29208W        W90574  19.649  29.603  13.810
29209W        W90575  25.995  35.073  14.464
29210W        W90576  15.106  37.931   2.847
29211W        W90577  34.585  19.652  12.551
29212W        W90578  22.565   5.758   1.397
29213W        W90579   8.328  26.616  13.501
29214W        W90580  22.634  40.312  10.550
29215W        W90581  26.956  29.079  12.917
29216W        W90582  40.389  16.612  14.833
29217W        W90583  38.471   9.674   0.475
29218W        W90584  16.274  32.610   1.884
29219W        W90585  12.148   2.252  11.378
29220W        W90586  39.905  24.045   1.321
29221W        W90587  37.022   7.385   3.244
29222W        W90588  26.666  19.764  14.021
29223W        W90589   4.422   6.384  13.865
29224W        W90590  24.131  25.967   4.282
29225W        W90591  12.255  31.522   1.775
29226W        W90592  33.071   5.436   3.783
29227W        W90593   7.331  25.134   2.193
29228W        W90594  44.463   7.374  12.481
29229W        W90595  13.337  38.013   3.270
29230W        W90596  12.755   7.415  10.435
29231W        W90597  33.406  18.109  11.379
29232W        W90598  29.599  11.181  14.359
29233W        W90599  37.012  21.624  14.964
29234W        W90600  35.027   6.335  14.480
29235W        W90601  11.847  17.192   0.945
29236W        W90602  27.977  20.522  13.952
29237W        W90603  16.273  20.666  14.370
29238W        W90604  20.685   7.846   3.148
29239W        W90605  30.932   6.351  13.386
29240W        W90606   3.270  20.221  13.385
29241W        W90607   3.353  21.035   3.865
29242W        W90608  18.654  44.318  13.018
29243W        W90609   4.921  35.534   4.778
29244W        W90610   8.793  15.195  11.488
29245W        W90611  41.321   4.260  13.035
29246W        W90612   3.730  19.750  10.081
29247W        W90613  12.641  34.047  11.887
29248W        W90614  26.621   0.393  14.284
29249W        W90615  18.670  24.685  12.843
29250W        W90616  26.087  41.881   3.347
29251W        W90617   9.156  42.914   0.392
29252W        W90618  16.122  31.567  10.953
29253W        W90619  39.954  40.948  14.315
29254W        W90620  44.859   3.285   2.416
29255W        W90621  32.605   1.441   3.802
29256W        W90622  26.015  27.486  13.809
29257W        W90623  31.915  16.712  11.573
29258W        W90624  25.178  39.526  14.961
29259W        W90625  19.636   6.695  11.066
29260W        W90626  19.769   2.741  14.834
29261W        W90627  35.493  10.676  13.933
29262W        W90628  39.439  14.297   2.241
29263W        W90629   4.845  40.047   0.464
29264W        W90630  36.927   0.316  13.985
29265W        W90631  26.550  44.403   4.646
29266W        W90632   2.270  33.536  12.074
29267W        W90633   2.810  16.263   3.852
29268W        W90634  44.789  35.460  14.777
29269W        W90635   7.896  33.993  14.957
29270W        W90636  22.014  15.215  14.026
29271W        W90637  40.441   4.232  14.287
29272W        W90638  25.139  24.720  11.957
29273W        W90639  15.257  19.723   5.315
29274W        W90640  27.451  15.797  11.086
29275W        W90641  11.166  22.559   1.734
29276W        W90642  10.324  43.998  14.409
29277W        W90643  16.662  42.803   9.939
29278W        W90644   9.350  31.435  14.283
29279W        W90645   4.424  18.662  10.454
29280W        W90646   7.909  25.185  10.414
29281W        W90647  17.747  35.398   4.752
29282W        W90648  30.540  20.195  14.996
29283W        W90649   1.843  17.146  11.531
29284W        W90650   0.395  29.563  12.983
29285W        W90651  12.191  42.333   4.725
29286W        W90652  42.809  32.914   3.220
29287W        W90653  29.014   6.189  14.961
29288W        W90654  24.119  12.808   2.211
29289W        W90655  23.693  43.908  12.351
29290W        W90656  11.287  36.864  10.514
29291W        W90657   8.817  21.247  13.018
29292W        W90658   3.918  25.979   1.846
29293W        W90659  24.014  44.309  11.521
29294W        W90660  44.299  28.439  12.995
29295W        W90661  23.183  14.739  10.590
29296W        W90662  42.778  19.769   0.839
29297W        W90663   0.391   9.298   0.793
29298W        W90664  23.024  33.092   2.376
29299W        W90665  19.275  21.546  13.355
29300W        W90666  32.574   2.939   3.689
29301W        W90667  29.016   3.452  12.894
29302W        W90668  16.314   4.860   2.343
29303W        W90669  42.471  20.231   3.696
29304W        W90670  17.628  22.198   0.329
29305W        W90671  25.007  14.201   4.231
29306W        W90672  31.114  19.756  12.872
29307W        W90673   3.827  20.114  13.795
29308W        W90674  17.608  35.468  12.364
29309W        W90675  25.164  40.548   3.329
29310W        W90676  14.590  14.640   2.258
29311W        W90677  38.534  41.536   2.669
29312W        W90678  16.284  25.572  13.505
29313W        W90679  21.252  15.237  10.061
29314W        W90680   9.889  13.843   1.284
29315W        W90681  18.154  44.370   0.345
29316W        W90682  38.327  20.730  13.427
29317W        W90683  39.912  15.187   4.114
29318W        W90684   9.291  35.487  11.953
29319W        W90685  11.366  39.003   1.322
29320W        W90686  20.592  19.710   0.436
29321W        W90687  43.403   1.436  10.607
29322W        W90688  23.072  15.105   3.677
29323W        W90689  26.609  38.493  10.429
29324W        W90690  31.002  11.657  12.955
29325W        W90691   7.762  23.029   2.794
29326W        W90692  18.256  14.643   5.645
29327W        W90693  13.256   4.385   3.279
29328W        W90694  25.471  27.673  12.925
29329W        W90695   8.182  24.724  12.574
29330W        W90696  29.042  38.560  11.559
29331W        W90697  29.931  44.796   0.893
29332W        W90698  41.531   0.745  14.998
29333W        W90699  21.678  23.512  12.056
29334W        W90700   0.960   7.772   0.348
29335W        W90701  29.513  43.280  12.902
29336W        W90702  30.133   3.317   2.419
29337W        W90703  19.610  38.991   4.136
29338W        W90704  21.727  42.979  10.932
29339W        W90705   8.896  29.649  10.951
29340W        W90706  17.284  39.453  13.388
29341W        W90707  21.090  14.603   4.814
29342W        W90708   0.887  14.142   4.641
29343W        W90709  29.534   0.833  11.883
29344W        W90710  32.100  27.168   4.831
29345W        W90711  34.987   9.888  12.538
29346W        W90712  40.387  36.500  14.289
29347W        W90713  40.991  12.714   1.787
29348W        W90714  32.613   5.388   0.315
29349W        W90715  14.651  33.047  13.540
29350W        W90716  29.444   1.975   2.232
29351W        W90717  21.082  23.537  11.590
29352W        W90718  29.008   9.808  10.588
29353W        W90719  19.674  18.107   1.765
29354W        W90720  41.428  42.017   2.865
29355W        W90721  33.985  25.103   0.281
29356W        W90722  31.616  26.524  11.095
29357W        W90723   1.824  24.659   3.800
29358W        W90724  25.123  34.962  14.835
29359W        W90725  36.557  34.979   3.866
29360W        W90726  19.120  16.100  14.487
29361W        W90727  12.342   4.261  13.059
29362W        W90728  32.071  30.464  11.514
29363W        W90729   6.805  22.234  11.594
29364W        W90730  33.602  16.787  13.517
29365W        W90731  15.743   8.886   2.689
29366W        W90732  34.053  35.574   1.309
29367W        W90733   1.274  35.049   2.292
29368W        W90734   5.351   6.887  11.580
29369W        W90735   9.887   8.779   4.621
29370W        W90736   4.924  36.583  13.888
29371W        W90737  30.930  41.418  14.801
29372W        W90738   8.655   3.272   3.659
29373W        W90739  15.100  10.373  14.288
29374W        W90740  25.686  33.918  14.369
29375W        W90741  27.620  23.636  12.373
29376W        W90742  35.936  39.503  12.841
29377W        W90743  33.513   1.737   1.221
29378W        W90744  27.076  18.205  11.954
29379W        W90745  26.490  33.985  11.001
29380W        W90746   9.255  32.577   1.300
29381W        W90747  36.567  27.541   3.763
29382W        W90748   7.736  36.974   2.712
29383W        W90749   4.427  17.692  14.338
29384W        W90750   8.662  41.327  13.797
29385W        W90751   5.438  42.459  12.885
29386W        W90752  30.544   3.780   1.280
29387W        W90753  26.495  33.023  13.984
29388W        W90754  25.070  41.318   2.851
29389W        W90755   0.889  25.990   4.712
29390W        W90756   4.771  16.248  14.409
29391W        W90757  24.674  36.523   0.320
29392W        W90758  35.511  39.492   1.353
29393W        W90759  21.599  36.007   9.944
29394W        W90760  42.493  30.469  14.821
29395W        W90761   0.432  14.824   3.198
29396W        W90762   3.282   6.326   3.153
29397W        W90763  41.308  31.968  11.483
29398W        W90764  12.817  31.971  12.511
29399W        W90765   2.361  33.449   1.794
29400W        W90766   1.444  41.419  13.456
29401W        W90767  22.715  33.611  12.872
29402W        W90768  37.451  42.840   2.186
29403W        W90769  16.200   9.257  10.544
29404W        W90770  21.232  37.078   0.341
29405W        W90771  32.115  42.833   0.842
29406W        W90772  31.078  26.643   5.212
29407W        W90773   2.414  38.518   4.146
29408W        W90774  11.347   8.368   1.914
29409W        W90775  11.673  40.505   2.251
29410W        W90776  29.935  12.194  14.006
29411W        W90777  12.179   6.261  14.467
29412W        W90778   4.256   9.726   3.748
29413W        W90779  16.233  19.160  12.474
29414W        W90780  14.316   9.255   0.821
29415W        W90781   1.895  41.800   1.827
29416W        W90782  23.017  17.746  11.389
29417W        W90783   4.821  42.500  13.512
29418W        W90784  31.479  36.369   1.733
29419W        W90785  15.718  44.320   3.291
29420W        W90786  33.959  24.125  12.870
29421W        W90787  26.624  27.966   3.366
29422W        W90788  10.785   9.395   2.195
29423W        W90789  35.953   7.391  13.889
29424W        W90790  38.035  17.205  11.446
29425W        W90791   5.401  15.729   0.245
29426W        W90792   2.824   0.328  12.581
29427W        W90793   5.236  22.672   4.641
29428W        W90794   9.340  26.066   3.824
29429W        W90795  19.124  28.989   2.207
29430W        W90796  24.522   7.370  11.419
29431W        W90797  25.203  35.390  12.395
29432W        W90798  20.128  19.178   2.722
29433W        W90799  14.671  35.387  11.977
29434W        W90800  30.569  33.489  11.047
29435W        W90801  26.548  17.140  10.563
29436W        W90802  44.362  36.575  11.068
29437W        W90803   3.229  35.932   3.643
29438W        W90804  31.123  18.568  12.368
29439W        W90805  29.162   3.894   0.286
29440W        W90806   9.877  27.615   4.352
29441W        W90807  27.606  12.720   0.744
29442W        W90808  27.509  11.750   0.334
29443W        W90809  19.647   6.378  13.034
29444W        W90810  41.022  41.858  14.945
29445W        W90811   2.786  34.611  11.081
29446W        W90812  30.504  13.120   3.856
29447W        W90813  41.031  31.575  13.861
29448W        W90814  14.621  24.537  11.445
29449W        W90815  32.042  37.007  11.463
29450W        W90816  20.233   5.786  12.367
29451W        W90817  34.921  28.485   1.281
29452W        W90818  17.062  14.772   1.334
29453W        W90819  31.084  33.590   0.775
29454W        W90820  32.012  33.129  10.454
29455W        W90821  16.211  28.052   0.260
29456W        W90822  14.325  31.899  12.939
29457W        W90823  14.197  20.552  14.345
29458W        W90824   3.239  14.141  11.431
29459W        W90825  21.183  28.593   3.222
29460W        W90826   1.744  33.041  12.526
29461W        W90827  17.575   0.805  11.462
29462W        W90828  36.469  34.599   3.358
29463W        W90829  41.440  18.634   2.725
29464W        W90830  39.442   1.930  13.410
29465W        W90831  42.401  36.515   0.837
29466W        W90832  38.010  10.384   0.418
29467W        W90833  23.073  11.632   3.855
29468W        W90834  37.338  22.252  10.970
29469W        W90835  40.475  12.759   4.685
29470W        W90836  25.650  16.080  14.360
29471W        W90837  13.295  23.663  13.446
29472W        W90838  33.523  16.281   2.385
29473W        W90839  41.821  36.587  11.914
29474W        W90840  43.849  21.670  14.318
29475W        W90841  41.019  35.594   2.255
29476W        W90842  37.571  42.928  10.153
29477W        W90843  13.636  31.610   0.734
29478W        W90844  21.696  30.518   3.259
29479W        W90845  42.820  12.204   0.447
29480W        W90846  43.927  11.371   4.783
29481W        W90847  36.500  43.009  14.359
29482W        W90848  35.882  34.595   3.803
29483W        W90849  29.057  32.634   1.321
29484W        W90850   6.805  44.344  12.912
29485W        W90851  31.012  37.082   2.315
29486W        W90852  12.656   0.265  11.884
29487W        W90853   0.460  21.253   4.303
29488W        W90854  31.030  20.144   3.221
29489W        W90855  23.113  22.996   2.301
29490W        W90856  13.119  44.309  13.044
29491W        W90857   5.888  28.952   0.823
29492W        W90858   6.845  25.206  11.008
29493W        W90859  30.927   2.953  14.776
29494W        W90860  16.576  12.648  11.941
29495W        W90861   2.860  27.038   3.306
29496W        W90862   2.939  28.997  13.918
29497W        W90863   1.247  38.062  12.355
29498W        W90864  44.858  30.656   1.361
29499W        W90865  34.948  23.209  12.041
29500W        W90866  31.534  31.077   1.271
29501W        W90867  14.116   8.366  14.454
29502W        W90868   4.795  22.030   0.738
29503W        W90869  31.037  31.559   3.675
29504W        W90870   4.405   1.308  14.315
29505W        W90871  22.680  29.520   3.816
29506W        W90872  41.955  10.239   1.806
29507W        W90873  30.489  17.104   3.858
29508W        W90874  38.007  41.004   1.318
29509W        W90875  44.845  33.599   0.465
29510W        W90876  39.399  40.317  14.847
29511W        W90877  10.854  33.104  13.942
29512W        W90878  10.176   1.239   0.947
29513W        W90879   4.268  39.363   2.343
29514W        W90880  38.961  23.080  10.950
29515W        W90881  27.187  28.144  11.499
29516W        W90882   5.334  29.606  11.511
29517W        W90883  39.997  40.805   4.313
29518W        W90884  34.913   6.269  11.112
29519W        W90885  23.079  29.918   0.828
29520W        W90886  37.341  38.828  12.962
29521W        W90887  19.139  43.413  13.937
29522W        W90888  39.037  31.601   2.851
29523W        W90889  32.516  38.394   4.296
29524W        W90890  15.085  35.522   0.342
29525W        W90891  19.039   5.694   1.810
29526W        W90892  13.213  24.155   4.276
29527W        W90893  18.601   0.399   2.283
29528W        W90894   8.734  42.788  12.974
29529W        W90895  38.531   1.294   3.273
29530W        W90896   7.697   4.246   9.608
29531W        W90897  42.291  10.300   3.249
29532W        W90898   4.408  27.095  11.381
29533W        W90899  34.463  23.643  11.458
29534W        W90900  22.670  19.281  14.339
29535W        W90901  36.456  18.162  13.952
29536W        W90902  28.649  14.098   4.795
29537W        W90903  26.573   6.186   2.201
29538W        W90904  39.056   8.698   0.836
29539W        W90905  16.085  31.583  14.409
29540W        W90906   5.863   7.872   2.249
29541W        W90907  44.772  15.316  10.550
29542W        W90908  38.031  30.565  10.891
29543W        W90909  11.246  26.203  13.410
29544W        W90910  27.645  17.294   0.775
29545W        W90911  28.474   7.754  14.013
29546W        W90912  41.447  25.962   3.378
29547W        W90913  19.244  33.971  12.921
29548W        W90914  37.894  33.389  12.946
29549W        W90915   2.753  33.130   0.819
29550W        W90916   6.233   7.244   5.311
29551W        W90917  25.999  12.851  11.899
29552W        W90918  24.029  17.695   1.297
29553W        W90919  36.866  40.322   5.083
29554W        W90920  31.141  27.525   4.765
29555W        W90921   1.292  39.851   1.333
29556W        W90922  30.994   4.752   3.664
29557W        W90923  42.944  30.480  14.962
29558W        W90924  28.944  24.713   4.169
29559W        W90925  20.554  39.536   2.395
29560W        W90926   3.752  24.623  12.064
29561W        W90927  27.133  24.064   2.298
29562W        W90928  40.361  26.670  11.115
29563W        W90929  27.176  18.660   4.689
29564W        W90930   7.325  22.681   1.379
29565W        W90931   3.447  42.011  12.476
29566W        W90932  36.910  27.599  13.872
29567W        W90933   0.841  13.168   4.315
29568W        W90934  24.635   2.414   0.961
29569W        W90935  29.919  22.632  13.815
29570W        W90936  22.031  25.551   0.851
29571W        W90937  40.897  10.155  10.613
29572W        W90938  14.135  41.891   3.660
29573W        W90939   6.413  30.636  11.520
29574W        W90940  19.095  13.781   4.609
29575W        W90941  15.814   2.445   5.173
29576W        W90942   2.810  15.601  13.033
29577W        W90943  23.510   6.421  13.469
29578W        W90944   4.291   8.298   4.300
29579W        W90945  20.219  35.442  13.927
29580W        W90946  36.025   4.730   2.344
29581W        W90947  20.162  27.480  10.415
29582W        W90948  25.174  21.072   4.663
29583W        W90949  25.990  13.610   4.259
29584W        W90950   3.855  35.034   0.451
29585W        W90951  37.345  32.442  14.432
29586W        W90952  38.424  18.159   2.256
29587W        W90953  43.993  35.461  11.068
29588W        W90954   3.771  37.953  12.922
29589W        W90955   2.745  39.340   4.344
29590W        W90956  16.669  37.431   0.758
29591W        W90957  19.708  28.078   4.349
29592W        W90958  14.799  16.583   0.755
29593W        W90959  25.490  25.081  12.558
29594W        W90960  29.605  18.750   0.773
29595W        W90961  24.506  12.746  14.502
29596W        W90962  18.587  22.153  13.847
29597W        W90963  12.813  25.194   4.192
29598W        W90964  28.999  22.662  10.453
29599W        W90965  28.130  39.430  14.853
29600W        W90966  43.300  24.677   1.357
29601W        W90967  38.513  22.151   3.771
29602W        W90968   5.383  18.260  11.923
29603W        W90969  44.840  17.137   4.202
29604W        W90970  26.161   8.380  13.439
29605W        W90971  44.832  20.033  11.058
29606W        W90972   8.375  13.133  12.054
29607W        W90973  21.252  19.714   0.943
29608W        W90974  33.439  13.133   1.257
29609W        W90975  33.413   7.840   0.849
29610W        W90976  12.283  18.075   3.190
29611W        W90977  23.511  37.085   2.350
29612W        W90978  19.763   8.832   9.970
29613W        W90979  32.004   6.420   5.161
29614W        W90980  25.555  19.243  11.419
29615W        W90981  28.986  41.488   0.418
29616W        W90982  14.753   6.698  14.840
29617W        W90983  28.482  28.931  14.960
29618W        W90984  21.750  21.707  11.884
29619W        W90985   0.263  23.149   3.820
29620W        W90986  42.805  13.719   3.332
29621W        W90987   2.463  31.448  12.347
29622W        W90988  21.678  15.192   0.415
29623W        W90989  36.848  27.570  10.546
29624W        W90990  32.887  35.006  14.310
29625W        W90991   6.215   4.206  14.826
29626W        W90992  38.386  36.040   0.264
29627W        W90993   0.828  23.136  11.085
29628W        W90994  41.396  24.206   3.736
29629W        W90995  32.486  36.463  11.121
29630W        W90996  41.959  36.924  10.969
29631W        W90997  29.500  17.199  12.894
29632W        W90998   8.381  25.996  14.505
29633W        W90999  32.994  33.880  10.546
29634W        W91000  37.991  10.281  13.353
29635W        W91001  36.921  25.119  11.039
29636W        W91002  27.582   4.375  14.327
29637W        W91003  12.661  34.423   0.435
29638W        W91004  11.655   5.260  14.393
29639W        W91005  20.762  24.502   0.380
29640W        W91006  16.788  19.558   3.798
29641W        W91007   5.730  15.157  14.449
29642W        W91008   3.906   4.880  11.100
29643W        W91009   5.896  28.600   1.216
29644W        W91010  41.324  40.860   2.847
29645W        W91011  15.807   2.778  12.972
29646W        W91012   1.769  19.044  10.556
29647W        W91013  21.709  39.411   0.277
29648W        W91014  41.827   2.816  12.540
29649W        W91015  25.547  18.738   1.332
29650W        W91016  26.978  33.581  13.506
29651W        W91017  23.706  32.475  10.406
29652W        W91018   3.421  28.637   0.811
29653W        W91019  32.584  36.989  12.927
29654W        W91020  14.205  13.693  10.588
29655W        W91021  34.108   5.398  11.084
29656W        W91022  32.954  14.286   4.241
29657W        W91023  43.931  43.924  13.347
29658W        W91024  40.399  10.171  14.777
29659W        W91025  29.445   8.249   0.245
29660W        W91026  36.503  43.502  13.023
29661W        W91027   9.656   9.774  11.379
29662W        W91028  32.484   7.805   4.834
29663W        W91029   5.881  21.081   4.258
29664W        W91030  11.818  21.668  12.904
29665W        W91031  31.608  21.532  12.905
29666W        W91032  33.072   8.174  11.869
29667W        W91033  38.940  33.393  14.929
29668W        W91034  16.082  35.914   1.272
29669W        W91035  23.606  10.362  13.059
29670W        W91036  43.788  27.031  13.361
29671W        W91037   9.689  10.317   2.389
29672W        W91038  23.153  13.119   1.797
29673W        W91039   4.256  10.835   1.238
29674W        W91040  42.291  34.438  12.884
29675W        W91041  26.689  28.116  11.913
29676W        W91042  13.252  22.596  13.992
29677W        W91043  30.041  13.157  10.582
29678W        W91044   4.430  11.264  12.897
29679W        W91045  34.945   5.878   3.339
29680W        W91046  40.814   4.409  11.988
29681W        W91047  44.862  26.021   5.668
29682W        W91048  44.463  44.472  10.132
29683W        W91049   0.875   4.255  10.967
29684W        W91050  38.827  44.503   4.624
29685W        W91051  17.277  33.920   5.264
29686W        W91052  28.053  19.640  14.441
29687W        W91053   6.890  42.015   2.286
29688W        W91054  21.661  32.111  10.022
29689W        W91055  32.942  22.174   3.361
29690W        W91056  42.973  39.013   2.233
29691W        W91057  28.586  20.748   0.385
29692W        W91058  32.557  44.488   4.805
29693W        W91059  14.283  43.429  14.463
29694W        W91060   2.746  28.941   1.340
29695W        W91061   3.300  34.973   1.884
29696W        W91062   4.406   4.918  13.522
29697W        W91063  15.585  20.071  13.931
29698W        W91064   5.806  40.540   3.309
29699W        W91065  40.500  44.270  12.843
29700W        W91066  26.031  25.011   5.243
29701W        W91067  24.537  41.001   0.357
29702W        W91068   4.771  21.715   2.780
29703W        W91069  34.954  44.001   3.186
29704W        W91070   9.760   4.405  13.849
29705W        W91071  33.075  10.670  11.470
29706W        W91072  20.631  39.496  14.028
29707W        W91073  32.100  25.616  14.445
29708W        W91074  19.269  30.985  13.060
29709W        W91075  29.147  29.134   2.755
29710W        W91076  24.180  23.696   3.741
29711W        W91077  17.261   0.877  11.039
29712W        W91078  38.861  44.298   2.196
29713W        W91079  28.606   5.908  13.851
29714W        W91080  40.362  21.195   5.104
29715W        W91081  34.096  29.936   2.335
29716W        W91082  10.773   7.735  14.282
29717W        W91083  38.035  34.525   4.122
29718W        W91084  34.434   5.861  11.127
29719W        W91085   8.814  26.502   0.914
29720W        W91086  41.349  19.730  11.442
29721W        W91087  37.054   4.769   1.753
29722W        W91088  12.820  33.967  10.436
29723W        W91089  32.959  42.443   0.430
29724W        W91090   6.260  31.406  13.391
29725W        W91091  31.417  39.919   0.820
29726W        W91092  25.493  19.048   1.726
29727W        W91093  35.987  19.177  11.580
29728W        W91094   7.327  19.079  13.354
29729W        W91095   1.385  29.564  13.390
29730W        W91096  30.915  32.914  12.882
29731W        W91097  13.654  11.235  14.861
29732W        W91098   4.280  39.348  13.385
29733W        W91099   5.210  23.085  12.433
29734W        W91100   9.778  44.838  14.790
29735W        W91101  27.177  29.971   4.695
29736W        W91102  30.936  16.173   0.333
29737W        W91103  39.983  34.607   0.248
29738W        W91104   4.814  14.187   2.406
29739W        W91105  15.165  30.609  13.879
29740W        W91106  11.798  31.038  10.629
29741W        W91107  25.564  28.647   1.894
29742W        W91108  13.742  24.629   3.839
29743W        W91109  24.605  36.586  13.508
29744W        W91110  34.602   0.422   4.138
29745W        W91111   4.367   3.789  13.445
29746W        W91112  17.136  24.047   0.360
29747W        W91113   4.884  14.702  13.521
29748W        W91114   1.288   2.299   2.284
29749W        W91115  30.016   8.771  11.445
29750W        W91116  35.457  41.000  10.583
29751W        W91117  37.021  39.914   0.254
29752W        W91118  10.141  33.929  12.351
29753W        W91119  25.497   7.194  11.406
29754W        W91120   6.182  26.064   3.231
29755W        W91121  20.608  32.543  14.358
29756W        W91122   7.692  40.416  13.397
29757W        W91123  27.454  12.121  14.910
29758W        W91124  31.553  33.024  11.589
29759W        W91125  43.893  14.267   0.858
29760W        W91126   2.849  21.589  14.465
29761W        W91127  16.582  22.011  14.435
29762W        W91128  34.075  33.968   0.389
29763W        W91129   9.746  24.713   2.181
29764W        W91130  34.437  29.607   0.474
29765W        W91131  15.696  19.159   2.775
29766W        W91132  15.775  38.347  14.355
29767W        W91133   3.420   8.291   1.922
29768W        W91134  35.459  25.494  11.931
29769W        W91135  33.495   3.715   0.771
29770W        W91136   7.895  43.807   4.239
29771W        W91137   5.258  19.095   2.873
29772W        W91138  28.137   6.389  13.541
29773W        W91139  23.196  41.494  10.621
29774W        W91140  12.294   2.286  13.049
29775W        W91141   3.252  17.564   0.754
29776W        W91142   1.468  41.983  11.599
29777W        W91143  36.432  24.082   2.188
29778W        W91144  14.739  21.586   1.386
29779W        W91145  32.467  20.151  13.876
29780W        W91146   3.859  43.782  11.374
29781W        W91147   6.384  41.023   4.728
29782W        W91148  39.905  29.472   4.199
29783W        W91149   6.825  30.621   1.822
29784W        W91150  39.007   5.313   3.359
29785W        W91151   8.689  43.307  12.419
29786W        W91152  18.695   5.895  13.403
29787W        W91153  38.479  36.349   2.716
29788W        W91154  17.268  44.914  11.045
29789W        W91155  15.737  44.397   1.356
29790W        W91156  38.981   0.380   0.306
29791W        W91157   2.441  18.192   5.218
29792W        W91158  23.993  21.633   4.144
29793W        W91159  23.161   2.877  13.384
29794W        W91160  14.736  40.911  12.852
29795W        W91161  32.614   6.219  10.443
29796W        W91162  36.981  34.117   1.350
29797W        W91163  16.686  36.413   4.318
29798W        W91164   3.340  38.947   3.676
29799W        W91165  10.206   3.228  13.988
29800W        W91166  19.120  18.779   1.342
29801W        W91167  10.785   7.887   4.355
29802W        W91168   5.810  42.355   2.701
29803W        W91169  21.619  14.310   4.300
29804W        W91170  19.125  17.109   2.861
29805W        W91171  33.556  14.590   0.809
29806W        W91172   3.832  11.803  11.893
29807W        W91173  43.362   6.765   3.803
29808W        W91174  13.722  11.800   0.741
29809W        W91175  29.557  17.251   4.118
29810W        W91176  12.362  24.531  11.495
29811W        W91177  10.230  11.344   4.248
29812W        W91178  31.446  28.161  11.556
29813W        W91179  36.416  11.781  11.947
29814W        W91180  35.483  17.770   4.148
29815W        W91181  21.045   6.732   4.682
29816W        W91182  30.129  24.974   0.447
29817W        W91183  43.847  40.446   2.248
29818W        W91184  32.966  28.177  14.792
29819W        W91185  37.048  18.721  11.396
29820W        W91186  35.489  30.037  11.084
29821W        W91187  12.153   0.442   3.381
29822W        W91188  15.694   1.807   0.476
29823W        W91189  23.698  41.870   2.263
29824W        W91190  21.597   2.323  10.450
29825W        W91191  41.915  22.038   2.287
29826W        W91192   6.909  43.021   1.717
29827W        W91193   8.314  17.238   0.726
29828W        W91194  20.265   1.301  11.966
29829W        W91195   5.290  14.666  14.994
29830W        W91196  14.816  27.512  12.954
29831W        W91197  40.991  28.437  13.959
29832W        W91198   2.923  13.652   4.142
29833W        W91199  19.283  41.309   3.372
29834W        W91200  37.049  17.104  13.878
29835W        W91201   8.773  38.973  11.073
29836W        W91202  40.902  13.662   2.799
29837W        W91203  27.077  11.815   4.672
29838W        W91204   5.226  25.701   0.912
29839W        W91205  32.142  39.980   2.198
29840W        W91206   0.856  33.944  10.446
29841W        W91207  17.691  35.522   9.628
29842W        W91208  35.589   0.283   0.351
29843W        W91209  28.973  44.823  12.827
29844W        W91210  11.855  42.864   1.401
29845W        W91211  19.725  20.615   2.207
29846W        W91212  29.024  16.689  14.344
29847W        W91213  12.234  19.269  14.456
29848W        W91214   0.372  30.093   3.631
29849W        W91215  38.016  30.644  10.484
29850W        W91216  15.781  33.062   1.726
29851W        W91217   0.900  26.054  14.825
29852W        W91218   5.219  27.566  14.351
29853W        W91219  31.616  27.021   3.295
29854W        W91220  14.618   6.789  13.045
29855W        W91221  26.599  10.263  13.049
29856W        W91222  20.654  37.392   3.242
29857W        W91223  38.875   2.275   3.861
29858W        W91224  12.287  28.066   0.773
29859W        W91225  13.337  44.808  13.014
29860W        W91226  18.226  40.949   1.292
29861W        W91227  33.528  19.142  13.973
29862W        W91228  39.443   3.286   4.641
29863W        W91229   7.783  39.362   1.337
29864W        W91230  17.625   8.812   1.412
29865W        W91231  11.764  17.780   4.234
29866W        W91232  10.833  25.091  10.561
29867W        W91233  12.830  17.772  13.927
29868W        W91234   2.339  35.889   1.758
29869W        W91235  41.984  44.398   4.730
29870W        W91236  36.407  43.815   3.166
29871W        W91237  13.169  28.663  12.513
29872W        W91238  16.726  41.875  11.546
29873W        W91239  25.175  36.954  14.910
29874W        W91240   1.857  35.901   0.893
29875W        W91241  23.715  10.157   0.916
29876W        W91242  41.837  14.319   1.390
29877W        W91243  19.620  24.485   4.136
29878W        W91244  19.190  24.215   1.451
29879W        W91245  17.129  37.029  10.996
29880W        W91246  40.837  44.964  14.935
29881W        W91247  43.453  15.103   1.373
29882W        W91248   4.380   5.352   2.407
29883W        W91249  11.628   5.304  10.506
29884W        W91250  12.182  31.993  12.410
29885W        W91251  31.478  41.516  11.943
29886W        W91252  14.793  29.114  11.101
29887W        W91253  18.608   8.274  10.897
29888W        W91254  11.193  32.391  11.904
29889W        W91255  25.654  19.637  11.080
29890W        W91256  40.953  17.555   2.322
29891W        W91257  10.179  40.370   1.804
29892W        W91258  34.608  16.144  14.388
29893W        W91259  34.375   3.711  11.578
29894W        W91260  41.928  32.618   1.800
29895W        W91261  33.008   8.394   4.711
29896W        W91262   2.408  19.606   1.781
29897W        W91263  22.102  31.535  14.468
29898W        W91264  17.249  13.736  10.434
29899W        W91265  15.247  16.224  13.465
29900W        W91266  42.427  44.428   2.818
29901W        W91267  40.474  15.247   4.309
29902W        W91268  10.365  14.822  10.462
29903W        W91269   8.768  37.032  10.932
29904W        W91270  30.920  26.585   1.834
29905W        W91271  29.605  30.649  10.109
29906W        W91272  12.337  26.154  12.518
29907W        W91273  35.077   7.357   0.853
29908W        W91274  17.693  42.002   1.276
29909W        W91275  21.733  44.406  13.320
29910W        W91276  42.929  14.165   0.787
29911W        W91277  29.109  18.681  13.542
29912W        W91278  34.937  39.035  13.951
29913W        W91279   7.221   1.848  13.879
29914W        W91280   7.282  34.960   4.736
29915W        W91281  28.965   3.793   4.297
29916W        W91282  27.030  30.028  12.381
29917W        W91283  23.085  19.657   3.386
29918W        W91284  29.162  13.745   0.853
29919W        W91285  43.935   0.365   2.337
29920W        W91286  14.201   1.819   4.336
29921W        W91287  16.730  16.298  12.461
29922W        W91288  44.994   7.403   3.706
29923W        W91289  44.986  34.949  11.580
29924W        W91290  24.231  26.694   0.799
29925W        W91291  25.702   3.434   3.666
29926W        W91292  37.841   8.856  10.949
29927W        W91293  28.634   9.209   2.357
29928W        W91294  26.681  43.886  10.625
29929W        W91295  13.183  21.033   2.411
29930W        W91296  39.371   5.260  13.317
29931W        W91297  37.449  40.957  10.532
29932W        W91298  28.045   8.838  14.422
29933W        W91299   5.380  13.621  14.821
29934W        W91300  20.158  33.577  11.085
29935W        W91301   8.725  44.381   3.659
29936W        W91302  42.284  36.347   1.437
29937W        W91303   9.685  33.619  10.489
29938W        W91304   0.403   7.176  14.860
29939W        W91305  32.409  29.437   2.833
29940W        W91306  28.469   2.944  14.309
29941W        W91307  24.509  22.102   4.349
29942W        W91308  37.384  14.754   4.693
29943W        W91309   4.405  32.631   0.765
29944W        W91310   2.429  29.937   1.235
29945W        W91311  26.193   5.798  13.053
29946W        W91312   3.911  39.400  13.877
29947W        W91313  39.460  27.606   3.845
29948W        W91314  43.420  42.787  11.387
29949W        W91315   1.401  17.264   4.818
29950W        W91316   4.391  21.099  11.922
29951W        W91317  21.561  27.521   1.348
29952W        W91318  22.688  39.353   0.348
29953W        W91319   6.399   1.821  11.027
29954W        W91320  20.731  32.124   2.765
29955W        W91321  29.159  37.852   1.240
29956W        W91322   1.458  40.976   3.148
29957W        W91323   8.758  16.267  10.598
29958W        W91324  15.651  43.900  10.523
29959W        W91325   5.229  16.795  12.858
29960W        W91326   0.815  33.426   0.788
29961W        W91327  16.598  26.014   1.426
29962W        W91328   0.792   9.803   3.371
29963W        W91329   7.883  19.638  13.532
29964W        W91330  31.623  21.214  11.971
29965W        W91331  26.698  41.338  12.051
29966W        W91332  14.126  38.452  13.971
29967W        W91333   1.448  23.082  11.126
29968W        W91334  12.810  33.027   4.201
29969W        W91335  41.947  14.739   1.330
29970W        W91336   1.914   1.761  13.358
29971W        W91337  14.303  25.070   0.844
29972W        W91338   7.859  11.216  13.407
29973W        W91339   6.804  30.032   3.367
29974W        W91340   3.437  12.659  11.899
29975W        W91341  17.161  27.102  11.393
29976W        W91342  38.015  17.719  11.578
29977W        W91343  34.019   2.915   2.880
29978W        W91344   6.817  31.989   3.329
29979W        W91345  38.062   4.830   1.756
29980W        W91346  21.679  40.410  13.035
29981W        W91347  22.013   0.817  13.932
29982W        W91348   5.296   3.860  11.087
29983W        W91349  21.694   4.875   4.725
29984W        W91350  22.553  24.534  10.910
29985W        W91351  10.138  37.930   4.316
29986W        W91352   1.367  12.158  14.852
29987W        W91353  17.642   7.210  10.942
29988W        W91354  22.670   9.197  13.820
29989W        W91355  27.596  17.100   2.836
29990W        W91356  18.203  39.046  13.965
29991W        W91357   6.834  14.652  12.546
29992W        W91358  12.154  12.733   0.731
29993W        W91359  21.523  42.015  13.008
29994W        W91360  21.703  10.210  13.355
29995W        W91361  36.426  32.537   1.734
29996W        W91362  21.724  35.982  12.401
29997W        W91363  26.652  18.242   2.299
29998W        W91364  20.697  11.689  12.425
29999W        W91365  37.460  40.848   4.664
30000W        W91366  44.867  41.960  14.013
30001W        W91367  29.095  16.630   1.223
30002W        W91368  23.552   9.762   3.250
30003W        W91369   2.273  18.548  10.940
30004W        W91370   6.356  37.550   2.785
30005W        W91371  44.795   4.813  14.024
30006W        W91372  17.120  14.225   2.872
30007W        W91373  41.509  24.152  11.020
30008W        W91374  19.238  20.754  13.328
30009W        W91375  40.370  13.711  10.979
30010W        W91376  19.182  37.999  11.126
30011W        W91377  33.584  20.632   3.805
30012W        W91378  27.007  24.533   4.208
30013W        W91379  27.075  41.463   2.241
30014W        W91380  27.539  37.967   4.253
30015W        W91381  35.904  32.393   2.663
30016W        W91382  23.557   5.821  10.422
30017W        W91383  42.835   6.323   1.409
30018W        W91384  38.982  16.581  14.332
30019W        W91385  24.072   1.752   1.824
30020W        W91386  26.557  26.544  11.052
30021W        W91387  38.998  18.613   1.245
30022W        W91388   4.439  21.052   0.872
30023W        W91389  11.654  17.799  12.932
30024W        W91390   5.839  24.991   3.660
30025W        W91391   0.303  26.137   1.258
30026W        W91392  12.235  16.756  12.973
30027W        W91393  16.271  43.431   0.780
30028W        W91394  22.174  35.995  11.461
30029W        W91395  29.472  41.825  11.534
30030W        W91396  13.692  29.995  11.070
30031W        W91397  24.175  19.057  10.504
30032W        W91398  29.453  30.117   3.737
30033W        W91399  15.720   6.190  10.510
30034W        W91400  19.755  17.621   1.300
30035W        W91401   1.802  19.063  14.943
30036W        W91402   9.793  17.139  13.474
30037W        W91403   9.693  32.051   4.154
30038W        W91404  16.139  16.809   5.579
30039W        W91405  20.147   6.356  12.455
30040W        W91406  35.962  16.631  14.383
30041W        W91407  11.149   7.734  11.466
30042W        W91408  24.077  44.988   4.310
30043W        W91409  26.148  43.489  14.511
30044W        W91410  12.681  14.187  10.474
30045W        W91411   3.876   5.262   0.373
30046W        W91412  31.548   4.293  13.375
30047W        W91413  24.218  13.152   3.760
30048W        W91414  29.960   5.321   3.325
30049W        W91415  11.243  22.541  12.946
30050W        W91416  11.303   2.412  12.902
30051W        W91417  31.613  43.436   2.784
30052W        W91418  44.407  28.680  12.485
30053W        W91419  15.255   9.387   4.181
30054W        W91420  35.425  27.996  13.416
30055W        W91421  18.552  28.950  13.828
30056W        W91422  26.481  23.035   0.397
30057W        W91423   7.740  16.806  11.566
30058W        W91424  17.769   9.846   3.182
30059W        W91425   6.245  18.186  11.415
30060W        W91426  22.135   1.907   3.834
30061W        W91427  41.301  24.655   1.764
30062W        W91428  32.089   3.440   2.794
30063W        W91429  23.590   9.185   4.792
30064W        W91430  23.993  30.163  10.426
30065W        W91431  20.248  41.426   0.363
30066W        W91432  35.012  29.542  11.517
30067W        W91433  25.624  44.778  14.867
30068W        W91434  32.907  31.613   0.771
30069W        W91435  16.794  13.149  13.371
30070W        W91436  12.244  18.112   1.809
30071W        W91437  37.508  26.677   4.174
30072W        W91438   3.415  27.036   3.316
30073W        W91439  27.625  31.048  10.961
30074W        W91440  22.056  30.564   4.280
30075W        W91441  36.497  40.476   3.187
30076W        W91442  22.580  13.254  13.050
30077W        W91443  21.081  22.583   2.409
30078W        W91444  34.429  12.691   4.189
30079W        W91445  21.538  12.274   4.330
30080W        W91446  25.038  39.894  10.965
30081W        W91447  20.590  25.153   2.808
30082W        W91448   8.393  31.142   1.749
30083W        W91449  15.186  29.167  11.926
30084W        W91450  12.362  15.739   4.659
30085W        W91451  35.045   9.157   1.421
30086W        W91452  30.105  38.068  11.451
30087W        W91453   5.890  29.599  14.317
30088W        W91454  32.043  41.943  11.913
30089W        W91455  24.085   7.287   1.917
30090W        W91456   9.688   2.827  11.887
30091W        W91457  33.396  44.987   1.423
30092W        W91458  12.720   2.442  11.577
30093W        W91459  11.357  25.144   1.898
30094W        W91460  36.021  25.174  14.785
30095W        W91461  44.828   5.876  12.388
30096W        W91462  31.082   9.772   3.805
30097W        W91463  32.898  20.273   1.838
30098W        W91464   5.922   5.254   5.081
30099W        W91465  39.453   4.934   0.421
30100W        W91466  35.007  21.258   0.935
30101W        W91467  22.658  20.526   2.845
30102W        W91468  27.460  25.142  11.522
30103W        W91469  18.179  22.092  12.953
30104W        W91470   8.327  13.831  10.578
30105W        W91471  35.414  11.639   3.717
30106W        W91472  12.250  17.266  13.964
30107W        W91473  11.852  18.290   0.421
30108W        W91474  29.093  10.383  11.517
30109W        W91475  12.686  36.581   0.308
30110W        W91476  18.250  23.594   2.336
30111W        W91477  10.770  36.050  14.987
30112W        W91478  26.980  22.688   0.255
30113W        W91479  11.847  12.812  10.497
30114W        W91480  24.664  30.063   2.868
30115W        W91481   5.347  30.956   1.335
30116W        W91482  33.967  21.754  11.893
30117W        W91483  37.000  44.472  10.890
30118W        W91484   5.910  13.306   1.214
30119W        W91485  37.962  32.636  13.364
30120W        W91486   5.816   1.343   4.795
30121W        W91487  31.060   0.855   4.211
30122W        W91488  23.984  23.671  13.022
30123W        W91489  34.614  40.459  11.083
30124W        W91490  21.644  37.983  14.434
30125W        W91491  38.461  16.618   3.825
30126W        W91492  38.435  41.323   2.391
30127W        W91493  10.224  37.553  11.877
30128W        W91494   0.858  34.401  14.982
30129W        W91495  19.089  44.988   0.964
30130W        W91496  37.982  27.679   0.254
30131W        W91497  32.106  27.646  10.408
30132W        W91498  41.387  44.309   0.844
30133W        W91499  43.016   0.828  14.965
30134W        W91500  20.224  18.158  11.072
30135W        W91501  38.415  38.379  12.997
30136W        W91502  35.472  13.261  13.447
30137W        W91503  19.118  33.612   0.405
30138W        W91504   1.764   3.264   4.789
30139W        W91505  24.058  39.404   1.304
30140W        W91506  15.721  29.011  11.975
30141W        W91507  20.120  32.434   4.758
30142W        W91508  13.109   1.415  14.499
30143W        W91509  43.016  21.118   3.249
30144W        W91510  12.315   1.821  10.557
30145W        W91511  34.881   3.794  13.903
30146W        W91512  30.600  25.492  13.374
30147W        W91513   5.374  29.046   0.748
30148W        W91514  42.393  16.138   2.183
30149W        W91515   4.831  24.997   2.318
30150W        W91516  26.118   1.900  12.068
30151W        W91517  32.029  27.630  12.441
30152W        W91518  27.605  42.361  12.424
30153W        W91519  26.601  44.284  11.909
30154W        W91520  25.210  37.077  11.094
30155W        W91521   7.737  10.786   1.905
30156W        W91522  22.669   2.282  13.470
30157W        W91523   4.866   4.225   3.286
30158W        W91524  12.325  29.148   0.474
30159W        W91525   1.378  21.220  14.942
30160W        W91526   4.770  32.999  14.950
30161W        W91527   2.299  39.389  14.515
30162W        W91528  35.065  42.463  11.456
30163W        W91529  30.587  20.617  11.915
30164W        W91530   7.205  35.501   3.250
30165W        W91531  38.421   0.824   3.630
30166W        W91532  19.757   7.402   2.720
30167W        W91533  26.474  17.213  13.383
30168W        W91534  19.077   2.429   4.828
30169W        W91535   7.219  15.697   0.479
30170W        W91536  25.044  23.066   0.319
30171W        W91537  36.033  37.465  11.595
30172W        W91538  36.884  30.021   3.203
30173W        W91539  41.821  15.816   0.890
30174W        W91540  27.115  19.555   0.824
30175W        W91541  24.722   6.224  13.315
30176W        W91542  20.764  14.260   2.192
30177W        W91543  33.073  25.649   0.340
30178W        W91544   6.849  21.223   3.645
30179W        W91545  30.445   9.727   2.768
30180W        W91546   2.322  22.233  10.923
30181W        W91547  30.956  20.647   1.789
30182W        W91548   0.426  34.561  14.336
30183W        W91549  38.996  29.056   2.211
30184W        W91550  11.650  10.679  14.964
30185W        W91551  20.632  13.201   1.729
30186W        W91552  16.777   0.754   2.819
30187W        W91553  14.718  23.213   1.247
30188W        W91554  18.674  34.582  12.877
30189W        W91555  30.599  20.239  11.407
30190W        W91556   8.814  20.077   0.242
30191W        W91557  39.856  19.073  10.937
30192W        W91558   7.863  12.697  13.016
30193W        W91559   5.822   5.861   3.730
30194W        W91560  20.718  41.950  13.822
30195W        W91561  26.509  16.768  11.086
30196W        W91562  10.339   5.899   0.936
30197W        W91563  30.558  11.844   2.719
30198W        W91564  40.987   0.401   0.335
30199W        W91565  34.089  15.222   0.845
30200W        W91566   5.300  32.410   0.303
30201W        W91567  40.017  43.328  12.475
30202W        W91568   8.255  36.579   1.325
30203W        W91569   9.277  20.139   4.791
30204W        W91570  33.545  17.302   5.224
30205W        W91571  22.722   0.935  13.543
30206W        W91572  42.776  18.737   3.341
30207W        W91573   5.870  32.525   1.364
30208W        W91574  17.565   5.201  11.993
30209W        W91575  14.714  39.388  11.058
30210W        W91576   9.312  42.453  14.843
30211W        W91577  34.895   6.756  12.382
30212W        W91578  24.983  39.948   2.226
30213W        W91579  21.541   9.208   3.330
30214W        W91580   8.277  23.601   0.250
30215W        W91581  19.067  16.604  13.875
30216W        W91582  21.240  29.488   2.745
30217W        W91583   2.873  31.435   0.299
30218W        W91584   4.234  25.212  13.405
30219W        W91585  13.653  13.672   1.702
30220W        W91586   9.695  18.228  10.936
30221W        W91587   6.402  44.262  10.410
30222W        W91588  24.135  31.440  14.491
30223W        W91589  17.752  24.157   1.335
30224W        W91590   0.923  32.016   3.762
30225W        W91591  40.959  18.734   2.200
30226W        W91592  17.107   4.723  11.092
30227W        W91593  42.344   7.334   0.873
30228W        W91594  32.591   0.842  12.957
30229W        W91595  36.486  11.165   4.277
30230W        W91596  13.303  12.182  13.828
30231W        W91597  31.495  11.234   4.717
30232W        W91598   5.409  25.001   3.276
30233W        W91599  32.453   0.269   1.301
30234W        W91600  24.129  38.983   1.758
30235W        W91601  10.849   4.903  10.903
30236W        W91602  33.027  22.147  12.030
30237W        W91603  14.605  44.901   2.815
30238W        W91604  41.995   8.883  13.457
30239W        W91605  32.424  31.973   1.332
30240W        W91606  10.325  42.910  10.905
30241W        W91607  17.585  12.285  14.471
30242W        W91608  23.196  43.918   4.758
30243W        W91609   2.271  21.225  10.918
30244W        W91610  27.481   0.398  10.899
30245W        W91611  41.034  25.564   4.319
30246W        W91612  11.858   4.868  14.002
30247W        W91613  31.532  25.608  11.111
30248W        W91614  37.886  35.553   0.379
30249W        W91615  37.954  24.214  13.950
30250W        W91616  37.474  30.949   2.833
30251W        W91617  17.162   9.743  12.952
30252W        W91618  18.158  37.855  11.455
30253W        W91619  38.485   4.327   0.960
30254W        W91620  16.218  38.493  11.591
30255W        W91621  30.949  11.289  11.975
30256W        W91622  42.023   9.711  10.628
30257W        W91623   9.861   3.837   0.300
30258W        W91624  32.062   1.462  11.579
30259W        W91625  11.338  37.437   3.830
30260W        W91626  37.528  33.017   1.745
30261W        W91627  23.644  39.441  12.522
30262W        W91628   5.268  32.983   0.851
30263W        W91629  40.545   3.251   2.243
30264W        W91630  30.123  25.702  12.078
30265W        W91631  26.208  40.892   1.288
30266W        W91632  32.021   4.287  11.526
30267W        W91633   8.874  20.528   0.911
30268W        W91634  34.900  17.122   0.751
30269W        W91635  29.116  43.369  13.367
30270W        W91636  32.080  17.653   2.293
30271W        W91637  40.929  24.625  14.968
30272W        W91638  21.729   5.801   4.155
30273W        W91639  37.366  44.400  14.016
30274W        W91640   1.244  18.738   1.851
30275W        W91641  20.737   5.840  12.966
30276W        W91642   5.406  32.440  13.825
30277W        W91643   5.257   6.336   0.433
30278W        W91644  18.190  25.982   3.319
30279W        W91645  44.389  19.086  10.443
30280W        W91646  42.424  40.303   0.315
30281W        W91647   3.772  22.090  11.522
30282W        W91648  31.058  35.417   4.663
30283W        W91649  42.475  29.058  14.896
30284W        W91650  40.965   2.753  12.907
30285W        W91651  14.280  33.016   4.210
30286W        W91652   7.319  20.655   3.351
30287W        W91653  23.115   0.395  12.356
30288W        W91654  41.422  23.637  12.000
30289W        W91655  30.015  20.617  12.859
30290W        W91656  40.526  31.048   3.289
30291W        W91657  21.582  28.642   2.768
30292W        W91658  41.317  29.109   4.632
30293W        W91659   9.164  16.197   2.375
30294W        W91660  11.677  37.528  10.413
30295W        W91661  33.484  22.024  11.959
30296W        W91662  26.673  36.524  10.602
30297W        W91663  36.363  19.099  11.609
30298W        W91664  28.186  16.621  10.978
30299W        W91665  20.654  13.715  11.381
30300W        W91666  13.737  44.354   2.186
30301W        W91667  16.646   1.367   0.829
30302W        W91668  22.015   0.489  12.437
30303W        W91669  20.134  29.955  14.371
30304W        W91670   6.281  10.262   3.294
30305W        W91671  21.753  36.362  12.854
30306W        W91672  22.592  36.018   1.349
30307W        W91673  22.502  40.043   2.800
30308W        W91674  21.710  30.510   0.828
30309W        W91675  35.856  24.012   0.387
30310W        W91676  37.899  16.601   1.399
30311W        W91677  44.374  31.945   3.766
30312W        W91678  17.648  26.694   2.319
30313W        W91679  28.013  38.369  10.551
30314W        W91680  31.518  15.117   1.450
30315W        W91681  37.549  32.028  10.449
30316W        W91682  30.549  35.042  10.601
30317W        W91683   3.446  30.647  13.885
30318W        W91684  13.275   7.746   2.381
30319W        W91685  28.949   5.698  12.027
30320W        W91686  43.945  39.493   4.185
30321W        W91687  33.411  24.035  10.643
30322W        W91688  40.050   5.817   4.668
30323W        W91689  30.995  24.229  11.863
30324W        W91690  21.673  20.105   2.839
30325W        W91691  33.094   3.804   1.709
30326W        W91692   8.823  44.351   4.688
30327W        W91693   1.345  40.982  11.875
30328W        W91694  25.984  37.027  14.301
30329W        W91695  30.131  38.898  14.333
30330W        W91696  36.353  28.577   1.784
30331W        W91697  13.810  16.692  10.588
30332W        W91698  36.983  10.218   2.745
30333W        W91699  33.892  40.866  11.025
30334W        W91700  36.048  32.494   0.301
30335W        W91701  33.015   2.367   3.175
30336W        W91702   8.212   4.219   9.951
30337W        W91703  26.176  25.483   1.449
30338W        W91704  12.684   6.282  14.766
30339W        W91705  30.422  37.957   2.182
30340W        W91706  40.886  20.730   0.748
30341W        W91707   2.342  39.924   2.902
30342W        W91708  10.225  36.943  13.829
30343W        W91709  42.015  35.916  14.014
30344W        W91710  32.948  21.024  11.873
30345W        W91711   4.913  33.482  12.887
30346W        W91712  17.797  18.224   1.834
30347W        W91713   7.198   3.308   1.924
30348W        W91714  16.610  39.065  14.996
30349W        W91715   4.757   6.708  10.066
30350W        W91716  37.524  11.692  13.821
30351W        W91717  24.031  35.036   1.297
30352W        W91718  34.543  28.674   4.742
30353W        W91719  11.860   4.927  12.575
30354W        W91720   1.335  25.677  13.468
30355W        W91721   3.745  40.889   0.930
30356W        W91722  32.112  20.213   2.181
30357W        W91723  16.299  32.135   2.179
30358W        W91724  13.177  37.400  10.995
30359W        W91725   1.924  17.158  12.008
30360W        W91726  20.638  24.199   4.834
30361W        W91727  14.815  39.394   2.809
30362W        W91728  10.214  18.711  10.558
30363W        W91729  43.813  28.998   4.206
30364W        W91730   2.420  32.609  12.885
30365W        W91731  12.240  38.465  14.951
30366W        W91732  30.513   1.426  12.556
30367W        W91733  18.106  40.331  14.349
30368W        W91734  42.030  28.617   2.236
30369W        W91735   3.353   7.898   1.751
30370W        W91736  20.630  21.569   3.747
30371W        W91737   9.242  32.914  14.868
30372W        W91738  28.163  30.100   1.340
30373W        W91739  31.500   2.848   0.764
30374W        W91740   8.688   4.935  13.935
30375W        W91741  27.469  20.737  13.001
30376W        W91742  10.722  39.850   4.185
30377W        W91743  19.063   0.966  13.344
30378W        W91744  37.341   9.794  13.448
30379W        W91745  10.828  39.330  10.404
30380W        W91746   8.880  27.165  11.049
30381W        W91747  17.277  21.527   1.256
30382W        W91748  28.622  39.479  10.529
30383W        W91749   8.690  16.805  10.532
30384W        W91750   6.724  10.821  11.435
30385W        W91751   1.963   8.830   1.402
30386W        W91752   3.346   6.292  14.417
30387W        W91753  35.586  23.178   3.226
30388W        W91754  38.044  27.960   0.331
30389W        W91755   9.689  10.844   0.821
30390W        W91756  42.815  12.734  14.286
30391W        W91757  23.218  17.596  12.371
30392W        W91758   6.778  36.576   1.427
30393W        W91759  40.521  33.944  11.909
30394W        W91760   8.824  13.315  10.410
30395W        W91761   4.865  18.712   2.318
30396W        W91762  15.116  18.708   4.825
30397W        W91763  11.198  42.827  10.631
30398W        W91764  17.648  25.979   0.960
30399W        W91765  25.503  13.778  11.454
30400W        W91766  41.811  43.400  14.967
30401W        W91767   5.278   9.192  12.851
30402W        W91768  18.095  26.962  10.453
30403W        W91769  42.415  12.677   0.373
30404W        W91770   0.985  27.155   3.310
30405W        W91771  38.340  30.651   4.699
30406W        W91772   5.236  18.108   3.367
30407W        W91773   9.320   6.898   3.698
30408W        W91774  31.446   3.749  14.010
30409W        W91775  26.969  20.231  11.027
30410W        W91776  11.127  24.168   3.367
30411W        W91777   2.773  43.844   0.777
30412W        W91778  28.482   5.423   0.954
30413W        W91779  13.170  12.320   3.637
30414W        W91780  28.483  31.918   2.834
30415W        W91781  17.692   2.336   4.194
30416W        W91782   3.944   6.401   3.699
30417W        W91783  42.978  39.897  10.566
30418W        W91784   6.853   9.800  13.393
30419W        W91785   4.905  35.540  13.808
30420W        W91786  17.166  42.887   9.941
30421W        W91787  34.935   4.766   0.433
30422W        W91788  44.857   8.708   3.694
30423W        W91789  38.011   3.800  10.565
30424W        W91790   6.696  31.939   2.804
30425W        W91791  33.404   5.882   4.636
30426W        W91792   4.942  23.529  13.406
30427W        W91793  16.812  10.175  11.404
30428W        W91794  20.109   8.776   3.769
30429W        W91795  35.413  17.785   3.292
30430W        W91796  24.656  33.457  11.456
30431W        W91797  16.257   1.901   2.182
30432W        W91798   7.336   5.285   3.787
30433W        W91799   1.332  35.456   3.228
30434W        W91800   5.264  27.542  13.887
30435W        W91801  22.171  11.803  11.381
30436W        W91802  23.060  29.472  14.464
30437W        W91803  42.286  43.808  14.288
30438W        W91804  44.965   5.366   3.335
30439W        W91805  19.118  29.067  13.944
30440W        W91806  32.592  36.992   3.242
30441W        W91807  22.096  38.541   4.654
30442W        W91808  13.675  41.903   0.387
30443W        W91809  39.450  17.781  11.493
30444W        W91810  12.124  30.597  14.931
30445W        W91811  29.032  40.815   3.825
30446W        W91812   5.391  16.101  14.465
30447W        W91813  34.992  38.346   0.444
30448W        W91814  30.469   9.386   2.772
30449W        W91815  18.293  22.567   1.714
30450W        W91816  26.161   2.364  12.366
30451W        W91817  18.702  26.652  13.030
30452W        W91818   1.377   8.660  12.834
30453W        W91819   3.428  42.443   1.380
30454W        W91820  16.633  33.590  11.413
30455W        W91821  28.989  16.656  13.316
30456W        W91822  11.268  29.604   4.781
30457W        W91823  29.072  38.534   3.692
30458W        W91824  33.059  28.080   4.653
30459W        W91825  32.087  37.582   0.385
30460W        W91826   2.830   7.366  13.827
30461W        W91827  39.994  28.159  13.943
30462W        W91828  29.425   6.232   4.734
30463W        W91829  42.482   6.805  10.628
30464W        W91830  17.154  24.574   4.346
30465W        W91831   9.253  40.323   1.856
30466W        W91832  16.182  21.662  11.452
30467W        W91833  33.076   1.335  13.040
30468W        W91834   8.900   4.328  12.564
30469W        W91835  34.446   8.299  10.531
30470W        W91836  26.637   7.781   3.642
30471W        W91837  38.921   3.257  11.038
30472W        W91838  40.367   4.929   0.859
30473W        W91839  39.333  25.973  11.491
30474W        W91840  31.592  44.380  11.610
30475W        W91841  20.663  23.059  10.480
30476W        W91842  35.880  33.121  13.479
30477W        W91843  21.556  24.718   1.270
30478W        W91844  17.099  34.483   1.327
30479W        W91845  23.985   2.935   1.829
30480W        W91846  38.967  22.195   1.925
30481W        W91847  14.631  29.490   3.230
30482W        W91848   3.839   8.171  12.867
30483W        W91849  26.102  39.848  10.610
30484W        W91850  20.561   0.808  10.432
30485W        W91851  21.628  18.213  11.958
30486W        W91852   4.219  15.806  14.286
30487W        W91853  31.956  41.357   2.355
30488W        W91854  11.832  23.536   4.681
30489W        W91855  38.853  39.823   4.688
30490W        W91856  12.805  18.750   4.801
30491W        W91857  37.006  31.466   0.368
30492W        W91858  18.733  41.507   3.205
30493W        W91859  42.793  30.063  11.012
30494W        W91860   8.356  30.958   0.916
30495W        W91861   7.679  32.946   1.798
30496W        W91862  17.220  23.563  13.450
30497W        W91863  11.186  32.127   5.104
30498W        W91864  30.929  41.037  12.898
30499W        W91865  32.395  25.064  11.885
30500W        W91866  23.697  44.490   4.813
30501W        W91867   2.765   3.230  11.051
30502W        W91868  32.096  33.981  10.626
30503W        W91869   6.311  16.651   3.685
30504W        W91870  34.970   4.828  14.866
30505W        W91871   1.360   1.768  14.408
30506W        W91872  26.025   8.310  11.936
30507W        W91873  31.082  35.602  12.532
30508W        W91874   2.239  26.068   0.387
30509W        W91875  17.160  38.996  13.402
30510W        W91876   1.951  14.717  13.891
30511W        W91877  22.166   3.811   2.270
30512W        W91878  32.489  32.970   4.259
30513W        W91879  30.988  30.503  13.853
30514W        W91880   8.200   2.950  14.997
30515W        W91881  39.876   4.330  12.532
30516W        W91882  34.947  41.847   2.892
30517W        W91883  40.512   5.887  14.315
30518W        W91884  22.072  28.030  12.068
30519W        W91885  16.299  17.636   0.270
30520W        W91886  41.366  28.630   4.778
30521W        W91887  12.805  30.948   1.899
30522W        W91888  28.051  30.103  14.322
30523W        W91889  32.624   8.197   1.401
30524W        W91890  11.268  32.520   0.343
30525W        W91891  38.384  39.327  14.015
30526W        W91892  30.566   4.932   0.329
30527W        W91893  27.078  38.945  14.787
30528W        W91894  15.755  40.397   2.902
30529W        W91895  11.280  42.466  14.976
30530W        W91896  41.383   9.149   2.305
30531W        W91897  34.980  16.609   3.715
30532W        W91898   4.303  23.124  13.951
30533W        W91899   0.870  19.560   1.736
30534W        W91900  16.222  26.466   1.299
30535W        W91901  15.090   1.351   4.294
30536W        W91902  32.532  19.106   4.825
30537W        W91903  41.801  21.740  14.340
30538W        W91904  34.081  33.583   3.646
30539W        W91905  17.718   0.987  12.878
30540W        W91906  34.879   3.925  11.982
30541W        W91907  16.775   6.419   1.934
30542W        W91908  14.237   2.403   1.750
30543W        W91909  18.653  38.072   2.232
30544W        W91910  44.458  27.602  10.916
30545W        W91911  27.140   7.756   4.221
30546W        W91912  21.662  32.445  13.885
30547W        W91913   5.362  30.061   0.407
30548W        W91914   1.968  28.613   0.475
30549W        W91915  10.876  35.947  13.497
30550W        W91916   9.346   5.696   3.686
30551W        W91917   4.306  37.507  14.815
30552W        W91918  11.720  30.431  14.488
30553W        W91919  33.489  15.748   9.990
30554W        W91920  22.061  17.211   2.303
30555W        W91921  25.507  24.191  13.323
30556W        W91922  39.516  36.046  12.934
30557W        W91923  22.060  28.170  10.901
30558W        W91924  13.737  39.824  10.941
30559W        W91925  44.812  38.508  12.540
30560W        W91926  40.881  37.055  10.977
30561W        W91927  15.736  31.976   3.684
30562W        W91928  13.784  36.495  14.341
30563W        W91929  39.902   1.473  12.908
30564W        W91930   9.880  13.196   1.757
30565W        W91931  13.770  39.322  11.540
30566W        W91932  29.455  31.136  12.081
30567W        W91933  24.712  21.172  12.028
30568W        W91934  12.723  42.833   1.323
30569W        W91935  33.939  37.358   3.252
30570W        W91936  25.547  12.341  13.404
30571W        W91937  26.490   4.282  12.531
30572W        W91938  37.981  19.048   0.319
30573W        W91939   3.730  36.403   2.693
30574W        W91940  27.667  27.638  11.967
30575W        W91941  37.355  31.968  13.542
30576W        W91942   1.755   2.344   0.436
30577W        W91943  32.026   5.412   4.189
30578W        W91944  12.633  12.624   3.316
30579W        W91945   1.836  39.498  13.822
30580W        W91946  30.545   7.801  14.011
30581W        W91947  23.240  43.892   0.328
30582W        W91948  35.106   5.930   4.758
30583W        W91949   2.758  36.965   4.347
30584W        W91950  41.944  28.995  13.534
30585W        W91951  27.189   2.445   1.365
30586W        W91952   3.723  42.380   3.817
30587W        W91953   9.758  39.542   0.434
30588W        W91954  31.564   7.774   2.316
30589W        W91955   7.835  24.094  12.988
30590W        W91956  28.182   5.840  14.874
30591W        W91957   6.195  37.400  10.047
30592W        W91958   7.895  35.073  12.572
30593W        W91959  42.289  41.383  14.472
30594W        W91960  19.754  26.008  10.469
30595W        W91961  25.004   1.384   1.926
30596W        W91962   0.427  19.232   2.362
30597W        W91963  26.484  26.117  11.015
30598W        W91964   2.256  10.810   4.824
30599W        W91965   1.885   9.259  13.318
30600W        W91966  13.698  36.899  10.089
30601W        W91967  33.036   6.328   3.227
30602W        W91968   7.799  32.033  14.967
30603W        W91969   0.450  13.617   1.356
30604W        W91970  10.345  38.381   2.235
30605W        W91971  23.556  27.940   1.921
30606W        W91972  24.030  35.999  13.419
30607W        W91973   3.401  14.677   4.737
30608W        W91974   5.767  29.923  13.828
30609W        W91975  43.951  29.132  11.910
30610W        W91976  35.970   8.309   0.726
30611W        W91977  11.131  31.981   2.895
30612W        W91978  25.663  15.250   2.403
30613W        W91979  18.089  30.470  13.045
30614W        W91980  36.917  42.362   0.748
30615W        W91981  31.646  25.195   0.926
30616W        W91982   0.382  26.669  14.498
30617W        W91983   0.418  38.504   3.653
30618W        W91984  30.419  30.599   2.234
30619W        W91985  41.864  22.072  11.592
30620W        W91986   4.207   0.309  11.926
30621W        W91987   9.322  29.576  11.587
30622W        W91988   7.790  30.438   9.990
30623W        W91989  30.446  13.195  12.076
30624W        W91990  32.018   2.301  13.323
30625W        W91991   8.387  23.148   0.927
30626W        W91992  20.103  29.514  11.856
30627W        W91993  43.939   8.858   2.282
30628W        W91994  15.131   2.331  13.966
30629W        W91995  11.224  34.984   5.132
30630W        W91996  16.134  43.850  10.480
30631W        W91997  41.916  38.929  11.984
30632W        W91998  30.928  38.042  14.936
30633W        W91999  43.844  30.045  13.949
30634W        W92000  31.412  34.566   0.908
30635W        W92001  36.572  10.301   0.809
30636W        W92002  39.925   8.869   1.251
30637W        W92003  22.111   4.206   3.659
30638W        W92004  35.897  15.680  12.890
30639W        W92005  22.709  21.104  10.993
30640W        W92006  10.145  21.563   4.173
30641W        W92007  20.221  20.212   0.450
30642W        W92008   0.975  12.759   3.260
30643W        W92009  22.151  26.065  11.445
30644W        W92010  40.364  16.131   3.262
30645W        W92011  22.100  21.693   2.745
30646W        W92012  26.507  44.834   3.832
30647W        W92013  24.083  10.223  12.455
30648W        W92014   3.949  34.442  13.964
30649W        W92015  26.631  28.667  10.918
30650W        W92016   1.280  12.822   1.771
30651W        W92017  42.983   6.302   2.221
30652W        W92018  25.178  15.307  14.926
30653W        W92019  22.231  10.153   0.362
30654W        W92020  35.472  43.004  11.436
30655W        W92021   3.743  39.433  11.556
30656W        W92022  15.779  36.030   2.844
30657W        W92023   7.794  36.018   0.766
30658W        W92024  25.532   3.215   4.691
30659W        W92025   7.335  25.557  12.027
30660W        W92026  14.113  44.775  14.309
30661W        W92027   7.306  29.161   3.187
30662W        W92028   6.365   6.820  10.610
30663W        W92029  14.146  30.039  14.293
30664W        W92030  34.891   2.437   1.710
30665W        W92031  30.996  32.079  12.487
30666W        W92032  41.793   3.429  14.965
30667W        W92033  23.135  33.104  13.330
30668W        W92034  37.989  13.724  10.433
30669W        W92035  25.547  24.665  14.484
30670W        W92036  10.811   0.867   2.385
30671W        W92037  10.821  23.048   1.865
30672W        W92038  33.560   0.419   2.259
30673W        W92039  17.168  23.643  12.550
30674W        W92040  33.498  22.713  10.126
30675W        W92041   9.782  34.060  13.882
30676W        W92042  11.763  21.049   3.262
30677W        W92043  15.312  37.524  12.952
30678W        W92044  39.856  29.648  10.573
30679W        W92045  35.380  32.141   0.746
30680W        W92046  44.430  22.601  11.433
30681W        W92047   9.165  40.814  14.759
30682W        W92048   8.384  12.762   1.370
30683W        W92049  34.007  11.831  12.045
30684W        W92050  17.238  42.806   1.342
30685W        W92051   0.816   1.355  11.111
30686W        W92052  26.016   6.213  11.519
30687W        W92053  31.549  33.602  11.509
30688W        W92054  20.560  13.287  13.989
30689W        W92055  19.545   1.352   3.855
30690W        W92056  20.192  13.221  14.941
30691W        W92057  12.849   9.831  10.563
30692W        W92058  15.679  26.689  10.515
30693W        W92059  25.019   6.250   2.224
30694W        W92060  30.122  32.087  10.629
30695W        W92061   5.911   4.731  11.048
30696W        W92062  26.047  43.322   3.247
30697W        W92063  11.763   6.709   1.256
30698W        W92064  31.050  33.936   2.239
30699W        W92065  36.442   0.815   4.668
30700W        W92066  32.404  14.778  12.968
30701W        W92067   7.683   9.311   0.904
30702W        W92068  36.557   0.256  10.421
30703W        W92069  14.785  44.917  12.846
30704W        W92070   4.318  21.663  10.557
30705W        W92071   8.259  22.246   0.249
30706W        W92072  34.904  15.328  12.062
30707W        W92073   9.651  35.025   3.345
30708W        W92074  12.154   0.282   0.384
30709W        W92075  27.616  37.364   4.148
30710W        W92076  42.373  31.493  13.324
30711W        W92077  21.525  13.651  11.596
30712W        W92078  39.488  32.982  11.379
30713W        W92079  41.463   4.450  14.866
30714W        W92080  30.050  31.041  12.464
30715W        W92081  41.305  32.976  11.985
30716W        W92082   4.208  42.520   0.457
30717W        W92083  39.508  32.581   0.383
30718W        W92084  43.980  11.234  14.501
30719W        W92085  41.363  19.269   4.657
30720W        W92086  15.724  20.108  13.022
30721W        W92087  23.701  34.932  12.956
30722W        W92088  25.569   7.331  13.484
30723W        W92089  30.600  39.943   3.273
30724W        W92090  28.994   2.824   4.126
30725W        W92091  23.705  40.011  11.874
30726W        W92092  26.674  29.662   4.266
30727W        W92093  43.885   6.359   2.702
30728W        W92094  22.207  41.796  14.947
30729W        W92095  18.106   5.242   0.879
30730W        W92096  39.851  15.678   2.209
30731W        W92097  17.265  12.213  12.373
30732W        W92098  28.526   6.717  11.060
30733W        W92099  19.721   0.879   3.379
30734W        W92100  28.042   7.342   2.892
30735W        W92101   7.263   2.463  14.834
30736W        W92102  23.164  16.150  14.502
30737W        W92103   8.703  27.996  13.437
30738W        W92104  21.579   2.297   3.775
30739W        W92105   9.781  29.424  11.915
30740W        W92106  19.048  24.156   4.794
30741W        W92107  10.661  21.679   1.785
30742W        W92108   1.944   9.721   1.228
30743W        W92109  21.703  40.867  13.000
30744W        W92110  16.121  30.487   0.434
30745W        W92111   7.288  32.939  12.367
30746W        W92112  40.950  22.209   0.282
30747W        W92113   7.400  30.111   2.823
30748W        W92114  12.686  37.882   4.306
30749W        W92115  43.933  22.724  14.371
30750W        W92116   8.736  40.027   2.368
30751W        W92117  15.585   8.862  10.437
30752W        W92118  28.149  24.710   3.667
30753W        W92119  43.449  29.479   3.793
30754W        W92120   9.194  42.318  13.997
30755W        W92121  27.457  36.883   0.867
30756W        W92122   4.343  39.959   4.234
30757W        W92123   0.305  35.009  14.950
30758W        W92124   5.875  14.101  12.395
30759W        W92125  23.984  29.945  14.951
30760W        W92126  18.674  43.874  10.997
30761W        W92127  38.077  18.117   1.311
30762W        W92128  10.844  31.988   3.677
30763W        W92129  11.797  38.490  13.449
30764W        W92130   4.206  20.582   4.699
30765W        W92131  38.358  26.074   0.944
30766W        W92132  29.554  40.875   3.711
30767W        W92133  25.073  20.152   4.811
30768W        W92134   9.301   6.830  10.439
30769W        W92135   4.784  14.754  10.045
30770W        W92136  29.057   2.949  13.824
30771W        W92137  24.603  33.919  13.502
30772W        W92138  41.890  44.004  12.885
30773W        W92139   4.272  11.678  12.546
30774W        W92140  15.765   0.890   3.247
30775W        W92141  24.061  19.764  13.925
30776W        W92142   3.725  10.665  10.435
30777W        W92143  15.130  13.669   4.615
30778W        W92144  13.737  35.374   2.336
30779W        W92145  35.588   3.757  11.903
30780W        W92146  21.222  32.435  14.959
30781W        W92147  37.962  29.646   4.267
30782W        W92148   2.382  28.112  14.436
30783W        W92149  42.991  24.173  12.902
30784W        W92150  34.458  27.572  12.504
30785W        W92151  34.558  34.577   1.353
30786W        W92152  39.389  16.628   3.681
30787W        W92153   0.957  35.906  14.369
30788W        W92154  27.510  18.609   0.247
30789W        W92155   0.943  11.134  11.405
30790W        W92156  40.860  42.518  14.371
30791W        W92157   9.785   0.377  14.398
30792W        W92158  29.439   9.886   0.263
30793W        W92159   4.756  32.913   1.336
30794W        W92160  40.466  21.090   3.154
30795W        W92161  29.989  23.145   4.788
30796W        W92162  40.535  14.816   3.810
30797W        W92163  13.268  14.697  12.087
30798W        W92164  30.480  14.724   1.282
30799W        W92165   2.463  15.110   3.804
30800W        W92166   3.454  19.613   0.918
30801W        W92167  43.838  17.684   1.838
30802W        W92168  26.999   0.795  10.482
30803W        W92169  29.488  30.968   2.804
30804W        W92170   0.285   9.803  12.883
30805W        W92171  39.480  44.390   4.278
30806W        W92172   6.923  13.162  10.032
30807W        W92173  35.363   9.652   3.268
30808W        W92174  17.607   9.352   3.355
30809W        W92175  11.257  18.672  14.328
30810W        W92176  35.551  30.991  11.393
30811W        W92177  11.133  27.597   0.445
30812W        W92178  36.593  25.590   4.780
30813W        W92179   2.468  35.922  11.493
30814W        W92180  39.450  27.031  12.067
30815W        W92181  19.677  29.141   1.316
30816W        W92182  28.632   4.339  13.536
30817W        W92183  35.098  19.635   1.442
30818W        W92184   0.295  42.906  10.480
30819W        W92185  25.503  11.156  10.981
30820W        W92186  25.018   4.407   2.693
30821W        W92187  41.831  40.483  11.031
30822W        W92188  34.385  24.188  14.292
30823W        W92189  42.944  32.519   4.597
30824W        W92190  17.091  15.686  13.819
30825W        W92191  33.121  24.122  10.561
30826W        W92192  10.260  33.500   0.474
30827W        W92193  35.582   8.254   0.818
30828W        W92194  17.702  22.727  13.340
30829W        W92195  17.203  18.711  13.906
30830W        W92196  36.518  37.416   2.739
30831W        W92197   0.300  23.006  10.416
30832W        W92198  32.011  12.772   4.762
30833W        W92199  37.556  28.615  13.327
30834W        W92200  22.572  21.242   3.862
30835W        W92201  12.659   4.743  13.927
30836W        W92202   0.432  29.634  14.830
30837W        W92203   5.758  33.942  13.329
30838W        W92204   5.435  42.413   0.896
30839W        W92205  28.551   3.769  12.045
30840W        W92206  36.459  10.328   3.869
30841W        W92207  12.197  41.877   3.855
30842W        W92208  21.133  32.621   1.779
30843W        W92209  35.505  14.764   1.328
30844W        W92210  32.037  13.251  10.603
30845W        W92211  14.117  39.495   3.174
30846W        W92212  39.487  25.552   1.261
30847W        W92213  36.426  16.735   4.727
30848W        W92214  42.881  23.516  10.895
30849W        W92215  25.696  41.420  11.956
30850W        W92216   9.882  36.988  14.390
30851W        W92217   4.284  30.008  11.907
30852W        W92218  26.987  37.503   3.711
30853W        W92219  13.793   6.856   1.390
30854W        W92220  37.038   9.677  13.958
30855W        W92221  37.905  10.324  14.391
30856W        W92222  14.157   8.893  14.444
30857W        W92223  21.164  12.791  14.027
30858W        W92224  10.796  33.584  13.529
30859W        W92225  33.952   9.796  11.567
30860W        W92226  30.527  44.488   0.439
30861W        W92227  34.529  24.623   1.698
30862W        W92228   6.747  38.919   4.752
30863W        W92229  34.470  30.624  10.904
30864W        W92230  32.426  35.567  14.363
30865W        W92231   2.786  35.393  13.521
30866W        W92232  22.605  37.498   4.307
30867W        W92233   5.789  38.975   1.261
30868W        W92234  37.023  22.606  13.981
30869W        W92235  36.547   0.771   1.397
30870W        W92236  44.429  42.501  14.929
30871W        W92237  44.930   5.778   3.151
30872W        W92238  21.129  23.068  14.821
30873W        W92239  35.964  27.080   3.706
30874W        W92240  27.157  18.196   0.955
30875W        W92241  12.173  30.102  11.956
30876W        W92242  20.693  22.742   2.668
30877W        W92243  37.945  24.230  11.434
30878W        W92244  26.159  34.484  12.396
30879W        W92245  27.118  42.390  10.501
30880W        W92246  13.107  35.922  10.519
30881W        W92247  39.410  32.607  12.374
30882W        W92248  21.125   9.258   0.884
30883W        W92249  36.397   4.891  14.910
30884W        W92250  41.984  37.354  11.522
30885W        W92251  32.919  27.499  14.880
30886W        W92252  32.550   7.874  14.500
30887W        W92253  26.697  29.068  11.520
30888W        W92254   5.362   8.823   3.171
30889W        W92255  28.496  32.622   3.843
30890W        W92256  23.177  15.158  12.929
30891W        W92257  26.123  10.287   4.144
30892W        W92258   2.436   5.412   3.182
30893W        W92259  13.622  26.643  11.460
30894W        W92260  43.917  16.584   0.956
30895W        W92261   1.937  37.404   5.301
30896W        W92262   6.899   2.792  14.898
30897W        W92263  12.256   6.694  11.020
30898W        W92264  24.130  19.197   0.944
30899W        W92265  44.851  10.299  13.004
30900W        W92266  18.752  33.936   0.886
30901W        W92267  43.012  41.381  10.429
30902W        W92268  11.267  30.923  10.941
30903W        W92269  19.141  22.622  13.902
30904W        W92270  34.448  10.252   1.267
30905W        W92271   5.778  36.410  14.476
30906W        W92272  15.794   3.415   5.131
30907W        W92273  16.258  18.556   3.286
30908W        W92274   0.276  23.736  13.795
30909W        W92275  39.032  19.071  12.443
30910W        W92276  30.160  19.538  12.389
30911W        W92277  34.385  11.235   1.753
30912W        W92278  22.122  20.540  12.002
30913W        W92279  12.705  37.457  12.446
30914W        W92280  12.651  40.479  13.919
30915W        W92281   6.859  22.515   2.828
30916W        W92282   7.846  12.199   3.714
30917W        W92283  41.020  43.928  14.422
30918W        W92284  32.420  37.850   3.157
30919W        W92285  14.124  29.605   3.252
30920W        W92286  37.576  14.703  13.877
30921W        W92287  11.314  25.095   2.736
30922W        W92288   4.448  28.505   4.145
30923W        W92289  14.801  40.814  14.314
30924W        W92290  28.586  24.011  10.563
30925W        W92291  41.901  41.862   1.837
30926W        W92292  17.651  35.438   2.815
30927W        W92293   7.314  10.696   4.325
30928W        W92294  28.486  37.944  12.027
30929W        W92295  29.486  10.351   2.308
30930W        W92296  32.949  32.137   2.417
30931W        W92297  29.621   1.390  12.028
30932W        W92298  27.958  38.872  13.887
30933W        W92299  38.402  13.248  14.976
30934W        W92300   3.849  14.721   2.868
30935W        W92301   0.275   8.263   1.303
30936W        W92302   5.784  18.679   4.656
30937W        W92303  11.828  36.985   2.775
30938W        W92304   5.868  26.010  10.409
30939W        W92305  32.101   7.831   3.782
30940W        W92306  40.428  27.005  14.860
30941W        W92307  18.193  24.532  12.578
30942W        W92308  17.568  22.184   2.852
30943W        W92309  16.595  21.717  10.415
30944W        W92310  11.697  24.143  10.983
30945W        W92311  10.863  17.561  11.455
30946W        W92312  24.139  16.253  12.869
30947W        W92313  41.995  26.008   0.889
30948W        W92314   9.664  29.975   3.747
30949W        W92315  24.155  37.361   0.465
30950W        W92316  42.933  13.201   2.744
30951W        W92317  29.479  40.962  14.024
30952W        W92318  40.990  38.861   1.697
30953W        W92319  17.229  16.605  12.993
30954W        W92320  21.566  35.559   1.305
30955W        W92321  32.916  12.314  11.548
30956W        W92322  37.548  29.649   4.308
30957W        W92323  18.763   4.881   5.309
30958W        W92324  11.820  25.705  13.999
30959W        W92325   6.882  11.740   2.864
30960W        W92326  40.819   3.350  13.063
30961W        W92327   7.812  21.547   0.792
30962W        W92328  38.488  20.028  14.469
30963W        W92329  28.102  29.620  14.463
30964W        W92330  38.378  36.087  12.940
30965W        W92331  22.626   5.332   3.841
30966W        W92332  41.340   3.870   1.897
30967W        W92333  13.679   0.268   4.747
30968W        W92334  31.987   3.861   2.399
30969W        W92335  21.647  13.206  13.492
30970W        W92336  12.804   6.690  13.941
30971W        W92337   6.777  14.639   0.436
30972W        W92338  14.247   9.676  11.574
30973W        W92339  19.185  12.806   1.368
30974W        W92340  44.986   7.829  11.574
30975W        W92341  44.009   6.204  11.001
30976W        W92342  32.087   6.367  14.950
30977W        W92343   4.440   6.836  14.830
30978W        W92344  14.679  24.986   4.682
30979W        W92345  17.630   7.777   3.149
30980W        W92346  37.032  43.826  11.894
30981W        W92347  14.174  19.242  10.996
30982W        W92348   7.882  38.397  13.357
30983W        W92349  14.765  41.957  11.050
30984W        W92350  11.203  11.701   4.827
30985W        W92351  11.299  39.459  11.562
30986W        W92352  16.310  21.612   0.435
30987W        W92353  28.605  26.467   3.857
30988W        W92354   1.790  13.347   3.323
30989W        W92355   8.679  36.582   1.838
30990W        W92356  16.669   3.720   4.624
30991W        W92357  35.956  19.110   3.187
30992W        W92358  31.100  42.835   1.713
30993W        W92359  30.481  21.537  13.895
30994W        W92360  21.175  30.975   2.892
30995W        W92361  33.608  19.640   1.243
30996W        W92362  14.212  26.161   3.829
30997W        W92363  27.504  21.193  11.443
30998W        W92364  19.658  31.599   2.766
30999W        W92365   8.298   6.794   3.756
31000W        W92366  44.952  40.536  12.570
31001W        W92367  43.296  23.088   2.337
31002W        W92368   8.295  31.915  13.916
31003W        W92369  38.424  32.547  12.988
31004W        W92370   8.218   3.341   4.833
31005W        W92371  13.183  31.559   0.910
31006W        W92372  19.584  29.523   1.713
31007W        W92373  42.314  16.300  14.491
31008W        W92374  20.253  18.567   1.887
31009W        W92375  44.784  41.521  13.413
31010W        W92376  33.083  10.689   2.203
31011W        W92377  19.715  40.432   3.163
31012W        W92378  23.004  41.000  13.921
31013W        W92379   4.444   6.866  12.824
31014W        W92380  44.464  15.230  10.639
31015W        W92381   0.291  41.423   4.355
31016W        W92382  14.740  27.972  12.395
31017W        W92383  33.393  30.054  11.583
31018W        W92384   8.222  38.347  11.472
31019W        W92385  40.454   6.289   0.824
31020W        W92386  15.766  11.247  10.597
31021W        W92387  23.187   6.270  11.525
31022W        W92388   9.882  39.052   2.330
31023W        W92389  19.081  10.745   3.715
31024W        W92390  33.522   1.742   2.695
31025W        W92391  41.014  33.477   4.243
31026W        W92392  24.615  12.314  10.509
31027W        W92393  40.442  40.954   0.903
31028W        W92394  26.702   5.765   4.709
31029W        W92395   9.277  19.759   3.846
31030W        W92396  18.671   8.199   3.817
31031W        W92397  38.428  41.377   1.731
31032W        W92398  39.317  17.063  14.384
31033W        W92399  25.576  21.602   2.729
31034W        W92400   5.373  17.723   3.684
31035W        W92401  18.099  15.225   0.741
31036W        W92402   5.780  17.250  13.916
31037W        W92403   7.185  16.113  11.420
31038W        W92404  22.561  24.594   1.835
31039W        W92405   9.755  32.511  13.535
31040W        W92406   2.366  25.990   3.240
31041W        W92407  16.676  17.270  12.842
31042W        W92408   1.436  20.729   4.838
31043W        W92409  16.579  18.070   5.209
31044W        W92410  10.830   7.234  11.861
31045W        W92411  34.449  15.753  13.339
31046W        W92412  24.632   7.796   3.208
31047W        W92413  34.482  21.263  13.804
31048W        W92414   7.720   3.927  14.351
31049W        W92415   2.843  10.710   3.159
31050W        W92416  42.959   5.740  10.629
31051W        W92417  42.518  38.866   4.620
31052W        W92418  30.415  23.169   4.193
31053W        W92419  44.930  31.981  12.505
31054W        W92420  44.446  33.996   2.798
31055W        W92421   4.222  37.038   0.799
31056W        W92422   6.755   3.265   3.334
31057W        W92423  12.158  44.396   1.761
31058W        W92424  33.954   8.289  14.789
31059W        W92425   4.707   7.232   0.316
31060W        W92426  36.539  35.538  11.126
31061W        W92427  25.627  26.972  14.031
31062W        W92428  34.969  34.590   0.768
31063W        W92429  36.860  18.778  14.317
31064W        W92430  10.301  25.210  14.008
31065W        W92431  18.702  42.296   3.639
31066W        W92432  17.068  14.262  14.918
31067W        W92433   9.884  13.343  10.952
31068W        W92434  37.974  13.605  12.577
31069W        W92435  18.296   7.407   0.925
31070W        W92436   1.846  39.023   4.765
31071W        W92437  21.229  31.052   0.426
31072W        W92438  24.065  44.891  13.985
31073W        W92439  20.620  37.392   1.312
31074W        W92440  18.695  13.289   2.301
31075W        W92441  35.875   5.852   0.749
31076W        W92442  35.873  39.439   4.713
31077W        W92443   9.888  41.529   4.264
31078W        W92444  11.183  15.160  11.034
31079W        W92445   7.340  17.277  12.359
31080W        W92446  24.686  20.050   2.210
31081W        W92447   8.294  32.121  11.894
31082W        W92448  43.422  12.182   0.453
31083W        W92449  14.751  22.252  14.941
31084W        W92450  34.566  18.266  12.452
31085W        W92451   9.727   9.723  12.954
31086W        W92452  10.769   8.872  12.962
31087W        W92453   2.798  12.733   3.296
31088W        W92454  22.042  18.639  14.337
31089W        W92455   6.888   6.186   3.245
31090W        W92456  28.608  37.917   4.814
31091W        W92457  12.134  38.949  12.953
31092W        W92458  23.055  31.452   2.348
31093W        W92459  37.018  15.784  11.385
31094W        W92460  14.338  16.133   4.800
31095W        W92461   8.741  24.181  10.994
31096W        W92462  29.431  25.488   0.761
31097W        W92463  16.721  41.410  12.885
31098W        W92464  30.511  34.450   4.597
31099W        W92465  13.659   0.860   0.766
31100W        W92466  30.910  10.836  13.505
31101W        W92467  14.767   1.380   2.183
31102W        W92468   0.807  29.084   1.828
31103W        W92469  28.942  10.845   3.865
31104W        W92470  34.089  43.913  13.402
31105W        W92471  34.612  42.481   0.408
31106W        W92472  21.019   9.263  13.919
31107W        W92473  20.176   4.918  11.392
31108W        W92474  15.125  12.285  14.859
31109W        W92475  39.485  16.168  12.889
31110W        W92476  31.445  33.450   3.824
31111W        W92477  29.151  12.739  12.457
31112W        W92478  11.217  23.068  11.500
31113W        W92479  25.674  26.082   9.594
31114W        W92480  41.976  32.137  12.422
31115W        W92481  44.973  10.258   3.700
31116W        W92482   2.949  13.634  14.489
31117W        W92483  43.783  17.771  13.475
31118W        W92484  26.533  28.991   4.306
31119W        W92485   5.925   0.293  14.869
31120W        W92486  24.218  42.444   4.333
31121W        W92487  18.728  20.530  10.503
31122W        W92488  27.173  40.521  14.484
31123W        W92489  36.527  39.438   0.264
31124W        W92490  28.532   6.738  12.958
31125W        W92491   2.397  23.716   5.291
31126W        W92492  10.861  32.572  12.950
31127W        W92493  42.966  43.938  13.010
31128W        W92494  16.648   9.752  12.553
31129W        W92495  19.691  44.294  10.939
31130W        W92496  39.521  22.627   1.795
31131W        W92497   4.715  29.981  14.892
31132W        W92498  24.189  20.614  11.077
31133W        W92499  18.732  15.822   9.584
31134W        W92500   6.359  21.678  11.961
31135W        W92501  40.037  41.919  13.868
31136W        W92502  14.636  25.107  10.093
31137W        W92503  11.854  31.918   0.396
31138W        W92504  37.530  13.743   1.927
31139W        W92505   4.345  44.829  11.441
31140W        W92506  30.020  12.703  12.339
31141W        W92507   5.892  22.711   3.325
31142W        W92508  32.079  21.748   4.310
31143W        W92509  18.216  43.814  12.842
31144W        W92510   9.684   3.851  11.876
31145W        W92511  43.799  39.430   3.745
31146W        W92512  41.922  15.266  12.927
31147W        W92513  23.235  32.985   4.125
31148W        W92514  11.197  39.397  13.376
31149W        W92515   7.224   1.928   4.203
31150W        W92516   6.368  24.697  12.013
31151W        W92517  32.457  35.584  12.982
31152W        W92518  30.445  15.664   4.779
31153W        W92519  29.521  16.791  13.898
31154W        W92520  12.720  19.266   0.938
31155W        W92521  37.460   7.878   2.222
31156W        W92522  25.970  42.783  14.942
31157W        W92523  23.157  38.859   4.188
31158W        W92524   4.881  26.560  10.090
31159W        W92525  28.483  28.469   1.778
31160W        W92526  24.480   0.491  14.373
31161W        W92527   0.487  17.632   2.827
31162W        W92528  27.097  12.150   4.757
31163W        W92529   6.225  18.778   3.769
31164W        W92530   2.763  33.063   4.247
31165W        W92531   2.744   4.721  13.372
31166W        W92532  16.666  37.364   2.898
31167W        W92533   6.740   7.859  14.473
31168W        W92534   8.313   5.755   4.806
31169W        W92535  13.839  34.482  13.405
31170W        W92536  25.467  41.984  14.858
31171W        W92537  16.187  28.120   1.409
31172W        W92538  20.043  17.211  13.968
31173W        W92539   5.381  30.526   9.938
31174W        W92540  42.497  23.169  10.404
31175W        W92541   1.971   5.248   0.408
31176W        W92542  25.689  14.134   3.328
31177W        W92543  14.668   7.176  13.954
31178W        W92544  24.694  11.310   0.296
31179W        W92545  44.011  30.652   0.899
31180W        W92546   8.750  27.092  10.551
31181W        W92547   8.303  43.440   3.261
31182W        W92548  14.338  25.584   1.292
31183W        W92549   0.306  15.657   4.801
31184W        W92550   9.869  19.245  13.807
31185W        W92551  30.945  16.728  10.629
31186W        W92552  27.950  25.687  11.422
31187W        W92553  17.669  37.529  12.924
31188W        W92554  32.398   9.370   1.402
31189W        W92555  10.635  18.273  11.128
31190W        W92556   0.779  35.996  13.451
31191W        W92557   9.756  29.142   3.856
31192W        W92558  21.212  25.043   0.357
31193W        W92559  13.233  29.599  12.935
31194W        W92560  29.566  26.187  13.344
31195W        W92561  25.610  23.218   3.756
31196W        W92562   1.844  13.348   1.412
31197W        W92563  25.155  13.764   4.669
31198W        W92564   8.743   5.719   9.474
31199W        W92565  41.006  25.581  12.538
31200W        W92566  38.066  12.670   4.158
31201W        W92567  13.213  16.145  14.479
31202W        W92568  34.436  14.308   5.135
31203W        W92569  30.033  25.158   1.806
31204W        W92570  26.055  26.113  10.048
31205W        W92571  42.348  17.145  11.386
31206W        W92572  28.075  39.956  11.552
31207W        W92573  26.578   7.710   1.235
31208W        W92574  36.966  10.755  12.053
31209W        W92575  23.112  41.951   2.399
31210W        W92576  29.030  43.960  13.055
31211W        W92577  37.408  40.934   2.722
31212W        W92578  11.135  35.085  11.917
31213W        W92579  20.181  34.570  13.458
31214W        W92580  24.569   0.761  13.980
31215W        W92581  19.659   5.849  10.489
31216W        W92582  35.863  22.519   1.738
31217W        W92583   6.721  25.524   1.785
31218W        W92584  38.965  22.172   4.694
31219W        W92585  12.680  27.184   0.402
31220W        W92586  25.469  24.694   4.825
31221W        W92587   9.889  10.831  14.334
31222W        W92588  31.624  14.772   2.340
31223W        W92589  44.498  37.041   2.815
31224W        W92590   4.853   5.883   1.322
31225W        W92591  19.119  38.021  11.976
31226W        W92592  17.176  25.003  13.849
31227W        W92593  37.840  19.262   1.229
31228W        W92594  23.220  21.108  12.374
31229W        W92595  36.553  22.190  12.891
31230W        W92596  12.258  21.591   4.752
31231W        W92597  28.660  19.778   2.233
31232W        W92598  35.969   8.198  12.933
31233W        W92599  10.822  34.998  14.866
31234W        W92600  40.054   7.376  12.064
31235W        W92601  24.487  41.412   4.787
31236W        W92602  22.708  10.227   3.708
31237W        W92603  28.543   8.251  11.448
31238W        W92604   2.440  14.772   0.285
31239W        W92605  23.642  30.098  10.945
31240W        W92606  18.711  25.971   2.289
31241W        W92607  10.155  26.114   2.721
31242W        W92608  10.778  18.634   3.203
31243W        W92609  22.008  24.519   4.739
31244W        W92610   2.403  18.765   4.132
31245W        W92611  39.840  35.458  12.500
31246W        W92612  26.963  38.327   2.830
31247W        W92613   2.232  26.969   4.786
31248W        W92614  42.436   6.900   1.386
31249W        W92615  24.589   8.400  13.026
31250W        W92616  42.011  26.526  11.522
31251W        W92617  29.637   7.696  12.961
31252W        W92618  38.052  32.419   4.618
31253W        W92619  31.109  23.221  10.628
31254W        W92620   3.410  33.912   1.404
31255W        W92621  16.227   3.236   0.331
31256W        W92622  25.533  14.104  14.295
31257W        W92623  33.056  28.577  13.414
31258W        W92624  41.384  12.704  12.489
31259W        W92625   5.731  22.160  13.517
31260W        W92626  21.095  41.917   3.770
31261W        W92627   0.341   5.197  13.831
31262W        W92628  35.862  36.027   3.716
31263W        W92629  39.999   6.855  14.989
31264W        W92630  20.639  40.012   3.630
31265W        W92631   5.793  44.371  10.408
31266W        W92632  37.545  33.959   0.266
31267W        W92633  29.017  31.056  14.511
31268W        W92634  20.753  15.286   4.675
31269W        W92635  34.522  23.993   1.877
31270W        W92636  22.036  44.438   0.733
31271W        W92637   2.247  31.083   1.361
31272W        W92638   4.789   0.882  14.803
31273W        W92639  19.236  39.836  11.598
31274W        W92640  14.740   6.366  11.961
31275W        W92641  36.882  44.445  14.806
31276W        W92642  31.619  37.582   1.400
31277W        W92643  26.176   8.826  13.829
31278W        W92644  42.502  37.831  14.320
31279W        W92645  16.282  16.308  14.392
31280W        W92646  19.703   1.916   2.314
31281W        W92647  36.567  19.617   1.423
31282W        W92648  37.016  27.664  11.088
31283W        W92649  44.992   0.395  13.431
31284W        W92650  26.695  34.442   0.793
31285W        W92651  19.538   8.656   0.427
31286W        W92652  10.337  22.130   1.727
31287W        W92653  27.479  24.493   3.190
31288W        W92654   3.401  31.989   1.764
31289W        W92655  30.085   9.664  12.367
31290W        W92656  23.040  14.144   2.668
31291W        W92657   9.198  35.022  13.348
31292W        W92658  11.733  28.450  14.978
31293W        W92659  16.591   0.820  13.542
31294W        W92660   1.946  23.521  13.478
31295W        W92661  19.675  18.104   0.438
31296W        W92662  35.475  12.157   0.823
31297W        W92663  18.680  30.156   4.255
31298W        W92664  41.869  19.546   2.207
31299W        W92665  26.975   5.424  14.909
31300W        W92666  10.777   3.406  10.933
31301W        W92667   1.846  31.904   0.246
31302W        W92668  32.585  16.158  12.479
31303W        W92669  29.508  23.610  14.763
31304W        W92670   8.160  11.755   1.732
31305W        W92671  19.070  22.703   1.396
31306W        W92672   1.460   7.682  11.415
31307W        W92673  34.574  15.118  11.600
31308W        W92674  12.725  38.493   1.721
31309W        W92675  27.548  26.698   0.483
31310W        W92676  13.234   4.272   1.885
31311W        W92677  27.195  30.085   2.788
31312W        W92678   8.171  27.685  11.509
31313W        W92679  24.101   8.659  14.438
31314W        W92680  38.891   2.777   4.807
31315W        W92681  12.759  39.357   3.835
31316W        W92682  43.842   4.937   2.674
31317W        W92683   3.276  35.887  13.020
31318W        W92684  32.130  31.600   3.829
31319W        W92685  16.316  37.044  11.530
31320W        W92686  24.099  16.091  10.476
31321W        W92687  13.809  22.037  14.399
31322W        W92688   0.471   1.356  13.010
31323W        W92689  38.493  41.949   1.760
31324W        W92690  36.513  28.566  14.766
31325W        W92691   0.749  18.158   0.395
31326W        W92692   3.838  29.449   1.877
31327W        W92693  23.223   7.793   0.921
31328W        W92694  39.886  26.020   3.866
31329W        W92695   1.861  14.201   1.802
31330W        W92696  11.816   4.346  11.034
31331W        W92697  40.510  42.786   3.789
31332W        W92698  41.904  19.048  13.020
31333W        W92699   2.777  23.193  13.798
31334W        W92700  42.985   1.386  13.319
31335W        W92701  18.748  10.249  10.465
31336W        W92702  42.520  14.120  13.407
31337W        W92703  16.751  30.064   3.288
31338W        W92704  10.867   3.224  11.483
31339W        W92705  30.155  22.233   2.836
31340W        W92706  43.287  33.495   1.783
31341W        W92707  30.096  37.898   1.296
31342W        W92708  28.669  41.941   2.346
31343W        W92709  39.392  21.627  14.443
31344W        W92710  33.071   9.738   2.205
31345W        W92711  35.076  39.502  10.510
31346W        W92712  42.300   6.858  14.432
31347W        W92713  12.300  26.960   1.358
31348W        W92714  35.449  37.075  12.054
31349W        W92715  32.948   1.825  14.006
31350W        W92716  18.689  32.522   4.691
31351W        W92717  12.833  10.356  11.859
31352W        W92718   7.719  20.130  12.825
31353W        W92719  41.947  35.940   0.858
31354W        W92720   9.229  16.801  10.037
31355W        W92721  11.297  22.146   2.675
31356W        W92722  15.210   4.356  13.427
31357W        W92723  11.192   0.368   2.372
31358W        W92724  32.498   9.839  14.796
31359W        W92725   0.275   0.842   0.796
31360W        W92726  22.035  12.276   4.819
31361W        W92727  31.590   0.782   1.712
31362W        W92728  40.831   5.403   4.338
31363W        W92729  35.013  21.029  12.478
31364W        W92730  28.575  30.498  13.390
31365W        W92731  36.583  21.695  12.953
31366W        W92732  40.012   0.323  13.912
31367W        W92733  17.091   0.269   1.787
31368W        W92734  20.124  41.506  10.984
31369W        W92735  26.516  29.462  10.571
31370W        W92736  29.092  17.559   1.225
31371W        W92737   8.382   6.869   0.253
31372W        W92738   2.747  31.638  10.554
31373W        W92739   7.674   3.439   1.827
31374W        W92740  35.882   1.815   1.852
31375W        W92741  22.665  34.115   3.373
31376W        W92742  35.448  26.686   4.201
31377W        W92743  39.849  40.314  12.014
31378W        W92744  30.970  31.523  11.566
31379W        W92745  35.926  36.089  10.929
31380W        W92746  23.646  33.029   2.252
31381W        W92747  23.200  42.383  10.557
31382W        W92748   2.351   8.889   5.179
31383W        W92749  35.082  38.426  11.983
31384W        W92750   4.234   3.313  12.549
31385W        W92751  44.782  31.581   2.368
31386W        W92752   9.345  22.017   1.755
31387W        W92753   4.330  30.930   5.199
31388W        W92754  34.569  23.613   2.675
31389W        W92755  10.658  12.189   4.187
31390W        W92756  35.871  10.779  12.388
31391W        W92757  44.871   2.755   0.831
31392W        W92758  22.067  34.976  11.943
31393W        W92759  38.940   7.837   0.419
31394W        W92760  19.696  12.355  10.603
31395W        W92761   0.822  10.303   1.757
31396W        W92762  10.138  10.633  14.890
31397W        W92763  27.181  41.461  11.445
31398W        W92764   2.265  18.717  13.803
31399W        W92765  41.958  40.386   1.246
31400W        W92766  29.988  34.561  10.495
31401W        W92767  11.129  26.570  12.990
31402W        W92768  44.307  20.099  12.984
31403W        W92769  20.272  23.716   3.248
31404W        W92770  12.772  21.153  13.056
31405W        W92771  36.524  33.625   3.155
31406W        W92772  41.485  25.478  14.769
31407W        W92773  19.735  25.043   2.296
31408W        W92774  21.168  27.542   3.750
31409W        W92775  11.365  25.126  14.928
31410W        W92776  38.483   8.190  11.008
31411W        W92777  13.270  25.681  11.405
31412W        W92778  32.012  19.559   2.756
31413W        W92779   6.903  11.229  13.059
31414W        W92780  12.705  30.611   2.411
31415W        W92781  36.432  29.602  14.938
31416W        W92782  26.042  34.040  11.061
31417W        W92783   4.344  33.506   3.154
31418W        W92784  13.808  37.016   9.660
31419W        W92785  32.494  18.218  13.532
31420W        W92786  12.225  34.379  11.504
31421W        W92787  31.410  27.966  11.035
31422W        W92788   3.794  28.541  14.488
31423W        W92789  11.706  22.008   2.731
31424W        W92790  26.197  42.450  14.972
31425W        W92791  41.444  21.756   1.859
31426W        W92792  20.720  44.261  10.568
31427W        W92793  24.155  23.086   4.294
31428W        W92794  27.965  10.358   2.744
31429W        W92795  44.000  36.004   4.748
31430W        W92796   1.376   3.295   4.776
31431W        W92797   7.761  34.586  14.977
31432W        W92798  13.226  39.389   4.184
31433W        W92799   1.820  36.894  12.844
31434W        W92800  34.557  19.044  12.518
31435W        W92801  33.401  26.476  11.595
31436W        W92802  31.461  38.479  12.997
31437W        W92803  13.619  44.365   4.671
31438W        W92804  24.111  15.704  13.341
31439W        W92805  31.615   5.366   1.755
31440W        W92806  22.029  21.530  10.916
31441W        W92807  33.613  13.839  13.509
31442W        W92808  10.835  27.005   0.842
31443W        W92809  35.965  16.736  14.862
31444W        W92810  21.207  17.603   3.219
31445W        W92811   5.727  36.474   2.861
31446W        W92812  11.364  33.962  11.457
31447W        W92813  38.992  36.418   4.697
31448W        W92814   0.901   1.452  13.926
31449W        W92815  34.926  10.220  13.806
31450W        W92816  20.161  12.824   4.270
31451W        W92817   2.392  21.236  14.995
31452W        W92818  15.259   7.699  12.456
31453W        W92819   2.297   5.712   0.279
31454W        W92820   3.803  42.878   1.335
31455W        W92821   2.781  22.237   3.808
31456W        W92822  31.635   5.238  10.963
31457W        W92823  16.698  13.600  11.594
31458W        W92824  32.472  28.573   2.840
31459W        W92825  14.776  40.964   4.318
31460W        W92826   4.275   7.367  12.961
31461W        W92827  17.772  22.192  14.987
31462W        W92828  24.018  41.801  13.937
31463W        W92829  44.819  23.615   0.828
31464W        W92830  27.639  15.803  12.412
31465W        W92831  20.224  34.402  12.830
31466W        W92832  44.281  39.554  11.613
31467W        W92833  25.598  42.826  13.332
31468W        W92834  30.085   5.888   3.274
31469W        W92835  41.474  19.638  11.953
31470W        W92836  44.765  25.587  10.991
31471W        W92837  38.559   3.345  13.826
31472W        W92838   4.430  17.776   0.914
31473W        W92839  43.801  42.828  12.530
31474W        W92840  35.918  24.559   1.877
31475W        W92841  25.206  22.072  13.505
31476W        W92842  39.990  26.558   1.908
31477W        W92843  35.097   9.651  11.050
31478W        W92844   4.911  44.924   1.374
31479W        W92845  11.329   4.788   3.702
31480W        W92846   0.349   2.355   3.373
31481W        W92847   0.454  16.126  12.469
31482W        W92848  16.706  13.714   1.239
31483W        W92849  14.646  10.202   4.607
31484W        W92850  30.466  13.181  14.784
31485W        W92851  35.527   2.345   0.813
31486W        W92852  42.514  17.096  14.296
31487W        W92853  27.578  43.293   4.656
31488W        W92854  36.943  17.137   1.916
31489W        W92855  14.647  36.014   2.685
31490W        W92856  36.421  10.353  14.466
31491W        W92857  34.417  41.322   3.292
31492W        W92858   4.874  24.000  10.586
31493W        W92859   8.840  16.104  12.041
31494W        W92860  39.843  10.840  11.468
31495W        W92861  35.049   0.352  13.998
31496W        W92862  24.125   6.877  11.114
31497W        W92863  17.243  27.095   3.639
31498W        W92864  17.782   1.399   1.785
31499W        W92865  29.440  40.508   3.232
31500W        W92866  40.949   3.376   0.921
31501W        W92867  38.924  13.153   2.870
31502W        W92868   5.305  40.408  12.865
31503W        W92869  16.224  22.215  14.311
31504W        W92870  15.780  44.803   2.787
31505W        W92871  22.678  15.134   3.198
31506W        W92872   8.730  27.528   4.800
31507W        W92873  30.523  24.611   2.714
31508W        W92874  34.446  42.377  12.863
31509W        W92875  14.274  43.831  13.504
31510W        W92876   3.391  21.127  14.492
31511W        W92877  35.045  13.281   0.916
31512W        W92878  30.118  21.218   2.339
31513W        W92879  40.411  10.324  12.923
31514W        W92880  13.600  38.443   2.188
31515W        W92881  42.840  41.994   2.324
31516W        W92882  32.592  26.626   9.939
31517W        W92883  41.968  14.597   2.224
31518W        W92884  24.126  24.993   1.325
31519W        W92885   9.689  22.228   3.828
31520W        W92886  23.237  30.012  10.982
31521W        W92887  38.935  14.179   0.402
31522W        W92888  37.413  23.636   4.212
31523W        W92889   4.901   3.248  12.504
31524W        W92890   1.778   5.812  11.864
31525W        W92891  22.113  40.908   3.635
31526W        W92892   9.329  39.827   2.375
31527W        W92893  25.013  34.986   0.781
31528W        W92894  30.632  37.843  10.494
31529W        W92895  36.498   9.262  12.514
31530W        W92896  43.962  25.652  14.424
31531W        W92897  40.473  33.513  12.857
31532W        W92898  28.942  23.025  14.369
31533W        W92899  39.518   5.405  14.921
31534W        W92900  24.513  20.698  11.447
31535W        W92901   6.905  33.981  13.327
31536W        W92902  29.572   9.856   4.293
31537W        W92903   3.431   6.687  13.037
31538W        W92904  33.623  25.512  13.009
31539W        W92905   0.803   0.339  12.030
31540W        W92906  18.258  22.076  12.532
31541W        W92907  17.594  18.694   1.407
31542W        W92908   7.778   9.784  12.567
31543W        W92909   3.761   7.675   4.612
31544W        W92910  18.236  26.164  13.421
31545W        W92911  23.517  33.551  11.460
31546W        W92912  16.588  27.099   3.359
31547W        W92913  33.552  13.214  13.462
31548W        W92914  38.956   9.191   1.287
31549W        W92915  32.919  13.290  14.990
31550W        W92916   5.813  39.545   3.293
31551W        W92917   9.768  28.954  13.865
31552W        W92918  40.960  39.500   0.466
31553W        W92919  16.119  42.480  14.786
31554W        W92920  33.045  17.091   0.242
31555W        W92921  23.162   0.412   4.767
31556W        W92922  28.531  14.786   2.709
31557W        W92923   2.387  16.605   4.334
31558W        W92924  15.690  43.333  12.830
31559W        W92925  11.717  29.582   4.724
31560W        W92926   5.704   1.828  10.954
31561W        W92927  17.291  33.527  10.143
31562W        W92928  19.091  18.136   4.716
31563W        W92929  21.179  38.889   3.224
31564W        W92930  13.840  40.352   0.321
31565W        W92931  38.955  36.003  12.900
31566W        W92932  40.811   0.367  10.408
31567W        W92933  16.643  34.599   0.931
31568W        W92934  21.541  42.365   4.763
31569W        W92935   3.778  13.845  13.490
31570W        W92936  23.670  33.109   1.840
31571W        W92937  37.506  44.759   4.790
31572W        W92938  12.839  14.337   5.616
31573W        W92939  30.919  26.686  13.530
31574W        W92940  22.187   1.288   2.749
31575W        W92941  28.133  34.382   3.258
31576W        W92942  23.144  32.923   0.844
31577W        W92943  27.680  26.111  14.961
31578W        W92944  40.051  39.847  10.534
31579W        W92945  27.073  23.185  14.819
31580W        W92946   7.839  44.951   2.684
31581W        W92947  25.584   1.822  14.373
31582W        W92948   5.913  36.846   2.393
31583W        W92949  24.115  38.008   3.192
31584W        W92950  27.143  20.190   2.739
31585W        W92951  13.263  10.147   4.796
31586W        W92952  18.589  33.524   9.954
31587W        W92953  13.328  15.218   2.808
31588W        W92954  24.172  38.408  10.990
31589W        W92955  35.861  10.360  14.446
31590W        W92956  17.640   3.820   2.360
31591W        W92957  12.688  19.208   2.306
31592W        W92958  26.988  42.425   2.779
31593W        W92959  19.654   6.194   4.776
31594W        W92960   9.808  22.187   4.836
31595W        W92961  10.818  40.502  11.084
31596W        W92962  25.690  39.965   2.278
31597W        W92963  42.820  16.712   1.247
31598W        W92964  24.146  27.044   3.787
31599W        W92965  41.935  10.369   4.302
31600W        W92966  24.708  15.585  12.515
31601W        W92967  23.170  18.746  10.501
31602W        W92968  27.654  29.506   3.781
31603W        W92969  42.454  37.053  12.897
31604W        W92970  12.350  43.981   2.417
31605W        W92971  19.586  11.264   4.671
31606W        W92972  34.932   9.883   0.899
31607W        W92973  39.824   8.281   4.813
31608W        W92974   8.376  39.331  11.111
31609W        W92975  33.602  37.016   1.928
31610W        W92976  24.168  10.258  14.759
31611W        W92977  41.453  33.024  13.471
31612W        W92978  36.423  10.690   4.281
31613W        W92979  27.984  39.050   0.429
31614W        W92980   6.800   1.354  12.430
31615W        W92981  26.529   8.384   4.188
31616W        W92982  22.197  10.235  14.948
31617W        W92983  33.596  11.723   1.292
31618W        W92984  37.396  36.501   3.806
31619W        W92985  17.305   3.711  11.875
31620W        W92986  10.369  25.101   3.806
31621W        W92987  44.264  17.178  10.011
31622W        W92988  41.798  21.138   1.911
31623W        W92989   7.281  32.494  14.005
31624W        W92990   7.909  37.989   2.828
31625W        W92991  43.905  11.250  12.563
31626W        W92992  27.485  37.514   2.224
31627W        W92993   9.785  26.959   4.252
31628W        W92994  11.838   4.839  12.979
31629W        W92995  18.712  16.113  12.835
31630W        W92996  38.911  40.979  13.384
31631W        W92997   4.811  22.025   4.704
31632W        W92998  14.782   3.383   4.646
31633W        W92999  24.540  30.590  14.341
31634W        W93000  26.653  11.205   0.356
31635W        W93001   9.737   6.910  14.892
31636W        W93002  18.778  39.978   0.900
31637W        W93003  42.899  36.481  10.922
31638W        W93004  27.007  12.748   0.880
31639W        W93005  38.908  19.127   3.707
31640W        W93006  39.897  36.414  11.436
31641W        W93007   8.666  38.327  14.933
31642W        W93008  43.480  19.057  13.490
31643W        W93009  17.731  12.722  14.792
31644W        W93010  34.901  20.691   1.245
31645W        W93011   9.387  31.443   4.834
31646W        W93012  19.715  10.721   2.764
31647W        W93013  27.487  15.264   0.273
31648W        W93014  26.478  42.462  10.493
31649W        W93015  28.030  36.005   3.339
31650W        W93016  20.177  30.646  10.613
31651W        W93017  30.937  34.431  10.642
31652W        W93018   4.762  33.091  11.486
31653W        W93019  36.026   1.929  11.522
31654W        W93020   6.786  27.527   0.909
31655W        W93021  32.929  22.550  14.911
31656W        W93022  43.380  30.435  14.466
31657W        W93023  33.450  31.604   4.730
31658W        W93024  36.068  17.256  12.415
31659W        W93025   6.206  33.439  14.881
31660W        W93026  38.395  31.624   0.263
31661W        W93027  31.082   0.280  12.918
31662W        W93028  11.295  20.244  12.526
31663W        W93029   3.223  20.610  13.791
31664W        W93030  17.781  40.349  12.912
31665W        W93031   5.773  19.052  14.992
31666W        W93032  22.658   0.971  11.952
31667W        W93033   3.865  41.371  11.086
31668W        W93034   3.312  12.705  13.989
31669W        W93035  20.094  23.496   0.320
31670W        W93036  43.940  23.507   3.289
31671W        W93037  13.796  18.284   2.705
31672W        W93038  17.255  34.570   1.835
31673W        W93039  19.113  33.552  11.858
31674W        W93040  23.725  35.483  10.131
31675W        W93041  27.196   3.402  11.921
31676W        W93042  16.139  17.662   1.226
31677W        W93043   6.223  23.510  14.894
31678W        W93044  34.510  44.935   1.348
31679W        W93045  18.280  31.089   3.743
31680W        W93046  12.281  39.884  11.114
31681W        W93047   8.668  15.665   3.199
31682W        W93048  14.765  24.680   1.220
31683W        W93049  33.559  22.220   3.345
31684W        W93050  40.818  43.964   1.311
31685W        W93051  16.577  22.545   3.153
31686W        W93052  24.993   2.794   1.924
31687W        W93053   4.399  22.639   4.684
31688W        W93054  41.535  41.893   3.670
31689W        W93055  28.644  13.188   4.325
31690W        W93056  24.203  21.250  10.951
31691W        W93057   5.390  18.667  11.864
31692W        W93058   6.267  28.041  12.441
31693W        W93059  42.394  10.668  11.020
31694W        W93060  13.263  25.183  14.820
31695W        W93061   3.353  43.900   0.750
31696W        W93062   6.331  35.384   2.355
31697W        W93063   2.915  44.974   0.966
31698W        W93064   0.271   9.686  14.901
31699W        W93065  19.698  26.209   1.702
31700W        W93066  31.039  23.193   0.859
31701W        W93067  23.674   1.958  11.510
31702W        W93068  39.882  11.752   4.326
31703W        W93069   1.751   3.752  10.529
31704W        W93070  13.279  33.066   3.346
31705W        W93071   8.274   7.193  11.128
31706W        W93072   8.266  13.795   2.317
31707W        W93073  21.576   2.743  14.961
31708W        W93074  19.271   3.924  14.021
31709W        W93075  27.588  12.315   0.294
31710W        W93076  15.320  17.737  10.440
31711W        W93077   6.704  19.624  13.890
31712W        W93078  11.677  43.315   3.255
31713W        W93079  40.376  15.668   1.340
31714W        W93080  18.083   7.193  11.128
31715W        W93081   6.778  41.424   0.284
31716W        W93082  38.366  35.012   2.245
31717W        W93083  38.472   2.263   0.404
31718W        W93084  34.117  38.070  13.493
31719W        W93085   3.348   0.832  10.564
31720W        W93086  44.413  21.034   4.220
31721W        W93087  37.948   0.388   3.838
31722W        W93088  23.528  42.350  11.891
31723W        W93089  32.587  14.692   4.203
31724W        W93090   4.917   4.288   0.403
31725W        W93091   2.457  26.458  10.161
31726W        W93092  15.146  12.133   3.376
31727W        W93093  14.280  29.626  13.478
31728W        W93094  40.393  11.768  12.455
31729W        W93095  44.910  42.027   3.369
31730W        W93096  21.585   5.696  11.518
31731W        W93097  23.581  19.540  11.006
31732W        W93098  13.160  13.250  11.374
31733W        W93099  23.234  15.283  13.358
31734W        W93100  24.662  17.284   3.292
31735W        W93101  19.701   1.949  10.624
31736W        W93102  25.482   5.862  11.971
31737W        W93103  43.808  16.315   1.344
31738W        W93104   0.942  37.066  13.039
31739W        W93105   5.329   2.301  13.063
31740W        W93106   8.228  35.391  10.630
31741W        W93107   7.681   2.353  10.570
31742W        W93108   2.891   0.762   1.300
31743W        W93109   5.195   0.810   2.193
31744W        W93110   9.171  29.919  14.021
31745W        W93111   1.901  36.052   0.331
31746W        W93112   1.785  34.609   3.358
31747W        W93113  22.999  22.096  13.833
31748W        W93114  25.601  11.866   0.777
31749W        W93115  22.128   8.260   4.735
31750W        W93116  14.791  15.807  12.867
31751W        W93117  25.622  26.089  11.485
31752W        W93118  43.957   9.743  12.038
31753W        W93119  35.389   6.233   3.154
31754W        W93120   8.709  12.656   0.886
31755W        W93121  12.120  11.188  12.552
31756W        W93122   8.783  29.993  12.862
31757W        W93123  13.248  35.061  13.518
31758W        W93124   5.245  39.322   4.803
31759W        W93125   8.786  43.856  13.063
31760W        W93126  16.156  42.472   2.363
31761W        W93127  14.299   5.719   4.282
31762W        W93128  36.557  40.973   2.343
31763W        W93129  30.518  20.668   1.210
31764W        W93130   1.439  21.100   4.753
31765W        W93131   1.269  18.288  14.795
31766W        W93132   5.259  22.195  13.839
31767W        W93133  16.659  42.977   0.372
31768W        W93134  27.190  39.341   4.768
31769W        W93135  42.482  18.557   3.164
31770W        W93136  36.476  20.674  12.089
31771W        W93137  34.009  44.363   5.150
31772W        W93138  30.601  16.634  12.826
31773W        W93139  38.918  44.314   3.324
31774W        W93140  19.760  34.916  14.350
31775W        W93141  27.067   2.258   3.181
31776W        W93142   4.271   6.706  13.902
31777W        W93143   1.828  20.173  11.963
31778W        W93144  22.149  33.885  12.401
31779W        W93145  43.485   0.835  10.989
31780W        W93146  36.398   1.919  12.917
31781W        W93147  32.600   8.772   4.221
31782W        W93148  20.603  29.099  10.640
31783W        W93149  20.071  11.163   2.301
31784W        W93150  11.202  39.915   4.660
31785W        W93151  35.097  22.703   1.239
31786W        W93152  25.532  10.177   3.727
31787W        W93153  33.041   2.862  14.285
31788W        W93154  43.511   5.740   4.273
31789W        W93155  18.713   1.884   4.197
31790W        W93156   2.858  18.584   2.368
31791W        W93157  34.499  25.019  13.927
31792W        W93158   4.911  22.642   2.840
31793W        W93159   4.235   5.200   4.285
31794W        W93160  41.973  19.096   4.737
31795W        W93161  41.843  15.786   5.287
31796W        W93162  32.086  22.193  10.408
31797W        W93163   7.881  26.469   2.268
31798W        W93164  10.673  25.093   5.095
31799W        W93165  17.688  32.051  14.031
31800W        W93166   0.327  37.018  13.491
31801W        W93167  36.983  13.266  11.897
31802W        W93168  28.180  17.095   1.224
31803W        W93169   6.860  42.780  14.386
31804W        W93170   1.817  43.301   3.702
31805W        W93171  12.612  28.958   0.457
31806W        W93172   7.331  16.745  13.950
31807W        W93173  25.219  31.616  12.464
31808W        W93174   0.436   5.330  14.846
31809W        W93175  17.632  28.984  14.470
31810W        W93176  18.790  22.665   2.721
31811W        W93177  12.236  38.547  12.091
31812W        W93178  21.188  15.666  14.333
31813W        W93179   8.275  16.729   3.319
31814W        W93180  15.823  22.699  13.371
31815W        W93181   7.229  23.100  11.512
31816W        W93182  35.013   2.456  13.880
31817W        W93183  25.527  22.644   3.848
31818W        W93184  32.065   4.919   4.711
31819W        W93185  27.472  40.528   4.138
31820W        W93186  44.345   2.227  12.504
31821W        W93187  35.974  21.736   3.272
31822W        W93188  26.991  33.529  12.841
31823W        W93189  24.529  41.495   4.140
31824W        W93190   3.789   5.876   4.800
31825W        W93191   3.365  36.357   5.280
31826W        W93192  20.681  37.892  13.972
31827W        W93193  14.713  17.802  13.883
31828W        W93194  26.188  27.604   3.850
31829W        W93195   1.738  33.042   0.906
31830W        W93196  26.497  30.621  13.417
31831W        W93197  22.719  22.665  10.487
31832W        W93198   5.344  27.481   9.505
31833W        W93199  28.531  13.835   2.225
31834W        W93200   8.296  40.527   1.340
31835W        W93201  29.972  19.661   0.250
31836W        W93202  19.533  17.304  11.855
31837W        W93203  38.975  17.751  12.994
31838W        W93204   1.384  14.807   0.930
31839W        W93205  37.925  22.666  12.458
31840W        W93206  27.057   3.725   1.392
31841W        W93207  28.953   8.825   4.327
31842W        W93208  16.575  30.082   4.353
31843W        W93209  32.447  19.707  10.583
31844W        W93210  19.656  34.490  14.309
31845W        W93211  15.813  24.987  14.915
31846W        W93212  35.990  22.162  12.059
31847W        W93213   7.200  23.223   1.935
31848W        W93214  25.962  13.812  11.444
31849W        W93215  19.098   1.808  12.923
31850W        W93216  19.579  18.592  13.316
31851W        W93217  37.853  31.620   3.225
31852W        W93218  13.166  22.236   4.712
31853W        W93219   6.396  13.249  14.884
31854W        W93220  28.010  27.040   0.251
31855W        W93221  44.441  33.092   0.250
31856W        W93222   6.398   6.822  12.347
31857W        W93223   5.230  39.430   0.454
31858W        W93224  23.495  17.575  13.031
31859W        W93225  41.911  39.006  13.940
31860W        W93226  32.937  35.856   4.789
31861W        W93227  20.124  39.479  12.032
31862W        W93228  43.439  34.591   4.606
31863W        W93229  39.022  34.014  12.918
31864W        W93230  43.509   3.892  12.070
31865W        W93231  36.574  35.561   0.291
31866W        W93232  34.500  18.077   3.647
31867W        W93233   0.476   4.714  14.908
31868W        W93234   7.171  18.196   4.329
31869W        W93235  18.651   9.345  10.568
31870W        W93236   4.434  41.983  14.865
31871W        W93237  24.619   7.298   1.922
31872W        W93238   3.302  22.235   1.441
31873W        W93239  15.709  16.585   1.347
31874W        W93240  33.028  12.726  13.349
31875W        W93241  26.665  44.489   1.419
31876W        W93242   0.340   8.771  14.778
31877W        W93243   4.323  23.127  11.103
31878W        W93244  14.294  15.091   3.157
31879W        W93245   7.223  19.080   0.761
31880W        W93246  36.952  11.296   4.701
31881W        W93247  17.574  25.124  12.875
31882W        W93248  13.612  30.093   1.292
31883W        W93249  40.042  11.234  11.460
31884W        W93250   0.445  14.186   1.869
31885W        W93251  19.254  21.131  11.972
31886W        W93252  43.903   8.405  13.828
31887W        W93253  18.602  22.505   4.251
31888W        W93254  25.638  29.927   3.206
31889W        W93255  17.217  18.598  14.302
31890W        W93256  14.631  30.421  11.533
31891W        W93257  34.506  27.467  11.936
31892W        W93258   6.260  22.504   9.991
31893W        W93259  31.045  31.036   4.628
31894W        W93260  16.240  16.703   2.386
31895W        W93261  44.990  27.496   4.612
31896W        W93262   7.338  41.958   3.732
31897W        W93263  22.134   8.226   0.882
31898W        W93264  11.138  32.432  10.927
31899W        W93265  23.648   3.390   0.431
31900W        W93266   5.431  27.956  12.507
31901W        W93267  12.742  31.933   4.809
31902W        W93268   8.377  21.595   3.182
31903W        W93269  15.325   6.248   1.882
31904W        W93270  23.575  18.566   2.669
31905W        W93271  23.667  30.978  12.502
31906W        W93272  38.394  10.267  14.366
31907W        W93273  33.007  42.911   3.685
31908W        W93274  30.638  30.442  10.951
31909W        W93275  17.633  24.074   0.847
31910W        W93276  29.582   9.239   3.256
31911W        W93277  36.064  27.955   1.774
31912W        W93278   7.902  19.549  12.398
31913W        W93279  26.100  36.081  11.398
31914W        W93280  20.543  41.319  11.912
31915W        W93281  41.833  14.660  13.826
31916W        W93282  40.818  28.526  14.466
31917W        W93283  26.659  31.101   0.898
31918W        W93284  21.575  30.516  12.947
31919W        W93285  26.596   5.737   0.828
31920W        W93286  33.911  34.529   0.377
31921W        W93287  19.222  11.833   0.768
31922W        W93288  24.563   0.474  13.414
31923W        W93289  42.872  28.984  10.079
31924W        W93290  15.707   6.192   2.819
31925W        W93291  36.388   2.244   3.698
31926W        W93292  30.441  27.512  11.896
31927W        W93293   9.306   1.370   1.897
31928W        W93294  11.247  42.486   4.800
31929W        W93295  41.320  41.326   0.379
31930W        W93296   1.314  40.976  12.461
31931W        W93297  31.523  30.056   3.216
31932W        W93298   0.807  20.631   4.665
31933W        W93299  28.161  23.710   0.749
31934W        W93300  26.485  22.679   1.796
31935W        W93301  32.516  39.912  11.386
31936W        W93302  41.950  16.682  12.576
31937W        W93303  43.401  14.293   2.668
31938W        W93304  19.218  44.435   4.229
31939W        W93305  41.876  20.669  11.408
31940W        W93306   0.831  10.663  14.394
31941W        W93307  14.735   6.345   1.897
31942W        W93308  17.588  39.880  13.385
31943W        W93309  35.931  18.073  13.310
31944W        W93310  39.548  27.591  12.074
31945W        W93311   9.207  32.556  13.995
31946W        W93312  25.696  24.118   1.288
31947W        W93313  35.016   4.711  10.915
31948W        W93314  36.915   6.753  14.889
31949W        W93315  43.781  40.027   0.791
31950W        W93316  14.250  34.881  13.978
31951W        W93317  31.967  30.501  14.364
31952W        W93318  11.709  38.536   2.712
31953W        W93319  20.678  17.564   2.896
31954W        W93320  38.838  21.650  10.923
31955W        W93321  21.112  29.667  14.964
31956W        W93322  36.058   0.972   3.706
31957W        W93323  43.289   1.926  11.009
31958W        W93324  30.594  21.079  12.039
31959W        W93325  44.996  28.455  14.905
31960W        W93326   6.319   8.273   3.712
31961W        W93327  17.075  42.453   2.888
31962W        W93328  41.875  28.097   0.262
31963W        W93329  24.499  30.565   3.860
31964W        W93330  20.166  39.833  10.909
31965W        W93331  33.950  11.729   0.935
31966W        W93332  21.677  19.149   4.649
31967W        W93333   9.715   6.706  10.579
31968W        W93334  28.932  39.049  13.525
31969W        W93335   2.257  23.184  12.875
31970W        W93336  10.234  41.509   5.117
31971W        W93337   1.900   4.396   2.891
31972W        W93338  36.019   1.282   3.818
31973W        W93339  11.164  35.476   3.379
31974W        W93340  40.002  12.832   3.355
31975W        W93341  18.158  40.385   1.224
31976W        W93342  12.663  23.658  10.449
31977W        W93343  33.572  43.430   4.718
31978W        W93344   1.358   6.912   0.928
31979W        W93345   2.760  15.687   4.143
31980W        W93346   2.255  34.582   2.823
31981W        W93347  21.603  11.206   4.753
31982W        W93348  17.142  13.223  14.274
31983W        W93349  18.741   4.814  11.514
31984W        W93350   2.406   7.197  14.303
31985W        W93351  43.441   6.291   4.215
31986W        W93352  15.586  27.669   1.795
31987W        W93353  21.044  18.731   4.733
31988W        W93354  24.079  39.315   2.198
31989W        W93355  35.512  31.048  14.809
31990W        W93356  12.218  12.613   2.775
31991W        W93357  33.899  30.435  13.007
31992W        W93358  38.964  32.078  12.918
31993W        W93359  17.600  22.078   1.917
31994W        W93360  34.531  44.396  12.890
31995W        W93361  23.504   6.685   5.222
31996W        W93362   5.434   7.397   0.852
31997W        W93363  14.692  29.961  10.085
31998W        W93364   8.267  28.572  11.550
31999W        W93365  35.412  17.740  14.895
32000W        W93366  20.581   0.455   3.315
32001W        W93367  13.191  22.626  10.632
32002W        W93368   8.707  31.419   1.336
32003W        W93369  15.701   1.248   4.815
32004W        W93370  44.892  12.190   4.127
32005W        W93371  28.074  17.079   3.230
32006W        W93372  28.575   9.334  13.492
32007W        W93373  40.853  35.051  14.453
32008W        W93374   8.330  32.541  11.934
32009W        W93375  31.461  23.576   1.410
32010W        W93376  33.024  30.424   4.684
32011W        W93377  25.996  15.696   0.383
32012W        W93378  17.559  28.656   1.756
32013W        W93379  40.870  27.534  12.069
32014W        W93380  35.075   1.935  11.011
32015W        W93381  37.394  12.765  11.968
32016W        W93382  14.234  21.243  11.581
32017W        W93383  14.267  22.699  11.038
32018W        W93384  23.083  21.026  13.991
32019W        W93385  41.811  29.019   3.179
32020W        W93386  28.006  28.506   2.375
32021W        W93387   5.725  21.673   4.815
32022W        W93388  20.186  41.502   0.776
32023W        W93389  44.954  19.079  11.482
32024W        W93390   5.813  22.713  14.957
32025W        W93391  31.997   3.222  13.401
32026W        W93392  11.208   0.896   0.409
32027W        W93393  13.721  20.637  11.990
32028W        W93394  10.148   2.830  13.894
32029W        W93395   9.270   4.247  14.447
32030W        W93396   1.913  39.359  10.913
32031W        W93397  38.852  34.457   3.185
32032W        W93398   3.301   2.931   0.884
32033W        W93399  13.339  30.999  14.966
32034W        W93400   8.696   4.307  12.028
32035W        W93401  31.100  44.449   4.297
32036W        W93402  23.093  41.993  14.407
32037W        W93403  28.958  34.422  12.543
32038W        W93404  29.623   3.279   2.293
32039W        W93405  37.384  11.359  12.373
32040W        W93406  22.198  42.888  13.463
32041W        W93407  26.175  18.169  14.427
32042W        W93408  28.601  29.493  12.043
32043W        W93409  38.909  35.949  10.562
32044W        W93410  35.103  28.605  14.476
32045W        W93411   9.225  21.240  12.380
32046W        W93412  20.260  17.066   4.773
32047W        W93413   8.873   5.726   2.867
32048W        W93414  37.949  42.823  14.312
32049W        W93415  30.439  22.021  13.471
32050W        W93416  32.982  23.060   0.257
32051W        W93417   9.728  26.689  11.930
32052W        W93418  19.236  33.429   0.743
32053W        W93419   1.329   6.313   4.776
32054W        W93420  34.985  21.565  14.833
32055W        W93421  26.113   1.327  12.465
32056W        W93422  25.065  21.686   1.224
32057W        W93423  27.659  12.307   2.750
32058W        W93424  31.965  16.235  13.981
32059W        W93425  10.246   2.472  10.487
32060W        W93426   1.955   9.356   2.708
32061W        W93427   7.811   7.202   2.359
32062W        W93428  22.086  31.491   1.929
32063W        W93429  25.029  36.984   0.477
32064W        W93430  19.569  44.451  12.432
32065W        W93431  22.508  19.555   0.352
32066W        W93432  37.951  27.635   0.753
32067W        W93433  41.015   4.796   3.289
32068W        W93434  33.498  38.347   0.358
32069W        W93435  44.379  38.845  12.034
32070W        W93436  36.948  18.244   1.328
32071W        W93437  11.170  14.179   4.613
32072W        W93438  38.443  20.733  10.556
32073W        W93439  12.338  37.554  11.897
32074W        W93440  33.924  33.901  10.641
32075W        W93441   9.857  28.059   1.856
32076W        W93442  43.279  43.853  14.431
32077W        W93443  24.675  35.570   5.169
32078W        W93444  17.751  10.144   3.197
32079W        W93445   1.934   5.761  10.466
32080W        W93446  30.942   8.791  14.007
32081W        W93447  17.211   7.817   0.338
32082W        W93448  15.649  29.042   0.892
32083W        W93449  30.422  17.268   4.753
32084W        W93450  15.672   8.785  13.310
32085W        W93451   5.747   0.976  14.281
32086W        W93452   8.342  18.717   1.795
32087W        W93453  44.851  40.508  14.011
32088W        W93454  28.974  28.162  14.806
32089W        W93455  34.102  21.636   0.315
32090W        W93456  15.776  33.553   3.688
32091W        W93457  16.627  43.452  11.859
32092W        W93458   1.286  25.557   2.409
32093W        W93459  30.506  31.943   1.920
32094W        W93460  16.747  26.154  14.440
32095W        W93461   9.757  21.166   3.753
32096W        W93462  20.524  32.036  11.986
32097W        W93463  40.413   8.273  11.495
32098W        W93464  22.684   6.748   3.338
32099W        W93465   7.725  29.602   5.309
32100W        W93466   9.701  32.461   3.210
32101W        W93467  37.348  23.581   1.841
32102W        W93468  20.188  19.654  12.348
32103W        W93469  15.189  19.616   1.450
32104W        W93470  37.887  19.666  10.430
32105W        W93471  44.862  13.680  13.882
32106W        W93472  35.492  40.975   3.269
32107W        W93473  19.707   6.728   1.700
32108W        W93474  18.780  16.073  11.998
32109W        W93475  41.842  30.953  11.412
32110W        W93476   2.238   7.731   4.185
32111W        W93477  33.604  12.332   1.758
32112W        W93478   7.697  24.109   0.782
32113W        W93479  17.710  40.848   3.248
32114W        W93480  38.328  27.660  12.849
32115W        W93481  33.531  21.538  10.598
32116W        W93482  20.211  18.620   4.628
32117W        W93483  44.809   4.233  11.874
32118W        W93484  10.670  37.853  14.765
32119W        W93485  28.019  13.838   3.637
32120W        W93486  31.593  31.585  10.525
32121W        W93487  17.613  22.183  13.334
32122W        W93488  38.889  11.698  11.516
32123W        W93489  36.409  13.347   1.785
32124W        W93490  12.718   3.311   3.769
32125W        W93491   0.823  14.251   1.701
32126W        W93492  18.630  14.816  13.369
32127W        W93493   2.244  29.072  13.878
32128W        W93494  41.376  27.060  11.568
32129W        W93495  19.560   9.864   1.336
32130W        W93496  20.153  11.769  13.895
32131W        W93497  41.372  10.815   0.290
32132W        W93498  13.626   4.300   1.835
32133W        W93499  28.089  11.159   2.714
32134W        W93500   2.233  18.641   1.935
32135W        W93501  24.539  36.481  13.005
32136W        W93502  35.545  22.501  14.981
32137W        W93503  24.686   2.850   4.291
32138W        W93504  10.262  40.886  10.160
32139W        W93505  14.339  15.672   2.810
32140W        W93506  10.218  32.412  14.974
32141W        W93507  14.192  35.966   1.409
32142W        W93508   9.708  12.725  12.010
32143W        W93509   2.455  41.318  12.868
32144W        W93510  20.675  10.228   4.199
32145W        W93511  14.707  19.722  12.840
32146W        W93512  37.488  30.648   4.648
32147W        W93513  13.626  15.789   2.818
32148W        W93514   7.177   8.811  14.303
32149W        W93515  18.263  22.668   1.266
32150W        W93516  37.499  13.142   2.714
32151W        W93517   3.459   7.910   4.257
32152W        W93518   8.706  34.957   3.244
32153W        W93519   2.958  42.785   5.286
32154W        W93520  15.810  18.099   2.701
32155W        W93521  17.684  31.547   1.845
32156W        W93522   5.333  11.324  10.571
32157W        W93523  10.741  29.167  14.766
32158W        W93524   8.373   9.179   2.234
32159W        W93525  30.471  18.783  13.536
32160W        W93526  25.704  18.686   0.353
32161W        W93527  35.887   1.846   0.804
32162W        W93528  30.635  19.244   1.376
32163W        W93529  36.932  35.957   0.917
32164W        W93530  37.434  11.805  11.908
32165W        W93531  13.823  38.033  11.518
32166W        W93532  38.493  36.522  12.962
32167W        W93533  29.153   8.225   3.188
32168W        W93534  26.505   3.864   3.791
32169W        W93535  11.862  10.250  10.554
32170W        W93536  42.439  20.535  14.760
32171W        W93537  19.644  10.731  14.353
32172W        W93538   4.802  26.655   4.260
32173W        W93539  19.055   6.865   2.895
32174W        W93540  38.038  44.422  12.372
32175W        W93541  27.083  36.857   0.806
32176W        W93542  21.564  36.985  13.501
32177W        W93543   7.251  17.165  14.796
32178W        W93544  10.326  22.732   2.347
32179W        W93545  43.274  33.915  10.595
32180W        W93546  16.634  17.277   4.342
32181W        W93547  41.366  43.482  14.977
32182W        W93548  14.299  30.098   4.621
32183W        W93549   1.318  31.144   1.448
32184W        W93550  25.182  32.026   3.667
32185W        W93551  36.054  35.415   1.875
32186W        W93552  27.020  43.379   4.144
32187W        W93553  39.494  32.597   0.845
32188W        W93554  34.074  41.864  13.793
32189W        W93555  40.543  22.606  12.874
32190W        W93556  32.111  27.176  13.843
32191W        W93557  23.575  37.491   5.279
32192W        W93558  29.562  37.350   3.215
32193W        W93559  10.348   9.353  13.920
32194W        W93560  22.061   3.249   3.701
32195W        W93561   9.240  43.449  12.006
32196W        W93562   7.343  27.064  12.977
32197W        W93563  27.640  44.945   4.236
32198W        W93564  15.750  37.975  11.498
32199W        W93565  15.770  37.476   4.346
32200W        W93566  15.644   6.825  12.986
32201W        W93567  44.003  40.835  13.893
32202W        W93568   4.244  20.702   4.249
32203W        W93569  33.971  18.285   4.731
32204W        W93570  42.996  41.485  12.385
32205W        W93571  39.008  13.638   4.754
32206W        W93572  38.437  26.062   1.339
32207W        W93573  21.063  25.537  13.441
32208W        W93574  15.329  27.039   1.845
32209W        W93575  32.955   0.989   2.772
32210W        W93576   2.237  10.275   4.795
32211W        W93577  28.511   3.844  12.957
32212W        W93578  12.231   9.181  11.115
32213W        W93579  39.387  18.735  10.892
32214W        W93580  21.587  29.087  14.989
32215W        W93581  18.225   0.391  13.488
32216W        W93582  41.381  25.586  13.925
32217W        W93583  28.593   4.405   4.141
32218W        W93584  13.825  21.553  12.855
32219W        W93585  27.004  31.528   3.255
32220W        W93586  35.855   0.321  14.322
32221W        W93587  10.757  28.053  12.977
32222W        W93588  27.510  21.535   3.760
32223W        W93589  17.157  25.540   2.663
32224W        W93590  26.611  26.029   3.650
32225W        W93591  12.777   4.298  12.938
32226W        W93592  20.190  38.972   0.349
32227W        W93593   8.252  34.884   3.227
32228W        W93594   9.696   5.276  12.477
32229W        W93595   9.656  25.555  11.436
32230W        W93596  15.582   1.319  13.467
32231W        W93597   9.298   5.255  14.799
32232W        W93598   6.197   3.734  12.535
32233W        W93599  10.148  21.076  13.448
32234W        W93600   7.840  24.715  13.876
32235W        W93601  17.761  16.773   1.749
32236W        W93602  42.913  25.531  13.865
32237W        W93603  18.679  28.556  11.944
32238W        W93604   6.718  24.096   1.290
32239W        W93605  43.381  25.667   1.401
32240W        W93606   5.756  13.644  10.030
32241W        W93607  15.323  31.404   0.919
32242W        W93608  27.487  44.424   0.831
32243W        W93609   9.238  35.384   0.245
32244W        W93610  44.855   1.370   1.801
32245W        W93611  34.032   9.688   4.664
32246W        W93612   9.840   8.363  14.770
32247W        W93613  11.321   9.770   2.783
32248W        W93614  19.129   1.356   4.611
32249W        W93615  18.111  28.981   4.787
32250W        W93616  18.592  28.561   4.824
32251W        W93617   4.815  32.123   0.283
32252W        W93618  25.583  41.929   0.823
32253W        W93619  44.768  32.116   2.335
32254W        W93620  34.868  33.066   1.772
32255W        W93621  35.401  23.556  13.955
32256W        W93622  41.987   7.387  12.341
32257W        W93623  15.747  33.948  10.964
32258W        W93624  29.122  28.180   3.310
32259W        W93625  27.651  36.841  13.417
32260W        W93626   4.280  14.720  13.902
32261W        W93627  27.497  21.617  14.765
32262W        W93628  20.219  35.508  12.573
32263W        W93629  32.569  34.913   4.220
32264W        W93630  12.293   2.823   0.393
32265W        W93631  41.905  35.585  13.971
32266W        W93632  10.771  36.910   0.757
32267W        W93633  44.868   4.268  12.834
32268W        W93634  25.559  17.256  11.996
32269W        W93635  32.897  13.653  12.349
32270W        W93636   1.804  44.290  12.042
32271W        W93637  33.089  32.108   0.957
32272W        W93638  44.930   0.973   0.806
32273W        W93639  37.009  29.425   4.352
32274W        W93640   1.340  42.496  13.822
32275W        W93641  31.980   3.798   3.146
32276W        W93642  12.799  26.513  14.458
32277W        W93643  21.233  10.815   3.679
32278W        W93644   2.870  18.155   0.409
32279W        W93645  29.070   7.358   2.676
32280W        W93646  35.596  29.171  10.469
32281W        W93647   3.907  11.136  14.968
32282W        W93648  37.526  29.424   4.735
32283W        W93649  44.259  35.089   3.245
32284W        W93650  26.116  44.850   3.785
32285W        W93651  11.802  11.764  12.977
32286W        W93652  26.672  43.451  11.066
32287W        W93653   0.319  31.625  13.918
32288W        W93654  40.447  25.146   4.329
32289W        W93655  27.563  35.486   2.812
32290W        W93656  28.184  42.031  11.857
32291W        W93657  35.479  29.648   2.323
32292W        W93658  18.602  11.229  12.835
32293W        W93659  39.810  19.565   4.723
32294W        W93660  17.705  29.580   2.289
32295W        W93661  29.031  32.549  11.463
32296W        W93662  42.996   2.740  10.477
32297W        W93663   0.285   3.275  12.969
32298W        W93664  25.042  43.764  12.955
32299W        W93665  24.973  44.495   4.345
32300W        W93666  21.706  16.699   1.436
32301W        W93667  11.624  13.286   1.371
32302W        W93668   8.313  28.182   1.766
32303W        W93669  41.484  18.600   0.742
32304W        W93670   8.813  44.484  11.934
32305W        W93671  19.215  34.872   4.194
32306W        W93672  38.561  10.180   2.207
32307W        W93673  33.451   8.751   4.663
32308W        W93674   7.178  39.391  13.521
32309W        W93675  26.703  27.003  12.987
32310W        W93676  28.655   0.764   3.179
32311W        W93677  12.287  19.186   0.841
32312W        W93678  27.083  35.904  14.316
32313W        W93679   4.865  24.153  13.953
32314W        W93680  19.122  41.385  14.403
32315W        W93681  31.936  24.089  14.308
32316W        W93682  31.963  37.949   0.864
32317W        W93683  13.749  27.991  11.857
32318W        W93684  44.283  30.633  12.958
32319W        W93685  36.857  14.144  12.015
32320W        W93686   5.405  31.425   4.650
32321W        W93687   5.803  43.286  14.493
32322W        W93688   1.474  34.020   3.868
32323W        W93689  23.508  14.776  10.972
32324W        W93690  31.423  40.420   0.482
32325W        W93691  42.413  41.500  14.889
32326W        W93692   2.229  10.282  12.370
32327W        W93693  25.563  36.518   0.954
32328W        W93694  28.046  38.525  13.800
32329W        W93695  29.172   4.877   4.131
32330W        W93696  43.428  40.453  13.965
32331W        W93697  29.106   2.790  14.397
32332W        W93698  29.057  22.628  12.837
32333W        W93699   3.436  18.690  10.454
32334W        W93700   9.287  23.157   2.871
32335W        W93701   9.196  17.266  13.976
32336W        W93702  40.800  36.568  10.956
32337W        W93703  26.466  26.693   2.746
32338W        W93704  27.567  26.692   3.223
32339W        W93705  41.365   7.723  13.949
32340W        W93706  12.819  29.486   2.679
32341W        W93707  13.812  23.144   2.406
32342W        W93708  13.299  29.090   0.838
32343W        W93709  15.681  29.447  10.423
32344W        W93710   2.232  16.285  13.460
32345W        W93711  17.661  19.737  12.955
32346W        W93712  27.000   6.727  14.768
32347W        W93713  38.417  41.925  12.832
32348W        W93714  39.442  20.743  14.916
32349W        W93715  23.610  43.863   2.801
32350W        W93716   3.758  14.320   2.198
32351W        W93717  10.829  37.942  14.306
32352W        W93718  41.398  16.804  13.327
32353W        W93719  11.371  20.170  13.971
32354W        W93720  43.813  21.109   3.300
32355W        W93721  37.856  22.595  12.937
32356W        W93722  13.258  31.023   0.403
32357W        W93723  21.635  44.468  11.090
32358W        W93724  36.501  31.506  12.495
32359W        W93725  35.960  43.380   5.227
32360W        W93726   5.713  43.431   0.842
32361W        W93727   1.476  43.981   3.279
32362W        W93728  26.595  38.071  12.903
32363W        W93729  32.578  18.632  13.343
32364W        W93730   3.820   4.346  11.416
32365W        W93731  32.096  16.783   3.755
32366W        W93732   3.280  36.456   3.683
32367W        W93733  13.724  43.286   4.137
32368W        W93734  34.419  33.540   4.649
32369W        W93735  24.065  10.742  11.964
32370W        W93736  32.030  17.222  13.324
32371W        W93737  13.301  35.935   2.822
32372W        W93738  30.523  12.822  12.966
32373W        W93739  11.864  39.441  11.595
32374W        W93740  19.075  26.497   3.197
32375W        W93741  26.001  31.969   0.791
32376W        W93742  20.077  13.696  11.124
32377W        W93743  30.988  29.667   3.649
32378W        W93744  26.047  14.116  10.642
32379W        W93745  25.983  28.989   0.378
32380W        W93746  21.087  31.631  13.823
32381W        W93747  22.538   1.245  14.372
32382W        W93748  15.801  32.076   2.780
32383W        W93749   3.933  24.514  12.947
32384W        W93750   0.486   9.871  13.921
32385W        W93751   0.415   9.837  12.550
32386W        W93752  12.633  23.570   3.302
32387W        W93753  16.309  38.462  13.313
32388W        W93754  21.250  32.042   1.796
32389W        W93755  39.852  28.077  14.902
32390W        W93756  32.103  10.373  12.447
32391W        W93757  15.723  42.502   4.175
32392W        W93758   3.747  13.349   1.252
32393W        W93759  13.688  27.580   1.354
32394W        W93760  15.630  29.475  11.996
32395W        W93761  11.128  26.623   0.791
32396W        W93762  17.090  32.623   0.390
32397W        W93763  25.611  16.161  11.575
32398W        W93764  16.270   1.304   3.347
32399W        W93765  12.642   4.207  13.830
32400W        W93766  35.858   6.836   0.306
32401W        W93767  35.996  44.807   3.738
32402W        W93768  32.108   4.898   0.935
32403W        W93769  31.952  29.452   2.258
32404W        W93770   7.892  13.668   3.287
32405W        W93771  29.148  13.190  11.512
32406W        W93772   6.845  19.594   2.846
32407W        W93773   3.762  14.140   3.162
32408W        W93774   2.287  33.890   3.292
32409W        W93775  18.610   1.881   2.882
32410W        W93776  44.451  44.758   1.916
32411W        W93777  42.903   7.674  10.916
32412W        W93778  29.013  35.896  12.362
32413W        W93779  31.431  41.862   3.157
32414W        W93780  35.981  39.975   3.853
32415W        W93781   3.364  32.626   1.859
32416W        W93782  37.425  15.659  10.953
32417W        W93783   4.300  36.575  13.894
32418W        W93784  18.772  15.628  10.058
32419W        W93785   5.788  23.052  11.463
32420W        W93786  22.662  17.669   2.367
32421W        W93787  20.674  20.543   4.832
32422W        W93788  28.083   7.363   1.322
32423W        W93789  26.019  32.041   2.350
32424W        W93790   2.335   1.240  13.336
32425W        W93791  36.865  21.751   3.830
32426W        W93792  20.093   5.820  12.973
32427W        W93793  43.457  37.973   2.299
32428W        W93794  26.175  38.042  12.504
32429W        W93795   6.696  18.666   5.705
32430W        W93796  40.418  39.422   4.820
32431W        W93797  31.445  24.590  13.946
32432W        W93798  13.201  10.302   0.482
32433W        W93799  21.227  33.435  11.892
32434W        W93800  33.969  40.376  11.374
32435W        W93801  25.985  31.930  13.468
32436W        W93802   3.247   0.323  12.054
32437W        W93803  12.706  17.189   4.701
32438W        W93804  19.651   2.776   3.239
32439W        W93805  28.617   7.224  14.936
32440W        W93806  26.472  27.940   3.857
32441W        W93807  39.828  35.098  14.994
32442W        W93808  32.520   8.314   4.282
32443W        W93809  39.557   9.691  11.580
32444W        W93810   2.442  34.460  10.511
32445W        W93811  38.021  12.242  10.576
32446W        W93812  33.954   2.735   0.957
32447W        W93813   0.850  25.133  10.514
32448W        W93814  38.534  41.909   2.284
32449W        W93815  41.951   4.792   1.770
32450W        W93816  25.159   2.454  12.021
32451W        W93817  28.074  34.518  11.021
32452W        W93818  29.107  10.143  11.934
32453W        W93819  25.207   5.266   2.836
32454W        W93820  30.498   4.817  11.090
32455W        W93821  15.777  37.851   3.350
32456W        W93822  27.071  19.540   2.710
32457W        W93823  14.827  32.131  12.878
32458W        W93824  12.692  31.473  14.332
32459W        W93825  34.906  37.368  14.404
32460W        W93826   0.856  44.500  12.899
32461W        W93827  18.683  34.895   1.856
32462W        W93828  34.054   9.395  12.563
32463W        W93829   6.695   6.202  11.465
32464W        W93830  32.124  32.067   4.222
32465W        W93831  28.977  18.711   1.820
32466W        W93832  28.524  36.916   0.900
32467W        W93833  34.910  31.117  10.902
32468W        W93834  38.979  26.688  14.419
32469W        W93835  42.911  15.242   3.208
32470W        W93836  33.579  29.960   2.360
32471W        W93837  23.026  40.526  12.477
32472W        W93838  34.962   2.927  14.477
32473W        W93839  15.329  39.417  13.974
32474W        W93840  26.179  32.107  10.494
32475W        W93841  25.015  26.148   4.254
32476W        W93842  29.041  31.911   9.981
32477W        W93843  33.511  30.091   4.222
32478W        W93844   1.900  29.126   1.223
32479W        W93845   9.846  16.248   0.421
32480W        W93846  40.483  13.172   5.273
32481W        W93847  25.617   4.426  14.422
32482W        W93848   3.775  36.097  11.413
32483W        W93849  26.050  29.090   5.110
32484W        W93850  21.147  29.586   4.304
32485W        W93851  32.904   2.898  12.533
32486W        W93852   6.726  16.226  11.915
32487W        W93853   1.946  11.203  13.395
32488W        W93854  34.373  17.091  10.442
32489W        W93855  11.855  24.712   4.167
32490W        W93856  37.883   5.849   1.831
32491W        W93857  18.236  23.121   1.324
32492W        W93858  33.039  43.498   0.330
32493W        W93859  27.967  20.607   2.902
32494W        W93860  29.995  43.968  12.421
32495W        W93861  11.212   7.796   3.290
32496W        W93862  12.148  31.114   1.831
32497W        W93863  21.185   6.394  10.491
32498W        W93864  39.423   5.910  14.018
32499W        W93865  22.218  43.496   1.224
32500W        W93866  12.223  39.869   1.232
32501W        W93867  19.221  11.699  10.593
32502W        W93868  34.047   6.215  12.074
32503W        W93869  26.999  37.404   1.235
32504W        W93870  35.510  37.527  11.065
32505W        W93871  23.514   9.197  14.967
32506W        W93872  42.435  27.533  11.896
32507W        W93873  44.337  25.962  14.408
32508W        W93874  14.336  42.909  11.479
32509W        W93875  31.450  18.177  14.365
32510W        W93876  39.482  16.629   2.314
32511W        W93877  21.156   5.357   4.646
32512W        W93878  14.244  11.756  14.374
32513W        W93879  17.163   0.761   0.327
32514W        W93880  23.597  41.437   1.826
32515W        W93881   1.368  28.078  13.919
32516W        W93882  14.625  40.361   2.221
32517W        W93883  42.897  38.037  13.492
32518W        W93884  20.177  11.185   4.598
32519W        W93885  42.026   9.150   3.697
32520W        W93886  32.998  34.558   0.902
32521W        W93887  25.676   5.386  13.373
32522W        W93888  36.944  11.173   3.237
32523W        W93889  36.028  13.819   4.198
32524W        W93890  37.866  10.160   2.838
32525W        W93891  38.965  12.666   5.257
32526W        W93892  40.412  31.050  14.437
32527W        W93893  20.223   4.267  13.312
32528W        W93894  20.764   8.271   0.876
32529W        W93895  29.155  22.076  14.990
32530W        W93896  14.658  24.621  12.029
32531W        W93897  39.348  14.221  12.351
32532W        W93898   4.934  22.058  13.961
32533W        W93899  13.268  27.525  14.414
32534W        W93900   4.329  33.081  12.919
32535W        W93901   0.263  14.764   2.312
32536W        W93902  37.355   6.352   0.474
32537W        W93903   5.796  12.142  12.081
32538W        W93904  43.998  31.916  11.531
32539W        W93905  42.954   6.213   3.742
32540W        W93906  15.728  14.336  14.441
32541W        W93907  40.012  36.063   0.887
32542W        W93908  21.207  15.087   3.361
32543W        W93909  24.131  28.495   4.628
32544W        W93910  44.843   7.356  14.795
32545W        W93911   1.423   8.697   2.903
32546W        W93912  38.570  11.755   1.439
32547W        W93913   6.403  40.460  12.982
32548W        W93914  29.464  15.715  13.352
32549W        W93915  18.703   9.774  11.584
32550W        W93916  22.093   8.791  10.429
32551W        W93917  25.550  12.160   2.733
32552W        W93918  15.087   6.693   4.307
32553W        W93919  30.628  42.455  10.436
32554W        W93920  38.971   0.798  12.574
32555W        W93921  14.674  29.053   4.293
32556W        W93922  29.618  28.453  12.936
32557W        W93923  20.637  40.307   0.297
32558W        W93924  32.524  22.080   0.418
32559W        W93925  12.793  35.085   1.368
32560W        W93926  30.519  24.137  14.031
32561W        W93927  12.346  36.369  13.008
32562W        W93928  23.997  43.830   0.328
32563W        W93929   4.882  12.339   5.273
32564W        W93930  11.773  12.746   0.419
32565W        W93931  18.121  19.680  11.083
32566W        W93932  37.941  14.116  11.968
32567W        W93933   9.751   1.956  14.957
32568W        W93934   9.363  18.161   1.845
32569W        W93935  39.849  30.119   0.800
32570W        W93936  31.436  26.633   2.409
32571W        W93937  41.364   5.389  10.616
32572W        W93938  40.894  36.866   1.416
32573W        W93939  33.104  10.846   3.224
32574W        W93940  32.580   1.303   3.334
32575W        W93941  26.165  34.437   3.662
32576W        W93942   5.332   3.876   4.777
32577W        W93943  39.994   7.378   2.675
32578W        W93944  27.671   1.237   3.255
32579W        W93945  16.222  11.129   3.278
32580W        W93946   5.374  40.513   3.656
32581W        W93947  44.004  33.560   0.870
32582W        W93948  39.912  34.036   2.690
32583W        W93949  36.855  33.502   1.924
32584W        W93950  17.175  30.963  13.036
32585W        W93951   4.421  21.722   0.463
32586W        W93952  18.595   9.249   4.170
32587W        W93953  33.049   6.882   4.798
32588W        W93954  29.122  23.626  13.445
32589W        W93955  22.055   0.370   4.233
32590W        W93956  18.652  18.571   3.287
32591W        W93957  32.122  42.988  12.881
32592W        W93958  44.984   6.319  11.565
32593W        W93959   5.861  20.634   1.335
32594W        W93960  25.560  28.458   2.296
32595W        W93961  38.920  11.709   1.855
32596W        W93962  41.942  22.238  13.505
32597W        W93963   1.897  18.282  13.930
32598W        W93964  27.954  43.773  11.950
32599W        W93965  42.522  10.252  11.890
32600W        W93966  34.108  19.156  14.503
32601W        W93967  31.590  28.619  11.946
32602W        W93968  25.070  41.002  14.314
32603W        W93969  24.601  11.744  14.514
32604W        W93970  36.866   0.333  10.481
32605W        W93971   0.401  26.049  11.550
32606W        W93972   4.420   8.238   2.310
32607W        W93973  28.103  28.631  11.972
32608W        W93974  22.690  18.207   4.614
32609W        W93975  35.016   2.944  12.930
32610W        W93976   2.333  27.062  14.956
32611W        W93977  26.552  37.857   4.625
32612W        W93978   9.746  36.888   4.130
32613W        W93979   5.354  42.976   4.664
32614W        W93980  27.125  18.062   0.409
32615W        W93981  27.598   7.745   4.229
32616W        W93982  37.340  34.120  12.071
32617W        W93983  23.714  27.977  13.400
32618W        W93984  28.989  12.747  14.460
32619W        W93985  14.262  39.975   2.236
32620W        W93986  38.061  13.152   2.237
32621W        W93987  29.519  36.020  12.555
32622W        W93988  42.424  20.584  11.018
32623W        W93989  15.687   5.408  14.987
32624W        W93990  14.215  42.448  13.055
32625W        W93991  32.892  17.617  12.846
32626W        W93992  27.550  26.665  12.057
32627W        W93993  41.452   1.978   2.213
32628W        W93994  40.387  28.974  12.997
32629W        W93995  44.945  11.761   3.267
32630W        W93996  29.099  14.200   3.207
32631W        W93997  43.957   7.809  13.874
32632W        W93998   6.424  25.526  14.475
32633W        W93999  30.986  23.526  10.475
32634W        W94000   6.365   8.843  14.886
32635W        W94001   7.199  36.592  14.302
32636W        W94002  25.585  25.200  10.909
32637W        W94003   3.404  20.267   2.714
32638W        W94004   4.204  25.504  12.377
32639W        W94005   3.746  28.030   1.795
32640W        W94006  34.035  32.506  11.437
32641W        W94007  14.337  25.713  12.827
32642W        W94008  15.118  14.238   2.343
32643W        W94009   0.255  31.553  10.977
32644W        W94010  24.527  32.905  14.419
32645W        W94011  18.759  17.224  12.530
32646W        W94012  25.554  42.799  13.955
32647W        W94013   4.444  10.231   2.670
32648W        W94014   2.328  42.406   1.830
32649W        W94015  37.994   8.331  11.053
32650W        W94016  12.677  37.030   3.710
32651W        W94017  10.801  38.388  10.896
32652W        W94018  35.584  13.727   4.181
32653W        W94019   2.355  40.048  11.919
32654W        W94020   3.851  31.066   1.744
32655W        W94021  20.230   2.345   0.732
32656W        W94022  18.616  43.957  14.843
32657W        W94023  15.233  18.743   0.833
32658W        W94024   7.368  32.529  13.539
32659W        W94025  41.886  21.565  14.800
32660W        W94026  41.418  29.117   1.738
32661W        W94027  14.177   4.909   2.223
32662W        W94028  39.842  28.520  12.956
32663W        W94029  39.007  27.003   3.199
32664W        W94030  38.966   0.411   2.416
32665W        W94031   2.773  11.706   3.233
32666W        W94032   3.281   3.874   0.820
32667W        W94033  36.519  10.862  12.918
32668W        W94034  21.681  12.256  11.379
32669W        W94035  19.166   3.415  12.363
32670W        W94036  26.472  43.497  12.953
32671W        W94037   8.291  21.196  14.507
32672W        W94038  32.490   3.774   2.885
32673W        W94039  35.998  31.923  10.601
32674W        W94040   5.368   6.912  12.061
32675W        W94041  39.521  43.454   2.736
32676W        W94042  33.888  27.568   3.823
32677W        W94043  10.696  38.336   3.304
32678W        W94044  18.194  36.919  11.509
32679W        W94045  32.398  35.459   0.848
32680W        W94046  25.064  42.375   3.329
32681W        W94047  35.045  33.902   3.179
32682W        W94048   8.739   6.876   0.900
32683W        W94049  43.790  39.886  11.066
32684W        W94050  31.477  21.243   3.847
32685W        W94051  27.093  31.100  10.583
32686W        W94052  27.511  30.937  10.622
32687W        W94053   5.193  25.696  13.959
32688W        W94054  27.514  39.459   2.259
32689W        W94055   5.388  28.996   2.685
32690W        W94056  26.599   4.923   2.344
32691W        W94057  31.443  15.139  13.878
32692W        W94058   6.395  30.488  13.343
32693W        W94059  13.216  25.064   0.753
32694W        W94060  13.701  12.794   1.366
32695W        W94061  14.605  30.161  14.767
32696W        W94062  28.078  16.157   3.376
32697W        W94063   0.854  30.925   1.904
32698W        W94064  35.109   6.287  13.939
32699W        W94065  19.053  36.001   1.883
32700W        W94066  13.184  29.455   0.439
32701W        W94067  18.565  43.885   3.282
32702W        W94068  10.244  32.517   4.598
32703W        W94069  32.467  28.043   3.738
32704W        W94070   0.433  16.660   0.927
32705W        W94071  10.819  16.766  13.901
32706W        W94072  30.482  22.030   2.241
32707W        W94073  42.902  19.073   1.711
32708W        W94074  28.131  39.983   2.681
32709W        W94075  31.524  21.226   0.801
32710W        W94076   0.347  26.009   3.752
32711W        W94077  32.967  41.896  13.366
32712W        W94078  12.288  42.346  11.936
32713W        W94079  41.961  31.917   0.735
32714W        W94080  29.635  31.138  10.945
32715W        W94081  21.077  37.086   3.300
32716W        W94082   2.238  26.129   3.834
32717W        W94083  35.443  37.001   3.831
32718W        W94084  31.138  39.824   5.591
32719W        W94085  13.681   8.228   1.866
32720W        W94086  29.460  10.633   4.278
32721W        W94087  23.645  24.048  14.950
32722W        W94088  35.887  38.046  11.940
32723W        W94089  11.700   5.316  12.414
32724W        W94090   9.375  26.094   4.138
32725W        W94091   6.422  28.505   2.803
32726W        W94092   3.784  28.073  10.978
32727W        W94093  16.703  17.087  14.025
32728W        W94094  39.514   4.802   3.330
32729W        W94095  25.550  40.469  14.789
32730W        W94096  32.557  13.699  14.465
32731W        W94097  11.794  22.690  10.062
32732W        W94098   8.185   4.841   0.856
32733W        W94099  26.664  37.579   3.255
32734W        W94100  34.022  30.926  12.025
32735W        W94101  23.535  18.764   3.840
32736W        W94102  33.443   4.395   1.899
32737W        W94103  13.804  39.030   2.851
32738W        W94104  20.628  40.859  14.865
32739W        W94105  26.990   2.943   0.430
32740W        W94106  39.008  14.173   4.610
32741W        W94107  39.811  19.085  13.920
32742W        W94108   9.175  12.802   0.395
32743W        W94109  42.817  32.394   3.313
32744W        W94110  24.067  31.021  12.971
32745W        W94111  25.605  22.132   0.852
32746W        W94112  35.548  21.697  14.991
32747W        W94113  42.490  32.466   1.734
32748W        W94114  35.550   3.760   2.720
32749W        W94115  21.598  21.650   1.378
32750W        W94116  29.544   8.169  14.316
32751W        W94117  41.444   8.271   0.967
32752W        W94118  36.375  18.659  11.507
32753W        W94119   1.342  16.192   4.756
32754W        W94120  32.575  20.737  14.396
32755W        W94121  41.916  36.899   2.269
32756W        W94122  13.744  23.525   0.826
32757W        W94123  35.895  31.930   2.785
32758W        W94124  22.599  19.265  14.015
32759W        W94125  11.246  38.508   4.328
32760W        W94126  38.045   7.293   4.247
32761W        W94127  24.530  36.963   2.888
32762W        W94128  10.225  30.927   5.120
32763W        W94129  15.732  12.776   0.938
32764W        W94130   0.924  36.974  13.402
32765W        W94131   4.215  14.299   0.921
32766W        W94132  35.567  38.504  14.301
32767W        W94133  41.349  38.542  11.080
32768W        W94134  37.936  16.722  13.451
32769W        W94135   2.886  17.767  11.519
32770W        W94136  12.199  35.469   0.822
32771W        W94137  36.005  31.009   2.817
32772W        W94138  14.156   9.672   2.217
32773W        W94139  42.346  39.811  12.079
32774W        W94140   0.974  31.402  14.422
32775W        W94141  13.196  19.539   2.242
32776W        W94142  22.742   3.283   3.817
32777W        W94143  11.340   9.701   0.774
32778W        W94144  19.537  29.152  13.537
32779W        W94145  11.711   9.202   1.735
32780W        W94146   4.936   0.365   2.364
32781W        W94147  35.990  31.582  14.765
32782W        W94148  43.947   1.775  12.501
32783W        W94149   8.182  22.058   1.832
32784W        W94150  37.496  17.225  10.458
32785W        W94151  16.749  14.197   1.400
32786W        W94152  40.991  20.735   4.657
32787W        W94153  24.659  14.826  11.006
32788W        W94154   1.274  14.623  13.476
32789W        W94155  40.054  36.899  12.487
32790W        W94156   3.233  24.097  10.522
32791W        W94157   8.792  31.493  11.481
32792W        W94158  21.071  29.107  12.517
32793W        W94159  23.149  24.715   2.869
32794W        W94160   7.252   8.724   4.227
32795W        W94161  42.944  18.711   4.153
32796W        W94162   6.780  43.017   0.914
32797W        W94163  15.673  33.125  13.880
32798W        W94164  23.735  21.164  10.584
32799W        W94165  44.987  28.993   9.656
32800W        W94166  35.565  39.330   0.736
32801W        W94167   6.833  13.762   2.293
32802W        W94168  39.516  36.399  12.835
32803W        W94169  27.536  10.384   1.867
32804W        W94170   4.442  41.354   4.177
32805W        W94171  35.591  27.573   3.381
32806W        W94172  26.018  19.632   4.326
32807W        W94173  36.590  19.110   0.391
32808W        W94174  15.322  26.165  11.600
32809W        W94175  21.104  37.912   2.712
32810W        W94176  31.933  38.026  11.555
32811W        W94177   9.252  16.600   0.475
32812W        W94178  37.945  12.269   4.806
32813W        W94179   1.935  25.497   0.878
32814W        W94180  19.248   0.474  11.525
32815W        W94181   0.933  32.078  11.539
32816W        W94182  40.932  20.082   1.934
32817W        W94183   7.766  10.711   2.219
32818W        W94184  34.500  35.975   1.385
32819W        W94185  18.702  39.516   2.686
32820W        W94186  14.734  29.543   1.411
32821W        W94187  20.069   7.800   4.636
32822W        W94188  21.568  38.327  10.442
32823W        W94189   1.795  16.270  12.419
32824W        W94190  24.998   2.955   2.751
32825W        W94191  33.617  40.331   0.794
32826W        W94192  30.615  42.010   0.407
32827W        W94193  44.325  34.442   0.768
32828W        W94194  15.761   6.225  13.372
32829W        W94195  30.095  33.575   0.308
32830W        W94196  13.190   3.365  12.569
32831W        W94197  38.950  13.325   0.760
32832W        W94198   3.224  28.083  11.488
32833W        W94199   0.883   1.434   2.389
32834W        W94200   9.840  12.124   3.260
32835W        W94201  15.116  21.073  12.493
32836W        W94202  24.684  24.178  14.361
32837W        W94203  38.350  39.389   2.226
32838W        W94204   4.739  13.245   4.692
32839W        W94205  44.867  15.202   3.254
32840W        W94206  42.908  28.021   4.707
32841W        W94207  28.544  31.414  13.469
32842W        W94208  37.869  40.946   3.800
32843W        W94209  33.584  20.602   0.297
32844W        W94210   7.186   9.239   2.324
32845W        W94211   5.921  34.379  13.406
32846W        W94212   3.764   3.289   9.469
32847W        W94213   8.169  17.191  13.997
32848W        W94214   8.749  42.919  11.373
32849W        W94215  29.135  29.965   0.746
32850W        W94216  35.993  12.117  12.916
32851W        W94217  15.131  32.535   0.925
32852W        W94218   3.217   5.719   0.417
32853W        W94219  17.584  23.621   3.654
32854W        W94220  32.073   5.835   0.417
32855W        W94221   6.280   7.870  12.572
32856W        W94222  32.596   6.790  10.951
32857W        W94223   1.912   4.829   2.409
32858W        W94224  28.599  38.489   3.738
32859W        W94225  14.205  10.305   4.148
32860W        W94226  40.807  26.134   4.806
32861W        W94227  30.992  20.675   9.954
32862W        W94228  10.336  41.493  14.853
32863W        W94229  13.205   2.886  14.966
32864W        W94230   7.906  33.949  14.020
32865W        W94231  33.607  38.497   3.324
32866W        W94232  32.601  21.116  10.575
32867W        W94233  39.931   0.356   0.783
32868W        W94234  10.142  42.446  13.527
32869W        W94235  18.666  42.796  11.935
32870W        W94236  26.042  15.738  13.896
32871W        W94237   0.971  42.283  13.946
32872W        W94238   2.787  39.369   1.404
32873W        W94239  24.658  38.339   3.361
32874W        W94240  27.545   6.730   1.389
32875W        W94241  16.160  11.137   1.392
32876W        W94242  44.756  12.143  10.438
32877W        W94243  38.503   9.170   0.963
32878W        W94244  39.366  14.279   3.201
32879W        W94245  28.621  32.048   4.199
32880W        W94246  21.093  26.668  13.791
32881W        W94247   6.258   6.184   0.799
32882W        W94248   6.340  14.705   2.306
32883W        W94249  17.213  43.418   3.264
32884W        W94250  12.658  43.861   1.854
32885W        W94251  42.462   5.897  14.841
32886W        W94252  31.612  41.856   9.920
32887W        W94253  43.418   7.285   4.303
32888W        W94254  16.803  16.157   1.916
32889W        W94255  40.472   7.787  14.480
32890W        W94256   4.208  28.954   0.473
32891W        W94257  40.402  27.672  14.803
32892W        W94258  15.578  27.552  11.948
32893W        W94259   7.856   9.714  12.906
32894W        W94260  37.400  43.887   0.274
32895W        W94261  41.507  28.992   4.348
32896W        W94262  38.395   4.344   2.316
32897W        W94263  33.108  27.977   1.917
32898W        W94264  14.094  32.099   3.665
32899W        W94265  44.802  16.598  14.404
32900W        W94266  21.547  16.153   0.259
32901W        W94267  44.285   6.416  10.435
32902W        W94268   1.445   8.788  11.048
32903W        W94269  10.184  21.089   1.792
32904W        W94270  11.215  19.632   1.864
32905W        W94271  11.846  14.226  13.915
32906W        W94272  23.100  26.109  11.516
32907W        W94273   9.224   7.731  14.989
32908W        W94274  14.120   4.818  14.904
32909W        W94275  16.205  34.081   3.765
32910W        W94276  28.542  10.856  11.963
32911W        W94277  25.615   4.841  11.052
32912W        W94278  19.547  42.950   4.683
32913W        W94279  11.246  37.499  12.041
32914W        W94280  20.711  11.285   0.314
32915W        W94281  32.421  44.816  14.342
32916W        W94282  30.428  15.176   2.703
32917W        W94283  14.274  21.125   1.365
32918W        W94284  38.001  27.450   2.260
32919W        W94285  41.503  36.906   2.395
32920W        W94286   8.159  15.595   9.957
32921W        W94287  17.149  28.585  11.115
32922W        W94288  11.217  35.985  13.419
32923W        W94289  42.878  18.549   0.930
32924W        W94290  27.618  24.486   1.759
32925W        W94291   7.668  30.022   3.772
32926W        W94292   2.829   9.299  13.375
32927W        W94293  33.571  43.846  14.392
32928W        W94294  33.053   9.353   1.374
32929W        W94295  12.348  32.563  11.092
32930W        W94296  20.231  41.977  12.929
32931W        W94297  32.438   4.896   1.267
32932W        W94298  14.696  12.835   2.280
32933W        W94299  25.638  12.290   4.327
32934W        W94300  15.745  25.141   1.846
32935W        W94301  13.695  35.426  13.807
32936W        W94302  40.394  34.485  10.493
32937W        W94303   0.920  28.137   3.803
32938W        W94304   3.286   0.492  11.609
32939W        W94305  20.119  37.539  13.882
32940W        W94306   4.797  35.098   0.888
32941W        W94307  37.025  19.608  14.502
32942W        W94308  22.546  35.861  13.008
32943W        W94309  17.668  18.674   0.261
32944W        W94310  34.397  26.535   0.250
32945W        W94311  41.812  42.837   2.864
32946W        W94312  41.531   9.211  13.361
32947W        W94313  12.151  23.219   3.854
32948W        W94314  19.556   8.162   0.771
32949W        W94315  30.019   8.212  12.420
32950W        W94316  39.538  40.342  10.578
32951W        W94317  19.654   3.249   5.229
32952W        W94318   1.818  39.376   4.779
32953W        W94319  41.351  31.082  11.976
32954W        W94320  40.506  40.411  13.350
32955W        W94321  17.149  43.955  13.985
32956W        W94322  16.191  18.682  12.444
32957W        W94323  43.843  38.329   0.790
32958W        W94324  26.084  25.701   2.254
32959W        W94325  39.847   3.266   0.758
32960W        W94326  13.742   1.459  14.328
32961W        W94327  39.355  16.181  10.949
32962W        W94328  35.380  29.465   0.944
32963W        W94329  12.350  16.778   4.135
32964W        W94330   9.311  21.145  10.628
32965W        W94331  36.407  44.942   3.238
32966W        W94332  28.505  30.614   0.950
32967W        W94333  24.048  32.548  14.847
32968W        W94334   9.374  39.336  14.775
32969W        W94335  17.220  17.702   4.772
32970W        W94336  23.124  43.479   1.745
32971W        W94337   3.793  31.456  10.965
32972W        W94338  28.098  41.816  11.059
32973W        W94339  19.062  17.130   1.825
32974W        W94340  36.385  40.403   0.481
32975W        W94341  31.920  18.227  12.481
32976W        W94342  19.583  13.712   0.915
32977W        W94343   1.463  13.134   4.696
32978W        W94344  11.174  13.814  12.530
32979W        W94345  35.428  34.927   2.220
32980W        W94346  36.552  42.001   1.294
32981W        W94347  18.596  43.465  10.546
32982W        W94348  12.826  24.070  12.385
32983W        W94349  28.993  13.675  11.398
32984W        W94350  42.418   0.433   0.841
32985W        W94351  28.006  36.934  12.003
32986W        W94352  15.668  11.699   4.277
32987W        W94353  15.236  12.309   4.605
32988W        W94354  15.246   5.292   2.837
32989W        W94355  20.250  32.920   4.115
32990W        W94356  40.371  28.932   2.703
32991W        W94357  14.173  40.871   4.611
32992W        W94358  35.513  14.134   2.772
32993W        W94359  17.085  10.761   1.327
32994W        W94360  44.388  25.110  10.960
32995W        W94361  17.569  22.072  11.964
32996W        W94362   3.239   1.799  10.094
32997W        W94363  19.647  42.393  13.532
32998W        W94364  35.359  14.633  12.564
32999W        W94365   6.755  18.737   2.864
33000W        W94366  44.895  11.724  13.848
33001W        W94367  28.460  34.951   3.810
33002W        W94368  12.630  43.295  11.464
33003W        W94369  11.274  20.081   0.458
33004W        W94370  31.558  23.148  11.475
33005W        W94371  20.611  44.349   0.879
33006W        W94372  10.356   8.182   2.406
33007W        W94373  34.481  35.002   0.286
33008W        W94374  37.479  41.334  14.010
33009W        W94375  27.632  11.248   2.686
33010W        W94376  12.219  23.662  11.905
33011W        W94377  41.952  20.130   0.822
33012W        W94378  20.692  37.042  12.388
33013W        W94379  38.989  30.960  10.112
33014W        W94380   4.330  31.533  13.846
33015W        W94381  41.297  34.553  11.434
33016W        W94382  20.070  33.100  11.516
33017W        W94383  31.583  44.864  13.799
33018W        W94384  36.898  36.554  13.882
33019W        W94385  36.395  10.328  14.787
33020W        W94386  11.215  24.196  12.925
33021W        W94387  34.119  25.538  12.939
33022W        W94388  24.040  28.944   1.441
33023W        W94389  10.289   5.231  13.868
33024W        W94390  32.616  35.942  12.449
33025W        W94391  44.344  18.255  12.406
33026W        W94392  16.616  28.075   2.350
33027W        W94393   9.807  33.622  11.020
33028W        W94394  28.567  37.914   0.739
33029W        W94395  14.217  22.249  12.917
33030W        W94396  42.835  36.885   4.696
33031W        W94397  13.303  14.142   0.441
33032W        W94398  44.342  24.059  11.871
33033W        W94399  26.481  36.383  12.563
33034W        W94400  16.812   0.900   3.816
33035W        W94401  42.485   9.801   4.182
33036W        W94402   9.864  44.856   3.284
33037W        W94403  16.626  11.798   3.257
33038W        W94404  37.000  26.090  14.294
33039W        W94405  23.541  27.612  14.448
33040W        W94406   9.197  19.256  12.397
33041W        W94407  21.191  27.941  12.456
33042W        W94408  15.732  44.360  13.858
33043W        W94409  34.912  16.746   2.361
33044W        W94410  29.496  32.886  14.815
33045W        W94411   4.424   5.880  13.538
33046W        W94412   0.885  37.058  14.925
33047W        W94413  36.955  40.381   0.871
33048W        W94414  21.684  25.545   2.272
33049W        W94415  25.647  26.657  10.521
33050W        W94416  28.587  44.342  14.762
33051W        W94417  20.752  10.774  14.515
33052W        W94418  32.467  26.461   2.844
33053W        W94419  26.644  43.944  13.900
33054W        W94420  26.481  12.684  11.023
33055W        W94421  24.146  18.114   2.695
33056W        W94422  30.613   4.837  11.915
33057W        W94423  21.597  14.215  11.051
33058W        W94424  30.153  24.616   2.901
33059W        W94425  17.233  41.801  13.334
33060W        W94426  22.628  26.528   3.161
33061W        W94427  14.207   9.708  10.486
33062W        W94428  26.078  41.515   1.317
33063W        W94429   1.840  33.114  14.410
33064W        W94430  26.646   1.411  11.450
33065W        W94431   8.296  16.088   1.868
33066W        W94432  16.768  27.958  13.024
33067W        W94433  35.462  35.519   4.712
33068W        W94434  35.076  18.158  10.099
33069W        W94435   7.874  23.070   0.750
33070W        W94436  40.837  20.559  11.497
33071W        W94437  23.568  13.122  14.906
33072W        W94438  24.987   6.684   4.336
33073W        W94439  14.174  25.122   4.720
33074W        W94440   2.746  37.871  14.972
33075W        W94441  41.356  24.004   1.243
33076W        W94442  29.445  23.075   1.356
33077W        W94443   0.386  13.291  11.950
33078W        W94444  14.289  39.491  12.529
33079W        W94445  11.330  10.750   4.117
33080W        W94446  11.345  25.094  11.421
33081W        W94447   9.364  13.269  10.423
33082W        W94448  33.463  29.162   0.478
33083W        W94449   3.878  24.165  12.020
33084W        W94450  40.358  33.521  14.453
33085W        W94451  35.944   9.154   1.366
33086W        W94452  22.097  22.163   0.810
33087W        W94453  28.176   0.434  12.994
33088W        W94454  21.753  25.993   2.791
33089W        W94455  25.569  31.120   0.810
33090W        W94456  13.796  26.490  12.910
33091W        W94457  43.888   8.378   3.281
33092W        W94458   5.234  28.176  11.418
33093W        W94459  26.091  19.180   4.236
33094W        W94460  16.086  34.530   1.212
33095W        W94461  42.420  12.238  13.400
33096W        W94462   4.885  21.591  11.946
33097W        W94463  28.598   7.882   1.326
33098W        W94464  20.638  36.576  12.357
33099W        W94465   6.416  37.060  13.969
33100W        W94466  39.478  18.781  12.466
33101W        W94467  37.862  29.463  12.567
33102W        W94468  14.590  11.278  12.386
33103W        W94469  10.849   1.269   1.802
33104W        W94470  30.618  16.776   3.751
33105W        W94471   4.259  16.599   1.906
33106W        W94472  34.911  22.545   4.230
33107W        W94473   1.330  44.801   1.756
33108W        W94474  14.624  28.017  11.528
33109W        W94475  43.472   0.797   0.952
33110W        W94476  12.324  27.997   3.858
33111W        W94477  34.942  25.163   3.342
33112W        W94478  38.879   1.402   3.316
33113W        W94479   4.872   4.340  13.834
33114W        W94480  28.535  31.429  14.376
33115W        W94481  32.037  30.431   1.324
33116W        W94482  27.492   5.315   5.107
33117W        W94483  13.824  42.808   0.375
33118W        W94484  11.326   2.747  12.883
33119W        W94485   2.272  26.564   4.825
33120W        W94486  36.360   8.802  13.027
33121W        W94487  15.817   7.726   5.298
33122W        W94488  38.859  30.614  11.963
33123W        W94489  10.635  21.514   4.158
33124W        W94490  37.451  32.441  13.455
33125W        W94491   9.816  32.434  14.811
33126W        W94492  39.020   2.377  13.387
33127W        W94493  34.066  12.295  10.576
33128W        W94494  39.894  43.788  14.467
33129W        W94495  27.010  15.262  10.888
33130W        W94496  13.162   1.943   1.216
33131W        W94497  11.821  36.899   3.832
33132W        W94498   6.370  17.109   2.739
33133W        W94499  15.769  28.023   5.253
33134W        W94500  25.553  41.478   3.279
33135W        W94501   1.305  32.400   2.772
33136W        W94502  40.333  28.480   0.825
33137W        W94503  34.374  30.995  10.409
33138W        W94504  17.269  22.555  13.950
33139W        W94505  13.166  22.607   2.229
33140W        W94506  18.599  42.864   3.818
33141W        W94507  26.975   9.816  10.999
33142W        W94508  11.707  21.119  13.430
33143W        W94509  35.465   7.413   4.689
33144W        W94510  10.730   6.841  11.560
33145W        W94511   4.790  29.064  12.046
33146W        W94512  25.168  25.196   4.638
33147W        W94513  20.261   5.342   3.221
33148W        W94514  34.433  30.550  14.423
33149W        W94515  10.143  14.774  14.760
33150W        W94516  11.647  17.744  14.894
33151W        W94517   4.426   0.765  14.890
33152W        W94518  24.702  22.207   3.252
33153W        W94519  12.854   2.468  12.008
33154W        W94520  24.593  11.290  13.356
33155W        W94521   1.857  30.507  10.925
33156W        W94522  14.230  10.146  14.884
33157W        W94523  11.160  43.001   2.411
33158W        W94524  16.118   1.240  10.887
33159W        W94525  39.338  23.204   3.298
33160W        W94526  18.071  21.169   1.323
33161W        W94527  30.099   0.950  10.593
33162W        W94528   9.264  15.810  13.885
33163W        W94529  22.639   7.773   0.366
33164W        W94530  14.187   0.395   0.875
33165W        W94531   1.830  14.244   0.355
33166W        W94532  17.093  41.522   0.874
33167W        W94533  10.843  43.831   2.803
33168W        W94534   3.224  24.099   0.759
33169W        W94535  11.177  42.488  10.926
33170W        W94536  26.074   0.806   2.397
33171W        W94537   7.257  35.383  11.052
33172W        W94538  36.497  41.320  11.915
33173W        W94539   3.819  16.281   2.295
33174W        W94540   2.308  31.468   4.730
33175W        W94541  42.453  16.313  14.954
33176W        W94542  36.435  21.758  14.465
33177W        W94543   6.921   1.858  11.432
33178W        W94544  14.250   7.892   1.242
33179W        W94545  11.652  21.636   4.192
33180W        W94546   7.232  22.200  11.989
33181W        W94547   0.939   8.753   1.215
33182W        W94548  15.323  13.333  14.992
33183W        W94549  22.154   9.771   4.604
33184W        W94550  26.036  12.838   4.682
33185W        W94551  31.593  23.099   0.936
33186W        W94552  38.911   5.427   3.812
33187W        W94553  34.911  23.623   9.944
33188W        W94554   1.349   3.377  11.585
33189W        W94555  34.993  40.992  12.353
33190W        W94556   5.284  40.929  14.778
33191W        W94557  27.663  19.628  12.498
33192W        W94558   8.301  21.669  10.547
33193W        W94559  36.587  41.357  13.015
33194W        W94560  29.555  33.399  13.378
33195W        W94561   9.647  17.295   1.415
33196W        W94562   6.685  33.014   1.719
33197W        W94563  26.020  35.100   4.327
33198W        W94564   0.906  35.433   3.818
33199W        W94565  28.018  38.923  14.349
33200W        W94566  31.419  26.609  12.911
33201W        W94567  34.101  39.391   1.897
33202W        W94568   1.430   6.749   4.246
33203W        W94569  23.017  14.214   4.825
33204W        W94570  41.828  20.624  14.965
33205W        W94571  33.533  44.857  13.000
33206W        W94572  40.936  20.129  12.456
33207W        W94573  34.997  10.878   4.221
33208W        W94574  38.521  41.532  11.509
33209W        W94575  25.674   4.326   3.279
33210W        W94576  37.442  19.552  11.975
33211W        W94577  14.776  32.099   1.223
33212W        W94578  31.966   7.860   0.445
33213W        W94579  37.421   9.686  10.003
33214W        W94580  13.824  21.628   1.396
33215W        W94581  16.254  20.246  11.399
33216W        W94582  17.128  31.426   1.742
33217W        W94583   1.828  27.447  14.797
33218W        W94584   1.828   1.425   0.762
33219W        W94585   7.353  24.189   2.803
33220W        W94586   1.361  12.126   1.809
33221W        W94587  36.897   1.470  14.916
33222W        W94588  42.339   0.360   2.669
33223W        W94589  22.079  44.412   1.424
33224W        W94590  18.599  19.758   3.785
33225W        W94591  34.904  24.976   4.246
33226W        W94592  40.812  21.520  14.477
33227W        W94593  33.045  23.141   4.712
33228W        W94594   2.839   0.447  13.381
33229W        W94595  16.299  10.273   1.323
33230W        W94596  19.147  15.172   3.169
33231W        W94597  14.304  29.658   1.323
33232W        W94598  40.317  13.779  11.492
33233W        W94599  32.426   6.762  10.472
33234W        W94600   3.347  12.190  11.127
33235W        W94601  34.604  16.626  13.415
33236W        W94602  16.075   5.196   1.777
33237W        W94603   6.185  32.985   3.382
33238W        W94604  21.617  15.249   3.842
33239W        W94605  38.402  35.399  11.915
33240W        W94606  40.861  22.218   4.275
33241W        W94607  19.271  15.816  14.340
33242W        W94608  22.027  29.949  14.772
33243W        W94609  39.384  29.975   1.740
33244W        W94610  27.588  35.557   1.775
33245W        W94611  42.802   3.311  11.060
33246W        W94612  32.409  13.748   4.272
33247W        W94613  26.952  32.887   0.923
33248W        W94614  43.303  13.717  12.986
33249W        W94615  13.724  21.150  10.105
33250W        W94616  41.299   0.383  13.024
33251W        W94617  27.506  24.666  14.434
33252W        W94618   2.925  28.620   0.866
33253W        W94619  35.010  26.969   1.920
33254W        W94620  28.096   1.780  12.878
33255W        W94621  28.072   6.304  12.052
33256W        W94622  17.723  32.592  13.012
33257W        W94623   2.283  11.246  11.090
33258W        W94624  29.150  27.980  11.552
33259W        W94625  31.487  44.498  14.460
33260W        W94626   4.786   7.283  14.394
33261W        W94627  18.135  22.663  14.295
33262W        W94628  31.009  44.778  14.356
33263W        W94629  33.008   2.327   2.298
33264W        W94630  37.412  11.666   2.215
33265W        W94631  43.979  23.086  13.046
33266W        W94632  29.927  22.244   1.372
33267W        W94633   5.329  27.020   3.672
33268W        W94634  16.618   1.323  13.904
33269W        W94635   6.767   6.284   1.777
33270W        W94636  41.990   1.840  11.128
33271W        W94637  24.696   2.862   5.164
33272W        W94638  15.735  27.615   2.672
33273W        W94639  12.746   9.831  11.956
33274W        W94640   2.959  41.923   4.706
33275W        W94641  35.005  18.210   2.746
33276W        W94642  15.618   7.713   4.695
33277W        W94643  36.531  16.624  12.918
33278W        W94644  20.106   2.243  13.441
33279W        W94645  38.398  41.803   3.744
33280W        W94646  40.892  12.357   3.378
33281W        W94647  41.905  11.726   5.241
33282W        W94648  16.218  40.466   1.781
33283W        W94649  25.689  10.648   0.909
33284W        W94650  22.504  32.451   5.228
33285W        W94651  40.859   0.881  14.301
33286W        W94652   1.810   0.301   4.249
33287W        W94653  32.008  21.235  12.897
33288W        W94654  27.972  23.049   0.764
33289W        W94655  28.036  30.626   0.846
33290W        W94656  36.497   5.821   1.274
33291W        W94657  29.510  30.448  14.365
33292W        W94658  18.220  16.659  14.854
33293W        W94659  28.064   5.847   4.682
33294W        W94660  17.076  28.950   1.217
33295W        W94661  21.088  11.130   2.354
33296W        W94662  36.057  37.554  10.579
33297W        W94663   1.773  17.615   3.300
33298W        W94664  36.995  39.535   4.780
33299W        W94665  19.660   5.809  10.915
33300W        W94666  12.161  34.499   4.717
33301W        W94667  26.049   8.312   4.835
33302W        W94668   4.775  25.001  11.959
33303W        W94669  24.089  40.346  11.000
33304W        W94670  30.981  19.259   0.946
33305W        W94671  20.653  16.750  13.957
33306W        W94672  15.598   7.218   1.930
33307W        W94673  22.733   3.330   9.607
33308W        W94674  24.586  20.057   4.207
33309W        W94675  23.992   2.369  10.068
33310W        W94676  33.045  37.506  10.551
33311W        W94677  44.801  18.771   0.787
33312W        W94678  13.758  12.315  13.489
33313W        W94679  40.533  30.071   0.955
33314W        W94680  17.148  14.105  12.400
33315W        W94681   9.868  38.365  14.758
33316W        W94682   1.778  21.044   3.783
33317W        W94683  31.631  17.218   1.892
33318W        W94684  36.862   9.342   2.810
33319W        W94685  12.245  39.868   3.827
33320W        W94686   0.266  14.196   4.622
33321W        W94687  26.556  44.006  12.880
33322W        W94688  10.306   7.362  12.823
33323W        W94689  13.284  13.732  13.402
33324W        W94690  16.586  39.907   1.915
33325W        W94691   2.832   3.335   2.186
33326W        W94692  10.151  17.716  11.449
33327W        W94693   6.343  27.486  13.857
33328W        W94694   7.820  44.838  14.416
33329W        W94695  22.633  23.637   4.147
33330W        W94696   4.939  15.147   2.868
33331W        W94697  41.865  12.292   4.751
33332W        W94698  20.221  15.704  14.760
33333W        W94699  44.373  18.567   1.358
33334W        W94700  10.275  28.946  11.911
33335W        W94701  38.434  13.230   4.182
33336W        W94702  32.890   1.866  12.427
33337W        W94703  33.617   0.438  12.007
33338W        W94704  13.334  33.105   1.811
33339W        W94705  24.569  11.312  14.875
33340W        W94706  21.541  15.718   4.246
33341W        W94707  23.140  42.958   2.248
33342W        W94708  15.201  18.242   5.086
33343W        W94709  41.490  19.144  14.494
33344W        W94710  39.427  11.628   1.424
33345W        W94711   5.794  37.838  12.983
33346W        W94712  20.109  40.910   3.669
33347W        W94713  37.850  40.489   2.212
33348W        W94714  28.573  28.011   0.953
33349W        W94715  18.293  44.936   3.778
33350W        W94716  16.101  17.782   4.165
33351W        W94717  26.662  30.979  13.858
33352W        W94718  19.166   9.213   3.288
33353W        W94719  41.787  43.782   3.363
33354W        W94720  11.204  33.923   3.153
33355W        W94721  36.574  31.434   2.236
33356W        W94722  29.460  42.033  13.513
33357W        W94723  41.837  43.487  10.560
33358W        W94724  43.765  35.937  11.026
33359W        W94725  31.985   0.486  12.092
33360W        W94726  34.574  19.688   0.357
33361W        W94727  22.136  27.197   4.816
33362W        W94728  20.080  30.580   3.261
33363W        W94729  30.048  23.004   3.266
33364W        W94730  29.145  29.558   1.733
33365W        W94731  33.093  29.940   2.223
33366W        W94732  33.084  17.176   1.399
33367W        W94733  35.556  18.282   1.886
33368W        W94734  15.258  35.869   9.537
33369W        W94735  12.232  32.595  14.512
33370W        W94736  39.892  10.692   3.340
33371W        W94737  40.872  10.270  12.502
33372W        W94738  39.946  40.523  13.322
33373W        W94739  23.544   6.376   4.286
33374W        W94740  11.848   8.194  12.480
33375W        W94741  13.166  32.542  13.826
33376W        W94742  40.358   0.492   4.200
33377W        W94743  40.305  36.881  11.087
33378W        W94744  38.056   3.215  13.496
33379W        W94745  30.564  18.108   0.295
33380W        W94746  18.562   1.822   4.763
33381W        W94747  23.684  17.781  11.402
33382W        W94748  36.556   1.262  12.906
33383W        W94749  25.215  26.208  10.494
33384W        W94750  33.096  44.898   0.884
33385W        W94751  37.069   6.717   2.732
33386W        W94752  13.712  29.471   0.252
33387W        W94753  19.106  20.230  10.429
33388W        W94754   7.865  40.024   3.712
33389W        W94755  24.587  42.902   3.690
33390W        W94756  38.039  27.177  12.428
33391W        W94757  43.482   7.283  11.039
33392W        W94758   0.406   9.265  14.936
33393W        W94759  32.934  15.101  10.991
33394W        W94760   4.232  22.636   0.967
33395W        W94761  41.402  17.769  13.927
33396W        W94762   3.456  20.103  14.824
33397W        W94763  39.507  17.156  11.012
33398W        W94764  32.909  30.963  11.447
33399W        W94765   9.784  27.013   2.711
33400W        W94766  13.193   9.162  14.825
33401W        W94767  36.506  18.274   4.637
33402W        W94768   1.420  42.965  13.887
33403W        W94769  39.051  44.334  11.120
33404W        W94770  37.417   7.746   2.716
33405W        W94771  29.027  11.825  14.450
33406W        W94772   3.356  20.575   4.213
33407W        W94773  41.878  41.946   0.837
33408W        W94774  24.605  20.077   3.204
33409W        W94775  30.459  44.777  12.875
33410W        W94776  37.969  22.671   3.838
33411W        W94777   6.183  25.006  12.492
33412W        W94778  11.164  33.938  13.965
33413W        W94779  36.896  32.557  14.301
33414W        W94780   3.825  38.552   4.651
33415W        W94781  15.738  28.094  13.017
33416W        W94782  11.330  44.434  11.933
33417W        W94783  35.881  36.949   2.750
33418W        W94784  27.109  29.039   3.166
33419W        W94785  34.121  21.624  11.462
33420W        W94786  10.167  14.284   3.334
33421W        W94787  27.626  12.627  12.574
33422W        W94788  34.448  17.193  13.059
33423W        W94789  23.550  10.657   2.379
33424W        W94790   6.326  42.397   2.681
33425W        W94791  25.611   4.259   2.193
33426W        W94792  43.904  33.393   1.825
33427W        W94793  29.666  21.538   1.905
33428W        W94794   7.680  44.269   4.137
33429W        W94795  25.153  33.103  10.889
33430W        W94796  37.390  17.283   0.423
33431W        W94797   2.384  39.007   1.421
33432W        W94798   7.289  34.928   2.692
33433W        W94799  42.980  14.751   3.733
33434W        W94800  27.132  13.289  13.830
33435W        W94801  31.553  11.235  12.484
33436W        W94802  14.602  30.528   1.232
33437W        W94803  36.990   8.399   1.285
33438W        W94804  26.699  31.147   1.330
33439W        W94805  22.218  26.171   0.832
33440W        W94806  43.281  17.128  13.854
33441W        W94807  37.502  44.958  14.886
33442W        W94808  20.209  12.256   1.795
33443W        W94809   4.906  13.138  10.149
33444W        W94810  43.937  34.430   1.881
33445W        W94811  37.918  44.944   2.863
33446W        W94812   4.940  16.765   0.374
33447W        W94813  23.140   3.323   0.734
33448W        W94814  30.967   1.815  10.482
33449W        W94815   2.885   5.842   1.433
33450W        W94816  44.767  27.519  13.497
33451W        W94817  20.563  37.036   2.311
33452W        W94818  37.933  18.099  14.334
33453W        W94819  24.190  12.274  11.015
33454W        W94820  35.546   5.833  14.275
33455W        W94821   2.792  22.196   2.817
33456W        W94822  15.823   7.304  14.822
33457W        W94823   6.337  23.090  13.792
33458W        W94824  29.082   2.295  11.540
33459W        W94825  13.843  17.301  11.492
33460W        W94826  24.056  13.669   3.725
33461W        W94827  25.983   7.178  10.407
33462W        W94828  36.458  26.158   3.652
33463W        W94829  18.733  29.664   1.733
33464W        W94830   0.833  16.185   0.287
33465W        W94831  16.797  27.175  14.418
33466W        W94832   9.271   2.933  12.475
33467W        W94833   2.231  26.486   3.303
33468W        W94834  24.556   2.254  12.435
33469W        W94835   6.904  30.975  12.467
33470W        W94836  14.829  35.099  12.367
33471W        W94837  13.611  21.098  11.503
33472W        W94838  14.168  42.892   3.684
33473W        W94839  43.784   6.345   0.765
33474W        W94840   5.705  37.920  13.958
33475W        W94841  25.067  32.574   1.921
33476W        W94842  38.852  20.761   0.959
33477W        W94843  31.412   0.463  10.490
33478W        W94844  12.799   3.250  10.960
33479W        W94845  34.499  17.296  12.459
33480W        W94846  33.477  32.003   1.285
33481W        W94847   5.905  20.105   4.254
33482W        W94848  36.359  19.696  10.889
33483W        W94849  15.139   1.455   1.373
33484W        W94850  12.248  22.736  14.813
33485W        W94851  32.061  37.515  11.564
33486W        W94852  28.054  10.325  14.389
33487W        W94853  37.381  27.969  14.353
33488W        W94854  43.988  44.356   0.858
33489W        W94855   4.746  34.938   2.829
33490W        W94856  39.472  40.513   3.376
33491W        W94857  27.974  15.263  13.349
33492W        W94858  14.701   4.767  11.569
33493W        W94859   3.797   0.252   4.755
33494W        W94860  34.921  42.311  10.030
33495W        W94861  36.926  12.325  13.512
33496W        W94862  29.130  19.725  10.978
33497W        W94863  21.578  12.131   2.723
33498W        W94864  29.058  36.033   3.164
33499W        W94865  32.052   0.921  14.936
33500W        W94866  38.890   9.757   4.624
33501W        W94867  17.092  23.121  10.023
33502W        W94868  34.983  29.924  11.023
33503W        W94869  27.078  30.423  13.331
33504W        W94870  33.002  38.465  14.849
33505W        W94871   5.704   4.269   4.715
33506W        W94872  24.035  39.373  12.428
33507W        W94873   5.712  31.486   2.742
33508W        W94874   9.159  35.556   4.807
33509W        W94875  24.157  34.563  11.596
33510W        W94876  22.108  39.369   0.803
33511W        W94877  10.192  44.457  13.997
33512W        W94878  31.455  41.390  10.031
33513W        W94879  42.828  22.058  13.415
33514W        W94880  38.011   1.321   3.282
33515W        W94881  38.923  43.296  11.424
33516W        W94882  20.659  41.483  14.504
33517W        W94883  25.531  41.405  14.794
33518W        W94884   8.678  14.677   4.285
33519W        W94885  12.332  22.111   3.310
33520W        W94886  29.592  19.676   1.400
33521W        W94887  15.712  28.627  13.882
33522W        W94888  35.044  34.612   3.793
33523W        W94889  24.542  36.896  12.343
33524W        W94890  19.181  25.473   1.334
33525W        W94891   6.732  11.266  11.048
33526W        W94892  16.150  34.383   2.213
33527W        W94893   9.880  40.925   2.261
33528W        W94894  22.697  22.594  11.873
33529W        W94895   9.222  21.554   3.294
33530W        W94896  15.257  19.070   4.355
33531W        W94897  16.082   2.754  11.034
33532W        W94898  11.277  23.616   4.127
33533W        W94899  43.334  32.016   4.353
33534W        W94900  33.577   0.465   1.841
33535W        W94901  11.692  44.347  10.946
33536W        W94902  14.758  18.642   0.387
33537W        W94903  37.521  14.629   4.170
33538W        W94904  17.626   4.765  12.954
33539W        W94905  26.029  36.944   1.329
33540W        W94906  23.099  38.934   4.637
33541W        W94907  38.384  35.869   1.744
33542W        W94908  36.401  43.839  14.366
33543W        W94909   7.884  34.024  14.349
33544W        W94910   8.187  21.720   3.808
33545W        W94911  41.819  43.900   3.801
33546W        W94912   2.427  37.424   2.265
33547W        W94913  30.928  16.192   2.877
33548W        W94914  21.514  26.520  12.522
33549W        W94915   6.811   2.879   0.859
33550W        W94916  40.483  34.528   4.822
33551W        W94917   6.405   5.297   2.694
33552W        W94918  14.115  14.127   0.332
33553W        W94919  43.395  10.342  13.353
33554W        W94920   1.409   0.947   4.784
33555W        W94921  38.412  26.484  11.513
33556W        W94922  13.143  44.331   9.994
33557W        W94923  17.284  17.691  11.891
33558W        W94924  41.041   2.470  10.563
33559W        W94925  20.095  22.691  10.965
33560W        W94926   7.361  40.043  13.844
33561W        W94927  14.729  14.606  13.342
33562W        W94928   5.736   6.318   2.738
33563W        W94929  27.193  14.234  13.026
33564W        W94930  11.275  26.672   4.335
33565W        W94931  17.593  33.579  14.860
33566W        W94932  27.457  30.632   3.819
33567W        W94933  41.897  41.391   1.389
33568W        W94934  14.141  28.935   2.365
33569W        W94935  15.699  41.346   1.837
33570W        W94936  12.221  40.461   2.307
33571W        W94937  42.490  30.563   2.281
33572W        W94938  42.482   9.347   2.373
33573W        W94939  29.055  30.060   1.301
33574W        W94940  24.137   7.848  13.887
33575W        W94941  43.976  27.189   1.759
33576W        W94942  30.016  14.753   0.832
33577W        W94943  11.176  39.881   1.356
33578W        W94944  26.146  15.717  14.434
33579W        W94945  29.662  34.054   3.665
33580W        W94946  44.481   8.882   2.902
33581W        W94947  23.568  25.000  12.864
33582W        W94948  41.035  35.013  13.811
33583W        W94949  27.488  15.211   2.675
33584W        W94950  11.203   8.825   0.941
33585W        W94951  32.502  32.393   2.749
33586W        W94952  35.515  43.335  11.534
33587W        W94953  10.181  38.440  13.974
33588W        W94954  19.743  18.110   0.808
33589W        W94955  33.427  19.238   2.183
33590W        W94956  27.959   5.430   0.363
33591W        W94957  35.422  11.340  13.352
33592W        W94958  37.914  32.112   0.437
33593W        W94959  20.578  31.054   2.794
33594W        W94960  21.629   3.220  11.458
33595W        W94961  19.765  37.371  14.808
33596W        W94962  35.995  10.209  10.909
33597W        W94963   1.314  13.755   4.301
33598W        W94964   8.899  37.445   1.317
33599W        W94965  26.499  26.571  12.521
33600W        W94966   5.413   3.226   2.763
33601W        W94967   8.845  20.089   1.870
33602W        W94968  21.635  40.462   0.459
33603W        W94969  23.657  19.748  10.433
33604W        W94970  13.612  17.123   2.670
33605W        W94971  22.664  43.935   2.855
33606W        W94972   8.174  16.738  13.948
33607W        W94973  41.881   1.321   2.700
33608W        W94974  19.166  39.876   4.290
33609W        W94975  44.930  14.242  11.870
33610W        W94976   5.371   8.708   0.952
33611W        W94977  33.033  20.210  12.024
33612W        W94978   4.741  38.990  11.120
33613W        W94979   1.458  26.073  10.158
33614W        W94980  32.429  40.981  13.876
33615W        W94981  13.718  42.329  10.431
33616W        W94982  14.208   6.804  13.536
33617W        W94983  30.972  38.524  13.450
33618W        W94984  11.652  29.132  11.120
33619W        W94985   6.383  19.601  14.305
33620W        W94986  42.835   9.320   4.189
33621W        W94987  11.651   0.766  10.629
33622W        W94988  18.236  16.186  10.415
33623W        W94989   0.360  30.530  11.109
33624W        W94990  22.097  23.649   2.854
33625W        W94991  29.664  30.961  10.479
33626W        W94992  21.196   4.897  14.409
33627W        W94993  30.071  39.941   4.240
33628W        W94994  15.598  26.635  13.399
33629W        W94995  40.380  11.634  12.999
33630W        W94996  28.555   2.828  13.504
33631W        W94997  43.011  39.366   4.289
33632W        W94998   5.835  15.244   1.371
33633W        W94999  25.991   8.856   2.228
33634W        W95000  20.258  27.692   4.250
33635W        W95001  33.523  21.259   5.310
33636W        W95002  41.353   1.468  14.840
33637W        W95003  44.776  38.422   4.661
33638W        W95004   0.415  15.242  12.007
33639W        W95005  31.544  33.505   0.459
33640W        W95006  23.525  11.277   3.748
33641W        W95007   8.348  37.002   0.433
33642W        W95008  22.511  19.718   3.270
33643W        W95009  14.687   9.317   0.414
33644W        W95010  26.490  41.851  11.924
33645W        W95011  28.979   6.362   1.229
33646W        W95012  37.872  16.657   1.753
33647W        W95013  36.588   2.790   4.770
33648W        W95014   0.290  18.717  11.505
33649W        W95015   4.411  31.486   4.662
33650W        W95016   2.745  16.208   2.872
33651W        W95017  19.088  13.242   1.392
33652W        W95018  31.902  35.098  12.012
33653W        W95019  39.994  26.698  12.544
33654W        W95020  12.835   3.336   3.338
33655W        W95021  10.836  34.613  12.577
33656W        W95022  26.195   2.875  13.793
33657W        W95023  41.953  16.657   0.415
33658W        W95024  32.597  20.028   0.934
33659W        W95025  26.061  33.934  12.826
33660W        W95026  14.168  40.950   0.276
33661W        W95027  23.666   9.371  10.936
33662W        W95028  28.095  34.942   3.270
33663W        W95029  15.809  41.043   0.741
33664W        W95030  38.341  41.310  14.381
33665W        W95031   5.411  27.026   4.674
33666W        W95032  23.129  28.155   0.445
33667W        W95033  17.731  39.037   1.831
33668W        W95034   5.301   9.288   3.653
33669W        W95035  36.001  16.294  11.971
33670W        W95036  42.871   3.303  11.554
33671W        W95037  24.642  23.158  14.956
33672W        W95038   4.226  33.957   1.892
33673W        W95039   0.370   8.773  10.928
33674W        W95040  27.007  42.897   4.636
33675W        W95041  13.682  36.052   0.328
33676W        W95042  44.346  32.139  11.042
33677W        W95043  17.137  40.369   3.312
33678W        W95044  15.599  36.911   1.755
33679W        W95045  14.704  42.428   1.827
33680W        W95046  27.013  14.721   4.229
33681W        W95047  20.089  28.502   4.170
33682W        W95048   3.831  34.433  14.398
33683W        W95049  28.536  28.653  12.878
33684W        W95050   9.776  28.459   0.941
33685W        W95051  31.640  16.119  12.362
33686W        W95052  40.390   6.183  12.994
33687W        W95053  11.199  43.453   4.748
33688W        W95054  34.443  44.260  13.809
33689W        W95055  32.018  15.628  11.899
33690W        W95056   1.928  41.892   5.206
33691W        W95057  20.253  43.987   4.149
33692W        W95058  14.704   9.270  13.014
33693W        W95059  32.098  30.457   9.930
33694W        W95060  32.075  24.200   0.766
33695W        W95061  26.167  19.728  12.058
33696W        W95062  34.900  10.710  14.769
33697W        W95063   5.902  13.704   3.342
33698W        W95064  42.512  12.322  12.892
33699W        W95065  15.186   4.755  12.436
33700W        W95066  25.573  35.071  13.333
33701W        W95067  21.103  44.757  11.373
33702W        W95068   0.441  42.465   3.333
33703W        W95069   7.729  30.938   1.316
33704W        W95070  27.460  41.978  13.469
33705W        W95071  38.563  33.963   3.712
33706W        W95072   7.345   5.742   4.711
33707W        W95073  40.449  25.186  11.469
33708W        W95074  32.561   0.314   0.429
33709W        W95075  44.836  14.162   3.769
33710W        W95076  31.532  38.909  14.465
33711W        W95077  24.547  18.116   2.823
33712W        W95078  19.252  34.099   1.781
33713W        W95079  12.125  23.057  10.440
33714W        W95080   1.405  35.487  10.897
33715W        W95081   5.726  17.297  12.866
33716W        W95082  36.048  44.772   1.753
33717W        W95083  42.885   5.203   0.368
33718W        W95084  24.577  27.491  13.019
33719W        W95085  40.401  41.892  12.497
33720W        W95086  19.551  20.633  12.997
33721W        W95087  23.721  41.310   0.382
33722W        W95088  41.356   8.390   2.268
33723W        W95089   7.788  29.469  10.513
33724W        W95090  43.990   2.351  11.392
33725W        W95091  32.008  19.266   1.761
33726W        W95092  40.420   2.856  14.421
33727W        W95093  22.536  19.714  12.364
33728W        W95094  12.254  14.708  10.946
33729W        W95095   2.859  14.698   3.251
33730W        W95096  34.512  28.675   1.883
33731W        W95097  42.915  16.235  11.014
33732W        W95098  27.566  20.729  10.429
33733W        W95099  27.158  44.300   3.692
33734W        W95100  22.195   6.863   1.383
33735W        W95101  28.622  24.544   4.199
33736W        W95102   9.750  13.197  14.866
33737W        W95103  18.207  34.987   1.763
33738W        W95104  42.915  38.940   1.415
33739W        W95105  42.782  22.051  12.487
33740W        W95106   6.812  33.453   1.234
33741W        W95107   6.813   6.261   0.482
33742W        W95108  17.682   8.201  12.840
33743W        W95109   7.304  27.077   0.918
33744W        W95110  35.105  11.147  11.599
33745W        W95111  17.600  23.508  14.811
33746W        W95112  17.609  32.465   5.115
33747W        W95113  43.839   3.318   0.479
33748W        W95114  25.134  20.723  10.555
33749W        W95115  43.968  29.015  14.293
33750W        W95116  19.261  11.233  11.496
33751W        W95117  26.700  18.786  14.916
33752W        W95118   8.846  25.098  10.918
33753W        W95119   7.238  11.759  12.895
33754W        W95120  11.846   8.709   5.092
33755W        W95121  17.100  10.853   4.275
33756W        W95122  17.209  38.527   0.365
33757W        W95123   5.397  42.840   1.294
33758W        W95124   6.800  29.131   3.336
33759W        W95125  42.017  39.432   3.266
33760W        W95126  40.305  39.548   4.242
33761W        W95127   7.740  26.678  12.855
33762W        W95128  10.645  41.296   2.351
33763W        W95129  44.412   1.387  13.331
33764W        W95130  43.012   0.321   2.896
33765W        W95131  11.173  25.705   0.457
33766W        W95132  41.997  39.901   2.798
33767W        W95133  10.300  24.203   2.710
33768W        W95134  42.896  17.202  12.496
33769W        W95135  19.080  42.967  10.506
33770W        W95136  13.615  11.165   0.827
33771W        W95137  33.901  13.274   3.363
33772W        W95138  33.519  30.096   2.791
33773W        W95139   8.666  29.999  13.446
33774W        W95140   4.911  12.273  13.328
33775W        W95141  36.556  43.857  12.340
33776W        W95142  29.645  25.968   1.924
33777W        W95143  39.436  35.055  13.969
33778W        W95144  23.124  15.666   0.299
33779W        W95145  35.581  36.056  12.086
33780W        W95146   5.861  43.807  14.946
33781W        W95147  17.647  27.631  11.081
33782W        W95148  11.201  17.623   4.232
33783W        W95149  19.057  13.644   0.826
33784W        W95150  13.789  31.549   4.820
33785W        W95151  27.641  25.480  10.896
33786W        W95152   9.245  15.306   1.710
33787W        W95153  37.486   4.386   3.379
33788W        W95154  32.404  13.666  10.497
33789W        W95155   3.715  22.241  13.372
33790W        W95156  29.992   6.801   4.770
33791W        W95157  29.001  18.746  11.481
33792W        W95158  43.875  42.783  14.813
33793W        W95159  37.053  29.105   3.335
33794W        W95160  25.538  40.853   3.250
33795W        W95161   0.940  15.823  12.372
33796W        W95162   6.812  13.242  11.123
33797W        W95163  23.702  17.182  12.038
33798W        W95164  16.785  40.912  11.527
33799W        W95165  30.514  33.117  13.812
33800W        W95166   8.289  39.465   2.864
33801W        W95167  18.199  24.665   3.350
33802W        W95168  18.712  38.341  12.860
33803W        W95169  43.452  37.927  11.945
33804W        W95170  41.848  22.183  12.911
33805W        W95171   3.760  21.042  13.473
33806W        W95172   0.402  31.431   3.340
33807W        W95173   6.897  37.537  14.991
33808W        W95174  34.957  36.982  10.532
33809W        W95175   9.157   9.289  11.551
33810W        W95176  23.076  22.090   0.937
33811W        W95177  29.099  18.727   4.181
33812W        W95178  27.167  19.117   1.791
33813W        W95179  18.090  27.613  12.072
33814W        W95180   5.266   8.355   4.121
33815W        W95181  24.064  32.433  11.059
33816W        W95182  17.775  20.171  12.545
33817W        W95183  28.467  37.581   1.385
33818W        W95184  20.529   6.868   0.385
33819W        W95185  22.133   8.780  14.023
33820W        W95186  44.797  32.403  12.833
33821W        W95187  39.865   4.860  11.467
33822W        W95188  21.616  26.620   3.762
33823W        W95189   6.905  40.454   3.865
33824W        W95190  16.122  35.408   3.646
33825W        W95191  12.719  21.078  11.003
33826W        W95192  31.081   8.220   0.955
33827W        W95193   5.688   2.285  11.469
33828W        W95194  13.257  29.510   1.278
33829W        W95195  35.417  20.588  13.955
33830W        W95196  15.107  31.607   2.319
33831W        W95197  18.663  20.712   2.718
33832W        W95198  34.899  34.407   3.348
33833W        W95199  18.066  42.505  12.906
33834W        W95200  40.999  32.928   2.372
33835W        W95201  13.218  33.508   3.784
33836W        W95202  25.670  40.324  10.044
33837W        W95203  32.445  22.601  10.924
33838W        W95204  12.810  34.450   1.834
33839W        W95205  27.021   9.318  13.858
33840W        W95206   4.876  31.550   2.214
33841W        W95207   4.405  42.852  13.063
33842W        W95208  33.571  29.439   1.907
33843W        W95209  42.444   3.942   1.777
33844W        W95210  35.365  37.925   4.266
33845W        W95211  28.010  13.234  14.308
33846W        W95212   2.901  32.997  11.883
33847W        W95213   1.365  12.731   0.791
33848W        W95214   5.743  15.692  11.476
33849W        W95215  35.499  22.055   4.629
33850W        W95216   7.289  17.778   3.171
33851W        W95217  35.871   4.220  11.959
33852W        W95218   1.416  32.908   3.310
33853W        W95219  32.569  37.389   0.861
33854W        W95220  28.947  27.966   4.768
33855W        W95221  16.613  27.988   0.923
33856W        W95222  24.163  39.839   2.712
33857W        W95223  16.622  23.726   4.328
33858W        W95224  43.400  11.195   1.921
33859W        W95225  23.543  23.638   1.300
33860W        W95226  30.038  25.093   4.231
33861W        W95227  14.289  16.186   4.160
33862W        W95228  29.642  35.497  12.474
33863W        W95229  36.536  22.235   3.164
33864W        W95230  39.353  42.014  12.410
33865W        W95231  41.930  18.549   3.223
33866W        W95232  23.607  36.014   3.765
33867W        W95233  40.379  23.725  13.894
33868W        W95234  16.199   4.884  13.855
33869W        W95235  33.416   3.229   4.732
33870W        W95236  26.586  10.313  14.375
33871W        W95237  27.073  41.530   1.261
33872W        W95238   5.774   6.754  11.568
33873W        W95239  12.303  16.664   3.825
33874W        W95240  15.603  39.929   3.642
33875W        W95241  29.561   7.253  11.531
33876W        W95242  35.999   9.838  12.535
33877W        W95243  27.477  31.897  14.837
33878W        W95244   0.809  43.963  10.567
33879W        W95245  38.444  29.654   3.704
33880W        W95246  12.687  43.837   0.432
33881W        W95247   4.860  24.149   4.222
33882W        W95248  23.143  35.935   4.259
33883W        W95249  28.137  24.194   0.439
33884W        W95250   3.759  19.227  10.592
33885W        W95251  20.657   6.411   2.415
33886W        W95252  40.903   9.382   2.214
33887W        W95253  14.727  18.220   1.274
33888W        W95254  33.580  41.386   1.327
33889W        W95255  28.549  28.615  13.442
33890W        W95256   1.377   5.689  10.500
33891W        W95257   7.315  28.455  12.439
33892W        W95258  26.195  22.156   1.841
33893W        W95259  17.694  24.583   1.292
33894W        W95260   7.225  23.648   3.281
33895W        W95261  33.999   2.381  13.534
33896W        W95262  35.489  41.876  13.381
33897W        W95263  41.035  11.758  13.540
33898W        W95264  13.604  27.468  11.420
33899W        W95265  40.864  40.311   0.364
33900W        W95266  10.709  25.010   3.222
33901W        W95267  20.693  28.964   4.193
33902W        W95268  38.517   4.439  14.965
33903W        W95269  39.323   8.261   4.777
33904W        W95270  30.543  35.077   5.245
33905W        W95271  30.528  26.679   2.667
33906W        W95272  40.476  30.072   1.224
33907W        W95273  17.571  40.417  11.869
33908W        W95274  36.482  37.379   1.445
33909W        W95275  13.685  35.486  12.361
33910W        W95276  38.516   5.200   1.756
33911W        W95277  37.026  39.910  14.923
33912W        W95278   6.858   8.666   2.231
33913W        W95279  35.102   1.883  14.429
33914W        W95280  32.604  15.640   0.376
33915W        W95281   3.285  30.037   1.872
33916W        W95282  32.890  14.674   1.365
33917W        W95283  36.894  24.485  12.954
33918W        W95284  25.128  31.611   2.892
33919W        W95285   1.818   0.816   1.331
33920W        W95286   9.874  43.381  13.322
33921W        W95287  44.991  21.704  12.033
33922W        W95288  31.069  44.270   0.946
33923W        W95289  38.371  11.671  10.447
33924W        W95290  22.206  37.883   1.371
33925W        W95291  21.620  28.934  11.553
33926W        W95292   3.244  11.179  10.638
33927W        W95293   3.854  27.085  10.979
33928W        W95294  27.629  39.534   4.708
33929W        W95295  18.086   5.409   4.780
33930W        W95296  26.130   3.908   1.272
33931W        W95297  34.464  23.215   1.211
33932W        W95298   6.851  40.860  10.457
33933W        W95299  16.624  24.524   0.412
33934W        W95300  40.532  36.513   0.351
33935W        W95301  17.759   5.254  11.048
33936W        W95302   3.301  22.695  13.935
33937W        W95303  23.607   6.300  11.394
33938W        W95304   7.270  30.430   3.697
33939W        W95305  36.052  20.210  13.046
33940W        W95306  24.586   7.807   0.402
33941W        W95307  16.712  34.930  12.068
33942W        W95308   7.869  10.201   1.215
33943W        W95309   1.387   3.742   3.153
33944W        W95310  30.610  14.257  11.962
33945W        W95311  16.131  12.345   2.247
33946W        W95312   9.367  23.635   4.238
33947W        W95313  31.644   3.308   1.422
33948W        W95314   5.334  15.716  12.071
33949W        W95315  42.951  21.719  14.960
33950W        W95316  22.151  39.494  11.870
33951W        W95317  31.538  32.612   1.828
33952W        W95318  25.045  34.954   0.309
33953W        W95319  33.884   0.869   3.355
33954W        W95320   7.752  16.671  12.343
33955W        W95321  12.350  32.962   3.642
33956W        W95322  26.031  24.697   4.293
33957W        W95323  35.917  35.962  11.913
33958W        W95324   6.848  44.418  10.417
33959W        W95325  38.035  12.176   1.900
33960W        W95326  22.022  27.109   0.821
33961W        W95327   5.420  24.579  14.502
33962W        W95328  30.629  28.995  14.971
33963W        W95329   9.763  23.728   3.332
33964W        W95330  32.900  33.012   2.867
33965W        W95331  23.984  23.064  10.576
33966W        W95332  15.085  17.578  13.988
33967W        W95333  12.688   0.289   3.164
33968W        W95334   6.260  35.012   3.708
33969W        W95335  10.320  30.638  13.027
33970W        W95336  31.961   9.709  13.002
33971W        W95337   3.389  33.072  11.013
33972W        W95338  12.358  43.914   4.817
33973W        W95339  38.946  30.987  12.989
33974W        W95340  37.958   2.318  14.284
33975W        W95341  25.660  14.763   3.760
33976W        W95342  44.011  19.674  12.568
33977W        W95343  19.752   8.768   0.759
33978W        W95344   1.310  26.982   2.817
33979W        W95345   4.833  36.354  13.340
33980W        W95346  19.186  33.046  14.337
33981W        W95347  31.552  14.831   3.238
33982W        W95348  31.948  23.554  11.449
33983W        W95349  36.354  34.579   0.736
33984W        W95350   9.321  18.162  14.966
33985W        W95351  44.829  14.686   0.741
33986W        W95352  31.033  14.624  14.360
33987W        W95353  34.975  21.220  11.972
33988W        W95354  20.621  41.470  13.362
33989W        W95355  26.075  39.036   2.317
33990W        W95356  37.886  38.971  10.903
33991W        W95357   4.810   9.795  11.972
33992W        W95358  34.985  40.525  13.461
33993W        W95359  25.146  30.593  11.523
33994W        W95360  39.019  22.706   2.688
33995W        W95361  38.051  28.661   0.381
33996W        W95362   6.770  26.618   1.881
33997W        W95363   8.734  30.027  14.355
33998W        W95364   2.262  23.179   1.319
33999W        W95365  12.347  15.153   3.751
34000W        W95366  23.589  26.546  11.514
34001W        W95367   1.345  34.573  11.403
34002W        W95368  31.124  27.164  11.097
34003W        W95369  33.927  24.720  14.296
34004W        W95370  32.018  27.617  11.593
34005W        W95371  17.144   2.785  14.438
34006W        W95372  18.674  41.010   0.436
34007W        W95373  36.585   2.397  11.490
34008W        W95374  19.723  15.805   2.312
34009W        W95375  27.098  31.135   5.092
34010W        W95376  35.447  27.994  14.423
34011W        W95377   3.891  40.984  12.095
34012W        W95378  35.881   5.269  10.448
34013W        W95379   0.818  10.717   2.243
34014W        W95380  43.930  31.614   4.230
34015W        W95381  38.358  36.033   2.342
34016W        W95382  13.252  44.787   0.467
34017W        W95383  35.528  28.627   2.249
34018W        W95384  17.224  32.014   3.212
34019W        W95385  13.229  25.114   1.845
34020W        W95386  39.840  13.622  12.516
34021W        W95387  13.814  35.985   1.220
34022W        W95388   6.189  11.772  11.996
34023W        W95389  11.847  26.968   0.729
34024W        W95390  42.910  34.955  10.579
34025W        W95391  14.691   5.730   4.798
34026W        W95392  43.471   2.826   2.854
34027W        W95393   4.883  11.721  12.981
34028W        W95394  33.892   7.734   3.847
34029W        W95395  11.834   5.752   1.776
34030W        W95396  23.698   9.345   0.262
34031W        W95397   4.347  16.216   2.340
34032W        W95398  25.689   2.242   2.365
34033W        W95399  34.402  16.739   1.235
34034W        W95400   4.846  28.138  14.905
34035W        W95401   8.333   1.300  14.954
34036W        W95402  28.088  38.506   3.783
34037W        W95403   7.761  33.548   2.394
34038W        W95404  27.014  30.138   3.854
34039W        W95405  39.936  12.134  12.460
34040W        W95406  39.351  29.582  12.979
34041W        W95407  32.564  17.753  12.921
34042W        W95408   2.259   7.880  12.395
34043W        W95409  15.084  37.577  13.943
34044W        W95410  12.848   2.740   1.769
34045W        W95411   4.249  37.965  11.912
34046W        W95412  10.329  30.615   4.345
34047W        W95413  12.733  40.440   1.351
34048W        W95414  25.071  21.195   3.292
34049W        W95415   6.223   6.371  11.925
34050W        W95416  44.889   6.747   0.398
34051W        W95417  10.225  10.728  11.395
34052W        W95418  38.063   2.905  12.866
34053W        W95419  24.693  20.694   4.223
34054W        W95420   1.939   2.454   3.329
34055W        W95421  11.178  13.640  12.073
34056W        W95422  40.466   9.367   2.718
34057W        W95423  27.613  26.103  11.995
34058W        W95424   3.361  25.004   1.696
34059W        W95425  30.447   3.449   4.692
34060W        W95426  24.189  40.863  12.441
34061W        W95427  21.669  28.003   3.678
34062W        W95428  42.821  40.874  10.934
34063W        W95429   9.208   3.314   0.316
34064W        W95430  32.970  23.701   0.458
34065W        W95431  29.061  23.561  14.916
34066W        W95432  33.570  10.635   2.351
34067W        W95433  15.209  12.617  13.895
34068W        W95434  43.918  31.913   2.324
34069W        W95435  17.643  23.538  11.034
34070W        W95436  43.886  20.746  12.943
34071W        W95437  39.323  44.329   3.284
34072W        W95438   2.242  44.795  14.961
34073W        W95439  34.380  23.124   4.249
34074W        W95440   8.283  24.698  13.813
34075W        W95441  41.496  29.508  10.933
34076W        W95442   3.817  29.584   3.712
34077W        W95443   6.384  39.483  14.019
34078W        W95444   8.852  33.593   1.451
34079W        W95445  28.958  10.383   3.256
34080W        W95446  22.233  14.109  12.939
34081W        W95447  39.499  36.891   1.836
34082W        W95448  15.233  16.595  13.063
34083W        W95449  18.199  43.765  14.960
34084W        W95450  39.534  22.183  14.279
34085W        W95451  10.212  13.194   2.283
34086W        W95452  21.729   3.921  11.475
34087W        W95453  24.673  35.422  12.868
34088W        W95454   4.366   0.430   1.715
34089W        W95455  17.609   3.337   1.830
34090W        W95456  39.560   3.342   4.288
34091W        W95457   0.826  42.353  12.470
34092W        W95458   0.344  15.748   3.860
34093W        W95459  15.641  16.736  14.833
34094W        W95460  20.079  26.052  13.820
34095W        W95461  17.270  42.024   3.869
34096W        W95462  13.669  21.248  12.927
34097W        W95463  28.992  26.159  13.367
34098W        W95464  19.150  34.415   1.816
34099W        W95465  10.317  17.290  13.817
34100W        W95466  40.422   0.963  11.078
34101W        W95467  26.070  30.054  14.468
34102W        W95468   7.808  27.545   4.804
34103W        W95469  30.160  27.489  11.883
34104W        W95470   5.710  16.104   2.847
34105W        W95471  15.169  26.985  13.839
34106W        W95472  42.902  22.150   0.762
34107W        W95473  23.518  28.171  14.937
34108W        W95474  30.996  27.611   4.173
34109W        W95475  21.090  15.177   3.821
34110W        W95476  12.118  26.553   4.145
34111W        W95477  42.909  31.478  11.071
34112W        W95478  32.043  44.475   3.372
34113W        W95479  43.771  10.863   0.851
34114W        W95480  36.421  23.695  10.965
34115W        W95481   1.806  18.142   2.849
34116W        W95482  17.250  39.428  13.988
34117W        W95483  22.561  20.743  11.538
34118W        W95484  30.157  15.296  14.786
34119W        W95485  32.597  12.805  13.384
34120W        W95486  32.623  11.843   4.148
34121W        W95487   3.277  22.094   3.789
34122W        W95488   0.409  27.538  11.447
34123W        W95489  33.458  15.121  11.558
34124W        W95490  23.217  11.827  14.417
34125W        W95491  20.525  36.981  13.341
34126W        W95492   9.171   0.417  11.054
34127W        W95493  36.532  11.687   2.418
34128W        W95494  42.964   3.244  14.355
34129W        W95495  23.722  24.710  12.506
34130W        W95496  15.705  37.845  13.032
34131W        W95497  24.611   3.720  12.526
34132W        W95498  11.145  38.502  14.377
34133W        W95499  13.216  35.100   1.293
34134W        W95500   7.253   7.694  11.890
34135W        W95501   6.325  36.548  12.974
34136W        W95502  40.451   3.880  14.378
34137W        W95503  28.157   8.288  12.032
34138W        W95504  36.489   4.206   1.419
34139W        W95505   1.801  16.797  11.908
34140W        W95506  32.128  18.552   0.948
34141W        W95507   7.675  12.727  10.600
34142W        W95508  17.694  34.910  12.443
34143W        W95509  31.943   4.729  14.767
34144W        W95510  38.977   6.283  10.972
34145W        W95511  16.184  18.083   0.384
34146W        W95512  14.297  42.392   1.796
34147W        W95513  37.513  26.108  13.539
34148W        W95514  39.058  21.125   3.162
34149W        W95515  44.347  39.389  13.006
34150W        W95516  19.161  17.146  14.965
34151W        W95517  27.059  17.155   1.434
34152W        W95518  33.503  38.025  10.492
34153W        W95519  29.632  39.406   1.823
34154W        W95520  24.151  34.046  11.511
34155W        W95521  37.498  28.178   3.857
34156W        W95522  34.004  27.504  12.864
34157W        W95523  14.604  29.573   0.931
34158W        W95524  37.519  20.534   0.916
34159W        W95525  39.409  32.887   4.135
34160W        W95526   7.734   9.837   3.310
34161W        W95527  10.274  35.947  10.101
34162W        W95528   6.835  44.463   3.852
34163W        W95529  21.157  20.761   1.446
34164W        W95530  31.628  29.640   1.241
34165W        W95531   5.790   8.311  12.485
34166W        W95532  12.192  13.796   2.266
34167W        W95533  11.792  13.263   0.871
34168W        W95534  24.689   8.752  12.928
34169W        W95535  12.630  18.279   0.925
34170W        W95536  19.558   4.295  10.894
34171W        W95537   0.281  31.943   3.849
34172W        W95538  27.477   6.875  13.469
34173W        W95539  25.645  23.719   9.991
34174W        W95540   5.294  42.822   3.708
34175W        W95541  42.367  31.481  10.500
34176W        W95542  21.692   6.423   1.703
34177W        W95543  35.013  40.908  11.109
34178W        W95544   4.893  10.316   9.925
34179W        W95545  43.767   7.395   1.409
34180W        W95546  22.027  35.547   1.248
34181W        W95547   3.251  24.210   0.293
34182W        W95548  13.238  35.894  12.356
34183W        W95549  16.224  39.829  14.435
34184W        W95550  43.318  21.619   2.319
34185W        W95551  32.631  36.523  10.587
34186W        W95552  12.193  18.070   1.338
34187W        W95553  35.598  12.655  12.912
34188W        W95554  11.650  41.535  12.835
34189W        W95555   3.764   1.971   4.265
34190W        W95556   6.266  19.541   4.682
34191W        W95557   4.446  43.454  13.347
34192W        W95558  40.810  22.079  10.981
34193W        W95559  24.220  38.488   2.304
34194W        W95560  25.178  28.007   3.311
34195W        W95561   0.423  10.845  13.828
34196W        W95562   3.408  28.957  11.384
34197W        W95563  10.352   3.798  12.034
34198W        W95564  17.289  15.806   1.918
34199W        W95565  30.153  44.902   1.935
34200W        W95566  28.441   8.787  11.563
34201W        W95567  27.173  44.407  10.425
34202W        W95568   4.923   2.341  13.848
34203W        W95569  12.267   0.841   2.262
34204W        W95570  16.152   2.926   1.733
34205W        W95571  44.366  43.300   1.376
34206W        W95572  28.505  37.858   1.804
34207W        W95573  43.491  37.915   1.833
34208W        W95574  41.002  30.540   3.834
34209W        W95575  25.688  12.188  14.473
34210W        W95576  15.292   8.317   3.151
34211W        W95577  27.978  44.966  11.073
34212W        W95578  37.076  40.478  11.068
34213W        W95579   4.317  42.400   3.165
34214W        W95580   7.211  27.962  12.945
34215W        W95581  19.671  20.052  14.985
34216W        W95582   9.718  31.609  11.902
34217W        W95583  21.043  13.723   1.221
34218W        W95584  25.173  18.605  11.411
34219W        W95585   9.326  13.250   1.776
34220W        W95586  44.903  26.030   0.378
34221W        W95587   6.893  13.675   3.312
34222W        W95588   1.875  37.346   2.377
34223W        W95589  37.035  21.640  11.566
34224W        W95590  28.438  29.521   3.630
34225W        W95591  21.128  25.701   2.410
34226W        W95592   5.891  16.179  10.596
34227W        W95593  24.684  11.155  10.544
34228W        W95594  26.661   7.776  10.889
34229W        W95595   5.794   8.246   3.160
34230W        W95596  18.265  29.016  11.417
34231W        W95597  36.958  38.401  10.146
34232W        W95598   2.315  35.584   1.851
34233W        W95599  36.491  41.408  13.405
34234W        W95600  12.686  22.732   1.319
34235W        W95601  39.011  27.682  11.482
34236W        W95602   3.312   7.199   0.292
34237W        W95603  31.539  23.104   3.683
34238W        W95604  14.120  34.437   9.966
34239W        W95605  15.615  43.372   3.824
34240W        W95606   2.461  21.245   4.309
34241W        W95607  36.899  43.998   1.226
34242W        W95608  18.675  32.093  10.974
34243W        W95609   8.288  14.187   2.335
34244W        W95610  44.348  27.511   0.870
34245W        W95611  28.080  40.050  10.482
34246W        W95612  30.647   2.297   3.211
34247W        W95613   3.431   6.381   5.125
34248W        W95614  27.663  19.225   9.534
34249W        W95615  33.880  23.706  10.964
34250W        W95616  30.547  34.471   0.959
34251W        W95617  42.862  18.736  12.459
34252W        W95618  35.968  17.764   0.898
34253W        W95619  13.159  28.062   1.730
34254W        W95620  30.951   5.228   2.353
34255W        W95621   2.464  21.065  12.090
34256W        W95622  29.977  29.171  14.326
34257W        W95623  32.629  15.185   0.301
34258W        W95624  19.579  13.718  11.594
34259W        W95625   1.956  17.599   0.885
34260W        W95626  42.286  43.323  10.507
34261W        W95627  14.771  34.468   5.245
34262W        W95628  40.845  13.277   0.802
34263W        W95629   0.269   0.764   3.310
34264W        W95630  21.192   1.480   0.293
34265W        W95631   0.805  24.047  13.367
34266W        W95632  32.022   7.358  12.924
34267W        W95633  40.901  18.649  10.946
34268W        W95634  23.005  28.670   4.308
34269W        W95635  38.359  44.936   3.868
34270W        W95636   8.365  24.571   0.467
34271W        W95637  42.855  22.030  11.012
34272W        W95638  24.989  30.936  11.470
34273W        W95639   0.490  28.997  11.479
34274W        W95640  43.469   6.274   1.932
34275W        W95641  37.426  13.326  11.491
34276W        W95642  33.406   1.329   9.971
34277W        W95643  31.930  28.993  13.545
34278W        W95644  11.323  26.136  11.935
34279W        W95645  38.064  31.148  13.049
34280W        W95646  22.597  17.200  12.075
34281W        W95647  35.995  33.531  13.525
34282W        W95648  42.946  17.740  10.948
34283W        W95649  15.267  42.979  12.845
34284W        W95650  13.200  17.657   1.342
34285W        W95651  21.531  37.924   4.734
34286W        W95652  34.971  42.010  12.407
34287W        W95653  15.684  21.539   3.859
34288W        W95654   4.233  39.031  11.004
34289W        W95655  44.833  24.225  10.941
34290W        W95656   3.780  13.231  14.888
34291W        W95657   0.470  23.618   2.291
34292W        W95658  38.360   1.316   3.758
34293W        W95659  42.813   8.701   4.833
34294W        W95660  12.650  15.213  10.445
34295W        W95661  17.167  21.660  13.375
34296W        W95662  18.594   5.350   1.305
34297W        W95663  29.970  27.601   4.804
34298W        W95664  32.894  34.382  14.926
34299W        W95665  24.144  17.297  10.428
34300W        W95666   4.259  26.574  11.969
34301W        W95667  33.117  15.580   3.866
34302W        W95668  39.040  24.606  14.321
34303W        W95669  10.650  20.105  11.002
34304W        W95670  44.962  14.222  14.463
34305W        W95671  42.013   8.244  10.495
34306W        W95672  29.145  10.659  13.054
34307W        W95673  37.489  24.004  11.500
34308W        W95674   1.349   3.869   4.348
34309W        W95675  30.644  23.140   2.338
34310W        W95676  21.113  36.467  12.368
34311W        W95677  31.641   7.776  11.888
34312W        W95678   5.438  17.193   3.282
34313W        W95679  17.692  35.529  12.832
34314W        W95680  32.587  15.245   1.731
34315W        W95681   1.427  19.661   0.795
34316W        W95682  14.762  16.648   3.751
34317W        W95683  36.514  38.489  11.556
34318W        W95684   9.227  43.353   2.830
34319W        W95685  32.995  36.526  10.993
34320W        W95686   8.841   6.276  11.402
34321W        W95687  29.521  37.416  11.948
34322W        W95688   0.960  44.305  11.403
34323W        W95689  13.687   3.401  13.331
34324W        W95690   5.395  21.591  12.856
34325W        W95691  34.384  32.408   3.385
34326W        W95692  26.095  19.704   1.740
34327W        W95693  43.804  37.862   2.412
34328W        W95694  43.384   1.361  12.495
34329W        W95695   1.857  23.607   1.815
34330W        W95696  32.115  29.087  10.985
34331W        W95697   7.256  39.376   3.278
34332W        W95698  22.731  22.083  13.452
34333W        W95699  13.744  19.098  14.914
34334W        W95700  32.604   7.849  13.487
34335W        W95701  12.166   1.402   0.454
34336W        W95702   1.367  34.561   4.739
34337W        W95703  20.267  16.625   0.289
34338W        W95704  25.032  38.971   5.245
34339W        W95705   4.915  10.665  14.001
34340W        W95706  17.704   0.758   0.747
34341W        W95707   4.802  36.358   3.193
34342W        W95708  16.294  12.714   9.607
34343W        W95709  29.447  23.054  14.413
34344W        W95710  20.171  20.238   1.765
34345W        W95711  23.041  18.247   4.117
34346W        W95712  12.282  19.577  12.428
34347W        W95713  39.430  39.816  12.862
34348W        W95714  24.152   4.251  14.404
34349W        W95715  34.964  37.543  11.106
34350W        W95716   3.790  35.090   3.205
34351W        W95717   4.407  41.862  10.921
34352W        W95718  10.858   7.710  11.023
34353W        W95719  20.050   7.342  14.956
34354W        W95720  38.520  13.304  12.997
34355W        W95721  13.826  10.364  14.445
34356W        W95722  44.309  31.616   2.770
34357W        W95723  10.223  23.103   4.269
34358W        W95724  15.652  25.565  10.425
34359W        W95725  28.988  25.586   1.442
34360W        W95726  16.765   6.288   4.754
34361W        W95727  38.561   0.760  12.465
34362W        W95728   5.440  13.644   0.867
34363W        W95729  36.885  11.338   2.900
34364W        W95730  16.089  30.023  14.761
34365W        W95731  27.045  42.970  13.995
34366W        W95732   6.898   2.419   0.833
34367W        W95733  20.071   6.750   2.698
34368W        W95734  37.444  38.530  13.396
34369W        W95735  26.656  36.404   2.408
34370W        W95736  11.754  12.658   4.153
34371W        W95737   0.757  24.975  12.081
34372W        W95738  43.810  36.357   2.312
34373W        W95739  36.921  39.441  14.796
34374W        W95740   1.761  26.509   4.274
34375W        W95741  26.643  44.957  13.979
34376W        W95742  19.120   7.710   1.385
34377W        W95743   0.967   2.782  12.982
34378W        W95744   2.253  42.824   3.867
34379W        W95745  34.869  41.954  13.367
34380W        W95746  31.471  16.201  13.858
34381W        W95747  22.675   1.791   0.474
34382W        W95748   2.281  25.163  11.394
34383W        W95749   6.215  32.944   2.817
34384W        W95750  29.447   0.918  11.484
34385W        W95751  26.009  38.904  11.094
34386W        W95752  21.548  37.369   1.445
34387W        W95753  40.938   5.258  11.465
34388W        W95754  44.906  17.089  14.502
34389W        W95755  43.002  34.947  11.540
34390W        W95756  26.594  24.489   5.129
34391W        W95757  44.754  14.748  10.612
34392W        W95758  25.576   0.978   2.891
34393W        W95759  27.666  38.393   2.227
34394W        W95760  34.053  26.484   3.353
34395W        W95761  18.268  25.708  14.888
34396W        W95762  17.123  24.124  12.832
34397W        W95763  36.903  41.916   3.340
34398W        W95764  30.593  32.579   2.710
34399W        W95765  14.231  33.552  12.833
34400W        W95766   9.250   7.667   2.299
34401W        W95767  41.311  20.073  14.322
34402W        W95768   4.272   6.329   3.263
34403W        W95769  28.540  17.664   0.745
34404W        W95770   2.797  16.227  13.001
34405W        W95771   2.433  32.954   4.146
34406W        W95772  41.888   0.852  14.840
34407W        W95773  15.804  23.206   4.827
34408W        W95774   0.379   4.210   1.230
34409W        W95775   2.277   7.286   3.656
34410W        W95776  18.697  29.010   3.223
34411W        W95777   0.929   9.731  13.491
34412W        W95778  32.952  34.906   2.859
34413W        W95779   7.710  30.047  13.935
34414W        W95780  43.420  37.443  13.511
34415W        W95781  25.575  33.031   1.280
34416W        W95782  19.552   1.408  13.333
34417W        W95783  23.692  33.028  11.003
34418W        W95784  29.562  22.154   3.274
34419W        W95785   2.778  41.989  13.364
34420W        W95786   5.193  35.441  12.834
34421W        W95787  22.501  23.591   4.657
34422W        W95788  21.533  29.436  12.860
34423W        W95789  17.591   5.754   2.210
34424W        W95790   0.932  32.141  12.553
34425W        W95791  37.027   2.860   2.681
34426W        W95792  21.696  32.967   4.216
34427W        W95793  43.973  23.134   4.720
34428W        W95794   7.197  31.087  13.878
34429W        W95795  17.739  30.639   0.478
34430W        W95796  43.866   7.316  14.348
34431W        W95797   1.929  10.162   2.851
34432W        W95798  30.970  13.693   0.861
34433W        W95799  39.816   8.863   4.137
34434W        W95800  18.611   6.757   2.785
34435W        W95801  19.780  31.911   3.283
34436W        W95802  13.696  31.066   3.844
34437W        W95803  13.182  33.451  13.502
34438W        W95804  14.242  40.499  12.437
34439W        W95805  34.418  34.945   3.765
34440W        W95806   5.396  25.527   4.633
34441W        W95807  39.474  27.572   2.715
34442W        W95808  43.817  36.548   0.468
34443W        W95809   6.309  20.227   1.852
34444W        W95810   4.363   8.359   4.674
34445W        W95811  29.542   9.289   1.388
34446W        W95812  19.215  30.028   1.831
34447W        W95813   0.406  25.617  14.383
34448W        W95814  39.559  32.987  13.971
34449W        W95815   9.685  39.527  13.400
34450W        W95816  38.008  34.956  13.427
34451W        W95817  17.297  21.645   9.947
34452W        W95818  24.026   8.260   3.703
34453W        W95819   1.323  20.647   2.901
34454W        W95820   9.842  21.128  12.082
34455W        W95821  39.333  41.993   3.156
34456W        W95822  32.963  22.207  14.943
34457W        W95823  35.857  16.752   0.729
34458W        W95824  18.739  26.077  11.595
34459W        W95825  22.654  17.087  11.523
34460W        W95826  17.195  41.294  10.473
34461W        W95827  20.124   9.148   3.266
34462W        W95828  31.940  21.226   3.262
34463W        W95829   5.424  14.238  13.416
34464W        W95830  12.784   5.767   4.175
34465W        W95831  40.827  28.532   4.174
34466W        W95832  41.489  33.878   4.299
34467W        W95833  30.056  32.415  11.979
34468W        W95834  14.143   7.268   3.358
34469W        W95835  36.869   6.844  13.059
34470W        W95836   9.391  40.831  12.071
34471W        W95837   2.309   3.944  13.034
34472W        W95838   3.781  37.382  11.948
34473W        W95839   7.400  16.274   0.266
34474W        W95840   5.897  24.974  14.853
34475W        W95841  26.968  36.446  14.962
34476W        W95842  26.079   5.857  11.933
34477W        W95843  39.384  44.834   3.159
34478W        W95844  37.341  15.787   1.213
34479W        W95845  31.508  23.727   4.614
34480W        W95846  39.943  23.181   1.909
34481W        W95847  33.471  17.204   0.400
34482W        W95848  38.903  35.398  10.478
34483W        W95849  28.611  21.586  10.584
34484W        W95850  22.522  21.036   5.201
34485W        W95851  18.590   1.314   1.303
34486W        W95852  22.097  42.890   4.722
34487W        W95853  27.534  34.109   2.306
34488W        W95854  35.954  20.693  12.464
34489W        W95855  39.459  40.909  11.877
34490W        W95856  21.030  20.557  11.045
34491W        W95857   5.748  40.509   4.212
34492W        W95858   1.770  13.615   1.793
34493W        W95859   2.246  27.692   3.203
34494W        W95860  43.911   9.751  14.995
34495W        W95861   0.342   9.842   1.715
34496W        W95862  42.292  23.004   0.904
34497W        W95863   5.433   5.210  14.361
34498W        W95864   4.414  15.762  12.462
34499W        W95865  31.081  23.728   1.225
34500W        W95866  12.656  34.539   3.800
34501W        W95867  39.977  24.505   0.439
34502W        W95868  15.273  36.529   3.680
34503W        W95869   1.893  16.141  13.846
34504W        W95870   4.853  38.969   2.184
34505W        W95871  38.566   7.754  13.886
34506W        W95872  23.075  12.197  14.499
34507W        W95873  34.424  14.675   1.414
34508W        W95874   7.709  44.341  10.532
34509W        W95875   1.912   7.687  10.579
34510W        W95876  11.349  43.306   0.818
34511W        W95877  39.394  11.839   0.784
34512W        W95878  26.608  16.718  12.360
34513W        W95879  19.138  14.771   5.599
34514W        W95880  16.266  19.607   1.767
34515W        W95881  39.486   8.197   0.917
34516W        W95882  18.775  17.631  11.918
34517W        W95883   0.317   6.237  11.451
34518W        W95884   4.443  24.589  11.510
34519W        W95885  22.104  42.820   2.688
34520W        W95886  38.005   5.279   2.888
34521W        W95887  15.745  26.678   1.361
34522W        W95888  29.592  21.214   1.301
34523W        W95889  38.465  33.921  10.967
34524W        W95890  17.791  28.627   0.942
34525W        W95891   3.951   7.897  11.977
34526W        W95892   2.408  36.472  11.470
34527W        W95893  44.779   4.875   2.793
34528W        W95894  27.604  31.994   3.712
34529W        W95895  34.095   2.925  11.546
34530W        W95896  30.153   9.395   2.219
34531W        W95897  27.551  34.002   4.825
34532W        W95898  42.313  20.183  11.892
34533W        W95899   7.768   7.744   0.941
34534W        W95900  24.229  15.152  11.530
34535W        W95901  39.847  43.408   0.405
34536W        W95902  39.388  37.534   0.341
34537W        W95903  34.870  40.343  14.474
34538W        W95904  16.598  26.082  14.901
34539W        W95905  27.467  41.919   4.774
34540W        W95906  40.972  43.918   3.863
34541W        W95907  33.982  38.877   1.385
34542W        W95908  21.534  17.091  11.967
34543W        W95909   3.809   3.776  12.522
34544W        W95910  37.927  41.296  14.848
34545W        W95911  11.621  16.711  14.491
34546W        W95912   7.262  28.454   2.799
34547W        W95913   7.883  10.768  10.456
34548W        W95914  14.279  38.028  14.791
34549W        W95915  40.368  24.230   1.225
34550W        W95916  18.636  23.517  12.999
34551W        W95917  43.956  28.094   5.204
34552W        W95918  22.536   1.309   4.334
34553W        W95919  44.402  42.795  10.897
34554W        W95920  32.482  11.667   0.923
34555W        W95921  24.526   3.909   1.772
34556W        W95922  32.047  32.620   0.922
34557W        W95923  42.527  29.987  12.509
34558W        W95924   1.337  27.523  11.564
34559W        W95925  14.796  42.909  13.025
34560W        W95926  28.652  36.990  11.012
34561W        W95927   7.192  16.080  10.926
34562W        W95928  19.611  13.174  12.944
34563W        W95929  25.036  35.926   4.157
34564W        W95930  33.577  19.575  10.100
34565W        W95931   1.849  23.553  12.841
34566W        W95932  27.950   0.809  14.397
34567W        W95933  28.112  11.135   3.789
34568W        W95934  22.167  31.551  10.485
34569W        W95935  19.641   4.387   0.883
34570W        W95936   3.320  38.875   4.330
34571W        W95937  39.355   6.742  14.467
34572W        W95938  36.465  12.685  13.526
34573W        W95939   5.373  28.995   3.387
34574W        W95940  24.225   5.867   3.727
34575W        W95941  16.126   8.814   1.915
34576W        W95942  29.514  28.639   2.388
34577W        W95943  19.088  31.638   1.283
34578W        W95944  22.211  38.548  12.531
34579W        W95945  27.625  35.057  11.979
34580W        W95946  36.553  42.440  14.839
34581W        W95947   7.819  21.074  13.410
34582W        W95948   7.702   2.879   4.247
34583W        W95949  10.829   2.951  11.458
34584W        W95950  24.219   6.907  14.393
34585W        W95951   7.706  23.163  12.077
34586W        W95952  17.564  31.070  12.932
34587W        W95953  30.456  44.488  12.965
34588W        W95954   1.758  44.266  13.994
34589W        W95955  20.768   0.444  14.891
34590W        W95956  10.756  26.165  11.048
34591W        W95957   0.853  10.373   2.408
34592W        W95958  37.023   3.772  14.798
34593W        W95959  33.569  13.209   1.856
34594W        W95960   6.410  40.846   2.331
34595W        W95961  28.527  34.871  10.407
34596W        W95962  19.560   0.366  13.363
34597W        W95963  42.286  19.560   4.347
34598W        W95964  34.959  29.168  12.085
34599W        W95965   3.901  29.571   4.716
34600W        W95966  44.386  29.614  12.443
34601W        W95967  12.807  19.556  12.490
34602W        W95968   1.303  28.565   1.384
34603W        W95969  28.008   7.699   3.699
34604W        W95970  41.304  33.404   0.385
34605W        W95971  37.351  11.299   1.771
34606W        W95972  30.471  28.003  11.117
34607W        W95973  43.843  35.395  10.571
34608W        W95974   4.751  35.392  12.920
34609W        W95975  26.583  11.624  13.796
34610W        W95976  29.559  13.192  10.569
34611W        W95977   9.194  13.752   3.196
34612W        W95978   2.813  30.463  11.003
34613W        W95979  38.971  19.141   1.414
34614W        W95980   3.240  15.730  12.936
34615W        W95981  22.080  38.403  11.886
34616W        W95982   4.883   1.338   0.376
34617W        W95983  40.828  41.841  11.945
34618W        W95984  34.434  30.099   0.895
34619W        W95985   3.881  40.340  13.501
34620W        W95986   1.445  16.079   2.267
34621W        W95987   7.816  10.311   2.822
34622W        W95988  12.246  12.263   2.881
34623W        W95989  30.488   0.900  14.476
34624W        W95990  26.959  22.034   4.635
34625W        W95991  22.123  39.403   2.379
34626W        W95992  15.288  36.013   0.330
34627W        W95993  12.794  13.326   1.443
34628W        W95994  43.296  25.126  13.049
34629W        W95995   0.884  30.115  13.923
34630W        W95996  34.995  23.704   4.733
34631W        W95997  26.149   4.335   0.371
34632W        W95998  16.170  39.318  11.582
34633W        W95999  16.101  26.484   4.632
34634W        W96000  37.419  39.973   0.774
34635W        W96001  35.405  26.489  14.365
34636W        W96002   5.200  11.207  13.873
34637W        W96003  19.197  34.972   9.954
34638W        W96004   0.252  19.599  13.362
34639W        W96005   3.898  30.532  12.541
34640W        W96006   6.739  28.642  12.908
34641W        W96007  15.182  13.289   0.368
34642W        W96008  43.792   4.263   1.735
34643W        W96009  35.535  13.308  14.514
34644W        W96010  28.503   5.889   3.367
34645W        W96011  40.387  37.846   1.328
34646W        W96012  38.558   2.266   2.218
34647W        W96013  27.156  34.014   4.239
34648W        W96014   5.815   9.317  12.871
34649W        W96015  29.438   1.479   0.862
34650W        W96016  16.585  25.201  14.299
34651W        W96017  13.607  36.565  12.855
34652W        W96018  34.423  23.997  14.849
34653W        W96019  11.698  39.815   0.381
34654W        W96020  38.899  37.863  12.950
34655W        W96021   3.374  37.878  13.064
34656W        W96022  33.468  28.972   5.288
34657W        W96023  32.018   0.981   4.643
34658W        W96024  21.537   0.932   3.730
34659W        W96025  11.737  33.533   9.964
34660W        W96026  38.508  18.730   4.696
34661W        W96027  16.755  37.897  13.426
34662W        W96028  19.723  30.435  11.058
34663W        W96029  24.589   1.922   0.314
34664W        W96030  38.353  16.102   1.761
34665W        W96031  33.492  19.051  11.106
34666W        W96032  23.562  40.027   3.293
34667W        W96033  44.755  38.884  10.028
34668W        W96034  37.895  13.832  14.795
34669W        W96035  43.336   6.850  13.052
34670W        W96036  16.640   5.690  14.357
34671W        W96037  19.549  29.572  13.310
34672W        W96038  28.640  19.096  14.918
34673W        W96039  13.265   3.352  13.043
34674W        W96040  27.584  22.110  11.558
34675W        W96041  25.603  39.340   2.202
34676W        W96042  26.121  23.155  10.636
34677W        W96043   8.200  40.878   3.824
34678W        W96044  22.732  18.177   0.314
34679W        W96045  19.185  10.187   0.270
34680W        W96046  11.712   2.269  10.562
34681W        W96047  37.381   9.766  10.502
34682W        W96048  41.819  42.843  12.554
34683W        W96049  25.179   1.735  11.592
34684W        W96050  11.636  31.132   1.921
34685W        W96051  32.029  44.417   2.268
34686W        W96052  19.134  20.666   3.272
34687W        W96053   5.365   2.736   9.464
34688W        W96054  40.529  13.727   0.403
34689W        W96055  24.114  39.475  10.982
34690W        W96056  39.381  28.125   1.824
34691W        W96057  25.065  35.526  10.516
34692W        W96058  15.663  33.051   0.886
34693W        W96059  26.039  35.908   2.746
34694W        W96060  44.273  14.723  13.031
34695W        W96061  15.202  35.540  10.159
34696W        W96062  44.890  29.172   5.127
34697W        W96063  39.370  25.084  12.084
34698W        W96064  11.247  20.556   0.871
34699W        W96065  22.728  25.540   3.761
34700W        W96066  40.315  18.701  14.379
34701W        W96067  19.682  16.639  12.436
34702W        W96068  21.183  37.507   1.285
34703W        W96069  22.095  29.115   4.217
34704W        W96070  35.411  21.678   3.846
34705W        W96071  43.835  34.070  10.546
34706W        W96072   6.853  25.094   0.337
34707W        W96073  23.707  15.614  12.445
34708W        W96074  40.932  17.256  11.072
34709W        W96075   0.262   1.922   2.753
34710W        W96076  32.626   4.876  10.981
34711W        W96077   7.721  36.863   3.224
34712W        W96078  26.616  30.055  14.878
34713W        W96079  10.821  21.044  14.983
34714W        W96080   7.766  41.985  13.998
34715W        W96081  14.712  26.062  14.454
34716W        W96082  31.100  38.010   2.680
34717W        W96083  27.103  11.235  10.889
34718W        W96084  15.714  15.788   3.381
34719W        W96085  34.112  15.793  12.986
34720W        W96086  12.782  20.173  13.332
34721W        W96087  35.426  24.706   2.363
34722W        W96088  38.570  33.880  13.999
34723W        W96089   3.434  13.166  14.780
34724W        W96090  30.941  36.390   4.610
34725W        W96091   0.411  14.302   0.252
34726W        W96092  36.576   3.785  11.025
34727W        W96093  23.179  26.035   0.463
34728W        W96094  23.231  25.973  14.452
34729W        W96095  32.054   8.167   1.885
34730W        W96096  17.692  14.746   1.294
34731W        W96097  44.286  35.969  13.986
34732W        W96098   2.313  12.832  13.838
34733W        W96099  39.963  37.064  13.311
34734W        W96100  39.817   0.276  13.055
34735W        W96101  19.617   5.842   0.471
34736W        W96102  22.120  36.930   0.939
34737W        W96103  25.507  25.169  10.508
34738W        W96104  35.936   0.315  13.905
34739W        W96105  42.484  30.088   2.697
34740W        W96106  24.061  31.427  12.348
34741W        W96107  38.343  18.180  11.451
34742W        W96108  33.029  36.456   0.962
34743W        W96109   8.211   3.365  13.422
34744W        W96110  26.148  25.040  10.123
34745W        W96111  31.408  43.455   0.365
34746W        W96112  42.987   6.860   0.802
34747W        W96113  41.312  28.565   0.323
34748W        W96114  23.208  25.541   4.629
34749W        W96115  14.694  12.228  10.582
34750W        W96116  19.574  10.711   1.262
34751W        W96117  35.398   8.861   4.241
34752W        W96118  27.062   9.709  10.495
34753W        W96119  10.787   6.193  10.068
34754W        W96120  28.556  25.117   0.274
34755W        W96121  40.523  42.390   3.822
34756W        W96122  31.457  32.131   2.773
34757W        W96123   7.363  18.582  13.321
34758W        W96124  40.448  25.204  13.058
34759W        W96125  26.136  12.688   2.675
34760W        W96126  44.895  29.118   3.175
34761W        W96127  29.494  31.501   3.748
34762W        W96128  10.209  22.519  11.506
34763W        W96129  40.456   6.385   3.743
34764W        W96130  25.483  31.026  10.149
34765W        W96131   9.684  24.032  12.860
34766W        W96132  39.354   2.232   4.612
34767W        W96133  33.468  13.204   4.815
34768W        W96134  34.566   9.839  14.028
34769W        W96135  14.171  16.808  11.561
34770W        W96136   1.734  41.872   0.852
34771W        W96137  27.517  30.074  14.003
34772W        W96138  15.791  37.019  11.911
34773W        W96139  29.017  32.951   4.797
34774W        W96140   4.247  39.342  13.916
34775W        W96141  33.961  40.047   3.177
34776W        W96142  31.916  27.062  10.936
34777W        W96143  29.590  34.112  12.524
34778W        W96144  21.628   6.846  10.586
34779W        W96145  22.604  20.573  14.510
34780W        W96146  16.258  43.325  14.981
34781W        W96147  27.996  21.717   4.288
34782W        W96148   2.406  37.476  14.017
34783W        W96149  43.318  40.335  11.868
34784W        W96150  28.466  42.987   3.865
34785W        W96151  43.943   2.760   1.732
34786W        W96152  17.131  21.556   3.738
34787W        W96153  30.129  44.292   3.630
34788W        W96154   4.854  36.547   3.770
34789W        W96155  19.276  30.026  11.094
34790W        W96156  14.800  41.961  11.373
34791W        W96157  41.849  18.590   4.270
34792W        W96158  33.921   4.821  11.920
34793W        W96159  18.173  34.110  11.378
34794W        W96160  16.602  16.687  12.449
34795W        W96161  37.059   8.360   1.840
34796W        W96162   6.223  18.073   3.799
34797W        W96163   3.896  26.041  11.551
34798W        W96164  35.378  12.153  13.954
34799W        W96165  44.430  17.738  14.012
34800W        W96166   0.961  44.878   1.822
34801W        W96167  16.593  27.116  10.561
34802W        W96168  14.229  13.830  12.405
34803W        W96169  18.161  15.183   1.389
34804W        W96170  25.500  20.272   1.820
34805W        W96171  36.585   7.724   4.759
34806W        W96172  22.083  20.152   0.728
34807W        W96173  35.048  31.958  14.455
34808W        W96174  22.665  24.050  14.791
34809W        W96175   6.302  39.833   2.311
34810W        W96176   7.697  37.935   0.896
34811W        W96177  44.261  36.947   3.259
34812W        W96178  26.520  26.203  12.833
34813W        W96179   5.758  13.110   2.185
34814W        W96180  27.086  21.228   3.225
34815W        W96181  29.021  19.073  14.898
34816W        W96182  10.639  25.531  13.508
34817W        W96183  21.538  13.175   2.870
34818W        W96184  19.153  16.083   3.323
34819W        W96185  14.613  32.018  13.411
34820W        W96186  26.462  21.571   4.755
34821W        W96187   8.387  39.842  11.395
34822W        W96188  42.478  35.996  14.835
34823W        W96189  32.595  32.077   9.993
34824W        W96190  32.999  15.161  14.486
34825W        W96191  15.675  23.090  14.511
34826W        W96192  34.520   0.971  11.068
34827W        W96193   4.776  27.528  12.544
34828W        W96194  34.936  41.336  14.845
34829W        W96195  11.159  30.962  13.402
34830W        W96196   6.852  23.614  14.446
34831W        W96197  10.874  43.505   4.684
34832W        W96198  36.539  35.552  14.277
34833W        W96199  24.209  26.967   1.211
34834W        W96200  16.138  18.674  13.924
34835W        W96201  23.563  27.091  11.010
34836W        W96202   7.190  19.608   3.767
34837W        W96203  23.220  43.420  11.537
34838W        W96204  12.203   1.822   1.353
34839W        W96205  30.623  22.536  13.015
34840W        W96206  28.670  38.362  10.963
34841W        W96207  40.529   4.935  10.638
34842W        W96208  36.421   6.388  10.553
34843W        W96209  21.130  34.527  11.582
34844W        W96210  16.587  33.476   2.191
34845W        W96211  24.654  41.924  12.027
34846W        W96212   8.326   8.774   2.891
34847W        W96213   4.324  21.742   0.853
34848W        W96214  16.122  26.562  14.327
34849W        W96215  29.172  39.014   1.390
34850W        W96216  14.657  25.996   2.389
34851W        W96217  14.321  35.103   9.516
34852W        W96218  20.598  21.513  12.034
34853W        W96219   1.927  13.754  13.793
34854W        W96220  26.502  26.114   0.463
34855W        W96221  26.608   7.212   1.220
34856W        W96222   4.883  25.694  11.993
34857W        W96223  25.508  29.145   3.200
34858W        W96224  28.087   2.361  13.430
34859W        W96225  15.191   1.801   4.604
34860W        W96226   2.881  17.092   3.329
34861W        W96227  15.251  18.236   2.705
34862W        W96228  22.053  28.534   2.679
34863W        W96229   5.412  44.992  10.530
34864W        W96230   6.703  41.932   4.615
34865W        W96231   5.846  13.679   5.287
34866W        W96232  42.894  19.587   2.798
34867W        W96233  32.082  17.607  10.898
34868W        W96234   6.216  11.850   3.177
34869W        W96235  32.512  24.165  11.442
34870W        W96236  42.403  29.663   3.632
34871W        W96237  42.886  19.069  14.899
34872W        W96238   0.415   2.345   3.819
34873W        W96239  44.973  15.765  14.300
34874W        W96240  19.061   7.880  13.341
34875W        W96241   3.749  18.131   4.201
34876W        W96242   5.805  17.207   9.456
34877W        W96243  30.524   2.334  12.510
34878W        W96244   5.871  21.154  11.594
34879W        W96245  34.091  38.047   3.172
34880W        W96246  31.631  40.520  11.087
34881W        W96247  42.793  24.537  10.641
34882W        W96248  35.916  13.772   0.290
34883W        W96249   2.844  17.187   3.816
34884W        W96250  42.922   3.222  13.426
34885W        W96251   6.423  25.121   5.220
34886W        W96252  37.549   0.814   2.671
34887W        W96253   4.365  11.653  14.316
34888W        W96254  31.949  35.417  10.563
34889W        W96255  26.610   9.648  11.390
34890W        W96256   9.871  24.541  12.567
34891W        W96257  17.183  11.835  13.959
34892W        W96258  24.496  41.292  10.573
34893W        W96259  30.654   3.314  14.943
34894W        W96260  26.588  30.475  13.946
34895W        W96261  44.501  22.714  13.515
34896W        W96262  19.055  44.398   2.723
34897W        W96263  21.741  32.961   1.839
34898W        W96264  15.610  22.124  10.924
34899W        W96265  23.020  29.112  13.033
34900W        W96266  17.744  33.899   4.289
34901W        W96267   5.912  31.096  12.825
34902W        W96268  42.853  28.173  13.326
34903W        W96269  12.210  19.619  11.023
34904W        W96270  18.625  35.450  10.952
34905W        W96271  34.577  16.696  12.441
34906W        W96272   7.855  20.626  13.511
34907W        W96273  15.758  12.742  11.559
34908W        W96274  31.121   5.243  13.865
34909W        W96275  27.528  27.673   2.377
34910W        W96276   2.226   9.712  13.493
34911W        W96277  10.673   7.820  12.088
34912W        W96278  19.069  27.988   2.741
34913W        W96279   0.329  16.242   3.808
34914W        W96280   1.393  34.529  13.932
34915W        W96281   3.447  39.474  12.048
34916W        W96282  44.879  22.236   1.352
34917W        W96283  34.409  39.450  14.763
34918W        W96284  25.665  15.083   3.649
34919W        W96285  42.782  36.349  14.846
34920W        W96286  24.653  25.561   0.409
34921W        W96287  32.500  12.672  11.931
34922W        W96288  40.989  19.741  11.408
34923W        W96289  21.183  16.762  12.020
34924W        W96290   0.400   3.281  11.882
34925W        W96291  35.883   6.255   4.268
34926W        W96292   3.319  39.392  11.111
34927W        W96293  10.778  11.755  12.893
34928W        W96294  37.857  26.986   2.413
34929W        W96295  19.108  16.645  11.021
34930W        W96296  35.484   4.347   4.632
34931W        W96297  22.069   6.875  11.119
34932W        W96298   4.831   3.795  12.454
34933W        W96299  33.060  44.977   3.825
34934W        W96300   0.981  37.504  14.831
34935W        W96301  27.005  18.582  10.542
34936W        W96302  29.488  42.843   4.666
34937W        W96303  26.165   0.352   3.807
34938W        W96304  40.478  10.768  13.511
34939W        W96305   2.243   0.278  10.476
34940W        W96306  13.224   2.367  13.964
34941W        W96307  10.233  44.423   5.150
34942W        W96308  17.127  39.424   4.615
34943W        W96309  42.803  12.623   1.409
34944W        W96310  13.288  39.004   5.224
34945W        W96311  30.964  19.582   3.367
34946W        W96312  14.628   7.222  12.990
34947W        W96313  20.575  24.095   0.367
34948W        W96314  15.775  33.041   4.223
34949W        W96315  37.454   0.417   1.349
34950W        W96316  27.149  28.051  14.506
34951W        W96317  38.894   6.721  12.842
34952W        W96318   8.737  15.698   0.331
34953W        W96319   1.447  24.705  12.917
34954W        W96320  16.748   4.803   0.960
34955W        W96321   6.370  42.469   2.206
34956W        W96322  30.923  26.579  10.946
34957W        W96323  26.537  24.155   4.344
34958W        W96324   8.863  11.837   3.218
34959W        W96325  34.034  21.595  14.419
34960W        W96326  16.123  15.121   1.878
34961W        W96327  31.123  40.506  14.453
34962W        W96328  42.291  18.143  12.954
34963W        W96329   2.281   3.734   5.628
34964W        W96330  31.931  15.272  13.501
34965W        W96331  22.704   6.742   0.295
34966W        W96332   4.942  11.799  13.481
34967W        W96333  30.966  34.013  14.775
34968W        W96334  27.584  11.287  14.278
34969W        W96335  16.312  40.347  10.502
34970W        W96336  42.033   0.944  12.962
34971W        W96337  38.012   5.314  13.508
34972W        W96338  35.852   4.419   0.894
34973W        W96339  21.692  40.409  10.041
34974W        W96340  18.065  35.596  13.954
34975W        W96341  19.256  21.130   3.865
34976W        W96342  41.336  44.993   1.278
34977W        W96343   3.870  13.820  11.898
34978W        W96344  42.501  32.958   4.715
34979W        W96345  41.848  44.405  11.041
34980W        W96346  29.977  11.276   4.159
34981W        W96347  43.320  36.071  11.496
34982W        W96348  10.334   2.776  14.405
34983W        W96349  35.495  40.470  11.461
34984W        W96350  36.982  26.017  14.977
34985W        W96351  28.934  27.104   3.296
34986W        W96352  31.567   3.935   3.794
34987W        W96353  17.228   7.188   3.207
34988W        W96354  31.525  19.672  11.560
34989W        W96355  31.994  33.526   4.322
34990W        W96356   2.377  30.413   4.628
34991W        W96357  39.388  43.015  14.893
34992W        W96358  14.187  25.539  10.439
34993W        W96359  38.964  36.373  13.057
34994W        W96360  16.183  42.891  14.286
34995W        W96361  16.181  18.781   1.327
34996W        W96362  15.699  12.322   0.830
34997W        W96363  25.047  21.581  11.543
34998W        W96364  33.397  39.410   0.364
34999W        W96365  29.662  30.451  13.497
35000W        W96366  26.173  25.550  11.474
35001W        W96367  26.003   9.264  11.446
35002W        W96368  38.381   8.345   2.233
35003W        W96369  17.074  26.990   0.840
35004W        W96370  18.087  18.674  11.941
35005W        W96371  11.309  10.359   2.362
35006W        W96372  24.050   7.220   4.346
35007W        W96373  12.209  19.678   3.334
35008W        W96374   4.755  35.959   1.437
35009W        W96375  18.074   6.244  14.356
35010W        W96376  31.947  26.050   4.290
35011W        W96377  31.145  44.971   4.812
35012W        W96378  41.514   5.903   1.844
35013W        W96379  34.072   7.902  10.406
35014W        W96380  39.355  39.420   3.727
35015W        W96381  39.962  41.366   0.831
35016W        W96382  24.660   9.349  11.913
35017W        W96383   2.447  41.368  11.102
35018W        W96384  20.208  42.854   4.316
35019W        W96385  20.602  40.453  13.837
35020W        W96386  27.170   2.758  13.059
35021W        W96387  18.216  29.015   2.836
35022W        W96388  17.618   8.705   1.867
35023W        W96389  11.210  16.111   1.362
35024W        W96390  42.472  22.082   1.229
35025W        W96391  16.151  41.516   3.733
35026W        W96392   0.829  31.444  13.511
35027W        W96393   9.661  33.425   4.742
35028W        W96394  40.343  22.052  13.309
35029W        W96395   5.208   5.845   5.133
35030W        W96396  33.888  42.515  12.481
35031W        W96397  33.505  28.185  14.494
35032W        W96398  44.345  37.923  13.450
35033W        W96399  10.184  20.760   2.706
35034W        W96400  19.671  22.014   4.723
35035W        W96401  26.518   5.862  10.568
35036W        W96402  35.367   8.314  12.393
35037W        W96403  26.631  26.083  13.960
35038W        W96404  14.763  44.437  14.812
35039W        W96405  34.054  11.194   2.414
35040W        W96406  42.031   1.820  13.992
35041W        W96407   5.801  26.137  12.447
35042W        W96408   0.957  26.494   1.732
35043W        W96409  19.772  37.502   3.210
35044W        W96410  16.244  21.750   1.301
35045W        W96411   4.771  43.953   1.433
35046W        W96412  38.000   5.221  14.494
35047W        W96413  17.634  42.299  14.462
35048W        W96414  24.673  21.085   1.326
35049W        W96415  12.613  31.909   0.754
35050W        W96416  38.879  43.003   0.318
35051W        W96417  19.658  33.923   1.439
35052W        W96418  38.897  25.573   4.781
35053W        W96419  28.119  13.139  11.396
35054W        W96420  35.501  13.663   1.908
35055W        W96421  44.376  19.233   0.871
35056W        W96422  38.441   3.844   2.757
35057W        W96423  11.675  25.512   0.791
35058W        W96424  38.918  22.625   5.213
35059W        W96425  33.422   9.160   4.288
35060W        W96426  24.665  17.671   0.850
35061W        W96427  13.282   3.276  13.447
35062W        W96428  10.222  10.746   0.340
35063W        W96429  18.569   4.749   2.380
35064W        W96430  15.781  43.886   2.297
35065W        W96431  17.646   8.734   2.883
35066W        W96432   9.806  26.521   3.203
35067W        W96433   3.324  12.628  12.417
35068W        W96434   2.806  17.748   0.435
35069W        W96435  27.039   8.220  11.452
35070W        W96436  24.076  15.259  10.511
35071W        W96437  42.821  21.051  13.401
35072W        W96438   0.322   5.223  13.042
35073W        W96439  14.614  20.242  14.769
35074W        W96440  43.903   9.328   2.834
35075W        W96441  40.371  37.383   1.734
35076W        W96442  31.001  23.705  12.437
35077W        W96443  11.705   7.668  10.946
35078W        W96444  36.492  23.717   3.700
35079W        W96445  38.448   9.775  13.402
35080W        W96446  29.543  33.602   4.715
35081W        W96447  27.027  33.895  11.940
35082W        W96448  24.597  24.689  13.871
35083W        W96449   3.220   8.293  14.863
35084W        W96450  21.209  23.210   3.299
35085W        W96451   8.696  31.079   5.160
35086W        W96452   1.404  19.174   0.809
35087W        W96453  37.499  31.153   3.190
35088W        W96454  12.162  37.538   4.163
35089W        W96455  38.415  42.953  12.561
35090W        W96456  31.584  19.639   3.384
35091W        W96457  12.656  16.104   4.804
35092W        W96458  14.299  18.169   0.346
35093W        W96459   7.344  27.169   2.756
35094W        W96460  29.641   3.911  13.530
35095W        W96461  15.706  15.801   0.459
35096W        W96462  18.784  10.758  13.971
35097W        W96463   6.281  43.483   1.894
35098W        W96464   8.870  16.222   1.242
35099W        W96465  42.792  26.992   1.223
35100W        W96466  17.681  35.936   2.317
35101W        W96467  31.060  12.770   1.856
35102W        W96468  11.368  36.478  11.895
35103W        W96469  27.990  35.966  11.444
35104W        W96470  40.872   7.667  13.541
35105W        W96471   0.270  16.095   0.392
35106W        W96472   5.271  39.474   2.196
35107W        W96473   5.252  36.928   4.798
35108W        W96474   0.326  24.161   1.818
35109W        W96475  33.904  24.050   2.816
35110W        W96476  33.624  14.189   4.355
35111W        W96477  21.229  33.443   3.162
35112W        W96478  40.361  21.753  14.779
35113W        W96479  21.182  42.942   5.315
35114W        W96480   5.360   8.836  13.859
35115W        W96481  12.611  32.393  10.996
35116W        W96482  32.046  38.039   4.273
35117W        W96483   0.298  17.739  11.036
35118W        W96484  22.604   6.312   0.260
35119W        W96485  35.084  22.169  12.378
35120W        W96486  19.204   6.729  10.472
35121W        W96487  15.783  11.348   1.934
35122W        W96488  41.818  40.857   2.888
35123W        W96489  42.968  28.155  14.919
35124W        W96490  42.989   4.916   5.225
35125W        W96491  36.572  10.649  14.763
35126W        W96492  24.545  38.569   1.894
35127W        W96493  28.025  11.364  12.981
35128W        W96494   5.366  19.691   1.779
35129W        W96495   1.464  20.194  14.772
35130W        W96496  34.885   2.305  14.773
35131W        W96497  44.807  13.826   1.920
35132W        W96498  34.972  39.877  12.935
35133W        W96499  31.953   3.949  14.347
35134W        W96500  34.900  18.268  13.977
35135W        W96501  23.082  43.961   3.206
35136W        W96502  36.451  28.080  11.525
35137W        W96503  20.096  18.224   1.287
35138W        W96504  13.105   6.405  10.929
35139W        W96505  42.466  24.503  14.789
35140W        W96506   3.954  33.081  10.482
35141W        W96507   5.717  20.728  13.987
35142W        W96508  43.882  16.701   1.825
35143W        W96509  10.360  24.194  13.441
35144W        W96510   5.295  14.696   9.634
35145W        W96511  43.989  15.297   1.782
35146W        W96512   8.682  32.430   3.220
35147W        W96513   6.915  29.645   4.609
35148W        W96514  41.519  29.024   3.192
35149W        W96515  37.983   2.733  13.517
35150W        W96516  42.413  40.982  14.862
35151W        W96517  30.423  27.461  13.869
35152W        W96518  18.213  41.965  13.892
35153W        W96519  22.658   9.342   2.261
35154W        W96520  38.059  40.851  13.309
35155W        W96521  37.040  43.280   1.436
35156W        W96522  15.161   9.732   3.647
35157W        W96523  30.476  40.890   2.661
35158W        W96524   9.705  28.044   0.934
35159W        W96525  40.945  40.394  14.279
35160W        W96526  38.004  16.091  13.063
35161W        W96527  44.408   5.807  11.875
35162W        W96528  31.592  30.140  13.034
35163W        W96529   8.300  33.446  14.363
35164W        W96530  43.319  15.682  11.426
35165W        W96531  20.033   9.276   4.129
35166W        W96532  19.736   5.200   1.431
35167W        W96533  41.474  16.576   0.756
35168W        W96534   8.888  31.057  13.543
35169W        W96535  37.377   4.919   3.667
35170W        W96536   8.361  39.476   4.231
35171W        W96537   9.228  20.594   3.384
35172W        W96538  43.861   7.365  12.454
35173W        W96539  12.292  44.947   2.352
35174W        W96540  39.354  38.472   3.672
35175W        W96541  23.221   2.272   3.704
35176W        W96542   1.882  36.400  12.519
35177W        W96543  28.470  20.216  11.939
35178W        W96544  28.116   4.351   4.314
35179W        W96545  39.352  17.590   1.394
35180W        W96546  22.680   5.721  14.423
35181W        W96547  35.558   7.183   3.320
35182W        W96548  31.979  30.512   4.221
35183W        W96549   2.304  40.442   1.886
35184W        W96550  12.848  12.298  11.042
35185W        W96551  36.385  44.371  14.453
35186W        W96552  15.230  35.910   1.226
35187W        W96553   1.475   2.314  12.560
35188W        W96554  14.698   9.346   4.300
35189W        W96555  16.099  29.961  13.506
35190W        W96556  44.288  37.988   0.425
35191W        W96557   8.302  12.354   4.678
35192W        W96558   4.762  23.548  12.514
35193W        W96559  19.253  13.217  11.932
35194W        W96560   7.815  24.580  13.417
35195W        W96561  43.832  23.537   2.857
35196W        W96562  27.001   5.335  10.160
35197W        W96563  26.989   1.890   2.362
35198W        W96564  29.645  40.855   4.725
35199W        W96565  29.023  23.985  12.047
35200W        W96566  15.308  27.537   4.835
35201W        W96567  21.590  10.843  14.951
35202W        W96568  39.544  42.903   3.870
35203W        W96569   2.967   4.268   0.823
35204W        W96570  38.926   7.397   1.920
35205W        W96571  40.326  16.576   2.350
35206W        W96572  15.206  19.038  11.401
35207W        W96573   3.866   2.861   1.751
35208W        W96574  31.486  42.513  13.386
35209W        W96575   5.431  11.706  13.514
35210W        W96576  41.403  35.445  10.905
35211W        W96577  42.350   3.222  12.489
35212W        W96578  33.531  37.549  13.450
35213W        W96579   3.225  42.370  10.592
35214W        W96580  10.810  13.163  11.906
35215W        W96581  29.048  41.930  11.069
35216W        W96582  13.644   7.290   0.937
35217W        W96583  18.284  20.685   2.328
35218W        W96584  20.110  13.744  14.758
35219W        W96585   8.779  31.581   4.735
35220W        W96586  37.010  21.651  11.951
35221W        W96587  34.038   2.937   1.802
35222W        W96588   7.742  40.855  13.901
35223W        W96589  35.444  16.110  14.332
35224W        W96590  23.728   1.310  10.935
35225W        W96591   9.213  31.034   3.824
35226W        W96592  12.796  44.477   4.600
35227W        W96593   5.229  37.402   1.813
35228W        W96594  11.294  43.787  11.530
35229W        W96595  14.157  26.539  13.450
35230W        W96596  31.478  22.114  10.103
35231W        W96597  28.946  42.462   3.822
35232W        W96598  13.128  29.065  10.959
35233W        W96599  41.817  10.731  12.496
35234W        W96600  22.552  33.890   2.673
35235W        W96601  38.947  40.419   0.881
35236W        W96602  23.615   2.764   1.397
35237W        W96603  29.582  27.636  10.581
35238W        W96604  33.973  17.103   1.904
35239W        W96605  43.342  32.637  12.090
35240W        W96606  26.199  41.293  12.359
35241W        W96607  36.410   6.724  14.340
35242W        W96608  15.819   6.295   4.638
35243W        W96609  20.066  11.348   4.128
35244W        W96610  33.449  24.036  11.003
35245W        W96611  41.441  40.503  11.127
35246W        W96612  17.283   0.467   3.755
35247W        W96613  13.607  27.674  12.936
35248W        W96614  23.059  26.531   2.330
35249W        W96615  16.235  22.223  11.986
35250W        W96616  10.685   8.295   4.307
35251W        W96617  34.464  20.174  11.422
35252W        W96618  11.292  18.213  13.004
35253W        W96619  34.089  30.058  13.971
35254W        W96620  14.243  39.489   1.246
35255W        W96621  28.053  14.334   2.823
35256W        W96622   0.438  33.119   1.927
35257W        W96623   9.698  34.000   2.814
35258W        W96624  42.322  34.397  10.449
35259W        W96625   6.763  22.633  12.368
35260W        W96626  25.035  32.937   1.438
35261W        W96627  43.956  44.384  12.971
35262W        W96628  40.533  12.806   0.799
35263W        W96629  33.470  27.197  13.005
35264W        W96630  21.258  37.379   3.695
35265W        W96631  17.791  39.359  13.917
35266W        W96632  37.917  42.981   1.306
35267W        W96633  30.463  32.414  11.003
35268W        W96634  21.693   6.191   4.683
35269W        W96635  38.012  16.305   0.388
35270W        W96636  11.349  43.369  11.428
35271W        W96637  40.925  28.958  14.436
35272W        W96638  26.178   3.880   9.497
35273W        W96639  23.214  17.286  13.979
35274W        W96640  42.842   9.173  10.987
35275W        W96641  40.875   3.952  11.034
35276W        W96642  39.527  24.713  11.906
35277W        W96643  16.187  27.517   0.468
35278W        W96644  28.455   0.795  10.498
35279W        W96645  33.619   8.242  14.983
35280W        W96646  42.794   5.762  12.576
35281W        W96647  19.138   5.339   1.392
35282W        W96648   0.249  20.757   2.710
35283W        W96649  18.571  38.850   0.775
35284W        W96650   2.234  35.029   4.756
35285W        W96651   9.263   9.336  10.640
35286W        W96652  33.420  19.047  11.977
35287W        W96653  19.624  16.218  12.931
35288W        W96654   9.772   9.248   1.271
35289W        W96655   1.321   5.769  11.384
35290W        W96656  17.559  27.456  14.970
35291W        W96657  33.540   6.183   3.839
35292W        W96658  33.482  36.413  13.798
35293W        W96659  41.435  28.554   2.196
35294W        W96660  24.057  31.026  14.802
35295W        W96661  22.227  32.062   3.239
35296W        W96662  15.161  16.747   2.770
35297W        W96663  41.792  41.880  12.575
35298W        W96664  17.103  38.495  13.030
35299W        W96665   4.774   7.762  13.456
35300W        W96666   4.380  21.164  13.792
35301W        W96667  29.625  23.078   5.243
35302W        W96668  20.061   4.753   4.651
35303W        W96669  10.855  34.591   1.902
35304W        W96670   0.942  26.130  13.031
35305W        W96671  30.538  36.862   0.469
35306W        W96672   6.736  31.922  12.090
35307W        W96673  13.798  35.398   2.806
35308W        W96674  40.928  38.024   3.233
35309W        W96675  10.730  27.999   1.905
35310W        W96676  34.104  38.537  11.091
35311W        W96677  27.076  12.173  14.810
35312W        W96678  30.448   1.237   3.855
35313W        W96679  34.434  28.478  12.400
35314W        W96680  41.844   5.362  11.560
35315W        W96681  26.635  16.183  11.496
35316W        W96682  32.986  29.982  13.934
35317W        W96683  17.621  24.533  11.014
35318W        W96684   2.941  41.324  10.958
35319W        W96685  43.385  27.120  13.308
35320W        W96686  36.029  15.764   3.147
35321W        W96687   9.680  17.268  12.864
35322W        W96688   8.729  12.208   3.163
35323W        W96689  21.636  23.547   2.193
35324W        W96690  42.837  10.268  13.911
35325W        W96691  10.873  38.460   2.794
35326W        W96692   1.919  25.470   4.328
35327W        W96693   4.785  19.578   5.244
35328W        W96694  32.406   8.222   0.763
35329W        W96695  33.066   5.757   0.286
35330W        W96696  36.877   4.237   3.205
35331W        W96697   3.892  28.538   5.673
35332W        W96698  36.422   6.849  11.503
35333W        W96699  19.749  38.495   2.315
35334W        W96700  16.120  41.824   4.145
35335W        W96701  14.693   5.358   0.381
35336W        W96702  18.687  36.348  11.534
35337W        W96703   4.290  35.587   4.689
35338W        W96704   9.150  43.938  12.906
35339W        W96705  44.754  12.830   4.284
35340W        W96706   4.359  16.240  14.303
35341W        W96707  38.871  23.530  10.910
35342W        W96708  11.245  44.986   2.189
35343W        W96709   7.755  18.220   3.326
35344W        W96710  43.834  17.117  13.890
35345W        W96711  29.545  13.699   0.768
35346W        W96712   5.793  24.184  11.060
35347W        W96713  10.828  22.569  14.417
35348W        W96714  28.474  43.832  14.840
35349W        W96715  42.993  34.555   0.399
35350W        W96716  18.574  14.745  10.446
35351W        W96717   8.195   3.734   1.741
35352W        W96718   5.432   9.321   3.356
35353W        W96719  19.115  27.146  14.947
35354W        W96720   3.338  28.452   3.849
35355W        W96721   0.802  24.548   3.187
35356W        W96722  43.296   7.348   3.372
35357W        W96723  40.423  36.880   1.302
35358W        W96724  24.496  33.509   2.721
35359W        W96725   6.875  23.711   3.650
35360W        W96726   6.725  13.242   0.868
35361W        W96727  14.236  37.049   2.860
35362W        W96728  10.829  18.178  10.633
35363W        W96729  29.986   9.710  11.943
35364W        W96730  37.922  21.194  13.928
35365W        W96731  17.181  29.066  14.942
35366W        W96732  30.014  20.035  12.964
35367W        W96733   7.845  31.647  13.851
35368W        W96734  10.295  43.413   3.197
35369W        W96735  17.781  29.134   1.277
35370W        W96736  23.991  17.117  12.048
35371W        W96737  34.028  14.165  14.311
35372W        W96738   5.219   1.240   1.737
35373W        W96739  44.281   9.230   4.691
35374W        W96740  18.649  22.016   0.472
35375W        W96741  16.251   2.238   4.810
35376W        W96742  37.851  19.757   5.114
35377W        W96743  40.471  10.746   0.444
35378W        W96744  21.577  19.753   4.205
35379W        W96745  42.813  17.137  12.892
35380W        W96746  22.166   9.209   4.157
35381W        W96747  28.625  22.110  10.995
35382W        W96748  39.953  14.759  13.525
35383W        W96749  11.632   0.450  14.307
35384W        W96750  33.107  13.198   1.300
35385W        W96751  28.980  27.594  10.065
35386W        W96752  14.246  44.927  12.035
35387W        W96753  33.482  22.686  13.991
35388W        W96754  34.960  23.607   1.769
35389W        W96755   4.206  13.826  11.381
35390W        W96756  31.590  22.099  11.110
35391W        W96757   8.690  36.497  11.419
35392W        W96758  18.119  10.208   4.806
35393W        W96759  32.894   3.785  14.835
35394W        W96760  13.141  44.937   1.404
35395W        W96761  32.569  21.134   3.295
35396W        W96762   9.369  39.408   2.380
35397W        W96763   3.255  20.726  10.928
35398W        W96764  44.410  24.651   1.212
35399W        W96765  25.219  40.408   0.739
35400W        W96766  24.103  44.932  11.950
35401W        W96767  11.296  22.505   0.247
35402W        W96768  26.182  34.454   2.860
35403W        W96769  25.603  34.060   1.781
35404W        W96770  40.547  30.963   2.877
35405W        W96771  42.944  25.688  11.423
35406W        W96772  21.061   8.900   2.287
35407W        W96773  25.677   0.310   3.212
35408W        W96774  11.627  32.082   2.365
35409W        W96775  44.325   5.241  13.315
35410W        W96776  40.489  20.574  14.327
35411W        W96777  10.781  24.119   2.242
35412W        W96778   2.282  19.696  14.339
35413W        W96779  24.016  33.611  12.421
35414W        W96780  13.627  20.195   3.685
35415W        W96781  21.614   7.846   1.440
35416W        W96782   4.767  23.140   3.704
35417W        W96783  12.117   7.795   0.765
35418W        W96784   3.791  39.443  10.599
35419W        W96785  43.404  17.070   3.245
35420W        W96786  34.100  25.992   0.451
35421W        W96787  28.636   4.431   2.404
35422W        W96788  39.883  39.059  11.383
35423W        W96789  19.259  13.209   4.286
35424W        W96790  40.036  21.620  14.885
35425W        W96791  22.058   7.854  12.962
35426W        W96792   3.893  23.075  10.512
35427W        W96793   7.772  22.607  13.400
35428W        W96794  28.638  21.728  14.001
35429W        W96795   4.409  38.541   4.123
35430W        W96796  27.971   7.350  12.969
35431W        W96797  11.180  12.679  10.417
35432W        W96798  35.920  33.570   2.416
35433W        W96799  36.062  38.064  13.328
35434W        W96800  30.120   3.234  12.484
35435W        W96801  38.886  11.808  10.454
35436W        W96802  19.640  14.592  14.905
35437W        W96803   6.295   0.249   3.231
35438W        W96804  24.647   7.679  13.907
35439W        W96805  31.556  30.459   0.424
35440W        W96806   2.296  13.324   3.211
35441W        W96807  39.889  44.849   1.214
35442W        W96808  10.763   7.805   0.808
35443W        W96809   0.763  31.086  12.873
35444W        W96810  38.427  13.319   0.242
35445W        W96811   0.419  33.601  14.955
35446W        W96812  43.774  20.148   4.736
35447W        W96813  36.951  17.161   1.301
35448W        W96814  37.894  30.496  13.938
35449W        W96815  14.099  39.040   1.907
35450W        W96816  11.623  19.175  10.634
35451W        W96817  31.593  31.637   4.823
35452W        W96818  31.022  40.319   0.314
35453W        W96819  27.121  39.470  11.479
35454W        W96820   1.397   9.261  11.069
35455W        W96821  34.556  21.021  12.827
35456W        W96822  33.558  23.650  13.395
35457W        W96823   3.739  17.137  13.314
35458W        W96824  25.120  42.783   5.255
35459W        W96825  33.426  33.601   5.082
35460W        W96826  22.519  36.963  13.865
35461W        W96827  11.319  25.094  12.436
35462W        W96828  44.338  30.074   1.852
35463W        W96829  31.087  31.055  14.497
35464W        W96830  28.029  34.899   1.813
35465W        W96831  42.305   9.264   2.669
35466W        W96832  13.256  28.050   0.318
35467W        W96833  37.862  23.107   3.711
35468W        W96834  39.406   0.851   3.247
35469W        W96835  22.158  17.164   0.956
35470W        W96836  36.853  23.232  13.373
35471W        W96837  14.209   2.383  14.025
35472W        W96838   4.432  14.829   1.220
35473W        W96839   4.908  38.421   1.869
35474W        W96840   2.440  14.241  12.080
35475W        W96841  24.485  30.128   3.641
35476W        W96842  24.024   8.825   2.779
35477W        W96843  33.479  27.138  11.433
35478W        W96844  19.617  37.038  10.071
35479W        W96845  10.733   0.947   4.207
35480W        W96846  36.417  31.995  12.925
35481W        W96847  43.446   0.892   4.184
35482W        W96848  43.847  34.418  14.453
35483W        W96849   8.861  29.438  11.933
35484W        W96850   7.267  14.204   2.882
35485W        W96851  35.077  30.497  12.383
35486W        W96852  10.761   4.924   1.828
35487W        W96853  19.266   3.885   4.166
35488W        W96854  25.546  14.593  10.951
35489W        W96855  25.073  10.365   2.407
35490W        W96856  23.214  15.156  10.957
35491W        W96857  30.652   9.884  12.825
35492W        W96858   6.226  27.151   3.859
35493W        W96859  36.914   4.809  11.044
35494W        W96860  18.081  27.647  14.900
35495W        W96861  40.319  13.620  14.468
35496W        W96862  41.911  21.069   0.799
35497W        W96863  25.162   6.825   3.387
35498W        W96864   6.419  35.528   3.855
35499W        W96865  36.848  17.240   4.783
35500W        W96866  42.825  39.933  11.885
35501W        W96867  38.824  33.065  13.425
35502W        W96868  18.108  35.598   3.830
35503W        W96869  23.081  13.310  13.316
35504W        W96870  15.203  21.035   1.844
35505W        W96871  33.566  18.274   1.374
35506W        W96872  30.102  19.086  11.055
35507W        W96873   7.763  23.642  12.558
35508W        W96874   9.680  33.590   1.331
35509W        W96875  43.786  43.396  12.555
35510W        W96876  37.443  15.258   4.121
35511W        W96877   8.163  27.032  12.483
35512W        W96878  32.078   2.767  13.445
35513W        W96879  43.874  16.741  14.858
35514W        W96880  22.538  18.771  12.492
35515W        W96881   7.866  22.227  11.950
35516W        W96882  22.166   3.942  12.431
35517W        W96883  43.419  21.582   4.255
35518W        W96884  40.907   6.337   4.633
35519W        W96885  24.697  16.298   4.123
35520W        W96886  43.898   4.423   3.705
35521W        W96887  25.698  19.704   5.139
35522W        W96888  12.243  40.359  12.972
35523W        W96889  29.938  16.141   0.869
35524W        W96890   4.786  38.950   0.759
35525W        W96891  23.538  17.633  14.314
35526W        W96892  32.970  36.954   0.908
35527W        W96893  33.932  28.646   3.739
35528W        W96894  24.143  39.477   2.846
35529W        W96895  11.265  36.354   2.272
35530W        W96896  38.946   4.234   0.377
35531W        W96897  44.425  24.702  10.908
35532W        W96898  18.058  44.984   3.387
35533W        W96899  32.580   7.820   1.840
35534W        W96900  40.931  38.956  12.517
35535W        W96901  35.923  24.031   0.859
35536W        W96902  26.114  37.001  11.403
35537W        W96903  25.615  35.474  10.550
35538W        W96904  22.706  28.679  13.927
35539W        W96905  43.996   0.257  11.993
35540W        W96906   1.952  35.372  12.421
35541W        W96907  35.407  35.964  14.009
35542W        W96908   7.678  22.638   4.228
35543W        W96909  12.261   9.275   4.733
35544W        W96910  16.750  41.854   0.925
35545W        W96911  33.111  43.356  14.985
35546W        W96912  38.053  13.313   2.675
35547W        W96913   8.227  19.577   2.694
35548W        W96914  31.059  38.440  15.000
35549W        W96915   8.290  11.772   4.750
35550W        W96916   4.752  34.539   4.753
35551W        W96917  20.765  41.511   1.268
35552W        W96918   1.433  14.290  12.469
35553W        W96919   2.955  32.452  12.044
35554W        W96920  43.339  24.623   0.408
35555W        W96921  10.878  13.699  11.026
35556W        W96922  32.526  29.149  12.843
35557W        W96923  18.277  30.062   2.388
35558W        W96924   3.309  31.074  13.920
35559W        W96925  21.553  11.208   0.388
35560W        W96926  25.579  26.486  14.463
35561W        W96927  25.598   3.254  12.840
35562W        W96928  40.026  18.290  14.932
35563W        W96929   3.727   6.321  10.904
35564W        W96930  42.426   0.349   3.151
35565W        W96931  26.072  27.597   1.710
35566W        W96932  17.580   3.244   4.170
35567W        W96933  44.956   0.268  12.994
35568W        W96934  22.045   1.881   2.718
35569W        W96935  25.184  12.263  11.466
35570W        W96936  13.715   7.837   3.361
35571W        W96937  14.729  27.997   1.246
35572W        W96938   3.456  14.217   9.977
35573W        W96939  29.133  28.128   0.335
35574W        W96940  10.159  26.072  12.002
35575W        W96941  10.272  20.161   3.833
35576W        W96942  29.492  14.194  13.424
35577W        W96943   3.780   6.361  14.434
35578W        W96944   9.361  16.089  12.071
35579W        W96945  34.440   8.199  11.124
35580W        W96946  13.722  32.418   3.293
35581W        W96947  34.993  41.935  12.928
35582W        W96948  32.531  39.042  14.013
35583W        W96949  28.617  27.194   4.732
35584W        W96950  36.524  39.941   5.657
35585W        W96951   0.854  30.437  14.512
35586W        W96952  12.308  22.711   4.626
35587W        W96953  40.361  31.608  11.586
35588W        W96954  24.547   5.243  12.545
35589W        W96955   6.413  20.163  12.416
35590W        W96956   9.784  29.655  11.125
35591W        W96957  35.093   3.460   1.694
35592W        W96958  16.276   1.342  13.515
35593W        W96959   4.886  31.027  11.876
35594W        W96960  34.900  35.971   3.656
35595W        W96961  40.307  34.600  11.530
35596W        W96962  23.708  28.941  12.081
35597W        W96963  22.521  19.591  12.925
35598W        W96964  30.094  35.960  12.364
35599W        W96965   2.318   8.899   1.268
35600W        W96966  15.608  44.327  10.471
35601W        W96967  38.017  19.608  12.434
35602W        W96968   5.759  41.038  13.831
35603W        W96969  24.711  43.818  13.937
35604W        W96970  44.990  18.212  13.826
35605W        W96971   4.357  35.362   4.189
35606W        W96972  36.068  35.391   0.333
35607W        W96973  22.109  26.079   4.799
35608W        W96974  35.892  17.150  14.406
35609W        W96975  18.108  25.069  12.424
35610W        W96976  22.673  40.372   2.886
35611W        W96977  11.340  26.200  12.947
35612W        W96978  28.036  13.285  13.447
35613W        W96979  27.109  13.625   3.671
35614W        W96980   7.743  26.562   2.830
35615W        W96981   7.801  36.022  14.807
35616W        W96982  27.180   7.779  14.475
35617W        W96983  21.549  11.300  10.606
35618W        W96984   8.681   5.890   1.733
35619W        W96985  21.056  11.798  14.502
35620W        W96986  30.120   7.271   1.232
35621W        W96987  25.697   7.201  10.500
35622W        W96988  28.572   6.417   2.820
35623W        W96989   4.855  21.661  13.533
35624W        W96990  13.716   6.902  14.327
35625W        W96991  30.433   2.963   1.819
35626W        W96992   5.759  44.503   2.826
35627W        W96993   8.893  33.618   4.789
35628W        W96994  11.666  34.385  12.823
35629W        W96995  35.998  10.280   4.194
35630W        W96996  14.774  41.537  12.361
35631W        W96997   4.943  27.017  10.510
35632W        W96998  40.025  21.200  11.462
35633W        W96999  35.435   3.846  11.094
35634W        W97000  22.740  33.504  13.991
35635W        W97001   3.840  36.000   5.167
35636W        W97002  23.552  40.049  11.059
35637W        W97003  38.058  15.712   4.131
35638W        W97004  44.346  42.013  10.639
35639W        W97005   5.385   2.771  14.411
35640W        W97006  23.109  13.784  12.844
35641W        W97007  40.025  14.302   4.286
35642W        W97008  11.345  33.940   4.157
35643W        W97009  16.266  43.851   0.460
35644W        W97010  34.431   7.303   1.302
35645W        W97011   7.856   5.837   3.843
35646W        W97012  36.088  23.700   0.434
35647W        W97013  16.073  19.057  11.492
35648W        W97014  26.457   5.689   3.731
35649W        W97015  23.578   3.381  14.993
35650W        W97016  37.432  35.889  14.952
35651W        W97017  11.279  34.989   4.704
35652W        W97018  29.059   2.429   0.412
35653W        W97019  35.499  23.106  13.424
35654W        W97020  40.308  20.107   3.801
35655W        W97021  37.897  24.509   2.673
35656W        W97022  20.692  12.698  10.454
35657W        W97023  36.424  37.937  14.766
35658W        W97024   2.779   6.415   4.691
35659W        W97025  43.859   8.713  12.920
35660W        W97026  44.829  35.872   0.483
35661W        W97027  43.492  12.361  12.514
35662W        W97028  27.960   7.226   4.678
35663W        W97029  27.531  33.581   2.804
35664W        W97030  10.378  34.080   2.694
35665W        W97031   9.388  16.721  10.977
35666W        W97032  34.411   7.835   1.904
35667W        W97033   1.359  32.580  10.157
35668W        W97034  39.413  12.643   4.796
35669W        W97035  37.081  42.951  12.411
35670W        W97036  14.199  43.389   1.237
35671W        W97037  40.960  15.732   0.864
35672W        W97038  34.985  14.284  11.014
35673W        W97039  38.849  12.647   1.262
35674W        W97040  23.501  25.640   1.357
35675W        W97041  33.470   2.958   2.407
35676W        W97042   1.953  21.642  12.841
35677W        W97043   8.686   5.229   2.784
35678W        W97044  36.888  24.562  13.506
35679W        W97045  17.566  24.026  13.360
35680W        W97046  28.013  33.469  14.454
35681W        W97047  27.670  35.501  14.835
35682W        W97048  42.923  13.722  12.391
35683W        W97049  43.425   4.318  10.603
35684W        W97050   8.871   7.712  11.910
35685W        W97051  21.046  34.565  14.380
35686W        W97052  35.564   1.917   2.856
35687W        W97053   3.377  25.645   2.777
35688W        W97054  14.292   4.835  10.554
35689W        W97055  37.355  26.664   4.786
35690W        W97056  16.669  27.592  12.550
35691W        W97057  33.995  23.172   4.333
35692W        W97058  15.764   0.892   1.927
35693W        W97059  21.212  26.568   1.343
35694W        W97060  17.757  23.190  11.962
35695W        W97061  13.181   0.883   5.083
35696W        W97062  29.532  23.190  12.465
35697W        W97063  44.857  42.483  10.592
35698W        W97064  12.850  26.141   4.721
35699W        W97065   1.330  35.600   1.413
35700W        W97066  35.378  41.953  12.935
35701W        W97067  25.530  15.083  13.930
35702W        W97068  28.010  29.553   1.227
35703W        W97069  29.015  42.957   1.415
35704W        W97070  39.524  30.496  10.523
35705W        W97071  19.763  37.360  13.462
35706W        W97072  25.534  13.621   0.872
35707W        W97073  37.482  33.107  13.009
35708W        W97074  21.236  31.089  14.939
35709W        W97075  26.628   6.838   2.849
35710W        W97076   9.217  26.046   0.372
35711W        W97077  10.224  11.819  10.548
35712W        W97078  13.614   2.749  13.880
35713W        W97079  42.280   3.761  11.899
35714W        W97080  19.577   1.369  12.547
35715W        W97081   1.769  11.253   3.304
35716W        W97082  17.084  14.097  14.289
35717W        W97083  15.599  27.464  13.883
35718W        W97084  22.116   5.351   2.192
35719W        W97085   8.393  28.990  13.309
35720W        W97086  17.221  15.289   1.426
35721W        W97087  15.179  31.465  13.920
35722W        W97088  17.082  34.477   3.328
35723W        W97089  12.835  28.674   3.651
35724W        W97090   0.398  34.949  11.419
35725W        W97091  21.525  43.281  14.926
35726W        W97092  18.781   8.749   3.276
35727W        W97093  41.003   0.796  11.887
35728W        W97094   5.812  18.599   2.244
35729W        W97095   5.371  25.962   3.271
35730W        W97096  30.417  36.540  14.947
35731W        W97097  40.500  15.656  13.528
35732W        W97098  16.218  21.139   4.225
35733W        W97099  33.882  19.547   0.851
35734W        W97100  40.822   0.272   1.398
35735W        W97101  36.081  41.380  14.481
35736W        W97102   5.355   7.846   5.161
35737W        W97103  22.231   5.192  14.881
35738W        W97104  33.923  32.573  14.916
35739W        W97105  18.672   9.729   0.398
35740W        W97106  31.455   0.873   3.198
35741W        W97107  39.948  24.611   1.896
35742W        W97108  26.161  41.033   1.735
35743W        W97109  17.198   0.909  12.909
35744W        W97110  14.218   1.936   2.742
35745W        W97111  35.418  16.079  13.411
35746W        W97112  35.936  11.299  11.510
35747W        W97113  41.912  13.607  14.890
35748W        W97114  33.545   7.746   1.218
35749W        W97115  26.522  32.954  13.453
35750W        W97116   5.311  25.975  14.474
35751W        W97117   0.453  28.931   2.250
35752W        W97118  17.579   8.280  14.991
35753W        W97119   4.918  43.416   4.335
35754W        W97120  29.138  15.688  10.499
35755W        W97121  36.914  14.194   1.913
35756W        W97122   0.265  14.270  13.926
35757W        W97123  13.286   2.856  13.056
35758W        W97124  13.206  14.763   3.211
35759W        W97125   0.894  20.190   4.828
35760W        W97126   4.723  11.162   0.857
35761W        W97127  40.349  18.553   4.689
35762W        W97128  25.088  43.295   2.868
35763W        W97129  16.105  40.507   4.686
35764W        W97130  28.054   3.876   1.832
35765W        W97131  41.458   6.272   4.641
35766W        W97132  18.770  18.635   2.331
35767W        W97133   2.926   4.424  11.063
35768W        W97134  25.549  15.590   4.196
35769W        W97135  18.664   9.817   3.178
35770W        W97136  22.140  41.956   1.784
35771W        W97137  13.713   4.298  12.362
35772W        W97138  26.686   8.315   0.257
35773W        W97139  21.165   7.208   1.935
35774W        W97140  37.045  24.639   1.332
35775W        W97141  21.682  43.332  13.386
35776W        W97142   2.467  17.569   1.749
35777W        W97143   4.857  23.494  10.475
35778W        W97144   4.254   5.286   2.866
35779W        W97145  19.150   7.172   0.306
35780W        W97146  33.048  20.137   3.192
35781W        W97147  21.724   0.423  14.448
35782W        W97148  10.676   0.979  12.503
35783W        W97149  17.668  23.192  10.477
35784W        W97150  23.559  24.610  10.478
35785W        W97151  33.604  29.606   2.326
35786W        W97152  43.488  26.206   4.303
35787W        W97153  20.607  27.067  12.517
35788W        W97154   6.303  23.208  13.428
35789W        W97155  36.890  38.010   0.428
35790W        W97156   7.356  10.237  13.975
35791W        W97157  13.346   2.837   1.824
35792W        W97158  24.106  15.651  10.074
35793W        W97159   5.426  21.537   3.755
35794W        W97160  44.884  32.498  13.326
35795W        W97161  34.373  15.754  10.900
35796W        W97162  37.426   0.855  10.930
35797W        W97163   0.478  18.680   1.325
35798W        W97164  18.626  35.363   4.604
35799W        W97165   4.444  11.367   2.752
35800W        W97166   1.376  22.081   2.386
35801W        W97167  20.689   7.313   3.860
35802W        W97168   5.911  41.960   3.826
35803W        W97169  27.513  27.173  14.864
35804W        W97170  44.434   7.331  13.381
35805W        W97171  19.728   4.339  10.520
35806W        W97172  26.168  43.881  10.420
35807W        W97173  38.054  42.930   0.311
35808W        W97174  36.917  15.814  10.902
35809W        W97175  11.711  27.990  13.010
35810W        W97176   1.483  41.833  12.381
35811W        W97177  32.577  13.672   2.893
35812W        W97178  14.644  12.836  11.885
35813W        W97179  18.088  43.276  13.903
35814W        W97180  42.981  13.700  13.860
35815W        W97181  22.197   2.424  14.356
35816W        W97182  10.677   4.834  10.421
35817W        W97183   6.197  16.595   5.114
35818W        W97184   9.763  37.978   1.362
35819W        W97185   1.286  33.560   2.307
35820W        W97186  32.030  37.938  11.968
35821W        W97187   9.211  34.962   0.274
35822W        W97188  43.379  32.062  12.372
35823W        W97189  29.174   2.243   3.182
35824W        W97190   8.711  29.605   1.449
35825W        W97191   1.872  27.993   3.832
35826W        W97192  33.893  28.015  11.896
35827W        W97193  39.949  23.670   2.821
35828W        W97194  43.021  42.460  10.550
35829W        W97195  30.561  35.865   1.351
35830W        W97196  12.794  24.684   3.685
35831W        W97197  21.172  21.668   3.286
35832W        W97198  41.942  29.922   4.189
35833W        W97199  37.467   4.402  12.369
35834W        W97200  37.348  18.273   0.338
35835W        W97201  40.956  19.698   4.292
35836W        W97202  23.508  16.230   1.417
35837W        W97203  35.062  15.725   4.822
35838W        W97204  13.326  18.651  11.925
35839W        W97205  41.330  26.985   0.272
35840W        W97206  10.223  35.374  11.892
35841W        W97207   4.227  18.651  13.427
35842W        W97208  28.511  17.130   3.664
35843W        W97209   4.408  12.132   3.662
35844W        W97210  17.212  18.143   1.283
35845W        W97211  43.477  44.332   0.730
35846W        W97212  17.119  24.644  14.406
35847W        W97213  16.609  13.634  10.407
35848W        W97214   0.875  28.982  14.470
35849W        W97215  22.685   5.770  11.012
35850W        W97216   1.254  29.489   3.642
35851W        W97217   2.808  23.073  13.366
35852W        W97218  41.043  15.249   1.239
35853W        W97219  33.895  28.119  12.927
35854W        W97220  18.544  41.906   2.830
35855W        W97221  19.101  23.730   4.114
35856W        W97222  44.405  41.349  12.469
35857W        W97223  14.135  26.993   2.225
35858W        W97224  18.753  39.505  11.566
35859W        W97225  11.134  30.044  13.388
35860W        W97226   8.780  11.359  10.538
35861W        W97227  38.399  28.167  12.446
35862W        W97228  41.030  39.353  14.280
35863W        W97229  38.434   4.749  13.838
35864W        W97230   1.889  33.431  12.898
35865W        W97231  30.447  25.646   2.665
35866W        W97232  15.682  22.646   0.409
35867W        W97233   1.266  36.020   0.727
35868W        W97234  20.239  31.504   0.305
35869W        W97235  20.136   7.331  12.539
35870W        W97236  40.973  40.371  12.475
35871W        W97237  41.477   2.955   1.302
35872W        W97238  29.495  19.561   2.311
35873W        W97239  44.381  37.408  13.360
35874W        W97240  37.060  16.688   0.748
35875W        W97241  27.654   4.415   2.826
35876W        W97242  26.662  21.604  14.810
35877W        W97243  42.951  26.661  10.640
35878W        W97244  26.146  19.242   1.771
35879W        W97245  39.941  39.808   3.268
35880W        W97246  13.782   0.913   2.387
35881W        W97247   5.785  12.711   9.967
35882W        W97248  32.557  28.170   1.751
35883W        W97249   4.922  32.077  12.843
35884W        W97250  22.130  28.660   2.182
35885W        W97251   5.352  10.140   0.918
35886W        W97252  35.499  28.973   3.257
35887W        W97253   7.340  25.549  11.121
35888W        W97254  12.227  15.615  10.631
35889W        W97255  15.327  37.984   1.352
35890W        W97256  37.907   2.441  11.467
35891W        W97257  22.569  19.642  13.983
35892W        W97258  26.597  21.179  13.908
35893W        W97259   3.225  29.938   4.206
35894W        W97260  29.592  12.332   4.131
35895W        W97261  38.349  12.766  14.346
35896W        W97262   6.831   2.317   0.330
35897W        W97263   3.823   0.458   2.306
35898W        W97264  26.646  14.275   3.831
35899W        W97265   1.735   5.210  14.798
35900W        W97266  16.276   0.947  12.393
35901W        W97267  17.802  43.418   3.813
35902W        W97268  15.674  34.925  12.510
35903W        W97269  20.601  26.010   4.198
35904W        W97270   1.859  39.987  13.535
35905W        W97271   7.769  25.036   9.942
35906W        W97272  13.203  21.697  14.505
35907W        W97273  23.124   7.305  14.949
35908W        W97274   3.898  31.520  12.476
35909W        W97275  23.565  25.684  11.894
35910W        W97276  20.565  24.720  13.889
35911W        W97277   6.787  11.145   1.774
35912W        W97278  38.926  13.754   2.723
35913W        W97279  32.020  26.681  14.771
35914W        W97280  10.792  29.996   0.815
35915W        W97281  27.514  11.194  13.038
35916W        W97282  41.302  20.044   3.736
35917W        W97283  43.445  19.172   3.342
35918W        W97284  15.132  31.925   4.644
35919W        W97285  14.663  15.689   2.707
35920W        W97286  19.106  44.755   2.707
35921W        W97287   3.319   6.728  11.565
35922W        W97288  12.272  12.228  10.930
35923W        W97289  30.014  44.882   2.763
35924W        W97290  18.267  38.037   4.278
35925W        W97291  34.969   4.700  11.926
35926W        W97292  16.314  33.088  12.991
35927W        W97293   9.767  30.064  14.003
35928W        W97294  34.977   4.817   4.638
35929W        W97295   9.247  12.749  12.438
35930W        W97296  12.839  38.920  13.487
35931W        W97297  18.163  44.381   1.448
35932W        W97298  37.406  25.981  13.830
35933W        W97299  44.258   3.779  14.425
35934W        W97300  37.446  15.796   9.974
35935W        W97301   5.743  21.562  10.471
35936W        W97302  12.334   3.305  10.987
35937W        W97303  13.826  11.296  12.398
35938W        W97304  30.616  33.130  12.887
35939W        W97305  34.539  35.604  10.472
35940W        W97306  19.713  11.632   1.221
35941W        W97307  38.415  40.032   3.211
35942W        W97308  40.445  16.289   1.337
35943W        W97309  42.826  38.983  12.429
35944W        W97310  15.101   5.892   4.352
35945W        W97311  10.314  25.039   1.782
35946W        W97312  16.741  30.947  14.504
35947W        W97313  37.904  29.166   3.365
35948W        W97314  26.669  41.306  12.440
35949W        W97315  21.157  28.462   4.314
35950W        W97316  24.054  11.235   0.750
35951W        W97317  25.670  43.841   0.963
35952W        W97318  34.419  14.681   0.343
35953W        W97319   8.827  21.063  12.078
35954W        W97320  29.033  41.410  13.908
35955W        W97321  37.886  17.119  10.643
35956W        W97322  36.539  41.475  10.031
35957W        W97323  24.993  17.087   1.891
35958W        W97324  19.260  36.920   3.152
35959W        W97325   5.205  39.008  11.117
35960W        W97326  35.444   1.771  10.922
35961W        W97327  30.037   7.330  11.496
35962W        W97328  33.997  31.100   0.920
35963W        W97329  21.211  17.182  12.924
35964W        W97330  10.831  38.892  12.489
35965W        W97331  30.130   8.830  13.529
35966W        W97332  36.927  24.000   4.157
35967W        W97333  37.561  20.066   3.202
35968W        W97334   6.322  16.603  12.519
35969W        W97335  16.258  44.319  11.981
35970W        W97336  35.544  17.696   1.356
35971W        W97337  21.240  16.630   4.287
35972W        W97338  32.453  35.394   2.274
35973W        W97339  44.997   6.302  12.360
35974W        W97340  36.445   6.876   0.322
35975W        W97341  21.065   0.974   3.294
35976W        W97342   4.779  22.521  11.396
35977W        W97343   4.851  13.633  11.970
35978W        W97344  16.724  20.642   3.835
35979W        W97345  34.939  30.158   1.925
35980W        W97346  24.168  16.152  11.422
35981W        W97347  12.687  18.258  10.481
35982W        W97348  33.407  13.252  10.094
35983W        W97349  10.320  19.179   4.264
35984W        W97350   4.813  31.512  11.403
35985W        W97351  19.551  15.094   3.766
35986W        W97352  37.877  25.103   0.466
35987W        W97353   3.830   5.743   2.384
35988W        W97354  24.663  17.742  14.759
35989W        W97355  16.777  15.793   3.680
35990W        W97356  28.973  20.531   2.362
35991W        W97357  21.597  24.048   0.272
35992W        W97358  39.402  31.076  12.972
35993W        W97359  40.535   6.701  10.452
35994W        W97360  42.999   0.258   0.318
35995W        W97361  44.810  19.619   4.624
35996W        W97362  22.597   4.762   4.827
35997W        W97363   6.681  32.959  13.802
35998W        W97364   7.850  39.398   2.673
35999W        W97365  10.737   1.302   2.383
36000W        W97366  13.816  33.451  12.442
36001W        W97367  18.736  43.490   1.755
36002W        W97368  27.189  33.997  12.824
36003W        W97369  17.094   4.718   3.678
36004W        W97370   4.292   5.202  13.546
36005W        W97371   8.249   1.434   4.168
36006W        W97372  38.889  41.492   3.202
36007W        W97373  27.103  25.498  11.487
36008W        W97374  13.347   5.235  13.856
36009W        W97375  10.723  24.515   0.352
36010W        W97376  13.762  31.580  11.596
36011W        W97377  22.740  32.143   0.242
36012W        W97378  32.956   8.351   2.249
36013W        W97379   4.750  17.677   2.278
36014W        W97380  19.655   4.711   0.783
36015W        W97381  33.418  11.724   4.805
36016W        W97382   9.198  13.775   0.475
36017W        W97383  10.382   8.340   1.694
36018W        W97384  27.125  34.088  12.357
36019W        W97385  28.008  42.945   4.213
36020W        W97386  13.832  19.697   2.727
36021W        W97387  25.544  16.585  11.428
36022W        W97388  11.794  18.074   1.813
36023W        W97389  32.395  15.624   3.351
36024W        W97390   7.904   8.771  14.332
36025W        W97391  44.008  44.796  11.035
36026W        W97392  10.849   4.382  14.951
36027W        W97393  22.703   8.323  12.373
36028W        W97394  38.019  23.141  12.449
36029W        W97395  33.024  15.286  11.453
36030W        W97396  12.790  36.082  12.062
36031W        W97397  34.416  44.860  10.919
36032W        W97398  12.357  42.810   2.779
36033W        W97399  21.251   1.269   3.344
36034W        W97400   7.267  28.031  14.023
36035W        W97401   6.921  18.211  12.996
36036W        W97402  43.285   6.396  13.400
36037W        W97403  22.065  16.292  14.365
36038W        W97404  42.428  11.294   4.220
36039W        W97405  42.896   1.961  13.490
36040W        W97406  32.626  24.652  12.458
36041W        W97407  14.187   8.161   3.639
36042W        W97408   4.328  26.141   2.357
36043W        W97409  31.562   7.212  12.432
36044W        W97410   5.761  40.331  13.834
36045W        W97411  10.214  37.046  13.488
36046W        W97412  23.733   2.285  14.291
36047W        W97413   4.288  34.470  12.494
36048W        W97414  18.627  25.677  13.944
36049W        W97415  28.124  42.525   1.430
36050W        W97416  13.200   2.392  12.486
36051W        W97417  17.197   1.277  14.473
36052W        W97418  40.922  16.085  10.968
36053W        W97419  18.078  38.870   4.831
36054W        W97420  42.507   7.773  12.086
36055W        W97421  42.813  42.455   3.256
36056W        W97422   8.673  42.031   1.838
36057W        W97423  35.001   3.287   1.400
36058W        W97424  14.244  29.014  11.116
36059W        W97425  22.707  15.612   0.844
36060W        W97426  10.773  21.752   3.189
36061W        W97427   9.345  11.166   1.342
36062W        W97428   5.325   3.924   0.851
36063W        W97429  33.522  15.780  11.564
36064W        W97430  41.534   8.754  12.060
36065W        W97431   8.765  24.074  12.882
36066W        W97432  30.154  37.525  13.414
36067W        W97433   0.326  24.552   3.723
36068W        W97434  39.373  13.337  10.419
36069W        W97435  32.436  34.874   1.798
36070W        W97436  37.062  16.654  14.511
36071W        W97437  17.733   6.295   0.371
36072W        W97438   5.231  21.176  10.454
36073W        W97439  43.380  14.624   3.670
36074W        W97440   9.760   1.356   3.830
36075W        W97441  10.324  16.072   3.375
36076W        W97442  38.475  28.625   3.798
36077W        W97443   5.277  38.381  13.907
36078W        W97444  27.651  15.119  11.074
36079W        W97445   1.851  34.868   1.276
36080W        W97446  37.551  43.497   0.916
36081W        W97447  43.962  41.862  11.556
36082W        W97448   5.760  19.176   1.796
36083W        W97449  14.182  32.032  11.546
36084W        W97450  33.487  14.327  10.407
36085W        W97451  44.787  18.609  13.471
36086W        W97452   1.261  32.037  10.407
36087W        W97453  37.536  35.934   1.835
36088W        W97454  16.231  40.436  11.954
36089W        W97455  20.091   1.365   1.373
36090W        W97456  23.629  19.716  13.850
36091W        W97457   3.381  42.336   3.193
36092W        W97458  24.716  39.487   3.660
36093W        W97459   5.294  24.598   0.941
36094W        W97460  39.860  23.016   4.751
36095W        W97461  37.454  24.168   1.862
36096W        W97462  29.920  14.096  13.489
36097W        W97463  18.252  39.809   2.752
36098W        W97464  15.290   4.272   2.417
36099W        W97465   3.383  36.449   2.260
36100W        W97466   6.252  22.726  12.392
36101W        W97467  35.434  41.514   5.565
36102W        W97468  30.599  43.466   3.660
36103W        W97469  36.352  21.144   2.677
36104W        W97470   6.202  35.937   9.952
36105W        W97471  31.148  12.850   3.650
36106W        W97472  13.720  14.139  11.507
36107W        W97473  38.352   9.153  14.377
36108W        W97474  43.288  24.006   3.766
36109W        W97475  14.667  12.670  14.876
36110W        W97476  20.267  25.624  12.897
36111W        W97477  18.168  23.720   4.325
36112W        W97478  20.211  23.195   1.229
36113W        W97479  44.853  35.931   0.881
36114W        W97480  15.638  10.784   1.778
36115W        W97481  19.052  35.561   4.737
36116W        W97482  22.108   4.737   1.281
36117W        W97483  21.204  40.410   4.813
36118W        W97484   9.785  37.872  12.503
36119W        W97485   0.932   0.429   0.835
36120W        W97486   1.417  36.522   4.352
36121W        W97487  41.931   6.687   1.824
36122W        W97488  41.993  44.451  11.858
36123W        W97489  30.015  34.600   3.303
36124W        W97490  19.195   9.848   3.293
36125W        W97491  34.073  20.611  10.112
36126W        W97492  36.992  16.607   4.627
36127W        W97493  20.641  42.838  10.641
36128W        W97494  14.617  38.046   4.622
36129W        W97495  44.485  14.655  13.909
36130W        W97496  12.154  21.114  11.924
36131W        W97497  15.816   8.198   2.833
36132W        W97498  10.635  28.040   2.337
36133W        W97499  37.426   0.986   4.282
36134W        W97500  18.058  24.204  12.501
36135W        W97501  40.476   2.327   0.935
36136W        W97502  11.201  41.347  14.953
36137W        W97503   3.343  25.684  14.967
36138W        W97504  27.995  34.066   1.920
36139W        W97505  32.990  20.101  11.605
36140W        W97506  28.046   9.819  13.909
36141W        W97507  33.889  26.142   4.705
36142W        W97508  21.543  22.513  11.408
36143W        W97509  13.646  12.811  12.886
36144W        W97510   2.445  33.921  13.960
36145W        W97511   1.795   1.373   4.737
36146W        W97512  38.561  36.002   1.384
36147W        W97513  15.233  21.721  10.474
36148W        W97514  29.606  24.125  13.025
36149W        W97515  30.559  10.676  10.939
36150W        W97516   0.889   2.442   4.622
36151W        W97517  38.906  39.953   0.946
36152W        W97518   0.449  30.124  12.359
36153W        W97519  32.007  11.710   0.286
36154W        W97520   2.338  28.995   2.259
36155W        W97521  23.501  36.578   0.396
36156W        W97522  24.029  27.964  10.930
36157W        W97523  35.003   9.744   3.385
36158W        W97524  12.250  32.491   0.888
36159W        W97525  28.944  33.005   1.883
36160W        W97526  12.709  40.050  14.966
36161W        W97527  11.173  24.072   2.794
36162W        W97528  19.714  19.242   1.320
36163W        W97529   1.459  44.907   4.627
36164W        W97530  23.641   0.909   4.294
36165W        W97531  17.198  33.892  12.575
36166W        W97532  32.512  19.667   4.776
36167W        W97533  27.064  17.745   2.291
36168W        W97534   2.453  44.333  14.298
36169W        W97535  23.227  15.289   0.305
36170W        W97536  20.075   4.730  10.003
36171W        W97537  33.919  14.606  14.908
36172W        W97538  19.156  16.610   4.163
36173W        W97539   4.421  38.451   3.706
36174W        W97540  14.196  30.945   2.786
36175W        W97541  36.366  10.338   2.276
36176W        W97542  12.123   9.333   3.807
36177W        W97543  28.113  37.986  11.384
36178W        W97544  15.129  22.109   2.758
36179W        W97545  35.080  10.236  14.490
36180W        W97546  10.339  37.407   1.350
36181W        W97547  10.377  19.583  12.529
36182W        W97548  18.579  14.237  12.889
36183W        W97549   7.871  28.990   2.887
36184W        W97550  44.295  42.029   5.132
36185W        W97551  23.064   0.443   2.186
36186W        W97552   6.697  38.917   1.223
36187W        W97553  32.572  15.099   3.375
36188W        W97554  29.932  35.449   4.703
36189W        W97555  40.419  19.724   1.431
36190W        W97556  42.987  25.019  13.999
36191W        W97557  23.660  38.836   2.190
36192W        W97558  20.168  26.123   0.802
36193W        W97559  14.263  19.730  12.991
36194W        W97560  14.229  41.293   0.412
36195W        W97561  42.367  39.022  10.593
36196W        W97562  14.717  38.371  12.934
36197W        W97563  10.234  14.246   5.284
36198W        W97564   2.856   2.308   1.695
36199W        W97565  21.138  38.432  13.532
36200W        W97566  18.647  20.748   0.281
36201W        W97567  20.230  30.086  14.853
36202W        W97568  19.599  10.189   4.192
36203W        W97569  28.036  17.601  13.041
36204W        W97570  26.178  20.722   4.721
36205W        W97571  35.475  19.224  10.633
36206W        W97572   9.349   5.235  10.584
36207W        W97573  16.683  17.700  11.537
36208W        W97574  25.017  21.642  13.851
36209W        W97575   7.410  17.749   1.899
36210W        W97576   6.417   6.297  13.331
36211W        W97577  31.130  20.099  12.551
36212W        W97578  20.767  25.534  13.849
36213W        W97579  22.679   0.935   2.878
36214W        W97580  42.942   8.804  14.947
36215W        W97581  36.354  31.644   3.756
36216W        W97582  21.168  39.953   2.806
36217W        W97583  42.513  43.462   0.728
36218W        W97584  18.661  27.451  12.370
36219W        W97585  37.024   6.709   1.707
36220W        W97586  34.612  34.023  12.382
36221W        W97587  34.919   6.764  12.909
36222W        W97588  41.353  16.185  12.891
36223W        W97589  24.164  25.655   0.821
36224W        W97590  20.040  26.476   2.374
36225W        W97591  36.430   9.195   4.632
36226W        W97592  10.278  34.927   4.182
36227W        W97593  22.660  42.790   1.442
36228W        W97594   0.314  38.018  11.403
36229W        W97595  36.947  15.623  10.418
36230W        W97596  24.554  39.450   0.265
36231W        W97597  11.365  28.100  11.935
36232W        W97598  17.251   9.346  14.504
36233W        W97599  22.185  43.505   3.276
36234W        W97600  29.155  15.099   0.464
36235W        W97601  38.380  21.578  14.845
36236W        W97602  29.441  35.077   2.794
36237W        W97603  28.443  17.641   2.734
36238W        W97604  33.947   1.813   3.789
36239W        W97605  20.157  29.975  11.946
36240W        W97606  41.358  44.828  14.363
36241W        W97607  25.576   8.249   3.333
36242W        W97608  21.145  32.579   0.463
36243W        W97609  44.934  11.670  14.515
36244W        W97610   5.232  21.178  12.505
36245W        W97611   4.929  24.101   2.333
36246W        W97612  23.619  10.175   2.275
36247W        W97613  17.066   6.250   2.781
36248W        W97614   5.308  37.989  12.367
36249W        W97615   1.949  26.102   3.812
36250W        W97616  18.169  22.091  14.461
36251W        W97617  20.171  42.291  11.921
36252W        W97618  16.670  43.444  11.414
36253W        W97619   8.673  10.700  12.066
36254W        W97620  18.607  17.265  10.948
36255W        W97621  20.758   7.705  13.383
36256W        W97622  14.637  43.926   2.256
36257W        W97623  44.376  41.300  14.924
36258W        W97624  36.035   0.765   3.220
36259W        W97625  39.447  25.653  10.418
36260W        W97626  21.689  30.440   4.754
36261W        W97627  28.595  37.496   3.147
36262W        W97628  15.698  43.975  14.277
36263W        W97629  29.441  22.115   0.776
36264W        W97630  38.896  40.918   3.695
36265W        W97631  27.171  39.417  13.363
36266W        W97632  21.160  39.857  13.510
36267W        W97633   9.307  18.646  13.384
36268W        W97634  32.957  38.379  11.447
36269W        W97635   8.864  28.093   0.251
36270W        W97636  25.482  31.126   4.229
36271W        W97637  37.075  28.977   4.327
36272W        W97638  16.309   5.285   2.823
36273W        W97639  19.145   8.786  10.528
36274W        W97640  34.106  40.336   3.753
36275W        W97641  11.745  20.081   4.643
36276W        W97642  38.370  44.371   9.994
36277W        W97643  17.601  27.142  14.452
36278W        W97644  23.678  15.209   4.684
36279W        W97645  36.498   3.836   0.834
36280W        W97646  13.758   2.948   2.760
36281W        W97647   3.414   5.409  12.434
36282W        W97648  23.168  38.951  14.975
36283W        W97649   6.333  35.467   0.325
36284W        W97650  43.309  38.366  11.972
36285W        W97651  21.686  35.889  10.442
36286W        W97652  13.686  31.079   0.389
36287W        W97653  28.059  12.141  12.904
36288W        W97654  22.538   0.907  12.449
36289W        W97655  16.166  34.402   3.349
36290W        W97656  16.210   8.387   4.326
36291W        W97657  14.122  32.411  12.394
36292W        W97658  17.571  40.913   3.868
36293W        W97659  15.820  26.182   0.858
36294W        W97660  40.529  14.201   0.434
36295W        W97661  13.139  29.943   0.268
36296W        W97662  29.121   9.230   3.180
36297W        W97663  10.685  37.501   4.785
36298W        W97664  38.401  20.747   4.714
36299W        W97665  43.767  35.853   3.664
36300W        W97666  18.745  44.005  11.516
36301W        W97667  16.198  30.521  13.846
36302W        W97668  21.211  44.414  12.391
36303W        W97669  40.373  22.577   1.423
36304W        W97670   5.311  23.100  14.363
36305W        W97671   7.344  29.481   1.839
36306W        W97672   6.370  22.019  12.397
36307W        W97673  23.730  20.546  11.541
36308W        W97674   3.808  22.662  13.866
36309W        W97675   9.702  10.755   1.874
36310W        W97676   1.890  30.919   9.962
36311W        W97677  10.784   6.781   0.874
36312W        W97678   7.773  20.620   4.290
36313W        W97679  44.000   0.379  12.540
36314W        W97680  35.379  36.036  11.089
36315W        W97681  35.591  35.583  11.460
36316W        W97682  12.769  16.753  11.377
36317W        W97683  20.112  24.034  11.476
36318W        W97684   7.694  18.724   2.743
36319W        W97685  19.150  17.284  10.425
36320W        W97686  33.425  42.478  11.598
36321W        W97687  13.127  21.544  14.815
36322W        W97688  35.371  10.206  14.807
36323W        W97689  19.219  39.918   2.725
36324W        W97690  31.590  19.762   1.818
36325W        W97691  36.531  34.566  13.475
36326W        W97692   4.756  40.361  12.964
36327W        W97693  43.270  16.098   4.181
36328W        W97694  14.730   2.228  10.933
36329W        W97695  10.784  17.662  12.433
36330W        W97696  19.686   3.837  10.948
36331W        W97697  39.979  27.136  13.061
36332W        W97698  32.987  16.668  13.333
36333W        W97699  43.381  38.925   1.215
36334W        W97700   2.721  26.029  13.384
36335W        W97701  17.573  21.114   2.890
36336W        W97702  21.215  37.996  12.341
36337W        W97703  39.382  38.445  10.978
36338W        W97704  21.714   2.931   4.831
36339W        W97705   1.899  34.581   0.755
36340W        W97706  27.119  25.982   2.683
36341W        W97707  30.152  20.548   3.805
36342W        W97708  11.717   1.263  11.449
36343W        W97709  12.686  30.449   4.696
36344W        W97710   7.675   2.824   2.293
36345W        W97711  27.027  21.734  11.540
36346W        W97712  26.679  21.747  10.931
36347W        W97713  32.397  37.870   4.160
36348W        W97714  28.960  14.634  11.393
36349W        W97715  31.997  32.532   0.473
36350W        W97716  25.525  15.625   1.368
36351W        W97717  40.951  38.339   2.392
36352W        W97718  44.795  40.991   3.859
36353W        W97719  31.917  21.737   2.247
36354W        W97720  12.193  41.397   1.260
36355W        W97721  30.157  44.982  12.572
36356W        W97722  27.007  28.573   1.326
36357W        W97723  31.019  41.807  13.434
36358W        W97724  41.958  15.697  14.918
36359W        W97725   7.354   9.241   3.304
36360W        W97726  42.802  27.511   3.781
36361W        W97727  29.931  16.620   2.377
36362W        W97728  34.541  38.450  13.430
36363W        W97729  11.854  15.184  11.129
36364W        W97730  38.346  30.151  11.953
36365W        W97731  22.690   8.179  11.438
36366W        W97732  21.082   9.683  12.422
36367W        W97733  20.530   3.364   5.156
36368W        W97734  18.210  12.752   2.696
36369W        W97735  34.114  25.564  11.969
36370W        W97736  42.391  40.958   4.208
36371W        W97737  10.271  21.028   3.387
36372W        W97738   7.753  29.922  12.436
36373W        W97739  10.717  11.641   3.212
36374W        W97740  20.041  32.095  14.810
36375W        W97741   6.368   2.794  13.018
36376W        W97742  18.245  33.125   2.701
36377W        W97743  30.034  39.516   0.482
36378W        W97744  41.405  35.058  12.096
36379W        W97745  33.905   5.709  11.510
36380W        W97746  36.066  25.125   1.933
36381W        W97747  31.074  37.561   2.337
36382W        W97748  36.096   9.223  14.981
36383W        W97749   9.873  44.484   3.801
36384W        W97750  14.704  22.552  14.828
36385W        W97751  17.725  20.622  12.000
36386W        W97752  25.549   4.760  12.364
36387W        W97753  10.774  35.437   3.778
36388W        W97754  12.327  43.797  10.471
36389W        W97755  43.902   7.396  11.564
36390W        W97756  36.444   5.401  13.413
36391W        W97757  27.195   1.399   2.369
36392W        W97758  12.188  12.696  14.829
36393W        W97759  32.997   7.674   4.828
36394W        W97760  29.479  13.802  10.598
36395W        W97761   1.466  19.118  10.418
36396W        W97762  16.715  17.065   4.828
36397W        W97763  42.864   1.429  14.353
36398W        W97764  21.749  34.980   1.407
36399W        W97765  13.728  35.494   1.320
36400W        W97766   1.479  39.866  14.791
36401W        W97767  43.417  27.971  11.384
36402W        W97768   8.715  37.377  12.842
36403W        W97769  34.016  13.821   1.915
36404W        W97770  21.589  19.619  14.387
36405W        W97771  30.930  15.634  12.948
36406W        W97772  27.545  21.167   4.649
36407W        W97773  12.298  24.164  13.493
36408W        W97774  23.159   2.431   1.251
36409W        W97775   1.802  39.903   1.816
36410W        W97776   2.452  36.865   0.821
36411W        W97777  24.081  35.456  12.426
36412W        W97778  43.862  12.129   1.273
36413W        W97779  11.862  39.932  12.430
36414W        W97780  21.094   9.812  12.978
36415W        W97781  19.642  10.701   1.897
36416W        W97782  15.291  12.324   1.350
36417W        W97783  13.704  25.546  12.506
36418W        W97784  26.071  11.143   0.733
36419W        W97785  27.556  14.299   2.198
36420W        W97786  13.138  18.173   2.750
36421W        W97787  40.382  11.356   1.434
36422W        W97788  40.831   2.804  13.474
36423W        W97789  40.384  19.244  10.526
36424W        W97790   9.687  25.582  10.431
36425W        W97791  33.567  15.615   4.813
36426W        W97792  32.949  21.755   1.331
36427W        W97793  39.812  26.079   0.862
36428W        W97794  42.008   8.379   4.721
36429W        W97795   2.905  18.580  13.978
36430W        W97796  12.612   9.244   3.751
36431W        W97797  15.198  36.923   2.209
36432W        W97798  14.240   3.730   2.759
36433W        W97799  12.724  16.257  12.380
36434W        W97800  17.660  41.529   4.231
36435W        W97801  18.057  41.526   2.830
36436W        W97802  23.061  19.055  14.772
36437W        W97803  29.092  17.597   1.913
36438W        W97804  43.836  41.472  14.410
36439W        W97805  18.726  21.086   0.743
36440W        W97806   5.818   0.486   4.612
36441W        W97807  41.947   6.420  10.466
36442W        W97808   6.848  12.806   4.695
36443W        W97809  38.011  38.481  13.878
36444W        W97810  36.457  13.637  13.474
36445W        W97811  35.444   9.857  10.977
36446W        W97812   5.402  33.451   0.359
36447W        W97813  28.520  31.405  13.876
36448W        W97814   3.430  37.513   0.753
36449W        W97815  28.629  29.563  13.933
36450W        W97816  29.118  33.939  12.930
36451W        W97817  21.543  18.283  11.496
36452W        W97818  22.584  43.315  11.875
36453W        W97819  10.806  34.967   5.266
36454W        W97820  23.500  36.508  12.007
36455W        W97821  43.503   1.902   1.845
36456W        W97822  12.291  20.258   4.630
36457W        W97823   3.402  42.474  14.968
36458W        W97824  10.834  29.996   3.205
36459W        W97825  13.711   5.858  11.552
36460W        W97826  16.178  11.240   2.734
36461W        W97827  39.905   7.805   1.280
36462W        W97828  31.487  31.074   4.705
36463W        W97829  24.075  36.397  12.421
36464W        W97830  34.962  14.110  10.032
36465W        W97831  27.520  20.722  13.886
36466W        W97832  12.265  43.859  12.096
36467W        W97833   0.343  20.267  11.507
36468W        W97834  26.474  41.348   1.306
36469W        W97835   2.338  13.814  14.281
36470W        W97836  18.126  13.605  13.522
36471W        W97837   8.682  23.068  10.547
36472W        W97838   1.364  16.223   3.860
36473W        W97839   3.795  32.133   2.707
36474W        W97840  16.663  24.002   0.428
36475W        W97841  23.690  28.472   4.823
36476W        W97842   2.410   3.288   3.327
36477W        W97843   7.757  41.389   3.642
36478W        W97844  19.625  26.619   2.233
36479W        W97845  16.635   5.194  13.473
36480W        W97846  30.943  33.489   4.695
36481W        W97847   5.348  44.944  14.406
36482W        W97848  22.026  17.191  12.978
36483W        W97849  21.229  40.879  13.055
36484W        W97850   2.401   9.872  12.875
36485W        W97851   0.950   4.889   9.933
36486W        W97852  29.060   1.464  10.429
36487W        W97853   9.384   2.929   0.442
36488W        W97854  25.066  20.700  13.033
36489W        W97855  10.720  37.347   1.833
36490W        W97856  35.092  26.669  10.419
36491W        W97857  36.973  33.549  11.895
36492W        W97858   7.762  40.483  13.817
36493W        W97859  38.970  13.270   5.183
36494W        W97860  12.755   6.411   0.297
36495W        W97861  43.420   7.327  12.393
36496W        W97862  38.489  19.200  14.289
36497W        W97863  26.479  36.099   1.382
36498W        W97864  41.511   6.234  12.530
36499W        W97865  35.107  18.571  11.859
36500W        W97866   9.689  16.805  12.847
36501W        W97867  13.197  40.840  12.460
36502W        W97868  14.289  21.147  13.866
36503W        W97869  26.624  14.103   4.708
36504W        W97870  10.762   4.869  13.907
36505W        W97871   5.433   4.362   2.847
36506W        W97872  18.170  19.168  13.966
36507W        W97873  42.871  29.597  13.008
36508W        W97874  29.477  34.997   0.866
36509W        W97875  37.394   4.306  10.438
36510W        W97876  13.210  17.652   0.795
36511W        W97877  29.535  21.079  13.793
36512W        W97878  15.787  12.634  10.573
36513W        W97879  42.452  12.276  10.939
36514W        W97880   5.732  21.021   1.904
36515W        W97881   7.885  40.015  10.411
36516W        W97882  34.495   8.338  12.896
36517W        W97883  21.120   8.794  13.856
36518W        W97884   5.773   4.840   2.665
36519W        W97885  16.089   7.860   0.352
36520W        W97886  44.352  39.402  13.862
36521W        W97887  41.810  18.297   5.210
36522W        W97888  32.582  27.544  13.438
36523W        W97889  40.426  32.094   2.748
36524W        W97890  28.671  25.706   3.368
36525W        W97891  35.372  38.516  10.563
36526W        W97892  36.068  27.622  14.425
36527W        W97893  27.685  23.717  14.350
36528W        W97894  34.405  43.927  12.383
36529W        W97895  26.135  17.741   4.334
36530W        W97896  30.436  42.929   4.784
36531W        W97897   7.724  25.177   4.321
36532W        W97898  20.559  42.016  10.974
36533W        W97899  26.522   9.849   3.239
36534W        W97900  17.757  30.615  11.424
36535W        W97901   3.768  36.896   1.248
36536W        W97902  24.146  30.960  13.995
36537W        W97903   5.699  30.023  14.398
36538W        W97904  44.486  38.895  13.465
36539W        W97905   1.243  28.571  12.025
36540W        W97906  12.302  26.044  14.341
36541W        W97907  26.075   2.346   2.341
36542W        W97908   2.967  17.794   1.238
36543W        W97909  36.539  24.715  13.058
36544W        W97910   0.876  43.804   1.369
36545W        W97911  26.073  17.180   4.252
36546W        W97912   2.754   6.343  12.877
36547W        W97913  28.128   9.289  13.965
36548W        W97914  16.592  40.375  13.791
36549W        W97915  15.181   3.733   1.793
36550W        W97916   9.678  29.615  13.051
36551W        W97917  36.081  36.348   0.842
36552W        W97918  35.580  36.588   2.252
36553W        W97919  17.259  43.797   1.764
36554W        W97920   6.232  21.095   3.244
36555W        W97921   6.684   9.288   4.304
36556W        W97922   6.323   8.700   4.242
36557W        W97923  13.135  18.700   3.283
36558W        W97924   0.878  18.735  13.811
36559W        W97925  36.394   2.374   2.337
36560W        W97926  24.610  23.497   4.199
36561W        W97927   1.306   8.192   3.767
36562W        W97928  24.024  32.519   0.479
36563W        W97929  36.869  32.011  12.445
36564W        W97930  23.676  21.072  14.789
36565W        W97931  21.634   7.805   1.825
36566W        W97932  21.073  21.142   4.275
36567W        W97933  34.881  37.456   0.744
36568W        W97934  35.085  36.380  12.878
36569W        W97935  21.716  23.735   5.120
36570W        W97936  37.508   5.721  11.087
36571W        W97937  30.454  29.514  11.050
36572W        W97938   0.944   0.780   0.346
36573W        W97939  20.736  26.668   3.308
36574W        W97940  41.982  26.689   2.795
36575W        W97941  15.304   6.364   2.380
36576W        W97942   9.763  31.598   1.255
36577W        W97943  33.960  14.714   2.228
36578W        W97944  44.341  12.260   1.281
36579W        W97945  25.529   0.958   1.771
36580W        W97946   2.857  31.947   2.190
36581W        W97947  32.985  41.869   0.461
36582W        W97948  23.097  37.500  13.382
36583W        W97949  40.994  17.240   4.619
36584W        W97950  33.991  18.729   4.791
36585W        W97951  35.031  37.407  11.896
36586W        W97952   0.398  35.463  12.516
36587W        W97953  44.842  18.677   4.649
36588W        W97954  10.743  32.974   1.858
36589W        W97955  17.092  41.388  13.938
36590W        W97956  34.099  22.541  12.980
36591W        W97957  37.848  34.987  12.491
36592W        W97958   0.387  26.591   0.383
36593W        W97959  33.414  18.752   2.277
36594W        W97960  28.093  31.941   4.139
36595W        W97961  43.940  19.557   1.704
36596W        W97962  19.069  39.829  11.858
36597W        W97963  11.830  21.141  12.907
36598W        W97964  15.103  15.786   1.322
36599W        W97965  35.530  13.269   1.419
36600W        W97966  20.618  25.035  12.453
36601W        W97967  33.568  40.947   1.841
36602W        W97968  19.704   6.690   4.158
36603W        W97969  32.442  41.018   1.847
36604W        W97970  35.489  34.004  12.506
36605W        W97971  42.938  11.866  13.921
36606W        W97972   6.289   2.291  11.039
36607W        W97973   4.813  40.936   4.270
36608W        W97974  14.136  28.002   3.774
36609W        W97975  30.089  33.429  11.501
36610W        W97976   8.293  13.760  12.094
36611W        W97977  27.135  13.800  13.476
36612W        W97978   7.351  21.706   4.288
36613W        W97979  32.635  22.168  10.936
36614W        W97980  23.520  14.658  10.512
36615W        W97981  40.503   3.926   3.676
36616W        W97982  23.134  44.907  11.101
36617W        W97983  12.821  14.672   4.838
36618W        W97984  12.312   2.377  11.952
36619W        W97985  32.016  41.994  12.483
36620W        W97986  15.590  20.564   4.704
36621W        W97987  25.621  41.414   0.272
36622W        W97988  24.686  15.268  11.562
36623W        W97989  28.529  33.923  13.348
36624W        W97990  26.489  10.702  10.553
36625W        W97991  23.730   6.817   4.731
36626W        W97992  28.112  17.666   1.358
36627W        W97993  25.641  10.833  11.508
36628W        W97994  34.907  37.869  11.097
36629W        W97995   5.426  43.963  14.868
36630W        W97996  19.283  31.559   3.181
36631W        W97997  25.507  19.547   3.387
36632W        W97998  24.651  32.471  12.948
36633W        W97999  41.828  19.773   2.885
36634W        W98000  33.016   5.898  13.477
36635W        W98001  21.245  24.500   3.842
36636W        W98002  22.072  30.466   1.420
36637W        W98003  12.725   0.934  14.290
36638W        W98004  27.131  25.963   3.381
36639W        W98005  19.659  36.032   2.372
36640W        W98006  25.701  42.371   4.137
36641W        W98007  43.409   4.874  14.375
36642W        W98008  31.946  15.243  14.430
36643W        W98009  36.476  18.581   4.621
36644W        W98010  28.644  39.324   4.737
36645W        W98011  38.982   0.351   4.680
36646W        W98012  42.027  13.829  12.415
36647W        W98013   4.244  18.263  14.428
36648W        W98014  15.176  28.073  12.831
36649W        W98015  20.170  25.634  13.460
36650W        W98016  29.467  21.609   4.169
36651W        W98017  26.558  11.754  14.344
36652W        W98018  37.943  28.578   0.932
36653W        W98019  36.064  40.433  13.058
36654W        W98020  29.437  10.879  10.455
36655W        W98021  10.874  30.113  12.492
36656W        W98022  44.483  17.273   2.319
36657W        W98023   4.390   8.334   0.461
36658W        W98024  40.803   3.281   1.217
36659W        W98025  15.610  10.794  10.990
36660W        W98026   4.813  16.301  12.481
36661W        W98027   8.385  11.325  11.494
36662W        W98028  20.612   2.368   2.344
36663W        W98029   1.937  23.202  11.486
36664W        W98030   4.898  40.001   9.964
36665W        W98031  26.118  32.432  10.978
36666W        W98032  34.079  40.436   4.322
36667W        W98033  35.392  22.113   3.831
36668W        W98034  18.620  40.884   4.130
36669W        W98035  22.682  28.459   0.745
36670W        W98036  18.591  26.098   1.292
36671W        W98037  23.576  43.452   0.791
36672W        W98038  28.469  44.826  11.920
36673W        W98039  37.928  39.402  13.018
36674W        W98040   7.196  36.407   0.749
36675W        W98041  17.257  35.009  11.564
36676W        W98042  28.607  44.885  13.852
36677W        W98043  37.565   1.848  14.305
36678W        W98044  37.065  36.494   2.855
36679W        W98045   4.389  14.263  11.865
36680W        W98046  11.293   0.368  12.465
36681W        W98047  28.111  23.134  11.455
36682W        W98048  21.129  19.757   4.698
36683W        W98049  24.621  19.537  11.529
36684W        W98050  22.190   9.367   0.419
36685W        W98051  38.355   8.725  10.435
36686W        W98052  23.134  39.922  11.945
36687W        W98053  16.091  43.014   1.830
36688W        W98054  25.540   7.869  14.028
36689W        W98055  21.202  41.810  11.994
36690W        W98056  39.402   4.769  10.518
36691W        W98057   8.219   7.268  11.491
36692W        W98058  33.887  17.192   3.245
36693W        W98059  36.033   7.223   1.788
36694W        W98060   6.818  16.164   2.302
36695W        W98061  37.408  34.387   4.799
36696W        W98062  10.275  24.976  13.311
36697W        W98063  28.666  41.915  11.956
36698W        W98064  28.932   8.822  13.437
36699W        W98065  31.032  36.054   0.862
36700W        W98066  43.973  41.997  12.856
36701W        W98067  11.307  38.990   2.215
36702W        W98068  14.139   6.680   4.666
36703W        W98069   9.689  16.229   3.815
36704W        W98070  23.665  12.725  14.832
36705W        W98071  38.936  26.496   0.250
36706W        W98072  24.712   4.260  11.494
36707W        W98073  31.917  19.753  14.025
36708W        W98074  13.193  42.970  14.460
36709W        W98075  34.939  13.180   4.768
36710W        W98076  44.337  13.806   2.404
36711W        W98077  12.341  43.966  14.891
36712W        W98078  10.832  10.157  11.006
36713W        W98079  39.909  24.084   4.203
36714W        W98080  36.848  12.216   2.669
36715W        W98081  27.512  14.699  11.043
36716W        W98082  44.335  32.606  10.572
36717W        W98083  26.177   2.804   1.857
36718W        W98084  44.298  26.550   4.165
36719W        W98085  33.084  43.512   2.392
36720W        W98086  28.149   2.963   2.860
36721W        W98087  20.115   8.180  13.945
36722W        W98088  32.518  42.823  13.034
36723W        W98089  13.657  20.750  13.373
36724W        W98090  19.236  28.171  12.946
36725W        W98091   8.901  13.634   3.271
36726W        W98092  17.671  25.620  10.981
36727W        W98093   1.733  35.992  13.537
36728W        W98094  30.564  19.120   0.868
36729W        W98095  28.674  27.023   3.151
36730W        W98096  37.078  29.105   2.694
36731W        W98097   1.476   9.771   0.750
36732W        W98098  20.725  28.551  12.370
36733W        W98099  24.547  28.468   3.657
36734W        W98100  12.336   9.737   0.364
36735W        W98101  25.210   4.275   2.213
36736W        W98102  43.452   1.476   2.890
36737W        W98103   9.832   0.486  11.952
36738W        W98104  32.007   0.420   2.214
36739W        W98105   3.428  43.820   2.349
36740W        W98106  29.103  20.730   3.795
36741W        W98107  12.174   3.827   0.871
36742W        W98108  17.080   4.232   4.126
36743W        W98109  30.049  37.495  10.004
36744W        W98110   8.322  10.767   1.282
36745W        W98111  17.672  11.241   1.434
36746W        W98112   7.380  20.586   0.874
36747W        W98113  29.017  27.594   3.858
36748W        W98114  36.892  21.595  10.900
36749W        W98115  28.025  23.122   1.265
36750W        W98116  21.261  25.681   1.279
36751W        W98117  21.570  20.628  11.397
36752W        W98118  36.349  30.564  12.471
36753W        W98119   3.410  13.632  11.923
36754W        W98120  42.409   8.846  13.502
36755W        W98121  29.452  16.676  12.539
36756W        W98122  25.671  17.290   3.834
36757W        W98123  44.755  13.229  13.963
36758W        W98124  25.068  38.973  14.446
36759W        W98125  19.544  43.406   1.356
36760W        W98126   1.396  24.494   0.731
36761W        W98127  34.439   3.777   2.823
36762W        W98128  19.619  44.441  13.051
36763W        W98129  11.859  41.509  11.372
36764W        W98130   4.328   6.258  13.522
36765W        W98131  16.594  14.816  12.841
36766W        W98132  33.459  22.188   0.853
36767W        W98133  42.334  22.664  12.829
36768W        W98134  28.149  42.882   0.899
36769W        W98135  21.728  17.659   2.408
36770W        W98136  30.986  15.293  13.310
36771W        W98137  25.200  38.328  12.032
36772W        W98138   5.841   5.725  11.426
36773W        W98139  21.106   4.428   1.771
36774W        W98140  29.649   0.448   3.678
36775W        W98141  14.663  13.316   3.248
36776W        W98142  21.161  20.033   2.725
36777W        W98143  30.573   5.820   2.685
36778W        W98144  42.819  20.249   3.713
36779W        W98145  39.362  19.160   2.693
36780W        W98146  33.498  32.472  11.937
36781W        W98147  37.046  24.224   3.242
36782W        W98148  28.494  15.703  10.923
36783W        W98149   0.268  43.345   3.653
36784W        W98150  12.208   5.694  14.951
36785W        W98151  21.666  41.521   4.614
36786W        W98152   7.857  15.290   3.725
36787W        W98153  41.789   2.833   1.802
36788W        W98154  24.229  24.603   2.194
36789W        W98155  11.146   7.337   1.255
36790W        W98156  14.267  42.416   3.219
36791W        W98157  19.567   7.670   1.402
36792W        W98158   2.396  18.169   1.749
36793W        W98159   9.328  28.991   2.289
36794W        W98160   6.772  27.124  10.944
36795W        W98161  19.124   1.910  14.790
36796W        W98162  34.034  44.804  14.453
36797W        W98163  13.609   3.716   3.840
36798W        W98164  10.212  12.342  11.966
36799W        W98165  11.865  37.439   4.119
36800W        W98166  14.157  36.882  13.952
36801W        W98167  20.031  26.991   1.363
36802W        W98168  14.822  21.160  14.012
36803W        W98169  38.386  21.157  12.963
36804W        W98170  38.958  13.276   3.794
36805W        W98171  14.761  34.986   0.891
36806W        W98172  27.492  29.647  12.451
36807W        W98173  15.790   6.870   2.893
36808W        W98174  32.549   3.724  13.434
36809W        W98175  13.794  43.847  14.780
36810W        W98176  30.135  42.922   5.314
36811W        W98177   2.918  21.093   1.271
36812W        W98178   9.233  10.861   1.881
36813W        W98179  30.160  16.165   3.727
36814W        W98180  32.479  25.703  14.917
36815W        W98181  13.768  10.806   2.250
36816W        W98182  12.203  13.159  13.024
36817W        W98183  22.173  36.426  13.986
36818W        W98184  43.421   8.783  11.374
36819W        W98185  34.431   0.823   4.319
36820W        W98186  21.621  18.187   4.153
36821W        W98187   1.802   6.876  10.409
36822W        W98188  23.128  10.285   1.321
36823W        W98189  36.486  43.488  11.413
36824W        W98190  31.908   6.225   2.881
36825W        W98191  13.795  25.111  13.544
36826W        W98192   9.743  31.468   2.866
36827W        W98193  12.824   1.455   0.327
36828W        W98194  17.712   9.708   4.117
36829W        W98195  10.372  21.090   0.898
36830W        W98196   6.912  42.352   4.646
36831W        W98197  26.097  37.950   4.202
36832W        W98198  26.186   7.393  12.400
36833W        W98199  43.003  12.857  10.416
36834W        W98200  15.262   3.905  14.782
36835W        W98201  35.910  26.532   4.783
36836W        W98202  21.256   3.322   2.824
36837W        W98203  30.442   4.841  14.330
36838W        W98204  41.299  23.090  11.486
36839W        W98205   9.826  38.488  12.373
36840W        W98206  18.241  20.254   1.832
36841W        W98207   8.192  38.826  12.035
36842W        W98208  20.030  35.881   1.415
36843W        W98209   1.337  33.908  11.610
36844W        W98210   2.468   7.764   1.852
36845W        W98211  40.050   5.892   1.788
36846W        W98212  10.682   4.781  11.442
36847W        W98213  25.045   5.813  14.765
36848W        W98214  34.437  26.641  10.993
36849W        W98215   1.292   6.688   0.463
36850W        W98216  11.851  44.851   2.899
36851W        W98217  36.041  36.992   1.448
36852W        W98218   9.746  43.469  11.527
36853W        W98219  38.325   8.659  10.950
36854W        W98220  16.304   7.285   2.736
36855W        W98221   4.386  34.110   0.836
36856W        W98222   6.794  32.549  10.610
36857W        W98223   3.739  22.171   3.300
36858W        W98224  42.801  13.694  10.641
36859W        W98225  15.177  31.945  10.588
36860W        W98226  12.730  19.552  11.861
36861W        W98227  28.612  23.528  11.906
36862W        W98228  37.348  33.542   0.327
36863W        W98229  34.408   6.704  13.836
36864W        W98230  18.135  44.443  13.318
36865W        W98231   4.329  27.948  11.571
36866W        W98232  14.240  18.588  13.529
36867W        W98233   7.683   9.768  11.065
36868W        W98234  35.961  12.770   0.385
36869W        W98235  33.387  35.987   1.849
36870W        W98236  43.863  25.568   0.364
36871W        W98237  27.974  10.721  14.452
36872W        W98238  23.705   6.892   2.379
36873W        W98239  24.211   7.879   4.204
36874W        W98240  35.871  18.144  12.827
36875W        W98241  42.876  39.815  14.787
36876W        W98242  25.641   9.752  12.580
36877W        W98243  25.991   9.337   3.870
36878W        W98244  29.074  28.465   5.264
36879W        W98245  33.466  15.287   0.254
36880W        W98246  15.120   3.216  12.579
36881W        W98247  11.641  30.539   0.876
36882W        W98248  19.273  16.742   1.289
36883W        W98249  20.189  18.118  13.847
36884W        W98250   9.730  21.055   2.389
36885W        W98251   3.918  19.589  13.868
36886W        W98252  11.785  40.482   5.282
36887W        W98253  26.165   7.701   2.407
36888W        W98254  11.805   7.301  13.307
36889W        W98255   3.807  28.588   2.733
36890W        W98256  10.227   8.224   3.304
36891W        W98257  42.962  15.668  13.824
36892W        W98258   1.884  10.229  12.506
36893W        W98259  16.170  17.681  14.954
36894W        W98260  24.043   3.814  12.398
36895W        W98261  44.451  13.163  14.398
36896W        W98262  25.084  23.104   1.713
36897W        W98263  14.770   0.410  12.981
36898W        W98264  36.451  40.916   5.755
36899W        W98265  23.516  16.307  11.561
36900W        W98266  11.699  35.034   4.308
36901W        W98267  29.053  37.998   1.923
36902W        W98268  23.533  20.187  14.931
36903W        W98269   7.177  34.067   2.333
36904W        W98270  43.764   3.379   4.311
36905W        W98271   2.864  24.503   0.751
36906W        W98272  19.278  25.667  13.051
36907W        W98273  23.208  19.283  12.012
36908W        W98274  36.898  33.474   4.640
36909W        W98275  26.171  40.909   2.827
36910W        W98276  16.595  28.968   1.397
36911W        W98277  24.079  31.998  12.834
36912W        W98278   4.291  25.486  12.925
36913W        W98279  26.072  22.503  11.026
36914W        W98280  22.165   0.449   0.774
36915W        W98281   1.238  11.691   3.178
36916W        W98282  40.421  30.020   4.311
36917W        W98283  39.492  44.398  13.375
36918W        W98284  31.607  26.139   4.264
36919W        W98285  35.939  19.547   4.338
36920W        W98286  25.089  30.551  11.022
36921W        W98287  21.740  40.988  14.351
36922W        W98288  38.389  25.002   4.179
36923W        W98289  25.964   9.680   1.430
36924W        W98290  16.294  21.213   1.328
36925W        W98291  41.300   3.330   0.441
36926W        W98292  31.020  42.429  12.861
36927W        W98293   8.182  28.057   0.474
36928W        W98294   6.417  34.411   4.679
36929W        W98295  41.344   1.281   0.372
36930W        W98296  17.684  14.746   3.766
36931W        W98297   5.421  19.237  12.474
36932W        W98298   0.782  23.559  10.159
36933W        W98299  35.088  24.064   3.296
36934W        W98300  30.600  44.322  10.936
36935W        W98301  13.344  41.793  12.432
36936W        W98302  38.066   6.923   4.328
36937W        W98303  22.695  28.650  14.382
36938W        W98304   6.791   7.811   1.807
36939W        W98305  12.696   5.435  11.989
36940W        W98306  37.014  26.017  10.521
36941W        W98307  44.762  41.835   4.150
36942W        W98308  39.516  36.980   0.449
36943W        W98309  14.709  10.212  13.412
36944W        W98310   5.287  23.208  13.011
36945W        W98311  40.429   8.385   0.371
36946W        W98312  22.109   5.322   4.345
36947W        W98313  20.647  17.187  13.337
36948W        W98314   3.909  43.385   4.198
36949W        W98315  26.994   8.876  10.543
36950W        W98316  38.921  32.960   9.965
36951W        W98317  44.444   3.823   1.439
36952W        W98318  16.798  19.623   0.404
36953W        W98319  32.622  31.536   1.384
36954W        W98320  30.459   3.837   4.295
36955W        W98321  26.105  23.142   0.348
36956W        W98322  39.814  37.015  10.621
36957W        W98323  29.452   2.810  14.981
36958W        W98324  12.299  37.511  12.444
36959W        W98325   1.823  33.026  13.481
36960W        W98326  11.844  30.025   4.162
36961W        W98327  21.087  27.144   1.295
36962W        W98328   6.242   2.287   3.681
36963W        W98329  23.142  38.368   2.200
36964W        W98330  15.323  19.206  12.440
36965W        W98331  25.207  30.558  12.051
36966W        W98332  32.127  11.851   4.115
36967W        W98333  39.936  39.017  10.435
36968W        W98334  20.032  29.939   1.920
36969W        W98335  37.927  23.014   3.300
36970W        W98336   8.308  13.623   0.287
36971W        W98337  44.390  39.859   4.338
36972W        W98338  31.973  23.077   2.849
36973W        W98339  27.061  33.919   2.847
36974W        W98340   8.790  22.199   9.933
36975W        W98341  37.448  38.012  14.907
36976W        W98342  20.042  12.645   2.805
36977W        W98343  17.783  15.709   2.324
36978W        W98344   3.281  34.951   2.302
36979W        W98345  17.665  38.973  11.441
36980W        W98346  16.238  41.374  13.383
36981W        W98347   8.693   3.432  13.316
36982W        W98348  25.168  34.968  14.372
36983W        W98349  25.117   2.847   2.337
36984W        W98350   7.832   7.724  14.845
36985W        W98351  38.459  21.665  12.366
36986W        W98352  32.566  44.261   4.253
36987W        W98353  17.188   1.808   0.848
36988W        W98354  23.725  20.706  10.892
36989W        W98355  12.266   3.234   4.156
36990W        W98356  13.328   5.894   3.375
36991W        W98357  10.737  13.185   2.854
36992W        W98358  11.226   0.882  11.125
36993W        W98359  33.907  37.404  13.805
36994W        W98360   3.232  28.564  13.016
36995W        W98361  31.604   6.907   1.404
36996W        W98362  10.734  24.035  11.888
36997W        W98363  44.893  28.013  12.861
36998W        W98364  41.440  32.464   2.858
36999W        W98365  16.224  32.055  14.381
37000W        W98366  14.719   2.734   2.344
37001W        W98367  16.620   1.295   2.400
37002W        W98368  17.560  30.600  12.447
37003W        W98369  31.015  29.426   1.391
37004W        W98370   4.284  29.504   4.334
37005W        W98371  13.663  21.514   4.295
37006W        W98372  28.665   1.271  10.937
37007W        W98373  35.555  29.425  13.442
37008W        W98374  14.255  11.814  12.019
37009W        W98375   0.407  23.563  11.408
37010W        W98376  40.978  25.573  11.011
37011W        W98377  41.869  12.297   0.783
37012W        W98378  32.059   2.401  14.474
37013W        W98379  13.348  15.247   0.960
37014W        W98380   4.246  36.406   0.802
37015W        W98381  38.006   4.818   2.290
37016W        W98382  39.834  18.267   1.250
37017W        W98383  25.076   7.382   3.662
37018W        W98384  31.620   7.894   1.908
37019W        W98385  22.211  44.342  10.421
37020W        W98386   8.746   9.239  11.867
37021W        W98387   3.292  37.492  11.034
37022W        W98388  25.537  37.975  13.395
37023W        W98389  27.026   9.767  13.999
37024W        W98390  22.042  11.663   3.715
37025W        W98391  36.563  35.587  13.962
37026W        W98392  37.487  38.393  11.449
37027W        W98393  24.595  44.347   2.178
37028W        W98394  32.106  30.016  12.521
37029W        W98395  21.530  22.241  12.570
37030W        W98396  35.057  19.081   4.233
37031W        W98397  30.044  35.065  14.389
37032W        W98398  14.230   8.336  12.380
37033W        W98399  27.677  22.022  11.069
37034W        W98400   6.342  39.865   3.261
37035W        W98401  29.153  28.591  12.413
37036W        W98402   2.941  13.741   1.727
37037W        W98403  35.064  10.337   2.308
37038W        W98404  24.148  13.758   2.335
37039W        W98405  21.573  42.926  13.037
37040W        W98406  10.866   3.243  12.078
37041W        W98407   3.864  32.543  11.489
37042W        W98408  37.443  29.022  11.096
37043W        W98409  37.419  29.118  13.478
37044W        W98410  15.146   5.717   3.316
37045W        W98411  32.041  43.015  10.046
37046W        W98412  31.550  43.325  10.911
37047W        W98413  37.516  43.809  13.514
37048W        W98414   3.859  15.245  12.971
37049W        W98415   2.931  31.075  13.497
37050W        W98416   9.385  30.913   2.704
37051W        W98417  15.585  39.936  14.876
37052W        W98418  39.365  11.811  14.840
37053W        W98419  10.208   4.769   3.733
37054W        W98420  36.391  43.878   0.745
37055W        W98421   7.874  16.076  11.374
37056W        W98422   7.896  38.059  12.030
37057W        W98423  41.353  41.429  12.906
37058W        W98424  40.811  38.011   2.893
37059W        W98425  36.436   8.867   0.761
37060W        W98426  42.890  43.852   9.970
37061W        W98427   0.328  40.474  11.489
37062W        W98428  11.788  29.081   3.361
37063W        W98429   5.785   2.370  12.858
37064W        W98430  29.563  43.868   0.342
37065W        W98431  18.051  29.534  13.983
37066W        W98432  37.859  16.302   2.337
37067W        W98433  22.530  28.014  12.894
37068W        W98434  27.668  27.622   0.332
37069W        W98435  44.332  32.933  13.935
37070W        W98436   5.307  14.692  10.997
37071W        W98437  24.169  35.538   5.107
37072W        W98438  27.955  17.555  13.955
37073W        W98439   1.312   8.270  14.787
37074W        W98440  20.070  35.061  12.502
37075W        W98441  10.688  29.163   1.911
37076W        W98442  38.354  10.227   4.813
37077W        W98443   7.900  43.854   1.315
37078W        W98444  37.975  36.856  13.036
37079W        W98445  42.810   2.400  10.984
37080W        W98446  10.861   7.684   2.786
37081W        W98447  41.975  27.627  11.432
37082W        W98448  23.147  31.431   1.358
37083W        W98449   0.471  30.019   2.845
37084W        W98450  26.653  38.543   3.321
37085W        W98451  22.996  21.520  14.453
37086W        W98452  22.615  22.724  12.536
37087W        W98453  40.333  27.126  13.812
37088W        W98454  14.721  41.900  10.561
37089W        W98455   0.324  23.589  12.064
37090W        W98456  34.938  38.016  12.555
37091W        W98457  16.592   7.380   3.312
37092W        W98458  43.985  21.640   3.249
37093W        W98459  35.475   0.778  14.301
37094W        W98460  29.525  15.817  12.009
37095W        W98461  14.123  44.368   2.280
37096W        W98462  24.011  35.883   4.748
37097W        W98463  39.012  38.364  11.421
37098W        W98464  12.294  40.992   0.947
37099W        W98465   2.299  37.875  10.613
37100W        W98466  20.569  12.203   2.329
37101W        W98467  22.223  38.898  14.917
37102W        W98468   5.249   4.778   3.370
37103W        W98469  30.538  29.478   3.641
37104W        W98470  18.174  24.156  11.911
37105W        W98471  34.494  19.176   4.815
37106W        W98472  32.054  18.165  14.864
37107W        W98473  34.092  15.242  14.447
37108W        W98474  27.041   1.885  11.612
37109W        W98475  20.657  10.677   2.226
37110W        W98476  32.565  27.461  12.939
37111W        W98477  43.294  43.000   4.157
37112W        W98478  16.200  11.228   4.832
37113W        W98479  43.787  44.264   2.376
37114W        W98480   4.250  10.281  13.015
37115W        W98481   7.299  41.974  13.320
37116W        W98482  27.967  29.573   2.268
37117W        W98483  11.343  14.184   4.121
37118W        W98484  12.755  13.274  10.472
37119W        W98485   7.188  32.624   0.358
37120W        W98486  30.006  22.996   0.442
37121W        W98487  43.001  25.209  14.832
37122W        W98488  16.767   0.850   3.166
37123W        W98489  22.679  21.185   0.408
37124W        W98490  37.533  21.183   2.750
37125W        W98491  33.563  42.909  12.958
37126W        W98492  31.968   6.889   4.267
37127W        W98493   2.746  11.830  11.920
37128W        W98494   8.172  28.534  12.833
37129W        W98495  24.557  15.699  10.944
37130W        W98496  10.324  42.840  14.024
37131W        W98497  44.259  28.152   9.619
37132W        W98498  40.434   5.693   9.941
37133W        W98499  29.084  15.711   3.834
37134W        W98500  37.894  32.962   4.689
37135W        W98501   1.793  14.107  13.837
37136W        W98502   9.760  40.041   0.419
37137W        W98503   2.848  28.593   3.236
37138W        W98504  15.599  43.904   4.795
37139W        W98505  24.600  12.141  11.931
37140W        W98506  26.622   5.706  11.028
37141W        W98507   7.819  24.159   3.307
37142W        W98508  27.494  33.386   0.318
37143W        W98509  43.384   1.254   3.287
37144W        W98510  43.932  11.664   1.364
37145W        W98511  22.724  40.055  14.966
37146W        W98512  19.227  36.054  12.936
37147W        W98513  34.541   9.677   2.785
37148W        W98514  26.983  27.039  13.377
37149W        W98515  11.148  34.487  12.516
37150W        W98516  28.485  25.106  10.561
37151W        W98517  31.905  29.130  12.855
37152W        W98518   7.757  11.364   2.678
37153W        W98519  14.111  43.870  11.072
37154W        W98520  17.643  21.184  10.586
37155W        W98521  13.301  10.342   1.287
37156W        W98522  33.000  17.788  14.476
37157W        W98523  15.089  25.526  11.941
37158W        W98524  35.041  31.402  11.488
37159W        W98525  24.584  35.859   2.698
37160W        W98526  39.011  43.483   3.834
37161W        W98527  18.083  27.625   2.745
37162W        W98528  28.137  22.546  14.443
37163W        W98529  15.157  29.538  11.941
37164W        W98530  42.886  19.590  12.963
37165W        W98531  16.269  11.795  13.908
37166W        W98532  41.502  23.623   1.780
37167W        W98533  25.118   7.206   0.872
37168W        W98534   6.736  38.068  14.999
37169W        W98535  40.874   0.882   0.796
37170W        W98536  42.924  22.659  14.852
37171W        W98537  15.249  37.921   0.299
37172W        W98538  41.030  35.010  11.896
37173W        W98539  42.393  21.146   1.394
37174W        W98540  32.404  21.032  11.910
37175W        W98541  21.038   2.389   3.340
37176W        W98542  15.221  40.521   1.378
37177W        W98543  32.434   4.217   1.403
37178W        W98544  38.991   4.765  10.619
37179W        W98545  28.030  14.135   3.778
37180W        W98546   3.426  18.246  12.567
37181W        W98547  18.195  40.328  12.936
37182W        W98548  11.272  37.837  12.446
37183W        W98549  28.120  16.699   2.210
37184W        W98550  16.132  31.114  11.058
37185W        W98551  36.047  11.211   0.745
37186W        W98552   0.286  38.495   4.684
37187W        W98553  30.524  18.239   2.771
37188W        W98554  17.107   4.387  14.347
37189W        W98555  20.260  29.595   1.224
37190W        W98556  30.429  42.992  10.025
37191W        W98557   8.309  39.943  12.091
37192W        W98558  25.007  25.714  12.497
37193W        W98559  38.558  24.186  13.863
37194W        W98560  16.793  20.269   0.297
37195W        W98561   7.704  16.249  13.926
37196W        W98562  25.644  17.727  13.402
37197W        W98563  43.847   8.381   4.664
37198W        W98564  14.283  31.530  14.004
37199W        W98565  29.617   3.852  12.930
37200W        W98566  18.191  20.723   2.738
37201W        W98567  19.157   6.852   3.649
37202W        W98568  10.188  28.634   2.406
37203W        W98569  44.336   1.342  12.580
37204W        W98570  25.631  17.671   1.402
37205W        W98571  18.216   9.704   4.638
37206W        W98572  36.856   1.936   3.670
37207W        W98573   6.758  16.757   1.380
37208W        W98574  16.773   3.868  11.450
37209W        W98575  42.911  24.997   3.865
37210W        W98576  31.426   2.335   2.322
37211W        W98577  17.720   5.865  11.506
37212W        W98578  21.202  15.294   1.243
37213W        W98579  38.409  34.938   3.201
37214W        W98580  26.664   0.298  12.918
37215W        W98581  30.939  24.561  11.401
37216W        W98582  11.622  13.835  13.858
37217W        W98583  13.732   5.253  11.427
37218W        W98584  25.541  33.959   5.212
37219W        W98585  15.619  28.466  10.464
37220W        W98586  38.538  33.589  11.072
37221W        W98587   3.332   9.838   0.896
37222W        W98588  42.964  31.519  11.519
37223W        W98589  43.433  38.920   0.850
37224W        W98590  19.541  40.500   5.229
37225W        W98591  12.683   9.235  12.077
37226W        W98592  33.997  14.232  14.820
37227W        W98593  14.178  13.777   3.307
37228W        W98594  25.560  43.866  11.048
37229W        W98595  21.188  23.133   2.385
37230W        W98596  27.037   9.870  13.357
37231W        W98597  33.415  36.013  11.553
37232W        W98598  39.393  42.940  11.474
37233W        W98599   4.732  38.918   1.902
37234W        W98600  27.642  19.762   1.343
37235W        W98601  28.015  19.585   2.687
37236W        W98602   6.255  26.024   0.926
37237W        W98603  37.541  31.637  14.028
37238W        W98604  17.109  31.939  14.965
37239W        W98605   7.735  12.667  14.282
37240W        W98606  31.143  23.168   0.463
37241W        W98607  41.403  12.668  10.902
37242W        W98608   7.242  31.538  11.444
37243W        W98609  38.362  10.293  12.514
37244W        W98610  17.564  35.880   4.672
37245W        W98611  29.002   0.960   0.464
37246W        W98612  23.042   0.790  11.461
37247W        W98613  43.913   5.238   1.708
37248W        W98614   8.806   6.798   2.255
37249W        W98615  12.227  40.468   2.769
37250W        W98616  13.610  16.247  13.335
37251W        W98617   2.863   1.822  14.973
37252W        W98618   8.320  42.899   2.364
37253W        W98619  19.081   6.367   4.290
37254W        W98620  20.239  37.948   4.233
37255W        W98621  11.296  32.975   9.658
37256W        W98622  15.713  24.507   5.194
37257W        W98623  34.074  19.213   1.729
37258W        W98624  19.678  29.989   4.168
37259W        W98625  39.365  34.531   1.249
37260W        W98626  40.316  28.945  11.381
37261W        W98627   9.689  31.921  12.546
37262W        W98628  11.208  34.974   2.320
37263W        W98629  17.618   3.855  11.561
37264W        W98630   8.402  22.512   1.714
37265W        W98631  44.354   3.261   1.788
37266W        W98632  36.455  32.606   4.283
37267W        W98633  20.680  38.547  14.393
37268W        W98634  11.820  19.279   0.813
37269W        W98635   6.319  30.460   4.773
37270W        W98636  29.106   1.856   1.449
37271W        W98637  30.986  32.483  11.939
37272W        W98638  27.978  22.155  11.944
37273W        W98639  29.473  22.509  14.352
37274W        W98640  22.197  24.576   0.417
37275W        W98641  33.603  33.611  14.348
37276W        W98642  11.666  40.436  12.971
37277W        W98643  38.065   3.748  13.467
37278W        W98644  12.669  36.986  14.992
37279W        W98645   2.296  25.639   0.453
37280W        W98646  42.963  10.379   1.394
37281W        W98647  27.989  37.050   4.269
37282W        W98648  16.714   0.259   4.636
37283W        W98649  24.714  27.650   0.420
37284W        W98650   3.310  27.194   4.762
37285W        W98651   2.361  34.878   3.719
37286W        W98652  41.845  12.696  13.879
37287W        W98653   8.799  29.142   0.399
37288W        W98654  15.692  28.183  13.999
37289W        W98655  13.302  23.575   3.784
37290W        W98656   8.329  40.872  11.866
37291W        W98657  20.230  17.708  10.894
37292W        W98658  41.040  38.424  10.955
37293W        W98659  17.200   5.852  12.458
37294W        W98660  39.978  31.479  14.325
37295W        W98661  14.133  27.691   2.233
37296W        W98662  31.982   4.238  14.801
37297W        W98663  34.076  40.945  12.921
37298W        W98664   3.859  33.957  13.481
37299W        W98665  35.485  31.004   2.694
37300W        W98666  38.060   2.756   3.729
37301W        W98667  43.892  27.641  11.072
37302W        W98668  43.797  10.715  11.945
37303W        W98669   4.718  26.035  14.339
37304W        W98670  17.706   7.681   3.688
37305W        W98671  11.854  39.853   1.320
37306W        W98672   0.959   2.311   1.372
37307W        W98673  11.668  16.747   1.360
37308W        W98674   4.208  20.040  11.010
37309W        W98675  43.293  20.051   4.685
37310W        W98676  38.901  37.903   3.697
37311W        W98677  40.882  31.028  10.937
37312W        W98678  20.086  39.011  12.064
37313W        W98679  37.365  37.442  10.049
37314W        W98680  18.140  18.547  14.469
37315W        W98681  44.287   6.914  13.425
37316W        W98682  43.317  19.552   3.813
37317W        W98683  21.182  31.427  14.863
37318W        W98684  41.408   9.830  14.946
37319W        W98685   3.789  18.240   2.869
37320W        W98686  12.827  24.568   1.704
37321W        W98687  39.329  38.474  12.347
37322W        W98688  17.173   4.739  10.033
37323W        W98689  22.017   9.384   2.328
37324W        W98690  40.410   2.911   1.803
37325W        W98691  35.402  31.504  13.455
37326W        W98692  15.122  24.135  12.856
37327W        W98693  33.391  32.997   2.834
37328W        W98694  39.980   1.868  14.477
37329W        W98695   0.456  29.040  12.487
37330W        W98696  14.598  23.664   1.374
37331W        W98697   8.800  24.613  14.929
37332W        W98698  38.372  15.713   4.641
37333W        W98699  30.622  37.031   0.801
37334W        W98700  35.584  27.528  12.523
37335W        W98701  38.054  26.497  12.943
37336W        W98702  44.889  30.035  14.873
37337W        W98703  31.620   5.743  12.916
37338W        W98704   0.756  34.030   2.701
37339W        W98705  27.645  36.854   2.408
37340W        W98706  43.511   6.805  10.592
37341W        W98707  28.509  37.027   4.341
37342W        W98708  20.637  16.657   4.261
37343W        W98709  42.832   4.924   1.902
37344W        W98710  24.052  20.082   3.812
37345W        W98711  32.444  39.499   4.638
37346W        W98712  17.602  43.392   2.757
37347W        W98713  18.145  30.073   0.424
37348W        W98714  35.991   6.418   3.188
37349W        W98715  21.692  10.724  13.915
37350W        W98716  37.405  44.885   0.860
37351W        W98717  44.823  29.171   1.312
37352W        W98718  42.944   2.307   3.333
37353W        W98719  32.400   2.822  13.400
37354W        W98720  31.910   7.384   3.864
37355W        W98721  29.532   2.464  14.910
37356W        W98722  11.853  14.141   0.945
37357W        W98723   4.825  19.139   3.807
37358W        W98724  12.642   3.234   4.154
37359W        W98725  42.830  38.935   4.766
37360W        W98726  13.107   7.210  12.516
37361W        W98727  16.591  11.241   2.305
37362W        W98728  18.613  15.810  14.426
37363W        W98729  39.035   3.762   1.742
37364W        W98730  26.488  14.250  11.922
37365W        W98731   3.775  15.112  14.398
37366W        W98732   7.225  32.139   4.305
37367W        W98733   2.790  32.478   3.864
37368W        W98734  33.934  42.415   5.221
37369W        W98735  32.916  17.749   0.432
37370W        W98736   3.883  40.523  10.948
37371W        W98737  11.679  26.067   0.943
37372W        W98738  39.426  24.604  13.357
37373W        W98739  20.149  31.900   3.749
37374W        W98740   1.759  30.009   9.655
37375W        W98741  33.571  32.058  11.998
37376W        W98742  40.019  31.901  11.443
37377W        W98743   0.882  20.677  13.401
37378W        W98744  25.696   9.749  10.981
37379W        W98745  37.860  22.683   0.462
37380W        W98746  29.478  17.149   2.893
37381W        W98747  10.664  29.050  12.849
37382W        W98748  31.987  37.450  13.834
37383W        W98749   9.813  35.958  14.930
37384W        W98750   3.804  42.440   0.320
37385W        W98751  40.041   8.687   3.766
37386W        W98752  10.697  43.920  12.548
37387W        W98753  23.011   4.905  14.991
37388W        W98754  17.665  19.741  12.378
37389W        W98755  34.603   2.404   1.767
37390W        W98756  15.641  13.670   4.229
37391W        W98757  30.914  25.160   4.770
37392W        W98758   3.290  17.588  13.959
37393W        W98759  39.416  19.091  10.949
37394W        W98760  24.534  19.647  12.853
37395W        W98761  17.608  24.490  14.419
37396W        W98762  23.048  20.614  10.478
37397W        W98763   2.356  23.697   1.697
37398W        W98764   4.406   4.841  14.373
37399W        W98765  17.194  33.437   2.897
37400W        W98766  16.578  32.126  10.989
37401W        W98767  25.548   9.696   1.254
37402W        W98768  14.745  20.083   2.194
37403W        W98769  23.023  22.148  11.468
37404W        W98770   1.886   5.326  14.007
37405W        W98771  27.040  36.399   0.462
37406W        W98772  34.892  30.001   2.669
37407W        W98773  13.826  23.236  14.878
37408W        W98774  44.339  38.446   2.232
37409W        W98775  10.868  13.136  10.417
37410W        W98776  37.458   6.410  11.913
37411W        W98777  22.011  30.146   3.821
37412W        W98778   5.810  40.835  13.311
37413W        W98779  31.087  36.939   3.341
37414W        W98780  12.210   2.900   4.351
37415W        W98781  18.229   8.264  11.527
37416W        W98782   4.928   2.368   0.904
37417W        W98783  32.489  16.647   1.776
37418W        W98784  12.358  36.464   1.358
37419W        W98785  43.911  29.921  10.444
37420W        W98786   4.207  20.075  14.796
37421W        W98787  35.860   7.221   3.781
37422W        W98788  15.649  27.545   0.312
37423W        W98789  25.156  16.181  14.383
37424W        W98790  23.572   3.911   3.694
37425W        W98791  18.575  18.679  12.340
37426W        W98792  14.168  27.151   1.439
37427W        W98793  36.474  42.349  13.938
37428W        W98794  35.066  28.524   4.316
37429W        W98795  39.875   5.899   0.321
37430W        W98796  37.430  27.146  14.847
37431W        W98797  42.425  13.299   3.751
37432W        W98798  18.743  41.802   4.120
37433W        W98799  39.361  40.521  12.392
37434W        W98800  32.139  29.437  14.347
37435W        W98801   5.843  28.639   3.738
37436W        W98802  10.182  39.880   4.653
37437W        W98803   1.290  11.319  12.564
37438W        W98804  39.396  27.107  10.527
37439W        W98805  40.904  32.528   1.353
37440W        W98806  13.138   6.859   4.789
37441W        W98807  17.205  22.659   4.191
37442W        W98808   1.439  21.641   0.371
37443W        W98809   5.350  43.326   3.368
37444W        W98810  11.350  35.887   0.289
37445W        W98811  42.023  30.987  11.065
37446W        W98812  37.035  22.071  13.538
37447W        W98813   3.872  15.107   4.731
37448W        W98814  15.739  34.885  13.887
37449W        W98815  12.332  23.665   3.177
37450W        W98816  19.055   1.968   4.695
37451W        W98817  27.075  35.925   1.357
37452W        W98818  29.634   9.344   0.417
37453W        W98819   1.958   3.350   1.266
37454W        W98820  13.158  28.583   4.647
37455W        W98821   4.204  26.691   4.645
37456W        W98822  34.930   7.771  11.901
37457W        W98823   6.771   1.833   1.227
37458W        W98824  40.861  28.581   0.855
37459W        W98825  15.309   0.967  14.867
37460W        W98826  25.649  14.702   0.417
37461W        W98827  33.543  31.032   0.838
37462W        W98828  16.298  19.534   3.283
37463W        W98829   0.355  26.500  14.768
37464W        W98830   3.797   0.900  14.867
37465W        W98831  25.504  14.690  11.421
37466W        W98832  23.030  30.539   3.755
37467W        W98833  42.476  40.476   3.333
37468W        W98834  26.994  23.527  11.597
37469W        W98835  40.049  17.226  12.479
37470W        W98836   2.332   2.877   4.732
37471W        W98837  13.775  10.367  13.900
37472W        W98838  40.970  25.684  12.836
37473W        W98839  32.600  19.749   3.153
37474W        W98840  18.641  16.172  10.000
37475W        W98841  28.106  25.591   0.817
37476W        W98842  40.049  22.057  12.978
37477W        W98843  26.561  18.178   2.674
37478W        W98844  44.830   0.862   3.221
37479W        W98845  13.638  44.847  11.600
37480W        W98846  28.997  19.148  10.903
37481W        W98847  38.842   8.286   4.127
37482W        W98848  17.068  16.682   3.643
37483W        W98849   1.776  16.667   1.309
37484W        W98850   8.845  12.816  14.993
37485W        W98851  10.341  22.123  12.971
37486W        W98852   0.249  32.407   3.268
37487W        W98853   7.832  17.297   0.461
37488W        W98854  25.116  15.091   2.706
37489W        W98855   0.455   2.859  14.972
37490W        W98856  26.975  32.475  14.479
37491W        W98857   7.687   6.785  10.492
37492W        W98858   4.442   8.880   1.820
37493W        W98859  31.967  41.007   2.677
37494W        W98860  37.498   9.863  13.898
37495W        W98861  28.944   1.299  13.979
37496W        W98862  25.044  35.054   2.233
37497W        W98863  20.201  15.578  10.086
37498W        W98864  13.804  38.513   1.861
37499W        W98865  26.608   8.231   1.213
37500W        W98866   7.339   8.395   3.669
37501W        W98867  29.163  31.055   1.246
37502W        W98868  44.813  12.151   1.917
37503W        W98869   5.410   1.899  12.901
37504W        W98870  38.486   1.294   1.357
37505W        W98871  43.855  36.515   1.262
37506W        W98872  18.662  28.082  14.294
37507W        W98873  24.005  19.561   3.351
37508W        W98874  34.533  39.314  10.960
37509W        W98875  39.533   9.800   3.672
37510W        W98876  23.639  42.362   3.322
37511W        W98877  15.763   5.439   3.198
37512W        W98878   9.315  17.288   2.387
37513W        W98879  10.161   4.898  10.156
37514W        W98880  33.382  14.714  10.034
37515W        W98881  44.849   8.846  14.434
37516W        W98882   5.297  33.013   1.246
37517W        W98883  40.829  22.671  10.419
37518W        W98884  29.639  25.526  10.940
37519W        W98885   5.320   3.944  13.887
37520W        W98886  38.332  27.601   3.808
37521W        W98887  24.055   3.265   1.366
37522W        W98888  28.577   8.403  14.382
37523W        W98889  26.156  43.460   2.419
37524W        W98890  29.433  25.675   1.379
37525W        W98891  25.627  44.300   4.117
37526W        W98892  12.626  10.828   3.238
37527W        W98893  34.512  28.044  14.876
37528W        W98894  40.005  13.669   4.724
37529W        W98895  13.201  14.281  10.451
37530W        W98896  44.824  28.138  12.096
37531W        W98897  10.752  34.069   4.622
37532W        W98898  42.016  26.456   1.332
37533W        W98899   8.794  37.357   4.138
37534W        W98900  27.182  14.209  14.766
37535W        W98901  16.270  13.243  14.348
37536W        W98902  44.935  20.628   4.652
37537W        W98903  37.507  42.410   3.808
37538W        W98904   7.707  35.366   3.804
37539W        W98905  44.877  22.221   0.416
37540W        W98906  41.370   2.295   0.785
37541W        W98907  24.623  17.646  13.956
37542W        W98908  31.544  39.956   2.891
37543W        W98909  10.375  21.050  14.885
37544W        W98910   2.779  15.300   3.338
37545W        W98911   4.441  40.881  11.025
37546W        W98912  17.215  14.236   0.442
37547W        W98913  39.543  38.855   0.924
37548W        W98914  18.592  44.771  13.470
37549W        W98915  40.885  29.956  13.373
37550W        W98916  37.053  18.128  14.870
37551W        W98917   5.825   5.417   1.762
37552W        W98918  24.996  28.974   0.377
37553W        W98919   6.196  36.395   1.395
37554W        W98920   9.675  40.809  14.361
37555W        W98921  32.886  18.094   1.932
37556W        W98922  21.558  14.205  12.561
37557W        W98923  35.381  29.001   0.306
37558W        W98924  18.707  14.601   4.679
37559W        W98925  17.304  13.327  11.906
37560W        W98926  40.549  39.940  12.852
37561W        W98927  21.175   5.789   2.852
37562W        W98928  39.383  14.138   4.828
37563W        W98929  12.135  35.402  14.318
37564W        W98930  18.572  32.598  10.579
37565W        W98931  18.552   5.284   0.270
37566W        W98932   3.804  38.470   2.897
37567W        W98933  28.663  19.214   3.834
37568W        W98934  16.627  15.238   3.757
37569W        W98935  38.930  20.065   3.315
37570W        W98936   7.802  34.427   0.883
37571W        W98937   6.327  11.752   3.747
37572W        W98938   9.220  19.596  11.975
37573W        W98939  23.695   0.746  12.974
37574W        W98940   4.882   0.464  11.104
37575W        W98941  28.172  27.194   5.305
37576W        W98942  10.700   1.743   3.822
37577W        W98943  26.183  40.967  10.931
37578W        W98944  20.260   6.194   4.181
37579W        W98945  42.874  22.208   1.414
37580W        W98946  44.935  12.314  13.363
37581W        W98947  32.579  17.726  10.948
37582W        W98948  15.278  39.886   2.230
37583W        W98949  20.625  34.542  14.498
37584W        W98950   3.417   7.877   0.834
37585W        W98951  33.592  24.049   3.337
37586W        W98952  10.735   4.219   1.437
37587W        W98953  23.577  29.032   1.777
37588W        W98954  43.387  28.447   4.296
37589W        W98955  36.482  23.620   4.607
37590W        W98956   5.712  28.071   4.247
37591W        W98957  10.241  25.964   2.350
37592W        W98958  33.082  42.851  12.547
37593W        W98959  25.707  43.399  13.808
37594W        W98960  27.064   0.861   1.865
37595W        W98961  23.667  14.266   4.271
37596W        W98962  16.791  16.642   1.731
37597W        W98963  10.699   7.777   3.755
37598W        W98964  44.348  27.131  14.510
37599W        W98965  29.510   9.648  13.019
37600W        W98966  33.496   8.159  10.412
37601W        W98967  40.983  43.990   3.279
37602W        W98968   2.726  30.036  10.983
37603W        W98969  33.049  35.393  12.007
37604W        W98970  29.172  21.666  13.839
37605W        W98971  23.144  19.245  11.576
37606W        W98972  15.243  12.819   3.702
37607W        W98973   2.361  38.338  12.075
37608W        W98974  12.204  30.593  12.949
37609W        W98975  33.106  44.941   0.337
37610W        W98976   0.750  24.215   4.299
37611W        W98977  27.075  21.545  12.561
37612W        W98978  16.572  36.029   1.307
37613W        W98979  18.722  33.084  10.979
37614W        W98980   2.771  11.652   1.356
37615W        W98981  31.575  28.613  13.378
37616W        W98982  17.211  31.601   2.301
37617W        W98983  38.545  32.011   1.930
37618W        W98984   9.812   1.330   1.215
37619W        W98985  43.496  19.700   1.343
37620W        W98986  38.507   6.818  12.506
37621W        W98987  16.157  36.936   1.317
37622W        W98988  24.125  28.998   3.798
37623W        W98989  37.993  33.945   1.835
37624W        W98990  19.682  27.073   3.190
37625W        W98991   8.373  10.801  13.809
37626W        W98992   7.704  12.229  10.417
37627W        W98993  38.834  26.074   3.708
37628W        W98994  14.193  33.618  13.869
37629W        W98995  44.444  16.785   4.350
37630W        W98996   4.311  28.933  10.071
37631W        W98997  26.573  35.464   1.415
37632W        W98998  38.541   8.226  13.447
37633W        W98999   9.324   4.788  10.104
37634W        W99000   9.334  19.101   0.430
37635W        W99001  23.711  38.396   3.361
37636W        W99002  35.043  37.943  12.877
37637W        W99003  24.976  13.789  13.354
37638W        W99004  21.527   0.763  13.059
37639W        W99005  14.689  35.979   1.244
37640W        W99006  10.345  43.875  12.014
37641W        W99007   5.434   0.371   3.757
37642W        W99008   9.840  41.435  11.060
37643W        W99009  16.703  20.572  13.880
37644W        W99010  28.016   0.314   3.233
37645W        W99011  19.249   5.420   4.308
37646W        W99012  18.221  24.633  11.557
37647W        W99013  14.829  40.870   2.281
37648W        W99014  10.796  32.060  14.766
37649W        W99015  35.983  18.760  14.793
37650W        W99016   0.379  43.446   1.717
37651W        W99017  37.565   1.243  11.397
37652W        W99018  14.213  10.722   4.657
37653W        W99019   5.926  11.323  13.878
37654W        W99020  17.130  35.449  13.887
37655W        W99021   9.391  12.623  10.537
37656W        W99022  33.518  24.148   2.873
37657W        W99023  34.435  39.529  12.379
37658W        W99024  30.914  16.689   9.929
37659W        W99025  37.427  10.681  14.334
37660W        W99026   9.790  43.911  11.577
37661W        W99027   1.952  17.775   4.121
37662W        W99028  29.960  24.672  11.401
37663W        W99029  39.442  18.613   1.293
37664W        W99030  21.262   5.808  11.890
37665W        W99031  28.655   5.765  14.924
37666W        W99032  31.998  29.099  10.155
37667W        W99033  33.127  41.465  11.930
37668W        W99034  42.441  40.525   1.696
37669W        W99035  10.859  44.308  14.344
37670W        W99036  22.627   9.708  11.607
37671W        W99037   4.777   5.735   1.925
37672W        W99038  15.133  25.652  11.481
37673W        W99039  43.369  12.342  10.645
37674W        W99040  14.591  24.074   1.376
37675W        W99041  19.675  11.206   4.272
37676W        W99042   6.200   1.271  10.123
37677W        W99043   0.907   8.247  11.965
37678W        W99044   0.383  22.512  12.933
37679W        W99045  19.174  26.148  14.818
37680W        W99046  37.881  27.038   3.718
37681W        W99047   5.202  20.719   4.270
37682W        W99048  40.832  23.208   1.896
37683W        W99049  30.536   2.348   0.837
37684W        W99050   0.490  23.527   2.826
37685W        W99051   9.320  28.521   3.275
37686W        W99052   6.803  29.451  14.820
37687W        W99053  27.607  36.443   4.634
37688W        W99054  25.520  27.666   1.372
37689W        W99055  35.978  28.619  10.955
37690W        W99056   3.342  41.399   2.215
37691W        W99057  31.128  21.165  10.575
37692W        W99058   5.754   5.322   4.145
37693W        W99059   3.940  23.096   2.718
37694W        W99060  18.260  44.388  12.401
37695W        W99061  11.181   6.391   3.854
37696W        W99062  23.660   8.195   3.698
37697W        W99063   6.247   0.936   3.705
37698W        W99064  39.377  18.681   0.252
37699W        W99065  27.992  44.803   4.637
37700W        W99066  27.565   7.835   3.226
37701W        W99067  28.955  41.853  11.945
37702W        W99068   8.267  31.629   1.928
37703W        W99069   6.235  28.016  12.939
37704W        W99070  30.152   9.673   0.772
37705W        W99071  16.086  39.809   1.407
37706W        W99072  22.642  32.425   2.219
37707W        W99073   6.895  44.819   4.836
37708W        W99074  17.228  12.730   0.448
37709W        W99075  32.562  37.836   1.847
37710W        W99076  10.747  23.706   4.332
37711W        W99077  18.184  30.002  10.514
37712W        W99078  24.201  44.924   2.360
37713W        W99079  43.502  26.590   1.337
37714W        W99080  13.755  24.536  10.896
37715W        W99081  25.212   6.328   0.261
37716W        W99082  39.839   4.847   3.710
37717W        W99083   8.232  33.895  12.423
37718W        W99084  17.211  27.568   2.360
37719W        W99085  42.780  17.719   4.685
37720W        W99086  18.651  37.507   2.190
37721W        W99087  44.334  26.537  13.454
37722W        W99088  30.634   4.700  12.442
37723W        W99089  35.957  43.918  13.398
37724W        W99090   0.811  11.185  11.073
37725W        W99091  15.190   0.491  13.433
37726W        W99092  13.808  43.493  12.527
37727W        W99093   7.909   4.401   0.769
37728W        W99094  32.498   4.399   0.433
37729W        W99095  24.028  30.145   1.212
37730W        W99096  24.060  43.895  13.851
37731W        W99097  34.902  12.229  13.879
37732W        W99098   0.362  35.950   2.883
37733W        W99099  28.529  13.147  11.397
37734W        W99100  10.795  41.308   3.381
37735W        W99101  43.842  30.074  12.575
37736W        W99102  20.694  11.857   4.168
37737W        W99103  39.498  36.912   3.373
37738W        W99104   3.376  43.289  10.561
37739W        W99105  11.697   6.692  13.475
37740W        W99106  28.163  24.649   1.328
37741W        W99107  11.781  26.511   2.383
37742W        W99108  40.469  43.300  13.924
37743W        W99109  22.112  12.246  10.912
37744W        W99110  11.705  35.495   4.630
37745W        W99111  24.046  21.250   3.827
37746W        W99112   5.400   9.698  13.476
37747W        W99113  24.676   4.714  14.022
37748W        W99114  29.059  32.892  11.911
37749W        W99115  26.006  44.976  12.421
37750W        W99116  22.042  33.408  14.496
37751W        W99117  42.899  21.511  11.093
37752W        W99118  31.927  12.710   4.125
37753W        W99119  15.228  29.511   0.957
37754W        W99120  24.581  35.962   3.361
37755W        W99121   4.291  40.020   0.271
37756W        W99122  33.874  42.459   2.306
37757W        W99123  22.248   5.704   2.349
37758W        W99124   7.221  21.584  12.479
37759W        W99125  27.490  43.937  12.468
37760W        W99126  12.710  24.635  13.478
37761W        W99127  37.514   7.722   4.766
37762W        W99128  25.170  31.980  13.053
37763W        W99129  19.585   6.732  12.539
37764W        W99130   1.775  14.318   3.301
37765W        W99131  43.010  39.315   0.444
37766W        W99132   4.856  38.552   3.682
37767W        W99133  16.704  39.933  11.039
37768W        W99134  32.004  28.187  11.435
37769W        W99135  25.174  44.497   2.349
37770W        W99136   9.334  30.015  12.466
37771W        W99137  20.767   7.703   2.702
37772W        W99138  32.906   0.344   4.118
37773W        W99139  32.925  36.078   2.349
37774W        W99140  17.735  38.003  12.078
37775W        W99141  35.929  13.845   0.767
37776W        W99142   2.921   3.718   9.588
37777W        W99143  18.295  14.119  10.529
37778W        W99144  23.157   1.819  11.381
37779W        W99145  15.190  12.736  11.035
37780W        W99146   9.732  40.849  13.461
37781W        W99147  20.713  39.485   1.732
37782W        W99148  23.105  25.684  10.435
37783W        W99149  32.994   2.361   3.739
37784W        W99150   8.896   5.213   2.354
37785W        W99151  16.600   7.831  14.326
37786W        W99152  44.846  36.376  13.401
37787W        W99153  15.232  32.403   0.255
37788W        W99154  19.549  30.993   2.395
37789W        W99155   7.274  39.966  14.916
37790W        W99156  19.065  36.582  11.917
37791W        W99157  17.671   3.737  10.625
37792W        W99158  20.167   3.719  11.913
37793W        W99159  20.760   4.789  11.045
37794W        W99160  27.185  31.458  13.913
37795W        W99161  33.088  30.970  12.956
37796W        W99162   3.255  27.538   5.260
37797W        W99163  39.383  33.478   1.722
37798W        W99164  28.059  13.264   2.318
37799W        W99165  42.392  44.419   3.327
37800W        W99166  37.563  32.464   2.857
37801W        W99167   1.446   8.748  12.061
37802W        W99168  16.618  30.034  14.007
37803W        W99169   5.701  14.104  11.861
37804W        W99170   9.215  34.934   4.235
37805W        W99171  25.157   5.216  11.519
37806W        W99172  32.892  17.653   1.276
37807W        W99173  27.509   5.235   3.211
37808W        W99174  31.961  44.357   3.826
37809W        W99175  24.626  31.407  13.011
37810W        W99176  26.543  42.991   4.617
37811W        W99177  29.661  28.159   0.770
37812W        W99178  24.043  20.179   2.269
37813W        W99179  44.262  34.431  11.024
37814W        W99180  10.311  36.871  10.638
37815W        W99181  39.826  20.745   3.180
37816W        W99182  30.598  29.651   2.688
37817W        W99183  34.065   5.220  13.385
37818W        W99184  30.083   6.308  14.336
37819W        W99185   1.242   2.803  12.545
37820W        W99186  39.375  38.421   1.441
37821W        W99187   6.901  17.776  14.327
37822W        W99188  44.849   2.454   4.738
37823W        W99189  31.110  19.106  12.068
37824W        W99190  21.567  20.749   0.762
37825W        W99191  16.131  13.304   4.227
37826W        W99192  32.502  37.452  10.583
37827W        W99193   8.307  43.336  11.584
37828W        W99194  18.236  12.197  12.084
37829W        W99195   2.916  32.052  11.006
37830W        W99196   2.838  13.144  11.422
37831W        W99197  34.932  14.098  13.904
37832W        W99198  31.984  10.718  11.991
37833W        W99199   2.447  24.095   9.993
37834W        W99200  31.997  41.859  14.491
37835W        W99201   3.374  20.707   1.389
37836W        W99202  40.023   9.832  12.842
37837W        W99203  24.582  14.246  12.945
37838W        W99204  18.584  21.651   1.314
37839W        W99205  41.341   3.383   3.769
37840W        W99206   0.963  37.998   4.703
37841W        W99207  38.420  14.222  14.316
37842W        W99208  12.294  16.743   2.211
37843W        W99209  13.271  36.552   0.780
37844W        W99210  13.203   3.350   3.271
37845W        W99211  21.561  16.073   1.212
37846W        W99212  32.509   2.337  13.794
37847W        W99213  43.420  19.752  10.485
37848W        W99214  31.953  29.663  12.094
37849W        W99215   4.699  37.356  12.001
37850W        W99216  42.313  17.162   1.917
37851W        W99217  21.564  43.386  11.560
37852W        W99218   0.908  12.735  11.056
37853W        W99219   5.730  23.602  13.840
37854W        W99220   3.234  18.654   2.873
37855W        W99221  43.851   9.879   2.724
37856W        W99222  31.035  38.511  14.010
37857W        W99223  22.710  23.554   0.385
37858W        W99224  13.143  44.439   0.372
37859W        W99225  18.250   0.865  10.430
37860W        W99226  36.917  40.020   1.381
37861W        W99227   0.408  34.003  12.072
37862W        W99228  32.043  17.061   1.874
37863W        W99229  29.095   2.817   1.859
37864W        W99230   3.272  19.728  12.351
37865W        W99231  27.569  31.547   5.766
37866W        W99232  16.753  44.828  14.420
37867W        W99233  15.719  43.949  12.453
37868W        W99234  13.183   4.765   4.836
37869W        W99235  30.632   9.858   0.874
37870W        W99236   4.789  15.129  12.020
37871W        W99237   0.888   8.713   3.237
37872W        W99238  32.942   9.335   2.673
37873W        W99239  42.511  43.475   0.363
37874W        W99240  10.334   4.934  13.342
37875W        W99241   5.783  26.998  13.826
37876W        W99242  25.537  37.463  12.512
37877W        W99243  31.638  32.098   0.786
37878W        W99244  12.680  33.546  13.933
37879W        W99245  15.226   4.887  12.036
37880W        W99246  29.465   3.420   3.299
37881W        W99247  37.069   9.651  13.389
37882W        W99248  37.022  37.036   3.185
37883W        W99249  31.526  18.550   0.796
37884W        W99250  14.696  13.240   3.866
37885W        W99251  31.492  10.855   2.811
37886W        W99252  13.816  12.780  14.416
37887W        W99253  22.536  32.116  14.487
37888W        W99254   4.895   0.954  12.371
37889W        W99255  10.325   0.432   1.876
37890W        W99256  42.890  44.900   2.385
37891W        W99257  39.923  21.727   2.298
37892W        W99258  24.188  16.714  14.870
37893W        W99259  24.203  18.548  10.901
37894W        W99260   3.857  25.038  12.378
37895W        W99261   7.830  23.211   3.352
37896W        W99262  19.151   0.474  13.318
37897W        W99263   7.885  13.232   3.241
37898W        W99264  14.736   5.929   1.258
37899W        W99265  24.222  13.762  11.981
37900W        W99266  40.506  40.943  14.003
37901W        W99267   9.171  19.075   4.627
37902W        W99268  41.893  30.978  10.624
37903W        W99269  17.135  18.719   2.874
37904W        W99270  26.686   9.709   0.937
37905W        W99271  28.965   5.842   3.698
37906W        W99272  18.746  11.665   3.741
37907W        W99273   2.894  44.850  12.481
37908W        W99274  31.471   9.759   3.797
37909W        W99275  17.584  33.545   0.962
37910W        W99276   8.395  13.231  13.475
37911W        W99277  37.832  32.426   0.260
37912W        W99278  38.971  26.696  14.026
37913W        W99279  26.666  31.911   0.298
37914W        W99280  37.861  30.000  12.976
37915W        W99281  30.013  13.608  12.426
37916W        W99282  20.263  41.859   4.674
37917W        W99283  13.105   7.397   0.256
37918W        W99284  15.673  25.079  14.450
37919W        W99285  24.551  16.688  12.999
37920W        W99286  43.406  32.481   1.694
37921W        W99287   6.796   2.337   4.822
37922W        W99288  17.153  34.882  12.497
37923W        W99289  43.881  24.479   1.821
37924W        W99290  37.461   5.701   2.818
37925W        W99291   7.861   1.951   3.792
37926W        W99292  31.616  20.731  11.057
37927W        W99293  18.621  15.274   5.291
37928W        W99294  21.031  15.746   3.666
37929W        W99295  22.162  15.719   4.321
37930W        W99296  34.919  38.833  11.486
37931W        W99297   9.252  14.176   0.476
37932W        W99298  11.839   8.750   2.224
37933W        W99299  43.838  32.028   1.431
37934W        W99300  15.744  25.191   2.328
37935W        W99301  32.401   3.897   3.648
37936W        W99302  35.032  14.764   0.736
37937W        W99303  20.161  14.220  12.428
37938W        W99304  14.735   7.171   1.449
37939W        W99305  44.331  10.220   0.880
37940W        W99306  40.399  11.633  13.931
37941W        W99307  44.410  14.157  11.009
37942W        W99308  21.224  27.019   2.855
37943W        W99309   7.750   0.438  12.061
37944W        W99310   6.275  14.603  14.398
37945W        W99311   1.827  13.113   0.327
37946W        W99312  15.631   4.885  12.873
37947W        W99313  35.548  14.716  12.877
37948W        W99314   3.729  28.614  12.014
37949W        W99315   6.325   0.490  10.894
37950W        W99316  18.291  44.348   2.840
37951W        W99317   7.208  17.168   4.263
37952W        W99318  15.235  25.641  13.986
37953W        W99319  39.966   5.830  13.941
37954W        W99320  25.043  13.685   2.665
37955W        W99321   9.787  13.620  11.868
37956W        W99322  28.180  16.625  12.940
37957W        W99323   4.363   5.243  13.886
37958W        W99324  17.680  28.177   2.285
37959W        W99325  16.281   8.703  13.477
37960W        W99326   1.910  23.089   4.808
37961W        W99327  42.778  22.239   2.408
37962W        W99328   3.777   6.699  10.600
37963W        W99329  31.978  32.007   5.254
37964W        W99330   1.334  10.749   2.740
37965W        W99331  23.510  40.500  10.457
37966W        W99332  38.509   8.339  14.506
37967W        W99333  31.067  15.224  11.479
37968W        W99334  39.044   8.776  12.083
37969W        W99335  42.951   9.314   4.789
37970W        W99336  10.727  36.383  14.383
37971W        W99337   0.342  20.205  12.087
37972W        W99338   6.829   9.207   2.269
37973W        W99339   8.377  26.565   0.261
37974W        W99340  10.175  35.899   0.757
37975W        W99341   0.252  35.915  11.391
37976W        W99342  14.642  18.738   1.287
37977W        W99343  14.278  26.501   3.720
37978W        W99344  11.194  29.093  10.490
37979W        W99345  41.505  31.523   2.831
37980W        W99346  34.543  26.118  11.545
37981W        W99347  36.593   1.802   9.953
37982W        W99348  40.027  40.540  12.527
37983W        W99349   4.887  42.881   1.439
37984W        W99350  36.940  22.693   3.763
37985W        W99351   1.378   0.299  13.889
37986W        W99352   1.966  21.028  12.397
37987W        W99353  20.216  19.616   4.811
37988W        W99354  41.922   6.295   2.216
37989W        W99355   3.875  20.767   2.207
37990W        W99356  20.212  30.556  12.071
37991W        W99357  26.636  29.572  11.912
37992W        W99358   2.912   2.311  14.285
37993W        W99359   1.877  10.177   1.795
37994W        W99360   9.881  16.099  14.454
37995W        W99361  43.914   0.315   4.156
37996W        W99362   8.880  40.393  13.440
37997W        W99363  28.577  43.486  10.964
37998W        W99364  37.050  21.533  13.335
37999W        W99365  42.501  34.903   0.282
38000W        W99366  26.004   8.892  11.884
38001W        W99367  25.532   4.823  14.011
38002W        W99368  11.281  11.141   2.353
38003W        W99369   8.829  40.422   1.210
38004W        W99370  23.736  16.624  11.528
38005W        W99371  24.600  44.899   1.265
38006W        W99372  32.611  15.612  12.086
38007W        W99373  20.105   6.712  12.060
38008W        W99374   8.249  37.911   4.802
38009W        W99375   5.252  44.777  10.970
38010W        W99376   6.914  36.546   0.323
38011W        W99377  16.571   3.811  13.061
38012W        W99378  16.680  13.612  10.984
38013W        W99379  30.588  15.153   0.293
38014W        W99380  11.351   7.365  13.957
38015W        W99381  14.758  18.247  11.105
38016W        W99382   6.237  16.217   4.325
38017W        W99383  28.127  43.400  11.541
38018W        W99384  17.794  28.952  12.410
38019W        W99385  19.076   6.911   0.945
38020W        W99386  13.313  33.897  14.961
38021W        W99387   4.383  44.958  10.599
38022W        W99388  40.324  42.482  14.407
38023W        W99389  26.673   1.473  13.033
38024W        W99390  28.936  22.235   0.843
38025W        W99391  28.555  16.742   0.289
38026W        W99392  13.169  20.250  14.323
38027W        W99393  29.995  12.809  13.849
38028W        W99394  25.666  25.547  12.865
38029W        W99395  12.808  15.599  11.454
38030W        W99396  22.996   1.473   3.696
38031W        W99397  39.974   5.402  11.537
38032W        W99398   4.861   8.220   2.272
38033W        W99399  30.956  33.934   2.843
38034W        W99400  11.249  23.000   3.749
38035W        W99401  23.225  42.435  12.533
38036W        W99402  22.221  12.841   0.797
38037W        W99403  29.011  37.425  13.805
38038W        W99404   7.385  30.478  12.402
38039W        W99405  10.374  22.576  10.640
38040W        W99406  26.183  17.227   0.243
38041W        W99407  34.498  18.654  14.352
38042W        W99408  12.241  33.403   1.226
38043W        W99409  24.650  36.009  13.868
38044W        W99410  32.513  27.087   3.676
38045W        W99411   7.755   6.426   2.684
38046W        W99412  23.699  22.512   0.453
38047W        W99413  13.777  39.026  13.997
38048W        W99414  36.884   9.860   0.426
38049W        W99415  25.622   9.345  11.036
38050W        W99416  38.058   9.862  12.837
38051W        W99417  18.055  24.498  14.488
38052W        W99418  32.551  32.045   2.391
38053W        W99419  10.355  35.380   1.366
38054W        W99420  32.927  15.270   3.240
38055W        W99421  33.506  35.104  11.021
38056W        W99422  38.558  12.235   1.224
38057W        W99423  32.930  14.245  12.373
38058W        W99424   0.399   4.762  12.470
38059W        W99425   8.380  40.354  12.092
38060W        W99426   7.358   4.767  10.896
38061W        W99427  35.910  31.014  11.044
38062W        W99428  21.529  43.017   1.894
38063W        W99429  11.265  10.875   1.307
38064W        W99430  23.175  23.069   4.684
38065W        W99431  38.031   8.665  14.344
38066W        W99432   2.239  18.093  13.356
38067W        W99433  34.945  21.544   1.247
38068W        W99434   9.721   8.838  14.808
38069W        W99435   7.842  26.987  11.545
38070W        W99436   8.323   0.915  10.433
38071W        W99437   0.965  39.330  11.606
38072W        W99438   3.280  12.735  14.958
38073W        W99439  30.593  19.193   2.396
38074W        W99440  17.211   1.388   4.836
38075W        W99441  40.343   1.806   5.230
38076W        W99442  22.142  36.526  14.962
38077W        W99443  13.777   2.803   0.872
38078W        W99444  28.059   6.197  11.395
38079W        W99445  38.347  13.636  12.054
38080W        W99446   2.956  22.089  11.526
38081W        W99447   9.198   7.807   4.765
38082W        W99448  35.901  14.242   3.855
38083W        W99449  26.064  16.578  12.518
38084W        W99450  22.206  16.610   0.451
38085W        W99451  20.101  18.613   4.273
38086W        W99452  33.018  13.687  14.793
38087W        W99453  18.729  39.897   3.320
38088W        W99454  11.851  38.851  10.561
38089W        W99455  10.246  20.590  13.366
38090W        W99456  26.582   6.388  14.005
38091W        W99457   8.741   8.199  12.067
38092W        W99458  36.434  26.009  14.886
38093W        W99459  40.985  41.874   0.419
38094W        W99460  16.082  11.832   2.859
38095W        W99461  41.859  12.704  12.095
38096W        W99462  17.247   3.793   3.314
38097W        W99463  20.053  10.664  14.931
38098W        W99464  16.082  11.246  14.405
38099W        W99465  35.986  32.037  11.056
38100W        W99466  36.371  22.059  11.569
38101W        W99467  22.200  35.950   2.772
38102W        W99468  33.100  27.183   0.338
38103W        W99469  32.007  23.216   1.797
38104W        W99470  19.733  34.457   9.589
38105W        W99471  23.557   4.875   2.768
38106W        W99472   3.271  13.244   0.738
38107W        W99473  30.032  40.507   4.679
38108W        W99474   1.285   6.311  11.568
38109W        W99475   8.274   2.328  12.425
38110W        W99476  12.726  25.560  10.918
38111W        W99477  25.061  31.085  13.449
38112W        W99478   2.373  27.659  13.867
38113W        W99479  38.030  10.276  12.345
38114W        W99480  13.338  10.833   0.906
38115W        W99481   4.818  33.006   2.712
38116W        W99482   0.803  18.116  10.601
38117W        W99483   4.374   2.782  10.462
38118W        W99484  42.380  24.514   1.311
38119W        W99485  28.628   5.743   1.904
38120W        W99486  36.538  16.687   4.272
38121W        W99487  25.004  34.108  14.031
38122W        W99488  37.011  37.534  10.504
38123W        W99489  34.547  43.841  14.848
38124W        W99490   5.293  15.679   3.271
38125W        W99491  36.518  26.499   0.926
38126W        W99492  34.903   8.286   3.338
38127W        W99493  20.654  20.135   2.190
38128W        W99494   2.429  34.511   4.829
38129W        W99495  15.594   8.370   2.318
38130W        W99496   1.385  16.297  10.899
38131W        W99497  23.652  26.612   4.789
38132W        W99498  12.753  31.073   2.758
38133W        W99499  13.829  33.092   3.679
38134W        W99500  35.542  44.756  10.570
38135W        W99501  43.400  34.072  11.951
38136W        W99502   7.323  43.923  11.999
38137W        W99503  42.305  39.871  14.815
38138W        W99504  31.581  32.541   0.804
38139W        W99505  12.236  39.470   0.246
38140W        W99506  32.062   6.409   3.833
38141W        W99507  16.781   2.396   4.173
38142W        W99508  42.374   7.324  11.452
38143W        W99509  28.149   9.152   9.968
38144W        W99510  37.978  10.711  12.992
38145W        W99511  26.638  22.636  14.300
38146W        W99512  16.108  27.039  12.975
38147W        W99513  19.705  20.078  12.921
38148W        W99514  12.276   8.191  11.408
38149W        W99515   2.375  11.262   2.307
38150W        W99516  16.103  14.237   1.394
38151W        W99517  20.684   9.328  10.500
38152W        W99518  43.980  38.833  13.853
38153W        W99519   3.890  37.919  10.946
38154W        W99520  40.996   9.720   3.761
38155W        W99521  39.986  13.110  10.481
38156W        W99522  13.799  12.739  13.411
38157W        W99523  44.963  22.556  10.502
38158W        W99524  28.612  28.046   2.852
38159W        W99525  20.730  17.104  12.567
38160W        W99526   5.393   0.931   1.871
38161W        W99527  21.130  33.398   5.688
38162W        W99528   3.220   3.709   5.260
38163W        W99529  38.454   3.375  14.863
38164W        W99530  39.819   5.417   4.133
38165W        W99531  34.454  10.191   4.787
38166W        W99532  29.991  37.543   4.119
38167W        W99533  27.635  43.301  12.421
38168W        W99534  31.480  40.831   4.129
38169W        W99535  36.549  35.010   2.408
38170W        W99536  21.065  30.976  11.452
38171W        W99537  16.613  38.928  11.898
38172W        W99538  11.170   0.430  14.982
38173W        W99539   8.203  41.478   3.386
38174W        W99540  41.817  10.289   3.308
38175W        W99541  28.067  16.127  11.594
38176W        W99542  30.635  17.647  12.344
38177W        W99543  15.615  29.037   0.311
38178W        W99544  39.409   6.185   4.192
38179W        W99545  10.637  13.214   3.640
38180W        W99546  28.170  12.151   4.333
38181W        W99547  36.994   4.404  11.059
38182W        W99548  11.282  18.741   1.281
38183W        W99549   9.833  30.998   2.281
38184W        W99550  24.006  13.216   2.903
38185W        W99551  41.896  44.422  13.360
38186W        W99552  41.352  36.428   0.479
38187W        W99553  34.954  16.203  14.894
38188W        W99554  27.173   0.431   0.336
38189W        W99555  15.245  21.183  12.975
38190W        W99556  34.037  24.717  11.592
38191W        W99557  16.674   1.776  11.116
38192W        W99558  43.386  35.975   4.713
38193W        W99559  43.996  14.598  13.987
38194W        W99560  22.113   3.882   3.192
38195W        W99561  10.725  26.636   2.328
38196W        W99562  43.001   2.303  10.530
38197W        W99563   3.931  42.904   2.793
38198W        W99564  33.956  19.164   2.247
38199W        W99565   6.721  10.295  10.558
38200W        W99566  27.011  25.011  12.067
38201W        W99567  17.253  32.605  11.422
38202W        W99568  27.529  40.521  12.405
38203W        W99569  31.023  40.838  14.820
38204W        W99570   6.394   3.313  12.827
38205W        W99571  36.525  24.074  10.579
38206W        W99572  41.328  30.444  10.428
38207W        W99573  41.852  22.524  12.542
38208W        W99574  17.125  37.009  12.035
38209W        W99575  28.556  18.283   1.279
38210W        W99576  29.069  32.437  14.947
38211W        W99577  21.230  19.648  14.018
38212W        W99578  41.316  30.147   3.679
38213W        W99579  13.119  22.613   5.255
38214W        W99580   5.740  37.354  11.611
38215W        W99581  33.917  30.579  13.963
38216W        W99582  24.978  11.845   0.433
38217W        W99583  42.503  42.432  13.390
38218W        W99584  30.106  23.685  12.412
38219W        W99585  19.678  26.594  12.419
38220W        W99586  21.090  23.049  13.890
38221W        W99587  23.727   5.891   0.330
38222W        W99588  40.934   6.752  11.970
38223W        W99589  33.512  31.443  14.843
38224W        W99590  21.631  15.797  14.929
38225W        W99591  22.126  32.520   5.572
38226W        W99592  33.411  37.568  11.513
38227W        W99593  27.101  21.151   1.861
38228W        W99594  43.777  29.601  11.065
38229W        W99595  17.076   1.965  11.060
38230W        W99596  36.460  34.076   3.181
38231W        W99597  29.664  40.481   0.793
38232W        W99598  31.526  43.347  12.503
38233W        W99599   3.952  14.809  10.012
38234W        W99600  11.647  33.116   0.895
38235W        W99601  17.186  12.625   4.766
38236W        W99602  26.009   9.686  10.635
38237W        W99603  29.130  44.817   1.893
38238W        W99604  34.393  36.981  10.415
38239W        W99605   8.771  29.049  10.041
38240W        W99606  38.057   5.426   1.423
38241W        W99607  25.537  33.454   9.967
38242W        W99608  18.631  43.983   1.774
38243W        W99609  20.131  32.427  13.054
38244W        W99610  44.459  39.464   4.176
38245W        W99611  41.929  41.456   0.771
38246W        W99612  19.536  36.441  14.464
38247W        W99613  22.081  17.209   4.743
38248W        W99614  15.282  22.629  13.885
38249W        W99615  28.441  42.282  12.385
38250W        W99616  22.013   0.414   2.378
38251W        W99617   3.839  32.632   1.924
38252W        W99618  14.685  17.782   4.171
38253W        W99619  36.928  23.152   3.180
38254W        W99620  39.863  29.616   3.197
38255W        W99621  24.051  44.381  13.314
38256W        W99622  44.458  17.759  13.450
38257W        W99623  12.169  27.944   1.434
38258W        W99624  28.488  29.506  14.866
38259W        W99625  14.279   4.275   0.749
38260W        W99626   9.377  40.426   3.346
38261W        W99627  18.238  20.234   2.769
38262W        W99628  16.700  13.136  11.862
38263W        W99629  39.431  12.175   2.201
38264W        W99630  31.451  27.048  12.908
38265W        W99631  25.541  26.131  14.828
38266W        W99632   3.461  11.624  14.346
38267W        W99633  35.916  38.385   0.344
38268W        W99634   7.891  30.960   2.205
38269W        W99635  13.728  26.175   0.401
38270W        W99636   9.753   5.200   0.779
38271W        W99637  40.461   8.238   2.358
38272W        W99638  12.692  28.457  10.516
38273W        W99639  18.604  15.599   0.279
38274W        W99640   0.380  11.692  14.399
38275W        W99641  33.024  24.618  12.415
38276W        W99642   0.876  39.437  10.968
38277W        W99643  38.824  30.553  12.393
38278W        W99644  27.623  28.642   0.378
38279W        W99645   5.746  25.217  11.894
38280W        W99646   7.406  35.415   0.249
38281W        W99647  40.827  38.913   3.817
38282W        W99648   5.416  43.009   2.257
38283W        W99649   6.864   3.758  13.439
38284W        W99650  37.976  41.404  14.385
38285W        W99651  32.042  41.930  11.078
38286W        W99652  13.678  12.652  11.550
38287W        W99653  11.723  21.207  10.607
38288W        W99654   8.208  29.948  13.540
38289W        W99655  13.134  11.774  10.443
38290W        W99656  42.781  27.610  11.117
38291W        W99657  43.484  17.152  12.975
38292W        W99658  18.689  23.494   1.444
38293W        W99659  22.609  37.842   4.233
38294W        W99660  28.996  12.207  14.366
38295W        W99661  34.574   6.737   1.776
38296W        W99662  31.440   4.785  14.386
38297W        W99663   6.238   3.878   3.818
38298W        W99664  23.501  13.697  10.417
38299W        W99665   7.266  43.334  12.026
38300W        W99666  36.036  15.805   1.330
38301W        W99667  12.751   9.724  12.504
38302W        W99668  37.925  15.139  10.973
38303W        W99669  18.178  12.759  14.358
38304W        W99670  29.095  13.241  12.963
38305W        W99671  16.674   8.666   3.155
38306W        W99672  37.063   4.864  12.471
38307W        W99673  24.050  17.605   0.788
38308W        W99674  30.443  37.514  14.999
38309W        W99675  30.537  14.610  10.417
38310W        W99676  35.406  43.473   5.153
38311W        W99677  40.983  15.783   1.330
38312W        W99678  27.655  13.171  13.052
38313W        W99679   0.868  19.615   4.768
38314W        W99680  32.524  41.020   3.726
38315W        W99681  34.549   1.756   2.690
38316W        W99682  36.024  10.217  13.960
38317W        W99683  17.790  21.247   1.914
38318W        W99684   2.939  19.632  10.887
38319W        W99685  41.987  22.010   0.452
38320W        W99686   9.857  14.173   2.388
38321W        W99687   8.394  41.882   4.787
38322W        W99688   7.397   5.406   4.249
38323W        W99689  21.196  14.666   4.353
38324W        W99690   5.362  11.658   1.771
38325W        W99691   1.448  38.964   3.820
38326W        W99692  36.478  44.389   2.246
38327W        W99693  36.876  16.740  12.967
38328W        W99694  15.309  38.884  13.060
38329W        W99695  10.794   1.834  12.400
38330W        W99696  40.392  33.973  10.544
38331W        W99697  23.071  13.186  10.482
38332W        W99698  20.213  38.913  13.343
38333W        W99699  44.941  21.591   0.810
38334W        W99700  18.171  13.660   2.898
38335W        W99701  18.673  16.213   9.613
38336W        W99702  33.085  36.031   3.629
38337W        W99703  43.377  31.903  13.477
38338W        W99704  27.951  43.785   2.724
38339W        W99705   3.406  28.976   2.723
38340W        W99706   3.711  32.904  11.065
38341W        W99707  25.531   9.654   4.770
38342W        W99708  16.595  32.466   5.311
38343W        W99709  27.571   3.940  12.085
38344W        W99710  21.690  35.375  12.429
38345W        W99711  15.158   5.283   3.870
38346W        W99712   0.376  13.666   4.673
38347W        W99713  24.203  34.048  12.348
38348W        W99714   7.414  32.891   1.891
38349W        W99715  38.402  18.196  12.453
38350W        W99716  20.133  44.862   4.636
38351W        W99717   2.452  32.554   0.803
38352W        W99718  33.433  22.245  14.006
38353W        W99719  19.168  41.492  14.938
38354W        W99720  40.431  12.619   2.385
38355W        W99721  35.563  38.486   2.191
38356W        W99722   9.667  41.840  11.946
38357W        W99723  24.005  27.554   5.795
38358W        W99724  29.995  43.392  14.406
38359W        W99725  15.794  13.338  11.922
38360W        W99726  39.334  20.697  13.043
38361W        W99727  27.681  35.584  12.855
38362W        W99728  43.333  38.515  14.359
38363W        W99729  26.092  32.054   0.286
38364W        W99730  30.496  16.224  14.976
38365W        W99731  17.766  44.274   3.319
38366W        W99732   1.292  23.197   3.631
38367W        W99733  43.970  44.428   2.775
38368W        W99734   6.831   6.186  11.102
38369W        W99735   2.321   9.750  14.971
38370W        W99736   6.223  43.481   2.207
38371W        W99737   1.432  29.469   1.753
38372W        W99738   2.320  25.040  10.991
38373W        W99739  35.575  24.715  10.603
38374W        W99740  12.202  44.938  13.044
38375W        W99741   9.861  29.640  11.510
38376W        W99742  24.199  37.844  12.982
38377W        W99743  25.997  23.698   2.899
38378W        W99744  40.315   9.303  13.433
38379W        W99745   7.257  30.010  11.438
38380W        W99746  37.402   3.347  10.899
38381W        W99747  42.887  10.288  14.906
38382W        W99748  24.683  34.544   1.695
38383W        W99749  17.717  19.192  12.540
38384W        W99750  37.503  39.538  11.582
38385W        W99751   4.860  36.572  14.458
38386W        W99752  29.506  44.318   1.835
38387W        W99753  33.613  37.455  14.442
38388W        W99754   4.305  14.600   1.807
38389W        W99755  41.904  29.583   2.810
38390W        W99756  42.892  35.861  14.819
38391W        W99757  37.045   0.349   0.819
38392W        W99758   6.707  26.055  12.064
38393W        W99759  44.461  29.531   3.276
38394W        W99760  23.650  34.884   2.776
38395W        W99761  32.546   7.408  12.518
38396W        W99762  38.855   3.861  11.460
38397W        W99763  39.473  24.706   3.636
38398W        W99764   8.161  14.658   4.203
38399W        W99765   2.850  43.416  13.843
38400W        W99766  30.485  20.715   3.287
38401W        W99767  43.991  23.535   3.727
38402W        W99768  18.179  25.492   3.373
38403W        W99769  44.840   5.351   2.314
38404W        W99770  29.990  15.311  14.456
38405W        W99771  39.870  35.038   4.159
38406W        W99772  35.860   3.924  10.599
38407W        W99773   4.906   7.304   1.784
38408W        W99774  21.691  42.365   0.365
38409W        W99775  33.924   6.765  14.766
38410W        W99776  21.048  35.913  12.092
38411W        W99777  31.081   9.230   1.311
38412W        W99778   3.375  15.166  12.389
38413W        W99779   0.809   7.357   2.741
38414W        W99780  11.313  37.344   1.745
38415W        W99781   0.746  12.646   1.881
38416W        W99782  16.619  44.834  11.376
38417W        W99783  27.031  19.570   2.371
38418W        W99784  16.302   2.241  12.563
38419W        W99785  28.126  38.903  12.432
38420W        W99786  31.631  23.026  12.386
38421W        W99787  24.227  13.287   0.352
38422W        W99788  22.071   3.310  10.532
38423W        W99789  15.317  28.049  13.912
38424W        W99790  41.452   8.720  11.100
38425W        W99791  42.965  23.187  12.046
38426W        W99792  40.508   7.849  10.499
38427W        W99793   0.893  38.553  10.043
38428W        W99794  30.648  24.089  11.925
38429W        W99795  31.618  11.727  12.954
38430W        W99796  12.809   9.280  13.415
38431W        W99797   6.748  42.031  12.047
38432W        W99798   9.831  33.621  12.921
38433W        W99799   4.909   5.790  12.892
38434W        W99800  40.413  40.360   3.814
38435W        W99801  31.644  23.185  10.044
38436W        W99802  17.261  16.751  11.043
38437W        W99803  25.091  14.304  11.968
38438W        W99804  22.732  37.533   1.449
38439W        W99805  34.074  27.458  14.328
38440W        W99806  42.803  36.848   2.378
38441W        W99807  21.070  42.830  11.453
38442W        W99808   7.393  19.229  14.288
38443W        W99809   6.416  23.240   3.200
38444W        W99810  16.253  19.577   4.238
38445W        W99811  19.708  36.561  13.006
38446W        W99812  29.112  25.992   1.812
38447W        W99813  39.546  13.739   4.208
38448W        W99814  40.049   1.758   2.832
38449W        W99815  10.737  36.885   2.764
38450W        W99816   3.798  20.099   2.276
38451W        W99817   7.822  40.988  10.470
38452W        W99818   3.741   0.438  12.837
38453W        W99819  38.425   7.189   2.857
38454W        W99820  43.899  24.662  14.859
38455W        W99821  38.480  44.409  10.525
38456W        W99822  35.892  10.217  10.153
38457W        W99823  36.561  31.098  13.452
38458W        W99824  30.651  16.153   1.728
38459W        W99825  18.743  37.039  14.308
38460W        W99826  28.128  24.016  11.946
38461W        W99827  14.769  18.554   4.162
38462W        W99828  14.116  33.121   9.939
38463W        W99829  42.919   2.407   3.644
38464W        W99830  39.377  29.091  11.566
38465W        W99831  20.122  19.212  13.964
38466W        W99832   4.219   8.297   2.762
38467W        W99833  12.147  17.735   0.826
38468W        W99834   2.940  22.047  10.429
38469W        W99835   8.341  27.615   0.940
38470W        W99836  11.182  31.090   3.861
38471W        W99837  42.281  19.250   4.618
38472W        W99838  39.335  28.047   2.178
38473W        W99839  33.583   1.324  10.604
38474W        W99840  31.615  40.862   0.737
38475W        W99841  11.804  27.066  12.961
38476W        W99842  43.382  24.087  11.607
38477W        W99843  22.660  33.445  14.975
38478W        W99844  30.116  24.066  14.401
38479W        W99845  16.174  12.624   4.259
38480W        W99846   2.362  19.771   4.696
38481W        W99847  21.200  33.045  13.518
38482W        W99848  13.632   3.721  12.548
38483W        W99849  17.582   3.782  14.460
38484W        W99850  37.446   7.193  12.539
38485W        W99851  21.572  20.207  11.403
38486W        W99852   2.783  39.376   2.384
38487W        W99853  32.931   9.198   3.303
38488W        W99854   2.877  32.125   5.741
38489W        W99855  30.120  44.901   4.250
38490W        W99856  18.623  14.264  14.913
38491W        W99857  15.118  24.484  14.341
38492W        W99858  38.456  13.815  11.492
38493W        W99859   8.898  43.821   2.817
38494W        W99860  40.996  18.115   2.283
38495W        W99861   5.241  36.042  11.392
38496W        W99862  44.911  15.580  10.137
38497W        W99863   5.309  33.035  10.498
38498W        W99864   0.746  41.916  13.796
38499W        W99865  17.115  34.567  14.984
38500W        W99866  41.411  22.552  10.940
38501W        W99867  31.092  14.200   3.316
38502W        W99868  43.438   4.787   3.685
38503W        W99869   3.279   7.409  12.516
38504W        W99870  13.636  30.624   3.201
38505W        W99871  29.561  39.484   0.796
38506W        W99872  25.089  17.600  14.805
38507W        W99873  43.319  23.587  11.496
38508W        W99874  40.373  13.793  13.877
38509W        W99875  35.071  29.496   3.831
38510W        W99876  29.456   7.384   0.790
38511W        W99877  29.069  28.661   0.871
38512W        W99878  27.147  22.035   3.280
38513W        W99879  44.928  42.370  11.474
38514W        W99880   2.933   7.904  13.059
38515W        W99881   4.220  16.312   2.820
38516W        W99882  26.185  19.116   0.925
38517W        W99883  33.079  11.848   0.334
38518W        W99884  37.960  20.763  11.421
38519W        W99885   6.410  25.572  14.019
38520W        W99886  33.552  29.542   1.381
38521W        W99887  16.192  29.113   1.724
38522W        W99888  13.265  18.643   0.427
38523W        W99889  19.720   4.713  14.879
38524W        W99890  40.019  12.184   2.379
38525W        W99891  43.897  11.216  13.829
38526W        W99892  21.199  26.594  14.832
38527W        W99893  40.867  29.598  13.830
38528W        W99894  34.905  21.661  14.473
38529W        W99895   7.710  36.062   4.702
38530W        W99896   1.804   0.309   2.331
38531W        W99897  15.641  14.613   9.950
38532W        W99898   3.374  26.515   3.723
38533W        W99899   8.780  16.567   0.891
38534W        W99900  25.963   0.939  12.899
38535W        W99901  31.137   0.877   4.814
38536W        W99902   9.643  42.982   0.740
38537W        W99903  13.675  10.304   2.776
38538W        W99904  18.644  42.797   0.938
38539W        W99905  16.578   0.323   1.260
38540W        W99906  27.549   8.901   5.297
38541W        W99907  41.421   4.821  10.424
38542W        W99908   3.744  10.164   4.239
38543W        W99909  26.116   7.750   2.893
38544W        W99910  20.533  44.377  10.145
38545W        W99911  19.056  41.512   4.209
38546W        W99912   0.408  24.720  13.933
38547W        W99913   1.846  24.224   0.320
38548W        W99914  28.183  31.151  13.939
38549W        W99915   1.872  22.196  10.562
38550W        W99916  31.434  24.186   3.312
38551W        W99917  27.134  35.104  14.421
38552W        W99918  26.960  16.105   3.280
38553W        W99919  22.100  37.457   0.326
38554W        W99920  24.973   0.457  11.497
38555W        W99921   6.916   5.756  12.931
38556W        W99922  11.258  38.008   0.329
38557W        W99923  38.543  23.059  13.015
38558W        W99924   5.280  13.676  13.520
38559W        W99925   8.757   1.955   1.777
38560W        W99926   5.242  29.077  11.449
38561W        W99927   1.355  22.584  11.917
38562W        W99928  42.831  42.819  11.940
38563W        W99929   2.753  30.034   4.684
38564W        W99930  20.245  14.793  10.919
38565W        W99931  32.989  38.905  11.454
38566W        W99932  40.858  40.046   4.698
38567W        W99933  38.837   0.270  14.310
38568W        W99934  30.616  31.029  10.920
38569W        W99935  14.250  17.129  11.978
38570W        W99936  38.821   6.902  14.795
38571W        W99937  41.448  32.923   1.210
38572W        W99938  43.876   3.359  12.861
38573W        W99939  12.802   8.281  14.389
38574W        W99940  18.775   8.879  13.895
38575W        W99941   4.352  16.619  11.103
38576W        W99942  16.086  37.966  13.439
38577W        W99943   3.910  14.097   1.363
38578W        W99944  31.567  23.499  13.547
38579W        W99945   7.299  39.524   4.161
38580W        W99946   7.306  19.769   4.202
38581W        W99947  20.760  15.289  12.384
38582W        W99948   4.717  13.772   5.647
38583W        W99949  42.911  13.229   5.286
38584W        W99950  41.327  43.825  14.439
38585W        W99951  14.695  18.716  11.959
38586W        W99952  14.146  42.863   1.754
38587W        W99953  34.049  10.644  13.984
38588W        W99954  17.188  34.477   5.758
38589W        W99955  33.054  35.940  12.374
38590W        W99956   1.866  34.413  11.005
38591W        W99957  39.816  26.558   1.357
38592W        W99958  30.567   4.862  11.517
38593W        W99959  31.549  34.494  12.422
38594W        W99960  28.527  44.299  13.042
38595W        W99961   7.276  12.796   2.759
38596W        W99962   4.837   2.403  13.323
38597W        W99963  10.690  17.787  10.561
38598W        W99964  21.650  22.177  10.464
38599W        W99965  19.086  36.377   3.318
38600W        W99966   7.304  18.679   0.928
38601W        W99967  20.738   6.859  14.391
38602W        W99968   3.923  27.546   3.254
38603W        W99969   9.839  36.934  10.993
38604W        W99970  31.619  13.350   0.445
38605W        W99971  17.779   3.907   1.927
38606W        W99972   7.183  39.010   5.140
38607W        W99973  43.841  26.049  10.531
38608W        W99974  37.836   8.889  11.597
38609W        W99975  35.908  30.161  12.982
38610W        W99976  31.047   2.941  11.576
38611W        W99977   7.716  43.971  13.421
38612W        W99978  12.792  37.917  14.481
38613W        W99979  38.042  20.084   4.237
38614W        W99980  38.061  21.098  11.430
38615W        W99981  18.055  44.006  12.352
38616W        W99982  43.798  33.983   1.261
38617W        W99983  35.449   8.894  12.458
38618W        W99984   8.388  11.715  13.046
38619W        W99985  36.085  36.500  11.596
38620W        W99986  37.365   8.805   1.392
38621W        W99987  20.075  41.981  10.479
38622W        W99988  14.096  14.328   9.986
38623W        W99989  38.025   6.877   3.261
38624W        W99990  23.520  36.841  13.935
38625W        W99991  17.786  13.116   1.367
38626W        W99992  27.467   8.818   3.267
38627W        W99993  21.632  16.676  13.924
38628W        W99994  32.607  19.620  12.567
38629W        W99995  15.817  40.437   2.315
38630W        W99996  35.914  26.461  12.911
38631W        W99997   5.348  11.725   0.939
38632W        W99998  17.559  41.022   1.857
38633W        W99999  44.305  28.973  11.392
38634W        W    0  40.926   2.923   0.455
38635W        W    1  26.584  40.942   1.767
38636W        W    2  15.199  23.643   3.719
38637W        W    3  34.952  44.992  12.350
38638W        W    4  29.989   6.808   4.202
38639W        W    5  37.522  31.937  11.395
38640W        W    6  25.199   4.878  13.317
38641W        W    7  25.663   5.427  10.461
38642W        W    8  20.157  32.990  14.328
38643W        W    9   3.926  16.283   9.956
38644W        W   10  26.667   4.936   3.171
38645W        W   11   3.885  23.490  11.906
38646W        W   12  28.608  28.067   1.221
38647W        W   13  14.113   9.715   3.165
38648W        W   14   7.213   6.853   4.123
38649W        W   15   1.831  33.389  10.975
38650W        W   16  17.124  43.513   4.727
38651W        W   17  16.733   8.377   4.670
38652W        W   18  35.379  34.090   3.723
38653W        W   19  36.531  13.727   4.811
38654W        W   20  21.208  29.110   4.634
38655W        W   21  21.187  32.544  11.074
38656W        W   22  33.031   7.694  13.963
38657W        W   23  24.527   7.219   1.212
38658W        W   24   2.780   8.743   2.321
38659W        W   25  16.713  19.768  12.404
38660W        W   26   9.298  36.048   1.848
38661W        W   27  21.128  31.463   2.355
38662W        W   28  28.625  27.497  14.882
38663W        W   29  16.310  31.504   2.733
38664W        W   30  40.452  26.484  10.050
38665W        W   31   3.253   6.380  10.159
38666W        W   32  42.339   8.380   4.142
38667W        W   33  15.706  19.672   0.297
38668W        W   34  39.528  35.358   2.744
38669W        W   35  21.250  40.887  14.384
38670W        W   36  34.584  23.019  13.330
38671W        W   37   2.931  19.696   4.223
38672W        W   38  44.914  44.785  12.459
38673W        W   39  22.167   6.206   1.322
38674W        W   40  41.927  17.576   1.327
38675W        W   41  33.532   2.781   4.671
38676W        W   42  30.563  13.305  12.441
38677W        W   43  25.175  19.087   1.280
38678W        W   44   9.661   3.325   1.845
38679W        W   45  19.589  15.094   1.265
38680W        W   46  10.816   8.713   1.709
38681W        W   47  14.256   1.749  14.983
38682W        W   48   4.856  37.932   3.633
38683W        W   49  35.599  34.379  10.463
38684W        W   50  20.612  25.599  11.555
38685W        W   51  25.050  34.531   0.782
38686W        W   52  21.565  36.064   5.656
38687W        W   53  27.066  44.960  12.476
38688W        W   54  30.577  17.263  10.482
38689W        W   55  14.266  28.624  11.988
38690W        W   56  11.685  33.011   3.755
38691W        W   57   7.377  35.490  11.915
38692W        W   58   7.670  42.281  10.930
38693W        W   59  18.070  19.090  14.405
38694W        W   60  38.352  31.622  11.917
38695W        W   61  16.598  36.961   4.770
38696W        W   62  13.762  29.095   3.844
38697W        W   63  18.242   9.310   3.371
38698W        W   64  19.756  41.838  14.013
38699W        W   65   4.347  40.451   4.283
38700W        W   66  17.643  39.548  14.423
38701W        W   67  23.159   2.411  10.118
38702W        W   68   8.220  44.463   2.733
38703W        W   69  42.364  16.285   3.314
38704W        W   70  44.475  24.001  14.004
38705W        W   71  31.139  22.557  11.549
38706W        W   72  27.638   4.442  14.955
38707W        W   73  18.229  14.822   3.803
38708W        W   74  15.208   3.285   3.779
38709W        W   75  12.722  39.404   1.767
38710W        W   76  26.581  38.559  13.364
38711W        W   77   3.931   4.393   0.737
38712W        W   78  37.538  24.596   3.371
38713W        W   79   7.264  35.581   3.770
38714W        W   80  17.256  14.286   2.201
38715W        W   81  15.663   7.794  11.376
38716W        W   82  24.113  18.786  12.032
38717W        W   83   2.837  10.336   1.873
38718W        W   84   2.435  39.945  11.069
38719W        W   85  41.910  36.530   4.817
38720W        W   86  10.295   7.222  13.828
38721W        W   87  30.490  32.960  10.639
38722W        W   88  35.549  24.593  12.059
38723W        W   89  10.153  28.117  10.955
38724W        W   90  16.614  28.648   2.244
38725W        W   91  20.633  37.040  10.919
38726W        W   92  14.716   5.259   3.868
38727W        W   93  33.897  39.358   1.323
38728W        W   94  22.539   6.735  13.343
38729W        W   95  18.784  17.641  14.345
38730W        W   96  19.254  17.137  13.813
38731W        W   97   8.841   1.253   2.869
38732W        W   98  34.495  17.593   4.172
38733W        W   99  11.736  44.350  13.805
38734W        W  100  26.103  20.051  14.864
38735W        W  101  15.650  13.698  14.012
38736W        W  102  39.425  24.148  12.428
38737W        W  103  43.354  31.428  13.920
38738W        W  104  43.370  38.884  12.005
38739W        W  105  11.292   2.409   2.265
38740W        W  106  31.547  20.070  13.799
38741W        W  107  30.461  44.951  10.950
38742W        W  108   6.379  22.590  14.387
38743W        W  109  41.847  27.051   4.758
38744W        W  110   9.712  40.496   1.877
38745W        W  111   1.295  44.423   1.429
38746W        W  112  23.521  17.176   2.401
38747W        W  113  43.000  29.602  13.492
38748W        W  114  13.311  38.366  13.506
38749W        W  115  40.856   2.850   3.292
38750W        W  116  43.907  27.677  13.813
38751W        W  117  44.314  35.599   1.722
38752W        W  118   1.783  29.542   0.945
38753W        W  119   3.800  18.268  10.035
38754W        W  120  14.183   9.274   4.707
38755W        W  121  16.279  22.638   2.778
38756W        W  122   8.666  35.964  13.998
38757W        W  123   6.187  21.143   5.193
38758W        W  124  44.822  36.025  11.016
38759W        W  125  44.966  43.966  10.500
38760W        W  126   6.296  36.894   3.762
38761W        W  127  37.085  42.474   1.850
38762W        W  128  20.055  19.549   0.394
38763W        W  129   0.362  13.270  14.490
38764W        W  130  29.930  42.341   3.815
38765W        W  131  32.422  43.942   4.200
38766W        W  132   5.871  44.397   4.141
38767W        W  133  13.603   6.798  10.931
38768W        W  134   5.208  30.649   1.784
38769W        W  135   5.284   6.756   4.775
38770W        W  136  29.573  37.969  11.114
38771W        W  137  43.771   1.972   1.238
38772W        W  138   9.150  19.091   2.226
38773W        W  139   6.918  12.351   3.357
38774W        W  140  36.570   5.734   3.658
38775W        W  141  24.077   8.831   2.274
38776W        W  142  42.330   1.339   4.148
38777W        W  143  17.564  33.990   2.372
38778W        W  144  17.221   6.198   5.118
38779W        W  145  27.072  11.297  12.938
38780W        W  146  14.783  43.426  12.027
38781W        W  147  28.009   4.866   4.306
38782W        W  148  17.634  17.660  14.972
38783W        W  149  32.523  31.966   4.710
38784W        W  150  21.728  13.782  11.993
38785W        W  151  18.579  21.143  10.114
38786W        W  152  31.948   3.322  13.985
38787W        W  153  10.258   7.835  13.340
38788W        W  154  11.656  15.255   0.280
38789W        W  155  25.047  39.344   3.260
38790W        W  156   7.246  40.417   1.272
38791W        W  157  33.983  23.231  12.568
38792W        W  158  14.657   7.249   4.810
38793W        W  159  10.715  26.684   0.363
38794W        W  160  41.038  17.195   3.228
38795W        W  161  33.607  11.172  10.450
38796W        W  162   5.751   2.825  14.486
38797W        W  163  11.791  18.665  12.437
38798W        W  164  42.330   7.871  12.867
38799W        W  165  21.555  25.657   1.351
38800W        W  166  29.134   5.375  14.455
38801W        W  167  12.808  21.070  11.417
38802W        W  168  22.098   8.383   2.847
38803W        W  169  26.015  42.461  10.542
38804W        W  170   3.748  22.184   0.923
38805W        W  171   2.783  29.661  11.914
38806W        W  172  39.979  35.058  13.333
38807W        W  173  21.263  44.915   3.224
38808W        W  174  37.445  31.035  10.431
38809W        W  175   2.463   4.716  12.881
38810W        W  176   7.216  27.634   1.912
38811W        W  177  25.004  17.724  13.365
38812W        W  178  28.612  26.519  14.923
38813W        W  179  42.008  32.032  11.914
38814W        W  180  34.377  35.875  12.065
38815W        W  181  44.955  20.603   4.166
38816W        W  182   4.282  12.123   1.923
38817W        W  183  13.337  40.456  12.904
38818W        W  184  32.603  17.697  14.028
38819W        W  185   9.788  35.583   2.826
38820W        W  186   9.349  36.061  11.521
38821W        W  187  15.228  32.994  12.550
38822W        W  188  16.703  44.408  11.550
38823W        W  189  24.601  43.783  11.455
38824W        W  190  32.538   3.435   1.817
38825W        W  191  25.020   8.860  14.776
38826W        W  192  31.927   1.451  13.967
38827W        W  193  10.850  35.571  13.376
38828W        W  194  16.116   5.375  14.507
38829W        W  195  35.868  15.189   3.867
38830W        W  196  12.342  23.509   0.277
38831W        W  197  34.938  42.524   2.257
38832W        W  198  20.620  23.533   4.183
38833W        W  199  15.741  12.723   2.717
38834W        W  200   5.399  33.876  14.389
38835W        W  201   9.878   7.724  12.352
38836W        W  202  34.462  16.262   1.815
38837W        W  203   0.338  12.617  13.393
38838W        W  204   7.293  33.956   0.458
38839W        W  205   0.863  37.414   0.834
38840W        W  206   7.240  26.464   2.411
38841W        W  207  17.199  31.042  12.343
38842W        W  208  33.082   2.226  12.867
38843W        W  209   7.748  11.350  12.933
38844W        W  210  38.969  36.431   2.857
38845W        W  211   0.926  33.905   4.169
38846W        W  212   5.776  13.249   0.356
38847W        W  213  13.177  32.558   0.406
38848W        W  214  10.264  11.833  14.005
38849W        W  215  10.827  32.525   2.723
38850W        W  216   8.819  33.896  11.484
38851W        W  217  15.198   8.266  14.325
38852W        W  218   8.180   4.818   1.883
38853W        W  219  43.420  29.491   4.330
38854W        W  220  23.546   2.939  14.858
38855W        W  221  33.893  24.716   1.221
38856W        W  222  16.207  39.868   4.839
38857W        W  223  24.065   8.756  11.576
38858W        W  224   4.321  30.079  14.444
38859W        W  225  33.119  19.206   2.380
38860W        W  226  41.918  33.083  13.365
38861W        W  227   9.851   2.737  11.030
38862W        W  228   7.843   5.794  11.386
38863W        W  229   3.780  42.479  10.572
38864W        W  230   1.307   6.791  12.843
38865W        W  231   9.729  24.718  14.436
38866W        W  232  22.235  38.549  13.920
38867W        W  233  26.114  22.163  12.495
38868W        W  234  35.918  20.243   3.712
38869W        W  235  12.283  29.107  11.913
38870W        W  236  24.158  43.964  11.001
38871W        W  237  43.485   3.790  14.340
38872W        W  238  29.969  42.830  14.423
38873W        W  239  13.212  28.153  13.326
38874W        W  240  16.318   9.698  11.956
38875W        W  241  24.042  44.261   2.708
38876W        W  242   8.399  36.070  13.901
38877W        W  243  35.880  22.089  13.823
38878W        W  244   3.878  16.670   9.963
38879W        W  245  13.180   6.708  11.485
38880W        W  246   6.425  17.268  11.073
38881W        W  247  25.218  31.556  12.959
38882W        W  248  12.767  13.302   4.252
38883W        W  249  29.534  43.475  13.814
38884W        W  250  30.162  27.974   0.948
38885W        W  251   7.807   8.265  13.381
38886W        W  252   1.963  27.622   5.083
38887W        W  253   7.842  43.968  12.824
38888W        W  254  38.470  32.120  14.274
38889W        W  255  22.589  43.887   3.663
38890W        W  256  10.875  37.860   2.334
38891W        W  257   5.720  11.197   3.688
38892W        W  258  23.030  39.820   4.781
38893W        W  259   7.201  20.034   0.416
38894W        W  260   5.354  11.325   1.878
38895W        W  261  38.366  34.465  14.362
38896W        W  262   4.723  28.551  13.876
38897W        W  263  10.246  29.635  11.426
38898W        W  264  32.489   5.250  14.407
38899W        W  265  33.604   1.762  13.826
38900W        W  266  30.606   1.891   4.706
38901W        W  267  22.211  13.617   3.267
38902W        W  268  14.703  22.130   2.673
38903W        W  269   3.443  37.848  11.439
38904W        W  270  10.183  32.059  12.080
38905W        W  271  14.287  25.103  14.768
38906W        W  272  28.678  10.835   0.325
38907W        W  273   6.791  43.808   4.788
38908W        W  274   1.887  12.344   4.712
38909W        W  275   9.831   7.707  12.958
38910W        W  276   8.732   2.260  10.572
38911W        W  277  40.849  17.213   1.790
38912W        W  278  23.015  28.451   2.304
38913W        W  279  26.693  38.996   4.253
38914W        W  280  34.878  16.311   2.869
38915W        W  281  42.856  10.289  10.926
38916W        W  282   1.322  13.691  12.349
38917W        W  283  10.316  15.118  11.873
38918W        W  284   6.196  34.074  11.981
38919W        W  285  31.021  19.145  14.853
38920W        W  286  32.912  18.169   1.439
38921W        W  287  31.594  20.129  12.941
38922W        W  288  42.520  25.529   4.751
38923W        W  289  43.274  24.694  10.419
38924W        W  290   7.678  12.290   1.736
38925W        W  291  13.121  11.225   1.789
38926W        W  292  17.168  43.414  11.038
38927W        W  293   4.269  13.203   4.645
38928W        W  294  23.032  35.090   0.397
38929W        W  295   0.412  14.116   0.789
38930W        W  296  10.296   5.908   3.362
38931W        W  297   0.379  15.269  14.773
38932W        W  298  23.604  37.472  10.967
38933W        W  299  38.917  21.238  11.993
38934W        W  300  27.690  15.136  13.412
38935W        W  301   6.736  25.112  13.911
38936W        W  302  10.204   6.715   0.352
38937W        W  303  33.433  34.985   5.096
38938W        W  304  27.620   0.296   0.950
38939W        W  305  21.566  27.691  10.422
38940W        W  306   4.820  26.165   3.678
38941W        W  307  30.563  12.234  12.368
38942W        W  308  13.738  30.031   0.320
38943W        W  309  14.264  27.064   2.811
38944W        W  310   5.412   9.362   1.907
38945W        W  311   0.350   5.804   0.360
38946W        W  312  25.513  23.019   0.802
38947W        W  313   4.872  18.202  13.011
38948W        W  314  33.532  11.734   0.424
38949W        W  315  17.088  39.516   1.854
38950W        W  316  31.597  43.940  10.533
38951W        W  317  23.603  35.960  11.880
38952W        W  318  42.900  27.023   4.787
38953W        W  319  14.776  16.245   3.678
38954W        W  320   9.695  41.869   1.738
38955W        W  321   3.779  34.493  11.558
38956W        W  322  27.181  16.282  10.458
38957W        W  323   8.801  41.297  12.471
38958W        W  324  20.242  34.093   1.433
38959W        W  325  41.995   9.199  11.869
38960W        W  326  15.083  17.724   2.269
38961W        W  327  10.863   3.952   3.291
38962W        W  328  40.520  15.650   3.267
38963W        W  329  31.573  39.515   1.717
38964W        W  330  33.884  22.566   2.772
38965W        W  331  26.075  10.645  13.055
38966W        W  332  15.295  26.011   2.863
38967W        W  333  14.147  28.008  12.085
38968W        W  334   8.316  37.345  10.579
38969W        W  335  37.462   8.338   4.350
38970W        W  336  29.477   7.669   2.292
38971W        W  337  31.469  33.970   2.684
38972W        W  338  12.313  27.597  13.805
38973W        W  339  23.558  30.603   1.694
38974W        W  340  40.547   2.265  14.356
38975W        W  341  39.331  27.015   0.293
38976W        W  342  22.575  23.115  11.054
38977W        W  343   3.826  35.454   3.718
38978W        W  344  40.400   3.305  10.430
38979W        W  345  23.130  12.850   2.672
38980W        W  346  13.122   4.315   0.264
38981W        W  347  29.062  27.492   2.313
38982W        W  348  43.786   8.828   4.265
38983W        W  349  41.875  23.727   4.639
38984W        W  350  23.666  40.332   1.233
38985W        W  351  21.704  16.635  14.493
38986W        W  352  35.059  11.222   4.246
38987W        W  353  26.522  33.883  13.547
38988W        W  354  33.000  37.883   0.382
38989W        W  355   3.776  17.063   3.703
38990W        W  356  14.622  41.988  14.414
38991W        W  357  30.510  40.037   2.856
38992W        W  358  20.111  23.085   0.473
38993W        W  359  28.469   0.924   1.694
38994W        W  360  13.227  33.505   1.735
38995W        W  361  40.419   1.408   3.849
38996W        W  362  16.786   0.874   4.758
38997W        W  363   1.935  17.598  10.620
38998W        W  364  15.112   0.869  13.323
38999W        W  365  32.033  38.535  13.985
39000W        W  366   2.408  13.846  10.908
39001W        W  367  42.502  21.718   4.614
39002W        W  368  17.696  40.849  11.936
39003W        W  369  13.674  31.103   4.203
39004W        W  370   1.884  42.359  13.950
39005W        W  371  37.062   3.440  10.409
39006W        W  372  34.097  34.959   4.620
39007W        W  373  10.284  25.014   4.670
39008W        W  374  17.207  27.531  13.952
39009W        W  375  31.506  22.229   4.830
39010W        W  376   6.279  26.597   4.226
39011W        W  377  18.734   3.786   2.823
39012W        W  378   8.221   6.758  13.803
39013W        W  379  27.110  24.621   1.721
39014W        W  380  29.604   8.882   2.190
39015W        W  381  41.355  43.379   1.430
39016W        W  382  25.506  11.734  11.924
39017W        W  383   8.254  29.437   3.242
39018W        W  384  35.387  31.097   0.468
39019W        W  385  29.564  28.516  11.899
39020W        W  386  29.593  23.680   0.791
39021W        W  387  15.662  40.003  10.637
39022W        W  388   1.250  31.060  14.339
39023W        W  389  20.692  26.180   3.744
39024W        W  390  40.986  42.515  12.924
39025W        W  391  42.859   1.757   1.876
39026W        W  392   8.723  24.684   1.269
39027W        W  393  27.107  36.372  12.005
39028W        W  394  28.629   5.419  10.423
39029W        W  395   4.265  41.414  13.488
39030W        W  396  10.649  36.464   0.776
39031W        W  397  43.983   6.913   2.353
39032W        W  398   8.759  24.012   2.415
39033W        W  399  33.563   0.903   4.243
39034W        W  400  28.640  23.197   2.805
39035W        W  401  30.619  23.672  12.833
39036W        W  402  39.926  10.273   4.798
39037W        W  403  20.611   7.250  13.969
39038W        W  404  39.399  13.612   3.683
39039W        W  405   7.755   8.299   2.902
39040W        W  406  16.287  40.448   3.828
39041W        W  407  43.815  22.668   4.786
39042W        W  408  16.280  13.332  10.581
39043W        W  409  36.036   8.732   0.249
39044W        W  410  40.526  37.016  11.399
39045W        W  411   2.412  29.581   3.836
39046W        W  412  35.926  14.287   5.311
39047W        W  413  14.597  16.728   3.295
39048W        W  414  24.510  20.086   0.366
39049W        W  415  23.082  40.009  11.595
39050W        W  416  24.196  16.302   0.373
39051W        W  417   5.372  15.282  13.351
39052W        W  418   3.891   2.745   2.705
39053W        W  419  24.218  26.650   2.771
39054W        W  420   9.877   5.776   0.390
39055W        W  421  43.948   7.172   0.848
39056W        W  422   3.219  14.256   4.328
39057W        W  423   1.450  20.075   2.833
39058W        W  424   4.292  17.175   4.777
39059W        W  425  11.291  26.046  10.554
39060W        W  426   5.413  31.148  14.786
39061W        W  427  14.220  34.501  13.891
39062W        W  428   5.862   1.921   1.773
39063W        W  429   7.718  18.728  13.005
39064W        W  430   7.825   5.350  13.826
39065W        W  431  10.197  40.838  13.351
39066W        W  432  23.653  43.419   4.635
39067W        W  433  41.995   6.265  14.442
39068W        W  434   6.694  15.701  14.463
39069W        W  435  34.442  29.570  12.089
39070W        W  436  35.977  37.422   1.421
39071W        W  437   3.228  31.627  11.609
39072W        W  438  34.987  42.891   3.724
39073W        W  439  29.118  40.825  13.402
39074W        W  440  13.627  39.349  14.938
39075W        W  441  24.017  22.550   1.897
39076W        W  442  27.466  31.136   0.792
39077W        W  443   3.814  33.445  12.828
39078W        W  444  25.198   9.810  14.463
39079W        W  445  24.000  38.522  10.621
39080W        W  446  28.664   7.198  10.599
39081W        W  447  27.539  43.845  13.351
39082W        W  448  25.008  20.661  11.021
39083W        W  449  20.181   6.250  12.920
39084W        W  450  31.991  41.301   5.174
39085W        W  451  42.002  21.688  10.910
39086W        W  452  41.421  13.230   3.727
39087W        W  453  35.467  28.110  11.074
39088W        W  454   3.348  31.419  12.415
39089W        W  455   3.388  28.121   1.377
39090W        W  456   2.345   8.232  14.916
39091W        W  457  43.806  19.106  12.946
39092W        W  458   2.831  34.934  10.575
39093W        W  459  25.208  37.364   1.271
39094W        W  460  33.523   2.364  12.546
39095W        W  461   7.860  39.378   4.123
39096W        W  462   5.824  32.597  10.600
39097W        W  463  43.284  19.652  12.394
39098W        W  464  23.072  44.798   3.322
39099W        W  465   7.674  22.083  12.919
39100W        W  466  44.470  13.773   9.933
39101W        W  467  24.652  26.593   0.458
39102W        W  468   3.391  15.622  11.604
39103W        W  469  43.270   7.845  10.635
39104W        W  470  30.454  31.472   4.765
39105W        W  471   7.353  37.525   0.837
39106W        W  472   5.336  29.094  11.964
39107W        W  473   0.326   4.943   1.262
39108W        W  474  12.307   1.303   2.255
39109W        W  475  33.602  22.583   2.306
39110W        W  476  39.352  32.423  11.432
39111W        W  477  32.499  35.936  12.061
39112W        W  478  12.808  37.843  10.979
39113W        W  479  42.959  16.258   1.221
39114W        W  480  29.143   4.430   1.738
39115W        W  481  37.839  16.152   0.930
39116W        W  482  10.194  16.710   2.180
39117W        W  483  35.043  25.686   1.311
39118W        W  484  21.532   0.339  12.838
39119W        W  485  42.922  20.740   4.710
39120W        W  486  31.070   2.795   1.313
39121W        W  487  41.807  19.588  11.867
39122W        W  488  41.832  18.146  10.077
39123W        W  489  21.518  26.980   3.223
39124W        W  490  32.534   9.884   3.784
39125W        W  491  44.974  25.707   1.212
39126W        W  492  24.598  35.942  12.064
39127W        W  493  12.695  39.051   0.330
39128W        W  494  26.472  27.480   4.272
39129W        W  495  31.449  11.131  10.956
39130W        W  496  12.735  19.679   3.309
39131W        W  497  42.304  11.184  11.502
39132W        W  498  31.538  38.490   0.276
39133W        W  499  17.598   0.946   3.386
39134W        W  500  27.020   6.283  14.482
39135W        W  501  20.612  31.053   3.800
39136W        W  502  23.644  33.535   2.889
39137W        W  503   6.249  21.136   1.435
39138W        W  504  26.470  27.165  11.050
39139W        W  505  21.566  21.568   4.747
39140W        W  506  34.113  31.502   2.371
39141W        W  507  29.492  26.504  12.938
39142W        W  508  19.040   3.439   2.680
39143W        W  509   3.381  13.614   1.308
39144W        W  510  25.190   7.393  13.463
39145W        W  511  14.225  22.501   0.432
39146W        W  512  21.056   7.306   0.838
39147W        W  513   1.869  33.065   3.240
39148W        W  514  17.221  28.103   4.261
39149W        W  515  14.718  37.008  12.859
39150W        W  516   8.212  15.110   4.782
39151W        W  517  24.662  40.389  10.554
39152W        W  518  26.983  34.602   3.638
39153W        W  519  39.908  30.016   2.385
39154W        W  520  30.504  15.788  11.534
39155W        W  521  28.934  34.016   0.303
39156W        W  522   1.893  38.330   4.808
39157W        W  523  22.590  13.303  14.330
39158W        W  524  38.945   1.338   4.701
39159W        W  525  25.218   5.213   0.439
39160W        W  526   1.961  19.754  11.569
39161W        W  527  15.296  23.121   4.289
39162W        W  528  21.587  20.209  13.393
39163W        W  529  42.010  12.814  14.866
39164W        W  530  27.626   7.266  14.422
39165W        W  531  33.557   7.767  11.966
39166W        W  532  25.073  33.570  10.998
39167W        W  533  23.031  34.009   3.779
39168W        W  534   2.811  13.795  11.495
39169W        W  535  18.592  22.623  12.997
39170W        W  536  11.664  13.205  12.084
39171W        W  537  30.414  15.092   1.425
39172W        W  538  17.559  11.777  11.546
39173W        W  539  36.506   7.672  10.542
39174W        W  540  34.033  20.636   0.898
39175W        W  541  13.620  33.574   0.840
39176W        W  542  25.186  35.500   2.850
39177W        W  543   0.981  17.678  12.431
39178W        W  544  31.473  20.594  12.522
39179W        W  545  21.628  44.405   4.145
39180W        W  546  18.230  12.684  11.913
39181W        W  547  29.589  26.131  14.427
39182W        W  548  35.880  23.170   2.736
39183W        W  549  27.478   6.701  11.985
39184W        W  550  40.026   6.728   3.804
39185W        W  551  19.753  31.618  14.451
39186W        W  552  39.559  19.601  12.828
39187W        W  553  32.447  33.927   2.329
39188W        W  554  42.892  28.982   3.793
39189W        W  555   0.754  13.144   1.442
39190W        W  556  31.108  14.162   0.449
39191W        W  557   0.450  17.283  13.446
39192W        W  558  21.153  31.926   4.194
39193W        W  559  40.544  35.460  11.927
39194W        W  560   8.888  16.174   4.666
39195W        W  561  39.977  23.133  10.975
39196W        W  562  42.327  18.286  13.903
39197W        W  563  17.764   6.294  11.477
39198W        W  564  28.978  35.400  11.071
39199W        W  565   6.301  21.073   4.826
39200W        W  566  25.691  30.014   0.950
39201W        W  567  36.433  25.039  12.838
39202W        W  568  42.971  20.561   2.668
39203W        W  569  17.131  32.483  12.529
39204W        W  570  13.624   1.389  11.408
39205W        W  571  14.132  32.508  10.572
39206W        W  572   6.375  22.124  11.514
39207W        W  573  42.433   4.246   3.264
39208W        W  574  31.444  19.253  10.539
39209W        W  575  30.462  30.972  13.016
39210W        W  576  12.323  16.135   4.636
39211W        W  577   2.838  20.712  13.458
39212W        W  578   7.813  39.989   4.793
39213W        W  579  11.196  26.129  13.840
39214W        W  580  26.962  21.664  10.512
39215W        W  581   9.373  40.847   3.259
39216W        W  582  41.333  10.258   0.363
39217W        W  583  20.624  12.277   3.646
39218W        W  584  23.672   3.915  14.011
39219W        W  585  32.090  35.053  10.614
39220W        W  586  11.306  17.106   3.281
39221W        W  587  16.694  38.458  11.971
39222W        W  588  20.192  17.134   3.257
39223W        W  589  27.564   8.818  14.968
39224W        W  590  34.110  12.277  11.922
39225W        W  591   3.813  29.083   0.834
39226W        W  592  42.786  25.598  13.041
39227W        W  593   0.371  26.470  10.898
39228W        W  594  43.391   5.909  11.074
39229W        W  595  12.246  25.513   0.830
39230W        W  596  34.486   1.883   1.752
39231W        W  597  11.859  14.261  14.487
39232W        W  598  32.435  29.542  13.357
39233W        W  599  38.363  35.511  13.346
39234W        W  600  24.532  13.690   0.325
39235W        W  601  23.213  18.727  11.874
39236W        W  602  26.182  22.542   0.843
39237W        W  603  44.431  34.911   5.116
39238W        W  604  13.804  36.025   1.838
39239W        W  605   7.898  42.824   2.202
39240W        W  606  27.543  18.287  11.521
39241W        W  607  22.015  21.197  14.841
39242W        W  608  32.966   8.899  11.406
39243W        W  609  28.445  31.569  12.976
39244W        W  610  15.118   2.869  12.574
39245W        W  611   4.708  40.444  13.897
39246W        W  612  29.018   7.893  11.456
39247W        W  613  12.185  22.670  11.944
39248W        W  614  22.544  40.809  11.115
39249W        W  615  40.841   2.293  12.422
39250W        W  616  12.209  44.462  14.829
39251W        W  617   1.826  42.424   0.473
39252W        W  618  39.446   1.803  14.416
39253W        W  619   4.327  41.999  11.584
39254W        W  620  16.179  32.125   1.377
39255W        W  621  21.517   1.439   4.671
39256W        W  622  44.487  27.962   2.665
39257W        W  623  33.075  38.035  13.405
39258W        W  624   4.407  13.184  13.958
39259W        W  625  36.523  44.342  10.902
39260W        W  626  18.616  33.930   1.815
39261W        W  627  40.343   7.790  14.779
39262W        W  628  37.963  39.412   1.747
39263W        W  629  17.262  22.036  12.066
39264W        W  630  43.771  17.127   3.149
39265W        W  631  30.020  26.033   3.362
39266W        W  632   0.370  21.540  11.019
39267W        W  633  19.147  41.999   3.274
39268W        W  634  30.609   4.723   4.164
39269W        W  635  25.171  24.039  13.837
39270W        W  636  20.737  10.669  13.968
39271W        W  637   3.231  15.622  10.442
39272W        W  638  21.167   3.337   3.171
39273W        W  639  13.785  25.633   4.603
39274W        W  640  40.474  37.533   2.757
39275W        W  641  26.626  31.065   4.172
39276W        W  642  32.580  30.453   2.308
39277W        W  643  21.555  26.158  12.405
39278W        W  644   0.846  16.599  11.121
39279W        W  645  40.944  35.026   0.249
39280W        W  646  12.800  40.510  14.899
39281W        W  647  24.116  34.394   2.848
39282W        W  648   1.931  18.125   1.417
39283W        W  649   8.389  10.317   4.631
39284W        W  650  33.932   0.353  14.355
39285W        W  651  39.490  26.636   4.682
39286W        W  652   9.279  42.875  10.957
39287W        W  653  30.159  28.630  11.887
39288W        W  654  43.853  43.878   2.709
39289W        W  655  21.688   0.446   4.669
39290W        W  656  37.349  24.008   0.304
39291W        W  657  38.072  33.590   0.318
39292W        W  658   4.834   1.436  12.448
39293W        W  659   6.698  23.729  12.929
39294W        W  660  39.810  33.964  13.377
39295W        W  661   8.191  24.480   3.816
39296W        W  662  44.464  32.072   4.348
39297W        W  663  36.404  33.089   4.607
39298W        W  664  28.015  28.175  12.059
39299W        W  665  22.687  39.360   1.848
39300W        W  666  16.646  43.376   4.744
39301W        W  667   0.490   4.848  14.455
39302W        W  668  27.977   7.904  11.539
39303W        W  669  28.551  14.146  13.978
39304W        W  670  44.892  17.143  12.479
39305W        W  671  25.040  24.489   1.792
39306W        W  672  28.045  44.365   5.162
39307W        W  673  17.621  19.718   0.916
39308W        W  674   6.680  36.868   1.333
39309W        W  675  12.315  21.632   0.300
39310W        W  676  20.132  42.015  12.495
39311W        W  677  13.621  30.638  10.603
39312W        W  678  25.000   5.333  13.547
39313W        W  679  26.611  37.567  14.963
39314W        W  680  41.807  14.205   2.195
39315W        W  681  44.755  18.101   0.443
39316W        W  682  30.516  41.349  12.895
39317W        W  683   3.335  42.010  14.014
39318W        W  684  12.147  25.182   3.870
39319W        W  685   3.449  11.627   0.461
39320W        W  686  21.735  13.681   4.834
39321W        W  687  28.507  23.131   2.323
39322W        W  688  12.255   7.308   0.421
39323W        W  689  16.655  15.655  11.373
39324W        W  690   8.774  32.492   4.762
39325W        W  691   1.946  15.247   4.609
39326W        W  692  35.004  25.540   1.778
39327W        W  693   0.249   7.353  12.867
39328W        W  694   8.239  17.604  10.574
39329W        W  695  31.404  23.614   1.814
39330W        W  696  28.449   9.348   4.136
39331W        W  697  18.114   9.280   1.820
39332W        W  698  41.037   3.880  11.414
39333W        W  699   5.232   6.761   1.880
39334W        W  700   6.405  16.591   2.237
39335W        W  701  16.606  30.634   2.198
39336W        W  702  21.589  21.091   4.828
39337W        W  703  33.963  32.616   0.931
39338W        W  704  11.346  10.225  13.039
39339W        W  705  13.227  16.585   3.197
39340W        W  706  37.376  24.528   4.810
39341W        W  707   0.389   8.405  11.939
39342W        W  708  27.629  26.993   1.331
39343W        W  709  13.152  10.289  12.515
39344W        W  710   8.700  33.037   0.875
39345W        W  711  35.934  25.175   4.659
39346W        W  712  12.721   4.233   2.730
39347W        W  713  38.881  14.296  11.867
39348W        W  714  16.811   9.814   1.288
39349W        W  715  40.354   5.342   1.275
39350W        W  716   2.728  39.352  14.311
39351W        W  717  29.004  36.575   2.351
39352W        W  718  28.175  31.907   2.742
39353W        W  719   9.826  37.057  12.475
39354W        W  720  15.673   3.841  13.904
39355W        W  721  24.056  25.996  13.438
39356W        W  722   4.360  17.793   2.201
39357W        W  723  33.949  21.199   9.949
39358W        W  724  14.645  19.645  14.304
39359W        W  725  10.164  10.857   1.387
39360W        W  726   9.371   9.790   4.826
39361W        W  727  22.583  24.194   1.799
39362W        W  728  15.201  16.654   0.366
39363W        W  729   8.757  18.071   4.818
39364W        W  730  33.419  25.579   0.296
39365W        W  731   6.792  41.984  11.533
39366W        W  732  12.761   1.265   3.295
39367W        W  733  26.986  16.136   0.395
39368W        W  734  14.327  14.111   9.653
39369W        W  735  11.199   4.290  11.003
39370W        W  736  35.357  16.796  11.496
39371W        W  737  17.559  20.029   0.744
39372W        W  738  32.585  44.478   3.155
39373W        W  739  14.325  39.554  10.486
39374W        W  740   1.459  24.142   4.129
39375W        W  741  13.705   9.199   4.779
39376W        W  742  13.166  39.991   3.862
39377W        W  743  15.724  31.902  11.970
39378W        W  744  15.732  20.224   3.361
39379W        W  745  17.705   1.950   2.747
39380W        W  746  17.072   0.427  13.916
39381W        W  747   9.208  35.946  14.996
39382W        W  748  14.248  29.077   0.905
39383W        W  749  27.193   0.774   3.637
39384W        W  750   2.752  32.555   3.344
39385W        W  751  14.675  21.585   3.642
39386W        W  752  43.909   5.302  11.991
39387W        W  753  14.755  33.000  13.910
39388W        W  754  35.370  35.601   3.740
39389W        W  755  13.189  28.591  13.539
39390W        W  756  22.725  42.792   9.941
39391W        W  757  36.498   0.821  14.022
39392W        W  758  31.615  27.572  12.056
39393W        W  759   6.795  25.123   2.714
39394W        W  760  21.108  42.883   2.301
39395W        W  761  18.257  10.192  11.896
39396W        W  762  12.126  25.525   2.888
39397W        W  763  31.579  32.912   1.288
39398W        W  764  24.990   0.452   3.244
39399W        W  765   3.941  41.857   2.890
39400W        W  766  21.138  28.571  11.128
39401W        W  767  23.629  43.270  11.577
39402W        W  768  41.481  16.302   2.299
39403W        W  769   5.303  38.976   1.368
39404W        W  770  31.525  40.547   3.266
39405W        W  771  12.692   5.797  11.523
39406W        W  772   7.193  32.463  14.352
39407W        W  773  26.142   9.386  13.961
39408W        W  774  16.077   6.862  14.001
39409W        W  775   3.945  18.714  12.906
39410W        W  776  43.508  19.106  10.559
39411W        W  777  25.218   7.795  10.605
39412W        W  778   6.273  24.063  11.374
39413W        W  779  16.110  17.755  13.024
39414W        W  780  21.202   0.885   2.686
39415W        W  781  26.971  31.100   2.770
39416W        W  782  34.588  31.007  11.110
39417W        W  783  26.608   2.455   4.751
39418W        W  784  37.045  39.883  11.402
39419W        W  785  42.289   5.894   1.884
39420W        W  786  21.688  20.707   4.771
39421W        W  787  23.173  23.528   2.884
39422W        W  788  17.305  21.641  10.453
39423W        W  789  11.140  23.594  12.398
39424W        W  790   5.405   3.832  13.543
39425W        W  791   5.758   9.225  12.483
39426W        W  792  15.099  35.473  13.412
39427W        W  793  23.133  26.693   0.256
39428W        W  794  38.469   1.951  10.975
39429W        W  795   3.381  34.037  11.563
39430W        W  796  12.147  36.415  14.383
39431W        W  797   9.677   3.726   0.762
39432W        W  798  19.694   7.381   4.179
39433W        W  799  32.536  26.162  13.546
39434W        W  800  14.769  33.019  12.022
39435W        W  801   9.889  31.507   4.277
39436W        W  802  43.368  40.891  10.515
39437W        W  803  35.091  38.527   4.237
39438W        W  804  42.798  32.608   1.719
39439W        W  805  44.388  42.520  12.004
39440W        W  806  44.923  36.036  14.492
39441W        W  807  17.667  37.020  11.551
39442W        W  808  40.405  44.486   4.224
39443W        W  809  24.198   1.944  14.365
39444W        W  810  22.620   1.843  11.425
39445W        W  811  38.339  22.110  13.988
39446W        W  812   0.911  17.125   3.182
39447W        W  813  20.732  23.018  14.302
39448W        W  814  19.139  23.550  14.002
39449W        W  815   0.822  21.649   2.691
39450W        W  816  18.585  39.918   2.256
39451W        W  817  24.665  12.214   2.329
39452W        W  818  18.576  27.474   2.386
39453W        W  819  25.712   8.847   3.687
39454W        W  820  12.741  42.485  10.526
39455W        W  821  20.736  38.957   3.647
39456W        W  822  28.530   6.766  10.511
39457W        W  823  17.670  14.249   1.398
39458W        W  824   5.927   6.921   2.737
39459W        W  825  31.980  43.881   2.715
39460W        W  826  23.612  32.421  14.456
39461W        W  827   2.873  11.769  11.039
39462W        W  828   7.390  13.730   1.420
39463W        W  829  26.075  32.025  12.959
39464W        W  830  25.492  37.365  13.822
39465W        W  831  34.898  29.620   1.350
39466W        W  832  34.476  38.922  13.868
39467W        W  833  29.555  30.029   4.729
39468W        W  834   6.392  25.695  10.039
39469W        W  835  33.616   6.335   0.278
39470W        W  836  36.864   0.963  10.976
39471W        W  837  39.528  32.634   1.719
39472W        W  838  42.965  17.283   5.244
39473W        W  839   1.901  33.502   4.722
39474W        W  840  44.456  43.980  13.016
39475W        W  841  37.513   1.853  13.447
39476W        W  842   7.692  40.539  12.025
39477W        W  843  34.028   6.205  12.862
39478W        W  844  33.573  12.303  13.308
39479W        W  845   7.864   5.751   1.223
39480W        W  846  20.150  21.136   0.461
39481W        W  847  41.788  12.719  11.517
39482W        W  848   5.697  11.180   4.297
39483W        W  849   0.746  16.734   4.687
39484W        W  850  32.602  34.906   2.803
39485W        W  851  43.982  30.011   0.385
39486W        W  852  31.551   8.827   4.792
39487W        W  853  17.674  28.513   4.197
39488W        W  854  32.051  27.174   0.747
39489W        W  855  14.689  37.864   0.246
39490W        W  856   2.878  34.535   3.208
39491W        W  857  41.308  41.967  11.084
39492W        W  858  19.544   1.306   1.289
39493W        W  859   4.328  26.478   3.670
39494W        W  860   4.798  37.572  10.997
39495W        W  861   6.332  40.434  10.018
39496W        W  862  24.036  35.483  11.388
39497W        W  863  14.291  30.070   5.187
39498W        W  864  32.056   0.385   4.284
39499W        W  865   8.718  25.009  14.399
39500W        W  866  38.074  39.012   3.257
39501W        W  867  26.633   4.250  11.450
39502W        W  868  29.935   4.254  14.442
39503W        W  869   4.829  29.639  11.904
39504W        W  870  24.019  31.470   3.171
39505W        W  871  10.255  23.224   3.858
39506W        W  872  13.678  36.466  10.991
39507W        W  873  40.809  18.254   1.300
39508W        W  874  32.067   3.330   4.290
39509W        W  875  10.861  30.105  14.785
39510W        W  876  39.453  20.187  13.823
39511W        W  877  39.325   3.239  12.358
39512W        W  878  41.884  15.171   4.757
39513W        W  879  16.262  26.693   1.794
39514W        W  880  22.597  25.074   1.423
39515W        W  881  44.446  44.980  12.422
39516W        W  882  22.726  23.565   1.802
39517W        W  883  16.652  32.999   0.835
39518W        W  884   1.366   2.349  10.540
39519W        W  885   0.383  38.926   0.732
39520W        W  886  25.187  14.105  13.912
39521W        W  887  11.805   7.712   4.825
39522W        W  888  27.066  17.289   3.811
39523W        W  889  12.774  28.061  11.419
39524W        W  890   9.258  44.458   4.746
39525W        W  891  22.513   4.256   2.794
39526W        W  892  30.088  43.308   2.322
39527W        W  893  32.955  28.975  11.394
39528W        W  894  20.042   3.440  13.030
39529W        W  895  23.999   2.919  12.876
39530W        W  896  13.714  14.290  14.934
39531W        W  897  20.216  43.456   2.352
39532W        W  898  14.767  34.432   1.212
39533W        W  899  29.440  10.739  13.790
39534W        W  900   8.388  43.270  10.500
39535W        W  901  21.691  44.842   1.834
39536W        W  902  37.460  17.698   0.903
39537W        W  903  43.343  39.508   4.833
39538W        W  904  27.016   2.438  11.530
39539W        W  905  40.326  37.871  14.900
39540W        W  906  16.678  44.906  14.852
39541W        W  907  28.162   4.730  11.966
39542W        W  908  32.615  12.799   1.396
39543W        W  909  11.261  40.459  12.526
39544W        W  910  42.799   9.373   0.429
39545W        W  911   4.344   2.727   0.731
39546W        W  912  22.675  24.042  14.314
39547W        W  913  18.084  19.549   4.822
39548W        W  914  20.751  24.076  12.000
39549W        W  915  36.027   9.681  12.949
39550W        W  916  18.137  33.992   4.222
39551W        W  917  22.530  21.753   1.777
39552W        W  918  22.171  14.299   4.666
39553W        W  919  29.966  16.791  12.518
39554W        W  920  31.922  37.861   1.396
39555W        W  921  24.525  43.980  10.991
39556W        W  922  17.157  44.767   4.328
39557W        W  923  18.554  23.151   2.817
39558W        W  924   2.390  30.634  13.874
39559W        W  925  26.565  26.165   3.220
39560W        W  926  26.464  28.090  13.004
39561W        W  927  10.850  17.734  11.959
39562W        W  928  20.710  20.114  10.504
39563W        W  929   4.396  10.223   4.705
39564W        W  930  21.719  36.449  11.964
39565W        W  931  39.033  12.146  13.936
39566W        W  932  35.379  42.435   3.653
39567W        W  933   1.438   4.376   3.760
39568W        W  934  38.384  34.052  11.943
39569W        W  935   9.883  30.017  14.851
39570W        W  936  26.635  36.007  12.967
39571W        W  937  44.900  37.054   3.235
39572W        W  938  23.504   0.345  11.583
39573W        W  939  12.841   5.799   3.171
39574W        W  940  18.643  29.158  13.524
39575W        W  941  18.088  32.565   4.744
39576W        W  942  22.597  38.437   0.895
39577W        W  943  23.073  17.637  14.804
39578W        W  944  19.265   0.420  10.522
39579W        W  945   0.920  36.568   4.691
39580W        W  946   3.259   2.244  10.116
39581W        W  947  38.958  43.021   4.342
39582W        W  948  28.034  13.307  12.883
39583W        W  949   3.924  23.567   0.773
39584W        W  950  19.746   1.332   4.626
39585W        W  951  25.703  23.093  11.094
39586W        W  952  26.693  44.446  14.873
39587W        W  953  22.718  36.589   9.517
39588W        W  954  21.551  13.266   1.263
39589W        W  955  12.330  32.637  12.007
39590W        W  956  19.285  38.984   1.429
39591W        W  957  13.309  16.766  12.070
39592W        W  958  44.963  26.673  14.436
39593W        W  959  27.042  36.860  12.998
39594W        W  960  43.000  27.019  13.892
39595W        W  961  10.327  36.571  10.460
39596W        W  962  42.902  19.581  13.883
39597W        W  963  28.555  11.334  10.526
39598W        W  964  28.181  13.773  12.419
39599W        W  965  44.976  22.192  11.422
39600W        W  966  40.423  26.558  14.319
39601W        W  967  12.681  33.972  10.978
39602W        W  968  12.728   7.287  14.808
39603W        W  969  43.350  19.553   3.299
39604W        W  970  23.093  33.520  14.360
39605W        W  971  33.524   7.392  12.985
39606W        W  972  34.615  42.498   9.514
39607W        W  973  29.161  44.464   2.830
39608W        W  974  24.201   8.729  12.942
39609W        W  975  36.957  10.729   3.382
39610W        W  976  29.651  40.366   4.313
39611W        W  977  39.928  14.722   0.864
39612W        W  978   2.956  28.588   1.934
39613W        W  979  37.425  24.178   3.867
39614W        W  980  44.275   3.952   2.323
39615W        W  981  11.198  13.252   3.844
39616W        W  982   2.857  26.195   3.231
39617W        W  983   9.664  15.635  10.415
39618W        W  984  23.574  11.669   4.309
39619W        W  985  33.929  11.280  13.977
39620W        W  986  30.634   5.417  11.409
39621W        W  987  44.882  15.758   4.177
39622W        W  988  37.434  10.767   4.140
39623W        W  989  39.858  38.515  10.987
39624W        W  990  22.565  34.372   0.936
39625W        W  991  26.007   8.694  13.063
39626W        W  992   3.455  44.404  11.103
39627W        W  993   8.196  23.179   0.428
39628W        W  994  18.172  21.138  11.892
39629W        W  995  37.528   2.966  11.459
39630W        W  996  16.246   9.360   3.310
39631W        W  997  10.677  25.177  12.387
39632W        W  998  11.246  32.403   2.728
39633W        W  999  35.884  33.621  10.608
39634W        W 1000  41.912  16.162   1.397
39635W        W 1001   4.763   2.814   2.216
39636W        W 1002  38.885  12.242   2.759
39637W        W 1003  42.524  43.319  12.514
39638W        W 1004  19.143   1.476  12.959
39639W        W 1005  38.966   8.186   3.863
39640W        W 1006  35.961  41.864  13.459
39641W        W 1007  20.752  13.822   3.292
39642W        W 1008  43.436  16.633   2.866
39643W        W 1009  41.858   3.948  11.987
39644W        W 1010  25.109  31.033  14.798
39645W        W 1011  28.537   3.835  13.532
39646W        W 1012   8.314  10.675  10.481
39647W        W 1013  33.464   4.724  12.985
39648W        W 1014  43.912  26.977   3.146
39649W        W 1015   9.870  10.252  13.521
39650W        W 1016  27.553  12.218   1.370
39651W        W 1017  13.685  26.686   2.903
39652W        W 1018  26.590  25.004   2.790
39653W        W 1019   4.353  39.928  14.451
39654W        W 1020  28.500  29.140  10.137
39655W        W 1021  10.838  23.667   0.766
39656W        W 1022  38.496  26.138   2.741
39657W        W 1023  10.152  43.434   2.823
39658W        W 1024  18.167  21.080  10.537
39659W        W 1025   6.214   4.918  11.407
39660W        W 1026   3.753  44.324  14.513
39661W        W 1027   0.873  13.694   1.818
39662W        W 1028  38.388  28.574  11.069
39663W        W 1029  20.101  44.002   2.343
39664W        W 1030  18.715  21.083   2.360
39665W        W 1031  13.143  10.717  11.564
39666W        W 1032  43.332  43.279  14.942
39667W        W 1033  36.079  38.962   3.868
39668W        W 1034  35.368  17.743  12.580
39669W        W 1035   9.879  42.985  13.309
39670W        W 1036  30.915   7.699  11.881
39671W        W 1037  44.311  23.109   0.762
39672W        W 1038  18.644  42.523   3.205
39673W        W 1039  18.737  12.849   4.282
39674W        W 1040   7.357   3.912  11.521
39675W        W 1041  40.449  31.054  14.850
39676W        W 1042   7.393  10.748   1.775
39677W        W 1043  26.633  35.020   0.863
39678W        W 1044   7.724  31.522  12.416
39679W        W 1045  11.635  22.559  14.935
39680W        W 1046  27.518  27.959  13.494
39681W        W 1047  35.357   9.387  13.810
39682W        W 1048   5.843  34.557   1.773
39683W        W 1049  27.458  22.159  13.979
39684W        W 1050  20.769  42.447  10.453
39685W        W 1051  15.649   4.215   3.288
39686W        W 1052  12.186  10.750   0.933
39687W        W 1053  32.125  30.602   4.829
39688W        W 1054  24.684  16.634  12.343
39689W        W 1055  29.168  29.640  13.536
39690W        W 1056  26.008  32.540   1.223
39691W        W 1057  40.050  16.306   3.804
39692W        W 1058  26.954  17.740   3.281
39693W        W 1059   0.944  42.486   4.676
39694W        W 1060  38.408   6.241   2.826
39695W        W 1061   9.273  13.604   2.766
39696W        W 1062  22.602  12.741   0.327
39697W        W 1063   1.245  38.540  11.104
39698W        W 1064   5.841   6.821  14.867
39699W        W 1065   0.466  13.667   4.139
39700W        W 1066  42.925  24.064   0.373
39701W        W 1067   4.770  11.153   1.910
39702W        W 1068  24.635  21.649   0.867
39703W        W 1069  41.335  32.141   3.328
39704W        W 1070  35.031  33.940  12.848
39705W        W 1071  24.575   0.348   1.306
39706W        W 1072  29.123  19.136  12.848
39707W        W 1073  33.574  38.924   2.213
39708W        W 1074  11.778  25.089   2.684
39709W        W 1075  25.507  10.699   3.671
39710W        W 1076  36.087  30.598   0.752
39711W        W 1077  13.295  26.610  13.342
39712W        W 1078  32.541  35.873   1.704
39713W        W 1079  34.590  35.952  11.612
39714W        W 1080   1.868  33.914   3.850
39715W        W 1081  35.006  30.485   2.869
39716W        W 1082  11.690  12.329   1.225
39717W        W 1083  38.040  28.186  10.026
39718W        W 1084  37.034  17.677   1.928
39719W        W 1085  33.571   6.689   0.879
39720W        W 1086  32.578  14.104  10.417
39721W        W 1087  26.567  11.821  13.329
39722W        W 1088  35.434  12.816   1.401
39723W        W 1089  41.419  17.698   2.768
39724W        W 1090  14.136   4.827  12.549
39725W        W 1091  34.531  15.203  12.033
39726W        W 1092  43.935  25.033  14.977
39727W        W 1093  10.648  16.741   3.775
39728W        W 1094   9.866  25.608  14.320
39729W        W 1095  18.779  14.203   5.658
39730W        W 1096  21.097   1.841  11.587
39731W        W 1097  14.638  19.561   2.845
39732W        W 1098   6.797  17.268   1.733
39733W        W 1099  21.589  29.931  13.419
39734W        W 1100  24.725  22.161  14.882
39735W        W 1101  33.028  42.785   4.115
39736W        W 1102  11.149  40.322   0.888
39737W        W 1103  14.238  12.764   1.832
39738W        W 1104  37.390  25.133   4.769
39739W        W 1105  36.498  32.139   0.279
39740W        W 1106  44.480   4.366  12.343
39741W        W 1107  32.914  34.101   3.145
39742W        W 1108  33.529  36.353   4.797
39743W        W 1109  19.692   1.291   2.315
39744W        W 1110  15.712  41.802  13.791
39745W        W 1111  21.079  12.155   1.719
39746W        W 1112  16.640  23.577  11.906
39747W        W 1113  13.151   5.439  12.056
39748W        W 1114  35.375  28.477  13.415
39749W        W 1115  22.044  34.866   4.213
39750W        W 1116  31.906  39.054   1.801
39751W        W 1117  36.576  38.898   2.666
39752W        W 1118   4.367  41.967  10.423
39753W        W 1119  24.618  14.157  11.047
39754W        W 1120  21.034  19.753  11.107
39755W        W 1121  30.030  34.866  11.118
39756W        W 1122   3.872  24.680  10.453
39757W        W 1123  23.634  42.779   4.666
39758W        W 1124  23.988  31.488   1.753
39759W        W 1125   5.221  42.443   1.308
39760W        W 1126  34.102  17.127  12.940
39761W        W 1127  11.768   8.733   3.764
39762W        W 1128  41.506  38.492  13.380
39763W        W 1129  18.724   1.465   3.275
39764W        W 1130  18.653  22.710   2.242
39765W        W 1131   7.781  20.552   1.290
39766W        W 1132  38.947   8.775   1.224
39767W        W 1133  23.541   6.216  12.907
39768W        W 1134  41.904   8.867   1.248
39769W        W 1135   5.310   9.152  10.618
39770W        W 1136  19.692  27.140   3.808
39771W        W 1137  26.631  14.727  12.995
39772W        W 1138  26.588  44.261  10.645
39773W        W 1139  27.962  16.579   0.889
39774W        W 1140  30.438  14.294   3.807
39775W        W 1141  21.077  31.552  13.032
39776W        W 1142  36.091  17.180   4.728
39777W        W 1143  43.945  43.911  10.436
39778W        W 1144   2.789  16.756   2.875
39779W        W 1145  41.419  36.590   3.779
39780W        W 1146  19.121  15.325  10.899
39781W        W 1147  42.952  43.362  13.542
39782W        W 1148   0.861  15.219  12.076
39783W        W 1149  20.163   1.467   4.695
39784W        W 1150  30.585  27.691  12.403
39785W        W 1151  41.860  31.647  10.432
39786W        W 1152   1.959  38.063   4.786
39787W        W 1153  15.747   7.367   1.433
39788W        W 1154  40.395   0.249  14.368
39789W        W 1155  18.228  37.958  14.508
39790W        W 1156  16.108  12.844  13.480
39791W        W 1157   6.710   6.914   3.354
39792W        W 1158  28.623  10.737   4.273
39793W        W 1159  31.488  36.848  10.452
39794W        W 1160   8.890  20.272  11.376
39795W        W 1161  39.455  44.358  10.927
39796W        W 1162   0.282  18.582   3.190
39797W        W 1163  40.458  12.792  10.519
39798W        W 1164  17.644  16.257   5.212
39799W        W 1165  37.501  16.169  12.040
39800W        W 1166  19.135  19.204  11.117
39801W        W 1167  20.578  28.459   0.815
39802W        W 1168   0.775  10.718   1.929
39803W        W 1169   5.853   4.210  14.766
39804W        W 1170   0.329  27.681   1.295
39805W        W 1171  35.381  27.132   4.119
39806W        W 1172  25.644  19.601   0.293
39807W        W 1173  11.665  18.234  12.348
39808W        W 1174  27.638  18.687  10.493
39809W        W 1175  42.456  37.404   4.821
39810W        W 1176  22.064  37.563   5.110
39811W        W 1177  20.691  28.950   2.668
39812W        W 1178  34.550  10.247  14.384
39813W        W 1179   4.379  41.892   0.463
39814W        W 1180  23.240  21.728   0.776
39815W        W 1181  39.485   2.765  10.596
39816W        W 1182   5.434   9.813   3.223
39817W        W 1183   2.374  17.643  14.023
39818W        W 1184  22.161  23.049  12.356
39819W        W 1185  40.372  25.549   2.828
39820W        W 1186  17.187  40.856  12.365
39821W        W 1187  15.675  10.303  10.447
39822W        W 1188  28.105  38.449  12.983
39823W        W 1189   2.881  36.058  13.818
39824W        W 1190  41.379  32.477   3.262
39825W        W 1191  22.213  25.066  11.609
39826W        W 1192  19.690  39.908   1.417
39827W        W 1193  43.319   7.882  11.929
39828W        W 1194  36.369  24.714   0.366
39829W        W 1195  23.657   0.250   1.734
39830W        W 1196  28.659  34.058  14.408
39831W        W 1197  27.571   5.213   3.798
39832W        W 1198  10.169  43.840   1.411
39833W        W 1199  44.325   5.371  14.449
39834W        W 1200  16.107  21.056   2.235
39835W        W 1201  35.954  35.374   0.807
39836W        W 1202  19.688   1.927   4.155
39837W        W 1203  38.958  24.144   9.967
39838W        W 1204  18.658   7.302  13.855
39839W        W 1205   7.873  26.158   3.804
39840W        W 1206   2.440  33.571   4.132
39841W        W 1207  39.004  16.231  14.959
39842W        W 1208   3.775  12.801   3.242
39843W        W 1209   4.243  34.039  10.619
39844W        W 1210  15.288  18.220   0.943
39845W        W 1211   1.432   8.774   4.675
39846W        W 1212  31.435  38.480   0.821
39847W        W 1213   9.751   7.874   1.877
39848W        W 1214  33.041  21.732  11.856
39849W        W 1215  23.725  31.613  11.069
39850W        W 1216   3.460  26.031   0.770
39851W        W 1217  11.335  13.841   2.811
39852W        W 1218  26.130  15.630   3.844
39853W        W 1219  42.332  44.941   2.236
39854W        W 1220  44.960  17.203   1.449
39855W        W 1221  44.840  17.139   3.264
39856W        W 1222  43.378  34.008   3.373
39857W        W 1223  24.023  42.363   3.781
39858W        W 1224  30.126   0.327   4.338
39859W        W 1225   2.285   4.298   3.824
39860W        W 1226  17.110  39.438   2.891
39861W        W 1227  39.545  30.634   5.209
39862W        W 1228  42.913   3.861   3.699
39863W        W 1229   8.172  18.074   0.428
39864W        W 1230  15.153  39.845  10.963
39865W        W 1231  41.031  40.884   2.417
39866W        W 1232  19.570   6.367   2.386
39867W        W 1233  42.437  39.425  12.512
39868W        W 1234  43.344  38.819  11.566
39869W        W 1235  33.563   5.225  11.977
39870W        W 1236  19.082  24.986  10.460
39871W        W 1237  40.476  33.065  12.001
39872W        W 1238  42.356   0.878  11.380
39873W        W 1239  12.310  23.721  12.975
39874W        W 1240  26.660  30.047  11.571
39875W        W 1241  23.103   7.725  13.322
39876W        W 1242   5.333  18.134   0.947
39877W        W 1243   5.303   1.363  13.541
39878W        W 1244  19.723   3.328   1.700
39879W        W 1245   1.931  43.277  12.361
39880W        W 1246  11.253  31.434  10.890
39881W        W 1247  18.265  41.958  10.538
39882W        W 1248  13.125  21.082  11.018
39883W        W 1249  16.132  23.697   2.873
39884W        W 1250   4.869  27.955   2.775
39885W        W 1251  27.950  32.007   5.223
39886W        W 1252  31.561  28.169  12.552
39887W        W 1253  24.601   7.676   5.287
39888W        W 1254   8.836   7.843   1.320
39889W        W 1255  38.899  13.756  14.825
39890W        W 1256  38.476  22.637   3.672
39891W        W 1257  12.332   7.752  12.823
39892W        W 1258  18.247  28.601   2.190
39893W        W 1259  34.587  23.063   3.743
39894W        W 1260   1.918  44.272  12.991
39895W        W 1261  41.518  40.886  13.308
39896W        W 1262   1.253  21.558   3.194
39897W        W 1263   2.861  30.941   1.292
39898W        W 1264  28.103  43.426  14.029
39899W        W 1265  23.089  35.450  11.904
39900W        W 1266  34.601  34.604   3.253
39901W        W 1267  14.734   8.862   2.312
39902W        W 1268  22.244  21.095   9.931
39903W        W 1269  32.109  13.631   2.226
39904W        W 1270  13.229  14.801  13.459
39905W        W 1271  19.083  17.644   1.908
39906W        W 1272  15.111  42.944   3.324
39907W        W 1273  34.603  22.090  13.917
39908W        W 1274  29.436  24.108   0.270
39909W        W 1275  43.923  16.088   0.289
39910W        W 1276  32.605  34.369   4.243
39911W        W 1277  13.617  32.930   1.905
39912W        W 1278  15.598  38.025   4.793
39913W        W 1279  38.891  26.509  13.058
39914W        W 1280  34.866  37.560   4.785
39915W        W 1281   0.474  35.077  11.059
39916W        W 1282   5.331   8.244   2.413
39917W        W 1283  10.260  36.451  11.372
39918W        W 1284  14.136  39.927  10.545
39919W        W 1285   2.448  35.085   2.744
39920W        W 1286  14.328  24.641  13.909
39921W        W 1287  44.902   0.456  11.061
39922W        W 1288   6.320   7.226  13.877
39923W        W 1289   1.834  17.662  13.900
39924W        W 1290  17.601  12.119   0.262
39925W        W 1291  39.995  10.792   4.177
39926W        W 1292   7.246  22.150  14.797
39927W        W 1293  20.136   2.867  12.939
39928W        W 1294  15.325  12.178  13.380
39929W        W 1295  11.188   4.445  12.960
39930W        W 1296  23.621   4.705   3.265
39931W        W 1297  39.812  25.539  12.877
39932W        W 1298  29.923  35.432  11.516
39933W        W 1299  17.299  39.360  12.579
39934W        W 1300   3.796  29.585   3.320
39935W        W 1301  21.713  33.491  10.120
39936W        W 1302  12.779  35.596   0.950
39937W        W 1303  24.213   8.401  12.872
39938W        W 1304  29.513   7.673   1.760
39939W        W 1305  10.169  39.445  13.500
39940W        W 1306   4.227  23.688  11.418
39941W        W 1307  34.953  35.921   3.372
39942W        W 1308   7.297  33.120  14.335
39943W        W 1309  38.531  39.001   1.928
39944W        W 1310  23.192  40.893  11.085
39945W        W 1311  43.970  38.327   1.213
39946W        W 1312  13.289  17.243   2.377
39947W        W 1313  22.720   7.342   2.415
39948W        W 1314  26.149  28.972   3.649
39949W        W 1315  11.366  33.424  12.342
39950W        W 1316  28.658   8.220   1.357
39951W        W 1317   6.749  17.162  14.942
39952W        W 1318  29.496   1.873   3.163
39953W        W 1319  29.941  42.451   4.757
39954W        W 1320   4.770  43.305   1.339
39955W        W 1321  22.129   0.989  10.638
39956W        W 1322  40.814  25.485   1.742
39957W        W 1323  19.713  15.125  10.920
39958W        W 1324   3.875  10.152  10.621
39959W        W 1325  31.148  26.168  12.422
39960W        W 1326   2.763  24.978   5.223
39961W        W 1327   0.419  31.557  12.026
39962W        W 1328   8.218   7.281  12.003
39963W        W 1329   5.914   5.918  13.406
39964W        W 1330  21.743  35.603   0.846
39965W        W 1331  17.663  33.875  13.865
39966W        W 1332  34.085  32.904  10.411
39967W        W 1333  26.504  28.997   1.699
39968W        W 1334  41.017  28.014   1.434
39969W        W 1335  38.404  11.271  13.892
39970W        W 1336  37.876   9.316   1.706
39971W        W 1337  26.194  26.548  11.896
39972W        W 1338   0.263   8.734  13.955
39973W        W 1339   4.413  38.410   1.853
39974W        W 1340   1.284  16.191   4.120
39975W        W 1341   7.733  34.963  10.955
39976W        W 1342  37.932  11.166  10.536
39977W        W 1343  12.809  40.905  11.003
39978W        W 1344  39.851  18.756   2.233
39979W        W 1345  34.560  43.979  13.318
39980W        W 1346   0.284  39.913   4.751
39981W        W 1347  13.163  15.144   0.290
39982W        W 1348  31.922  25.114   1.273
39983W        W 1349  25.137   8.357   0.317
39984W        W 1350   1.416   5.309   4.747
39985W        W 1351  22.085   3.233  12.475
39986W        W 1352  32.497   0.903   2.739
39987W        W 1353  22.200   4.833  12.473
39988W        W 1354   9.320  29.057   5.253
39989W        W 1355  34.908  20.117   2.816
39990W        W 1356   4.765   2.853   0.916
39991W        W 1357  29.563  28.979   9.596
39992W        W 1358  16.238  23.699   0.456
39993W        W 1359  16.176  40.991  11.925
39994W        W 1360  25.205   1.428  14.381
39995W        W 1361  26.992   6.781   1.264
39996W        W 1362  29.423   6.243  14.464
39997W        W 1363  24.568  42.824  13.007
39998W        W 1364   1.350  25.028  11.451
39999W        W 1365  18.209  20.059  10.610
40000W        W 1366  23.224  32.462  12.082
40001W        W 1367  37.038  28.487  14.796
40002W        W 1368  33.065  38.904  13.962
40003W        W 1369  39.544   1.744   2.293
40004W        W 1370  30.547  31.999   0.320
40005W        W 1371   8.697   0.748  13.812
40006W        W 1372  10.747   9.303  13.390
40007W        W 1373  18.685   4.381  14.763
40008W        W 1374  12.321  10.263  11.856
40009W        W 1375   3.264   7.907   2.690
40010W        W 1376  41.905  13.765  11.900
40011W        W 1377  29.574  39.995   3.704
40012W        W 1378  41.351  31.515  12.548
40013W        W 1379  28.115   6.908  10.509
40014W        W 1380  37.465  35.595  14.328
40015W        W 1381  24.026  17.176  11.413
40016W        W 1382  44.332   7.892   1.734
40017W        W 1383  12.629  37.366   4.813
40018W        W 1384   3.437  27.601   0.290
40019W        W 1385   4.762   1.767  11.063
40020W        W 1386  10.338  34.098  14.353
40021W        W 1387   7.190  36.862  13.319
40022W        W 1388  30.936  31.454   2.824
40023W        W 1389  41.798  32.583   4.727
40024W        W 1390  40.467  44.500   1.934
40025W        W 1391  35.553   8.385   3.345
40026W        W 1392   6.289  28.440   4.753
40027W        W 1393  43.515  28.557  14.826
40028W        W 1394  17.293  19.196   9.991
40029W        W 1395   2.320   4.943  10.131
40030W        W 1396  30.583  38.833  11.482
40031W        W 1397  33.570  33.876   4.230
40032W        W 1398  36.533   3.404   2.733
40033W        W 1399  14.272   9.197   2.415
40034W        W 1400  30.513  35.512  12.387
40035W        W 1401  19.087  16.708  11.973
40036W        W 1402   7.719   2.432  11.016
40037W        W 1403  30.495  29.008  13.951
40038W        W 1404  41.883  40.441  14.886
40039W        W 1405  14.654  18.095   9.965
40040W        W 1406  22.743   7.858  14.843
40041W        W 1407  27.994   4.439  11.057
40042W        W 1408  31.035  34.105   4.243
40043W        W 1409  35.487   9.856  10.443
40044W        W 1410  40.813  21.740  14.989
40045W        W 1411  35.372  29.656   1.815
40046W        W 1412   3.812   5.756  13.461
40047W        W 1413  28.669  18.749  13.934
40048W        W 1414  35.444  17.102   1.404
40049W        W 1415  33.571  23.074   0.932
40050W        W 1416   4.924   3.840   0.393
40051W        W 1417  27.478  11.272   2.286
40052W        W 1418   0.359  34.058   0.804
40053W        W 1419   5.396  28.030  13.017
40054W        W 1420  31.113  20.119   1.337
40055W        W 1421  27.657  16.199   0.788
40056W        W 1422   6.778  25.995  13.421
40057W        W 1423  41.358  40.928  12.426
40058W        W 1424  32.028  31.956  14.783
40059W        W 1425  13.320  16.225   3.290
40060W        W 1426  30.919  34.991  11.445
40061W        W 1427   8.732  14.159   3.830
40062W        W 1428  26.496  12.325   0.811
40063W        W 1429  39.895  20.242   1.761
40064W        W 1430   6.325  36.939   2.836
40065W        W 1431  37.366  41.443  14.964
40066W        W 1432   7.237   0.787  13.035
40067W        W 1433   7.665   4.256  11.402
40068W        W 1434  18.612  11.798  10.440
40069W        W 1435  19.181  37.490   2.287
40070W        W 1436  37.831  21.616  14.933
40071W        W 1437  16.233  11.169  11.099
40072W        W 1438   8.750   3.946   3.204
40073W        W 1439   4.242  18.547   3.841
40074W        W 1440  25.219  33.985   3.684
40075W        W 1441  35.893   8.804  13.950
40076W        W 1442  40.886  35.444  14.962
40077W        W 1443  18.759  32.548  14.849
40078W        W 1444  15.324  24.977   2.399
40079W        W 1445   5.820   7.346  14.377
40080W        W 1446  35.920  19.147   1.729
40081W        W 1447  14.605   3.386  13.417
40082W        W 1448  34.044  35.362   2.188
40083W        W 1449   3.786  39.928   1.244
40084W        W 1450  26.203  13.739  14.950
40085W        W 1451  24.135   9.755  11.869
40086W        W 1452  41.792  27.452  12.544
40087W        W 1453  32.894  27.593  14.343
40088W        W 1454  27.497   4.721   3.846
40089W        W 1455  43.939  25.554   3.220
40090W        W 1456   4.716  27.128   9.991
40091W        W 1457  23.059   0.347  14.393
40092W        W 1458  35.477  31.564  11.031
40093W        W 1459  39.365  35.512  12.095
40094W        W 1460   5.361  15.697  13.481
40095W        W 1461  44.880   8.735  14.816
40096W        W 1462  43.444  29.454   1.393
40097W        W 1463  40.021  36.484   1.724
40098W        W 1464  38.985   5.780  14.501
40099W        W 1465   9.775  21.610   2.792
40100W        W 1466   3.710   0.472   0.402
40101W        W 1467  20.712   3.271   0.946
40102W        W 1468  23.013  19.268  10.958
40103W        W 1469   1.446   9.770  13.440
40104W        W 1470  18.260  25.011   1.742
40105W        W 1471  41.015  40.959  14.828
40106W        W 1472   3.277  18.575  12.955
40107W        W 1473  43.868  37.933   1.263
40108W        W 1474  23.518  29.167  14.972
40109W        W 1475  44.282   9.265  11.570
40110W        W 1476  29.667  38.017  11.573
40111W        W 1477  26.500   8.400   1.903
40112W        W 1478  35.060  18.225   4.211
40113W        W 1479  35.397   7.283   2.395
40114W        W 1480  15.264   8.888  11.105
40115W        W 1481  40.921  20.205   2.298
40116W        W 1482  44.449  14.292   3.685
40117W        W 1483   4.726  34.613  14.345
40118W        W 1484  16.573  16.682   2.305
40119W        W 1485  31.123  10.816   3.668
40120W        W 1486   4.726  20.568   1.850
40121W        W 1487  28.085  38.956  12.833
40122W        W 1488  38.553  33.030   4.176
40123W        W 1489  17.108   9.279  13.024
40124W        W 1490  37.465   9.346   4.174
40125W        W 1491  39.971  27.603   2.728
40126W        W 1492  42.022   1.309   3.777
40127W        W 1493  25.684  37.991  12.366
40128W        W 1494  41.379  15.641  10.482
40129W        W 1495   8.331  12.156  11.880
40130W        W 1496  25.567   1.365   4.746
40131W        W 1497  12.797  19.716   1.741
40132W        W 1498   8.376  20.072   1.812
40133W        W 1499   8.199  17.580  14.467
40134W        W 1500  35.092  39.498  12.923
40135W        W 1501   8.321  43.953   4.608
40136W        W 1502  33.552   1.903  10.542
40137W        W 1503  27.112  31.926   3.724
40138W        W 1504  44.275  18.699   3.199
40139W        W 1505   8.674  19.770  11.583
40140W        W 1506  10.186  25.637   9.954
40141W        W 1507  26.002  16.686   0.818
40142W        W 1508  12.211  27.588  10.558
40143W        W 1509  41.328  44.899  14.879
40144W        W 1510  29.133  32.928   1.343
40145W        W 1511  43.880  41.318  13.968
40146W        W 1512  23.219  38.415   1.226
40147W        W 1513   1.906  42.504   1.426
40148W        W 1514  44.338  22.521   2.419
40149W        W 1515  29.115  38.978  10.997
40150W        W 1516  15.716  37.007  11.078
40151W        W 1517  42.499  43.438  14.464
40152W        W 1518  26.203  14.264   4.771
40153W        W 1519  40.395  35.587  10.957
40154W        W 1520   4.764  29.541  11.513
40155W        W 1521  23.681  34.454  13.867
40156W        W 1522  25.509  19.773  13.494
40157W        W 1523  13.153  13.314  13.973
40158W        W 1524  13.211  24.175   3.676
40159W        W 1525  21.148   2.310   0.791
40160W        W 1526   1.748  31.465   1.835
40161W        W 1527  31.532  33.603  11.006
40162W        W 1528  31.622  16.639  13.409
40163W        W 1529  22.072  16.316   1.864
40164W        W 1530  23.731  20.249  11.988
40165W        W 1531  35.398   0.433   1.332
40166W        W 1532  13.160  13.670   0.347
40167W        W 1533  19.701  44.328   0.349
40168W        W 1534   3.919   3.279  13.442
40169W        W 1535  13.681  15.193   1.238
40170W        W 1536   0.780  20.744  13.939
40171W        W 1537  21.244  22.635   4.219
40172W        W 1538  35.492  10.635  11.075
40173W        W 1539  41.503  14.600   1.285
40174W        W 1540  27.596  40.895  11.032
40175W        W 1541  11.343  34.457   0.834
40176W        W 1542  11.638   6.342  12.858
40177W        W 1543  26.036  31.492  13.881
40178W        W 1544  16.082  32.567   5.098
40179W        W 1545  22.729   4.903  11.568
40180W        W 1546  37.445  37.974  13.799
40181W        W 1547   6.695  15.106  12.075
40182W        W 1548   2.933  36.998   0.328
40183W        W 1549   9.221  14.698  12.989
40184W        W 1550  21.149   1.263  10.908
40185W        W 1551   2.738  36.085  14.334
40186W        W 1552  31.496  23.105   3.292
40187W        W 1553  16.234   2.358   1.751
40188W        W 1554  34.470  32.549  10.921
40189W        W 1555   3.298  27.472   0.884
40190W        W 1556   5.747  18.114  14.963
40191W        W 1557  15.325   6.313  11.413
40192W        W 1558   1.810   2.748  14.790
40193W        W 1559  20.672  12.225   2.688
40194W        W 1560  37.445  18.544   5.149
40195W        W 1561  24.669  27.538  12.420
40196W        W 1562  11.707  40.904  12.885
40197W        W 1563  37.416  39.339   0.959
40198W        W 1564   9.750   8.358   3.738
40199W        W 1565  42.302  12.309   2.745
40200W        W 1566  44.927   0.393   1.894
40201W        W 1567  27.582  37.409  13.380
40202W        W 1568   4.257  42.912   4.156
40203W        W 1569   1.967   2.736  13.930
40204W        W 1570  27.472  34.005   1.744
40205W        W 1571  26.019  16.231   0.456
40206W        W 1572  16.613  15.242  13.944
40207W        W 1573   9.376  12.671  12.936
40208W        W 1574  37.433  38.042  11.531
40209W        W 1575  29.961   2.912   3.650
40210W        W 1576  34.536  18.130   0.309
40211W        W 1577   5.211  13.256   3.730
40212W        W 1578  38.894  25.186  14.781
40213W        W 1579  22.721   4.771   1.427
40214W        W 1580  32.469  36.853  12.070
40215W        W 1581  31.484  30.655  14.003
40216W        W 1582  39.932   3.447   1.438
40217W        W 1583  34.448  17.740   2.257
40218W        W 1584  41.997   3.809   3.660
40219W        W 1585   8.348   1.442   3.636
40220W        W 1586  34.044  12.818  13.474
40221W        W 1587  21.674  18.783  11.444
40222W        W 1588   7.751  27.472  11.442
40223W        W 1589  38.465  14.135   3.701
40224W        W 1590  10.691  26.470  14.850
40225W        W 1591  17.747  26.556   0.835
40226W        W 1592  25.514  33.037   0.923
40227W        W 1593  31.092  11.741   0.282
40228W        W 1594  28.482  21.685  12.921
40229W        W 1595   6.187   8.342  12.988
40230W        W 1596  36.572  29.961  10.636
40231W        W 1597  40.031  24.187   4.647
40232W        W 1598  35.549   0.481   2.283
40233W        W 1599  11.157  22.095  11.102
40234W        W 1600   8.358   7.900   3.796
40235W        W 1601  11.372  12.269  12.482
40236W        W 1602  38.514   5.713  11.411
40237W        W 1603  29.113  18.188  10.576
40238W        W 1604  17.249  16.155  11.539
40239W        W 1605  15.273  21.018  14.427
40240W        W 1606  22.518  26.551  13.462
40241W        W 1607  13.169  40.373   0.359
40242W        W 1608  21.196   2.898   4.602
40243W        W 1609  29.922  32.904   4.151
40244W        W 1610   5.932  21.608   1.809
40245W        W 1611  33.413  40.401  12.978
40246W        W 1612  43.443  27.556   4.833
40247W        W 1613  35.042  42.777   3.356
40248W        W 1614  23.990  24.974   0.317
40249W        W 1615  33.561  10.854   0.320
40250W        W 1616  29.971   7.802  13.900
40251W        W 1617  24.580  19.069   3.313
40252W        W 1618  43.352   9.208  11.445
40253W        W 1619  18.705  25.693   3.695
40254W        W 1620  38.017  39.520   3.281
40255W        W 1621  20.047   0.958  11.400
40256W        W 1622  17.707  23.128   1.358
40257W        W 1623  43.983  16.115   0.751
40258W        W 1624  35.500  28.554   0.961
40259W        W 1625  28.958  20.260   9.590
40260W        W 1626  40.426  18.233  13.406
40261W        W 1627  43.992  11.252  12.871
40262W        W 1628  37.944  11.266  12.901
40263W        W 1629  10.293   8.379  14.354
40264W        W 1630  32.394  27.475  11.905
40265W        W 1631  26.620  10.236  13.330
40266W        W 1632  27.523  25.080  11.882
40267W        W 1633   7.221  37.069  11.944
40268W        W 1634  26.148  19.705  14.006
40269W        W 1635  44.262  16.702  13.315
40270W        W 1636  22.520  12.194  12.389
40271W        W 1637  19.079  17.192   1.276
40272W        W 1638  37.862  34.390   2.768
40273W        W 1639  26.059  38.067   0.813
40274W        W 1640  24.040   9.817  14.303
40275W        W 1641  33.606  25.132  13.449
40276W        W 1642  34.612  40.957   1.337
40277W        W 1643  28.678  31.592  11.564
40278W        W 1644  28.459  21.540   0.963
40279W        W 1645  14.169  37.355  10.525
40280W        W 1646  31.445  14.668   0.255
40281W        W 1647  12.800   1.951  12.412
40282W        W 1648  10.700  10.149  11.412
40283W        W 1649  22.032   2.403   4.698
40284W        W 1650   6.855  25.985   2.690
40285W        W 1651  37.848   5.263  13.892
40286W        W 1652   9.827   1.786   2.368
40287W        W 1653  22.225  39.063  13.917
40288W        W 1654  36.044  40.850  11.971
40289W        W 1655  17.664  12.724   1.927
40290W        W 1656  18.261   0.273  14.330
40291W        W 1657  20.706   4.814   4.343
40292W        W 1658  39.027   6.875  12.081
40293W        W 1659   0.250  24.033  13.040
40294W        W 1660  44.949  21.223  10.467
40295W        W 1661  36.882  30.597  11.941
40296W        W 1662  12.325   3.378   2.231
40297W        W 1663   3.234   7.832   3.356
40298W        W 1664  42.000  21.188  13.345
40299W        W 1665  44.467   6.233  14.026
40300W        W 1666  25.512  34.417   3.203
40301W        W 1667  36.391  11.283  10.645
40302W        W 1668   0.323  13.791   1.789
40303W        W 1669  11.831  16.281   3.284
40304W        W 1670  26.010  19.053   4.780
40305W        W 1671  33.581  15.183   1.830
40306W        W 1672   7.815   8.313  13.791
40307W        W 1673  37.354   5.796  12.039
40308W        W 1674  38.858   1.947  13.809
40309W        W 1675  15.811  23.990  10.962
40310W        W 1676  31.973  26.667   5.169
40311W        W 1677   3.277  35.360  14.935
40312W        W 1678  26.085   3.946   3.362
40313W        W 1679  13.634  23.685   1.714
40314W        W 1680  13.831  26.988   1.701
40315W        W 1681  31.986  24.175   2.374
40316W        W 1682  43.304  28.039   4.687
40317W        W 1683  36.349   1.831   0.414
40318W        W 1684  42.377  15.203  14.480
40319W        W 1685   5.687  24.001  12.995
40320W        W 1686  21.150   3.749  14.907
40321W        W 1687  16.678  40.381   3.364
40322W        W 1688  28.021   0.251  11.440
40323W        W 1689  37.361  44.438  10.571
40324W        W 1690   3.767  20.098  10.896
40325W        W 1691  18.126  19.576   1.260
40326W        W 1692  44.375  16.585  13.846
40327W        W 1693  44.919  39.519  14.358
40328W        W 1694  21.727  33.491   2.722
40329W        W 1695  17.719  16.314  14.442
40330W        W 1696  42.832  30.957   4.609
40331W        W 1697  20.692  37.892   0.369
40332W        W 1698  12.271  43.324   0.276
40333W        W 1699  16.642  17.115   0.394
40334W        W 1700  42.347   3.909  12.524
40335W        W 1701  13.171  22.021  11.462
40336W        W 1702   8.657  14.314  12.850
40337W        W 1703  29.079  25.694  14.988
40338W        W 1704  27.980  27.548   2.851
40339W        W 1705  18.260  36.382  10.567
40340W        W 1706  30.113  16.805   3.669
40341W        W 1707   0.377   0.751   2.672
40342W        W 1708  42.501   4.341   3.833
40343W        W 1709   8.267  40.541   4.281
40344W        W 1710  15.202   8.777   0.893
40345W        W 1711   5.890  40.884   4.329
40346W        W 1712  10.291  39.991  14.800
40347W        W 1713   5.438  35.891   4.258
40348W        W 1714  43.274  17.295   4.313
40349W        W 1715  12.200  20.705  11.894
40350W        W 1716   4.836   6.723   3.806
40351W        W 1717  27.578  21.622   9.441
40352W        W 1718   1.755  29.151   3.235
40353W        W 1719  17.780  16.120   0.268
40354W        W 1720  34.993  16.292  10.986
40355W        W 1721  44.459  41.443  10.124
40356W        W 1722  20.640  35.583   1.780
40357W        W 1723  37.903  37.919  14.322
40358W        W 1724  29.957  31.046   2.680
40359W        W 1725  17.779  35.859  14.785
40360W        W 1726  24.201  33.039   0.289
40361W        W 1727  25.506  15.144   2.683
40362W        W 1728  34.104  34.562  11.883
40363W        W 1729  14.741  28.464   0.838
40364W        W 1730  18.547  20.663   0.801
40365W        W 1731  10.259  24.204   1.803
40366W        W 1732   4.398  40.353  10.901
40367W        W 1733  30.418  18.646  12.045
40368W        W 1734   0.790  40.358   3.679
40369W        W 1735  19.760   6.251  10.510
40370W        W 1736  33.424  32.480  13.311
40371W        W 1737  35.947  28.627   0.414
40372W        W 1738  18.698  19.146  10.991
40373W        W 1739  43.384   2.792  14.409
40374W        W 1740  17.626  12.251  13.547
40375W        W 1741  24.653  35.575  10.137
40376W        W 1742  40.910  28.468  10.607
40377W        W 1743  43.951  39.014   4.735
40378W        W 1744  29.153   0.760  13.052
40379W        W 1745  41.808   0.825  14.470
40380W        W 1746  15.241   8.879  11.519
40381W        W 1747  12.705  38.435   4.683
40382W        W 1748  16.145  21.621   2.193
40383W        W 1749   6.263  24.722  11.420
40384W        W 1750  11.850  19.580   0.340
40385W        W 1751   5.221   4.435   2.183
40386W        W 1752   8.316   7.908  14.513
40387W        W 1753  42.849  41.437   2.900
40388W        W 1754   4.743   0.809   4.253
40389W        W 1755   1.366   7.821  14.000
40390W        W 1756  44.827  43.968   3.177
40391W        W 1757   3.234  27.448  13.459
40392W        W 1758  27.021  12.665   1.832
40393W        W 1759   1.764  11.685  13.392
40394W        W 1760  33.098  38.991   4.654
40395W        W 1761  30.949   5.740  13.346
40396W        W 1762  41.802   6.680   3.730
40397W        W 1763  41.322  25.126  11.439
40398W        W 1764  37.477  12.806   2.884
40399W        W 1765  41.886   4.417  12.039
40400W        W 1766  23.999  43.321   4.683
40401W        W 1767  12.235   2.293   3.277
40402W        W 1768  23.524  42.476  14.996
40403W        W 1769  18.179   1.339  12.062
40404W        W 1770  16.767  22.164  12.085
40405W        W 1771  39.456  30.641   3.647
40406W        W 1772  20.074  32.094  10.430
40407W        W 1773  17.220   9.344  14.007
40408W        W 1774  15.312  43.923   4.213
40409W        W 1775  42.876  25.551   2.860
40410W        W 1776   1.939   7.220  11.857
40411W        W 1777  19.566   4.270  13.363
40412W        W 1778  36.963  27.158   1.444
40413W        W 1779  24.184  22.587   3.157
40414W        W 1780  25.166  18.719  14.983
40415W        W 1781  24.651  28.170   1.246
40416W        W 1782  25.523   5.264   1.355
40417W        W 1783   6.819  43.878   2.772
40418W        W 1784  26.640  20.661   2.875
40419W        W 1785  30.936  20.647  10.484
40420W        W 1786  10.205  41.799  12.359
40421W        W 1787  31.536  41.811  12.998
40422W        W 1788  39.543   3.285   2.864
40423W        W 1789  25.196  30.440   0.260
40424W        W 1790  21.122  15.121   0.334
40425W        W 1791  18.622   4.362  10.530
40426W        W 1792   1.832  31.981  14.866
40427W        W 1793  29.479  26.166  13.854
40428W        W 1794   7.766  30.641   3.844
40429W        W 1795  15.265  43.797   4.759
40430W        W 1796  37.481  16.287   2.864
40431W        W 1797  17.640   1.364  13.935
40432W        W 1798   3.357  23.560   3.274
40433W        W 1799  41.035  10.285  14.478
40434W        W 1800  24.717  43.404  11.470
40435W        W 1801  30.596  26.992   4.797
40436W        W 1802   7.797  11.810   3.183
40437W        W 1803  18.173  41.000  13.342
40438W        W 1804  33.034  27.002   4.763
40439W        W 1805  43.484  23.567  14.426
40440W        W 1806   9.151  36.087   2.311
40441W        W 1807  23.033  16.129  13.874
40442W        W 1808   4.248   0.813  10.932
40443W        W 1809  20.756  33.622  14.402
40444W        W 1810  21.188  31.105   3.865
40445W        W 1811   4.319  30.530   2.772
40446W        W 1812   0.283   6.188   3.290
40447W        W 1813  42.006  28.589  13.828
40448W        W 1814  40.855  35.409  10.894
40449W        W 1815  19.731  13.637   4.777
40450W        W 1816  12.121  10.349   2.717
40451W        W 1817  26.057  37.991  13.961
40452W        W 1818  28.631  20.102   9.566
40453W        W 1819  14.136   8.239   1.866
40454W        W 1820  19.060  30.485  12.093
40455W        W 1821  32.996   5.860  12.374
40456W        W 1822  27.056  32.564  12.865
40457W        W 1823   0.869  29.949   1.829
40458W        W 1824   2.346  42.865  12.343
40459W        W 1825  11.706  31.044  12.974
40460W        W 1826  18.582  43.974   2.726
40461W        W 1827  10.768  33.554  13.032
40462W        W 1828   4.285  24.154   4.699
40463W        W 1829  28.081   8.377   2.694
40464W        W 1830  40.921  17.113   0.830
40465W        W 1831  27.508  38.477   1.728
40466W        W 1832  29.646   3.219  14.897
40467W        W 1833   3.451  16.583  12.041
40468W        W 1834  29.017  36.552  14.393
40469W        W 1835   1.814  34.954  10.558
40470W        W 1836  43.942  22.141   3.785
40471W        W 1837  30.052  44.321  14.337
40472W        W 1838   7.795  42.373   2.252
40473W        W 1839   9.375  30.993   1.820
40474W        W 1840   6.695  29.429   3.195
40475W        W 1841   5.233  24.049  13.531
40476W        W 1842  41.919  38.895   1.764
40477W        W 1843  29.141  13.830  10.421
40478W        W 1844   6.851  29.036  11.600
40479W        W 1845   0.988  17.203  12.422
40480W        W 1846  29.435  38.853  10.079
40481W        W 1847  18.746  44.267   1.787
40482W        W 1848  33.054  42.316   3.303
40483W        W 1849  24.560  28.946   4.348
40484W        W 1850  27.487  41.805  12.962
40485W        W 1851  20.684  39.517  11.979
40486W        W 1852  13.170  42.892   5.122
40487W        W 1853  32.041  32.142  11.514
40488W        W 1854  17.255   5.288  10.894
40489W        W 1855   7.205  13.189   1.795
40490W        W 1856   8.682   5.793  12.940
40491W        W 1857  19.701  10.352  10.563
40492W        W 1858   9.346  14.157  12.093
40493W        W 1859  34.985  19.159   3.179
40494W        W 1860  26.088  34.879   0.822
40495W        W 1861   8.209  33.558  11.516
40496W        W 1862  28.171  22.186   2.772
40497W        W 1863  17.591  26.968   4.658
40498W        W 1864  14.666  31.514   3.199
40499W        W 1865  17.257  24.012  13.495
40500W        W 1866  41.366  22.144   4.254
40501W        W 1867   5.357  44.867   0.922
40502W        W 1868  10.798  41.038   1.703
40503W        W 1869  38.830   3.318  13.977
40504W        W 1870  35.569  37.066   2.326
40505W        W 1871  33.526  14.653   0.284
40506W        W 1872  35.595   3.790   1.251
40507W        W 1873  24.226  36.929  10.630
40508W        W 1874  21.699   2.462   1.812
40509W        W 1875  38.566  10.678  14.293
40510W        W 1876  12.748  24.207  12.090
40511W        W 1877  15.118  16.626  13.414
40512W        W 1878  44.000  28.982  13.428
40513W        W 1879  19.780  38.930   2.797
40514W        W 1880  39.008  26.122   0.462
40515W        W 1881  34.568  32.539  11.924
40516W        W 1882  31.952  40.432   0.473
40517W        W 1883  41.918  42.946   1.820
40518W        W 1884  39.377  19.774   3.870
40519W        W 1885  28.149   1.937  12.022
40520W        W 1886  37.012  17.091  12.413
40521W        W 1887  39.532  44.324  11.916
40522W        W 1888  22.536  23.563  11.861
40523W        W 1889  27.981  11.175  12.093
40524W        W 1890  31.635  19.706  11.883
40525W        W 1891  30.940  26.676   2.221
40526W        W 1892  35.372  43.931   4.618
40527W        W 1893  20.706  31.553  10.925
40528W        W 1894   3.290  36.409  14.020
40529W        W 1895  38.881  18.147   0.963
40530W        W 1896  14.739  16.212  12.889
40531W        W 1897  36.063  34.610   4.145
40532W        W 1898   3.422   8.347  12.926
40533W        W 1899  21.073  43.782  10.914
40534W        W 1900  21.688  10.264   3.257
40535W        W 1901  22.714  21.094   3.270
40536W        W 1902   9.687  19.612   3.865
40537W        W 1903  18.171  22.073  13.845
40538W        W 1904  33.006  44.286   1.316
40539W        W 1905  21.727  24.078  13.866
40540W        W 1906  34.888  10.199   3.258
40541W        W 1907   3.948  43.861   2.871
40542W        W 1908  42.935  13.256  14.512
40543W        W 1909  20.187  12.837   4.731
40544W        W 1910  39.998  12.661   0.380
40545W        W 1911  20.661  42.911   0.871
40546W        W 1912  35.441  10.784  14.861
40547W        W 1913   9.323  18.290   4.833
40548W        W 1914  27.084   8.188  13.053
40549W        W 1915  39.905  27.493   1.328
40550W        W 1916  35.081   0.807   1.318
40551W        W 1917   9.695  35.528   4.657
40552W        W 1918   4.428  42.932   1.435
40553W        W 1919  13.785   8.226   3.687
40554W        W 1920  17.782  21.635  11.092
40555W        W 1921  22.640  11.849  14.847
40556W        W 1922  13.198   6.838  10.529
40557W        W 1923   6.800  13.173  11.509
40558W        W 1924   2.823  23.594  12.477
40559W        W 1925  18.556   3.736   4.348
40560W        W 1926  37.421  19.215  12.508
40561W        W 1927  13.149  21.679  11.962
40562W        W 1928  15.779  30.440   4.824
40563W        W 1929  33.890  12.822   2.218
40564W        W 1930   0.873  43.440  12.943
40565W        W 1931  24.982   0.465   1.893
40566W        W 1932  31.956  29.937   0.456
40567W        W 1933  44.330   2.964  14.962
40568W        W 1934  12.782   2.245   4.822
40569W        W 1935   1.398   3.944   2.349
40570W        W 1936  38.392  35.019   1.344
40571W        W 1937  44.342  41.426   3.187
40572W        W 1938  22.679  38.333  11.884
40573W        W 1939  28.184  40.338   2.711
40574W        W 1940  23.601  38.936   3.211
40575W        W 1941  15.764   4.830  14.886
40576W        W 1942  25.171  24.003   3.703
40577W        W 1943  15.647  16.249   1.832
40578W        W 1944   7.814  22.149   4.790
40579W        W 1945  14.203   2.915   1.252
40580W        W 1946   9.295  42.811   9.922
40581W        W 1947  10.854   9.714  14.966
40582W        W 1948  16.751  28.649   1.864
40583W        W 1949  33.033  10.316   4.354
40584W        W 1950   4.245   6.874  10.615
40585W        W 1951  11.290  26.605  10.493
40586W        W 1952  23.061   9.224  11.446
40587W        W 1953  21.056   4.840   4.750
40588W        W 1954  36.050  21.548  11.592
40589W        W 1955  38.918   1.777   2.871
40590W        W 1956  17.065  21.589  12.030
40591W        W 1957  41.347  27.497   0.832
40592W        W 1958   7.706  42.371  14.514
40593W        W 1959  41.459  29.085   0.767
40594W        W 1960   9.825  13.602  11.482
40595W        W 1961  23.736   8.801  14.990
40596W        W 1962  41.376   7.759   3.360
40597W        W 1963  26.695  32.079  12.007
40598W        W 1964  10.283   1.325  14.320
40599W        W 1965  30.541  22.674  13.423
40600W        W 1966  25.211  32.070   3.169
40601W        W 1967  30.466   7.211  14.388
40602W        W 1968  17.145  21.621  12.362
40603W        W 1969  32.113   2.449  10.983
40604W        W 1970  31.910  28.658   4.250
40605W        W 1971  30.524  33.405  14.978
40606W        W 1972  18.674  14.229   5.300
40607W        W 1973  23.535   0.799   4.751
40608W        W 1974   0.375  44.493  11.508
40609W        W 1975  19.119   5.361  12.527
40610W        W 1976  32.518   0.398   3.642
40611W        W 1977  40.372  42.833   4.828
40612W        W 1978   5.330  33.490   1.298
40613W        W 1979  44.914  27.054   3.673
40614W        W 1980   4.910   1.945   9.503
40615W        W 1981  28.041   0.880   3.861
40616W        W 1982  24.975  26.018  11.435
40617W        W 1983  21.224  41.020   2.246
40618W        W 1984  19.568  39.848  13.386
40619W        W 1985  28.171  43.850   4.681
40620W        W 1986  41.518  11.317   1.923
40621W        W 1987  29.594  36.400   5.197
40622W        W 1988  34.983  11.228  12.349
40623W        W 1989  21.049  16.192  10.977
40624W        W 1990  31.943   0.928  11.886
40625W        W 1991   0.435  23.001   1.779
40626W        W 1992  43.286  42.937  13.346
40627W        W 1993  16.308   9.789  13.480
40628W        W 1994  27.542   9.744   2.706
40629W        W 1995  32.633  30.611  14.382
40630W        W 1996  30.627  40.488  14.445
40631W        W 1997  11.633  10.169   0.358
40632W        W 1998   6.415  17.778   2.219
40633W        W 1999  33.022  11.724  12.413
40634W        W 2000  39.456  41.504   1.859
40635W        W 2001  10.382  28.662  11.424
40636W        W 2002  44.386  12.776  10.895
40637W        W 2003  19.058  42.875   4.798
40638W        W 2004  31.931  16.595   4.605
40639W        W 2005  44.304  28.060   4.718
40640W        W 2006  25.040  31.550  11.473
40641W        W 2007  40.546   2.831  12.051
40642W        W 2008   8.323  11.739  10.523
40643W        W 2009  31.998   8.690  11.575
40644W        W 2010  29.952   2.294   4.179
40645W        W 2011  38.932  17.271  12.349
40646W        W 2012  28.158  39.878   0.374
40647W        W 2013  33.976  28.573  10.897
40648W        W 2014  27.097  11.240   4.181
40649W        W 2015  15.589  30.931  12.850
40650W        W 2016  24.530  34.418  11.536
40651W        W 2017  30.134   6.920  13.538
40652W        W 2018  11.195   0.757   0.902
40653W        W 2019  31.640  43.894  11.002
40654W        W 2020   1.749   2.799   0.379
40655W        W 2021  35.368   8.850  14.944
40656W        W 2022   1.304   6.393  11.111
40657W        W 2023  44.940   8.251   3.680
40658W        W 2024  37.460  18.193  11.602
40659W        W 2025   3.437  15.294   9.472
40660W        W 2026  24.645   0.319   4.626
40661W        W 2027  36.508  33.411  14.505
40662W        W 2028  19.165  20.638  11.521
40663W        W 2029  38.024  37.907   0.821
40664W        W 2030   2.788  23.139   2.674
40665W        W 2031   8.334  14.635  11.488
40666W        W 2032  12.175  15.276   0.448
40667W        W 2033   8.879  27.069  14.978
40668W        W 2034  25.151  37.898   4.312
40669W        W 2035   0.393  18.265   1.852
40670W        W 2036  27.962  28.003   3.339
40671W        W 2037  24.095  36.975  13.847
40672W        W 2038  22.236  21.572  12.573
40673W        W 2039  22.007  42.873   2.312
40674W        W 2040  20.029  17.643   4.618
40675W        W 2041  21.587  37.372  13.942
40676W        W 2042  23.584  20.174   1.309
40677W        W 2043  26.007   0.822  10.534
40678W        W 2044  11.218  23.162   3.315
40679W        W 2045   2.468  15.587   0.483
40680W        W 2046  25.618   2.766  12.437
40681W        W 2047  18.662  12.147   0.801
40682W        W 2048   8.256  15.700   3.255
40683W        W 2049  35.546  31.035  11.020
40684W        W 2050   4.805  10.239  13.478
40685W        W 2051  19.635  29.471  11.535
40686W        W 2052  39.027  19.690  13.435
40687W        W 2053  34.916   4.419   0.376
40688W        W 2054  43.279  16.670   4.791
40689W        W 2055  24.173  31.596  10.585
40690W        W 2056  27.090  29.008   4.790
40691W        W 2057   7.357  11.809   0.391
40692W        W 2058  43.784  26.559   2.335
40693W        W 2059  44.428  36.431  11.955
40694W        W 2060  32.028  21.754  13.966
40695W        W 2061  42.513  19.653   2.762
40696W        W 2062  21.609  42.361  12.341
40697W        W 2063  36.005  28.141   0.896
40698W        W 2064  24.134   7.898  10.477
40699W        W 2065  23.152  28.539  12.854
40700W        W 2066  32.082   8.403  14.343
40701W        W 2067  23.021  43.442  12.357
40702W        W 2068  29.978  18.593   2.236
40703W        W 2069  16.185  38.435   1.865
40704W        W 2070  43.495  10.264  10.947
40705W        W 2071  29.549   9.250   2.368
40706W        W 2072  32.952  41.402   3.184
40707W        W 2073  31.401  22.050  14.779
40708W        W 2074  35.567  39.812   3.324
40709W        W 2075   0.333  17.644  10.470
40710W        W 2076  39.480  20.637   2.322
40711W        W 2077  18.594  18.118   3.148
40712W        W 2078  23.989  41.375  14.815
40713W        W 2079  35.916  40.404   2.740
40714W        W 2080   4.222   7.763   2.221
40715W        W 2081  31.066  21.136   1.400
40716W        W 2082   3.851  12.177   1.800
40717W        W 2083  41.346  27.012   2.321
40718W        W 2084  37.872  17.171  13.352
40719W        W 2085  15.757  39.813  12.410
40720W        W 2086  29.479  39.509  11.609
40721W        W 2087   3.812  15.597   0.966
40722W        W 2088  21.587   9.201   4.801
40723W        W 2089   2.904   8.206   2.831
40724W        W 2090  11.815  15.725   3.864
40725W        W 2091  22.232  23.710   0.776
40726W        W 2092  42.293  28.573  14.764
40727W        W 2093   5.862  16.758   5.253
40728W        W 2094  41.415   1.886   3.807
40729W        W 2095   4.839  26.525  12.092
40730W        W 2096  43.784  28.644   0.244
40731W        W 2097  34.074  41.910   5.114
40732W        W 2098  35.978   2.364  12.578
40733W        W 2099  14.787  12.852  11.487
40734W        W 2100   6.395  28.053  14.334
40735W        W 2101  43.827  10.637   3.754
40736W        W 2102  28.652  20.237   2.816
40737W        W 2103  41.847  19.537   0.950
40738W        W 2104   3.886  32.888  13.818
40739W        W 2105   2.290  15.102  13.406
40740W        W 2106  42.847   3.765  10.596
40741W        W 2107  30.967  11.751   2.203
40742W        W 2108  37.547  37.042  14.869
40743W        W 2109  29.535  37.393   4.808
40744W        W 2110  44.313   8.736   3.322
40745W        W 2111   4.770  19.260  11.923
40746W        W 2112   3.792   0.414   3.262
40747W        W 2113  29.940  43.962   3.837
40748W        W 2114  30.995  37.857   1.432
40749W        W 2115  25.522  12.198  12.829
40750W        W 2116  38.333   0.923  14.376
40751W        W 2117  44.848  15.111  14.297
40752W        W 2118   3.732  18.674  14.933
40753W        W 2119  42.806  14.613  13.904
40754W        W 2120  19.091   9.827   2.419
40755W        W 2121  24.713   0.858   4.151
40756W        W 2122  23.163  35.865   1.830
40757W        W 2123  43.973  28.480   0.926
40758W        W 2124   1.831   4.233  12.383
40759W        W 2125  40.959  21.189   1.764
40760W        W 2126  15.601   9.348   3.694
40761W        W 2127  43.008  39.425   1.886
40762W        W 2128  39.501   9.248   4.643
40763W        W 2129   7.784   0.482  14.309
40764W        W 2130  11.832  42.501   2.207
40765W        W 2131   6.344  39.444   0.947
40766W        W 2132  38.330   5.245   4.305
40767W        W 2133  28.047  40.805  12.426
40768W        W 2134   2.278  20.085   1.314
40769W        W 2135  25.204  13.246   3.816
40770W        W 2136  12.154  26.467   0.429
40771W        W 2137   6.820  16.222  11.118
40772W        W 2138  35.872   7.269   1.381
40773W        W 2139   8.322  38.901   1.799
40774W        W 2140  16.250  37.441  14.875
40775W        W 2141  37.565  10.726   0.335
40776W        W 2142  16.170  34.514  12.887
40777W        W 2143  27.479  12.205  14.332
40778W        W 2144  27.467  11.724   3.251
40779W        W 2145  28.533   9.804  12.430
40780W        W 2146  31.013  27.675  13.422
40781W        W 2147  14.287   0.333  13.805
40782W        W 2148  39.969  20.261  10.528
40783W        W 2149  16.116  22.104   0.920
40784W        W 2150   5.868  27.511   4.623
40785W        W 2151  36.039  32.616  11.036
40786W        W 2152   7.909   7.218  13.859
40787W        W 2153  36.958  11.857  13.335
40788W        W 2154  32.087   5.690  10.982
40789W        W 2155  27.076  14.290   3.345
40790W        W 2156  40.015  44.436  11.583
40791W        W 2157  33.583  17.223   4.829
40792W        W 2158  10.261  16.605  13.894
40793W        W 2159  32.579  10.310   3.820
40794W        W 2160  32.490   7.828  14.011
40795W        W 2161  33.951  22.200   3.354
40796W        W 2162  32.621  23.714  12.577
40797W        W 2163  37.518  19.240   3.852
40798W        W 2164  41.386   2.307  13.040
40799W        W 2165  42.285  13.145  11.911
40800W        W 2166  23.228  13.648  14.800
40801W        W 2167  34.428   8.760   3.212
40802W        W 2168  28.652  39.437   0.321
40803W        W 2169  20.067  27.194   4.294
40804W        W 2170   7.846  34.874  10.101
40805W        W 2171   9.271   4.939  11.613
40806W        W 2172  24.084  39.406  11.384
40807W        W 2173  42.924  33.518   1.226
40808W        W 2174  19.063  10.225  13.460
40809W        W 2175  29.666  34.924   3.164
40810W        W 2176   7.232  14.327  14.955
40811W        W 2177  21.586  27.979  14.765
40812W        W 2178  15.198  38.941   4.640
40813W        W 2179  41.987  31.600  14.001
40814W        W 2180   2.283  32.021   9.922
40815W        W 2181  17.607  33.408  12.883
40816W        W 2182  19.659   0.782   0.883
40817W        W 2183  27.509   7.266  11.016
40818W        W 2184   6.803  19.237   3.642
40819W        W 2185  38.503  25.686   1.773
40820W        W 2186   1.886  17.627   3.717
40821W        W 2187  21.725  42.452  12.080
40822W        W 2188  14.589   8.232  13.863
40823W        W 2189   3.925  11.166  14.352
40824W        W 2190  20.123   0.256  12.401
40825W        W 2191   1.746   9.243  12.506
40826W        W 2192  43.969  15.205  11.393
40827W        W 2193  43.999   4.707  11.559
40828W        W 2194  24.663  39.049   2.867
40829W        W 2195  29.466  11.336   1.735
40830W        W 2196  26.199  12.166  11.855
40831W        W 2197  23.222   1.801   9.993
40832W        W 2198  38.960  35.883   4.274
40833W        W 2199  32.551  18.767   3.685
40834W        W 2200  33.987   2.964   3.760
40835W        W 2201  36.478  42.866   1.785
40836W        W 2202  39.538   0.448  14.346
40837W        W 2203   0.391  19.553  14.309
40838W        W 2204  33.398  18.564   1.850
40839W        W 2205  18.755  35.539   1.421
40840W        W 2206  34.464  24.054  13.985
40841W        W 2207  35.427   9.647   0.326
40842W        W 2208  18.663  44.780   1.299
40843W        W 2209  34.885   2.951  11.555
40844W        W 2210  34.893  18.679  13.526
40845W        W 2211  44.259   5.892  12.866
40846W        W 2212  39.002  29.145   0.344
40847W        W 2213  28.552  39.889   3.844
40848W        W 2214  32.115  34.571  10.463
40849W        W 2215  41.941   9.677   2.838
40850W        W 2216  15.255  20.622  12.085
40851W        W 2217  14.259  35.089   3.237
40852W        W 2218   0.361  17.160  11.481
40853W        W 2219  37.525  27.494   1.277
40854W        W 2220   5.359  21.745   1.759
40855W        W 2221  25.120  21.733   4.615
40856W        W 2222  18.210  24.712   2.197
40857W        W 2223  35.967  35.472  11.384
40858W        W 2224   8.282  27.526   4.341
40859W        W 2225  16.271  12.628  14.955
40860W        W 2226  28.501  42.449   3.707
40861W        W 2227  43.018  16.659  13.905
40862W        W 2228  19.261  18.118  11.467
40863W        W 2229  29.450  32.433  11.101
40864W        W 2230  10.822  17.566  10.995
40865W        W 2231   4.786  31.100  12.876
40866W        W 2232  38.508  15.676   4.285
40867W        W 2233   8.772  31.472   1.898
40868W        W 2234  36.884  40.849  10.470
40869W        W 2235  35.596  12.786  14.415
40870W        W 2236   4.443  29.527  11.425
40871W        W 2237   6.393  23.519   0.876
40872W        W 2238   9.715   1.352  14.781
40873W        W 2239  11.842   3.305  14.411
40874W        W 2240  40.513  37.371  10.627
40875W        W 2241   4.379  19.254   0.448
40876W        W 2242  43.456   9.330  13.920
40877W        W 2243  33.963  41.796  11.475
40878W        W 2244  23.715  24.496   4.268
40879W        W 2245   9.331   3.340  14.419
40880W        W 2246  24.543  23.687  12.892
40881W        W 2247  33.579  44.489  13.485
40882W        W 2248  23.191  13.750   4.768
40883W        W 2249   2.307  19.573  14.965
40884W        W 2250  34.611  32.593   4.165
40885W        W 2251  24.011  43.328  11.511
40886W        W 2252  20.183   9.744  14.446
40887W        W 2253  32.998  17.569   3.731
40888W        W 2254  17.590  20.653   2.252
40889W        W 2255  26.595   1.263  11.013
40890W        W 2256  22.616  35.008  11.528
40891W        W 2257   5.198  24.097  13.923
40892W        W 2258  28.020  44.891  12.396
40893W        W 2259  28.636  36.889  12.558
40894W        W 2260  10.295   3.893  12.927
40895W        W 2261   5.211  40.326   0.392
40896W        W 2262  26.528  17.294   0.915
40897W        W 2263   8.362  32.965  12.890
40898W        W 2264   9.694  22.534  13.489
40899W        W 2265  18.085  43.271  12.913
40900W        W 2266  20.754   1.925  13.353
40901W        W 2267  32.447  12.248   0.854
40902W        W 2268   2.784  31.014  10.563
40903W        W 2269  18.206  20.140  12.074
40904W        W 2270  38.965  43.834   4.324
40905W        W 2271  39.416   6.375   4.794
40906W        W 2272  16.802  39.008   2.359
40907W        W 2273  32.128  20.539  14.500
40908W        W 2274   6.281  42.364  12.436
40909W        W 2275   0.321   3.770   3.830
40910W        W 2276  38.965  32.560   0.932
40911W        W 2277  41.956  23.601  14.453
40912W        W 2278  36.909  40.813  11.987
40913W        W 2279  16.648   4.742  14.329
40914W        W 2280   3.880  30.969  13.392
40915W        W 2281  38.488   5.325  13.476
40916W        W 2282  22.058  42.381  11.581
40917W        W 2283  19.159  44.395  14.346
40918W        W 2284   4.728   0.861   0.905
40919W        W 2285  42.815  41.986   0.918
40920W        W 2286  36.080  36.517  12.577
40921W        W 2287  22.032   2.313   0.300
40922W        W 2288  37.013  12.647   3.357
40923W        W 2289   9.299   5.299  13.338
40924W        W 2290  31.569   4.439   4.676
40925W        W 2291  24.569  24.156   2.746
40926W        W 2292  11.821  32.925   1.367
40927W        W 2293  18.753   8.329  12.555
40928W        W 2294  13.818   8.307  10.947
40929W        W 2295  28.615  42.427   0.883
40930W        W 2296  20.267  40.962  14.362
40931W        W 2297  30.140   2.383  14.918
40932W        W 2298  14.714  10.306  13.864
40933W        W 2299   0.933   5.214  14.791
40934W        W 2300  25.013  38.408  13.391
40935W        W 2301  13.243  42.992  14.007
40936W        W 2302  41.805  26.185  14.777
40937W        W 2303  33.444   0.281  11.039
40938W        W 2304  34.042  22.672   9.998
40939W        W 2305  30.503  16.806   4.690
40940W        W 2306  25.093  42.936   4.261
40941W        W 2307  34.551  15.247  14.314
40942W        W 2308  28.547  40.356   1.326
40943W        W 2309  35.002  38.957  10.417
40944W        W 2310  19.048   9.856   1.709
40945W        W 2311  31.404  35.371  14.007
40946W        W 2312  31.434  38.412  13.444
40947W        W 2313  16.709  30.544  13.882
40948W        W 2314  13.713  18.139   3.171
40949W        W 2315  28.071  12.362   2.281
40950W        W 2316  37.000  25.582   4.157
40951W        W 2317  31.026  43.390  13.458
40952W        W 2318  14.827   4.930  10.894
40953W        W 2319  39.375  31.900  12.046
40954W        W 2320  12.784  44.914   0.736
40955W        W 2321  18.101   7.407   2.294
40956W        W 2322  23.691  42.003  13.861
40957W        W 2323  43.276  44.850  12.442
40958W        W 2324  25.984  12.628   0.311
40959W        W 2325   6.315  40.960  11.509
40960W        W 2326  40.994   1.967  13.384
40961W        W 2327  30.024   8.243  14.847
40962W        W 2328  34.612  17.696  11.018
40963W        W 2329  26.464  29.563  10.903
40964W        W 2330  27.556  10.145  10.447
40965W        W 2331  32.029  44.885  11.954
40966W        W 2332  36.846  10.384   3.637
40967W        W 2333  42.423  21.660   1.765
40968W        W 2334  13.347   1.446   0.858
40969W        W 2335   4.815  16.140   3.386
40970W        W 2336  35.884  28.097   3.739
40971W        W 2337  32.618   1.253   1.887
40972W        W 2338  30.464  20.730   0.294
40973W        W 2339  27.191  36.898   4.740
40974W        W 2340  10.301  33.527  11.547
40975W        W 2341  37.581  24.009  14.964
40976W        W 2342  21.654  17.151  13.803
40977W        W 2343   9.202  44.940   2.671
40978W        W 2344  25.973   5.375   4.628
40979W        W 2345  20.743   3.298   0.278
40980W        W 2346  38.351  19.177  13.958
40981W        W 2347  27.020  38.524   1.755
40982W        W 2348   9.325  19.264  14.865
40983W        W 2349  28.501  34.528   2.346
40984W        W 2350  30.557   5.234  12.043
40985W        W 2351   5.251   2.436  11.897
40986W        W 2352  15.643  27.016   1.436
40987W        W 2353  25.120  20.549   2.216
40988W        W 2354  27.597  36.924   1.367
40989W        W 2355  31.056  38.352   0.867
40990W        W 2356  22.683  13.135   4.154
40991W        W 2357  28.662  24.107   0.788
40992W        W 2358  41.976  29.995  13.897
40993W        W 2359  37.069  10.252  13.860
40994W        W 2360  22.580   9.168   4.305
40995W        W 2361  23.222  12.841   1.771
40996W        W 2362  33.882  29.946  14.396
40997W        W 2363  40.872  28.467  12.380
40998W        W 2364  17.298  23.186  12.848
40999W        W 2365  14.739  19.213  13.958
41000W        W 2366  10.648  27.000  13.336
41001W        W 2367  27.578   3.377  13.896
41002W        W 2368  26.606  22.101   4.115
41003W        W 2369  41.318  39.951   1.781
41004W        W 2370  38.919  18.768   5.164
41005W        W 2371  32.565  23.005   4.277
41006W        W 2372  42.790   2.240  12.984
41007W        W 2373  25.200  13.324  12.569
41008W        W 2374  28.562   3.892  10.959
41009W        W 2375  23.218   5.848  13.425
41010W        W 2376  37.438  22.220   1.394
41011W        W 2377  40.914  27.657   0.330
41012W        W 2378  32.995  39.347  12.995
41013W        W 2379  26.015  27.617  12.552
41014W        W 2380  34.391   1.365  10.895
41015W        W 2381  32.513  31.054   0.300
41016W        W 2382  19.256  23.636  11.893
41017W        W 2383  17.695   9.252  14.905
41018W        W 2384  40.817  31.943  12.015
41019W        W 2385  43.357  37.031   2.752
41020W        W 2386  29.955  29.996  14.909
41021W        W 2387  14.664  41.410   1.251
41022W        W 2388  14.648  25.563   2.682
41023W        W 2389  43.347  27.027   0.895
41024W        W 2390  31.458   8.796  10.949
41025W        W 2391  37.344  44.934  14.315
41026W        W 2392  17.794  19.594   4.647
41027W        W 2393  32.060  40.960   2.233
41028W        W 2394  35.982  17.691  11.055
41029W        W 2395  10.338  35.905  14.950
41030W        W 2396  11.700  19.059  14.793
41031W        W 2397  19.224   4.289  10.539
41032W        W 2398  10.231  22.207  11.961
41033W        W 2399  24.575   3.299   3.312
41034W        W 2400  11.825  43.369   2.312
41035W        W 2401  38.970  31.122   2.239
41036W        W 2402  15.314  15.693  12.447
41037W        W 2403  20.067  21.734   2.899
41038W        W 2404  21.066  37.547   2.766
41039W        W 2405  15.106  23.052   4.732
41040W        W 2406  15.746   4.916   0.928
41041W        W 2407  43.913  42.801   2.192
41042W        W 2408  39.959  16.668  14.842
41043W        W 2409  33.887  15.260   2.798
41044W        W 2410   5.212  12.259  11.998
41045W        W 2411  36.554  41.860   4.322
41046W        W 2412  42.031   6.246  12.013
41047W        W 2413  28.048   4.926   2.850
41048W        W 2414  21.732  26.484   2.336
41049W        W 2415  32.407  39.508   0.363
41050W        W 2416  43.516  18.123  12.372
41051W        W 2417  35.076  21.058   1.701
41052W        W 2418  24.613  40.359  12.494
41053W        W 2419  21.514   5.315   4.300
41054W        W 2420  20.201  13.817   3.214
41055W        W 2421  37.883  43.330   3.715
41056W        W 2422  22.675  32.399   4.299
41057W        W 2423   0.970  24.495   0.426
41058W        W 2424  31.599  17.284   1.288
41059W        W 2425  35.372  26.043  12.967
41060W        W 2426  38.015  39.061  12.038
41061W        W 2427  40.951  23.569   3.755
41062W        W 2428  28.094  24.987   0.916
41063W        W 2429  36.986  41.386  10.926
41064W        W 2430   1.837  26.702   1.754
41065W        W 2431  33.037  22.645  11.408
41066W        W 2432  41.943  35.481  14.939
41067W        W 2433  25.085  34.562  12.045
41068W        W 2434  18.163  36.512  14.843
41069W        W 2435  11.245  37.402   3.171
41070W        W 2436  26.043  29.434   3.836
41071W        W 2437  16.793  17.558  14.475
41072W        W 2438   9.662  25.515  12.420
41073W        W 2439  10.250   2.858  13.060
41074W        W 2440  29.071  23.096   2.358
41075W        W 2441   8.371  20.077   4.318
41076W        W 2442  14.244   2.828  12.062
41077W        W 2443   2.768  28.474  11.923
41078W        W 2444  32.993  31.109   3.632
41079W        W 2445  21.571  20.029   0.343
41080W        W 2446   3.874  13.658   1.698
41081W        W 2447  14.314  26.166  13.405
41082W        W 2448  17.586   4.304  14.362
41083W        W 2449  31.038  36.523   3.707
41084W        W 2450   4.758   8.711   1.825
41085W        W 2451   6.204  14.322   5.586
41086W        W 2452   3.907   1.873  12.046
41087W        W 2453  32.398   3.898  14.766
41088W        W 2454  11.835  42.902  13.992
41089W        W 2455  35.599   1.869   3.768
41090W        W 2456   1.423  38.857   1.267
41091W        W 2457  18.263   1.770  11.448
41092W        W 2458  37.057  32.980  11.896
41093W        W 2459  18.110  20.748  13.956
41094W        W 2460   7.352  29.542  13.824
41095W        W 2461  42.874   0.321  13.534
41096W        W 2462  10.807  42.868   4.810
41097W        W 2463  34.513  24.543  12.469
41098W        W 2464   9.284  29.082  11.072
41099W        W 2465  39.365   0.883  13.412
41100W        W 2466  12.675  29.002   3.239
41101W        W 2467  33.567  10.788  14.402
41102W        W 2468  11.350   0.473   3.788
41103W        W 2469  27.122   3.898   9.971
41104W        W 2470  31.107  31.997   1.247
41105W        W 2471   5.830  37.485   0.429
41106W        W 2472  38.463  11.746  13.052
41107W        W 2473   3.450  36.386   0.948
41108W        W 2474  39.910  25.134   2.892
41109W        W 2475  18.557  37.917  14.408
41110W        W 2476   0.895   6.265  13.385
41111W        W 2477  13.271  25.097  11.043
41112W        W 2478  24.192  41.932   1.397
41113W        W 2479   8.183   9.677  11.593
41114W        W 2480  41.865  27.995   1.277
41115W        W 2481  11.335  31.141  14.294
41116W        W 2482   5.814  24.108   4.666
41117W        W 2483   5.913  15.276  12.493
41118W        W 2484  16.126  14.798  14.320
41119W        W 2485  19.115  19.659   2.307
41120W        W 2486  20.086  25.671  14.296
41121W        W 2487  39.416  17.746  14.797
41122W        W 2488  25.705  43.948  13.046
41123W        W 2489   8.777  31.648  13.791
41124W        W 2490  41.337   3.377  11.126
41125W        W 2491  13.200  22.524   4.610
41126W        W 2492  38.989  11.329   3.320
41127W        W 2493   5.749  26.668   4.118
41128W        W 2494  22.063  28.470   0.916
41129W        W 2495  39.874   6.784  13.307
41130W        W 2496  29.087  24.703  14.394
41131W        W 2497   2.914   5.307  13.952
41132W        W 2498  27.570  19.771   4.283
41133W        W 2499  38.917  26.094   1.315
41134W        W 2500  36.950  15.600   3.296
41135W        W 2501  13.674  30.514   3.772
41136W        W 2502   7.222  10.143  13.487
41137W        W 2503   1.736  10.813  14.781
41138W        W 2504   3.864  33.541   2.699
41139W        W 2505   3.248  38.972  12.083
41140W        W 2506  39.940  36.973   2.399
41141W        W 2507  28.181  19.113  14.779
41142W        W 2508  13.261  29.038   0.290
41143W        W 2509  41.043  29.020  14.027
41144W        W 2510  36.546  12.649  12.864
41145W        W 2511  31.450  34.983  13.314
41146W        W 2512   6.911  18.789   5.094
41147W        W 2513  15.815  31.408  13.841
41148W        W 2514  19.666   4.728  10.507
41149W        W 2515  12.217  28.080   1.916
41150W        W 2516   0.888  26.615   0.752
41151W        W 2517  26.600  13.202   4.775
41152W        W 2518  32.926   1.768  10.406
41153W        W 2519  34.578  10.278   3.771
41154W        W 2520  33.597  44.837   3.775
41155W        W 2521   9.748  14.297   0.859
41156W        W 2522   9.209  41.400  12.368
41157W        W 2523  15.226  16.197   0.408
41158W        W 2524   6.323  44.000  14.280
41159W        W 2525  23.490   5.362  13.860
41160W        W 2526  11.711  43.019   0.251
41161W        W 2527  32.971   9.375   3.634
41162W        W 2528  23.988  37.337   0.767
41163W        W 2529  15.819  21.681  11.110
41164W        W 2530   2.918   3.752   4.344
41165W        W 2531  38.529  37.894   2.832
41166W        W 2532  39.841  38.385  11.379
41167W        W 2533  29.094  14.225   4.281
41168W        W 2534  25.017  21.237   5.217
41169W        W 2535  39.882  34.997   4.693
41170W        W 2536  36.580   8.784  11.070
41171W        W 2537  41.972  40.901  14.943
41172W        W 2538  28.646  40.467  14.937
41173W        W 2539  26.637  30.957   2.396
41174W        W 2540  27.558  11.314   0.918
41175W        W 2541   1.352  11.345   4.201
41176W        W 2542  35.990  35.110   1.729
41177W        W 2543  33.424  31.141   3.148
41178W        W 2544  38.402  21.235   3.692
41179W        W 2545  40.402  40.999  14.986
41180W        W 2546  25.069  33.539  10.480
41181W        W 2547  35.890  27.034   1.897
41182W        W 2548   9.860  16.764  10.954
41183W        W 2549  26.050  19.145   1.283
41184W        W 2550  40.813   3.854   2.712
41185W        W 2551   8.878   9.787   3.712
41186W        W 2552  24.511   1.284   4.119
41187W        W 2553  33.982  21.100  11.868
41188W        W 2554  36.448  38.943  13.357
41189W        W 2555  42.979   7.777   2.841
41190W        W 2556  31.036  11.308   3.333
41191W        W 2557  42.493  24.217  11.467
41192W        W 2558  15.142  44.868  11.499
41193W        W 2559   6.349  13.192   1.804
41194W        W 2560  16.792  36.528   3.382
41195W        W 2561   4.791   3.857   2.735
41196W        W 2562  29.663  27.022   4.712
41197W        W 2563  35.407  37.384   3.748
41198W        W 2564  10.679  32.071   2.801
41199W        W 2565  36.485  41.296   3.157
41200W        W 2566  26.639  32.005  12.541
41201W        W 2567  44.856  12.850   4.794
41202W        W 2568  22.587  13.732  13.510
41203W        W 2569  29.999  15.736  11.967
41204W        W 2570  19.173  40.439   3.278
41205W        W 2571  21.736   3.420   9.924
41206W        W 2572  34.589  12.135  14.473
41207W        W 2573  33.493  30.058   5.213
41208W        W 2574  13.321  40.481   9.970
41209W        W 2575   4.740   9.888  11.110
41210W        W 2576   8.834  44.494   1.811
41211W        W 2577  18.069  28.092  14.841
41212W        W 2578  30.971   7.354   3.366
41213W        W 2579  24.152   0.961  12.901
41214W        W 2580  26.599  17.659  13.944
41215W        W 2581  12.306  18.668  12.850
41216W        W 2582  29.028  36.984   0.360
41217W        W 2583   3.829   1.962  14.792
41218W        W 2584  41.805  30.494   2.824
41219W        W 2585   2.463   4.268   3.335
41220W        W 2586  25.040  18.079   4.762
41221W        W 2587  20.093  40.020  14.936
41222W        W 2588   7.839  36.515  13.373
41223W        W 2589  16.715  39.542  13.324
41224W        W 2590  20.603  15.249   2.810
41225W        W 2591  40.546  25.033  12.342
41226W        W 2592  25.158  23.583  10.973
41227W        W 2593   8.695  40.988  10.603
41228W        W 2594   3.890   7.280   3.178
41229W        W 2595   9.351  43.410   4.737
41230W        W 2596  19.151  32.902  13.444
41231W        W 2597   4.214   8.683  14.947
41232W        W 2598  13.606  39.046   3.180
41233W        W 2599  31.981  38.337  14.432
41234W        W 2600  44.330  25.569  11.930
41235W        W 2601  40.835  22.508  14.460
41236W        W 2602  20.070  15.146  13.029
41237W        W 2603  41.367  31.488   1.922
41238W        W 2604  26.111  38.412   2.293
41239W        W 2605  13.746  21.752   4.740
41240W        W 2606  15.762  41.307  14.307
41241W        W 2607  12.619  17.581  10.112
41242W        W 2608  42.996  15.790   5.255
41243W        W 2609  13.295  25.069  10.471
41244W        W 2610  34.535  41.993  11.607
41245W        W 2611  20.737  20.766   0.369
41246W        W 2612  43.847  26.957   1.227
41247W        W 2613  20.551  42.845   1.882
41248W        W 2614   6.844  33.115   1.388
41249W        W 2615   8.303  24.097   4.704
41250W        W 2616  41.859   8.372   1.296
41251W        W 2617  44.315  41.998  13.465
41252W        W 2618  33.056   3.371  12.017
41253W        W 2619  27.486  25.073   4.821
41254W        W 2620  41.396  25.517   1.272
41255W        W 2621  27.144  16.129  14.497
41256W        W 2622  44.410  17.162   2.860
41257W        W 2623  35.866  38.352   3.310
41258W        W 2624  28.671   2.261  12.446
41259W        W 2625  34.101  17.710   4.330
41260W        W 2626  33.013  38.865  14.358
41261W        W 2627  27.030  41.387  12.022
41262W        W 2628  38.451  14.267   4.739
41263W        W 2629   7.793   7.216   4.641
41264W        W 2630  13.209  21.586   0.355
41265W        W 2631  44.810  39.900  10.495
41266W        W 2632  31.081  21.109  13.424
41267W        W 2633  33.024  36.030   0.843
41268W        W 2634  17.202  44.485  14.015
41269W        W 2635  13.168  11.164   1.343
41270W        W 2636  20.034  14.229   3.201
41271W        W 2637  26.701  24.553  10.436
41272W        W 2638  18.699  26.089   0.789
41273W        W 2639  37.046  33.394  11.589
41274W        W 2640   0.806  34.915  11.578
41275W        W 2641  28.608  42.349   1.797
41276W        W 2642   4.391  21.543  13.977
41277W        W 2643   2.230  18.128  11.079
41278W        W 2644  35.484  22.226  14.877
41279W        W 2645  35.915   7.810   2.677
41280W        W 2646  38.898  39.847  11.936
41281W        W 2647  42.332  44.859  11.576
41282W        W 2648   0.910   7.236  12.487
41283W        W 2649  29.963  12.656  14.322
41284W        W 2650  11.824  28.663   2.215
41285W        W 2651  30.421   5.256  11.062
41286W        W 2652   1.747  11.181   4.267
41287W        W 2653  23.716  29.057   9.539
41288W        W 2654  17.254  17.184  14.417
41289W        W 2655   0.950   1.788  12.096
41290W        W 2656  36.523  19.593   4.264
41291W        W 2657  41.961  22.147  10.471
41292W        W 2658  39.440  10.359   3.703
41293W        W 2659  28.620  38.035   2.320
41294W        W 2660  29.577  12.704  14.441
41295W        W 2661  15.703  24.200  14.873
41296W        W 2662  33.576  30.644  11.118
41297W        W 2663  37.459  44.402   3.663
41298W        W 2664  44.405  35.369   2.193
41299W        W 2665   0.402  40.901   2.836
41300W        W 2666   2.302  30.594   1.409
41301W        W 2667  44.309  42.935  14.894
41302W        W 2668   6.219  43.846   4.769
41303W        W 2669  22.051  39.063   1.859
41304W        W 2670  14.716  28.012   3.824
41305W        W 2671  35.108  24.026  10.644
41306W        W 2672  26.088  18.273   2.856
41307W        W 2673  23.086  39.538   1.232
41308W        W 2674  26.516  30.088  13.368
41309W        W 2675   1.768   8.363   1.720
41310W        W 2676  10.371  33.943   0.783
41311W        W 2677  11.744   3.249   1.211
41312W        W 2678  38.829   2.228   1.768
41313W        W 2679   1.948  43.364  12.829
41314W        W 2680  24.521  41.791   2.252
41315W        W 2681  18.145  39.513  11.402
41316W        W 2682  11.225  38.022  10.955
41317W        W 2683  19.072  36.948   2.820
41318W        W 2684  42.454  30.043   1.843
41319W        W 2685  14.136  13.244  13.867
41320W        W 2686  15.632  29.132   2.197
41321W        W 2687   6.211  29.047   0.751
41322W        W 2688  39.828  16.107  11.033
41323W        W 2689  14.769   0.404   2.870
41324W        W 2690  28.183  10.269  14.801
41325W        W 2691  11.858   1.801   1.866
41326W        W 2692  10.843  32.055   0.423
41327W        W 2693  32.043  24.546   4.243
41328W        W 2694  13.322  14.616   9.937
41329W        W 2695  37.385  23.524  13.485
41330W        W 2696   1.376  19.704  11.537
41331W        W 2697   5.705  29.934  11.124
41332W        W 2698  16.606  17.797   0.291
41333W        W 2699  44.822  36.989  14.901
41334W        W 2700  35.374  21.067   4.319
41335W        W 2701  28.064  19.051  11.456
41336W        W 2702   0.264   7.752  13.505
41337W        W 2703  23.653  34.868   3.387
41338W        W 2704   6.707   2.801  12.442
41339W        W 2705   4.901  42.392   0.892
41340W        W 2706  23.049  26.162  10.537
41341W        W 2707   4.327  15.236   0.247
41342W        W 2708  23.101  19.663  13.330
41343W        W 2709  38.477  18.730   3.761
41344W        W 2710  29.103  20.703  13.021
41345W        W 2711   8.705  22.010  10.562
41346W        W 2712  20.251  10.651   4.728
41347W        W 2713  18.079   5.823   2.340
41348W        W 2714   9.306   9.208  13.326
41349W        W 2715  25.985  21.166   3.310
41350W        W 2716  23.083  33.540   3.769
41351W        W 2717  22.638  26.496  11.940
41352W        W 2718  13.203  44.422  14.884
41353W        W 2719   9.879  36.539   0.444
41354W        W 2720  13.808   6.719   1.735
41355W        W 2721   0.448  10.319  10.465
41356W        W 2722  41.487  41.388   0.892
41357W        W 2723  41.840  30.609   3.357
41358W        W 2724  30.090  21.141   3.368
41359W        W 2725  36.023   9.313   1.763
41360W        W 2726   9.660  27.155  13.404
41361W        W 2727  35.015  41.804  11.921
41362W        W 2728  23.107  10.282  11.587
41363W        W 2729   5.756  24.682   0.315
41364W        W 2730  17.763  44.379   1.848
41365W        W 2731  20.687  24.004  12.580
41366W        W 2732   5.358   3.939  11.439
41367W        W 2733  23.120  20.700  14.449
41368W        W 2734  42.386   8.307   2.367
41369W        W 2735  39.850  44.889   2.678
41370W        W 2736  30.506  39.399   1.699
41371W        W 2737  17.243  42.802  12.897
41372W        W 2738  43.337  40.316   3.819
41373W        W 2739  40.455  19.690  10.135
41374W        W 2740  27.582  11.147   4.225
41375W        W 2741  31.472  33.383   0.762
41376W        W 2742  37.932  26.012  14.469
41377W        W 2743  34.587  33.404   3.178
41378W        W 2744  31.458  12.153  13.932
41379W        W 2745  39.957  11.849   2.803
41380W        W 2746  44.867  27.652  10.009
41381W        W 2747  41.364   9.359  10.570
41382W        W 2748  35.069  22.518  12.988
41383W        W 2749  22.062  30.011   2.724
41384W        W 2750   7.690  33.960  10.990
41385W        W 2751  19.188   3.875   0.324
41386W        W 2752   4.903  33.909   0.389
41387W        W 2753   3.722  27.005   4.278
41388W        W 2754  18.588   5.202  14.865
41389W        W 2755  24.649  29.009  11.094
41390W        W 2756   4.284  29.008  13.978
41391W        W 2757   6.192  44.010  13.448
41392W        W 2758   7.812  39.538   3.180
41393W        W 2759  19.225  42.461   1.395
41394W        W 2760   4.305  43.783  13.402
41395W        W 2761  29.585  36.402  11.067
41396W        W 2762  26.161  22.075   1.400
41397W        W 2763   6.901  29.952   1.773
41398W        W 2764  27.030   2.754  10.992
41399W        W 2765  11.854  36.855  10.556
41400W        W 2766  11.631  33.590   4.598
41401W        W 2767  22.195  36.973  11.493
41402W        W 2768  44.366  20.664  10.919
41403W        W 2769  34.920  20.756  12.044
41404W        W 2770  28.495   6.214  13.382
41405W        W 2771  27.584  37.086   0.348
41406W        W 2772  13.310   1.461   1.858
41407W        W 2773   4.365  34.884  14.774
41408W        W 2774  11.679  13.738  14.374
41409W        W 2775  43.844  27.047   0.947
41410W        W 2776   4.927  32.113  13.885
41411W        W 2777  20.629  33.612  12.066
41412W        W 2778   2.738  17.121   2.847
41413W        W 2779  22.734  40.370  13.978
41414W        W 2780  37.021  38.518   0.840
41415W        W 2781  15.220  41.919   4.193
41416W        W 2782   6.195  40.421   1.869
41417W        W 2783  37.459  20.163  11.993
41418W        W 2784  36.455  20.726  10.481
41419W        W 2785  36.403  28.089   3.831
41420W        W 2786  43.975  24.019  12.484
41421W        W 2787  29.537  22.161  12.051
41422W        W 2788  24.168  35.952  13.973
41423W        W 2789  38.979   4.873   1.231
41424W        W 2790  20.667   2.771  12.050
41425W        W 2791  14.188  16.213  11.993
41426W        W 2792  10.363  16.239  11.427
41427W        W 2793  43.961   5.286   4.159
41428W        W 2794  36.067   0.292   2.870
41429W        W 2795  19.779  40.882   0.436
41430W        W 2796  42.891  18.573  13.904
41431W        W 2797  18.202  32.941  11.575
41432W        W 2798  18.067  41.315  10.575
41433W        W 2799  28.010  38.919   3.829
41434W        W 2800  26.026  21.683  11.053
41435W        W 2801  40.443  30.478  12.534
41436W        W 2802  30.970  37.990   4.320
41437W        W 2803  23.184  13.137   2.358
41438W        W 2804  22.153  30.497   2.675
41439W        W 2805  40.965  29.978  11.029
41440W        W 2806  17.629   3.710  12.390
41441W        W 2807  21.236   7.847  13.938
41442W        W 2808  11.778  20.591   1.323
41443W        W 2809  12.787  34.998  14.824
41444W        W 2810  26.155  24.554  11.990
41445W        W 2811  24.208   3.269  14.827
41446W        W 2812  18.271   9.658   0.920
41447W        W 2813  37.053  41.841  12.402
41448W        W 2814   7.412   7.772  10.933
41449W        W 2815  39.358  11.140   1.724
41450W        W 2816   3.734  40.352   2.718
41451W        W 2817   3.875  32.579  14.465
41452W        W 2818  19.601   5.375  10.443
41453W        W 2819   4.731   2.421   1.450
41454W        W 2820  13.215  35.468   1.429
41455W        W 2821  11.196  38.031  10.602
41456W        W 2822   5.842  16.294  14.317
41457W        W 2823  42.375  16.602  14.868
41458W        W 2824   5.827  34.074   0.254
41459W        W 2825  38.532  21.669   2.877
41460W        W 2826   5.239  12.839  14.961
41461W        W 2827  19.204  40.339   4.268
41462W        W 2828  35.513  40.402  14.342
41463W        W 2829   3.889  27.645  10.016
41464W        W 2830  44.957  43.350  14.761
41465W        W 2831  23.091   2.403  14.313
41466W        W 2832  19.600  19.061   2.219
41467W        W 2833  35.031  15.678  13.015
41468W        W 2834   1.880  42.878   4.130
41469W        W 2835  40.480   4.796  13.902
41470W        W 2836  29.633  37.480   3.780
41471W        W 2837  33.606   4.238   2.734
41472W        W 2838   5.850  18.252   0.350
41473W        W 2839  23.611   1.442   2.234
41474W        W 2840  18.169  27.161   4.344
41475W        W 2841  26.457  17.655   2.214
41476W        W 2842  17.622  16.226   3.260
41477W        W 2843   8.305  39.985   4.604
41478W        W 2844  44.981  30.135   0.459
41479W        W 2845  11.358  17.240   1.407
41480W        W 2846  37.914   8.301   0.954
41481W        W 2847  13.729  16.199   3.745
41482W        W 2848  25.582  17.589  12.010
41483W        W 2849  39.488  43.399  13.450
41484W        W 2850   0.917  25.088   4.702
41485W        W 2851  36.056   1.369  11.011
41486W        W 2852  33.416  11.236   0.880
41487W        W 2853  17.134  26.163   4.717
41488W        W 2854  26.183  16.191   4.133
41489W        W 2855  38.414  21.245   3.378
41490W        W 2856  39.470  16.647  12.092
41491W        W 2857  12.206  25.074   1.869
41492W        W 2858  34.109  27.627  12.066
41493W        W 2859   5.859  13.841  10.609
41494W        W 2860  12.246  10.704  11.898
41495W        W 2861  36.533  27.000  13.487
41496W        W 2862   7.709  34.990   1.305
41497W        W 2863  36.448  11.304  12.843
41498W        W 2864   1.754  11.249  12.849
41499W        W 2865  31.405  25.034  10.635
41500W        W 2866  17.141  35.436   2.191
41501W        W 2867  32.899  43.342  11.477
41502W        W 2868  39.449  33.433  11.563
41503W        W 2869  14.191  35.105   1.818
41504W        W 2870  40.992  10.323  13.468
41505W        W 2871  27.955   8.855   0.861
41506W        W 2872  25.155  34.576   2.371
41507W        W 2873  27.967  21.578  11.925
41508W        W 2874  22.127   2.846  13.450
41509W        W 2875  11.830   1.797   2.282
41510W        W 2876   4.780  42.991  12.976
41511W        W 2877  28.476  35.043  14.854
41512W        W 2878  37.012  33.934   4.281
41513W        W 2879  39.451  11.754   4.160
41514W        W 2880   3.461  23.134   3.265
41515W        W 2881   8.160  39.536   1.448
41516W        W 2882  21.145  40.398  10.565
41517W        W 2883  10.224  22.025   2.228
41518W        W 2884  31.917  28.952   2.820
41519W        W 2885   4.398  31.901  10.087
41520W        W 2886  13.717  20.673  14.374
41521W        W 2887  19.540  22.737  13.020
41522W        W 2888  41.511  38.360   0.729
41523W        W 2889  17.747  29.092   4.605
41524W        W 2890   0.747  29.926  14.994
41525W        W 2891  19.731  43.953   4.156
41526W        W 2892  23.683  41.937  14.515
41527W        W 2893  22.062   1.456  10.915
41528W        W 2894  14.746   5.258  14.805
41529W        W 2895  21.082  12.670  14.432
41530W        W 2896  33.095  13.648   1.884
41531W        W 2897  16.662  27.960   1.334
41532W        W 2898  35.596  23.498   4.828
41533W        W 2899   8.192  18.294   3.382
41534W        W 2900  13.109  37.845   2.732
41535W        W 2901  21.521  42.510  13.050
41536W        W 2902   6.769  37.526  14.311
41537W        W 2903  25.603  37.917   1.914
41538W        W 2904   5.266  36.518  11.541
41539W        W 2905  26.462  18.665  12.493
41540W        W 2906  25.995  30.507   1.747
41541W        W 2907  41.998   1.340  10.443
41542W        W 2908  14.286  17.087   0.758
41543W        W 2909  12.616  27.632  11.387
41544W        W 2910   2.260   3.285   0.797
41545W        W 2911  19.557  34.119  10.414
41546W        W 2912  33.115  18.581   0.454
41547W        W 2913   6.395   9.313  14.878
41548W        W 2914   2.792  24.186  13.518
41549W        W 2915  26.078  42.440   0.813
41550W        W 2916  41.899  40.930   4.218
41551W        W 2917  23.686   0.797  11.404
41552W        W 2918  11.717  13.833  11.470
41553W        W 2919  16.796  43.302   0.805
41554W        W 2920  41.478  40.390   1.421
41555W        W 2921  25.104  16.282   0.433
41556W        W 2922  29.127  24.632   3.236
41557W        W 2923  34.058  25.081  11.555
41558W        W 2924  38.909  28.665  13.393
41559W        W 2925   5.353  12.754   3.341
41560W        W 2926  35.431  16.629   1.411
41561W        W 2927   6.216  19.165  13.538
41562W        W 2928  18.155  36.016  11.565
41563W        W 2929  12.759  42.918  11.493
41564W        W 2930  33.970  27.492   0.246
41565W        W 2931  17.604  34.961   1.345
41566W        W 2932  14.733  11.306   4.711
41567W        W 2933  12.326  15.668   1.780
41568W        W 2934  34.921   7.886  10.925
41569W        W 2935  26.678  26.484   5.206
41570W        W 2936   9.329   0.302   2.182
41571W        W 2937  30.082  34.434  13.463
41572W        W 2938  21.081  23.163   1.341
41573W        W 2939  35.864  35.926   4.168
41574W        W 2940  39.435  25.707  11.964
41575W        W 2941  25.072   1.827   4.828
41576W        W 2942   6.834   0.359  14.029
41577W        W 2943  18.744  44.990   3.686
41578W        W 2944  29.551   7.905  12.568
41579W        W 2945  16.273   8.294  14.828
41580W        W 2946   9.679  26.198   2.775
41581W        W 2947  17.198   2.348   3.233
41582W        W 2948  43.316  31.493   1.792
41583W        W 2949  38.507   6.201  10.890
41584W        W 2950  13.836  19.550  11.128
41585W        W 2951   6.199  10.250  10.889
41586W        W 2952   8.775  31.922   5.189
41587W        W 2953  37.856  25.167   2.808
41588W        W 2954  21.735  21.107  12.519
41589W        W 2955  23.651  32.934   0.422
41590W        W 2956  23.666  40.922   4.818
41591W        W 2957  18.766  13.737  14.380
41592W        W 2958  42.981  23.721  10.020
41593W        W 2959  43.407  25.622  12.052
41594W        W 2960  12.363  25.517   4.206
41595W        W 2961  43.794  35.942   0.752
41596W        W 2962  26.586  30.985   4.637
41597W        W 2963   2.900   7.750  11.481
41598W        W 2964  37.368  29.127  11.547
41599W        W 2965  15.592   6.402   0.852
41600W        W 2966  42.028  26.974  14.460
41601W        W 2967  17.706   7.395   3.847
41602W        W 2968  31.962  22.193  13.518
41603W        W 2969  31.930  28.130   2.873
41604W        W 2970   3.822  10.368   0.842
41605W        W 2971   5.726  31.150  11.418
41606W        W 2972  28.145  19.666   4.612
41607W        W 2973  37.880  12.180   2.776
41608W        W 2974  44.820  15.155  12.061
41609W        W 2975  25.528  24.665   1.238
41610W        W 2976   5.700   3.278  14.515
41611W        W 2977  31.947  35.593   3.360
41612W        W 2978  34.433  13.839  14.448
41613W        W 2979  11.194  19.772  10.431
41614W        W 2980  10.291  24.618  14.318
41615W        W 2981   7.228   3.238  13.850
41616W        W 2982   6.346  43.858  10.992
41617W        W 2983  43.306  15.257  13.879
41618W        W 2984  15.743  32.416   3.310
41619W        W 2985   7.344  35.865   2.688
41620W        W 2986  43.783   5.929   1.320
41621W        W 2987  18.597   1.751   1.437
41622W        W 2988  26.459  28.492   4.621
41623W        W 2989  31.599  14.692  11.024
41624W        W 2990  37.451  31.076  11.092
41625W        W 2991  17.610  18.167  11.408
41626W        W 2992  37.857  14.113   4.285
41627W        W 2993  19.090  30.552  13.441
41628W        W 2994   8.775   5.895   0.276
41629W        W 2995  19.213  28.490   3.297
41630W        W 2996  17.132  29.630   3.243
41631W        W 2997  10.349  25.689  11.117
41632W        W 2998  17.299   9.324   4.716
41633W        W 2999  20.621  25.476   0.430
41634W        W 3000  10.643  26.688   4.174
41635W        W 3001  24.093  34.118  14.497
41636W        W 3002  44.773  42.319   3.818
41637W        W 3003  35.860  10.760  11.072
41638W        W 3004   6.800  33.922   0.882
41639W        W 3005   5.705  19.191  13.547
41640W        W 3006  18.552  13.746   3.164
41641W        W 3007  20.142  12.182   3.250
41642W        W 3008  33.008  25.991   4.128
41643W        W 3009  40.330  30.652   1.395
41644W        W 3010   3.859   4.731  12.577
41645W        W 3011   6.338   1.780   2.777
41646W        W 3012  33.559  43.486  11.859
41647W        W 3013  32.464   5.814  12.089
41648W        W 3014  31.502  12.784   2.776
41649W        W 3015   5.811  28.624  12.049
41650W        W 3016  35.897  17.231  13.962
41651W        W 3017  42.010  21.072  11.535
41652W        W 3018  21.515  31.583  10.920
41653W        W 3019  12.272  27.616   1.904
41654W        W 3020  26.975  35.555  11.876
41655W        W 3021   4.771  27.973   5.274
41656W        W 3022  43.016  26.536  11.380
41657W        W 3023  10.374  19.773  14.891
41658W        W 3024  26.131  28.525   0.772
41659W        W 3025  12.140  14.699   0.886
41660W        W 3026  24.131  16.709   1.853
41661W        W 3027   7.212  21.689   4.602
41662W        W 3028   8.178   3.756   3.676
41663W        W 3029  23.587  25.556  14.423
41664W        W 3030  43.811  42.309   4.201
41665W        W 3031  21.193  28.024  11.498
41666W        W 3032  42.880   0.762  12.387
41667W        W 3033  22.232  32.609   3.683
41668W        W 3034  33.417  21.524  13.032
41669W        W 3035  32.403  21.731   3.819
41670W        W 3036  30.427  25.122  13.949
41671W        W 3037  10.869  28.930  12.404
41672W        W 3038  38.349  44.433  13.454
41673W        W 3039   7.771   5.232  12.365
41674W        W 3040   3.443  19.655   3.320
41675W        W 3041   5.693  19.195   4.298
41676W        W 3042  13.714  37.012   4.229
41677W        W 3043   3.393  32.525   3.314
41678W        W 3044   7.257  28.020   4.258
41679W        W 3045  37.005   8.690   2.371
41680W        W 3046  42.469  12.270  12.460
41681W        W 3047  38.458  40.836  11.373
41682W        W 3048   6.862  40.873  13.971
41683W        W 3049  18.679  28.530  13.511
41684W        W 3050  40.813  24.010   0.319
41685W        W 3051  33.926  26.502  12.448
41686W        W 3052  28.156  18.171  13.852
41687W        W 3053  23.665  33.948   1.284
41688W        W 3054  40.897  17.778  12.836
41689W        W 3055  10.146  30.599   4.633
41690W        W 3056  44.433  23.668   2.851
41691W        W 3057   3.225  32.133  10.559
41692W        W 3058   3.297  18.560   3.274
41693W        W 3059  11.676  16.632  13.408
41694W        W 3060   8.760   1.407   2.392
41695W        W 3061  37.434  37.900  10.601
41696W        W 3062  40.844  21.628  11.501
41697W        W 3063  13.319  15.595  11.006
41698W        W 3064  33.507  15.821  10.484
41699W        W 3065  13.722  41.380  12.373
41700W        W 3066  34.865  24.998  11.035
41701W        W 3067  13.301  39.436   0.849
41702W        W 3068  17.294  42.479  12.370
41703W        W 3069   0.307  11.147  10.448
41704W        W 3070  15.701  40.834  10.620
41705W        W 3071   6.855  15.730   0.394
41706W        W 3072  20.604  30.088   2.666
41707W        W 3073  19.540   4.708  12.908
41708W        W 3074  22.640  19.221   3.191
41709W        W 3075   0.767  40.045   4.284
41710W        W 3076   4.377  31.430  11.956
41711W        W 3077   7.690  44.952  13.388
41712W        W 3078  14.236  13.171   4.640
41713W        W 3079  42.879  16.688   0.849
41714W        W 3080   9.221  12.324  13.407
41715W        W 3081  22.710  42.844  13.537
41716W        W 3082  44.852  26.975   4.281
41717W        W 3083  42.511  10.759  12.968
41718W        W 3084   0.818   6.206   4.240
41719W        W 3085  34.038   8.312   1.783
41720W        W 3086  17.667   9.203   2.398
41721W        W 3087  10.203  43.289   5.298
41722W        W 3088  16.123   6.379  12.513
41723W        W 3089   6.788  21.589  14.905
41724W        W 3090  38.031  35.975  12.499
41725W        W 3091   6.763  28.509  12.477
41726W        W 3092  19.551  26.665  11.101
41727W        W 3093   9.259  22.240  13.383
41728W        W 3094  39.442  43.338  14.826
41729W        W 3095  30.500  27.515   2.746
41730W        W 3096  13.126  22.040   2.357
41731W        W 3097  33.038  12.737  12.405
41732W        W 3098   0.471  33.005  11.520
41733W        W 3099  41.921  22.670   1.404
41734W        W 3100  34.119  42.879   5.179
41735W        W 3101   9.756  23.141  11.585
41736W        W 3102   2.229   8.867   3.327
41737W        W 3103   9.258  37.060   4.285
41738W        W 3104  14.166   0.924   5.126
41739W        W 3105  38.832  19.772   4.212
41740W        W 3106  44.435  19.779   1.773
41741W        W 3107  44.994   5.282  11.876
41742W        W 3108  15.145  30.516   4.161
41743W        W 3109  28.641  35.575  11.394
41744W        W 3110  35.377   4.236   1.904
41745W        W 3111  31.495   6.885   4.251
41746W        W 3112  25.102  24.230  14.356
41747W        W 3113  30.542   0.408  14.827
41748W        W 3114   8.197  40.810  12.435
41749W        W 3115  14.765  11.802  14.493
41750W        W 3116  19.105  36.510   4.617
41751W        W 3117  23.583  35.854   4.216
41752W        W 3118  36.474  34.868  14.005
41753W        W 3119  35.876  23.154  12.097
41754W        W 3120  30.508  40.891   0.441
41755W        W 3121  10.730  14.229  11.458
41756W        W 3122  31.433  32.965   4.293
41757W        W 3123  24.648  27.681  14.381
41758W        W 3124   2.277  44.415   5.113
41759W        W 3125  10.152  43.840   4.711
41760W        W 3126  17.258  44.912  12.545
41761W        W 3127  39.489  21.548   1.254
41762W        W 3128  13.686  19.748   2.328
41763W        W 3129  18.601  31.492   3.282
41764W        W 3130   6.407  24.647  13.948
41765W        W 3131  14.317  10.317  11.410
41766W        W 3132  43.490  24.611   3.803
41767W        W 3133  17.665  18.738  10.427
41768W        W 3134  30.536   7.691   0.760
41769W        W 3135  32.621  22.053  13.971
41770W        W 3136   6.233  40.958   1.357
41771W        W 3137   1.853  44.757  11.419
41772W        W 3138   8.872  17.795  14.436
41773W        W 3139  37.489  36.469  14.443
41774W        W 3140  44.923  33.944   1.854
41775W        W 3141   6.350  12.308  11.505
41776W        W 3142  12.786  30.513  14.925
41777W        W 3143  23.734  28.563  10.527
41778W        W 3144  19.200   6.364   2.371
41779W        W 3145  29.607  14.205   3.823
41780W        W 3146   5.866   5.273  11.602
41781W        W 3147  23.712  44.263  11.876
41782W        W 3148  12.665   4.764   2.252
41783W        W 3149  15.696   2.440  12.952
41784W        W 3150   5.767  43.314   0.300
41785W        W 3151   3.235  44.356  12.043
41786W        W 3152  27.607  28.993   1.799
41787W        W 3153  42.006  40.003  13.375
41788W        W 3154  44.290  18.698   0.424
41789W        W 3155  24.193  13.136   1.365
41790W        W 3156  32.533  41.953  10.590
41791W        W 3157   6.902  17.763   3.865
41792W        W 3158  21.635  30.607  11.419
41793W        W 3159  18.690  39.523   0.307
41794W        W 3160  14.666  21.675  13.498
41795W        W 3161   7.776  23.042   4.165
41796W        W 3162  18.704  41.003  11.884
41797W        W 3163  23.625  18.088   3.836
41798W        W 3164  26.570  26.092   2.233
41799W        W 3165  10.727  36.424   2.816
41800W        W 3166   0.431   0.384   1.225
41801W        W 3167  39.867  16.627  10.642
41802W        W 3168   6.359  15.780   0.412
41803W        W 3169   5.332  36.960  14.883
41804W        W 3170  13.244   9.245  13.474
41805W        W 3171   8.828  11.197   3.265
41806W        W 3172  40.543  28.675   0.324
41807W        W 3173  27.095   6.862   3.380
41808W        W 3174   5.323   6.777   0.417
41809W        W 3175   2.354  35.093   0.830
41810W        W 3176  25.985   5.328   5.277
41811W        W 3177  35.056  12.332  12.563
41812W        W 3178  20.158  42.917   1.819
41813W        W 3179  10.640   9.328   4.808
41814W        W 3180  36.348  33.979   1.298
41815W        W 3181  30.909  10.374   2.184
41816W        W 3182  15.693  35.018   3.843
41817W        W 3183  25.065  24.542  13.038
41818W        W 3184  34.029   9.195   4.206
41819W        W 3185  43.901  41.423  10.464
41820W        W 3186   0.865  16.123   3.719
41821W        W 3187  27.619  20.716   4.656
41822W        W 3188   5.403  21.116  12.043
41823W        W 3189  14.110  44.464   4.136
41824W        W 3190  36.462   6.352   4.161
41825W        W 3191  15.682  36.526  14.435
41826W        W 3192   7.368   7.289  12.535
41827W        W 3193  30.915   6.404  13.977
41828W        W 3194  35.081   8.665   2.710
41829W        W 3195   4.328  33.990   3.285
41830W        W 3196  10.346  21.672  10.974
41831W        W 3197  17.680  29.085  11.467
41832W        W 3198  15.221  32.934   3.212
41833W        W 3199   9.691  40.370  10.591
41834W        W 3200  24.606  27.497  10.469
41835W        W 3201  18.588  17.780   1.816
41836W        W 3202   7.766  21.157  14.483
41837W        W 3203   1.380  32.924   2.898
41838W        W 3204  27.641  16.083  13.938
41839W        W 3205  10.337  38.517   1.377
41840W        W 3206  12.134  10.222   1.789
41841W        W 3207   5.236  40.983   2.869
41842W        W 3208  43.439  20.100   2.252
41843W        W 3209  14.307   2.895   1.913
41844W        W 3210  23.160  12.162  13.339
41845W        W 3211  13.700  25.994  11.915
41846W        W 3212  40.316  28.661   2.821
41847W        W 3213  12.343   2.947  14.802
41848W        W 3214  31.485   7.764   0.916
41849W        W 3215  39.396   6.305   0.934
41850W        W 3216  27.614  26.974   1.853
41851W        W 3217  39.032   3.437  14.422
41852W        W 3218  18.590  28.052  13.947
41853W        W 3219  30.152  31.550   3.192
41854W        W 3220  34.514   8.819   1.353
41855W        W 3221  31.011   7.690   0.838
41856W        W 3222  32.992  11.726  13.433
41857W        W 3223  27.592  12.788  14.003
41858W        W 3224   8.850   8.300   4.119
41859W        W 3225  15.243  14.666  12.576
41860W        W 3226   3.815   2.818  10.452
41861W        W 3227  26.126  40.837  11.871
41862W        W 3228  26.574  44.985  10.410
41863W        W 3229   1.376  35.542   2.252
41864W        W 3230  18.090  25.122  11.497
41865W        W 3231   5.711  39.838  14.348
41866W        W 3232  34.582  29.137   0.444
41867W        W 3233   4.733  37.958  12.442
41868W        W 3234  22.062   3.437  14.957
41869W        W 3235  38.014  19.043   4.345
41870W        W 3236  12.667  27.689  12.462
41871W        W 3237  35.559  31.043   1.212
41872W        W 3238  17.766  26.192  14.011
41873W        W 3239  37.471   1.409   1.450
41874W        W 3240   1.434  41.795   3.282
41875W        W 3241  16.705  42.372  12.375
41876W        W 3242  34.402  42.818   0.825
41877W        W 3243  20.060  21.118   1.872
41878W        W 3244  11.631  29.453   1.322
41879W        W 3245  24.528  37.883  13.316
41880W        W 3246   9.672  20.551  11.998
41881W        W 3247  18.620  22.208  11.984
41882W        W 3248  30.616  22.744   9.441
41883W        W 3249  41.313   6.347   4.327
41884W        W 3250  22.680  25.995   2.894
41885W        W 3251  10.771  39.863   1.898
41886W        W 3252   8.894  15.176  10.921
41887W        W 3253  32.414  21.614  12.344
41888W        W 3254   3.246   0.312   2.257
41889W        W 3255  27.129  23.153   0.840
41890W        W 3256  35.867   3.348   3.846
41891W        W 3257  32.428   4.430  14.347
41892W        W 3258  19.047  19.687  13.391
41893W        W 3259  35.109  39.375   2.846
41894W        W 3260   3.810  38.376   3.847
41895W        W 3261   7.787  31.607   4.709
41896W        W 3262  12.820  37.442  14.399
41897W        W 3263  44.910   1.749   3.315
41898W        W 3264   9.860  11.197   2.349
41899W        W 3265  38.390  28.436   0.819
41900W        W 3266  31.138  22.025  14.506
41901W        W 3267   5.731   8.873  10.523
41902W        W 3268   6.249  41.446   0.270
41903W        W 3269   2.242  36.047  10.496
41904W        W 3270  41.448  31.094   1.782
41905W        W 3271  14.636   2.723   3.164
41906W        W 3272  39.537  33.059   0.313
41907W        W 3273  16.091   3.856  14.849
41908W        W 3274  38.404  24.595  12.080
41909W        W 3275  15.230  37.551  11.537
41910W        W 3276  31.948  13.180  13.055
41911W        W 3277  28.670  24.492   2.828
41912W        W 3278  43.375  31.104   4.794
41913W        W 3279  35.468   3.717  12.363
41914W        W 3280  27.139  33.423  10.569
41915W        W 3281  38.918  42.311  14.905
41916W        W 3282   2.865  16.094   4.163
41917W        W 3283  18.192  29.010  12.555
41918W        W 3284   9.856  34.111   4.654
41919W        W 3285  38.396  36.468  14.431
41920W        W 3286  23.127  16.605   2.824
41921W        W 3287   2.863  37.938  13.061
41922W        W 3288  16.238   9.849  14.275
41923W        W 3289  15.151  21.680   4.635
41924W        W 3290  28.989  19.236   5.223
41925W        W 3291  16.569  39.967   2.696
41926W        W 3292  10.206  32.030   3.837
41927W        W 3293   1.288  42.024   4.641
41928W        W 3294  20.260   5.770   4.697
41929W        W 3295  28.492   7.853   3.213
41930W        W 3296  26.516   7.773  13.013
41931W        W 3297   0.282  14.719  10.565
41932W        W 3298   7.820   2.795   0.910
41933W        W 3299  30.163  25.709   2.248
41934W        W 3300  18.257  40.389  13.488
41935W        W 3301  35.372  26.469  14.846
41936W        W 3302  15.641  15.755  12.041
41937W        W 3303   7.878  25.671  11.417
41938W        W 3304  13.616  42.831  11.003
41939W        W 3305  25.519  40.948   0.339
41940W        W 3306  31.029  25.105   1.725
41941W        W 3307  34.039  20.573  14.759
41942W        W 3308  34.025  31.534   0.407
41943W        W 3309  18.627  16.101   1.439
41944W        W 3310  12.224  36.891   0.423
41945W        W 3311  10.633  42.807  14.414
41946W        W 3312   9.669  35.496  12.509
41947W        W 3313   3.451   0.444  12.350
41948W        W 3314  35.856   3.359  12.339
41949W        W 3315  37.516  38.988   3.364
41950W        W 3316   2.967  41.309  13.429
41951W        W 3317   0.403  42.926   1.218
41952W        W 3318  37.046  37.838   1.253
41953W        W 3319  38.516  40.854  10.442
41954W        W 3320   1.318  25.518  12.941
41955W        W 3321   6.298  17.765  11.495
41956W        W 3322  13.121  11.260   2.341
41957W        W 3323  25.054  40.441  11.003
41958W        W 3324  24.631  18.150   2.300
41959W        W 3325  12.210  38.934   2.273
41960W        W 3326   1.298  16.304   2.887
41961W        W 3327  33.590  43.886   3.219
41962W        W 3328  26.967  28.007   0.451
41963W        W 3329   4.279  40.448   3.733
41964W        W 3330  31.625  39.412   2.812
41965W        W 3331  21.538  37.003   1.800
41966W        W 3332  27.523  13.275   2.189
41967W        W 3333  17.725  41.814  13.002
41968W        W 3334  17.607  40.403   4.279
41969W        W 3335  18.607   2.862   3.685
41970W        W 3336  19.703   1.434   4.160
41971W        W 3337  30.445  13.189   2.274
41972W        W 3338   1.909   7.891  13.513
41973W        W 3339  17.742  18.078   2.251
41974W        W 3340  10.765  21.153   0.943
41975W        W 3341  23.499   2.413   9.923
41976W        W 3342  10.326  44.987  10.425
41977W        W 3343  35.487  13.789  14.937
41978W        W 3344  18.052  11.185  13.940
41979W        W 3345  38.335   2.871  14.311
41980W        W 3346  29.974  29.616   1.286
41981W        W 3347  13.765  30.068   3.201
41982W        W 3348   8.725  33.921   0.831
41983W        W 3349   9.156  21.041   4.685
41984W        W 3350  25.684  25.550  14.353
41985W        W 3351  24.496  13.709   1.312
41986W        W 3352  11.672  41.896  10.608
41987W        W 3353   3.798  27.527  10.591
41988W        W 3354   3.290  41.536  13.542
41989W        W 3355  26.537  19.196  12.458
41990W        W 3356  44.826  43.364   3.814
41991W        W 3357   9.267  29.436  14.942
41992W        W 3358   5.900  11.289   1.308
41993W        W 3359  42.930  32.562  14.888
41994W        W 3360  12.347  12.268   1.732
41995W        W 3361   4.845  13.644  14.863
41996W        W 3362   9.380   8.750   1.422
41997W        W 3363  37.512  30.110  10.634
41998W        W 3364  12.841  20.246   2.361
41999W        W 3365  44.873   3.265   0.459
42000W        W 3366  35.464  33.592   3.294
42001W        W 3367  33.042  22.720  13.020
42002W        W 3368  20.122   9.309  14.774
42003W        W 3369  33.098   8.162  14.284
42004W        W 3370  41.521  23.118  10.604
42005W        W 3371  10.339   2.353   0.743
42006W        W 3372   7.766  28.145  10.953
42007W        W 3373  10.701  25.981   3.225
42008W        W 3374   9.795  18.626  14.490
42009W        W 3375  26.022   6.263  13.345
42010W        W 3376  18.715  22.016   4.813
42011W        W 3377  19.644  37.523   1.708
42012W        W 3378   6.784  23.588   0.852
42013W        W 3379  42.455  32.586  10.541
42014W        W 3380   1.471   9.323  11.859
42015W        W 3381   6.258  23.645   1.399
42016W        W 3382  27.560  25.062  14.783
42017W        W 3383  15.790   7.332  11.540
42018W        W 3384  21.204   6.849   0.362
42019W        W 3385   1.901  18.642  12.504
42020W        W 3386  10.660  11.655   1.421
42021W        W 3387  19.049  12.766   4.313
42022W        W 3388  17.109  22.219   1.747
42023W        W 3389  12.282  17.761  14.301
42024W        W 3390  22.742  29.166   3.650
42025W        W 3391  44.332  19.596   0.307
42026W        W 3392  20.229   3.228  10.513
42027W        W 3393  15.682  34.023   3.158
42028W        W 3394  38.445  26.973   4.767
42029W        W 3395  30.143  24.056  13.324
42030W        W 3396  32.585  33.433   0.354
42031W        W 3397  40.377  40.358   4.670
42032W        W 3398  18.621  18.612   5.244
42033W        W 3399  16.727   4.806  12.482
42034W        W 3400  12.202   5.348  11.509
42035W        W 3401  34.496   3.743  10.425
42036W        W 3402  25.496  38.531  14.807
42037W        W 3403   2.227  37.873  11.434
42038W        W 3404  11.861  25.110  14.994
42039W        W 3405  22.596  32.888  10.475
42040W        W 3406  42.993  42.908   0.316
42041W        W 3407  13.341  20.741   4.250
42042W        W 3408  28.662  19.074  11.932
42043W        W 3409  27.994  34.899   4.633
42044W        W 3410  12.145  43.363  10.578
42045W        W 3411  27.687  30.976   1.709
42046W        W 3412  28.650  15.813   3.757
42047W        W 3413  42.322  17.561  12.398
42048W        W 3414  38.030  33.546  14.399
42049W        W 3415  11.687  36.534   3.240
42050W        W 3416  33.032  16.575  14.420
42051W        W 3417  37.917  32.055   9.958
42052W        W 3418  12.219   7.679   1.767
42053W        W 3419  34.915  16.097  12.403
42054W        W 3420  14.754  20.069  12.965
42055W        W 3421  36.423  33.929   1.722
42056W        W 3422  22.626  13.347  14.008
42057W        W 3423   6.721  36.439   3.235
42058W        W 3424  18.176  19.197   1.865
42059W        W 3425   2.852  43.315   1.743
42060W        W 3426   7.734  13.136   1.256
42061W        W 3427  38.458  14.134  13.509
42062W        W 3428   0.933  37.913   1.413
42063W        W 3429  37.521  37.895   2.891
42064W        W 3430  37.974   2.344  12.046
42065W        W 3431   4.851  18.264   1.449
42066W        W 3432   8.688  22.029   4.711
42067W        W 3433  12.838   3.733   2.810
42068W        W 3434  33.395  39.551  13.376
42069W        W 3435  44.992  43.477   3.327
42070W        W 3436  25.061  23.493   1.853
42071W        W 3437  36.434  27.678   4.146
42072W        W 3438  38.023  37.835  13.311
42073W        W 3439  40.963  31.129   3.729
42074W        W 3440  40.514  15.579   1.928
42075W        W 3441  11.688  22.133  14.025
42076W        W 3442   8.301  42.780  11.095
42077W        W 3443  26.630  41.371  10.563
42078W        W 3444  18.753  38.548   4.335
42079W        W 3445  13.750  25.085   4.298
42080W        W 3446  41.471  27.143  10.935
42081W        W 3447   9.211   6.310   3.321
42082W        W 3448  39.867  42.312  10.513
42083W        W 3449   9.691  13.145  14.340
42084W        W 3450  29.089  25.621   2.402
42085W        W 3451  16.124  17.232  14.428
42086W        W 3452   9.307  24.127   0.780
42087W        W 3453  34.492   5.214  14.798
42088W        W 3454   4.860  28.581   3.384
42089W        W 3455  24.629  38.970  14.816
42090W        W 3456  20.152  22.535   4.625
42091W        W 3457   8.833  41.808  14.400
42092W        W 3458  44.864  11.201   2.835
42093W        W 3459   5.854   5.277  12.471
42094W        W 3460  28.620   7.172   0.918
42095W        W 3461  35.517   9.649  13.941
42096W        W 3462  43.286  13.604   3.634
42097W        W 3463  34.879   8.324   1.703
42098W        W 3464   8.280  22.746  10.428
42099W        W 3465  12.148  34.107   5.178
42100W        W 3466   0.335  41.949  11.992
42101W        W 3467  22.129  44.308  12.390
42102W        W 3468  11.799  40.961  11.399
42103W        W 3469  11.173   2.884   2.762
42104W        W 3470  40.418  19.191   2.832
42105W        W 3471  34.490  16.734  11.592
42106W        W 3472  15.640  17.225  13.804
42107W        W 3473  14.775   0.844   3.378
42108W        W 3474  12.654   3.761   3.355
42109W        W 3475   2.836  15.083   2.777
42110W        W 3476  38.900  39.475   2.345
42111W        W 3477   6.385  19.159   0.766
42112W        W 3478  18.169  39.533   0.438
42113W        W 3479  23.141  43.484   4.302
42114W        W 3480  19.260  12.690  13.336
42115W        W 3481  11.246  34.901   2.729
42116W        W 3482  36.371   9.220  14.437
42117W        W 3483  43.001  11.328   1.421
42118W        W 3484  39.501  21.057   2.388
42119W        W 3485  37.019  35.415  11.946
42120W        W 3486  32.904  34.900   4.712
42121W        W 3487   4.414  35.375   3.850
42122W        W 3488   0.777   5.729   2.292
42123W        W 3489  30.912   1.266   0.840
42124W        W 3490   2.354   0.835   0.334
42125W        W 3491  25.042  11.241  14.922
42126W        W 3492  24.017   3.868   2.220
42127W        W 3493  17.798  20.608  10.594
42128W        W 3494  37.346  36.927  11.393
42129W        W 3495  27.666  12.120   2.328
42130W        W 3496   7.178  29.526   3.811
42131W        W 3497  22.060  30.452   4.826
42132W        W 3498  29.020  41.442   2.876
42133W        W 3499  25.212  44.305   4.708
42134W        W 3500  33.405  37.905   0.373
42135W        W 3501  20.542  41.297  12.984
42136W        W 3502  19.721  14.781  11.920
42137W        W 3503   7.347  26.184  13.443
42138W        W 3504  41.896  16.729   3.783
42139W        W 3505  35.521  36.084   2.242
42140W        W 3506  16.607   9.199   4.255
42141W        W 3507  21.511   1.810   3.310
42142W        W 3508  29.134  18.150  12.527
42143W        W 3509  32.121  10.380   2.264
42144W        W 3510  12.153  35.555  11.055
42145W        W 3511  38.050   1.753   0.299
42146W        W 3512  40.352  19.621   3.723
42147W        W 3513  14.300  15.214   0.967
42148W        W 3514  37.030  41.303  11.865
42149W        W 3515  24.484  26.606  14.469
42150W        W 3516  25.091  39.412   1.408
42151W        W 3517  33.596  11.716  11.929
42152W        W 3518  43.018  30.583  13.854
42153W        W 3519  33.412  30.640  10.014
42154W        W 3520  42.381  12.345  11.884
42155W        W 3521  10.159   1.279   1.370
42156W        W 3522  28.625  30.602  12.052
42157W        W 3523  44.918  11.201  14.505
42158W        W 3524   0.450  44.882   0.295
42159W        W 3525  36.995  23.227  13.911
42160W        W 3526  10.301  44.772  14.441
42161W        W 3527  30.540   5.796  12.482
42162W        W 3528  28.061  30.923   2.700
42163W        W 3529  17.758  28.505   3.847
42164W        W 3530  38.342  16.168   3.274
42165W        W 3531   2.278  33.993  13.370
42166W        W 3532  30.024  12.780   1.220
42167W        W 3533  23.702  31.040   2.680
42168W        W 3534   6.231  37.001  11.955
42169W        W 3535  11.683  19.108   1.700
42170W        W 3536  27.572  25.048   5.194
42171W        W 3537  34.064   8.303  13.895
42172W        W 3538  43.764  31.100  14.439
42173W        W 3539   0.443  32.084  13.533
42174W        W 3540  18.260  43.459  11.085
42175W        W 3541  22.634  14.690   2.862
42176W        W 3542  26.125  29.136   1.328
42177W        W 3543  23.616  24.710  11.427
42178W        W 3544   8.287  35.873  14.356
42179W        W 3545   6.418  39.961  10.604
42180W        W 3546  37.354  20.669   3.241
42181W        W 3547  37.938   9.875   2.842
42182W        W 3548  15.747  34.980   4.652
42183W        W 3549   5.795  31.597   2.368
42184W        W 3550  14.207  11.194   2.739
42185W        W 3551  30.583   1.871   2.400
42186W        W 3552  24.184   9.155   2.738
42187W        W 3553  14.735   1.833  11.034
42188W        W 3554  10.842  19.102   1.306
42189W        W 3555  18.616  11.840   1.381
42190W        W 3556  18.067  29.466  13.369
42191W        W 3557  39.854  17.200   4.342
42192W        W 3558  14.255   8.278   3.355
42193W        W 3559  40.382  25.504   0.289
42194W        W 3560  39.047  14.312   5.176
42195W        W 3561  37.481  31.497  14.453
42196W        W 3562  29.569   9.210   2.689
42197W        W 3563  30.440   1.788  12.830
42198W        W 3564  20.637   9.725   3.243
42199W        W 3565  10.729  17.190   2.284
42200W        W 3566   3.836  41.977   1.773
42201W        W 3567  42.987  15.708   3.356
42202W        W 3568  18.158  25.988  10.540
42203W        W 3569  32.491  36.923  10.505
42204W        W 3570  23.538  30.504  10.460
42205W        W 3571   1.279  11.150   4.681
42206W        W 3572  17.181  44.755   3.753
42207W        W 3573  21.263  30.017   4.797
42208W        W 3574  20.044  16.691   4.208
42209W        W 3575  44.371  14.690  11.981
42210W        W 3576  14.802  39.420   2.178
42211W        W 3577  27.565  22.736  14.031
42212W        W 3578  23.115  26.684  14.928
42213W        W 3579   2.788  20.035  11.975
42214W        W 3580  30.538  42.394   0.797
42215W        W 3581  31.080  10.747   0.297
42216W        W 3582  22.574  27.593   3.350
42217W        W 3583   5.439  13.811   9.650
42218W        W 3584  26.966  41.534  10.544
42219W        W 3585  35.389  44.350   4.711
42220W        W 3586  32.478   3.451  12.349
42221W        W 3587  13.126  10.252   1.758
42222W        W 3588  22.502   2.390   4.136
42223W        W 3589  42.807  39.049   5.092
42224W        W 3590  18.154  18.149  13.793
42225W        W 3591  41.876  28.064   1.828
42226W        W 3592  30.996  26.078   0.478
42227W        W 3593  30.148  29.665   9.598
42228W        W 3594  18.275   5.884   0.446
42229W        W 3595  43.018  26.037   0.333
42230W        W 3596  20.201  17.759  11.381
42231W        W 3597   7.353  41.443   4.747
42232W        W 3598  38.525  37.428   2.816
42233W        W 3599  24.553  41.474   0.354
42234W        W 3600  19.233  10.819   0.253
42235W        W 3601  15.261  15.788  12.078
42236W        W 3602  32.052  39.818   4.734
42237W        W 3603  11.177  36.411  13.460
42238W        W 3604  23.726  20.203  12.424
42239W        W 3605  16.744  24.194   2.732
42240W        W 3606  26.108  11.208  13.433
42241W        W 3607  26.533  16.306  14.786
42242W        W 3608   9.877   6.727   1.872
42243W        W 3609  16.575  18.665  11.022
42244W        W 3610  38.451  15.306  14.887
42245W        W 3611  28.973  29.581  11.559
42246W        W 3612  25.564  18.268   3.301
42247W        W 3613  34.393   1.339  11.431
42248W        W 3614  39.550  34.515   0.428
42249W        W 3615  36.013  43.462   5.662
42250W        W 3616  18.620  27.619  14.489
42251W        W 3617   9.851   4.295   1.852
42252W        W 3618  14.739  32.065   0.913
42253W        W 3619  42.025   1.944   3.692
42254W        W 3620  10.803  26.175  14.834
42255W        W 3621  39.390  38.564   4.271
42256W        W 3622  40.509   7.332   4.749
42257W        W 3623  34.455  41.943  10.471
42258W        W 3624  20.585  36.068  13.374
42259W        W 3625   9.149  42.359   1.863
42260W        W 3626  11.755   9.860   1.797
42261W        W 3627   8.842   2.393   4.342
42262W        W 3628  42.445  26.038  11.959
42263W        W 3629  44.378   3.347  14.419
42264W        W 3630  14.324   4.884  13.042
42265W        W 3631  29.509   5.256   2.361
42266W        W 3632  44.386  17.282   3.793
42267W        W 3633  27.595  23.077  11.087
42268W        W 3634   8.298   8.322   4.758
42269W        W 3635  18.175   0.283   0.409
42270W        W 3636   6.220   4.785   0.936
42271W        W 3637  14.224  40.853  10.537
42272W        W 3638  41.386  40.827   0.399
42273W        W 3639  33.105  35.535  10.554
42274W        W 3640  10.362  16.621  14.346
42275W        W 3641  16.242  36.536  11.013
42276W        W 3642   6.297   6.852   3.804
42277W        W 3643   9.308   8.339  10.500
42278W        W 3644  13.701   2.280  14.321
42279W        W 3645  20.094  27.621  14.859
42280W        W 3646   1.423  14.673  10.573
42281W        W 3647  25.032  42.960  12.955
42282W        W 3648  17.186  26.098   1.355
42283W        W 3649  10.368  25.575  10.476
42284W        W 3650  29.114  24.055  14.401
42285W        W 3651   4.300  11.862  11.051
42286W        W 3652  17.572  25.670   3.177
42287W        W 3653   8.387  18.106  14.021
42288W        W 3654  24.700  22.590  12.886
42289W        W 3655  13.716   2.275   4.249
42290W        W 3656  16.140  40.364  11.007
42291W        W 3657  36.060  11.290  14.855
42292W        W 3658   2.411   3.900  10.127
42293W        W 3659  35.548   6.717   4.744
42294W        W 3660  21.227  32.114   1.357
42295W        W 3661  32.946  19.557   2.349
42296W        W 3662  19.599  41.893   4.802
42297W        W 3663  21.558  20.087   4.266
42298W        W 3664  25.512  41.321   1.793
42299W        W 3665   4.258  17.107  10.579
42300W        W 3666  16.736  23.544   1.433
42301W        W 3667  31.144  22.523  13.917
42302W        W 3668  13.616  12.304  12.030
42303W        W 3669  14.196   0.913  11.865
42304W        W 3670   8.872  21.571   2.807
42305W        W 3671  13.180   0.324  10.416
42306W        W 3672  42.828  21.149  10.969
42307W        W 3673  41.481   3.878  14.407
42308W        W 3674  21.209  13.762   0.759
42309W        W 3675   2.226  16.262   1.349
42310W        W 3676  44.480   8.824   2.267
42311W        W 3677   5.785  13.729  14.946
42312W        W 3678  23.060  11.362  10.536
42313W        W 3679  10.224  11.695  12.441
42314W        W 3680  22.627  26.981   2.868
42315W        W 3681  21.188  27.599  12.953
42316W        W 3682  31.041  12.806   3.233
42317W        W 3683  40.363  39.881  11.919
42318W        W 3684  35.374   6.224  10.406
42319W        W 3685  10.223  20.213  10.957
42320W        W 3686  10.233  44.964   1.280
42321W        W 3687  15.188  34.068  12.440
42322W        W 3688   5.848  34.612   2.267
42323W        W 3689  44.365  32.421  11.035
42324W        W 3690  13.834  16.127  12.042
42325W        W 3691   3.276  38.830  12.493
42326W        W 3692   8.287  19.560   3.855
42327W        W 3693   4.844  32.511  13.865
42328W        W 3694  31.419  34.108   3.859
42329W        W 3695  19.266  37.017  10.544
42330W        W 3696  16.679  10.376  12.425
42331W        W 3697  37.084  37.492  13.855
42332W        W 3698  43.497  41.508   4.651
42333W        W 3699  14.707  26.002  11.122
42334W        W 3700  43.481   4.212   4.748
42335W        W 3701   6.788  31.959  13.937
42336W        W 3702   0.833  33.035   0.959
42337W        W 3703  34.017  38.996   4.606
42338W        W 3704  19.764  24.094   0.415
42339W        W 3705  18.604  42.379   1.871
42340W        W 3706  28.621  23.145  14.369
42341W        W 3707   7.676  28.584   2.220
42342W        W 3708   0.292  40.337  12.342
42343W        W 3709  23.199  22.181   3.785
42344W        W 3710   8.278  24.548   1.395
42345W        W 3711   5.292  35.429  14.415
42346W        W 3712  32.069   5.869  11.887
42347W        W 3713   7.721  29.095   1.330
42348W        W 3714  10.172  41.020  11.083
42349W        W 3715   0.957  16.286   1.281
42350W        W 3716  12.661  16.716   1.694
42351W        W 3717  16.180   0.972  13.875
42352W        W 3718  22.526   7.415  12.900
42353W        W 3719   8.275  32.595   1.393
42354W        W 3720  18.071   2.451  13.049
42355W        W 3721  42.421  24.507   2.356
42356W        W 3722  18.589  10.371   3.370
42357W        W 3723  38.950  29.989  10.043
42358W        W 3724  36.862  39.424   0.476
42359W        W 3725  40.321  42.470   1.794
42360W        W 3726  29.638  42.281  12.552
42361W        W 3727  10.796  19.045   4.762
42362W        W 3728  30.578  39.998  13.385
42363W        W 3729  29.611  15.740  12.983
42364W        W 3730  34.112  15.709   3.180
42365W        W 3731  38.838  29.491   1.250
42366W        W 3732   2.281  42.425   2.774
42367W        W 3733  11.367   0.935   3.630
42368W        W 3734  17.242  20.728   1.864
42369W        W 3735   0.904  29.614   1.377
42370W        W 3736  40.805   2.402   2.714
42371W        W 3737   4.345  31.012  11.931
42372W        W 3738   9.674  17.116  14.461
42373W        W 3739  35.514  40.887  13.840
42374W        W 3740  43.420  20.269  14.813
42375W        W 3741   2.260  15.329   1.422
42376W        W 3742   1.935  14.802  12.875
42377W        W 3743  27.550  26.025  10.536
42378W        W 3744  31.573   4.266   2.745
42379W        W 3745  18.632  20.140  14.845
42380W        W 3746  14.605  35.435  13.402
42381W        W 3747  36.367  27.066  11.873
42382W        W 3748  10.874  25.667  14.514
42383W        W 3749  10.343  15.212   2.852
42384W        W 3750  23.663  44.815   2.324
42385W        W 3751  29.980   4.231   3.629
42386W        W 3752   3.424  17.299  13.380
42387W        W 3753  37.868  25.169  10.900
42388W        W 3754  11.751  34.893  12.547
42389W        W 3755  28.161   8.727   1.282
42390W        W 3756  38.069  11.715  14.852
42391W        W 3757   4.730  24.612   4.601
42392W        W 3758   1.272   5.297  11.462
42393W        W 3759   3.279  16.636   3.707
42394W        W 3760  43.948  39.354  10.629
42395W        W 3761  24.488  15.326  12.880
42396W        W 3762   0.492  14.265   4.198
42397W        W 3763  31.015  27.977  12.501
42398W        W 3764  34.549  27.681   2.415
42399W        W 3765  35.949   0.466  11.474
42400W        W 3766  40.478   8.236  14.460
42401W        W 3767  17.119   4.404  14.896
42402W        W 3768  11.803  15.213  11.899
42403W        W 3769  21.534  20.101  13.841
42404W        W 3770  21.226  31.444   4.700
42405W        W 3771  43.299  29.432  14.481
42406W        W 3772  40.381  29.645   2.737
42407W        W 3773  30.149  26.188  13.370
42408W        W 3774  23.609   1.348   0.885
42409W        W 3775  25.138  34.439   2.744
42410W        W 3776  41.519  10.666   2.209
42411W        W 3777  39.902  13.110   1.744
42412W        W 3778  25.977  37.340   1.859
42413W        W 3779  34.484   1.316  14.780
42414W        W 3780  16.300  14.161  12.377
42415W        W 3781  33.911  27.002  12.969
42416W        W 3782  31.590  15.722   1.325
42417W        W 3783   7.243   2.761  13.508
42418W        W 3784  17.732   3.268   3.844
42419W        W 3785  14.724  21.550   2.712
42420W        W 3786  34.111   6.877   2.191
42421W        W 3787  38.920   5.727   4.246
42422W        W 3788   2.750   2.455   1.395
42423W        W 3789  16.256   6.887   0.919
42424W        W 3790   9.312   7.302   0.329
42425W        W 3791   0.977  37.391   4.711
42426W        W 3792  35.041  26.600   2.755
42427W        W 3793  27.629  44.935   1.420
42428W        W 3794  41.371  17.168  12.413
42429W        W 3795  33.884   1.456  11.105
42430W        W 3796  38.925  18.577   0.853
42431W        W 3797  30.109  18.224   2.870
42432W        W 3798  27.651  18.123  14.778
42433W        W 3799  36.351  28.485   0.247
42434W        W 3800  35.544  44.971  11.576
42435W        W 3801  21.113  14.250   0.407
42436W        W 3802  15.702   0.315  13.922
42437W        W 3803   6.314  40.827   0.256
42438W        W 3804  28.567  42.375  12.031
42439W        W 3805  15.225   3.267   1.282
42440W        W 3806  35.948  29.935  11.126
42441W        W 3807  41.985  29.484  11.110
42442W        W 3808  41.826  11.854   1.213
42443W        W 3809  40.525  24.077   2.665
42444W        W 3810  43.964  26.488  11.467
42445W        W 3811   4.247   1.374  11.862
42446W        W 3812  10.644  42.485  10.628
42447W        W 3813  29.089  14.737  12.496
42448W        W 3814  38.065  13.618   0.870
42449W        W 3815  41.495   4.315  10.411
42450W        W 3816   1.396  33.537   4.144
42451W        W 3817  32.019  34.916   4.214
42452W        W 3818  20.600  29.979  11.057
42453W        W 3819  27.182  20.684  12.484
42454W        W 3820  42.852  24.123   4.699
42455W        W 3821  19.101   3.443  11.868
42456W        W 3822  30.559   8.188   2.290
42457W        W 3823  32.476  22.064   2.898
42458W        W 3824   6.207  37.852   4.639
42459W        W 3825   4.313   7.286   2.234
42460W        W 3826   8.737  14.193  10.551
42461W        W 3827   5.792   5.926   3.199
42462W        W 3828  36.961  39.048   3.289
42463W        W 3829   2.469  35.015   1.801
42464W        W 3830   4.883  14.270  10.528
42465W        W 3831   2.422  14.598  11.476
42466W        W 3832  34.462  33.938  10.586
42467W        W 3833  19.728  37.523   1.344
42468W        W 3834   5.895  30.584   4.349
42469W        W 3835   3.268   5.316   3.702
42470W        W 3836  30.971  39.820  14.759
42471W        W 3837  14.173  42.916  12.028
42472W        W 3838   4.893  13.311  13.396
42473W        W 3839  18.190  14.713   5.190
42474W        W 3840  23.021  21.547  14.809
42475W        W 3841  23.117   1.248   4.290
42476W        W 3842  11.685  33.458  13.365
42477W        W 3843  42.456  34.558  14.940
42478W        W 3844  15.583  32.636   9.458
42479W        W 3845   1.325  22.149  12.909
42480W        W 3846   8.203  17.631  12.915
42481W        W 3847  26.526  25.038   4.221
42482W        W 3848  37.854  30.564   0.819
42483W        W 3849   7.718   6.870   3.285
42484W        W 3850  21.173  38.901  10.955
42485W        W 3851  31.998  38.886  13.500
42486W        W 3852  15.669  27.692   4.627
42487W        W 3853   0.363   7.771   3.815
42488W        W 3854  37.832  43.845  10.530
42489W        W 3855  40.341   9.733  12.356
42490W        W 3856  44.910  34.390  11.012
42491W        W 3857  11.253  23.090  12.494
42492W        W 3858  43.009  22.082  11.508
42493W        W 3859  42.998  17.268  14.826
42494W        W 3860  38.903  38.453   4.768
42495W        W 3861  27.139  24.552  12.026
42496W        W 3862  34.445  32.440  13.980
42497W        W 3863   6.298  34.109   1.426
42498W        W 3864  44.480   5.744   9.939
42499W        W 3865  36.398  33.026  10.979
42500W        W 3866  29.435   0.379  14.450
42501W        W 3867  43.303  43.798   1.336
42502W        W 3868  17.612  38.363  13.877
42503W        W 3869  29.616  30.003  12.421
42504W        W 3870  26.112  31.599   2.389
42505W        W 3871  26.122  25.116  14.348
42506W        W 3872  39.972  32.135   3.271
42507W        W 3873  14.300  37.959   0.801
42508W        W 3874  11.244  22.022  13.053
42509W        W 3875  34.601  20.623  12.933
42510W        W 3876  21.093  30.943  13.360
42511W        W 3877  29.944   5.762  12.084
42512W        W 3878   1.450  23.184   3.308
42513W        W 3879   4.315  38.502   1.437
42514W        W 3880  41.522   6.224  11.380
42515W        W 3881  15.289  43.343  11.950
42516W        W 3882  19.175  34.590  13.315
42517W        W 3883  37.564  23.023  12.516
42518W        W 3884  15.224  28.563   0.329
42519W        W 3885   7.243  22.660  13.418
42520W        W 3886  25.018  22.112  12.378
42521W        W 3887  44.988   1.778   4.264
42522W        W 3888  37.402  35.893   3.685
42523W        W 3889  11.727  40.492  14.390
42524W        W 3890  15.605   9.761   3.368
42525W        W 3891   0.806  19.234  11.906
42526W        W 3892   7.786   1.921   0.897
42527W        W 3893  41.838  40.000  12.968
42528W        W 3894   1.779   4.334   3.650
42529W        W 3895  14.700  25.129  11.088
42530W        W 3896  38.451   1.826  12.472
42531W        W 3897  36.883  13.180  14.996
42532W        W 3898   8.256  38.823   3.764
42533W        W 3899   9.880  10.156  13.802
42534W        W 3900   1.760  37.915  12.921
42535W        W 3901   9.342  32.587   2.355
42536W        W 3902  21.116  29.137   4.246
42537W        W 3903  11.292  29.004  13.391
42538W        W 3904   9.882  29.481  10.415
42539W        W 3905  17.664  38.515   2.827
42540W        W 3906  19.607  16.289  14.907
42541W        W 3907  12.687  33.389   0.390
42542W        W 3908  44.419  29.070   3.724
42543W        W 3909  22.543  44.371   0.368
42544W        W 3910  22.724  13.743   0.361
42545W        W 3911  26.175  36.976  13.316
42546W        W 3912  32.087  16.798   0.907
42547W        W 3913  29.517  42.787   9.998
42548W        W 3914  42.943  39.001  14.288
42549W        W 3915  13.324  21.256  10.077
42550W        W 3916  31.412   4.434   1.786
42551W        W 3917  28.654  22.593  10.419
42552W        W 3918  10.779  41.480  12.420
42553W        W 3919  19.652  15.637  10.621
42554W        W 3920  41.327  24.697  11.901
42555W        W 3921  14.282  18.779   1.280
42556W        W 3922  15.328   3.268  14.406
42557W        W 3923  43.425   2.375   3.644
42558W        W 3924   2.317  20.589   0.757
42559W        W 3925   4.707  30.641  12.030
42560W        W 3926  12.711  35.562   4.298
42561W        W 3927  29.516  37.987  13.874
42562W        W 3928  16.114  36.559  13.431
42563W        W 3929  38.950   6.338   0.914
42564W        W 3930  36.418  28.565   4.170
42565W        W 3931  12.723  36.507  14.842
42566W        W 3932  27.553  20.661   2.188
42567W        W 3933  43.873  30.042  14.772
42568W        W 3934   9.673   5.796   1.731
42569W        W 3935   0.793  37.032  12.006
42570W        W 3936  16.239  30.085  12.995
42571W        W 3937  22.156  42.403  14.282
42572W        W 3938  33.557  43.292  14.329
42573W        W 3939  31.925  15.712  10.571
42574W        W 3940   9.231   2.961  10.045
42575W        W 3941  38.960   2.354   5.089
42576W        W 3942  29.659  26.702   4.837
42577W        W 3943  24.560  28.492  13.403
42578W        W 3944   5.812   2.276   1.411
42579W        W 3945  33.485  37.347   4.832
42580W        W 3946  35.385  26.547  13.989
42581W        W 3947  19.650  24.113   3.731
42582W        W 3948   6.916  36.593  13.347
42583W        W 3949   9.226  33.932   3.781
42584W        W 3950  19.096  44.472  13.881
42585W        W 3951  28.174  13.810   4.278
42586W        W 3952  44.837  33.501  14.784
42587W        W 3953  34.113   9.327   0.788
42588W        W 3954  30.954  11.250  14.821
42589W        W 3955  28.455  31.086   1.339
42590W        W 3956  32.406  41.395   1.817
42591W        W 3957  31.919  34.921  13.839
42592W        W 3958   1.899  39.833   3.259
42593W        W 3959  44.973  22.717   1.385
42594W        W 3960  29.656  26.576  14.916
42595W        W 3961  27.986  30.578   3.653
42596W        W 3962  44.840  10.237   4.740
42597W        W 3963  12.280  13.752  13.832
42598W        W 3964  13.605  18.247   4.769
42599W        W 3965   3.446  36.569  11.894
42600W        W 3966  36.466  36.009   3.724
42601W        W 3967   9.191  37.943  11.601
42602W        W 3968  28.095  28.438   3.366
42603W        W 3969  14.639  17.122  14.451
42604W        W 3970  20.046  41.524   4.342
42605W        W 3971  11.710   7.361   0.875
42606W        W 3972   2.338  35.384   4.727
42607W        W 3973  40.821  19.070  14.494
42608W        W 3974   0.330   9.300   3.710
42609W        W 3975   1.461   0.479   4.276
42610W        W 3976  44.933   9.189   3.162
42611W        W 3977  11.858  29.596  14.887
42612W        W 3978  35.920  37.550   0.880
42613W        W 3979  40.949   1.755  14.030
42614W        W 3980  42.470  35.924  14.004
42615W        W 3981  25.636   2.923   4.181
42616W        W 3982  32.585  16.744  14.799
42617W        W 3983  25.009  29.155  12.014
42618W        W 3984  42.879  39.372  10.500
42619W        W 3985   5.918  13.186  11.949
42620W        W 3986   3.898  11.325  11.388
42621W        W 3987  44.831  34.966   0.432
42622W        W 3988  13.345  10.672  14.437
42623W        W 3989  17.746  39.332   1.403
42624W        W 3990   2.448  12.146   3.279
42625W        W 3991  20.210   3.726  13.040
42626W        W 3992  28.162  37.881   0.283
42627W        W 3993  32.391  41.986   1.766
42628W        W 3994  11.226  15.242  13.057
42629W        W 3995  24.159  30.571   4.249
42630W        W 3996  17.567  42.427  12.945
42631W        W 3997  41.820  11.161   3.347
42632W        W 3998   2.384  15.603   5.189
42633W        W 3999  12.144  21.727   2.796
42634W        W 4000  12.226  12.760   4.768
42635W        W 4001   3.767  15.275   0.394
42636W        W 4002  34.387   4.861   0.800
42637W        W 4003  14.147  11.278   2.192
42638W        W 4004  31.098   7.910  10.531
42639W        W 4005  32.629  19.636   5.145
42640W        W 4006  14.701   3.793  10.612
42641W        W 4007  43.002  28.434  13.956
42642W        W 4008  29.972  12.307   3.156
42643W        W 4009   0.456  17.597  13.389
42644W        W 4010  24.534  12.681   0.892
42645W        W 4011  11.333  40.509   2.896
42646W        W 4012  23.603  23.641   1.920
42647W        W 4013   6.246   3.846  13.535
42648W        W 4014  16.166   9.393  14.413
42649W        W 4015  15.707  27.023  14.500
42650W        W 4016  19.722  34.881   3.370
42651W        W 4017  34.449  24.054  12.869
42652W        W 4018  15.748   0.473  14.334
42653W        W 4019  11.750  41.998   4.656
42654W        W 4020  20.748  13.182   3.778
42655W        W 4021   1.287  28.604  12.357
42656W        W 4022  18.249   1.242   0.747
42657W        W 4023  44.867  39.878  12.463
42658W        W 4024  25.217  21.672  10.478
42659W        W 4025  11.197   1.388  14.006
42660W        W 4026  36.951   2.414   1.736
42661W        W 4027  15.318  20.581  14.835
42662W        W 4028  39.831   6.378   1.818
42663W        W 4029  37.888  44.433  13.982
42664W        W 4030  17.231  28.102  13.533
42665W        W 4031  40.053   2.258   2.750
42666W        W 4032   6.281  40.410   3.717
42667W        W 4033  13.725  36.983   5.101
42668W        W 4034  19.659  14.692   4.628
42669W        W 4035  42.336  38.463  11.070
42670W        W 4036  21.564  35.432  11.585
42671W        W 4037  14.180  20.618   4.760
42672W        W 4038  14.716  20.671   3.203
42673W        W 4039   2.255   4.740  11.954
42674W        W 4040  21.673  33.111  14.350
42675W        W 4041  28.512  43.508  10.515
42676W        W 4042  37.481  37.394   1.856
42677W        W 4043  32.459   1.846   2.705
42678W        W 4044  19.738  25.544   3.645
42679W        W 4045  40.006  16.282   2.715
42680W        W 4046   0.469  29.077  11.038
42681W        W 4047  23.602  18.715   0.851
42682W        W 4048  32.899  12.698  13.892
42683W        W 4049   9.769   1.960   0.747
42684W        W 4050   4.932  28.642  12.462
42685W        W 4051   1.812   6.355  14.294
42686W        W 4052  33.463  37.488  13.936
42687W        W 4053  12.835  16.570   2.683
42688W        W 4054  13.131  10.318  13.441
42689W        W 4055  29.156  44.421   3.818
42690W        W 4056  44.946  15.710  10.941
42691W        W 4057  25.496  25.678   1.797
42692W        W 4058  40.956  23.057   2.310
42693W        W 4059  24.614   3.368  11.984
42694W        W 4060  37.897  22.710  14.292
42695W        W 4061  17.634   8.175   0.477
42696W        W 4062   2.728  34.519   2.382
42697W        W 4063   5.756  39.914   0.802
42698W        W 4064  22.106  41.895  13.945
42699W        W 4065  13.686  13.726   4.244
42700W        W 4066  27.683  11.666  10.500
42701W        W 4067  12.300  28.086   0.423
42702W        W 4068   4.396  28.519  12.417
42703W        W 4069   2.294  12.779  12.415
42704W        W 4070  18.745   4.272  12.517
42705W        W 4071  25.656   1.469   0.364
42706W        W 4072  41.353  27.559   0.410
42707W        W 4073  44.410  44.861   1.255
42708W        W 4074  35.968  17.582  11.490
42709W        W 4075  21.064  20.188   4.603
42710W        W 4076  28.146  26.044  11.454
42711W        W 4077  15.618   3.924   2.229
42712W        W 4078   2.470  29.095   3.722
42713W        W 4079  39.831  31.528  12.405
42714W        W 4080  13.610  29.926   1.863
42715W        W 4081   0.392  35.370  12.068
42716W        W 4082   0.409  29.547  13.830
42717W        W 4083  17.761   5.439   1.887
42718W        W 4084   5.750  18.578  13.529
42719W        W 4085  26.118  39.471   3.761
42720W        W 4086  38.039  31.121   3.786
42721W        W 4087  37.834  36.491   1.413
42722W        W 4088   5.756   8.750  12.910
42723W        W 4089  19.600  43.363   2.355
42724W        W 4090  30.057  33.582  12.899
42725W        W 4091  15.105  29.959   4.604
42726W        W 4092  29.629  13.750  14.830
42727W        W 4093  38.399  35.417  11.460
42728W        W 4094  42.775  17.799  10.641
42729W        W 4095   0.776  19.066   3.322
42730W        W 4096  38.040  32.579   1.374
42731W        W 4097  43.805  44.905   1.427
42732W        W 4098  40.861  38.928  13.876
42733W        W 4099  23.195   9.316  12.045
42734W        W 4100  31.098  24.693  13.538
42735W        W 4101   2.944  35.922   1.393
42736W        W 4102  30.574  15.105   0.932
42737W        W 4103   5.241  33.075  13.885
42738W        W 4104  37.436  21.610  14.786
42739W        W 4105  20.150  19.728   2.407
42740W        W 4106   9.765  37.439   3.791
42741W        W 4107  16.298  43.852  11.418
42742W        W 4108   6.716  11.274  10.438
42743W        W 4109  13.236   9.742   4.598
42744W        W 4110  15.143  36.850   3.636
42745W        W 4111  40.398   7.324  11.551
42746W        W 4112   9.797   0.949  13.344
42747W        W 4113   7.379   1.754  11.446
42748W        W 4114   2.308  40.435  13.799
42749W        W 4115   6.361  15.105   2.245
42750W        W 4116  33.115  42.288   4.229
42751W        W 4117  14.101  38.984   0.875
42752W        W 4118   0.277  34.090   4.645
42753W        W 4119  36.571  22.148  13.515
42754W        W 4120   1.870  40.406   1.884
42755W        W 4121  41.528  23.026   2.302
42756W        W 4122  11.654  30.140   1.350
42757W        W 4123  35.417  18.577   1.864
42758W        W 4124  41.872   1.842   5.296
42759W        W 4125   7.809  31.513  12.831
42760W        W 4126  16.811  27.620  14.463
42761W        W 4127  21.093  19.693   2.222
42762W        W 4128  17.596  44.002  12.562
42763W        W 4129  44.969  41.786   4.757
42764W        W 4130  38.041  12.832  14.448
42765W        W 4131  38.475   6.686   1.776
42766W        W 4132  37.504   9.210   5.083
42767W        W 4133  39.892  42.822  13.406
42768W        W 4134  12.804   9.358   1.357
42769W        W 4135  27.949  34.392   2.185
42770W        W 4136  20.661  43.510   4.328
42771W        W 4137  41.411  44.981  13.794
42772W        W 4138  30.013  40.938   2.736
42773W        W 4139   8.263  40.002   3.199
42774W        W 4140  10.744  27.983  11.513
42775W        W 4141  29.175  25.597   4.290
42776W        W 4142  11.752  11.198  11.388
42777W        W 4143  24.225  27.449  14.369
42778W        W 4144  44.261  35.866  11.476
42779W        W 4145  33.525  41.851  12.415
42780W        W 4146  21.575  44.448   1.314
42781W        W 4147  38.822   5.238   2.876
42782W        W 4148  44.447  29.427  14.027
42783W        W 4149   7.385  34.108  14.491
42784W        W 4150  24.698  32.906   0.933
42785W        W 4151  38.484  26.612  14.943
42786W        W 4152  27.577   2.873  12.523
42787W        W 4153  24.048  20.697  11.513
42788W        W 4154  31.460  20.524   9.568
42789W        W 4155   5.711   6.758  13.478
42790W        W 4156   9.182  19.747  11.546
42791W        W 4157  15.645  16.265  14.347
42792W        W 4158  17.740  34.429  12.835
42793W        W 4159   2.843  39.989  11.055
42794W        W 4160  16.109  15.121   0.357
42795W        W 4161   1.745  26.038   0.778
42796W        W 4162  27.476  28.929  11.560
42797W        W 4163  30.066  24.529   1.808
42798W        W 4164  43.321   1.736   9.937
42799W        W 4165  27.664  44.960   2.318
42800W        W 4166  17.604  26.007  14.359
42801W        W 4167   4.875  40.808   0.876
42802W        W 4168   8.784   8.230   1.784
42803W        W 4169  43.007  26.583  13.450
42804W        W 4170  30.603  18.188   4.802
42805W        W 4171  25.062  38.861   3.376
42806W        W 4172   8.320  15.695   2.803
42807W        W 4173  13.199  30.459  12.573
42808W        W 4174   6.743   4.826  12.941
42809W        W 4175   0.959  27.014   1.412
42810W        W 4176  16.308  36.566   0.319
42811W        W 4177   9.164   7.399   3.657
42812W        W 4178  22.060  42.519  13.992
42813W        W 4179  16.241  28.054  14.935
42814W        W 4180  10.265  38.936   4.671
42815W        W 4181  39.972   5.424  12.993
42816W        W 4182  25.215  21.533   3.851
42817W        W 4183   9.827   8.898  14.001
42818W        W 4184   3.867  25.198  10.595
42819W        W 4185   1.949  19.244  13.867
42820W        W 4186   0.453   1.968  14.289
42821W        W 4187  31.999   3.265  13.044
42822W        W 4188   2.421   1.285   2.851
42823W        W 4189  17.580  25.483  14.360
42824W        W 4190  25.013  41.459  13.949
42825W        W 4191  38.551  12.304  11.408
42826W        W 4192   0.402  39.491   0.437
42827W        W 4193   2.941   6.781  13.363
42828W        W 4194  14.713  20.535   0.257
42829W        W 4195  19.735  23.666  13.387
42830W        W 4196  29.061  26.589  13.050
42831W        W 4197  36.535  42.960  12.054
42832W        W 4198  21.052  42.334  10.452
42833W        W 4199  14.696  23.551  14.450
42834W        W 4200  25.962  31.494   4.333
42835W        W 4201   2.299  24.011  12.485
42836W        W 4202  35.486  41.370   5.152
42837W        W 4203  38.935  25.470  10.057
42838W        W 4204  40.375  23.057   0.266
42839W        W 4205  18.651  10.733  11.124
42840W        W 4206  32.035  37.932  13.945
42841W        W 4207  13.728   1.805  14.021
42842W        W 4208   8.258  34.931  14.974
42843W        W 4209  34.894  13.761  14.957
42844W        W 4210  40.003  12.743   1.707
42845W        W 4211  43.800  18.279  14.388
42846W        W 4212  36.465   6.194  13.816
42847W        W 4213  39.555  31.435  11.469
42848W        W 4214  18.611   7.331  12.575
42849W        W 4215  19.075  26.103  13.026
42850W        W 4216   4.899  35.514  10.532
42851W        W 4217  40.021  15.660  10.627
42852W        W 4218   7.333  31.038  11.937
42853W        W 4219  40.913  18.690  11.858
42854W        W 4220  16.219   6.259  10.964
42855W        W 4221   9.237  44.955  11.003
42856W        W 4222  43.392  16.574   4.172
42857W        W 4223  44.787  38.871  12.004
42858W        W 4224  29.024   4.251   1.404
42859W        W 4225  18.736  18.237  14.358
42860W        W 4226  20.050   3.722   3.721
42861W        W 4227  24.112  41.296   3.789
42862W        W 4228   4.443  11.714  10.516
42863W        W 4229  27.623  15.627   0.782
42864W        W 4230  37.861  26.676   0.440
42865W        W 4231  15.177  36.077   1.758
42866W        W 4232  28.101  30.470   0.264
42867W        W 4233  14.798  24.576  13.447
42868W        W 4234  29.086  21.091   3.645
42869W        W 4235  41.509   8.177  12.546
42870W        W 4236  41.946  36.915  12.970
42871W        W 4237   8.405  25.175  14.798
42872W        W 4238  20.541  24.715   0.871
42873W        W 4239  15.662  17.713   3.286
42874W        W 4240  43.988  42.374  11.005
42875W        W 4241  21.044  38.820   3.803
42876W        W 4242  14.601   5.857   0.266
42877W        W 4243  43.766  19.726  12.985
42878W        W 4244  29.467  39.857   1.424
42879W        W 4245  43.295  10.800   3.281
42880W        W 4246   1.795  26.168  11.027
42881W        W 4247  36.983  13.725  12.062
42882W        W 4248  28.537  22.163  12.026
42883W        W 4249   3.834  18.259  10.900
42884W        W 4250  37.958  37.371   4.664
42885W        W 4251  21.172  19.180  14.440
42886W        W 4252  17.204  42.840  11.981
42887W        W 4253  14.179  13.165  10.501
42888W        W 4254  14.216  16.686   2.414
42889W        W 4255  13.229  26.087   1.268
42890W        W 4256   7.226   3.771  12.001
42891W        W 4257  18.207  26.198  12.988
42892W        W 4258   6.801   9.314  10.624
42893W        W 4259  24.660  15.607  14.307
42894W        W 4260  35.950  36.064  14.382
42895W        W 4261  19.633  43.824  12.978
42896W        W 4262  35.897  17.574   4.794
42897W        W 4263   6.246  30.645   2.834
42898W        W 4264  33.094  43.364  14.303
42899W        W 4265  15.266  29.633  12.441
42900W        W 4266  25.208  26.530  10.558
42901W        W 4267  38.899  19.713  14.973
42902W        W 4268  26.632  26.111  11.427
42903W        W 4269   5.432  29.464   3.204
42904W        W 4270  31.951   1.940  13.839
42905W        W 4271  32.501  15.731  11.497
42906W        W 4272  25.513  25.531   2.320
42907W        W 4273   4.925  16.793   1.225
42908W        W 4274  10.217  30.621  13.457
42909W        W 4275  40.809  15.321   0.819
42910W        W 4276   7.868  23.144  14.315
42911W        W 4277  21.604  13.234  12.454
42912W        W 4278  10.656   4.904  12.422
42913W        W 4279   5.825   2.306   9.457
42914W        W 4280  31.631  10.670   3.645
42915W        W 4281  42.777  35.386   0.454
42916W        W 4282  15.670  15.780  11.007
42917W        W 4283  25.181   4.249  13.006
42918W        W 4284  19.595   0.835  11.550
42919W        W 4285  11.833   2.228  11.000
42920W        W 4286   0.391  26.533  13.059
42921W        W 4287  43.882  38.959   3.788
42922W        W 4288  25.554  13.816   3.634
42923W        W 4289   2.468  14.592  14.439
42924W        W 4290  44.483  28.459   5.220
42925W        W 4291   0.343  18.142  14.879
42926W        W 4292  14.804  20.115  11.949
42927W        W 4293  36.381   3.293  11.946
42928W        W 4294   2.424   4.893  14.906
42929W        W 4295   0.939  34.561  12.453
42930W        W 4296  28.056   0.852   0.326
42931W        W 4297  15.589  23.649  13.502
42932W        W 4298   6.681  25.998   4.314
42933W        W 4299  34.603  23.652  14.873
42934W        W 4300  24.698  32.119   2.794
42935W        W 4301  38.383  36.037  14.833
42936W        W 4302   4.366  13.744   2.197
42937W        W 4303  22.029  32.456  10.146
42938W        W 4304  12.209  42.297  14.509
42939W        W 4305  40.521  29.630  13.831
42940W        W 4306  10.678  44.343  10.950
42941W        W 4307  33.085  26.002  13.985
42942W        W 4308  39.401  23.083  13.837
42943W        W 4309  34.041  37.897   2.700
42944W        W 4310  38.514  24.077  14.800
42945W        W 4311   8.898   1.921   0.326
42946W        W 4312  16.233  30.923   1.226
42947W        W 4313  39.886  33.117   1.414
42948W        W 4314  16.610   4.226   0.771
42949W        W 4315  15.255   9.858  12.493
42950W        W 4316  19.147   7.870   0.727
42951W        W 4317  23.071  41.342  11.458
42952W        W 4318  16.125  35.054   2.745
42953W        W 4319   4.911  38.029   5.134
42954W        W 4320  17.217  36.853   2.293
42955W        W 4321  15.823  44.956   0.469
42956W        W 4322  22.040  32.104   2.814
42957W        W 4323   4.306  23.643   3.189
42958W        W 4324  10.733  35.489  12.862
42959W        W 4325  35.106  29.497  14.394
42960W        W 4326  23.702   1.438  11.596
42961W        W 4327   0.324   1.405   2.193
42962W        W 4328  13.641  38.967   0.781
42963W        W 4329  42.785  27.588  13.957
42964W        W 4330  18.224  17.070   5.147
42965W        W 4331  36.995   5.721   0.864
42966W        W 4332   3.719   4.910  13.523
42967W        W 4333  42.455  43.346   4.159
42968W        W 4334  18.662  11.257  10.557
42969W        W 4335  29.029  41.359   0.837
42970W        W 4336  17.782   1.869   0.461
42971W        W 4337   2.947   9.823  11.113
42972W        W 4338  16.280   4.441  11.885
42973W        W 4339  27.945  11.215   1.438
42974W        W 4340   8.847   0.799   1.435
42975W        W 4341  44.004  27.603   2.198
42976W        W 4342  11.669  37.935  11.857
42977W        W 4343  40.368  34.484  12.966
42978W        W 4344   7.746  20.138  14.498
42979W        W 4345   5.756   4.376  11.482
42980W        W 4346   9.875  16.629  12.007
42981W        W 4347  18.092  11.740   2.802
42982W        W 4348   1.398  41.789   1.371
42983W        W 4349  11.817  36.409   9.994
42984W        W 4350  27.568  31.551  13.517
42985W        W 4351  15.139  29.670   2.307
42986W        W 4352  27.612  22.659  11.022
42987W        W 4353   1.937  28.459  14.281
42988W        W 4354  17.223  13.233   2.838
42989W        W 4355  12.846  31.632  12.353
42990W        W 4356  35.447  12.149   2.819
42991W        W 4357  29.620  42.002  12.429
42992W        W 4358  26.653  27.462  14.854
42993W        W 4359   9.246  12.667   3.760
42994W        W 4360  14.232  23.040   0.902
42995W        W 4361  14.218  24.099   3.677
42996W        W 4362  18.715  12.138   1.746
42997W        W 4363  18.619  21.115   2.862
42998W        W 4364  33.073  33.461   0.440
42999W        W 4365   2.304  37.440   1.222
43000W        W 4366  19.274  42.453   3.382
43001W        W 4367  13.725   5.243   4.608
43002W        W 4368   8.743  13.798  11.377
43003W        W 4369  23.118  32.525   4.781
43004W        W 4370  11.675  35.072  10.511
43005W        W 4371  34.052  31.606   1.392
43006W        W 4372  20.030  36.521  14.471
43007W        W 4373   3.857  35.533   3.161
43008W        W 4374  36.355  34.420  11.557
43009W        W 4375  16.211   7.738  12.465
43010W        W 4376  27.476  31.940  11.953
43011W        W 4377  23.505  11.254  10.482
43012W        W 4378  21.669  33.581  11.429
43013W        W 4379  39.428  23.121  13.347
43014W        W 4380  38.000   6.416  10.416
43015W        W 4381  42.282  19.639   4.727
43016W        W 4382  12.330  27.453  14.888
43017W        W 4383  22.179  29.011  12.007
43018W        W 4384  31.499  14.328   4.627
43019W        W 4385  25.089  33.060  14.279
43020W        W 4386  42.430  35.478  11.074
43021W        W 4387  17.600  14.829  11.494
43022W        W 4388  11.844  33.465  14.008
43023W        W 4389  18.210  43.488   2.249
43024W        W 4390  44.277   3.941   1.890
43025W        W 4391  15.262  36.065   9.937
43026W        W 4392  19.628   9.843  10.557
43027W        W 4393   7.303   7.793   2.817
43028W        W 4394  24.055  10.718  13.946
43029W        W 4395  22.124  29.431   1.829
43030W        W 4396  42.377  32.907  10.968
43031W        W 4397  17.237  44.357   2.749
43032W        W 4398   2.963  38.830  11.597
43033W        W 4399  43.469  38.060   1.311
43034W        W 4400  24.027  19.542  14.379
43035W        W 4401  16.671  14.278   0.790
43036W        W 4402  26.522  31.984  14.782
43037W        W 4403  35.106  36.922   0.892
43038W        W 4404   4.397  37.394  14.014
43039W        W 4405  24.705  37.405   3.222
43040W        W 4406  37.540  22.686  13.323
43041W        W 4407   6.768  37.012   2.196
43042W        W 4408  34.492  33.956  12.030
43043W        W 4409  28.630   1.372  14.483
43044W        W 4410  28.019  39.543   1.430
43045W        W 4411  14.729  14.261  11.556
43046W        W 4412  40.347  12.176  11.516
43047W        W 4413  24.722  39.809  12.057
43048W        W 4414  30.997  37.342  10.416
43049W        W 4415  37.574  32.501   0.965
43050W        W 4416  32.624  16.192  11.529
43051W        W 4417   6.387  25.190  12.894
43052W        W 4418  44.000  14.831   1.872
43053W        W 4419  20.718  33.545   1.857
43054W        W 4420  21.630  44.922   1.297
43055W        W 4421   4.829  23.126  13.811
43056W        W 4422  25.500  12.139   3.357
43057W        W 4423  35.902  24.110   4.276
43058W        W 4424   7.294   9.654   0.351
43059W        W 4425   3.281  11.299  11.475
43060W        W 4426   6.423  18.176   0.851
43061W        W 4427  42.391  21.591   0.905
43062W        W 4428  17.680  39.880   3.752
43063W        W 4429  34.509  15.126   1.362
43064W        W 4430  32.391  37.944  11.933
43065W        W 4431  40.970  34.531  14.872
43066W        W 4432  33.481  16.091   2.854
43067W        W 4433  15.267  38.021  14.478
43068W        W 4434  24.002  24.213  10.532
43069W        W 4435  22.045  12.794  11.502
43070W        W 4436  23.523  10.284   1.762
43071W        W 4437  44.889   4.835  14.831
43072W        W 4438   0.890  30.583   3.652
43073W        W 4439   1.413   3.911  13.393
43074W        W 4440  15.653   3.814  12.990
43075W        W 4441  19.269  14.250   1.705
43076W        W 4442  20.056   1.736   3.365
43077W        W 4443  13.248   9.862  11.539
43078W        W 4444  32.573  40.931  13.039
43079W        W 4445  22.621  14.123  13.331
43080W        W 4446   8.703   4.863   3.376
43081W        W 4447   6.735  20.063   4.696
43082W        W 4448  32.139  16.786   2.419
43083W        W 4449  43.924   5.711  11.047
43084W        W 4450  25.681  34.998  11.472
43085W        W 4451  29.920   8.201  14.438
43086W        W 4452  18.669   8.212  13.839
43087W        W 4453  40.820  27.007   0.471
43088W        W 4454   8.376  35.400   2.885
43089W        W 4455  39.827  10.163   4.120
43090W        W 4456  15.582  14.178  12.479
43091W        W 4457  21.068  28.478  14.930
43092W        W 4458   6.361   6.187  12.921
43093W        W 4459  18.765  40.813  12.343
43094W        W 4460  40.946  26.095  12.500
43095W        W 4461   2.724  11.351   1.706
43096W        W 4462  34.116  36.960  11.066
43097W        W 4463  17.641  11.630   4.637
43098W        W 4464  18.628   8.247  13.022
43099W        W 4465  21.123   7.298  11.080
43100W        W 4466  22.722  20.029  11.405
43101W        W 4467  22.624  20.230  12.927
43102W        W 4468  23.532  41.871   0.420
43103W        W 4469  34.120  23.547   1.922
43104W        W 4470   9.195  16.664   5.197
43105W        W 4471  43.405  38.906   2.219
43106W        W 4472  28.987  37.499   1.341
43107W        W 4473  14.651  14.141  13.908
43108W        W 4474  24.154  32.481   4.619
43109W        W 4475  28.584   1.796   3.199
43110W        W 4476  27.951  17.802  11.000
43111W        W 4477  36.483  10.747  10.439
43112W        W 4478   5.196  35.423  10.967
43113W        W 4479  23.650  42.485   0.405
43114W        W 4480  13.264  42.927   2.230
43115W        W 4481   8.657  16.218   0.447
43116W        W 4482   2.470  34.598   4.276
43117W        W 4483  26.465   0.316   3.714
43118W        W 4484  28.541  37.380   2.836
43119W        W 4485   9.355   8.296  10.991
43120W        W 4486  26.013  23.985   2.793
43121W        W 4487  31.063   3.451   3.215
43122W        W 4488  42.942  31.917   3.375
43123W        W 4489  34.873  29.949  14.998
43124W        W 4490   3.434  17.779  14.775
43125W        W 4491   7.805  15.162  12.905
43126W        W 4492   9.350   9.805   1.254
43127W        W 4493   1.864  21.148  11.442
43128W        W 4494  41.332  14.746  14.345
43129W        W 4495  19.662  18.163  10.950
43130W        W 4496  31.493   6.890  11.392
43131W        W 4497  26.581  25.212   3.272
43132W        W 4498  24.500  43.979  11.975
43133W        W 4499   7.292  15.294  12.973
43134W        W 4500  21.550  40.811   0.888
43135W        W 4501  35.987  39.423  13.398
43136W        W 4502   1.793   0.782   3.670
43137W        W 4503  23.082  13.658   2.308
43138W        W 4504   2.280  13.133   1.766
43139W        W 4505  17.215  30.040  14.315
43140W        W 4506  24.683  24.207  11.988
43141W        W 4507  32.984   1.788  12.044
43142W        W 4508  38.537  40.876  11.969
43143W        W 4509  17.160  25.192  12.041
43144W        W 4510  27.561   4.250  12.956
43145W        W 4511  35.425  13.774   2.302
43146W        W 4512  22.102  10.785  13.490
43147W        W 4513   7.808  31.927   9.945
43148W        W 4514  36.460  27.682  11.941
43149W        W 4515   9.662  12.857  11.093
43150W        W 4516   3.311  17.590   4.700
43151W        W 4517  24.224  33.130   2.341
43152W        W 4518  17.283  28.453  14.000
43153W        W 4519  42.952   2.788   0.783
43154W        W 4520  31.014   4.741  14.975
43155W        W 4521  30.458  23.585   4.254
43156W        W 4522   2.886  34.483  14.802
43157W        W 4523   9.185   0.770  14.513
43158W        W 4524   2.727  27.486   2.219
43159W        W 4525  40.825  23.622  10.913
43160W        W 4526   5.696  25.469   3.164
43161W        W 4527  40.348  24.580   3.859
43162W        W 4528   4.274  32.955  12.062
43163W        W 4529  30.465   2.857  12.426
43164W        W 4530  30.427  10.196  14.470
43165W        W 4531  42.335   2.277   1.222
43166W        W 4532   8.774  10.641   0.824
43167W        W 4533  10.242  28.155   1.250
43168W        W 4534  27.650  25.589   2.284
43169W        W 4535  25.050  40.899  14.892
43170W        W 4536  32.014   9.757  11.526
43171W        W 4537  20.150  36.045  11.067
43172W        W 4538  43.472   6.243  13.025
43173W        W 4539  34.983  25.214   1.849
43174W        W 4540  40.982  43.005   2.708
43175W        W 4541   7.902   0.906   0.411
43176W        W 4542  20.714  28.490   3.252
43177W        W 4543  38.366  33.602  12.420
43178W        W 4544  29.461  17.649  12.914
43179W        W 4545  44.342  43.995   4.149
43180W        W 4546  18.169   8.340  14.766
43181W        W 4547   2.398  29.952  10.536
43182W        W 4548  26.037  39.484   4.837
43183W        W 4549   8.733  27.176   1.726
43184W        W 4550  36.868   0.975   2.698
43185W        W 4551  41.474   6.282   1.439
43186W        W 4552  43.310  36.932  12.031
43187W        W 4553  36.530  16.775  14.474
43188W        W 4554  41.335  43.785  14.921
43189W        W 4555  28.978  30.080   1.707
43190W        W 4556  37.895  14.109   3.326
43191W        W 4557   7.246  39.988   2.256
43192W        W 4558  21.681  19.602   1.212
43193W        W 4559   3.741  11.254   0.937
43194W        W 4560  32.569  40.358   2.385
43195W        W 4561  20.761  27.666   1.451
43196W        W 4562  23.675  19.548   0.426
43197W        W 4563   1.772  22.104  13.817
43198W        W 4564  17.795   6.894  10.608
43199W        W 4565  28.133   8.170   2.394
43200W        W 4566  23.548  16.126   0.481
43201W        W 4567  15.791  11.637  12.024
43202W        W 4568  26.512  25.697   4.702
43203W        W 4569  11.773  17.796  11.005
43204W        W 4570  28.563  24.543   4.724
43205W        W 4571   4.813  37.348   3.363
43206W        W 4572  18.075   3.756  11.915
43207W        W 4573  31.617  17.306  14.763
43208W        W 4574   5.372  12.278  12.561
43209W        W 4575   7.306  27.147  11.427
43210W        W 4576  31.524  23.207  14.356
43211W        W 4577  27.625  30.940   5.158
43212W        W 4578  28.136  38.516  10.023
43213W        W 4579  31.558   8.776   2.406
43214W        W 4580   9.323   2.730  13.411
43215W        W 4581  31.136   2.793   2.255
43216W        W 4582   2.786  26.985  11.476
43217W        W 4583  12.701  37.418   4.300
43218W        W 4584   4.327  23.671   1.293
43219W        W 4585   7.206  21.247  12.541
43220W        W 4586  13.141  15.194  13.030
43221W        W 4587  43.413  29.053  12.402
43222W        W 4588  16.101  28.631  11.373
43223W        W 4589   1.396   3.940   1.367
43224W        W 4590  20.646  11.282   2.403
43225W        W 4591  33.012   3.747  12.004
43226W        W 4592  16.258  22.547   0.826
43227W        W 4593   9.241  15.716   4.636
43228W        W 4594   2.302  26.102   2.229
43229W        W 4595  38.367   9.768  10.903
43230W        W 4596  19.713  36.408   3.173
43231W        W 4597  43.957  31.064  12.404
43232W        W 4598   7.175  16.769  12.955
43233W        W 4599  20.225  34.478  14.508
43234W        W 4600  27.110  36.049   3.262
43235W        W 4601  34.495  43.970   2.283
43236W        W 4602  15.780   3.866   1.261
43237W        W 4603  23.495  33.511   1.765
43238W        W 4604  13.789   1.762   1.871
43239W        W 4605   2.943   3.297   1.228
43240W        W 4606  42.309  34.893   1.256
43241W        W 4607  18.224   5.767  12.926
43242W        W 4608  17.797  36.931  12.475
43243W        W 4609  14.735   6.690  12.561
43244W        W 4610  34.520  39.927  11.101
43245W        W 4611  11.630   1.249  14.288
43246W        W 4612   5.330  38.347   2.770
43247W        W 4613   9.738   1.469   0.812
43248W        W 4614  32.028   2.809  11.592
43249W        W 4615  25.011  12.261   4.773
43250W        W 4616  18.237  15.328  11.914
43251W        W 4617  31.985  24.502   1.925
43252W        W 4618  40.889   9.815  11.026
43253W        W 4619   0.315  10.780  13.487
43254W        W 4620   9.332   5.836   4.237
43255W        W 4621  38.842  17.295  11.511
43256W        W 4622  35.064  20.110   0.464
43257W        W 4623   4.876  24.221   5.154
43258W        W 4624  16.734  23.706  11.570
43259W        W 4625  42.453  21.750  10.536
43260W        W 4626  41.012  44.887   2.708
43261W        W 4627   3.943  24.162   0.285
43262W        W 4628  12.763  38.870  12.044
43263W        W 4629  39.838  20.733   1.311
43264W        W 4630  16.767  27.524  10.527
43265W        W 4631  10.656  17.259   2.751
43266W        W 4632  13.188  42.982   0.326
43267W        W 4633  43.794  20.618  14.285
43268W        W 4634  21.657  44.990  13.063
43269W        W 4635  15.604  28.040  11.101
43270W        W 4636  37.515  13.609  14.027
43271W        W 4637  13.796  23.098   1.705
43272W        W 4638  14.668  12.319  12.017
43273W        W 4639  32.975  24.047   0.473
43274W        W 4640   8.699   5.216  11.589
43275W        W 4641  12.172  28.573   3.794
43276W        W 4642  35.916  43.477  11.089
43277W        W 4643  35.396   3.417  14.832
43278W        W 4644  13.621  39.486   4.778
43279W        W 4645  21.720  38.391   5.621
43280W        W 4646  25.962  43.783  13.476
43281W        W 4647  23.172  14.234  14.440
43282W        W 4648  24.495  37.535  14.019
43283W        W 4649  37.890   0.891   0.348
43284W        W 4650  23.600  28.175  12.843
43285W        W 4651  35.947  43.002   2.871
43286W        W 4652  11.240   0.346  11.902
43287W        W 4653  21.045   5.227   3.693
43288W        W 4654  16.230  28.034  12.339
43289W        W 4655  12.277  12.811   2.351
43290W        W 4656  35.519  11.343  11.420
43291W        W 4657  31.435  21.534   2.249
43292W        W 4658   6.910  39.500  14.289
43293W        W 4659  30.108   1.860  11.459
43294W        W 4660  35.027   3.734  11.523
43295W        W 4661  26.661   5.375   5.142
43296W        W 4662  26.190  18.064  13.362
43297W        W 4663  26.625  41.371  14.804
43298W        W 4664  42.958  32.015  11.409
43299W        W 4665  30.529  30.552   0.729
43300W        W 4666  24.130  31.051   1.772
43301W        W 4667  13.614  32.131   9.630
43302W        W 4668  21.099  11.178   5.301
43303W        W 4669   1.248  39.882   3.776
43304W        W 4670   4.887  24.149   2.752
43305W        W 4671  36.453  37.525  14.388
43306W        W 4672  19.061  18.071  14.405
43307W        W 4673   5.400  20.106   1.804
43308W        W 4674   0.969  17.626   2.721
43309W        W 4675  12.635  12.219   0.881
43310W        W 4676   9.178   4.943  13.946
43311W        W 4677  33.613  21.195   4.195
43312W        W 4678  25.054  27.484  14.340
43313W        W 4679  24.150   1.266  14.815
43314W        W 4680   6.901  34.969   0.294
43315W        W 4681  29.656  23.703   1.698
43316W        W 4682  27.622  33.062   1.745
43317W        W 4683  33.504   9.177  13.346
43318W        W 4684   8.314  28.996   4.341
43319W        W 4685  34.412   1.791   4.698
43320W        W 4686  42.847  31.120  10.481
43321W        W 4687  33.887   1.333   0.310
43322W        W 4688  22.562  11.162   4.749
43323W        W 4689  23.148   8.852   0.335
43324W        W 4690   6.715  18.707   4.756
43325W        W 4691   1.473  17.755   2.244
43326W        W 4692  16.312   3.807   3.866
43327W        W 4693  38.832  35.990  11.586
43328W        W 4694  31.022  12.678  10.958
43329W        W 4695  42.833  10.197   4.205
43330W        W 4696  37.451  42.907   4.764
43331W        W 4697  26.134  24.521  10.941
43332W        W 4698  26.185   4.413   5.740
43333W        W 4699  11.130  40.330  13.308
43334W        W 4700  23.217  40.311  12.042
43335W        W 4701  16.092  13.306   1.361
43336W        W 4702  15.123  12.295  10.457
43337W        W 4703  42.387  28.452   4.622
43338W        W 4704  34.979  19.582  10.918
43339W        W 4705  13.741   4.890   4.653
43340W        W 4706   9.671   5.230   4.805
43341W        W 4707  37.897   9.172  12.914
43342W        W 4708   3.245   3.415   5.622
43343W        W 4709  22.726  23.013  11.401
43344W        W 4710  37.892   0.357  14.402
43345W        W 4711  18.065  32.605  12.491
43346W        W 4712  35.017   4.704  13.007
43347W        W 4713  31.479  30.163  10.598
43348W        W 4714  43.928  14.139  10.450
43349W        W 4715  16.116  30.486   9.948
43350W        W 4716  15.628  39.848  11.480
43351W        W 4717  28.088   7.217   4.222
43352W        W 4718  38.057   5.932  12.454
43353W        W 4719  42.479  39.900  11.551
43354W        W 4720  20.710  37.399  13.992
43355W        W 4721  30.568  14.739  11.934
43356W        W 4722  17.208  41.444  12.477
43357W        W 4723  27.038  43.820  10.441
43358W        W 4724   4.773   7.719  12.903
43359W        W 4725  35.386  29.543  14.772
43360W        W 4726   1.469   6.882   2.697
43361W        W 4727  10.184  41.993   1.332
43362W        W 4728  32.466  16.692   1.400
43363W        W 4729   8.226  31.623   4.768
43364W        W 4730  13.669  31.544  13.915
43365W        W 4731  30.130  31.014  11.426
43366W        W 4732  26.127  23.499   0.420
43367W        W 4733   4.220  10.176   1.892
43368W        W 4734  38.353   4.214  10.938
43369W        W 4735   5.427  35.557   2.261
43370W        W 4736  12.279   5.253  13.816
43371W        W 4737  32.890  40.457   3.227
43372W        W 4738  12.827  19.220   3.363
43373W        W 4739   4.803  40.811  10.482
43374W        W 4740  39.966  19.550  12.349
43375W        W 4741  28.478  18.624   4.144
43376W        W 4742   3.410  39.888   3.680
43377W        W 4743  16.642  19.227  10.920
43378W        W 4744  29.039   5.765   0.848
43379W        W 4745   4.699  36.353  14.766
43380W        W 4746  13.722   2.321  13.908
43381W        W 4747   1.745   2.893   3.296
43382W        W 4748  13.806  43.971  13.316
43383W        W 4749  38.326   9.781   3.152
43384W        W 4750  29.553   2.312   4.799
43385W        W 4751  24.516  25.008   2.869
43386W        W 4752   9.890  44.993   0.767
43387W        W 4753  17.210  11.836  14.989
43388W        W 4754  42.018  44.892   4.829
43389W        W 4755  43.317  18.559  10.466
43390W        W 4756  44.914  16.201   1.709
43391W        W 4757  34.438  35.479  14.315
43392W        W 4758   8.792   4.753   2.741
43393W        W 4759  40.828   0.752  11.607
43394W        W 4760   7.313   4.795  11.519
43395W        W 4761  36.076   5.335  14.944
43396W        W 4762  10.698  14.323  12.082
43397W        W 4763  17.763   8.659  10.893
43398W        W 4764  39.375  18.111   1.789
43399W        W 4765  42.003  26.141   4.805
43400W        W 4766  30.558  36.533   1.813
43401W        W 4767   4.702  21.090   0.934
43402W        W 4768  29.426  29.168   0.278
43403W        W 4769  41.324  17.734   1.446
43404W        W 4770  25.991  12.625  14.308
43405W        W 4771  12.826  15.749  11.981
43406W        W 4772  10.866  21.592  14.883
43407W        W 4773  12.751   5.769   2.753
43408W        W 4774  23.225  26.533  13.902
43409W        W 4775   7.189   1.415  12.095
43410W        W 4776  10.373  38.562  13.390
43411W        W 4777  24.720  39.514  11.916
43412W        W 4778  23.210  10.755   3.278
43413W        W 4779   3.256  39.511  14.289
43414W        W 4780  27.091   5.928   3.352
43415W        W 4781   7.218   7.337  11.947
43416W        W 4782   7.176  21.663   2.710
43417W        W 4783   4.446  27.083  10.938
43418W        W 4784  34.905  43.350  13.476
43419W        W 4785  40.977   2.849   1.255
43420W        W 4786   7.319  43.400   0.437
43421W        W 4787  30.047  40.980  11.950
43422W        W 4788  43.939  11.343  11.914
43423W        W 4789  44.470  19.575  13.041
43424W        W 4790  27.108   3.926  13.309
43425W        W 4791  41.033  11.291  12.948
43426W        W 4792   9.282   6.777   3.246
43427W        W 4793   1.835  36.513  11.968
43428W        W 4794   6.339  40.516   0.425
43429W        W 4795   5.347   4.895  13.058
43430W        W 4796  14.771  27.501   0.950
43431W        W 4797  42.982  23.238  11.423
43432W        W 4798  34.395  14.141  12.835
43433W        W 4799  16.787  33.545  10.436
43434W        W 4800  18.203   8.880  13.537
43435W        W 4801   0.373  28.073  10.907
43436W        W 4802  25.115  27.603  13.851
43437W        W 4803  24.136  44.483  10.493
43438W        W 4804  21.654  39.923  14.809
43439W        W 4805  35.564   0.364  12.365
43440W        W 4806  10.298   2.868   1.261
43441W        W 4807  27.155  23.732  10.633
43442W        W 4808  17.678  44.780  13.843
43443W        W 4809  42.441  32.509  10.944
43444W        W 4810  29.019  42.974  11.409
43445W        W 4811  20.064  44.438   3.708
43446W        W 4812  28.002   1.834  13.487
43447W        W 4813   3.938  36.499   1.369
43448W        W 4814  26.984  22.579   4.125
43449W        W 4815  41.826  23.098  12.413
43450W        W 4816  42.886  23.539  11.449
43451W        W 4817  38.370  25.141  11.556
43452W        W 4818  32.574  15.177   0.783
43453W        W 4819  11.328   9.709  13.348
43454W        W 4820   7.848  42.317  14.967
43455W        W 4821  23.580  15.101   2.897
43456W        W 4822   2.319  14.330   1.339
43457W        W 4823  21.707  27.566   0.872
43458W        W 4824  38.331  27.126  12.389
43459W        W 4825  29.109  14.830   1.919
43460W        W 4826  10.313  41.939  14.942
43461W        W 4827  17.611  11.836  14.296
43462W        W 4828  22.035  19.260  10.505
43463W        W 4829   3.238  29.045  14.022
43464W        W 4830  35.512   2.314  14.896
43465W        W 4831  33.022  36.951  10.643
43466W        W 4832  39.869  27.196   0.412
43467W        W 4833  44.358  19.611  13.979
43468W        W 4834   6.861  37.895  10.598
43469W        W 4835   4.806  22.184  10.496
43470W        W 4836  10.867  28.607   1.308
43471W        W 4837  32.114  29.646  11.060
43472W        W 4838   0.409  19.646  10.987
43473W        W 4839  23.044  13.722   3.837
43474W        W 4840  36.044  36.429   4.325
43475W        W 4841   0.909  38.507   4.686
43476W        W 4842   8.775   3.926   4.192
43477W        W 4843   2.454  17.124  11.959
43478W        W 4844  42.338   5.404  14.907
43479W        W 4845  28.497  32.923   1.708
43480W        W 4846  24.487  38.969   4.779
43481W        W 4847  33.940  29.456  14.784
43482W        W 4848  29.567   5.857   2.859
43483W        W 4849  31.035   5.287   4.329
43484W        W 4850  44.946  11.675  12.498
43485W        W 4851  20.273  25.081  13.821
43486W        W 4852  31.122  25.003   5.155
43487W        W 4853  26.955  12.129   2.733
43488W        W 4854  41.455  44.304   1.442
43489W        W 4855  12.178  28.466   4.255
43490W        W 4856  25.707   8.725  14.417
43491W        W 4857  24.160  28.047   5.244
43492W        W 4858   6.725  33.123   4.802
43493W        W 4859  20.182   7.709   1.301
43494W        W 4860  37.448  41.459   4.791
43495W        W 4861  12.848   7.686  14.923
43496W        W 4862  36.871  19.088   3.382
43497W        W 4863  36.062  17.644   2.899
43498W        W 4864  43.305  37.978  13.417
43499W        W 4865  22.541  33.403   0.947
43500W        W 4866  20.065  14.179   4.231
43501W        W 4867  37.036  40.457   1.927
43502W        W 4868  34.605   1.851   2.189
43503W        W 4869  10.872  19.265  10.527
43504W        W 4870  37.522  15.260  12.573
43505W        W 4871  23.095  43.972  10.981
43506W        W 4872  38.352  42.957  10.485
43507W        W 4873  38.008  10.762  14.920
43508W        W 4874   2.905  14.188   1.407
43509W        W 4875  31.124   8.660   5.152
43510W        W 4876  11.787  44.414   3.184
43511W        W 4877  39.881  41.413   0.326
43512W        W 4878   6.260   2.276  11.998
43513W        W 4879  10.677   0.885  14.279
43514W        W 4880  17.677   9.368   2.803
43515W        W 4881   7.383  36.862  10.535
43516W        W 4882  28.950  19.048  12.510
43517W        W 4883   4.306  19.668   4.793
43518W        W 4884  11.286  27.640  11.021
43519W        W 4885  35.360   2.382  14.023
43520W        W 4886  37.944  32.039  13.420
43521W        W 4887  10.207  44.384   0.876
43522W        W 4888  24.684  28.141  11.972
43523W        W 4889  42.291   2.368  12.500
43524W        W 4890  44.422   3.775   4.627
43525W        W 4891  38.052  32.025  11.390
43526W        W 4892  29.939  12.286  11.379
43527W        W 4893   2.419  21.175   3.737
43528W        W 4894  23.146   1.774   4.197
43529W        W 4895  18.201  13.183  11.472
43530W        W 4896  44.347  12.169   4.159
43531W        W 4897   8.663  39.014   3.171
43532W        W 4898  14.689  28.997   3.304
43533W        W 4899  35.359  35.500   1.450
43534W        W 4900  43.315  24.624   0.913
43535W        W 4901  44.007  32.917  10.519
43536W        W 4902  30.617  26.176  13.989
43537W        W 4903  24.129  22.570  14.496
43538W        W 4904  39.993  21.592  13.013
43539W        W 4905  42.445  22.500  11.444
43540W        W 4906   1.386  31.550  11.373
43541W        W 4907   8.227   4.280   3.740
43542W        W 4908  43.803  28.989   3.868
43543W        W 4909  22.701  30.604   1.257
43544W        W 4910  22.151  10.656  11.118
43545W        W 4911  13.159  15.214  10.559
43546W        W 4912  13.120   6.325  14.823
43547W        W 4913  35.989   3.791  12.407
43548W        W 4914  37.882  33.114  11.577
43549W        W 4915  19.735   4.863  13.884
43550W        W 4916  13.231   1.240   2.670
43551W        W 4917  20.207  44.856  14.464
43552W        W 4918  24.077  28.077  14.888
43553W        W 4919   1.737   1.919  14.494
43554W        W 4920  38.466   1.381  14.928
43555W        W 4921  10.155  22.736   4.152
43556W        W 4922  22.226  43.347  14.838
43557W        W 4923  15.167   8.367   2.859
43558W        W 4924  24.999  33.098  11.891
43559W        W 4925  10.142  36.438   3.696
43560W        W 4926  11.254   5.419   2.276
43561W        W 4927  41.471   3.451  14.901
43562W        W 4928  25.188  21.226  10.612
43563W        W 4929   0.315  36.453   1.233
43564W        W 4930  37.086  25.020   3.245
43565W        W 4931   8.679  16.608   3.292
43566W        W 4932  19.229   2.738   2.386
43567W        W 4933  12.152  24.176   3.284
43568W        W 4934  23.993   4.275   0.913
43569W        W 4935  40.879  16.601  11.495
43570W        W 4936   4.371  15.634   3.275
43571W        W 4937  42.400   7.743   3.341
43572W        W 4938  12.226   0.985  11.385
43573W        W 4939  40.308  14.256  12.424
43574W        W 4940  24.057  21.229  10.106
43575W        W 4941   5.698   8.366  11.602
43576W        W 4942  30.471  39.371   1.276
43577W        W 4943   2.790  19.687   4.634
43578W        W 4944  39.550   2.958  11.436
43579W        W 4945  24.157   0.481  13.884
43580W        W 4946   6.874   6.275  10.553
43581W        W 4947  42.515  31.057   0.358
43582W        W 4948  20.716  16.145   1.734
43583W        W 4949  44.882  25.618  11.505
43584W        W 4950  19.555  29.626  11.038
43585W        W 4951  43.002  29.141  11.404
43586W        W 4952  31.969  12.330   4.762
43587W        W 4953  24.598  17.580  10.641
43588W        W 4954   7.249  30.037  13.523
43589W        W 4955   0.855  22.128  13.026
43590W        W 4956  33.499  34.022  10.961
43591W        W 4957  13.633  34.604   0.931
43592W        W 4958  39.460   0.894   1.404
43593W        W 4959  10.369   6.266   2.306
43594W        W 4960  15.729  35.472   0.893
43595W        W 4961  13.190  34.864  12.862
43596W        W 4962  42.365  16.780   3.335
43597W        W 4963  18.637  21.041   5.111
43598W        W 4964   7.398  34.102   3.821
43599W        W 4965  15.600  34.921  11.011
43600W        W 4966  41.359  44.442   4.339
43601W        W 4967  29.931  32.067  13.502
43602W        W 4968  33.586  31.960  14.844
43603W        W 4969  22.686  27.541   4.225
43604W        W 4970   2.727  41.441  14.308
43605W        W 4971  10.201  10.688   4.195
43606W        W 4972  12.718  40.476  14.344
43607W        W 4973  43.304  39.501  14.875
43608W        W 4974  12.230  16.730  12.522
43609W        W 4975   7.370  29.013   4.203
43610W        W 4976  36.417  38.997   0.756
43611W        W 4977  35.597  26.091   4.273
43612W        W 4978  11.780  11.695   0.383
43613W        W 4979  43.021  11.791  10.946
43614W        W 4980  44.479  42.948  12.951
43615W        W 4981  20.153  32.440   2.899
43616W        W 4982  24.191  44.849  14.319
43617W        W 4983  33.621  34.410   3.192
43618W        W 4984   2.443  24.034   4.286
43619W        W 4985  17.162  23.145   2.241
43620W        W 4986  10.330  30.149  14.006
43621W        W 4987  10.288  26.117  14.772
43622W        W 4988   9.191   9.282  13.826
43623W        W 4989  12.335  44.912   4.206
43624W        W 4990  43.418  26.037   2.663
43625W        W 4991  18.231  29.947   3.692
43626W        W 4992  32.605   4.442   2.416
43627W        W 4993   0.281   5.779  10.427
43628W        W 4994  11.740   0.436   1.813
43629W        W 4995  18.643  27.950   0.369
43630W        W 4996  31.452  15.238   3.266
43631W        W 4997  28.094  12.275  11.084
43632W        W 4998   0.255   1.446  11.507
43633W        W 4999  41.961  14.153   5.203
43634W        W 5000   9.811  32.525   1.300
43635W        W 5001  17.636  29.595   2.804
43636W        W 5002   2.305   7.378   0.419
43637W        W 5003  30.103  39.058   3.265
43638W        W 5004  40.382  44.946   4.241
43639W        W 5005  10.202   8.766  10.589
43640W        W 5006  30.158  23.017  12.490
43641W        W 5007   0.419  24.582  11.883
43642W        W 5008  30.633  14.271  14.441
43643W        W 5009  43.924  16.664  12.995
43644W        W 5010  35.982  28.017  12.460
43645W        W 5011   2.438  26.196  11.435
43646W        W 5012  25.476  34.455   3.769
43647W        W 5013   4.414   3.932  14.514
43648W        W 5014  30.530  23.177   3.672
43649W        W 5015  30.117  14.300  13.823
43650W        W 5016  18.705   2.235   2.700
43651W        W 5017  29.110  43.887   3.783
43652W        W 5018  13.654   1.864   0.262
43653W        W 5019  18.693  18.072   4.253
43654W        W 5020  16.642  37.571  13.466
43655W        W 5021   7.351  24.607  14.860
43656W        W 5022  10.185  30.467  10.488
43657W        W 5023  31.963   9.225   3.862
43658W        W 5024  19.237  13.168   2.186
43659W        W 5025  21.752  33.124  14.967
43660W        W 5026  29.039   0.906   3.631
43661W        W 5027  22.670  27.980   2.258
43662W        W 5028  35.471  17.698   1.799
43663W        W 5029  13.606  34.455  10.912
43664W        W 5030  41.874   0.419  12.945
43665W        W 5031   7.679   7.335  11.410
43666W        W 5032   2.752  22.572   1.906
43667W        W 5033  23.140  29.063  11.048
43668W        W 5034  34.462  32.075   2.715
43669W        W 5035  35.106  26.951  11.984
43670W        W 5036  38.480  40.372  13.320
43671W        W 5037  40.310  41.799  13.831
43672W        W 5038  34.593  10.227  14.991
43673W        W 5039  29.020  31.425   2.848
43674W        W 5040  26.624   5.350  12.902
43675W        W 5041  32.502  25.577  13.981
43676W        W 5042  27.480  13.790  13.421
43677W        W 5043  31.941  22.160  11.048
43678W        W 5044   9.771  29.488  14.866
43679W        W 5045  19.221  44.318  11.010
43680W        W 5046  21.688  42.780  12.034
43681W        W 5047   2.280  11.787   3.252
43682W        W 5048  12.163   4.299   2.836
43683W        W 5049  44.887  24.178  14.932
43684W        W 5050  39.400  10.159   4.603
43685W        W 5051  37.397  33.564  12.054
43686W        W 5052  18.613  33.978  14.352
43687W        W 5053  33.941   9.161   0.311
43688W        W 5054  14.261  22.622  10.460
43689W        W 5055  26.974   4.311   0.900
43690W        W 5056  10.760  25.704  11.550
43691W        W 5057   4.755  43.829   3.819
43692W        W 5058  34.446  34.897  13.371
43693W        W 5059  23.218   7.796   2.190
43694W        W 5060   4.278  41.962   3.869
43695W        W 5061  32.957  39.954  13.485
43696W        W 5062  23.087  26.166   0.744
43697W        W 5063  12.696  30.155  12.419
43698W        W 5064  29.582   7.824   2.677
43699W        W 5065  10.220  15.643   3.769
43700W        W 5066  30.644  37.871  14.767
43701W        W 5067  10.677   7.893  12.967
43702W        W 5068   7.691  27.997   1.382
43703W        W 5069  25.667   2.789  10.471
43704W        W 5070  15.690  39.320   0.825
43705W        W 5071  17.566  19.721  14.977
43706W        W 5072   5.356  44.930   1.244
43707W        W 5073  23.646  38.444   0.937
43708W        W 5074  28.558  19.736  11.415
43709W        W 5075  43.984  14.128  11.931
43710W        W 5076  29.147  11.725  13.866
43711W        W 5077   7.276  40.305  13.867
43712W        W 5078  42.303  37.046   2.670
43713W        W 5079  34.919  36.564  14.306
43714W        W 5080   3.922   0.940  13.838
43715W        W 5081  18.289  16.717  13.469
43716W        W 5082  30.154  14.678   0.308
43717W        W 5083  43.778  40.802   2.826
43718W        W 5084  13.283   6.419   3.274
43719W        W 5085  18.095  34.457  10.532
43720W        W 5086  18.099   5.341   3.289
43721W        W 5087  26.042  27.983   2.900
43722W        W 5088  18.723  44.490  10.955
43723W        W 5089  26.539  23.541  11.534
43724W        W 5090  30.484   2.468   2.793
43725W        W 5091  21.758  29.547  10.933
43726W        W 5092  34.971  32.007   3.664
43727W        W 5093  24.165   4.830   3.216
43728W        W 5094  11.867  17.755  13.546
43729W        W 5095  44.340  27.513  13.443
43730W        W 5096  17.642  43.275   0.897
43731W        W 5097  19.219  29.157  12.413
43732W        W 5098  12.832  13.737   1.921
43733W        W 5099  16.587   5.693   1.725
43734W        W 5100  24.053  24.133   0.791
43735W        W 5101   1.370  18.592   3.858
43736W        W 5102   7.411  38.474   2.864
43737W        W 5103  15.719  10.678   0.934
43738W        W 5104   4.939  22.142  10.990
43739W        W 5105  14.749  41.421   0.472
43740W        W 5106  31.082  27.626   2.227
43741W        W 5107   1.300   5.813  13.986
43742W        W 5108   1.425  37.471   0.773
43743W        W 5109  44.942  44.292  10.498
43744W        W 5110  21.727  10.690   2.375
43745W        W 5111  16.695   6.891  12.558
43746W        W 5112  20.064  11.349   1.905
43747W        W 5113  14.688   0.963   4.306
43748W        W 5114  27.973  44.405   3.352
43749W        W 5115  12.210  19.600   1.871
43750W        W 5116   9.786  11.668   4.277
43751W        W 5117  24.617  30.092  13.950
43752W        W 5118  40.338  28.088  10.544
43753W        W 5119   7.901   5.778  13.824
43754W        W 5120  33.938  39.951   0.371
43755W        W 5121  12.265  43.960  12.566
43756W        W 5122  44.462  30.155  12.912
43757W        W 5123   6.404  22.089  14.986
43758W        W 5124   2.237  22.694   1.334
43759W        W 5125  42.831  25.546   4.306
43760W        W 5126  24.542  15.120   0.385
43761W        W 5127  10.730   2.852  12.058
43762W        W 5128  34.411  32.124   0.483
43763W        W 5129  23.136  29.993   2.184
43764W        W 5130   2.374   3.264   2.212
43765W        W 5131  20.752  39.014   1.809
43766W        W 5132  28.058  41.404  13.310
43767W        W 5133   2.836   9.839   3.761
43768W        W 5134   3.256   7.836  13.431
43769W        W 5135  39.485  19.695  14.431
43770W        W 5136  22.111  11.189  13.395
43771W        W 5137  25.109  14.114   1.738
43772W        W 5138   6.773  20.052  11.423
43773W        W 5139  13.756  18.565   4.313
43774W        W 5140   2.408  16.183  12.834
43775W        W 5141  24.656  42.525   2.750
43776W        W 5142  33.932   4.861  10.920
43777W        W 5143   7.737  10.324  13.859
43778W        W 5144  42.927  43.977  13.817
43779W        W 5145   5.932  39.871  13.475
43780W        W 5146  12.217   7.250   0.835
43781W        W 5147  20.734  26.142  10.963
43782W        W 5148  36.997  33.498   3.844
43783W        W 5149  32.570  16.776   0.359
43784W        W 5150  21.018  18.754  12.453
43785W        W 5151  13.347  41.006  13.839
43786W        W 5152   7.670  10.872   4.797
43787W        W 5153   0.883  37.994   0.755
43788W        W 5154  19.079  39.417   4.253
43789W        W 5155  34.095  35.073  10.082
43790W        W 5156  20.634  28.576   0.411
43791W        W 5157  26.066  26.691   1.230
43792W        W 5158  37.557  39.059   0.746
43793W        W 5159  26.577  19.149  11.948
43794W        W 5160  34.437  23.520   4.787
43795W        W 5161  21.651  27.012   1.776
43796W        W 5162  43.313  22.536   9.982
43797W        W 5163   0.314   1.337   1.840
43798W        W 5164  41.810   2.371   0.949
43799W        W 5165  43.911  41.454  11.962
43800W        W 5166  39.468  28.488  13.310
43801W        W 5167  16.639  16.741  11.572
43802W        W 5168  23.145  23.070  12.825
43803W        W 5169   3.769  28.485   9.551
43804W        W 5170  12.135  41.438   0.395
43805W        W 5171  13.767  42.833   2.754
43806W        W 5172  19.696   2.417   0.287
43807W        W 5173  28.612  10.339   1.339
43808W        W 5174   3.713  41.293   5.177
43809W        W 5175  12.689  16.580  12.839
43810W        W 5176  29.489  34.112  11.979
43811W        W 5177   4.832  26.125  11.894
43812W        W 5178  30.953  29.061   4.826
43813W        W 5179  44.802  39.906  14.480
43814W        W 5180  36.080  33.525  14.398
43815W        W 5181  13.648  27.447   0.909
43816W        W 5182  37.533  41.523   2.686
43817W        W 5183  18.593   8.747   4.316
43818W        W 5184  31.145  28.127  11.567
43819W        W 5185  12.193  35.984  14.818
43820W        W 5186  30.933  36.013  10.075
43821W        W 5187  38.399  44.416   2.716
43822W        W 5188   1.968  10.199   0.357
43823W        W 5189  16.792  28.025   2.773
43824W        W 5190   6.336  34.074  12.339
43825W        W 5191  43.371   1.973   0.752
43826W        W 5192   4.812   3.376   3.862
43827W        W 5193  44.368  15.812   1.820
43828W        W 5194  11.186  28.663  11.470
43829W        W 5195  22.063  29.149   0.266
43830W        W 5196   9.353  14.185   5.192
43831W        W 5197  26.640   5.797  13.888
43832W        W 5198  32.001  24.508  12.859
43833W        W 5199  34.937  42.506  12.857
43834W        W 5200  19.228  33.041   0.368
43835W        W 5201   6.912  32.986  12.458
43836W        W 5202  28.155  12.678  10.889
43837W        W 5203  30.438  26.034   4.684
43838W        W 5204  13.234  11.724   1.867
43839W        W 5205  39.947  21.099  12.903
43840W        W 5206   1.804   5.756   4.620
43841W        W 5207  28.113  36.458   2.715
43842W        W 5208  26.991  44.376   4.266
43843W        W 5209  34.994   4.238   0.845
43844W        W 5210   4.891   8.220  11.880
43845W        W 5211  11.180  36.011  13.818
43846W        W 5212  13.168   6.230  11.928
43847W        W 5213  43.888  12.193   4.639
43848W        W 5214   7.692  36.363   2.229
43849W        W 5215  13.699  14.195   4.603
43850W        W 5216  19.078  21.164  12.468
43851W        W 5217  30.515  30.155   3.853
43852W        W 5218   8.737  15.137   0.791
43853W        W 5219  18.272  17.604  10.587
43854W        W 5220  12.152  10.309   1.381
43855W        W 5221  39.841   0.786  12.480
43856W        W 5222  43.409  11.628  12.980
43857W        W 5223  22.094  15.179  14.477
43858W        W 5224  44.269  25.028  10.599
43859W        W 5225  25.096  20.063   0.920
43860W        W 5226   4.850  34.874  14.464
43861W        W 5227  39.859  22.228   0.385
43862W        W 5228  22.227  37.335   4.734
43863W        W 5229  39.015  43.444  11.079
43864W        W 5230  17.695  32.538   3.646
43865W        W 5231  40.860  42.963   3.668
43866W        W 5232  31.042  30.157   1.444
43867W        W 5233   7.832  37.428   2.366
43868W        W 5234  32.410  27.019  11.517
43869W        W 5235  12.269  40.015   0.801
43870W        W 5236  21.254  31.510   9.926
43871W        W 5237  38.569  31.478  11.489
43872W        W 5238  26.080  13.814   3.276
43873W        W 5239  40.029  32.130  14.440
43874W        W 5240  30.989  18.730   4.730
43875W        W 5241  35.388  22.178   4.242
43876W        W 5242  40.352  12.827  14.357
43877W        W 5243  34.036  42.968   0.838
43878W        W 5244  12.325  13.600   4.180
43879W        W 5245  17.158  40.504   4.672
43880W        W 5246  41.380  16.584  14.428
43881W        W 5247  17.183  14.827   1.908
43882W        W 5248  36.932  38.343   9.523
43883W        W 5249  17.759   4.419   2.729
43884W        W 5250   0.943  38.831  10.404
43885W        W 5251  18.620  39.497  12.496
43886W        W 5252  11.707  33.988  13.886
43887W        W 5253  14.199   5.904  14.516
43888W        W 5254  20.055  19.181   2.411
43889W        W 5255   1.473  34.463   1.305
43890W        W 5256   4.281  14.754  14.802
43891W        W 5257  34.044   4.919  10.022
43892W        W 5258  35.597  43.962  10.517
43893W        W 5259  28.564  12.298  11.055
43894W        W 5260  38.868  10.150  14.807
43895W        W 5261  17.240  24.035  11.030
43896W        W 5262  42.869   8.303   3.350
43897W        W 5263  20.176  32.481   1.813
43898W        W 5264  17.248   3.259  14.000
43899W        W 5265  12.349  33.029  13.879
43900W        W 5266   5.302  36.548   3.705
43901W        W 5267  15.184  30.161  11.951
43902W        W 5268  43.907  26.125   0.736
43903W        W 5269   7.234  41.475  14.415
43904W        W 5270  22.138  21.129  11.096
43905W        W 5271   7.818  27.180  11.975
43906W        W 5272  18.188  28.943  12.036
43907W        W 5273  13.795  11.727  11.596
43908W        W 5274  13.826   4.237  13.544
43909W        W 5275  43.820   5.271   4.707
43910W        W 5276  26.527  10.749  10.982
43911W        W 5277  26.983  20.272   3.794
43912W        W 5278  10.331  34.575  14.322
43913W        W 5279  41.469  11.741   0.861
43914W        W 5280  21.161  14.600   3.706
43915W        W 5281   8.341  13.825   1.421
43916W        W 5282   2.369  25.020   1.294
43917W        W 5283  41.467  22.705  13.402
43918W        W 5284  11.735   8.258   1.784
43919W        W 5285  23.652   9.833   1.317
43920W        W 5286   8.169  22.504   2.326
43921W        W 5287  21.053  41.431   1.800
43922W        W 5288  43.823  29.049   1.820
43923W        W 5289  15.153  18.240  12.873
43924W        W 5290  24.201  41.368   5.256
43925W        W 5291   2.388   3.892   0.346
43926W        W 5292   2.283   0.840  14.387
43927W        W 5293   2.447  23.115   0.958
43928W        W 5294  43.356  32.935  11.011
43929W        W 5295  29.515  40.504   0.370
43930W        W 5296   6.184  34.100   0.431
43931W        W 5297  17.150  32.020  13.528
43932W        W 5298   4.780  37.486   4.275
43933W        W 5299  39.957  10.637   3.714
43934W        W 5300  37.407  41.825  13.514
43935W        W 5301  12.283   6.803  11.603
43936W        W 5302  39.453  11.319   2.675
43937W        W 5303  32.939   7.397  12.573
43938W        W 5304  41.471  13.351  13.932
43939W        W 5305  24.556  19.668   0.385
43940W        W 5306  34.067  11.794   4.191
43941W        W 5307  34.109  10.748  10.629
43942W        W 5308  35.914  25.026  10.553
43943W        W 5309  25.214  27.652  14.875
43944W        W 5310  10.818  38.056   3.341
43945W        W 5311  36.930  38.353  10.944
43946W        W 5312  12.161   8.262  13.945
43947W        W 5313  41.867  22.070   0.897
43948W        W 5314  10.806  39.336  14.456
43949W        W 5315   0.976   6.921  11.477
43950W        W 5316  36.536  11.792  10.558
43951W        W 5317   9.750  41.473   1.335
43952W        W 5318  13.617   4.719  14.310
43953W        W 5319   8.327  12.729   3.836
43954W        W 5320  20.717  35.496   0.834
43955W        W 5321  30.035  32.440  14.006
43956W        W 5322  41.006  24.031  12.020
43957W        W 5323  26.100  19.674   0.776
43958W        W 5324  19.223   7.691   3.330
43959W        W 5325  24.210  26.688   1.696
43960W        W 5326   7.734  13.783   4.217
43961W        W 5327  10.742   6.202   3.187
43962W        W 5328  29.136   2.813  12.492
43963W        W 5329  43.926  20.754   4.153
43964W        W 5330  21.145  33.561   1.373
43965W        W 5331  34.589  25.200  12.933
43966W        W 5332  37.938  27.501  11.496
43967W        W 5333   8.791  11.856   0.398
43968W        W 5334  42.015  38.073  13.408
43969W        W 5335  10.715  17.173  13.945
43970W        W 5336  30.569  32.491  14.845
43971W        W 5337  14.671  30.577   4.800
43972W        W 5338  24.182  10.300   2.411
43973W        W 5339   1.951  35.007  11.451
43974W        W 5340  39.441  31.621  10.410
43975W        W 5341  15.812   1.903   3.247
43976W        W 5342  40.012  10.262  13.039
43977W        W 5343  39.032   0.774  11.526
43978W        W 5344  38.991  37.885  11.562
43979W        W 5345   2.852   4.815   4.213
43980W        W 5346  14.146  24.126   1.366
43981W        W 5347   0.264  27.669  10.028
43982W        W 5348  27.599  10.802  12.034
43983W        W 5349  36.587  11.127  12.524
43984W        W 5350  34.441   6.293  12.096
43985W        W 5351  35.449   8.402  14.405
43986W        W 5352   4.428  14.692   3.331
43987W        W 5353   2.778  10.162  12.044
43988W        W 5354  26.981  35.035   2.417
43989W        W 5355  28.504  10.680  12.420
43990W        W 5356  39.345  22.198  13.056
43991W        W 5357   5.336  20.142  14.339
43992W        W 5358  26.472  23.515   0.860
43993W        W 5359   9.150  35.507  14.028
43994W        W 5360  21.184   8.315  11.390
43995W        W 5361   8.199   3.955  14.795
43996W        W 5362  12.172   1.477   1.717
43997W        W 5363  24.570  14.695   0.468
43998W        W 5364  25.052   2.250  12.496
43999W        W 5365  13.653  37.582   3.826
44000W        W 5366  22.618  42.481   3.776
44001W        W 5367  13.679  19.637  12.859
44002W        W 5368  44.389  33.101  10.416
44003W        W 5369  36.388   6.807   1.890
44004W        W 5370   4.220  25.646   3.765
44005W        W 5371  38.335  41.997  10.966
44006W        W 5372  34.548  29.934   2.740
44007W        W 5373   9.302  29.573  13.411
44008W        W 5374  40.972  33.465  10.428
44009W        W 5375  30.069  42.325  11.041
44010W        W 5376  15.227  35.074   2.392
44011W        W 5377  30.158  13.823   2.667
44012W        W 5378   3.761  39.003   1.283
44013W        W 5379  38.487  26.613  13.921
44014W        W 5380  44.842  14.195  12.420
44015W        W 5381  17.782   6.390   3.203
44016W        W 5382  35.980  34.004  13.545
44017W        W 5383  43.832  27.008  13.823
44018W        W 5384  11.621  42.494  11.596
44019W        W 5385   6.716  15.658   1.326
44020W        W 5386  35.581  18.773   1.330
44021W        W 5387  29.932  39.492   3.224
44022W        W 5388  38.556  42.861  12.853
44023W        W 5389  28.068  41.957   4.613
44024W        W 5390   7.228   6.264   1.451
44025W        W 5391  12.665   8.893  13.011
44026W        W 5392  11.834  32.614   4.709
44027W        W 5393  14.724  37.456  10.607
44028W        W 5394  37.445  29.565  12.397
44029W        W 5395  23.018  41.805  11.856
44030W        W 5396  13.669  37.476   0.434
44031W        W 5397  26.048  39.959  11.121
44032W        W 5398   6.371  36.990   1.420
44033W        W 5399  38.897  19.673  11.501
44034W        W 5400  18.722  26.588  10.027
44035W        W 5401  38.476  43.374  11.917
44036W        W 5402  29.608  30.553  12.487
44037W        W 5403  36.395  35.993   2.284
44038W        W 5404  41.934   7.701  12.971
44039W        W 5405  33.603  26.651  14.798
44040W        W 5406  37.343  37.342   4.727
44041W        W 5407   6.893   1.819  13.317
44042W        W 5408   4.233  37.066  13.513
44043W        W 5409  39.857  15.769  11.420
44044W        W 5410  34.898  38.982   5.201
44045W        W 5411   2.391  11.219   4.186
44046W        W 5412  20.691   2.280  11.976
44047W        W 5413  37.494  31.569   4.311
44048W        W 5414  28.567  32.410   3.342
44049W        W 5415  13.793  13.788   4.741
44050W        W 5416  27.010  20.544   4.836
44051W        W 5417  22.638  24.229   4.730
44052W        W 5418  41.939  21.688  12.360
44053W        W 5419  10.647  12.685   0.914
44054W        W 5420  11.824  35.583   4.219
44055W        W 5421  12.782  32.456  13.842
44056W        W 5422  21.714  29.530   4.152
44057W        W 5423  12.624  23.213  12.971
44058W        W 5424  27.155  25.157  14.513
44059W        W 5425  20.733  14.196  13.876
44060W        W 5426  32.396  29.567  14.860
44061W        W 5427   3.915   4.371  12.382
44062W        W 5428  24.573  26.025  12.087
44063W        W 5429  25.483  31.907  13.803
44064W        W 5430  26.003  43.428  11.119
44065W        W 5431   5.774  38.360   2.890
44066W        W 5432  38.351  23.515  10.632
44067W        W 5433  36.516  37.881  12.574
44068W        W 5434  34.080  39.404  10.930
44069W        W 5435  35.554  22.712  12.025
44070W        W 5436  40.384  20.229   1.283
44071W        W 5437  17.111  33.600   4.778
44072W        W 5438  19.685  16.607  12.843
44073W        W 5439  34.593  36.935   0.826
44074W        W 5440   2.794  39.889   1.293
44075W        W 5441  41.881  29.125   4.290
44076W        W 5442  43.777  27.944  12.532
44077W        W 5443  22.699  16.244   2.218
44078W        W 5444  22.048   0.451   2.808
44079W        W 5445  23.531  22.609  13.979
44080W        W 5446  27.995  32.980   0.323
44081W        W 5447  12.164  37.973  14.877
44082W        W 5448   9.380   6.845  14.378
44083W        W 5449  33.032  11.826   2.411
44084W        W 5450  29.022  38.036   0.867
44085W        W 5451  12.716   3.749   1.274
44086W        W 5452  43.856   4.372   0.913
44087W        W 5453  16.601  30.079   2.755
44088W        W 5454  25.662  26.172  13.920
44089W        W 5455  29.012  21.562   0.742
44090W        W 5456   2.378  37.370  12.368
44091W        W 5457  30.994   6.384   2.899
44092W        W 5458   3.342   4.892  11.019
44093W        W 5459   8.787  20.645  11.432
44094W        W 5460  29.928  27.498  11.594
44095W        W 5461  23.051  10.748  10.428
44096W        W 5462  38.512  30.639  13.058
44097W        W 5463  43.310  33.883   3.831
44098W        W 5464  28.071  32.548   3.636
44099W        W 5465  42.008  40.831  10.925
44100W        W 5466  11.857  44.351  12.400
44101W        W 5467  14.832  28.604   4.677
44102W        W 5468  22.547  29.132  11.055
44103W        W 5469   9.334  31.557   4.208
44104W        W 5470  39.460  15.589  14.004
44105W        W 5471  25.557  26.629  12.030
44106W        W 5472   4.874  31.600  11.947
44107W        W 5473  15.668  22.240  12.577
44108W        W 5474  25.615   2.924   1.801
44109W        W 5475  31.531  37.403  13.847
44110W        W 5476  26.967  19.663   4.781
44111W        W 5477  19.744   1.331   1.789
44112W        W 5478   4.926  21.187   4.288
44113W        W 5479  29.021  10.652  13.332
44114W        W 5480  41.996  29.608  13.885
44115W        W 5481  10.633  42.008   2.783
44116W        W 5482  12.143  16.130  14.836
44117W        W 5483  14.276  31.071  12.535
44118W        W 5484  36.349  32.974   2.358
44119W        W 5485  23.545  43.967  12.951
44120W        W 5486   6.848  44.490   1.304
44121W        W 5487   5.786  42.899  14.979
44122W        W 5488  35.567  36.380  12.893
44123W        W 5489  17.077  41.296   9.920
44124W        W 5490  16.229  20.757   1.353
44125W        W 5491  12.850   7.222   2.674
44126W        W 5492  22.593  15.229  11.863
44127W        W 5493   8.216  15.631  10.916
44128W        W 5494  15.237  38.488  14.349
44129W        W 5495  15.300  40.404   3.295
44130W        W 5496  42.469  13.787   1.371
44131W        W 5497  15.706  34.065   1.897
44132W        W 5498  29.525   5.240  13.333
44133W        W 5499  42.422  42.869   0.258
44134W        W 5500   9.330  13.114   2.186
44135W        W 5501  27.180   4.346  12.957
44136W        W 5502  35.436  16.259  14.030
44137W        W 5503  11.763  36.009  11.949
44138W        W 5504   2.864  17.217  14.385
44139W        W 5505  32.952  13.617   2.256
44140W        W 5506  34.383  36.968   4.752
44141W        W 5507  15.705  22.565   3.666
44142W        W 5508  34.526  28.953   3.657
44143W        W 5509  15.120   0.279  11.505
44144W        W 5510  23.112  32.121  12.385
44145W        W 5511  36.911  39.395   1.851
44146W        W 5512  42.850  36.481  12.374
44147W        W 5513  16.619   5.260   1.287
44148W        W 5514  19.093  16.652   1.816
44149W        W 5515  10.376   6.189  11.597
44150W        W 5516   4.810  14.776   3.804
44151W        W 5517  10.695  13.817   0.837
44152W        W 5518  43.299  36.068   3.671
44153W        W 5519   4.342  12.746   0.352
44154W        W 5520  40.460  22.116   4.766
44155W        W 5521  24.677  34.402   0.243
44156W        W 5522  30.980  28.934  13.315
44157W        W 5523  42.383  34.876  14.790
44158W        W 5524  43.788  22.570  14.849
44159W        W 5525  33.386   2.819   3.319
44160W        W 5526  44.338  20.249  11.504
44161W        W 5527   5.267  39.474  13.499
44162W        W 5528  23.136  41.961  13.805
44163W        W 5529   6.784   4.234  11.059
44164W        W 5530  27.591  13.743  10.583
44165W        W 5531  17.187  36.465   3.753
44166W        W 5532  31.938  37.051   2.718
44167W        W 5533  33.460  19.673   4.347
44168W        W 5534  40.503  34.595  10.966
44169W        W 5535   0.474  29.522   2.190
44170W        W 5536  17.612  32.457   5.679
44171W        W 5537  40.018  37.979  12.346
44172W        W 5538   8.680  35.941   3.800
44173W        W 5539   9.378  16.217  13.890
44174W        W 5540  18.278  43.005   1.847
44175W        W 5541   4.856  36.388  13.036
44176W        W 5542  33.055  12.736  14.821
44177W        W 5543   4.801  20.552  11.947
44178W        W 5544  25.478   5.874   2.783
44179W        W 5545  39.377   0.424   0.877
44180W        W 5546  30.601  14.735  12.435
44181W        W 5547  32.932  25.625  13.441
44182W        W 5548   2.901  27.610   1.759
44183W        W 5549  26.533   0.976  14.513
44184W        W 5550  41.900  17.699  11.604
44185W        W 5551  25.485   7.385   3.798
44186W        W 5552   9.369  13.788  13.831
44187W        W 5553  35.586   1.889  12.453
44188W        W 5554  30.034  43.956   2.417
44189W        W 5555  10.729   8.218   2.223
44190W        W 5556  27.012  23.058   1.853
44191W        W 5557  31.043  27.576   3.770
44192W        W 5558  17.660  18.568  14.392
44193W        W 5559  20.692  15.176   0.324
44194W        W 5560  44.414  31.952  11.545
44195W        W 5561  13.626  23.679   1.447
44196W        W 5562  18.102  13.110  10.414
44197W        W 5563  28.611   9.728   1.812
44198W        W 5564  34.011  19.049  13.314
44199W        W 5565  20.038  18.639   2.736
44200W        W 5566   9.816   4.376   0.257
44201W        W 5567  19.270   3.834  13.426
44202W        W 5568  42.805  13.218   1.392
44203W        W 5569  20.600  13.313  12.985
44204W        W 5570   1.906  18.215   1.839
44205W        W 5571  22.528  19.132  12.006
44206W        W 5572  38.906  29.086   0.778
44207W        W 5573  12.340  31.941   4.227
44208W        W 5574  44.443  17.734   2.365
44209W        W 5575  40.527  28.681   4.603
44210W        W 5576   9.324  36.955  11.989
44211W        W 5577  29.514  39.940  13.511
44212W        W 5578  30.473   4.325  11.553
44213W        W 5579  40.462  34.019  12.575
44214W        W 5580   5.368  26.189   4.231
44215W        W 5581   4.909   7.410  13.472
44216W        W 5582   2.373  25.502  13.966
44217W        W 5583  11.191   2.420  12.364
44218W        W 5584  13.833  23.220  10.546
44219W        W 5585   8.378   3.254  11.602
44220W        W 5586  33.124  24.228  14.882
44221W        W 5587  15.178  13.601  12.576
44222W        W 5588  14.254  10.159   3.775
44223W        W 5589  35.903   6.353   0.481
44224W        W 5590  30.151  24.561   1.399
44225W        W 5591  33.019  29.945   1.420
44226W        W 5592  16.142  13.798   5.100
44227W        W 5593  27.070  17.696  14.474
44228W        W 5594   5.204   4.329   0.356
44229W        W 5595  34.561  38.474  10.049
44230W        W 5596  13.844   7.697   0.459
44231W        W 5597  27.528  29.659   1.298
44232W        W 5598  40.862  12.844  12.898
44233W        W 5599  43.805   6.807   0.410
44234W        W 5600   0.264  31.599  14.345
44235W        W 5601  21.664  30.442   2.193
44236W        W 5602  40.445  42.904   4.191
44237W        W 5603  41.414  43.925   0.437
44238W        W 5604  28.510  15.752  14.311
44239W        W 5605   3.738  35.598  12.980
44240W        W 5606  15.763  31.041  11.454
44241W        W 5607  16.566  26.513   0.727
44242W        W 5608  41.347   2.775   4.260
44243W        W 5609   0.379   0.472   4.251
44244W        W 5610  43.953  19.109   2.784
44245W        W 5611  33.964  38.940  11.025
44246W        W 5612   5.307  36.550   4.171
44247W        W 5613  27.129   4.394  10.494
44248W        W 5614  10.238  17.184   3.214
44249W        W 5615  14.691  34.592  11.397
44250W        W 5616  27.134  10.208  11.569
44251W        W 5617  25.504  26.523  14.967
44252W        W 5618   4.900  25.550   0.842
44253W        W 5619  38.330   5.404   3.842
44254W        W 5620  39.901  18.579  11.543
44255W        W 5621  25.641   6.358   3.670
44256W        W 5622   6.918  44.393  11.388
44257W        W 5623  29.598  10.214   1.890
44258W        W 5624  18.760   7.191  10.513
44259W        W 5625  42.822   8.279   4.735
44260W        W 5626  14.170  33.483   1.354
44261W        W 5627  15.141  32.412  13.422
44262W        W 5628  25.707  43.288  14.962
44263W        W 5629   6.289   2.426   1.304
44264W        W 5630   3.246  36.446  10.487
44265W        W 5631  31.413  22.051   1.342
44266W        W 5632  24.223  41.994  12.025
44267W        W 5633   8.361  15.271  13.061
44268W        W 5634  24.694  34.437   2.883
44269W        W 5635  10.691  41.815  12.456
44270W        W 5636   2.799  14.270  13.956
44271W        W 5637  17.169   1.298   4.299
44272W        W 5638  32.523   1.783  11.473
44273W        W 5639   8.825  13.140   0.470
44274W        W 5640  24.705  33.009  13.350
44275W        W 5641  38.074   1.970  10.598
44276W        W 5642  22.589  35.026  10.159
44277W        W 5643  14.337  14.340  13.334
44278W        W 5644  21.513  41.982   0.866
44279W        W 5645  15.822  12.192  10.894
44280W        W 5646  12.654  39.883  14.296
44281W        W 5647  16.788  12.359  14.817
44282W        W 5648  10.641  26.653  12.025
44283W        W 5649  36.369  38.466   3.368
44284W        W 5650  27.493   1.921   3.716
44285W        W 5651  33.466   4.703   4.609
44286W        W 5652  15.221  32.447   3.689
44287W        W 5653  28.582  12.788   0.357
44288W        W 5654  43.913  24.149   0.274
44289W        W 5655  12.169  32.466  13.907
44290W        W 5656  21.222  42.349   1.834
44291W        W 5657  26.080  11.253  12.006
44292W        W 5658  32.538  12.626   1.915
44293W        W 5659  32.502  14.738   4.697
44294W        W 5660  26.975  13.790   1.791
44295W        W 5661  13.795  42.376  12.969
44296W        W 5662  43.389  27.001   4.149
44297W        W 5663   1.955   4.799  12.399
44298W        W 5664  34.111  41.955  10.938
44299W        W 5665  23.662   7.890  13.505
44300W        W 5666  17.072   5.739   0.335
44301W        W 5667   8.269  38.338   0.895
44302W        W 5668  22.668  13.130   1.714
44303W        W 5669  11.717  13.172   3.782
44304W        W 5670  30.043  16.203   4.151
44305W        W 5671  15.189   8.870   1.818
44306W        W 5672   9.855   3.899  11.538
44307W        W 5673   6.215  43.900   0.918
44308W        W 5674  40.910  44.468  12.091
44309W        W 5675  22.623   0.971  14.881
44310W        W 5676   2.813  44.777   2.673
44311W        W 5677  25.117  26.952  13.946
44312W        W 5678  22.123  35.500   5.109
44313W        W 5679   1.815   7.744   3.809
44314W        W 5680  35.080  16.622   1.274
44315W        W 5681  31.070  22.531  11.896
44316W        W 5682   5.260   5.823   3.639
44317W        W 5683  26.023   0.873  13.955
44318W        W 5684  42.490  36.500   0.242
44319W        W 5685  43.797   6.262  13.034
44320W        W 5686  14.797  39.960   2.311
44321W        W 5687   6.258  27.596  13.029
44322W        W 5688  10.837   0.936   0.461
44323W        W 5689   0.801  40.375  11.094
44324W        W 5690  40.482  24.212  10.534
44325W        W 5691   3.807  18.729   4.824
44326W        W 5692  44.856  15.747  14.013
44327W        W 5693   9.865  24.074  12.011
44328W        W 5694   0.276  26.645   2.346
44329W        W 5695  24.558  44.460  12.842
44330W        W 5696  38.923  25.158  13.913
44331W        W 5697  22.697  22.125   2.354
44332W        W 5698  10.375   3.364   5.317
44333W        W 5699  42.375   9.682   1.373
44334W        W 5700  21.718  12.839   0.369
44335W        W 5701  34.499  27.984  10.602
44336W        W 5702   1.477  16.301  14.308
44337W        W 5703  24.990  15.313   3.644
44338W        W 5704  31.501   5.869   1.442
44339W        W 5705   7.180   1.975   2.198
44340W        W 5706  27.075  44.914   4.703
44341W        W 5707   5.372  30.526   3.308
44342W        W 5708  36.868   5.916  14.303
44343W        W 5709  33.410  23.110   3.770
44344W        W 5710   7.319  40.329   4.675
44345W        W 5711  44.422  42.909  14.373
44346W        W 5712   7.365  37.337  14.488
44347W        W 5713  21.229   6.812  14.328
44348W        W 5714   2.451  37.937  13.913
44349W        W 5715  11.325  30.928  12.362
44350W        W 5716  33.929  29.659  10.474
44351W        W 5717  11.313  15.110   0.484
44352W        W 5718   6.418  28.154  13.392
44353W        W 5719  22.633  36.066  14.801
44354W        W 5720   8.836  35.498  12.355
44355W        W 5721  41.910  15.796  10.103
44356W        W 5722  31.086   1.865  10.089
44357W        W 5723  44.815  23.602   0.395
44358W        W 5724  10.703  14.608   1.797
44359W        W 5725  16.705   2.290   3.635
44360W        W 5726  22.070  25.164  11.935
44361W        W 5727   6.387  41.972   1.817
44362W        W 5728  25.015  33.964   1.377
44363W        W 5729  33.387  33.507   3.150
44364W        W 5730  31.024  18.140   2.336
44365W        W 5731   7.800   6.692  14.323
44366W        W 5732  19.679  29.965   3.772
44367W        W 5733  31.458  14.228   4.200
44368W        W 5734  20.572   7.727  10.490
44369W        W 5735  24.480  33.998   4.747
44370W        W 5736  22.730   7.692  11.037
44371W        W 5737  27.476  22.048   2.790
44372W        W 5738  25.015  24.628  12.536
44373W        W 5739   0.852   0.332  13.854
44374W        W 5740  31.056  27.116  14.981
44375W        W 5741  30.046   7.721  12.528
44376W        W 5742  11.674  24.620   3.186
44377W        W 5743   0.924  11.759  11.014
44378W        W 5744   7.284  19.730  11.597
44379W        W 5745   8.696  15.680  10.501
44380W        W 5746  15.107   7.242   3.176
44381W        W 5747  28.660  36.058   1.328
44382W        W 5748  25.138  41.438   0.259
44383W        W 5749  17.305  42.787   0.894
44384W        W 5750   5.836  41.526  14.804
44385W        W 5751  37.947  13.159  13.422
44386W        W 5752   9.247  39.812  12.397
44387W        W 5753  42.406  17.236   3.827
44388W        W 5754   2.307  21.667  13.020
44389W        W 5755  26.096   9.649  11.542
44390W        W 5756  23.690  36.475   4.198
44391W        W 5757  11.665  30.073  10.412
44392W        W 5758  10.718  20.764  10.983
44393W        W 5759   3.411  30.556   3.743
44394W        W 5760   8.786  30.536   1.910
44395W        W 5761  20.206  18.262  10.488
44396W        W 5762  15.809   1.822  14.026
44397W        W 5763   4.895  41.996  13.476
44398W        W 5764  35.574  41.843  11.985
44399W        W 5765   3.901  40.483  11.464
44400W        W 5766   4.430  40.956  14.302
44401W        W 5767   8.346  25.528   4.296
44402W        W 5768  24.095  36.438   0.404
44403W        W 5769  32.582   2.874   0.264
44404W        W 5770  15.325   2.343  12.986
44405W        W 5771  11.666  44.954  12.568
44406W        W 5772   8.707  34.443   2.835
44407W        W 5773  12.818  31.984  14.820
44408W        W 5774   4.809  25.623   1.342
44409W        W 5775  30.113   1.238   0.805
44410W        W 5776  19.275  41.898  10.963
44411W        W 5777   5.220  21.517  11.864
44412W        W 5778   2.312  37.853   1.219
44413W        W 5779  31.065   5.778   2.378
44414W        W 5780  19.618   0.269  14.814
44415W        W 5781  34.481  20.629  11.891
44416W        W 5782  27.943  42.450   0.746
44417W        W 5783  39.934  35.580   1.825
44418W        W 5784  21.579  10.739  13.021
44419W        W 5785  35.483   0.865   2.887
44420W        W 5786  23.205  34.466  13.347
44421W        W 5787  22.707   3.739  12.533
44422W        W 5788  37.932  14.803  13.881
44423W        W 5789  35.469  40.855  13.537
44424W        W 5790  28.113  44.402  10.997
44425W        W 5791   7.365  29.460   2.766
44426W        W 5792  39.038  23.668   2.744
44427W        W 5793  34.516   4.868   3.286
44428W        W 5794  26.159  37.965   3.808
44429W        W 5795  41.819  26.107   0.475
44430W        W 5796  37.897  41.874   3.833
44431W        W 5797  25.712  10.772   4.712
44432W        W 5798  29.544  10.720   1.368
44433W        W 5799   6.375  40.940   1.909
44434W        W 5800  20.577  18.151   2.769
44435W        W 5801  24.157  25.151   4.264
44436W        W 5802  12.258  37.843  14.310
44437W        W 5803  38.975  29.954   1.743
44438W        W 5804  42.472  38.401  13.316
44439W        W 5805  40.930  16.643   0.383
44440W        W 5806  21.088  19.735  12.480
44441W        W 5807  15.086   3.912   0.958
44442W        W 5808  42.884  27.615   4.169
44443W        W 5809  36.977  36.099  14.911
44444W        W 5810  21.740   5.913  13.809
44445W        W 5811   6.737  31.565  14.435
44446W        W 5812  30.534  21.252   3.786
44447W        W 5813  16.228   9.797  10.589
44448W        W 5814  15.201   9.849  11.992
44449W        W 5815  35.889  12.755  10.984
44450W        W 5816  43.515  32.997  12.857
44451W        W 5817  38.535  20.609   2.882
44452W        W 5818  19.152  38.439  10.630
44453W        W 5819  10.311  17.282   0.392
44454W        W 5820   0.425  44.935  11.118
44455W        W 5821   9.379   1.804   4.352
44456W        W 5822   8.873  28.469   1.330
44457W        W 5823   6.815  38.492   4.323
44458W        W 5824  26.540  27.087   5.216
44459W        W 5825  32.066   8.833  12.930
44460W        W 5826  44.307  10.840   4.244
44461W        W 5827  23.154  22.592   4.247
44462W        W 5828  18.625  38.422   3.358
44463W        W 5829  13.648   7.886  13.440
44464W        W 5830  27.643  23.135  11.384
44465W        W 5831  17.267  27.548  14.995
44466W        W 5832  25.154  22.517  10.487
44467W        W 5833   1.916   6.428  13.042
44468W        W 5834  25.213  11.682  11.414
44469W        W 5835  18.751  15.169   3.642
44470W        W 5836  14.214  25.577   0.914
44471W        W 5837  18.698  17.589  11.482
44472W        W 5838   1.355  18.131  10.624
44473W        W 5839  17.180  23.620  11.962
44474W        W 5840  13.276  20.580   2.683
44475W        W 5841  32.546  34.963   2.270
44476W        W 5842   9.240  22.518  14.800
44477W        W 5843  13.816   0.286  11.452
44478W        W 5844  42.940  40.966   3.317
44479W        W 5845  25.603  10.294   1.432
44480W        W 5846  26.483  25.971   1.838
44481W        W 5847  12.691  25.045   2.301
44482W        W 5848   9.712  15.652  14.512
44483W        W 5849  30.611  36.079   1.741
44484W        W 5850   3.325  26.036   4.674
44485W        W 5851  11.846   5.733   3.701
44486W        W 5852   4.394  20.167   3.773
44487W        W 5853   6.714  31.039   1.853
44488W        W 5854  17.782  43.860   1.222
44489W        W 5855   5.758  25.641  12.469
44490W        W 5856  10.233   1.764  12.992
44491W        W 5857  40.450   7.371  13.491
44492W        W 5858  43.925  12.844   3.693
44493W        W 5859  37.911  35.389  11.517
44494W        W 5860  35.593   0.479  10.624
44495W        W 5861   2.335  33.481   0.919
44496W        W 5862  16.812  31.925   3.713
44497W        W 5863  39.440  33.611  12.392
44498W        W 5864  29.656   1.254  10.519
44499W        W 5865  15.628  35.432  13.916
44500W        W 5866  24.487  12.645   3.680
44501W        W 5867   0.350  23.054  12.880
44502W        W 5868   1.962   1.252  13.546
44503W        W 5869  28.064   6.398  14.303
44504W        W 5870  18.120  11.627  11.924
44505W        W 5871   2.337  14.684   1.266
44506W        W 5872  17.101  34.103  11.981
44507W        W 5873  32.124   8.757   1.822
44508W        W 5874  30.154   7.389  13.544
44509W        W 5875   4.397   0.752   2.672
44510W        W 5876   4.785   9.841   2.192
44511W        W 5877  41.880   1.873  11.952
44512W        W 5878  15.243  17.167  11.390
44513W        W 5879  42.336  13.775  14.279
44514W        W 5880  44.298  36.894  13.048
44515W        W 5881   6.242  15.120  14.949
44516W        W 5882   2.730  42.891  12.411
44517W        W 5883  41.319   5.813   0.888
44518W        W 5884  28.577  23.113   1.703
44519W        W 5885   3.348  23.021   2.256
44520W        W 5886  11.208   3.278  14.477
44521W        W 5887  32.527   6.235  13.997
44522W        W 5888   4.837  38.858  11.440
44523W        W 5889  43.458  13.318   3.837
44524W        W 5890   3.808   3.895  13.308
44525W        W 5891  44.980  41.926  11.940
44526W        W 5892  41.326  42.307  10.596
44527W        W 5893  14.239  38.990   0.415
44528W        W 5894  12.195   4.393  10.496
44529W        W 5895  28.444   8.242   4.239
44530W        W 5896  34.034  17.670   2.262
44531W        W 5897  26.625  18.150  13.395
44532W        W 5898  35.085  11.360   0.897
44533W        W 5899  43.300  43.843  10.594
44534W        W 5900  33.517  36.927  11.967
44535W        W 5901  18.613  32.938   4.344
44536W        W 5902  27.073  18.711   3.756
44537W        W 5903  44.398   3.921  12.446
44538W        W 5904  36.548  18.685  12.539
44539W        W 5905  31.488   5.247  12.429
44540W        W 5906  10.358  41.493   2.848
44541W        W 5907   1.792   6.371   1.390
44542W        W 5908  28.186  33.432   3.766
44543W        W 5909  29.992  24.980  11.941
44544W        W 5910   2.417  23.627  12.060
44545W        W 5911   3.284  25.172   4.151
44546W        W 5912  21.039  19.740  12.995
44547W        W 5913  27.580  29.574  14.501
44548W        W 5914  30.045  12.814  11.481
44549W        W 5915  37.969  25.034  14.299
44550W        W 5916  20.752  26.546  14.808
44551W        W 5917  38.416  40.972   2.837
44552W        W 5918  10.347  24.651  14.901
44553W        W 5919  24.167   4.726   2.840
44554W        W 5920  26.107  42.325   2.218
44555W        W 5921  20.526  34.938   1.284
44556W        W 5922   6.238  41.470   4.759
44557W        W 5923  42.505   5.276  10.491
44558W        W 5924  26.174   9.324   4.806
44559W        W 5925  34.452   8.890  14.424
44560W        W 5926  20.202  41.010   1.713
44561W        W 5927  31.123  18.751  12.058
44562W        W 5928   7.190   4.906  13.041
44563W        W 5929   2.842  13.617  10.447
44564W        W 5930  35.536   8.358  13.544
44565W        W 5931  15.115   6.253  13.838
44566W        W 5932  35.480  31.949   0.441
44567W        W 5933  15.769  17.187  13.476
44568W        W 5934  14.291  38.459   0.404
44569W        W 5935   7.713   9.675  10.462
44570W        W 5936  37.839  20.740  14.310
44571W        W 5937  19.585   9.834   1.780
44572W        W 5938  19.556  38.045   0.347
44573W        W 5939  32.914  26.588  14.376
44574W        W 5940  30.116  17.763  12.849
44575W        W 5941  15.630   0.814  14.371
44576W        W 5942   2.777  12.262  10.411
44577W        W 5943  41.990  42.013  11.108
44578W        W 5944  26.051   3.930   2.340
44579W        W 5945  27.122  24.099  13.386
44580W        W 5946  39.547   5.931  14.348
44581W        W 5947  27.541   4.395   3.737
44582W        W 5948  27.542   1.783  13.947
44583W        W 5949  33.911  21.063   2.881
44584W        W 5950  21.723  39.922   1.442
44585W        W 5951  15.590  36.588  14.993
44586W        W 5952  26.666   2.834  10.504
44587W        W 5953   7.905   5.427   3.214
44588W        W 5954  10.246  10.303   3.633
44589W        W 5955  17.109  30.155  10.908
44590W        W 5956  10.154  16.604   0.319
44591W        W 5957  33.878  36.428  13.447
44592W        W 5958   7.880  30.634  14.425
44593W        W 5959  40.478  17.748  13.805
44594W        W 5960  11.781  32.538  11.123
44595W        W 5961  24.208  25.054  14.285
44596W        W 5962  42.486  12.785   2.368
44597W        W 5963  35.474  20.621   0.939
44598W        W 5964   5.261  41.531   0.823
44599W        W 5965  22.227  23.671   4.623
44600W        W 5966  14.314  20.597   2.839
44601W        W 5967  18.590  32.633  14.317
44602W        W 5968  15.600  17.062  13.031
44603W        W 5969   8.829   4.360   0.330
44604W        W 5970  17.646   0.957   2.262
44605W        W 5971   7.290   2.799  14.882
44606W        W 5972  41.832  38.909  12.855
44607W        W 5973  31.131   7.781  14.028
44608W        W 5974  14.101   8.718   4.830
44609W        W 5975  31.960  21.713   3.163
44610W        W 5976  17.151  42.927   2.277
44611W        W 5977  41.998   5.700   4.132
44612W        W 5978  14.719  43.957   2.718
44613W        W 5979  37.380  34.386  10.031
44614W        W 5980  17.158  11.151   3.871
44615W        W 5981  32.515  26.679   4.632
44616W        W 5982  29.990   6.296   2.692
44617W        W 5983   6.243  24.642  14.467
44618W        W 5984  23.655  23.224  13.391
44619W        W 5985  14.095  11.631  12.846
44620W        W 5986  31.149  21.631  11.436
44621W        W 5987  18.291  40.498  13.962
44622W        W 5988  27.045  23.159  11.572
44623W        W 5989   6.843  14.172   4.838
44624W        W 5990   2.795  35.587   4.351
44625W        W 5991  19.053  40.482  12.354
44626W        W 5992  16.625  16.801  11.989
44627W        W 5993   1.854  39.872  12.959
44628W        W 5994  31.645  15.682  11.026
44629W        W 5995  19.110  12.701  14.363
44630W        W 5996   5.738  19.618  14.512
44631W        W 5997  41.873  32.017   4.237
44632W        W 5998  24.723  10.801   1.361
44633W        W 5999  17.220  35.048   1.424
44634W        W 6000  44.900   3.899   0.934
44635W        W 6001  29.153  29.064  11.596
44636W        W 6002   1.890  32.422   3.644
44637W        W 6003  24.655   1.440  14.304
44638W        W 6004   7.204  36.548   4.265
44639W        W 6005  31.532  38.919   2.825
44640W        W 6006  23.491  18.110   2.234
44641W        W 6007   9.163   4.710   4.696
44642W        W 6008  18.100  29.924  12.448
44643W        W 6009  25.642  21.246   0.936
44644W        W 6010  28.438  36.522   4.295
44645W        W 6011  41.036   2.369   4.678
44646W        W 6012  43.837  34.044  13.475
44647W        W 6013  33.017  30.597   3.758
44648W        W 6014  22.086  33.042  14.512
44649W        W 6015  21.747  44.886   3.261
44650W        W 6016  40.993   8.793   1.808
44651W        W 6017   8.678  36.946   2.898
44652W        W 6018  18.281   3.456   3.860
44653W        W 6019  36.420  11.211  10.977
44654W        W 6020  13.280  26.457   5.092
44655W        W 6021  41.355  10.837  14.864
44656W        W 6022   6.183  32.632  14.875
44657W        W 6023   5.439  13.311   0.798
44658W        W 6024  33.527  44.940  14.372
44659W        W 6025  20.542  16.692   0.313
44660W        W 6026  16.573  17.802   9.527
44661W        W 6027  19.081  25.175   4.824
44662W        W 6028  33.085  13.725   1.434
44663W        W 6029   3.737  24.636  14.512
44664W        W 6030  24.980  12.315  12.433
44665W        W 6031   3.828   1.964   4.686
44666W        W 6032  41.459  40.012  12.091
44667W        W 6033  16.682  40.501  12.042
44668W        W 6034  26.077  17.123  14.398
44669W        W 6035  40.815  22.573  11.003
44670W        W 6036  17.662  36.437   3.829
44671W        W 6037  33.066  38.566   3.772
44672W        W 6038  38.989   9.159   4.152
44673W        W 6039  15.141  39.841  14.405
44674W        W 6040  25.552  28.503   0.477
44675W        W 6041  34.041   5.193   3.301
44676W        W 6042  43.800  29.488   2.240
44677W        W 6043  31.929  44.988   3.374
44678W        W 6044  31.484  17.686   4.152
44679W        W 6045  35.523   3.941  10.560
44680W        W 6046  38.026  24.639  11.377
44681W        W 6047  39.059   3.262   0.482
44682W        W 6048   1.945  29.536  13.949
44683W        W 6049  18.138   9.719  10.546
44684W        W 6050  15.131   4.804   2.202
44685W        W 6051  15.179   5.702   0.830
44686W        W 6052  20.059  36.493   0.961
44687W        W 6053   4.704  23.543   0.410
44688W        W 6054  19.757  31.469   4.235
44689W        W 6055  29.487  44.265   3.674
44690W        W 6056  38.859  15.279   4.639
44691W        W 6057  13.269  27.998  12.546
44692W        W 6058  44.894  21.755   3.706
44693W        W 6059  24.210  27.170  11.080
44694W        W 6060  12.688  38.865   4.351
44695W        W 6061   9.315   5.249  12.372
44696W        W 6062  43.790  40.989   0.853
44697W        W 6063  26.166  34.460   2.184
44698W        W 6064  20.127  43.411  13.470
44699W        W 6065  33.453  32.535  11.602
44700W        W 6066   2.251  43.902   2.681
44701W        W 6067  38.451  36.459   3.251
44702W        W 6068  23.227  42.778  10.984
44703W        W 6069  22.129   1.468   2.299
44704W        W 6070   0.331  35.905  13.884
44705W        W 6071  32.892   1.296   0.404
44706W        W 6072  27.113  33.924   0.924
44707W        W 6073   9.261  28.003   4.256
44708W        W 6074  37.044  13.291   2.714
44709W        W 6075  35.371  23.064   2.238
44710W        W 6076  32.433  13.294   3.244
44711W        W 6077  28.487  36.921   4.831
44712W        W 6078  21.678  36.017  11.945
44713W        W 6079  21.076  31.608   0.281
44714W        W 6080  43.824  38.010  10.518
44715W        W 6081  22.245   4.251  12.526
44716W        W 6082   0.376   3.284   3.686
44717W        W 6083  24.161   9.207  11.421
44718W        W 6084   0.432  37.582   0.469
44719W        W 6085  32.926   1.263   0.791
44720W        W 6086  15.167   4.820  13.841
44721W        W 6087  10.688  40.378  12.958
44722W        W 6088  26.036   3.405  11.500
44723W        W 6089  18.571   3.836  12.066
44724W        W 6090   3.915  22.568  13.449
44725W        W 6091  22.657  29.963  12.041
44726W        W 6092  19.216  14.628  10.590
44727W        W 6093  31.056  10.254  13.351
44728W        W 6094  22.235  18.231  13.456
44729W        W 6095  17.704  36.927  10.642
44730W        W 6096  31.996  43.833  10.920
44731W        W 6097  38.328  20.080  14.959
44732W        W 6098  18.680  28.538  13.953
44733W        W 6099  42.927  11.361   0.901
44734W        W 6100   5.243  12.177   3.191
44735W        W 6101  25.579  39.955  10.926
44736W        W 6102  11.366  35.968   4.267
44737W        W 6103  31.055  44.349   0.291
44738W        W 6104  38.977  41.387   4.644
44739W        W 6105  33.919   4.333  13.368
44740W        W 6106   6.745  19.593   3.152
44741W        W 6107  35.448   1.732  14.298
44742W        W 6108  40.944  31.107  10.641
44743W        W 6109  11.365  32.411   3.751
44744W        W 6110   3.784  12.266  10.897
44745W        W 6111  43.952   3.791  14.875
44746W        W 6112   3.772  39.851   5.313
44747W        W 6113   6.782  41.298  12.505
44748W        W 6114  19.195  25.556  12.048
44749W        W 6115  12.630  25.486  14.921
44750W        W 6116   4.208  41.455   0.286
44751W        W 6117  30.635   7.194   2.322
44752W        W 6118   9.843  24.981  10.969
44753W        W 6119  29.647   9.351  14.486
44754W        W 6120   5.714   2.431   5.593
44755W        W 6121   3.282  32.606  14.998
44756W        W 6122  24.182  30.602   2.236
44757W        W 6123  18.732   9.878  11.105
44758W        W 6124   4.893  23.128  11.510
44759W        W 6125  39.824   3.394   3.218
44760W        W 6126  30.417  28.974   3.376
44761W        W 6127  27.060  16.654   0.831
44762W        W 6128  18.103  34.877  12.091
44763W        W 6129  36.416  35.588   4.327
44764W        W 6130   3.901  27.110  13.488
44765W        W 6131  29.482  38.465  11.583
44766W        W 6132  13.127   6.690  13.458
44767W        W 6133  40.488   3.322   3.199
44768W        W 6134  25.971   0.986  12.381
44769W        W 6135   4.417  31.443   4.211
44770W        W 6136   1.761  17.123   2.323
44771W        W 6137   8.786   8.304  13.997
44772W        W 6138  41.395  40.310   4.164
44773W        W 6139  16.783  40.503  14.333
44774W        W 6140  38.953   6.293   4.165
44775W        W 6141  35.941  12.705  12.422
44776W        W 6142  33.910  21.037  13.879
44777W        W 6143  33.430   8.752   1.854
44778W        W 6144  36.993  44.851   0.291
44779W        W 6145  14.798  30.977   2.312
44780W        W 6146  13.238  43.019   1.819
44781W        W 6147  43.272  41.005  11.571
44782W        W 6148  30.969   8.779   0.937
44783W        W 6149  37.041  15.093  14.020
44784W        W 6150  18.166  30.142   1.416
44785W        W 6151  36.361  39.359  12.022
44786W        W 6152  35.893   9.769  14.836
44787W        W 6153  33.969  32.405   1.257
44788W        W 6154  44.935  15.698  13.307
44789W        W 6155   9.245  22.226   3.681
44790W        W 6156  12.189   3.944   3.856
44791W        W 6157  28.595   9.877  11.373
44792W        W 6158  41.040  41.458   2.714
44793W        W 6159  14.197  30.600  12.374
44794W        W 6160   1.384  10.195  10.609
44795W        W 6161  19.178  33.936   4.198
44796W        W 6162   3.868  19.755   2.303
44797W        W 6163  20.050  28.647   2.892
44798W        W 6164  44.925  20.659   1.858
44799W        W 6165  17.153   9.313  14.926
44800W        W 6166  24.655  27.051   2.318
44801W        W 6167  42.800  28.455   1.266
44802W        W 6168  18.255  27.992   3.170
44803W        W 6169  10.281  20.751  14.025
44804W        W 6170  43.499  10.777   2.405
44805W        W 6171  42.941  11.167  14.316
44806W        W 6172  26.553  10.635  11.525
44807W        W 6173   9.695  40.425  13.023
44808W        W 6174   5.301   5.264   2.221
44809W        W 6175  10.183  44.377   3.335
44810W        W 6176  43.339  11.740   2.711
44811W        W 6177   9.220   0.744   1.780
44812W        W 6178  10.250  28.163   1.785
44813W        W 6179  17.264  38.335  11.081
44814W        W 6180   2.966  29.620   1.777
44815W        W 6181  19.118  23.578   2.288
44816W        W 6182  13.783  18.242  12.345
44817W        W 6183  39.003  26.566   2.726
44818W        W 6184  30.138   7.810  14.847
44819W        W 6185  13.672  29.537   4.609
44820W        W 6186  17.199  22.053  10.907
44821W        W 6187  13.234  39.917  11.043
44822W        W 6188  19.718  23.063  12.523
44823W        W 6189   3.343   1.907   1.254
44824W        W 6190   9.787  10.738  11.898
44825W        W 6191  37.369   7.883   4.133
44826W        W 6192  27.488   8.328  14.301
44827W        W 6193   3.375  41.449  13.830
44828W        W 6194  33.535  27.010   1.299
44829W        W 6195  22.084  43.998  10.523
44830W        W 6196  26.544  44.856  12.453
44831W        W 6197  33.497  44.883   1.901
44832W        W 6198  17.262   4.374  13.386
44833W        W 6199  21.034  24.088   0.396
44834W        W 6200  42.981  20.209   5.203
44835W        W 6201  33.953  31.096  10.551
44836W        W 6202  33.055   1.257  10.407
44837W        W 6203  44.777  30.153  13.545
44838W        W 6204  24.204   8.878   5.319
44839W        W 6205  44.992  16.088  12.423
44840W        W 6206  28.079  18.766  14.760
44841W        W 6207  32.017  10.350   3.191
44842W        W 6208  34.900   6.405  12.461
44843W        W 6209  26.110   5.831   4.314
44844W        W 6210   2.806  31.080  14.857
44845W        W 6211  35.451  14.167   0.767
44846W        W 6212  26.175  16.180  13.451
44847W        W 6213  44.828  44.927   4.631
44848W        W 6214  21.689   3.342  10.915
44849W        W 6215   5.350   6.800   2.279
44850W        W 6216  16.685   3.396   3.191
44851W        W 6217  38.981   9.832   2.901
44852W        W 6218  36.886  32.628   1.753
44853W        W 6219   3.461   1.906   1.759
44854W        W 6220  30.444  32.032  14.966
44855W        W 6221  33.608   1.878  14.308
44856W        W 6222  27.112  32.461  10.984
44857W        W 6223  20.127  35.430   3.201
44858W        W 6224  19.055  44.946  12.922
44859W        W 6225  14.160  27.674  12.379
44860W        W 6226  34.978   1.844   2.414
44861W        W 6227  26.099  43.515   0.806
44862W        W 6228  44.767  36.435   2.877
44863W        W 6229  41.972  32.913   1.870
44864W        W 6230  12.809  26.007   0.788
44865W        W 6231  19.212  19.735   0.872
44866W        W 6232  23.995  27.991   2.687
44867W        W 6233  43.305  36.888  10.600
44868W        W 6234  33.001  35.045   0.424
44869W        W 6235   4.707  25.673   0.316
44870W        W 6236  29.447  16.763  13.477
44871W        W 6237  44.802  17.285   0.317
44872W        W 6238  15.736  29.498  14.421
44873W        W 6239  22.107  15.722   0.253
44874W        W 6240  40.807  14.782   4.775
44875W        W 6241  41.435  10.873   4.625
44876W        W 6242  17.099  34.580  14.013
44877W        W 6243  33.943  36.541   3.679
44878W        W 6244   0.749   4.900  10.938
44879W        W 6245  35.920  39.946   5.286
44880W        W 6246  43.884  24.506   2.747
44881W        W 6247  36.888  28.144  14.498
44882W        W 6248  21.706   1.867   3.818
44883W        W 6249  43.379  12.770   2.836
44884W        W 6250   4.766  40.446  10.598
44885W        W 6251  28.443  29.613  11.531
44886W        W 6252  23.731  22.543  14.785
44887W        W 6253   5.707  23.714   2.708
44888W        W 6254  25.650  21.140  11.997
44889W        W 6255  20.032  38.544  13.333
44890W        W 6256  35.413   3.240  12.488
44891W        W 6257  13.783   4.388   1.227
44892W        W 6258  42.886  21.633  14.027
44893W        W 6259  42.981  11.328  14.839
44894W        W 6260   5.790   8.292  11.065
44895W        W 6261  14.755  44.886  12.053
44896W        W 6262  16.220  29.057  12.019
44897W        W 6263   8.794  36.071  10.920
44898W        W 6264  40.487  29.073   0.874
44899W        W 6265   6.198   6.282  11.122
44900W        W 6266  25.563  21.223   3.857
44901W        W 6267  31.496  21.186  13.035
44902W        W 6268  13.159  12.833   4.835
44903W        W 6269   7.256  37.859  14.378
44904W        W 6270  15.252  28.030   2.362
44905W        W 6271   0.779  20.155  13.033
44906W        W 6272  16.189  26.546   3.739
44907W        W 6273  15.586  14.603   1.930
44908W        W 6274  24.580  21.603  10.467
44909W        W 6275  41.824   1.255   4.286
44910W        W 6276   6.345  38.430  10.970
44911W        W 6277  41.464  19.076   3.382
44912W        W 6278   0.894  19.546   1.231
44913W        W 6279  35.110  19.229  12.837
44914W        W 6280  29.545  37.884   3.200
44915W        W 6281   7.682  35.962   2.227
44916W        W 6282  33.911  31.463   2.837
44917W        W 6283  31.076  16.240   3.741
44918W        W 6284   4.324  10.214  13.982
44919W        W 6285  25.978  38.326   3.320
44920W        W 6286  24.112  25.176   5.250
44921W        W 6287  10.342  27.537   3.663
44922W        W 6288  22.064   6.389  10.565
44923W        W 6289   2.389  36.011   2.287
44924W        W 6290  25.995   7.763  13.952
44925W        W 6291  39.823  43.347   1.415
44926W        W 6292   8.404  38.325  13.429
44927W        W 6293   2.438  17.283  14.830
44928W        W 6294  20.707  35.575   1.441
44929W        W 6295  24.018  27.118   0.279
44930W        W 6296   7.413   5.271   2.277
44931W        W 6297   6.277  36.903   4.307
44932W        W 6298  11.339   6.300   4.187
44933W        W 6299  21.227  22.050   3.185
44934W        W 6300  37.952   1.480  11.092
44935W        W 6301   0.908  25.582   1.871
44936W        W 6302  21.212  26.583   5.092
44937W        W 6303  39.052  12.644  14.493
44938W        W 6304  23.182  31.549  11.373
44939W        W 6305  43.515  10.645  14.374
44940W        W 6306  38.836  14.119   1.342
44941W        W 6307  23.552  41.466  10.565
44942W        W 6308   6.278  30.525   0.467
44943W        W 6309   6.326  24.137   3.374
44944W        W 6310  27.106  28.963   3.814
44945W        W 6311  31.947  33.049  12.871
44946W        W 6312  18.274  37.401   3.269
44947W        W 6313  44.827   9.833  12.866
44948W        W 6314  41.383   5.269  13.044
44949W        W 6315  18.069  31.016  11.976
44950W        W 6316  20.271  18.687   0.299
44951W        W 6317  31.900  23.569  12.866
44952W        W 6318  36.568  19.551   3.174
44953W        W 6319  42.484  23.056   3.186
44954W        W 6320  37.473  34.496   2.745
44955W        W 6321  39.559   7.377  13.331
44956W        W 6322  16.604   7.204  12.375
44957W        W 6323  39.498  14.327   2.816
44958W        W 6324   2.297  38.036  13.513
44959W        W 6325  21.214  18.117  12.896
44960W        W 6326  44.985  16.101  12.895
44961W        W 6327   2.943  15.090   5.591
44962W        W 6328  31.626  24.091  13.482
44963W        W 6329  29.640  10.265  14.917
44964W        W 6330  15.582   1.259   2.274
44965W        W 6331  41.013  16.659  11.117
44966W        W 6332  39.039  39.395   3.204
44967W        W 6333  33.991   5.199   2.203
44968W        W 6334  17.730  12.649   4.132
44969W        W 6335  33.611  38.905  14.780
44970W        W 6336  44.965  16.167  11.375
44971W        W 6337   4.699  15.674   0.857
44972W        W 6338  43.368  20.722   4.605
44973W        W 6339  23.050  27.091  11.601
44974W        W 6340  24.132  44.275   4.722
44975W        W 6341  31.468  17.722  14.963
44976W        W 6342  39.909  18.582   4.660
44977W        W 6343   0.275  24.677   4.143
44978W        W 6344  36.505  18.672  13.323
44979W        W 6345  11.765   6.259   0.860
44980W        W 6346  28.663  44.948   1.283
44981W        W 6347  38.926  29.938   3.755
44982W        W 6348  12.194  17.711  14.955
44983W        W 6349  35.999  10.168   0.371
44984W        W 6350  39.958   2.761   0.853
44985W        W 6351  41.872  44.389  14.018
44986W        W 6352  36.872   0.297  11.389
44987W        W 6353   9.865  18.607  10.507
44988W        W 6354  31.152  32.072  14.772
44989W        W 6355  23.590  30.535   4.771
44990W        W 6356  38.450  42.388   4.161
44991W        W 6357  15.264  42.933  12.385
44992W        W 6358  27.456   0.369  12.378
44993W        W 6359  28.027   8.350   3.855
44994W        W 6360  15.154  32.584   1.335
44995W        W 6361   9.657  27.560  12.066
44996W        W 6362  36.373  34.486   1.419
44997W        W 6363  17.723  19.167  13.803
44998W        W 6364  35.107  19.722   4.153
44999W        W 6365  15.113  26.108  14.978
45000W        W 6366  30.657  23.105  11.963
45001W        W 6367  35.552  37.566  12.062
45002W        W 6368  40.849  26.553   2.342
45003W        W 6369  34.450   8.390   1.911
45004W        W 6370  23.720  29.587  11.035
45005W        W 6371  24.495  41.358  14.430
45006W        W 6372  23.645  13.838   0.274
45007W        W 6373  42.515  34.928  11.973
45008W        W 6374  41.937  17.771   4.794
45009W        W 6375  22.233   0.275  12.049
45010W        W 6376   5.718  19.124   4.783
45011W        W 6377  11.290  16.572  13.904
45012W        W 6378  42.519  38.010   2.871
45013W        W 6379   4.319   1.750  12.443
45014W        W 6380  37.030  25.980  12.864
45015W        W 6381  34.953  12.829  14.978
45016W        W 6382  14.316  43.791  14.963
45017W        W 6383  11.627  37.042   4.689
45018W        W 6384  20.549   3.922  12.461
45019W        W 6385   9.157   9.342   2.700
45020W        W 6386   7.830   2.852  14.937
45021W        W 6387  15.124  43.346   3.830
45022W        W 6388   3.460  10.842   3.742
45023W        W 6389   5.922  18.607   3.309
45024W        W 6390  32.014  41.348  14.003
45025W        W 6391  41.400  32.887  13.802
45026W        W 6392   7.871  23.996  11.030
45027W        W 6393  24.073  35.548  14.854
45028W        W 6394  42.319  35.055   2.249
45029W        W 6395  11.841   3.727   4.789
45030W        W 6396   5.764  11.357   2.407
45031W        W 6397  41.997  36.390   2.819
45032W        W 6398  17.194  17.232   0.360
45033W        W 6399   1.924  31.621  12.514
45034W        W 6400  25.707  26.083  12.068
45035W        W 6401   6.422  23.686   4.698
45036W        W 6402  15.813  16.198   2.296
45037W        W 6403   5.209  33.081  10.928
45038W        W 6404  38.448  15.716  11.501
45039W        W 6405  11.330  21.018   2.686
45040W        W 6406  17.780   6.892   0.281
45041W        W 6407  43.380  41.901   3.835
45042W        W 6408  22.022  43.949   2.836
45043W        W 6409  10.706  32.402   1.729
45044W        W 6410  32.909   2.963   0.965
45045W        W 6411  41.531  36.025   2.351
45046W        W 6412  22.516  34.541  13.894
45047W        W 6413  31.927  36.985  12.861
45048W        W 6414  41.875  40.464   0.405
45049W        W 6415  18.746  27.996   4.298
45050W        W 6416  36.391   4.869   4.662
45051W        W 6417  37.351  27.477   2.756
45052W        W 6418   6.348  19.539   0.265
45053W        W 6419  43.794   7.390  11.874
45054W        W 6420  20.245  40.487   2.260
45055W        W 6421   3.721   8.875   2.353
45056W        W 6422   4.342  42.520  11.609
45057W        W 6423  43.817  31.062   0.418
45058W        W 6424  31.122  44.838   2.364
45059W        W 6425  12.635   3.239  11.539
45060W        W 6426  18.246  10.203  14.837
45061W        W 6427   3.294  44.282  14.770
45062W        W 6428   0.459  17.663   0.951
45063W        W 6429  36.902  31.448  11.581
45064W        W 6430  28.089   9.783  14.976
45065W        W 6431  20.745  30.451   0.793
45066W        W 6432  38.068  31.472  11.031
45067W        W 6433  13.325   9.171   0.875
45068W        W 6434  15.118   1.856  10.896
45069W        W 6435   2.882  40.851   2.775
45070W        W 6436  40.904  41.798   1.324
45071W        W 6437   2.927  37.890   3.346
45072W        W 6438  35.521  20.578  12.910
45073W        W 6439  32.450  24.017  10.892
45074W        W 6440   3.304  23.163   1.877
45075W        W 6441  41.830  29.613   2.382
45076W        W 6442  30.479  27.136   3.748
45077W        W 6443  29.630  33.543  12.984
45078W        W 6444  30.982  37.967   1.705
45079W        W 6445  37.496  32.480  14.844
45080W        W 6446  20.207  43.379   1.736
45081W        W 6447   6.303  44.781   4.227
45082W        W 6448  27.028  29.057  14.302
45083W        W 6449  19.074  41.011   2.410
45084W        W 6450  32.108   0.361   1.918
45085W        W 6451  41.932  11.286  13.480
45086W        W 6452  33.991  42.822   2.707
45087W        W 6453   1.761  19.750  13.359
45088W        W 6454  18.198  34.379   1.301
45089W        W 6455  21.651   7.716  10.990
45090W        W 6456  12.714  23.699   2.694
45091W        W 6457  26.684  31.528   3.676
45092W        W 6458  25.067  18.095   0.843
45093W        W 6459   6.905   0.261  13.024
45094W        W 6460  43.887   6.734   4.773
45095W        W 6461  24.109  14.755   1.415
45096W        W 6462  16.173  15.749   1.222
45097W        W 6463  34.023  31.646  14.942
45098W        W 6464  33.535  21.638   1.408
45099W        W 6465  10.172  20.196  13.389
45100W        W 6466  26.178  27.973  11.494
45101W        W 6467  35.020   1.832   3.244
45102W        W 6468   8.830  34.082  10.517
45103W        W 6469  28.099  28.659  13.521
45104W        W 6470  29.515  28.595   0.847
45105W        W 6471  24.150   4.745  13.797
45106W        W 6472   6.393  35.380  14.954
45107W        W 6473  33.935  44.396   0.800
45108W        W 6474  19.163   8.680   1.922
45109W        W 6475  34.941  43.986  12.936
45110W        W 6476  42.906  42.815   2.327
45111W        W 6477  34.117   8.840  14.458
45112W        W 6478   2.405  14.171   3.640
45113W        W 6479  44.333  32.115   3.154
45114W        W 6480  12.235  34.391   4.286
45115W        W 6481  32.943  31.038   3.272
45116W        W 6482  35.013  14.752   3.259
45117W        W 6483  24.041   1.457  12.455
45118W        W 6484  16.765  22.666  11.982
45119W        W 6485  40.355   1.920  13.806
45120W        W 6486  39.325  16.287  14.388
45121W        W 6487  28.130  26.547   3.751
45122W        W 6488  39.858  20.157  13.801
45123W        W 6489  44.964  44.852  14.420
45124W        W 6490  17.267  22.550  14.947
45125W        W 6491  24.719  27.977  13.820
45126W        W 6492  20.609  33.129   0.831
45127W        W 6493  13.266  12.304  14.506
45128W        W 6494  15.119  36.466  12.046
45129W        W 6495  36.409  42.452   3.337
45130W        W 6496   5.273   7.294   2.732
45131W        W 6497  13.164  15.095  14.937
45132W        W 6498  42.848  28.010  11.568
45133W        W 6499  16.234  37.515   1.450
45134W        W 6500   3.743  20.618   1.238
45135W        W 6501   1.768  10.211  11.543
45136W        W 6502  38.918  25.640  13.499
45137W        W 6503   9.670  20.593   1.247
45138W        W 6504  10.334  21.566   1.279
45139W        W 6505  39.551  33.102  10.618
45140W        W 6506   1.314   7.285   4.276
45141W        W 6507  40.054   4.920   0.348
45142W        W 6508  39.969  30.534   4.155
45143W        W 6509  15.748  12.818   4.207
45144W        W 6510  28.601  30.034   3.721
45145W        W 6511  21.105  41.020   4.772
45146W        W 6512  33.391  40.833  14.354
45147W        W 6513  23.223  20.608   2.188
45148W        W 6514  19.246  44.338  10.478
45149W        W 6515   8.729  18.181  13.055
45150W        W 6516  40.022  18.626  12.410
45151W        W 6517  29.656  22.636   1.720
45152W        W 6518  22.579  34.396  14.312
45153W        W 6519  24.172  32.924  11.573
45154W        W 6520  38.929  42.961   3.347
45155W        W 6521   9.741  36.348  10.973
45156W        W 6522  21.570   7.808  13.918
45157W        W 6523  28.672  39.531   0.917
45158W        W 6524  29.500  31.479   2.726
45159W        W 6525  14.130  32.996   2.819
45160W        W 6526  19.587  21.756  14.811
45161W        W 6527   8.898  11.865  11.396
45162W        W 6528   8.301  31.442  14.393
45163W        W 6529   2.410  15.159  10.461
45164W        W 6530  25.139  21.565  10.914
45165W        W 6531   4.797  39.407  14.908
45166W        W 6532  40.370  20.710   2.743
45167W        W 6533  43.771  30.096   4.190
45168W        W 6534  13.295   3.938   2.321
45169W        W 6535  11.134   2.843   4.637
45170W        W 6536  28.608  17.188   1.789
45171W        W 6537  41.501  19.129   1.280
45172W        W 6538  38.826  27.940   0.824
45173W        W 6539  11.364  42.334   0.464
45174W        W 6540  25.061   1.328   0.463
45175W        W 6541  42.935   4.234   2.812
45176W        W 6542  39.038  40.440  14.409
45177W        W 6543   7.811   1.299  13.416
45178W        W 6544   2.805   2.427  12.865
45179W        W 6545  30.079   4.863   0.470
45180W        W 6546  33.613  22.241   1.313
45181W        W 6547  28.455  12.641   5.086
45182W        W 6548  34.432  37.069   2.820
45183W        W 6549  18.088  40.799   0.472
45184W        W 6550  22.148  11.160  14.344
45185W        W 6551  37.990  42.334  14.902
45186W        W 6552  12.279  30.414   3.287
45187W        W 6553  26.108  15.245   0.281
45188W        W 6554  36.080   2.405  14.397
45189W        W 6555   5.812  10.785   4.672
45190W        W 6556  17.215  16.773   0.351
45191W        W 6557  43.434   5.300   4.618
45192W        W 6558  37.939   0.486  13.420
45193W        W 6559  41.455   3.794   4.170
45194W        W 6560   3.348  37.851   1.297
45195W        W 6561   7.731  10.205   2.303
45196W        W 6562  19.535  25.995  12.515
45197W        W 6563  18.211  21.042   4.813
45198W        W 6564  26.599  32.888  12.386
45199W        W 6565  10.750  42.025  10.638
45200W        W 6566  17.078  17.712   0.951
45201W        W 6567   6.708  41.437  13.793
45202W        W 6568   7.736  29.553   1.906
45203W        W 6569  15.654   2.297   4.694
45204W        W 6570   5.300   8.862  12.425
45205W        W 6571  16.598   9.226  14.857
45206W        W 6572   2.825  34.873   2.381
45207W        W 6573  31.016   0.298   3.851
45208W        W 6574  29.430  34.603   1.401
45209W        W 6575  32.412  16.652  10.533
45210W        W 6576  31.645  15.318   2.724
45211W        W 6577   7.337  40.503  13.435
45212W        W 6578  17.686  18.685  12.025
45213W        W 6579  41.842   7.218   4.796
45214W        W 6580  36.581  34.008  11.451
45215W        W 6581   0.481  21.230  11.435
45216W        W 6582  15.676  27.015  11.426
45217W        W 6583  31.553  22.736  12.824
45218W        W 6584  31.105  12.702  14.952
45219W        W 6585  37.061  14.771   1.794
45220W        W 6586  38.346  21.195  14.362
45221W        W 6587  21.209  26.520  10.611
45222W        W 6588   2.329   6.769   0.932
45223W        W 6589  32.610  31.015   2.222
45224W        W 6590  29.031  12.826   0.759
45225W        W 6591   4.252  29.970   4.329
45226W        W 6592  16.763   9.723   0.791
45227W        W 6593  12.631  34.397   5.275
45228W        W 6594   0.464  11.750   3.718
45229W        W 6595  40.876  39.858   1.223
45230W        W 6596  40.432  33.472   4.187
45231W        W 6597  18.598  40.955  13.414
45232W        W 6598  11.227  23.107   4.248
45233W        W 6599   5.762   9.346  14.476
45234W        W 6600  14.249  24.051  10.531
45235W        W 6601   0.362  43.019   1.739
45236W        W 6602  13.605  36.510  11.485
45237W        W 6603  41.387   6.348   0.922
45238W        W 6604  29.929  22.015   1.916
45239W        W 6605  17.801  27.198   3.224
45240W        W 6606  34.607  13.789   0.839
45241W        W 6607  11.788  26.154  11.443
45242W        W 6608   6.856   9.297   1.920
45243W        W 6609  21.208  12.632   0.849
45244W        W 6610  10.370  37.338  13.921
45245W        W 6611  22.095  40.925  11.513
45246W        W 6612   5.902  15.625  13.537
45247W        W 6613  10.158   7.680  11.972
45248W        W 6614  35.439  11.774  11.949
45249W        W 6615  29.031  15.642   2.772
45250W        W 6616  30.009   2.331   3.256
45251W        W 6617   0.962  22.676  10.436
45252W        W 6618   2.294   0.280   2.670
45253W        W 6619  42.358  40.900   0.950
45254W        W 6620   1.479  36.588  14.786
45255W        W 6621  10.832  14.301   2.748
45256W        W 6622  27.684  42.023  14.761
45257W        W 6623  21.629  19.150   4.321
45258W        W 6624  40.408  39.893  10.564
45259W        W 6625  17.626  44.439  11.074
45260W        W 6626   2.849  23.575  13.474
45261W        W 6627  29.120   4.822  14.823
45262W        W 6628  15.586   8.252   4.189
45263W        W 6629  18.237  13.711   4.711
45264W        W 6630  15.735  11.209  13.547
45265W        W 6631   9.319  18.596  12.475
45266W        W 6632  27.052  31.547   4.246
45267W        W 6633  37.081  18.138   2.848
45268W        W 6634  13.275  20.030   3.810
45269W        W 6635  17.738  16.167  13.448
45270W        W 6636  30.985   7.214   0.839
45271W        W 6637  37.465  28.478  11.945
45272W        W 6638  27.666  39.400   2.768
45273W        W 6639   8.286  14.258  13.311
45274W        W 6640  21.724  11.360   2.727
45275W        W 6641  35.907   7.815  10.620
45276W        W 6642  39.975   9.331   1.810
45277W        W 6643  24.497  29.946  13.019
45278W        W 6644  36.887  35.038   4.780
45279W        W 6645   3.338   4.384   4.131
45280W        W 6646  29.579  27.628  12.506
45281W        W 6647  41.998   9.770   1.870
45282W        W 6648  27.145  10.786  13.935
45283W        W 6649  36.549  24.039   1.433
45284W        W 6650  34.449  33.033  11.482
45285W        W 6651  25.110   1.915   3.373
45286W        W 6652  35.047   3.334  14.343
45287W        W 6653  43.324  15.585   2.677
45288W        W 6654  16.678  41.313   2.877
45289W        W 6655  23.590  19.227   4.182
45290W        W 6656   2.422  24.212   0.737
45291W        W 6657  22.057  34.072   4.216
45292W        W 6658  10.829  20.232   0.812
45293W        W 6659  12.265   1.368  11.870
45294W        W 6660  42.867   7.755  14.996
45295W        W 6661  37.923  15.149  13.813
45296W        W 6662  29.661  42.385   4.306
45297W        W 6663  11.175  14.642   2.768
45298W        W 6664   6.862  29.973  11.419
45299W        W 6665  19.582   0.858  12.962
45300W        W 6666   9.676  21.145   0.434
45301W        W 6667  21.169   5.783   0.314
45302W        W 6668  15.648   7.250  13.503
45303W        W 6669  14.204  10.657  14.293
45304W        W 6670   1.339  32.932  14.005
45305W        W 6671  26.016  40.436   3.765
45306W        W 6672  37.439   2.893  12.916
45307W        W 6673  33.586  25.630   0.855
45308W        W 6674   1.811   4.713   1.273
45309W        W 6675  40.443  43.470   0.325
45310W        W 6676  38.075  26.126   2.303
45311W        W 6677  21.747  42.809   2.738
45312W        W 6678  32.134  19.175  13.411
45313W        W 6679   3.882  38.009  10.635
45314W        W 6680   0.877   8.691  14.312
45315W        W 6681  33.941   0.841   4.314
45316W        W 6682  16.620   5.346  14.023
45317W        W 6683  37.074  23.159  10.626
45318W        W 6684   6.307  39.533   1.775
45319W        W 6685   2.328   4.831   1.881
45320W        W 6686  44.853  25.615  13.916
45321W        W 6687   2.235   0.768  10.048
45322W        W 6688   9.299  15.238  10.159
45323W        W 6689  42.430  40.439   4.120
45324W        W 6690  40.051  15.688   1.867
45325W        W 6691   7.314   5.833   2.704
45326W        W 6692   5.392   9.192   0.477
45327W        W 6693  13.147  43.766  12.528
45328W        W 6694  18.689  26.177  11.091
45329W        W 6695  31.481  25.621  13.917
45330W        W 6696   1.877  19.588  12.482
45331W        W 6697  19.099  40.850   0.248
45332W        W 6698  21.040  20.672  10.053
45333W        W 6699  24.037   2.800   0.286
45334W        W 6700  27.115  14.619  10.487
45335W        W 6701  11.179  30.944   3.302
45336W        W 6702  44.479  33.982  12.948
45337W        W 6703   7.787  44.455   2.191
45338W        W 6704  32.009  10.228  10.549
45339W        W 6705  35.968   7.802  11.506
45340W        W 6706  27.149  10.197  11.061
45341W        W 6707  33.886  12.831   0.856
45342W        W 6708   9.776   2.963   2.696
45343W        W 6709  43.435  14.798   0.775
45344W        W 6710   8.717   9.359  11.531
45345W        W 6711  26.618   6.344   3.751
45346W        W 6712  38.025  21.073  12.830
45347W        W 6713  34.387   3.450  13.459
45348W        W 6714  40.935  31.613  12.965
45349W        W 6715  13.793  27.530   2.233
45350W        W 6716  44.969  20.758  10.576
45351W        W 6717  44.402  22.681  12.986
45352W        W 6718  34.588  24.067   2.717
45353W        W 6719  24.164  40.917  10.921
45354W        W 6720   6.732  22.603   4.752
45355W        W 6721  36.435  32.070  13.543
45356W        W 6722  26.033  34.369  11.088
45357W        W 6723   3.263  26.613  14.365
45358W        W 6724  39.808  36.088   1.214
45359W        W 6725  27.036  34.876  12.358
45360W        W 6726  26.605  44.907   0.444
45361W        W 6727  34.414  43.823   1.869
45362W        W 6728  21.193  20.198  11.100
45363W        W 6729  25.116  32.489   4.127
45364W        W 6730  36.550  30.622  14.940
45365W        W 6731   0.826  17.702   0.372
45366W        W 6732  43.291  17.649  13.358
45367W        W 6733  14.657   1.436  14.440
45368W        W 6734  38.897  21.656  14.504
45369W        W 6735  42.395  22.084   3.182
45370W        W 6736  37.908  12.153  13.871
45371W        W 6737  38.955  32.059   1.768
45372W        W 6738  25.640  11.317   3.331
45373W        W 6739  19.577  38.059  10.502
45374W        W 6740  32.937  44.999  12.008
45375W        W 6741  43.326   3.953   4.639
45376W        W 6742  18.119  33.936   3.169
45377W        W 6743   9.193  31.038  10.987
45378W        W 6744   1.360  32.440   4.137
45379W        W 6745  15.616  16.786  11.061
45380W        W 6746  44.405  22.743   0.754
45381W        W 6747  37.414  16.132  14.358
45382W        W 6748  24.121   6.308  10.968
45383W        W 6749  27.679  39.946   1.362
45384W        W 6750  21.044   5.339  10.155
45385W        W 6751  34.523   9.222  13.038
45386W        W 6752  42.910   0.977   3.777
45387W        W 6753   0.460  30.599   1.882
45388W        W 6754   9.819   7.727  11.561
45389W        W 6755  13.142  44.010   0.413
45390W        W 6756  24.511  20.097  14.394
45391W        W 6757  30.623  25.498  14.843
45392W        W 6758  42.394  30.015  13.875
45393W        W 6759  21.257  21.260   3.156
45394W        W 6760   7.873  20.678   2.800
45395W        W 6761  31.626  15.119   1.872
45396W        W 6762  43.814   7.858  11.418
45397W        W 6763  31.010  13.188   0.408
45398W        W 6764  24.601  43.498   4.775
45399W        W 6765   6.182  41.434   3.866
45400W        W 6766  41.798  10.144   0.468
45401W        W 6767  30.999  12.247  11.992
45402W        W 6768  24.154   0.339   4.240
45403W        W 6769  20.726  29.055  13.387
45404W        W 6770  39.977  22.655   4.744
45405W        W 6771  21.651  30.008  14.013
45406W        W 6772   1.802   4.934   0.739
45407W        W 6773  35.032  14.196   1.257
45408W        W 6774  26.471  31.103  11.500
45409W        W 6775  21.153  29.446  14.025
45410W        W 6776  22.638  18.650   2.216
45411W        W 6777  23.220  44.814  11.568
45412W        W 6778  23.652  15.578  10.416
45413W        W 6779  29.514   9.743   1.216
45414W        W 6780  22.087  23.076   3.178
45415W        W 6781  13.664  15.656   3.790
45416W        W 6782  35.878  29.115  13.062
45417W        W 6783  37.510  19.103   2.744
45418W        W 6784  31.939  14.144  10.112
45419W        W 6785  34.918   8.768   0.465
45420W        W 6786  26.601   8.179  13.520
45421W        W 6787  38.542  26.527  13.413
45422W        W 6788   3.444  41.353   3.331
45423W        W 6789   6.224  37.905  11.477
45424W        W 6790  44.440  29.570  10.158
45425W        W 6791  39.057  43.834   2.282
45426W        W 6792  43.901   3.279   9.936
45427W        W 6793  41.011  16.081  11.945
45428W        W 6794  23.532  27.173   2.696
45429W        W 6795  10.316  24.036   4.279
45430W        W 6796   7.403  11.202   2.662
45431W        W 6797   4.880  36.031  14.991
45432W        W 6798  32.929  39.817  11.552
45433W        W 6799  40.920  27.993   0.876
45434W        W 6800  29.937  13.169  11.972
45435W        W 6801  26.144  40.373   0.381
45436W        W 6802  15.118   4.922   4.745
45437W        W 6803  15.188  16.654   4.296
45438W        W 6804  29.045  18.260   4.191
45439W        W 6805  21.108  25.182   3.260
45440W        W 6806   7.734   3.880  14.923
45441W        W 6807  22.582  44.452   2.203
45442W        W 6808  12.355  44.496   4.705
45443W        W 6809  12.266   8.783  11.388
45444W        W 6810  39.835  26.101  12.397
45445W        W 6811   0.275  18.619   3.675
45446W        W 6812  42.289  27.509   1.751
45447W        W 6813  16.181  43.504   1.785
45448W        W 6814  25.024  44.975  11.442
45449W        W 6815   6.771  28.110  13.049
45450W        W 6816   6.811  25.579  13.491
45451W        W 6817  30.908   7.786   4.136
45452W        W 6818  35.048  29.942   2.384
45453W        W 6819  34.969   9.198   1.812
45454W        W 6820  25.611  34.865   3.820
45455W        W 6821  38.830  34.977   0.731
45456W        W 6822  34.438  43.354  13.350
45457W        W 6823  20.726  12.354   0.418
45458W        W 6824  44.478  30.558  14.508
45459W        W 6825  29.104  33.579  14.405
45460W        W 6826   5.312  32.097   4.259
45461W        W 6827  23.626  11.238  13.017
45462W        W 6828   8.877  19.574  10.467
45463W        W 6829  35.045   9.274  11.554
45464W        W 6830  17.654  44.968   2.770
45465W        W 6831  24.985  37.944   3.864
45466W        W 6832  34.071  32.606   4.654
45467W        W 6833   7.192  44.424  14.900
45468W        W 6834  10.180   4.912  11.438
45469W        W 6835  25.966   5.707   3.739
45470W        W 6836  14.709  36.443  12.041
45471W        W 6837  17.619   5.197   1.281
45472W        W 6838  20.079  25.131  14.407
45473W        W 6839  22.101   1.443   0.965
45474W        W 6840  19.114  25.517   4.834
45475W        W 6841  29.997   6.341   2.181
45476W        W 6842  41.338  14.750  11.570
45477W        W 6843  29.441  27.536   4.150
45478W        W 6844  18.115  36.397   4.703
45479W        W 6845   8.680  32.548   1.698
45480W        W 6846  37.561  30.565   1.302
45481W        W 6847  33.916  23.722  12.049
45482W        W 6848  31.144   5.241  11.045
45483W        W 6849  43.995  36.869  13.424
45484W        W 6850   3.379  43.017   1.841
45485W        W 6851  40.978  41.799   3.733
45486W        W 6852   2.395  30.439   5.321
45487W        W 6853  40.857  17.569  11.978
45488W        W 6854  36.951   5.325   2.901
45489W        W 6855  44.863  22.055   4.291
45490W        W 6856   9.248  22.066  12.375
45491W        W 6857  26.999  30.476   0.739
45492W        W 6858  31.629  11.865   1.885
45493W        W 6859   8.222  30.585   1.864
45494W        W 6860   0.486  20.723  14.998
45495W        W 6861   3.373  10.877   1.769
45496W        W 6862  31.451   5.230   0.302
45497W        W 6863   1.447  26.539   2.348
45498W        W 6864  38.559  37.020   4.643
45499W        W 6865  15.303  14.680  14.475
45500W        W 6866  30.965  44.885   0.925
45501W        W 6867  15.757  16.189   1.264
45502W        W 6868  16.206  41.455  10.469
45503W        W 6869  30.095  28.070   3.757
45504W        W 6870  33.124  37.410   3.287
45505W        W 6871  38.878   7.380  14.328
45506W        W 6872  30.451  22.646   0.755
45507W        W 6873  18.073  32.104  13.930
45508W        W 6874  41.041  31.980   2.410
45509W        W 6875  27.978  16.579   4.804
45510W        W 6876  17.147   8.738   4.791
45511W        W 6877  16.607  27.093  10.914
45512W        W 6878  38.399  10.358  14.004
45513W        W 6879  44.388  32.923  14.440
45514W        W 6880  13.702   1.313   0.244
45515W        W 6881  31.024  28.573  12.459
45516W        W 6882  20.238   4.861  14.487
45517W        W 6883  24.173  39.358   4.728
45518W        W 6884   1.978   2.757   2.819
45519W        W 6885   0.928  14.152   1.232
45520W        W 6886  26.965   1.932   4.165
45521W        W 6887  39.558  39.384  14.957
45522W        W 6888   8.794  44.347  12.981
45523W        W 6889  10.147   0.846   1.375
45524W        W 6890  43.986  26.487  14.836
45525W        W 6891  27.196  25.709   0.410
45526W        W 6892   2.467   7.263  14.822
45527W        W 6893  11.649   1.862  11.089
45528W        W 6894  18.720  43.834   4.663
45529W        W 6895  38.997  42.491   4.314
45530W        W 6896  39.507  31.138  13.896
45531W        W 6897  39.356   5.726  12.828
45532W        W 6898  21.151  10.782   0.352
45533W        W 6899  15.138  44.767   2.234
45534W        W 6900   2.785   5.253   0.287
45535W        W 6901  36.574  29.670   3.247
45536W        W 6902  17.608  29.630  12.487
45537W        W 6903   1.819  39.443  10.626
45538W        W 6904  24.106  39.443  13.967
45539W        W 6905  41.017   5.411   1.874
45540W        W 6906  25.125  25.987   0.913
45541W        W 6907  25.651  32.111   1.315
45542W        W 6908  14.756  14.830   3.342
45543W        W 6909  35.496  28.990  11.597
45544W        W 6910  41.989  13.320   0.427
45545W        W 6911  42.896  44.364   0.369
45546W        W 6912  37.034  43.923  14.374
45547W        W 6913  37.881  11.304  11.495
45548W        W 6914  20.643  13.142   3.380
45549W        W 6915  11.369  10.825   0.481
45550W        W 6916  33.622  13.784   0.961
45551W        W 6917  35.996  22.253  11.110
45552W        W 6918  37.870   1.312   4.252
45553W        W 6919  19.741   7.855  10.629
45554W        W 6920  40.810  26.176  10.415
45555W        W 6921  32.117  27.182  14.314
45556W        W 6922   6.316  26.986  13.009
45557W        W 6923  10.376  25.636   2.722
45558W        W 6924  33.544  25.181   2.899
45559W        W 6925  43.279   4.370  12.347
45560W        W 6926  37.433  25.576  13.925
45561W        W 6927  40.046  40.412  11.389
45562W        W 6928  26.458  22.575  13.837
45563W        W 6929  30.551  43.462   0.836
45564W        W 6930  15.598  23.490  14.992
45565W        W 6931  38.983  38.517  10.539
45566W        W 6932  35.947  40.043  11.000
45567W        W 6933  24.565  13.118  11.389
45568W        W 6934  39.464  34.502   2.211
45569W        W 6935   6.199  29.533  13.926
45570W        W 6936   0.945  13.155   4.727
45571W        W 6937  43.853  20.720   1.431
45572W        W 6938  14.128  23.734  13.014
45573W        W 6939  20.641  35.064   3.691
45574W        W 6940  30.126  37.880   4.117
45575W        W 6941  26.496  12.745  14.977
45576W        W 6942  40.859  29.957  10.511
45577W        W 6943  21.578  43.783   0.951
45578W        W 6944  37.031  18.193  12.947
45579W        W 6945  37.083  44.364  12.359
45580W        W 6946  34.423  32.022   1.241
45581W        W 6947  35.577  43.391  14.904
45582W        W 6948  17.710  12.657  11.989
45583W        W 6949  22.618  44.360  14.955
45584W        W 6950  26.088  42.019  13.899
45585W        W 6951  10.276  18.144  12.416
45586W        W 6952  38.827  44.466  11.503
45587W        W 6953  31.583   5.243   1.229
45588W        W 6954  13.210  33.513  12.901
45589W        W 6955  25.486   6.700   4.198
45590W        W 6956   0.752  35.012  10.628
45591W        W 6957  26.974   2.315   4.307
45592W        W 6958  44.394  43.786  11.462
45593W        W 6959   8.688  27.098  12.407
45594W        W 6960   2.728   6.282  12.378
45595W        W 6961  31.075   6.892   0.414
45596W        W 6962  29.646  36.353   2.710
45597W        W 6963  42.403  29.575   0.303
45598W        W 6964  30.504  34.009  13.882
45599W        W 6965   0.790  37.932   0.353
45600W        W 6966  25.151  38.027   0.303
45601W        W 6967  26.191   3.373   3.721
45602W        W 6968   2.299  44.882  11.536
45603W        W 6969  41.389  13.213   1.777
45604W        W 6970  24.511  16.625  10.467
45605W        W 6971  37.875  35.061   1.857
45606W        W 6972  22.575  31.562  11.609
45607W        W 6973  26.676  22.579   4.187
45608W        W 6974  36.377  13.279   2.725
45609W        W 6975   8.763  39.486  11.884
45610W        W 6976   9.787  44.322  13.986
45611W        W 6977   7.193   4.850   0.251
45612W        W 6978  15.618  17.655   4.657
45613W        W 6979  24.196  12.124  12.877
45614W        W 6980  32.999  41.411   4.720
45615W        W 6981  12.644  11.287  12.394
45616W        W 6982   2.268  26.000   9.923
45617W        W 6983   4.715  25.530  14.414
45618W        W 6984  35.376  42.843  12.510
45619W        W 6985  33.916  15.136   1.301
45620W        W 6986  35.064  14.126  13.035
45621W        W 6987  23.997  39.874   4.719
45622W        W 6988  17.779  40.375  10.546
45623W        W 6989  35.587  15.794   0.347
45624W        W 6990  16.215  38.361   3.161
45625W        W 6991  10.747  20.117   0.249
45626W        W 6992   6.737  26.658   1.254
45627W        W 6993   2.741  26.609  14.405
45628W        W 6994  41.967  41.927  13.912
45629W        W 6995  33.429  10.719  14.830
45630W        W 6996  26.094  39.029   3.664
45631W        W 6997  28.560   6.188  13.881
45632W        W 6998  29.996   2.331  11.507
45633W        W 6999  31.097  22.104   3.745
45634W        W 7000   3.333   6.387   1.924
45635W        W 7001  29.473  41.042  14.487
45636W        W 7002  39.514  36.354   0.337
45637W        W 7003  37.010  27.009   2.206
45638W        W 7004  28.070  22.674  11.072
45639W        W 7005  26.087  43.371   1.334
45640W        W 7006  30.654  35.372  13.364
45641W        W 7007  30.114  43.889  14.286
45642W        W 7008   2.444   2.466  14.822
45643W        W 7009  37.954   8.192   0.278
45644W        W 7010  33.120  35.895  13.311
45645W        W 7011  22.668  24.687   0.355
45646W        W 7012  19.153  29.554   3.381
45647W        W 7013  31.557  22.717   1.352
45648W        W 7014   3.887  13.150   4.796
45649W        W 7015   8.895  42.813   2.183
45650W        W 7016  32.509  32.637   2.328
45651W        W 7017  35.875   0.883  14.299
45652W        W 7018  24.108  41.533   4.307
45653W        W 7019  41.462  23.126  14.391
45654W        W 7020  24.713   5.826  12.965
45655W        W 7021  32.923  25.524   0.754
45656W        W 7022   6.312   8.792   0.899
45657W        W 7023  14.618  11.663  10.946
45658W        W 7024  30.991   3.838   2.364
45659W        W 7025   4.370  34.004  14.032
45660W        W 7026  34.066  36.863  13.871
45661W        W 7027   6.801  13.299  14.444
45662W        W 7028  18.614  28.517   2.837
45663W        W 7029  43.791  23.558  11.473
45664W        W 7030  15.728  27.105  13.352
45665W        W 7031  12.162  33.431  11.965
45666W        W 7032  12.664  40.519  10.587
45667W        W 7033  15.222  43.322   3.370
45668W        W 7034  12.726   0.453   1.887
45669W        W 7035  39.979  41.844  11.551
45670W        W 7036  15.262  37.480   3.704
45671W        W 7037  12.292  23.561   3.692
45672W        W 7038   7.688  21.542   0.407
45673W        W 7039  29.541  44.863   2.868
45674W        W 7040  20.087  38.345   2.259
45675W        W 7041   9.868  21.210   3.363
45676W        W 7042  26.117  31.967   1.308
45677W        W 7043  43.807   2.863   4.624
45678W        W 7044  41.380   7.729   0.259
45679W        W 7045  28.024  28.441  11.374
45680W        W 7046  40.443  36.554  10.989
45681W        W 7047   5.729  41.453   1.373
45682W        W 7048  26.008  26.687   5.184
45683W        W 7049  30.032  15.291  11.901
45684W        W 7050  19.723  12.753  13.950
45685W        W 7051   1.961  39.919  12.545
45686W        W 7052  15.817  29.121  14.025
45687W        W 7053  11.760  14.119   3.373
45688W        W 7054  35.389  16.569  11.054
45689W        W 7055   7.769  38.004  14.017
45690W        W 7056  44.456   8.161   2.282
45691W        W 7057   0.400  42.457  13.940
45692W        W 7058  37.373  35.584  12.928
45693W        W 7059  28.502  13.335   0.382
45694W        W 7060  39.851  14.766   2.683
45695W        W 7061  19.137  15.244  12.930
45696W        W 7062  15.762  42.456   3.725
45697W        W 7063  44.823  21.573  14.465
45698W        W 7064   0.868  39.332   3.648
45699W        W 7065  37.542  42.019  14.908
45700W        W 7066  18.108  44.358   2.230
45701W        W 7067   9.865  19.623  11.464
45702W        W 7068  42.386  30.619  11.002
45703W        W 7069   2.226  40.316   3.372
45704W        W 7070  20.078  16.731   2.284
45705W        W 7071   3.755  44.804   3.695
45706W        W 7072  42.421  19.073   0.760
45707W        W 7073  41.930  27.567  10.888
45708W        W 7074   1.736  41.526  13.453
45709W        W 7075  18.723  36.457  13.359
45710W        W 7076  10.302   9.205   3.381
45711W        W 7077  12.820  12.282  12.957
45712W        W 7078  19.184  40.995  13.901
45713W        W 7079  38.478  15.121  13.333
45714W        W 7080   9.810  23.644  11.981
45715W        W 7081  13.794   0.859   4.791
45716W        W 7082  33.962  43.441  11.021
45717W        W 7083  15.650  28.662   3.642
45718W        W 7084   5.325  23.671   1.393
45719W        W 7085  25.492  19.153  11.063
45720W        W 7086  44.437   9.795  14.947
45721W        W 7087  10.825  13.754  13.505
45722W        W 7088  44.429   6.322  12.036
45723W        W 7089  18.643  15.234  13.542
45724W        W 7090  16.746  36.355   3.677
45725W        W 7091  18.216  41.477   1.350
45726W        W 7092  34.955  20.218  14.351
45727W        W 7093  40.428  16.253   0.356
45728W        W 7094  10.353  15.127  14.516
45729W        W 7095  13.207  42.385   1.713
45730W        W 7096  34.384  25.169  14.300
45731W        W 7097   1.418  18.657  13.474
45732W        W 7098  39.481  30.616   4.632
45733W        W 7099   4.920  24.987  11.425
45734W        W 7100   8.354  39.009   2.400
45735W        W 7101  10.773  37.926   4.250
45736W        W 7102  17.742  24.659   3.862
45737W        W 7103   2.921  16.280   4.630
45738W        W 7104   8.866  39.496  12.964
45739W        W 7105  14.748   2.783   3.841
45740W        W 7106  21.599  37.018   4.729
45741W        W 7107  42.453  30.437   2.769
45742W        W 7108  35.853  41.349   5.224
45743W        W 7109  43.908  34.387   0.350
45744W        W 7110  31.053  21.111   1.855
45745W        W 7111  30.049   7.797   4.638
45746W        W 7112   3.374  15.213  13.937
45747W        W 7113  36.543  10.780   2.215
45748W        W 7114  39.836  44.350  12.831
45749W        W 7115   7.354  43.985   0.294
45750W        W 7116  29.001  29.461  12.876
45751W        W 7117   3.440   7.191  11.897
45752W        W 7118  27.969  18.194  12.448
45753W        W 7119  13.309   6.245   0.811
45754W        W 7120   2.347  18.198   2.899
45755W        W 7121  10.285  33.555   2.227
45756W        W 7122  11.734  10.172   5.163
45757W        W 7123  23.650   6.726  10.541
45758W        W 7124  29.596  12.123  14.480
45759W        W 7125  35.939  23.143  14.459
45760W        W 7126  29.492  42.873  10.892
45761W        W 7127  10.177  31.548  13.450
45762W        W 7128  20.600  12.336  11.970
45763W        W 7129  18.065   1.401  10.412
45764W        W 7130  40.549  19.713  13.975
45765W        W 7131   9.694  26.470   1.780
45766W        W 7132  13.743   5.722  13.497
45767W        W 7133  28.138  19.760   0.883
45768W        W 7134  33.510  17.108  12.484
45769W        W 7135  40.497   7.705   2.679
45770W        W 7136   3.307  35.007   5.261
45771W        W 7137  37.913   6.765  12.025
45772W        W 7138   0.380  32.116  10.967
45773W        W 7139  29.955  11.742   0.839
45774W        W 7140  23.553  35.946   1.793
45775W        W 7141  37.491  44.770  13.021
45776W        W 7142   1.471   1.400   2.334
45777W        W 7143  22.212  16.745   3.807
45778W        W 7144  31.572  11.735  13.887
45779W        W 7145  21.526  27.051  10.616
45780W        W 7146  25.119  20.744  14.436
45781W        W 7147  16.282   0.795   4.699
45782W        W 7148  35.391  34.032   2.888
45783W        W 7149  13.264  24.583   1.915
45784W        W 7150   8.303  38.471  12.893
45785W        W 7151  27.605  17.631  14.498
45786W        W 7152  12.623  35.368  13.034
45787W        W 7153  28.559  36.421  14.989
45788W        W 7154   3.873   0.871   3.720
45789W        W 7155  23.021   1.848   4.709
45790W        W 7156   9.284  41.369   1.832
45791W        W 7157  20.640  44.272  13.917
45792W        W 7158  19.152  24.090  12.974
45793W        W 7159  43.444  29.534   3.167
45794W        W 7160  38.485  35.065  11.453
45795W        W 7161  23.144  11.741   1.337
45796W        W 7162  42.294  25.005   3.637
45797W        W 7163   7.293  34.559   0.841
45798W        W 7164   8.395  21.659  13.868
45799W        W 7165  38.961   4.887   1.869
45800W        W 7166  16.200  44.889  11.896
45801W        W 7167  16.267  27.052  11.532
45802W        W 7168  18.782  36.587   3.695
45803W        W 7169  44.284   6.303  13.358
45804W        W 7170  26.474  27.527  13.472
45805W        W 7171  14.174  37.347  14.352
45806W        W 7172  38.356  19.646  12.431
45807W        W 7173  44.786   4.819   2.318
45808W        W 7174  18.782  35.982  11.518
45809W        W 7175  10.140  20.544  12.468
45810W        W 7176  39.487  40.333   4.625
45811W        W 7177   2.322  27.181   3.772
45812W        W 7178  39.028  23.011   1.253
45813W        W 7179  25.085  25.579  13.433
45814W        W 7180  32.927  36.087   2.803
45815W        W 7181   0.826  38.961   3.212
45816W        W 7182  34.929   6.710  13.817
45817W        W 7183  40.807  29.988  14.961
45818W        W 7184  11.158  25.138   4.782
45819W        W 7185  37.046   8.872  14.513
45820W        W 7186  27.507  14.284  12.408
45821W        W 7187  11.865  43.359   4.282
45822W        W 7188  34.012  42.453  10.538
45823W        W 7189  17.230  20.668  13.000
45824W        W 7190   7.739  11.195   0.814
45825W        W 7191  30.493  12.276   1.894
45826W        W 7192  33.548  30.956   2.676
45827W        W 7193  25.679  24.229   4.794
45828W        W 7194   6.855  17.689  11.119
45829W        W 7195   2.948  10.640   2.685
45830W        W 7196  34.516  31.550  13.314
45831W        W 7197  10.270  12.266   3.180
45832W        W 7198   3.848  22.201  12.076
45833W        W 7199  36.364  26.015  14.373
45834W        W 7200   4.743  39.812   3.731
45835W        W 7201  36.395  30.485   3.379
45836W        W 7202  12.313  21.081   3.382
45837W        W 7203  43.810  43.416  10.528
45838W        W 7204  44.466   9.707   2.817
45839W        W 7205   9.766   1.832  13.324
45840W        W 7206  24.569   8.167  10.571
45841W        W 7207   0.869  44.310   1.300
45842W        W 7208   0.784  40.303  13.340
45843W        W 7209   0.892  40.977   1.313
45844W        W 7210  12.686  29.639  14.868
45845W        W 7211  19.667   6.866   1.399
45846W        W 7212  19.649  34.372  12.901
45847W        W 7213  38.531  39.421   1.439
45848W        W 7214  11.795   7.701  12.823
45849W        W 7215  32.438  23.189   4.755
45850W        W 7216  12.296  14.338  12.030
45851W        W 7217  12.847  11.143  14.846
45852W        W 7218   8.760  22.108   0.356
45853W        W 7219  10.347  40.376   0.810
45854W        W 7220  18.778   6.340   4.343
45855W        W 7221  38.005  42.875  11.880
45856W        W 7222  29.584  11.279  12.496
45857W        W 7223  22.581  37.963  13.822
45858W        W 7224  31.064  12.741  13.316
45859W        W 7225  28.497   1.338  10.407
45860W        W 7226  35.536  20.107  10.573
45861W        W 7227   7.812  31.954  10.521
45862W        W 7228  10.807  21.592   4.688
45863W        W 7229  26.172  29.459   3.154
45864W        W 7230   0.970  29.470   2.387
45865W        W 7231  36.521  36.914   1.284
45866W        W 7232   3.324  35.427   0.302
45867W        W 7233   8.285  36.479   4.721
45868W        W 7234  32.922  28.979   3.147
45869W        W 7235  22.142   2.229  12.927
45870W        W 7236   6.207   8.778  13.854
45871W        W 7237  27.071  32.999  14.393
45872W        W 7238  23.632  24.077   3.845
45873W        W 7239  16.283  31.607  11.445
45874W        W 7240  43.347  30.486  13.875
45875W        W 7241   9.362  34.378  11.587
45876W        W 7242   6.219  28.087  11.047
45877W        W 7243  42.383  32.097  11.861
45878W        W 7244  12.843  27.620   3.763
45879W        W 7245  25.962  44.010   1.794
45880W        W 7246  28.977   4.383  12.844
45881W        W 7247  20.635   2.373  10.634
45882W        W 7248  36.377  11.369  13.518
45883W        W 7249  19.279  29.108  14.367
45884W        W 7250  27.985  40.399  14.910
45885W        W 7251  17.775  19.252  11.481
45886W        W 7252  10.725  21.127  10.051
45887W        W 7253   5.817   2.934   5.627
45888W        W 7254  20.536  33.528  13.889
45889W        W 7255   1.251  13.264   1.319
45890W        W 7256  18.593  39.857   5.219
45891W        W 7257  22.701  18.676  13.793
45892W        W 7258   7.912  26.530   4.784
45893W        W 7259  22.598  16.734  12.958
45894W        W 7260  18.546  42.500  14.837
45895W        W 7261  30.412   3.761  13.891
45896W        W 7262   2.951  37.358   2.180
45897W        W 7263   3.316  31.897  14.285
45898W        W 7264  39.857  12.162  11.098
45899W        W 7265  41.843  25.179   4.829
45900W        W 7266  26.042  11.705   2.221
45901W        W 7267   4.815  36.998  10.945
45902W        W 7268  33.512   7.344   1.839
45903W        W 7269  39.421  15.819   3.845
45904W        W 7270  30.056  32.022  14.332
45905W        W 7271  22.997  15.124  11.945
45906W        W 7272  18.700  35.079  12.377
45907W        W 7273  13.666  33.526  11.475
45908W        W 7274  40.486  31.934   4.226
45909W        W 7275  35.550  42.818   5.642
45910W        W 7276   5.832   7.198  11.949
45911W        W 7277  36.027   9.190  13.908
45912W        W 7278   3.820  43.282  12.501
45913W        W 7279  36.992  14.666  11.871
45914W        W 7280   2.341  11.156   2.751
45915W        W 7281  10.192  28.440  10.984
45916W        W 7282  12.689  24.531  14.952
45917W        W 7283  42.980   1.364  13.791
45918W        W 7284  39.843  29.014   2.217
45919W        W 7285  43.411  20.256   3.870
45920W        W 7286  30.042  21.253   5.104
45921W        W 7287  14.264   4.892   4.653
45922W        W 7288  23.130  11.810  12.575
45923W        W 7289  30.082  17.662  13.391
45924W        W 7290  30.098  14.808  14.981
45925W        W 7291  44.311  10.219   4.292
45926W        W 7292   2.404  19.575   3.865
45927W        W 7293  39.551   7.733   3.724
45928W        W 7294   2.891   9.779  12.080
45929W        W 7295   5.432   4.810  12.570
45930W        W 7296   3.249  39.889   2.866
45931W        W 7297  17.274  38.943  13.038
45932W        W 7298  23.565  38.467  13.336
45933W        W 7299  10.667  38.421   0.925
45934W        W 7300  44.849  25.603  14.916
45935W        W 7301   3.255   8.235  11.858
45936W        W 7302  16.751  24.096   3.739
45937W        W 7303  37.413  33.591   3.212
45938W        W 7304  19.713  21.250   1.278
45939W        W 7305  43.437   4.805  14.988
45940W        W 7306  16.651  11.780  14.863
45941W        W 7307  26.994   7.789   3.355
45942W        W 7308  20.080  35.912   2.277
45943W        W 7309  39.989  12.309  14.761
45944W        W 7310  36.505  21.182  10.125
45945W        W 7311  16.187  28.180   2.385
45946W        W 7312   5.354   8.694  13.465
45947W        W 7313   5.428   0.794   3.170
45948W        W 7314  25.607  20.230  12.577
45949W        W 7315  28.093  16.224  12.544
45950W        W 7316   1.240   2.932  12.858
45951W        W 7317  18.197   4.890   1.239
45952W        W 7318  35.863   4.785   3.696
45953W        W 7319  12.820  42.030  11.539
45954W        W 7320  41.304   2.837  10.568
45955W        W 7321  10.274  23.055   1.735
45956W        W 7322  11.623  16.750   2.867
45957W        W 7323  33.469  44.901  10.492
45958W        W 7324  13.172   4.408   2.368
45959W        W 7325   3.237  16.681  13.899
45960W        W 7326  18.254  40.496  11.527
45961W        W 7327   6.814  36.451  14.881
45962W        W 7328   3.898   3.292  10.624
45963W        W 7329   4.349  13.271   1.371
45964W        W 7330  13.322  34.605   1.893
45965W        W 7331  42.971   9.265  14.824
45966W        W 7332  24.725   7.257  10.457
45967W        W 7333  33.552   1.841  11.512
45968W        W 7334  37.023  39.849   3.267
45969W        W 7335  27.058  35.965   4.290
45970W        W 7336  29.627  37.047   2.402
45971W        W 7337  10.689  37.582   2.761
45972W        W 7338   5.775  12.254  12.457
45973W        W 7339  37.982  44.870  12.393
45974W        W 7340  18.056  14.173  14.896
45975W        W 7341  24.209   7.861  11.442
45976W        W 7342  15.762   8.253  13.798
45977W        W 7343  43.342  12.122   0.815
45978W        W 7344  34.883   5.208   2.749
45979W        W 7345   6.306  34.960  11.571
45980W        W 7346  42.389  17.201  11.977
45981W        W 7347  41.792  28.104  14.864
45982W        W 7348   3.338  10.636   2.232
45983W        W 7349   7.861  35.067  14.985
45984W        W 7350   0.283  21.586  13.793
45985W        W 7351  18.246  43.783   0.416
45986W        W 7352  34.520  23.561  13.364
45987W        W 7353   7.308  38.015   3.246
45988W        W 7354  25.012  40.054  13.888
45989W        W 7355  34.892  21.615   0.877
45990W        W 7356  19.728   8.237   4.239
45991W        W 7357  29.938  40.961  13.973
45992W        W 7358   7.254   6.903   3.820
45993W        W 7359  33.447  14.279  12.382
45994W        W 7360  18.267  44.855  10.965
45995W        W 7361  44.868  16.201  11.995
45996W        W 7362  33.607  10.337  14.973
45997W        W 7363   3.274  21.653   0.282
45998W        W 7364  15.165  44.346   2.765
45999W        W 7365  27.655  22.689  13.356
46000W        W 7366  25.062  38.385   1.873
46001W        W 7367  29.493  31.050   1.872
46002W        W 7368  27.116  29.588   4.165
46003W        W 7369   4.258   2.895   3.152
46004W        W 7370  36.089  38.021   2.277
46005W        W 7371  10.683   4.260  13.899
46006W        W 7372  27.530  39.556  13.530
46007W        W 7373   3.874  44.265   1.349
46008W        W 7374  16.114  17.659   2.671
46009W        W 7375  34.384   0.939   0.477
46010W        W 7376  28.105  33.015  12.550
46011W        W 7377  10.186   6.274  12.981
46012W        W 7378   5.814  17.203  10.551
46013W        W 7379  22.134  37.895   4.307
46014W        W 7380  31.553  24.657   1.905
46015W        W 7381  44.866  37.550  11.438
46016W        W 7382   6.352   9.200  13.473
46017W        W 7383  18.758  34.410  14.296
46018W        W 7384  15.146  43.932   3.807
46019W        W 7385  22.179  38.006  13.861
46020W        W 7386  28.521  44.895  10.937
46021W        W 7387   1.850   9.803  14.941
46022W        W 7388  11.290  23.193   0.947
46023W        W 7389  32.405  38.390   0.272
46024W        W 7390   5.424  43.774  12.459
46025W        W 7391   6.216  40.829  12.386
46026W        W 7392  11.278  14.106  14.024
46027W        W 7393  14.127  41.292   4.137
46028W        W 7394  29.555  23.157  10.437
46029W        W 7395   2.729   3.428   3.781
46030W        W 7396  15.294  13.245   2.359
46031W        W 7397  26.997   8.748   4.650
46032W        W 7398  39.364  41.458   3.226
46033W        W 7399  10.216   9.690   0.311
46034W        W 7400   9.826  24.041   2.817
46035W        W 7401  15.248  37.384  14.763
46036W        W 7402  39.868  38.434   0.436
46037W        W 7403  29.957  27.966   1.903
46038W        W 7404  41.029  23.493   2.896
46039W        W 7405   7.683  28.588   4.648
46040W        W 7406   4.802  38.989  12.450
46041W        W 7407   1.432  24.591   1.255
46042W        W 7408  33.516  15.103  14.786
46043W        W 7409  33.528  37.400  10.453
46044W        W 7410  41.982  22.117   1.929
46045W        W 7411  16.232  26.646   0.427
46046W        W 7412  35.874  12.211   1.222
46047W        W 7413  28.525  34.571   4.327
46048W        W 7414  33.476  39.434   4.192
46049W        W 7415  22.716   3.237   2.853
46050W        W 7416  28.560  31.925   0.424
46051W        W 7417  29.126  39.857  13.820
46052W        W 7418  37.461  37.420  12.499
46053W        W 7419  21.606  38.481  13.525
46054W        W 7420  43.448  43.504  14.387
46055W        W 7421   5.389  12.169  10.574
46056W        W 7422  37.518  39.409   3.844
46057W        W 7423  29.162   0.821  13.972
46058W        W 7424   7.682  32.570   1.923
46059W        W 7425   0.352  36.525  10.625
46060W        W 7426  16.085  38.916   2.379
46061W        W 7427  17.220  19.776  10.493
46062W        W 7428  20.210  12.733   2.188
46063W        W 7429   5.392  42.958  14.872
46064W        W 7430  20.196  19.534   3.296
46065W        W 7431  37.841   3.858   1.376
46066W        W 7432  41.922   4.854   2.252
46067W        W 7433   5.895  15.118   2.252
46068W        W 7434  24.618   3.409  14.336
46069W        W 7435  20.153  44.341   2.691
46070W        W 7436  31.945   6.284  13.368
46071W        W 7437  10.206  25.104  12.006
46072W        W 7438  36.408  28.449  10.431
46073W        W 7439  38.987  30.936   4.668
46074W        W 7440   6.195  42.932  11.441
46075W        W 7441  11.305  42.995  14.330
46076W        W 7442  11.360   0.351  11.001
46077W        W 7443  43.384   6.360   3.330
46078W        W 7444   9.202  28.941  12.519
46079W        W 7445  22.607  13.600   2.298
46080W        W 7446  31.439  39.879  13.389
46081W        W 7447  30.086  19.261   0.806
46082W        W 7448  29.483  38.049  13.041
46083W        W 7449  11.637  18.689   1.301
46084W        W 7450  29.924   0.295  11.099
46085W        W 7451   0.819  27.488   2.811
46086W        W 7452  40.917  21.606   4.803
46087W        W 7453  43.438  21.077  13.846
46088W        W 7454  33.008  10.216  13.807
46089W        W 7455  39.823  38.338   0.786
46090W        W 7456   9.827  21.120  12.950
46091W        W 7457  13.209  28.120  14.772
46092W        W 7458  17.569  13.825   2.280
46093W        W 7459  19.271   1.282  11.047
46094W        W 7460  26.569  43.300   2.731
46095W        W 7461   5.778  22.695   2.891
46096W        W 7462  14.680  36.849  14.471
46097W        W 7463  32.561  42.868  12.015
46098W        W 7464  21.668  15.327  14.948
46099W        W 7465   6.755  28.476   3.215
46100W        W 7466  15.176  22.014   4.320
46101W        W 7467  40.389  18.291  11.982
46102W        W 7468  21.638  28.979   4.241
46103W        W 7469  29.489  19.275  10.641
46104W        W 7470  33.992  13.287  14.290
46105W        W 7471  43.004   2.744  14.003
46106W        W 7472  18.678   1.886  14.457
46107W        W 7473  39.958  12.319  13.825
46108W        W 7474  13.640  31.480   9.561
46109W        W 7475  10.784  10.741  11.968
46110W        W 7476  26.585  44.761  14.962
46111W        W 7477  15.260  17.742  13.544
46112W        W 7478   4.362  35.497   0.832
46113W        W 7479  38.037  41.962   0.309
46114W        W 7480  42.329   8.824  11.562
46115W        W 7481  25.656  29.970  12.486
46116W        W 7482  13.618  37.479  13.329
46117W        W 7483  27.670  44.365   4.305
46118W        W 7484  13.737  15.620  14.829
46119W        W 7485  23.137  36.573  11.077
46120W        W 7486  34.565  43.870   3.344
46121W        W 7487   1.818  33.128   4.682
46122W        W 7488  36.895  42.882   2.233
46123W        W 7489  41.964   5.369  11.103
46124W        W 7490  39.354  32.889   3.239
46125W        W 7491  38.074   8.258  14.991
46126W        W 7492   8.169   4.270  13.969
46127W        W 7493  43.821  38.567  13.389
46128W        W 7494  13.221  19.695  11.434
46129W        W 7495  28.591  12.683  10.638
46130W        W 7496  23.018  21.556  11.887
46131W        W 7497  16.587  22.685   0.442
46132W        W 7498  28.157  44.935  13.332
46133W        W 7499  34.038  15.799  13.833
46134W        W 7500  42.385   8.357  14.933
46135W        W 7501  24.059  44.773  10.473
46136W        W 7502  21.246  30.640   3.851
46137W        W 7503  13.650  44.353  11.935
46138W        W 7504  44.813  20.566  12.509
46139W        W 7505  43.006  38.844  11.435
46140W        W 7506  10.232   7.775   1.451
46141W        W 7507   8.687  35.574   0.389
46142W        W 7508  36.095  36.994   0.742
46143W        W 7509  23.619  43.769   0.305
46144W        W 7510  42.014  25.643   3.200
46145W        W 7511  30.984   6.251   2.388
46146W        W 7512  29.497  38.400   4.608
46147W        W 7513  25.571  32.062  12.081
46148W        W 7514  44.416  20.151  12.351
46149W        W 7515  19.110  11.761   2.715
46150W        W 7516  22.543  11.242   0.833
46151W        W 7517  33.553  33.387   3.840
46152W        W 7518   2.924  25.662   3.352
46153W        W 7519   0.410  25.694  10.921
46154W        W 7520  38.359  28.591  10.570
46155W        W 7521  30.144  21.612   2.812
46156W        W 7522  43.335  42.451  13.992
46157W        W 7523  35.044  13.725   1.337
46158W        W 7524  37.936   9.369  10.910
46159W        W 7525   4.228  31.570  12.450
46160W        W 7526  44.776  11.864   3.658
46161W        W 7527   8.868  22.136  11.590
46162W        W 7528  41.983  24.983   1.710
46163W        W 7529  20.037   4.307  14.831
46164W        W 7530  34.991   6.795   4.791
46165W        W 7531  29.111   4.319  11.435
46166W        W 7532   1.739  24.618  10.480
46167W        W 7533  36.886  22.525  13.466
46168W        W 7534  22.138  38.385   0.880
46169W        W 7535  29.170   6.401  14.329
46170W        W 7536  17.276  41.879  10.586
46171W        W 7537  33.900  38.386   3.630
46172W        W 7538  38.887  44.343   5.226
46173W        W 7539  34.941   6.913   1.859
46174W        W 7540  10.294  35.960  10.642
46175W        W 7541  13.826   4.861   2.363
46176W        W 7542  19.737  33.893  10.966
46177W        W 7543  27.454  25.709  12.927
46178W        W 7544   1.307  19.710  12.047
46179W        W 7545   8.174  41.489  11.383
46180W        W 7546  32.615  32.420  13.332
46181W        W 7547   6.843  17.703   5.090
46182W        W 7548  28.045  39.372  12.000
46183W        W 7549  25.482  28.967   0.914
46184W        W 7550  24.661  18.243  13.383
46185W        W 7551   6.822  12.739  14.857
46186W        W 7552   1.933  37.569   1.723
46187W        W 7553   5.912   9.712   0.795
46188W        W 7554  20.603  27.476  13.375
46189W        W 7555  18.643  41.989   3.283
46190W        W 7556  34.405  14.735  14.871
46191W        W 7557  33.573   5.747  14.981
46192W        W 7558  38.527  13.824   1.772
46193W        W 7559   2.862  33.993  11.407
46194W        W 7560  34.402  25.510  12.928
46195W        W 7561  33.551  44.480  10.996
46196W        W 7562  29.040  27.117  12.354
46197W        W 7563  34.487  19.587  11.078
46198W        W 7564   1.245  36.367  11.437
46199W        W 7565  36.870   3.415  12.482
46200W        W 7566  42.464  10.830   2.688
46201W        W 7567  30.969   5.222  14.880
46202W        W 7568  31.621   4.839  13.883
46203W        W 7569  33.564  22.128  11.556
46204W        W 7570  13.235  36.478  13.530
46205W        W 7571  44.300  40.848  11.393
46206W        W 7572   3.288  30.659  12.470
46207W        W 7573   8.315  10.643   3.146
46208W        W 7574  26.027  22.090  13.835
46209W        W 7575  23.004  32.905  12.413
46210W        W 7576  41.804  38.480  10.619
46211W        W 7577  33.884  39.519  12.945
46212W        W 7578  17.103  12.781   3.728
46213W        W 7579  40.315  41.802   2.757
46214W        W 7580   3.246  42.799   4.635
46215W        W 7581  21.216   1.763   1.899
46216W        W 7582  32.422  15.636  12.931
46217W        W 7583  16.687  24.593   4.177
46218W        W 7584  32.585  36.077  10.479
46219W        W 7585  30.466  30.631  14.382
46220W        W 7586  35.865  20.667   4.334
46221W        W 7587   5.825  20.561   4.237
46222W        W 7588  11.718  10.311   1.374
46223W        W 7589  38.547  42.379  14.961
46224W        W 7590  15.243  10.654  13.512
46225W        W 7591   9.326   1.459   4.302
46226W        W 7592  16.599  26.463   1.853
46227W        W 7593   7.185  32.980  11.956
46228W        W 7594  15.190  25.525  10.948
46229W        W 7595  24.720  12.138   4.675
46230W        W 7596  38.822  23.004  14.355
46231W        W 7597  36.884  27.474   4.688
46232W        W 7598  42.382  14.174  11.562
46233W        W 7599   3.757  26.480  13.526
46234W        W 7600  15.585  16.230  13.985
46235W        W 7601  15.736   4.213  12.359
46236W        W 7602  16.684  41.986  11.990
46237W        W 7603   7.778   6.422   2.350
46238W        W 7604  10.231   9.379   2.218
46239W        W 7605  29.496  19.610  12.018
46240W        W 7606   2.780  22.709   4.798
46241W        W 7607  34.106  34.596  11.549
46242W        W 7608  31.965  25.057  12.533
46243W        W 7609  10.369  24.056   1.406
46244W        W 7610   5.722  37.406  14.418
46245W        W 7611  41.442   1.280   4.767
46246W        W 7612   5.320  26.508   3.346
46247W        W 7613  34.993  28.064  14.313
46248W        W 7614  36.912   4.911   4.265
46249W        W 7615  34.016  38.395  10.122
46250W        W 7616   7.857  42.296  13.392
46251W        W 7617  12.276  14.151   4.266
46252W        W 7618  20.760  32.444   3.839
46253W        W 7619  10.298   6.881   4.660
46254W        W 7620  21.556  30.153   4.657
46255W        W 7621   6.353  19.694  11.901
46256W        W 7622  37.883  23.998  10.533
46257W        W 7623  39.365  15.815   1.270
46258W        W 7624  10.264  44.973  12.353
46259W        W 7625  35.418  12.828   1.926
46260W        W 7626  33.091  11.304   1.901
46261W        W 7627   2.466  28.985  12.366
46262W        W 7628  18.087  41.450   3.208
46263W        W 7629  10.689  33.916  13.864
46264W        W 7630  33.115  33.505   1.439
46265W        W 7631  20.135  31.897  12.998
46266W        W 7632  26.701  13.723  13.382
46267W        W 7633  15.713  43.494   1.352
46268W        W 7634  12.690  21.732  13.459
46269W        W 7635  16.596  43.011   2.286
46270W        W 7636  13.796   1.897  11.425
46271W        W 7637  22.089  38.335   2.414
46272W        W 7638  24.484  16.609  14.759
46273W        W 7639  23.536  32.889   2.680
46274W        W 7640   7.667  16.784   4.609
46275W        W 7641  22.539  12.217   2.274
46276W        W 7642  41.026  30.431  14.405
46277W        W 7643  24.202  10.264  11.463
46278W        W 7644  28.646  21.640  14.984
46279W        W 7645  20.170  25.696   4.280
46280W        W 7646  39.315  19.722  14.861
46281W        W 7647   0.855  23.229   2.370
46282W        W 7648  10.694  24.715   2.878
46283W        W 7649  38.914  10.215  14.444
46284W        W 7650  24.623  30.946  11.072
46285W        W 7651  44.904  15.679   3.305
46286W        W 7652  29.081   9.261  12.014
46287W        W 7653   8.255  21.628  12.824
46288W        W 7654  33.911   7.171  14.017
46289W        W 7655  31.964  36.540  12.529
46290W        W 7656  33.466   4.376   0.922
46291W        W 7657  31.552  39.376   0.418
46292W        W 7658  36.417  16.775   2.241
46293W        W 7659  20.228   9.174   3.754
46294W        W 7660  30.037  43.415  11.556
46295W        W 7661   7.259  19.225   0.435
46296W        W 7662   8.257  29.048   1.885
46297W        W 7663   1.957  37.489   0.315
46298W        W 7664  41.966  38.010  11.373
46299W        W 7665  19.167  39.416   3.644
46300W        W 7666  14.637  17.660   2.757
46301W        W 7667  22.056  38.396   4.316
46302W        W 7668  38.832  42.326  11.597
46303W        W 7669   7.326  13.299   2.186
46304W        W 7670  26.499  35.591  11.391
46305W        W 7671  20.692  15.589   3.308
46306W        W 7672  32.466   9.678   2.777
46307W        W 7673  20.109   7.910  14.906
46308W        W 7674  40.812  23.659   2.183
46309W        W 7675  22.068  43.940   4.257
46310W        W 7676   7.269   9.870  14.396
46311W        W 7677  40.954  34.013   2.697
46312W        W 7678  21.258   9.680  14.769
46313W        W 7679  23.655  24.212  11.950
46314W        W 7680  14.280  42.358  13.948
46315W        W 7681  21.635  17.116  13.319
46316W        W 7682  43.515  24.013  11.863
46317W        W 7683   6.360  31.425  12.419
46318W        W 7684  29.590  30.464   3.631
46319W        W 7685  16.794   6.324  13.022
46320W        W 7686  33.419   5.773  13.497
46321W        W 7687  30.414  11.357  14.314
46322W        W 7688   6.353   8.181  11.860
46323W        W 7689  28.588   7.232  14.326
46324W        W 7690  36.381  28.010  12.378
46325W        W 7691  38.909   5.862  11.121
46326W        W 7692  10.801   5.780  11.462
46327W        W 7693  25.625   1.945   3.235
46328W        W 7694  25.623  32.608   0.479
46329W        W 7695  13.105  34.547   2.180
46330W        W 7696  31.100  39.403   3.644
46331W        W 7697  43.958  20.073   0.270
46332W        W 7698  14.173  23.667   1.904
46333W        W 7699  18.603  14.147   0.350
46334W        W 7700  21.050  12.711   3.336
46335W        W 7701  37.928  38.384   3.298
46336W        W 7702  25.104  21.690   2.663
46337W        W 7703  14.223  16.747  10.976
46338W        W 7704   5.423  10.770   4.350
46339W        W 7705   1.403   6.266  14.015
46340W        W 7706   1.350  37.887   0.344
46341W        W 7707  27.521  11.796   2.371
46342W        W 7708   3.836   9.390   3.378
46343W        W 7709  24.689   7.347  14.843
46344W        W 7710  20.066  24.977  10.898
46345W        W 7711  30.614  36.866  14.380
46346W        W 7712  31.019   4.808   1.809
46347W        W 7713  42.394  41.415  11.461
46348W        W 7714   7.912  44.930   1.859
46349W        W 7715  34.106  38.012  14.003
46350W        W 7716  10.343  21.177   0.412
46351W        W 7717  33.457   4.829   5.100
46352W        W 7718  39.002  35.511  14.344
46353W        W 7719   1.843  39.012  11.598
46354W        W 7720  30.590  12.739   2.342
46355W        W 7721  18.746   0.943   4.301
46356W        W 7722  39.355  29.644  10.926
46357W        W 7723  19.730  33.539   2.397
46358W        W 7724  11.660   7.335  13.979
46359W        W 7725  25.147  12.177   1.270
46360W        W 7726  12.183  28.936  14.813
46361W        W 7727  28.167  38.498   1.841
46362W        W 7728   2.244   9.325   0.352
46363W        W 7729  16.641  31.610  12.055
46364W        W 7730  12.214  26.588  14.988
46365W        W 7731  17.117  33.078  10.040
46366W        W 7732  30.096  15.764   2.798
46367W        W 7733  40.443  43.820   4.115
46368W        W 7734   8.319  14.604  10.456
46369W        W 7735  29.108  20.662   0.813
46370W        W 7736   5.356  40.376  10.444
46371W        W 7737  14.158  26.670  10.959
46372W        W 7738   6.312   1.424  12.506
46373W        W 7739  44.386  44.999   2.333
46374W        W 7740  18.213  22.246   0.911
46375W        W 7741  21.052  41.500   4.737
46376W        W 7742  25.971   2.408  14.789
46377W        W 7743   6.203  44.297   0.879
46378W        W 7744  39.000  31.931   4.165
46379W        W 7745  10.715  26.646   3.635
46380W        W 7746   3.413  41.459  14.409
46381W        W 7747  20.183  20.109  10.503
46382W        W 7748  28.501  15.106  11.047
46383W        W 7749  13.612  15.666   0.419
46384W        W 7750  39.544  23.539   0.361
46385W        W 7751   5.845  42.438   2.375
46386W        W 7752   3.355  40.973  13.487
46387W        W 7753  40.018  32.483   1.433
46388W        W 7754   4.236  19.761   3.164
46389W        W 7755  43.781   9.319   1.260
46390W        W 7756   3.900  29.658   0.359
46391W        W 7757  19.256  36.938  11.078
46392W        W 7758  12.177  14.752   2.381
46393W        W 7759  24.496   4.923  13.454
46394W        W 7760   0.377  26.558   1.411
46395W        W 7761   9.214  44.882   0.904
46396W        W 7762  28.076  41.452   3.756
46397W        W 7763   4.328  20.173   1.369
46398W        W 7764   8.865  34.029  14.029
46399W        W 7765  40.502  40.798  12.400
46400W        W 7766  33.499  41.921   2.366
46401W        W 7767  17.636  39.458  13.346
46402W        W 7768  18.124  21.678  14.849
46403W        W 7769  19.266  23.119  12.462
46404W        W 7770  39.912  38.377  14.429
46405W        W 7771   8.201  32.907   1.244
46406W        W 7772  37.395   2.894  14.816
46407W        W 7773  21.071  32.444  14.304
46408W        W 7774   2.879  10.196  11.558
46409W        W 7775   2.857   6.778   0.883
46410W        W 7776  33.522  20.150   2.778
46411W        W 7777   5.249  36.098   0.894
46412W        W 7778  14.127  30.949   4.822
46413W        W 7779  28.447  27.475  12.501
46414W        W 7780  11.734  34.520  11.967
46415W        W 7781  37.401  14.308   3.677
46416W        W 7782  43.767  30.147   4.621
46417W        W 7783  10.224  32.888  12.095
46418W        W 7784  31.138  43.952  14.440
46419W        W 7785   1.406  24.514   4.772
46420W        W 7786  14.169  21.130  12.508
46421W        W 7787  16.259  37.982   1.314
46422W        W 7788  19.206  31.072  14.938
46423W        W 7789  14.741  36.430  13.031
46424W        W 7790  13.690  29.590   3.252
46425W        W 7791  41.902   7.261  11.517
46426W        W 7792  37.573  15.713  10.591
46427W        W 7793   0.862  36.909   2.323
46428W        W 7794  26.187  34.502   0.405
46429W        W 7795   6.283   6.308   5.254
46430W        W 7796  14.607   5.817   4.302
46431W        W 7797  16.315   9.280  12.531
46432W        W 7798  43.296   3.299  12.904
46433W        W 7799  26.106  37.975   2.864
46434W        W 7800   2.262   3.942  10.489
46435W        W 7801  40.426  30.415  14.343
46436W        W 7802  42.890  36.087  13.474
46437W        W 7803   0.974  16.203   3.367
46438W        W 7804  15.137  22.731   2.288
46439W        W 7805  38.014  27.083   2.682
46440W        W 7806  25.049  33.423  13.019
46441W        W 7807  10.830  22.539   0.774
46442W        W 7808   9.330  13.253   0.450
46443W        W 7809   9.312  44.468  12.021
46444W        W 7810  19.225  43.021   2.178
46445W        W 7811  29.494  18.637  13.392
46446W        W 7812  42.459  35.975   1.742
46447W        W 7813  19.696   0.262   9.933
46448W        W 7814   3.460   4.279  11.965
46449W        W 7815   4.337  27.107   1.913
46450W        W 7816  22.253  17.670  10.616
46451W        W 7817  35.062   0.955   4.240
46452W        W 7818  26.633   4.922  14.919
46453W        W 7819  28.497  31.063  13.342
46454W        W 7820  24.135   3.392  11.859
46455W        W 7821  36.575   9.882   0.799
46456W        W 7822  19.157  35.564   2.228
46457W        W 7823  39.496   7.182  12.047
46458W        W 7824  17.197  17.297  13.922
46459W        W 7825  23.736  34.001   4.282
46460W        W 7826  44.480  34.923  14.445
46461W        W 7827   5.429  31.088   3.700
46462W        W 7828  44.948  14.660   2.763
46463W        W 7829  33.078  34.605  13.522
46464W        W 7830  42.978   1.941   2.318
46465W        W 7831  13.744  37.082  12.414
46466W        W 7832  37.993  38.544   1.352
46467W        W 7833   7.309   5.748   1.279
46468W        W 7834  18.639  43.499   4.629
46469W        W 7835  11.365  13.688   2.397
46470W        W 7836  27.470  41.992  11.919
46471W        W 7837   4.741  14.253  12.487
46472W        W 7838  22.576  36.570  13.013
46473W        W 7839  33.969   1.942   1.876
46474W        W 7840  13.635  26.093  10.906
46475W        W 7841  13.677  20.635   0.838
46476W        W 7842  28.678  11.256  13.001
46477W        W 7843  17.660  16.082  13.996
46478W        W 7844  15.114   6.869   2.381
46479W        W 7845  13.784  31.102  14.919
46480W        W 7846   1.435   0.894   2.893
46481W        W 7847  29.596  26.991  11.447
46482W        W 7848   5.783   5.255   4.779
46483W        W 7849  19.166  26.499   4.181
46484W        W 7850  25.015  15.186   4.829
46485W        W 7851  41.361  15.767  13.866
46486W        W 7852   5.270   5.344  11.940
46487W        W 7853   5.193  22.541  14.916
46488W        W 7854  23.145   9.392  14.979
46489W        W 7855  24.148  15.679   2.898
46490W        W 7856  17.135   4.886  13.846
46491W        W 7857  14.337  16.708  10.468
46492W        W 7858  24.183  29.443   1.710
46493W        W 7859  30.117  15.781   1.242
46494W        W 7860  25.548  13.784  11.900
46495W        W 7861   4.420  24.633   1.737
46496W        W 7862  20.270  39.376   1.740
46497W        W 7863  15.629  42.806   4.628
46498W        W 7864  34.091   8.194  12.568
46499W        W 7865  19.549  16.600   0.477
46500W        W 7866  26.017  37.410   4.706
46501W        W 7867  24.012  22.151  11.921
46502W        W 7868  44.939   3.737   4.678
46503W        W 7869   4.233  36.478   2.339
46504W        W 7870  19.603  38.373  11.886
46505W        W 7871  35.916  12.625   2.229
46506W        W 7872  32.927  33.900  13.989
46507W        W 7873  44.906  35.068  11.009
46508W        W 7874   0.302   6.271   4.770
46509W        W 7875  30.536  33.034   1.929
46510W        W 7876  36.965  37.421  11.514
46511W        W 7877  18.146  38.046  13.989
46512W        W 7878  19.650  23.637   2.389
46513W        W 7879  42.348  16.111   3.697
46514W        W 7880  30.565  20.178  12.843
46515W        W 7881  21.568  24.645   2.334
46516W        W 7882  39.343   6.318   9.957
46517W        W 7883   6.855  10.845  10.491
46518W        W 7884  19.203  24.696   1.702
46519W        W 7885  41.303  41.861  14.435
46520W        W 7886  44.388   3.731   0.878
46521W        W 7887  43.912  28.997  12.430
46522W        W 7888  16.096  18.273   0.962
46523W        W 7889  34.546  38.418  11.081
46524W        W 7890  21.040  44.382   2.894
46525W        W 7891  38.959   9.226   0.477
46526W        W 7892  20.540  10.231  14.005
46527W        W 7893   7.703   1.909  10.436
46528W        W 7894  21.559  35.104  11.373
46529W        W 7895  30.623   8.728   0.887
46530W        W 7896   8.840  15.594  12.834
46531W        W 7897  30.056   2.964  13.430
46532W        W 7898  44.496  22.540   0.382
46533W        W 7899  40.461  23.084  12.979
46534W        W 7900  32.628  17.721   3.821
46535W        W 7901  34.921  19.070   2.797
46536W        W 7902   2.276   6.202  10.573
46537W        W 7903  18.698  38.904   4.267
46538W        W 7904  39.405  16.179  14.808
46539W        W 7905  25.053   4.253  12.419
46540W        W 7906  29.435  23.212   2.843
46541W        W 7907  31.403  31.027   1.814
46542W        W 7908  36.858  10.378   0.927
46543W        W 7909  43.850  18.058  12.485
46544W        W 7910   2.287   1.833  13.459
46545W        W 7911   3.913  21.752  10.605
46546W        W 7912   2.929  12.776   4.712
46547W        W 7913  26.624  27.141   1.440
46548W        W 7914  23.546  10.229   3.683
46549W        W 7915  21.134  20.692  13.010
46550W        W 7916  41.011  21.527  13.401
46551W        W 7917  35.086  36.095   1.731
46552W        W 7918   4.809  22.721  12.004
46553W        W 7919  28.181   9.788  12.000
46554W        W 7920  19.083  34.919  11.447
46555W        W 7921  30.936  27.994   4.349
46556W        W 7922  30.637  26.143   1.348
46557W        W 7923  17.687   8.355   0.858
46558W        W 7924  22.163  43.437  11.427
46559W        W 7925  16.232   4.879   4.598
46560W        W 7926  44.270  25.190   3.720
46561W        W 7927  22.089  27.073  14.483
46562W        W 7928   8.812  41.968   3.220
46563W        W 7929   7.374  36.365   2.358
46564W        W 7930  34.407  37.059   1.433
46565W        W 7931  35.490  27.570   0.875
46566W        W 7932  11.311  37.458  12.567
46567W        W 7933  30.440  36.487   0.844
46568W        W 7934  32.408  44.755  10.538
46569W        W 7935  25.605  15.707  10.602
46570W        W 7936  34.559   2.947   0.853
46571W        W 7937  41.928  41.913  13.467
46572W        W 7938  26.040   3.229   1.897
46573W        W 7939   8.661  30.147   4.123
46574W        W 7940  25.032  25.183   0.455
46575W        W 7941   5.733  40.921  13.003
46576W        W 7942  18.689  14.753  11.571
46577W        W 7943  10.646  31.464  13.015
46578W        W 7944   2.812  37.914   2.811
46579W        W 7945  15.669  23.019   3.629
46580W        W 7946  10.799  26.955  12.377
46581W        W 7947  31.921  43.290   5.282
46582W        W 7948  41.412  31.116   4.312
46583W        W 7949   0.898  11.240  13.547
46584W        W 7950  12.610  23.734  12.077
46585W        W 7951  41.792   1.443  11.563
46586W        W 7952  44.468  31.046  11.529
46587W        W 7953  15.167  12.351  12.984
46588W        W 7954  27.175  23.577   3.222
46589W        W 7955  39.029  20.243  12.368
46590W        W 7956  18.148  17.226   3.312
46591W        W 7957  31.120   4.297  10.992
46592W        W 7958  26.959  21.126  11.027
46593W        W 7959  22.235  34.472  13.846
46594W        W 7960   6.918  34.888  11.473
46595W        W 7961   2.781  42.939  12.912
46596W        W 7962  36.353   2.920  13.397
46597W        W 7963   2.854  37.845   4.740
46598W        W 7964  23.532  13.206  10.413
46599W        W 7965  44.925   7.712  13.361
46600W        W 7966  24.650   2.304  13.383
46601W        W 7967  39.820  12.332   4.740
46602W        W 7968   4.877  25.130  12.560
46603W        W 7969   2.953  19.057   2.825
46604W        W 7970  36.988  36.975  12.966
46605W        W 7971  28.583  44.848   2.863
46606W        W 7972   4.213  26.023  11.421
46607W        W 7973   5.426   3.898   4.139
46608W        W 7974  21.113   6.342   1.857
46609W        W 7975  34.099  43.977   0.304
46610W        W 7976  28.058   3.938   0.749
46611W        W 7977  12.778   7.887  10.616
46612W        W 7978  23.622   2.421  13.850
46613W        W 7979   0.295  44.390   2.806
46614W        W 7980  25.554  16.640  13.418
46615W        W 7981  13.762  11.373  13.958
46616W        W 7982  44.823   3.219  12.861
46617W        W 7983   3.746  28.131   1.421
46618W        W 7984  43.886  30.965   3.674
46619W        W 7985  27.604  26.000  13.380
46620W        W 7986  19.053  29.603  14.493
46621W        W 7987  19.687  29.517  12.431
46622W        W 7988  22.084  21.108  10.458
46623W        W 7989  17.568  37.407  13.920
46624W        W 7990  10.814  32.110   1.743
46625W        W 7991   2.323  43.292   3.660
46626W        W 7992   8.263  29.566   4.334
46627W        W 7993   1.257  15.674  10.547
46628W        W 7994  30.618  14.775   3.285
46629W        W 7995  25.210  43.306  13.966
46630W        W 7996  29.460  43.779   2.229
46631W        W 7997  33.962   2.457  14.005
46632W        W 7998  22.723  10.875   2.304
46633W        W 7999  40.463  34.577  12.031
46634W        W 8000  26.556  26.528  13.541
46635W        W 8001  15.697   4.212  11.872
46636W        W 8002  20.768  37.474   3.803
46637W        W 8003  29.990   8.704   0.467
46638W        W 8004  41.000  44.771   0.317
46639W        W 8005  33.445  17.624   0.859
46640W        W 8006  16.291  40.321   3.328
46641W        W 8007   1.392  37.999   4.683
46642W        W 8008  22.192   7.794   4.744
46643W        W 8009  36.472   8.900  12.580
46644W        W 8010  21.219   0.430  13.408
46645W        W 8011  23.503  41.821  13.530
46646W        W 8012  30.072  37.055  10.527
46647W        W 8013   6.793  32.919   3.709
46648W        W 8014  33.035   0.754  10.480
46649W        W 8015  10.824  31.580  11.916
46650W        W 8016   3.282   6.864   3.296
46651W        W 8017  42.440  23.195  14.446
46652W        W 8018  17.252  41.966   0.728
46653W        W 8019   7.825  39.830   2.341
46654W        W 8020   1.799  35.359   2.881
46655W        W 8021  34.582  20.667  10.581
46656W        W 8022  43.363  43.956   3.354
46657W        W 8023  28.091  17.617  13.332
46658W        W 8024  31.088   7.354  14.332
46659W        W 8025  12.285  43.921   1.717
46660W        W 8026  39.400  33.519  14.279
46661W        W 8027  30.468  38.893  13.452
46662W        W 8028   4.719  36.476  11.872
46663W        W 8029  42.999  34.998  14.908
46664W        W 8030  40.446  14.812  14.969
46665W        W 8031  35.370  11.709   0.880
46666W        W 8032  38.450  12.672   3.828
46667W        W 8033   7.229   2.764   1.302
46668W        W 8034  39.919   4.409  13.479
46669W        W 8035  23.615  43.910  10.609
46670W        W 8036  42.502   5.754   4.790
46671W        W 8037   6.885   4.379   1.834
46672W        W 8038   7.243   5.321  12.834
46673W        W 8039   2.785  39.483   2.776
46674W        W 8040  26.047  16.199  11.910
46675W        W 8041  33.464  30.046  14.448
46676W        W 8042  10.331  19.557   3.225
46677W        W 8043  43.357   2.723  10.606
46678W        W 8044  39.365  31.522  12.539
46679W        W 8045  36.518   7.893   1.911
46680W        W 8046  19.766  43.993  13.958
46681W        W 8047  28.632  41.501  11.537
46682W        W 8048  27.950  37.345   2.811
46683W        W 8049  10.211  14.228   1.704
46684W        W 8050  40.870   6.708  10.558
46685W        W 8051   7.827   3.432   3.362
46686W        W 8052  36.068  14.720   4.193
46687W        W 8053   9.281   7.840   3.680
46688W        W 8054   2.815  34.093  14.854
46689W        W 8055  39.496   8.888  11.413
46690W        W 8056  11.368  29.963  10.472
46691W        W 8057  11.211  19.116   0.249
46692W        W 8058  24.028  24.667  12.084
46693W        W 8059  22.241   3.287   9.954
46694W        W 8060   9.333  20.763  10.916
46695W        W 8061   1.867  36.399   3.698
46696W        W 8062   9.718  36.354  12.536
46697W        W 8063  44.277  36.974   0.356
46698W        W 8064  23.643  18.283  12.080
46699W        W 8065  38.356  39.421  12.452
46700W        W 8066   9.269  25.590   0.786
46701W        W 8067  26.683   9.191   4.817
46702W        W 8068   4.873  35.885   5.252
46703W        W 8069  42.507  16.684   2.675
46704W        W 8070  42.308  16.728   1.796
46705W        W 8071  33.004  30.017  13.486
46706W        W 8072  23.132  30.104   4.822
46707W        W 8073  20.254   5.898  14.927
46708W        W 8074  26.151  42.837  13.330
46709W        W 8075  38.881  43.903  10.916
46710W        W 8076  34.000  38.901  12.363
46711W        W 8077  44.918   3.729  11.459
46712W        W 8078  36.843  41.821   1.344
46713W        W 8079  41.808  13.692   3.254
46714W        W 8080   8.658   3.919   2.783
46715W        W 8081  20.233   0.382  12.857
46716W        W 8082  38.382  43.991  14.895
46717W        W 8083  24.661  27.978   2.252
46718W        W 8084  39.421  16.755  13.958
46719W        W 8085  34.377  14.678   2.241
46720W        W 8086   6.786  34.517   0.747
46721W        W 8087   8.235  40.464  12.557
46722W        W 8088  32.431  25.093   2.793
46723W        W 8089  38.949  36.017  10.049
46724W        W 8090  19.545  34.987  14.008
46725W        W 8091  23.700  23.091   2.711
46726W        W 8092  34.577  36.366   0.884
46727W        W 8093  29.517  15.752   2.382
46728W        W 8094   7.176   0.402  11.026
46729W        W 8095   5.253  33.957   0.894
46730W        W 8096  18.590   4.241  12.917
46731W        W 8097  10.229   4.441  10.415
46732W        W 8098  34.465  34.114   2.702
46733W        W 8099   6.843  38.891   0.941
46734W        W 8100  11.250  35.370  14.829
46735W        W 8101  22.694  21.048  12.060
46736W        W 8102   0.823  20.169   4.263
46737W        W 8103  32.138  11.215   0.446
46738W        W 8104  31.002  32.137  11.496
46739W        W 8105  44.937  35.422   2.180
46740W        W 8106   8.240  39.870   1.798
46741W        W 8107  26.192  11.795   4.679
46742W        W 8108  32.088  16.609  12.506
46743W        W 8109  14.639  42.356  13.846
46744W        W 8110  20.656  44.269   3.795
46745W        W 8111  42.478  20.078   3.387
46746W        W 8112  17.129  26.548  14.484
46747W        W 8113  19.206  34.973  11.066
46748W        W 8114  10.708  37.977   1.826
46749W        W 8115  10.139   1.424   4.682
46750W        W 8116  28.665   6.242   4.212
46751W        W 8117  19.568  16.663  13.322
46752W        W 8118  31.896  36.991   1.296
46753W        W 8119  30.028  24.068  13.061
46754W        W 8120  23.607  33.876  11.572
46755W        W 8121  31.473  10.361  12.542
46756W        W 8122  25.102  29.175  13.850
46757W        W 8123  27.541  14.097   0.299
46758W        W 8124  35.874  21.686   1.738
46759W        W 8125  12.832   3.811   4.170
46760W        W 8126  40.533  31.522   0.878
46761W        W 8127   1.354   4.705   4.195
46762W        W 8128  11.685  15.224  10.428
46763W        W 8129  41.871   5.800  13.868
46764W        W 8130  42.903  37.421  12.905
46765W        W 8131  41.950  42.913   1.433
46766W        W 8132   9.871  34.543   2.800
46767W        W 8133  11.357   8.729  12.951
46768W        W 8134  20.618  34.091  13.012
46769W        W 8135  21.535   4.311  11.385
46770W        W 8136  24.496  44.005   0.258
46771W        W 8137  33.507  38.387   9.923
46772W        W 8138   3.897  16.603   3.735
46773W        W 8139  44.281  26.133   1.231
46774W        W 8140  31.635   0.806  12.881
46775W        W 8141  23.521   7.908  14.501
46776W        W 8142  43.014  38.427  13.030
46777W        W 8143  32.131   0.758  13.527
46778W        W 8144  31.571  11.213  10.645
46779W        W 8145  28.937  17.664  14.467
46780W        W 8146   4.382  14.116   3.772
46781W        W 8147  37.968   8.176   1.742
46782W        W 8148  11.302  14.590  13.537
46783W        W 8149   8.696  43.409   3.236
46784W        W 8150  15.244  28.434   3.632
46785W        W 8151   0.977  40.539  13.811
46786W        W 8152  10.871  34.039   3.319
46787W        W 8153  33.594  43.499   3.155
46788W        W 8154   7.230  21.081   1.379
46789W        W 8155  43.389  10.163  12.484
46790W        W 8156  23.070  33.081   1.734
46791W        W 8157  11.166  19.046  13.309
46792W        W 8158  41.998  33.437   4.340
46793W        W 8159   3.905   8.179   3.191
46794W        W 8160   1.739  36.875   3.313
46795W        W 8161   7.280  14.143   4.322
46796W        W 8162  38.475  12.848  12.985
46797W        W 8163  44.481   1.311   0.951
46798W        W 8164   6.806   6.422   3.858
46799W        W 8165  37.838  28.950  14.388
46800W        W 8166  19.283  30.535   2.402
46801W        W 8167  14.606  35.537  11.521
46802W        W 8168  11.734  16.712  11.534
46803W        W 8169  32.910  11.823  12.095
46804W        W 8170   3.819  29.665  11.947
46805W        W 8171  26.651   6.693   1.375
46806W        W 8172   3.286   8.900   1.332
46807W        W 8173  11.745  41.404  13.478
46808W        W 8174   7.201  17.600   4.292
46809W        W 8175   4.757  22.025   3.381
46810W        W 8176   1.899   1.334  11.987
46811W        W 8177  21.679  17.103  11.023
46812W        W 8178  39.420  31.567   3.720
46813W        W 8179  17.666  44.008   0.441
46814W        W 8180  15.189   5.278   0.270
46815W        W 8181  23.188  40.009  11.107
46816W        W 8182  22.565  30.104   4.807
46817W        W 8183   2.354  15.735   2.394
46818W        W 8184  28.633  26.108   4.632
46819W        W 8185  20.174  17.153   1.292
46820W        W 8186  40.801  36.379  14.296
46821W        W 8187  24.056  12.664   0.933
46822W        W 8188  28.014  40.523  11.546
46823W        W 8189  35.417  43.430  13.491
46824W        W 8190  37.555  34.450   1.871
46825W        W 8191  10.214   2.912   4.806
46826W        W 8192  31.464   2.455  14.852
46827W        W 8193  43.433  42.792  14.313
46828W        W 8194  41.368   7.908   1.733
46829W        W 8195  10.713  23.204   3.243
46830W        W 8196  14.315  26.206  14.366
46831W        W 8197  33.070  39.435  11.090
46832W        W 8198   7.894   0.786   2.256
46833W        W 8199  14.785  32.556   0.930
46834W        W 8200  14.298  42.806   4.169
46835W        W 8201  20.094  13.122   1.248
46836W        W 8202  44.343  30.159  11.938
46837W        W 8203  15.141  37.494  13.389
46838W        W 8204  20.645   7.893  12.995
46839W        W 8205  14.740  19.181  10.634
46840W        W 8206  24.022  26.655  12.378
46841W        W 8207  33.448   6.720   2.758
46842W        W 8208  40.974  12.669   0.873
46843W        W 8209  25.630  22.587  10.580
46844W        W 8210  28.593  36.393   1.311
46845W        W 8211  21.100  24.529  10.471
46846W        W 8212  37.441  44.860   2.848
46847W        W 8213  13.601  18.090   0.838
46848W        W 8214  12.812   1.772  10.462
46849W        W 8215  39.462  29.068   2.784
46850W        W 8216  14.826  42.461   0.862
46851W        W 8217   7.332  18.262   2.693
46852W        W 8218  36.048   7.801   4.622
46853W        W 8219  25.109  28.524   2.337
46854W        W 8220   9.289  23.624  10.640
46855W        W 8221  24.158   2.375   0.885
46856W        W 8222  14.605  10.799  14.815
46857W        W 8223   1.924  18.547   3.340
46858W        W 8224  41.035  23.097  10.588
46859W        W 8225   5.687  43.826   4.335
46860W        W 8226  30.044  43.328   1.296
46861W        W 8227  24.145  10.780   1.427
46862W        W 8228  29.594  37.507   1.721
46863W        W 8229  26.533   1.859   3.837
46864W        W 8230  13.717  21.183  14.311
46865W        W 8231  17.574  41.034   0.253
46866W        W 8232   9.323  39.000  11.556
46867W        W 8233  38.458  33.111   0.285
46868W        W 8234  39.011  40.836   1.722
46869W        W 8235  17.605   0.318   0.332
46870W        W 8236  15.638  28.490   3.262
46871W        W 8237  16.584   3.391   2.673
46872W        W 8238  36.347  34.107   2.322
46873W        W 8239  40.818  22.074   4.674
46874W        W 8240  24.988  25.642   0.926
46875W        W 8241  15.634  40.463   1.369
46876W        W 8242  17.798  11.635   3.839
46877W        W 8243  41.879  36.868   3.356
46878W        W 8244  43.363   9.163   3.362
46879W        W 8245   5.382  17.298  13.309
46880W        W 8246  18.764  41.513   5.112
46881W        W 8247  15.235  27.667   4.269
46882W        W 8248  28.175  44.264   0.274
46883W        W 8249  33.117   0.395  12.026
46884W        W 8250  41.516  43.818  10.502
46885W        W 8251  44.773  20.179   2.188
46886W        W 8252   5.711   6.280   2.264
46887W        W 8253  36.500  24.975  10.928
46888W        W 8254  15.181  21.747   3.151
46889W        W 8255  20.712  15.600  14.394
46890W        W 8256  37.063  29.164   1.421
46891W        W 8257  32.939  13.721   2.811
46892W        W 8258  14.720  31.086  10.888
46893W        W 8259  44.877  27.062  14.455
46894W        W 8260  25.097  34.116   0.873
46895W        W 8261  30.933  20.603   3.361
46896W        W 8262   9.730  17.145  11.509
46897W        W 8263  14.272  40.319  11.612
46898W        W 8264  36.379   3.742   3.747
46899W        W 8265  27.046  10.341  12.528
46900W        W 8266  24.650  27.513   9.509
46901W        W 8267  36.053  13.773  10.567
46902W        W 8268  18.570  37.349   0.749
46903W        W 8269   5.327  24.495  11.103
46904W        W 8270  20.560  41.395   2.381
46905W        W 8271  26.698  21.561  13.392
46906W        W 8272   2.445   6.197  10.936
46907W        W 8273  37.470   3.414   2.814
46908W        W 8274  44.972  33.499   1.714
46909W        W 8275  38.980  12.234   1.746
46910W        W 8276  13.151  23.716   4.603
46911W        W 8277  24.692  34.090  14.476
46912W        W 8278  30.989   2.267   1.433
46913W        W 8279  21.514  36.879   3.357
46914W        W 8280  34.540  13.828  13.951
46915W        W 8281  17.750  26.644  14.801
46916W        W 8282  33.962   2.832  10.994
46917W        W 8283   5.276   3.350   0.736
46918W        W 8284  39.835  23.210  13.816
46919W        W 8285  21.745   6.678  13.385
46920W        W 8286   3.852  32.025  13.836
46921W        W 8287   7.325  11.367  12.568
46922W        W 8288   6.737  23.048   4.308
46923W        W 8289  27.977  34.956  10.985
46924W        W 8290  38.011  18.190  11.492
46925W        W 8291  27.598  13.781   3.323
46926W        W 8292  20.043  38.563   1.907
46927W        W 8293  37.501  16.083   1.435
46928W        W 8294  41.427  18.050   1.774
46929W        W 8295  36.011  33.084  14.492
46930W        W 8296  37.968  25.136   1.825
46931W        W 8297  14.191  10.158  13.007
46932W        W 8298  36.918  43.507   3.303
46933W        W 8299  33.072   6.285   4.752
46934W        W 8300  27.516  39.317  13.034
46935W        W 8301  17.254  31.926   2.243
46936W        W 8302   3.276   4.720  12.436
46937W        W 8303  26.097  37.083  13.970
46938W        W 8304  42.470  19.745   1.340
46939W        W 8305  40.402   8.858   4.698
46940W        W 8306  19.733  29.109   2.771
46941W        W 8307  21.038  39.334  13.965
46942W        W 8308  35.026  42.299   2.779
46943W        W 8309  16.138  27.096  14.953
46944W        W 8310   8.853   2.358  13.371
46945W        W 8311  32.480  27.033   3.360
46946W        W 8312  36.365  16.716   2.707
46947W        W 8313  28.143  23.731   1.799
46948W        W 8314  18.604   7.676   4.326
46949W        W 8315   2.286  26.695  10.903
46950W        W 8316   8.883  32.118   4.220
46951W        W 8317  27.960   3.373  12.921
46952W        W 8318  38.002  14.131   4.730
46953W        W 8319  37.899  16.204  11.891
46954W        W 8320  13.719  43.497  14.790
46955W        W 8321   3.718  17.240  14.444
46956W        W 8322  28.033  35.039   0.884
46957W        W 8323   9.695  27.458   1.405
46958W        W 8324  38.961  23.489   3.632
46959W        W 8325  38.912  10.758   1.335
46960W        W 8326  10.768  41.000  14.008
46961W        W 8327  14.204   1.840   3.786
46962W        W 8328  38.540  36.451   1.835
46963W        W 8329  18.111  13.268  12.521
46964W        W 8330  32.039  17.771   2.718
46965W        W 8331  20.626   3.327  14.278
46966W        W 8332   1.442  30.610  12.886
46967W        W 8333  28.586   8.659  10.626
46968W        W 8334  28.938  20.086   3.255
46969W        W 8335  11.667  14.674   3.714
46970W        W 8336   9.832  35.004   4.281
46971W        W 8337   9.850  36.044   3.795
46972W        W 8338  10.181  17.634  14.962
46973W        W 8339   2.786  41.529  12.050
46974W        W 8340  41.908  37.467  12.398
46975W        W 8341  20.643  28.973   1.749
46976W        W 8342   7.213   7.834  14.365
46977W        W 8343  36.876  31.618  11.934
46978W        W 8344  44.924  29.654   3.637
46979W        W 8345  44.441  27.125   1.886
46980W        W 8346  28.568  16.584   2.362
46981W        W 8347  22.701   8.819   1.739
46982W        W 8348   4.426   0.810   4.184
46983W        W 8349  13.776  35.601  11.422
46984W        W 8350  22.020  11.743  12.943
46985W        W 8351  19.241   2.937   1.433
46986W        W 8352  12.735  36.073   4.298
46987W        W 8353   6.365  25.510  13.443
46988W        W 8354   2.445  25.100   3.352
46989W        W 8355   2.333  12.241  11.471
46990W        W 8356  34.520   6.243   1.795
46991W        W 8357   7.759  23.526  14.819
46992W        W 8358  40.542  20.752   3.371
46993W        W 8359   8.163  26.046  10.616
46994W        W 8360  11.273  43.869   2.293
46995W        W 8361  38.883  16.250  10.087
46996W        W 8362  10.653  26.968  11.054
46997W        W 8363  28.503   7.878  14.426
46998W        W 8364   0.455   1.956   0.901
46999W        W 8365  29.645  17.081  12.565
47000W        W 8366  24.032   2.353   2.766
47001W        W 8367   1.381  16.144   1.921
47002W        W 8368  39.470  16.192   0.755
47003W        W 8369  18.781  42.015  13.976
47004W        W 8370   8.858  39.538  14.007
47005W        W 8371  17.191  21.665  14.979
47006W        W 8372  11.796  32.890   2.227
47007W        W 8373  43.954  27.612   3.834
47008W        W 8374   1.857   1.379  11.063
47009W        W 8375  22.041   8.825   0.273
47010W        W 8376  43.392  34.423   1.327
47011W        W 8377  16.635  38.049  14.828
47012W        W 8378   8.848   5.789  11.591
47013W        W 8379  10.677  14.198   0.439
47014W        W 8380   7.732  33.505   4.828
47015W        W 8381  42.417   5.883   2.203
47016W        W 8382   5.248  20.666  11.380
47017W        W 8383  32.579  19.096   3.715
47018W        W 8384  36.425  26.471   2.869
47019W        W 8385  28.668   5.411   2.852
47020W        W 8386  27.556  40.428   1.777
47021W        W 8387  29.082  21.541   4.256
47022W        W 8388  42.783  31.986  10.514
47023W        W 8389   8.223  44.767   1.830
47024W        W 8390  15.268  17.735  11.981
47025W        W 8391  11.847  30.479  11.556
47026W        W 8392  12.750  15.222  14.313
47027W        W 8393  40.010  32.097   3.728
47028W        W 8394  33.985  27.542  14.782
47029W        W 8395  31.579  24.222  14.775
47030W        W 8396   8.683  44.976  12.893
47031W        W 8397   8.862  18.178  12.543
47032W        W 8398  10.814  24.700   3.365
47033W        W 8399   4.279   4.249  12.896
47034W        W 8400  37.574  21.150  11.872
47035W        W 8401  27.110  13.666   2.684
47036W        W 8402  30.422  33.128  12.531
47037W        W 8403  39.334  22.136  13.421
47038W        W 8404  12.275  44.292  11.461
47039W        W 8405   1.794  42.786   0.825
47040W        W 8406  28.605  25.567  11.885
47041W        W 8407   0.983  26.146  10.036
47042W        W 8408  40.370  12.215   0.456
47043W        W 8409  31.120  22.040  10.630
47044W        W 8410  40.422  10.838   1.708
47045W        W 8411  40.896  28.960   4.815
47046W        W 8412  38.333  40.389  14.413
47047W        W 8413  43.962  40.944  14.828
47048W        W 8414  36.394  33.395  12.528
47049W        W 8415  24.548  15.169  10.938
47050W        W 8416   8.804   4.770   1.362
47051W        W 8417   9.881  34.984   1.239
47052W        W 8418  26.005  35.569  14.509
47053W        W 8419  27.021  24.229   4.642
47054W        W 8420  39.886  23.691   1.838
47055W        W 8421  39.047  22.222   0.246
47056W        W 8422  43.447   6.254   4.602
47057W        W 8423  24.224   1.423  13.823
47058W        W 8424   3.303  25.470  13.023
47059W        W 8425  17.289  39.969  14.927
47060W        W 8426   4.733  31.072   1.234
47061W        W 8427  20.210   7.742  13.042
47062W        W 8428  41.924  22.702  14.872
47063W        W 8429  28.484  37.065   3.169
47064W        W 8430  43.798  39.907   2.403
47065W        W 8431  33.026  26.577   2.263
47066W        W 8432  13.237  22.216   4.141
47067W        W 8433   8.250  26.050   2.299
47068W        W 8434   9.305   5.798  14.814
47069W        W 8435  25.637  35.864   4.286
47070W        W 8436  35.598   3.817  13.509
47071W        W 8437  14.814   5.237   2.758
47072W        W 8438   4.344  35.937   3.651
47073W        W 8439   0.796  41.009  14.299
47074W        W 8440  42.501  28.159  12.939
47075W        W 8441   4.861   6.236   3.675
47076W        W 8442  28.006  18.565  10.621
47077W        W 8443  11.816  22.612   4.679
47078W        W 8444  44.957   1.954   1.831
47079W        W 8445  35.025  19.104   0.371
47080W        W 8446  25.129  26.055   3.202
47081W        W 8447  21.629  39.477   2.414
47082W        W 8448   9.721  26.960  12.547
47083W        W 8449  38.856   7.205   4.838
47084W        W 8450  26.616  14.285  14.002
47085W        W 8451  25.708   4.260  14.896
47086W        W 8452  28.096  42.020   3.322
47087W        W 8453  29.950  21.622  14.310
47088W        W 8454  28.526  11.151  14.932
47089W        W 8455  34.403  28.936   4.327
47090W        W 8456  32.585   2.383   0.473
47091W        W 8457   8.888  38.013   1.427
47092W        W 8458  31.573  12.161   4.672
47093W        W 8459  39.943  33.514  10.556
47094W        W 8460  43.938  13.772  14.995
47095W        W 8461  16.102  28.057  13.872
47096W        W 8462  28.667  16.808   2.786
47097W        W 8463  10.637  40.934  10.977
47098W        W 8464  39.481  44.843   0.925
47099W        W 8465  27.196   2.907  13.310
47100W        W 8466   3.378  37.403  10.109
47101W        W 8467  44.260  31.941   2.773
47102W        W 8468  20.568  28.038   2.820
47103W        W 8469  30.626  10.383   2.386
47104W        W 8470  36.423  42.440   0.426
47105W        W 8471  23.219   0.818  10.964
47106W        W 8472   5.207  39.543  14.922
47107W        W 8473  32.140  30.634   2.743
47108W        W 8474  34.906  33.003   2.339
47109W        W 8475  41.792  33.507  11.030
47110W        W 8476  22.037  40.444  11.098
47111W        W 8477   5.688  36.405  14.879
47112W        W 8478  35.944  37.062   3.176
47113W        W 8479  29.548  13.698  10.923
47114W        W 8480  16.280  44.489   0.761
47115W        W 8481  20.083  12.628  14.858
47116W        W 8482   7.681  24.146  12.467
47117W        W 8483  31.585  40.844  11.585
47118W        W 8484  42.975  42.918  14.509
47119W        W 8485   5.777  28.529   0.426
47120W        W 8486   4.748  18.233  13.458
47121W        W 8487  11.281  36.592   1.336
47122W        W 8488  44.762  36.435  12.387
47123W        W 8489  28.665   5.862   2.343
47124W        W 8490  28.119   5.375  11.554
47125W        W 8491  18.236  42.946   3.222
47126W        W 8492   4.372   0.960   3.813
47127W        W 8493  33.488  23.194  14.326
47128W        W 8494  27.952  16.655   1.786
47129W        W 8495  25.969  38.354  10.941
47130W        W 8496   7.717  10.652  10.949
47131W        W 8497  17.135   8.274  10.622
47132W        W 8498  21.660  43.839  13.357
47133W        W 8499  34.011  29.047  10.612
47134W        W 8500  27.106  39.337   2.331
47135W        W 8501  29.431  23.500  10.434
47136W        W 8502   4.827  43.887  11.876
47137W        W 8503  27.446  17.140  11.550
47138W        W 8504  37.902   8.210  13.841
47139W        W 8505  18.556  38.369   3.865
47140W        W 8506  40.837  25.131  10.904
47141W        W 8507  38.424  34.396   0.932
47142W        W 8508  24.611  31.580   3.729
47143W        W 8509  26.182  17.294   2.316
47144W        W 8510   4.893  17.761  12.532
47145W        W 8511  12.751  15.732   0.815
47146W        W 8512   2.859  39.819  13.485
47147W        W 8513   4.306   9.317  11.895
47148W        W 8514  26.158  33.586  11.925
47149W        W 8515   1.253   8.825  13.396
47150W        W 8516  34.575  25.518   4.720
47151W        W 8517  37.481  18.095   4.302
47152W        W 8518  39.966  31.604  11.467
47153W        W 8519  28.672   7.241  13.496
47154W        W 8520   1.842  38.051   1.758
47155W        W 8521  24.009  38.843   2.333
47156W        W 8522   3.278  14.323   3.737
47157W        W 8523  18.173  16.095  10.893
47158W        W 8524  22.719  29.975   1.817
47159W        W 8525  18.642  33.392   0.358
47160W        W 8526  21.724  25.702  11.892
47161W        W 8527  37.545  14.829   3.730
47162W        W 8528  11.362   5.764   2.833
47163W        W 8529  33.562  27.662  10.938
47164W        W 8530  42.478  37.458  11.905
47165W        W 8531  34.448  40.443  12.379
47166W        W 8532  15.104  12.680   9.938
47167W        W 8533  38.004  41.464   3.315
47168W        W 8534   4.408  20.524   3.232
47169W        W 8535   6.381  34.055  13.312
47170W        W 8536   1.433  14.722   3.695
47171W        W 8537  24.606  32.598   3.868
47172W        W 8538   5.270   2.388   0.352
47173W        W 8539  41.793  35.923   5.262
47174W        W 8540  23.022  37.562  10.464
47175W        W 8541  35.413  13.289   0.377
47176W        W 8542  36.095   0.883   0.334
47177W        W 8543  30.033  24.016  11.021
47178W        W 8544  12.653  37.386   2.767
47179W        W 8545  41.924  17.791   4.147
47180W        W 8546   9.200  35.476   2.320
47181W        W 8547  11.346   3.250  11.478
47182W        W 8548  18.729  34.384  10.516
47183W        W 8549   8.336  31.931   0.386
47184W        W 8550  15.641  24.509   1.402
47185W        W 8551  43.929   3.773  11.882
47186W        W 8552  37.553  17.191  12.552
47187W        W 8553  15.148  16.701   3.352
47188W        W 8554  27.447  29.487  14.983
47189W        W 8555  16.104  40.054   2.416
47190W        W 8556  24.119  28.591   2.730
47191W        W 8557  12.623  20.182  12.918
47192W        W 8558  38.999   7.690  11.404
47193W        W 8559  28.542  39.342  13.999
47194W        W 8560  39.834  35.040  10.563
47195W        W 8561  43.877  33.061  14.286
47196W        W 8562  16.087  27.538   2.363
47197W        W 8563  37.430  23.995  13.913
47198W        W 8564  33.953  36.856  13.486
47199W        W 8565  42.332   0.490  12.346
47200W        W 8566  29.463  12.852   4.820
47201W        W 8567  36.375  14.224   5.134
47202W        W 8568  11.863  39.474  14.367
47203W        W 8569  41.981   0.283   3.733
47204W        W 8570   8.754   3.778  14.337
47205W        W 8571  36.982  11.219  14.354
47206W        W 8572  24.071   0.875   2.726
47207W        W 8573  13.630  42.505   4.181
47208W        W 8574  10.154  40.809  13.966
47209W        W 8575  21.095   9.858  11.984
47210W        W 8576  11.807  24.192   3.312
47211W        W 8577  42.382  43.287   2.783
47212W        W 8578  14.257  29.970  11.550
47213W        W 8579  27.475  24.637   2.736
47214W        W 8580  43.493   3.953   0.805
47215W        W 8581  10.740  34.980  12.577
47216W        W 8582  11.688  20.134   1.702
47217W        W 8583  39.936  30.541   1.386
47218W        W 8584  36.921  40.908  14.383
47219W        W 8585  15.751   5.909   3.813
47220W        W 8586   7.236  21.734  14.454
47221W        W 8587  13.232  42.446   2.321
47222W        W 8588  23.607  29.507   9.966
47223W        W 8589  31.526   1.279  11.571
47224W        W 8590   2.940  17.260   1.246
47225W        W 8591  16.292   9.768   1.221
47226W        W 8592  10.230  37.057   1.922
47227W        W 8593  41.005  14.279   1.444
47228W        W 8594   1.477  27.486   0.857
47229W        W 8595  29.035  11.147   4.134
47230W        W 8596   8.321   3.719  11.520
47231W        W 8597  11.170  21.264  12.419
47232W        W 8598  39.364  16.606  12.362
47233W        W 8599  19.629   5.263  12.853
47234W        W 8600   6.356  35.995   0.414
47235W        W 8601   3.865  12.323  11.611
47236W        W 8602   0.767   9.793  14.942
47237W        W 8603  25.485  18.740   5.245
47238W        W 8604  42.031   4.222   4.695
47239W        W 8605  26.642   5.390   0.318
47240W        W 8606  15.580   2.894   1.220
47241W        W 8607  26.571  28.975   1.423
47242W        W 8608  11.703  13.297   4.335
47243W        W 8609  34.064  10.759  13.505
47244W        W 8610  32.616   5.766   4.135
47245W        W 8611  13.154   1.782  14.290
47246W        W 8612  26.472   6.883  12.884
47247W        W 8613  21.114  18.267   3.314
47248W        W 8614   5.373  17.717  11.457
47249W        W 8615  14.607  44.830  14.494
47250W        W 8616   5.198  26.507  13.430
47251W        W 8617  43.430   8.174  13.801
47252W        W 8618  44.819  38.926   1.913
47253W        W 8619  41.490  29.648   5.270
47254W        W 8620  14.164  20.157   4.251
47255W        W 8621   4.894  22.190   9.987
47256W        W 8622  35.410   6.204  13.397
47257W        W 8623   7.415  26.687   0.303
47258W        W 8624  23.155  27.962  12.940
47259W        W 8625   6.185  14.094  12.352
47260W        W 8626  21.672  18.281   4.775
47261W        W 8627  31.541   7.795   3.383
47262W        W 8628  35.070  12.136  11.572
47263W        W 8629  38.408  30.911  14.875
47264W        W 8630  24.019  30.452  13.918
47265W        W 8631  10.839  18.641   1.803
47266W        W 8632  29.489  35.061   5.114
47267W        W 8633   3.868  26.556  14.786
47268W        W 8634  10.786  22.044   2.404
47269W        W 8635   2.238  15.678   9.940
47270W        W 8636   2.896  44.437  14.341
47271W        W 8637  41.356  14.799  13.874
47272W        W 8638   2.828   2.449   2.694
47273W        W 8639  33.988   5.855   0.899
47274W        W 8640  27.454  35.553  13.915
47275W        W 8641   8.244  44.334   3.313
47276W        W 8642   9.157  17.636   0.442
47277W        W 8643  24.144  36.486  11.508
47278W        W 8644  15.812  15.718  14.927
47279W        W 8645  24.020  43.884   1.780
47280W        W 8646  30.067   8.777   3.225
47281W        W 8647  15.689   9.827  11.009
47282W        W 8648  24.212  17.721  14.490
47283W        W 8649  27.101  44.916  12.042
47284W        W 8650   1.959  29.928   1.215
47285W        W 8651  43.788  23.214   2.691
47286W        W 8652  33.552  44.420   2.816
47287W        W 8653  22.138  41.311   4.325
47288W        W 8654   0.885  16.701  12.007
47289W        W 8655   7.747  18.124  12.984
47290W        W 8656  21.619  39.953   2.180
47291W        W 8657  35.866   7.189  11.916
47292W        W 8658   5.920  14.266   4.190
47293W        W 8659  12.277  16.205  11.089
47294W        W 8660  30.525   7.764  13.428
47295W        W 8661  29.098   3.257  13.314
47296W        W 8662  14.625  40.329  13.051
47297W        W 8663  24.618  32.514  13.846
47298W        W 8664  30.094  39.530   1.811
47299W        W 8665  23.067  39.530   4.329
47300W        W 8666  21.135   6.797  10.935
47301W        W 8667  44.293  36.532  14.773
47302W        W 8668   1.476   9.386  13.541
47303W        W 8669  44.408  20.214  14.789
47304W        W 8670  15.671  10.146  12.379
47305W        W 8671  14.763  12.799  10.418
47306W        W 8672   5.226  20.766  12.445
47307W        W 8673  12.315   0.942  12.487
47308W        W 8674   8.853  11.804   5.208
47309W        W 8675  42.777  12.356   1.894
47310W        W 8676  24.119   4.361  10.985
47311W        W 8677  12.264   5.743   1.893
47312W        W 8678  23.530  12.256  13.534
47313W        W 8679   8.180  42.875   3.283
47314W        W 8680  10.848  41.479  13.893
47315W        W 8681  20.698   7.835  14.392
47316W        W 8682  24.660  17.675   1.707
47317W        W 8683  43.897  10.868   2.330
47318W        W 8684   9.886  23.555   1.760
47319W        W 8685  41.372   4.397   2.899
47320W        W 8686  28.069  30.571  13.447
47321W        W 8687   0.924   3.754  11.054
47322W        W 8688  40.831  13.276  14.417
47323W        W 8689  28.965  33.486  14.883
47324W        W 8690  20.230  38.849  10.439
47325W        W 8691  22.133  18.620  13.385
47326W        W 8692  18.072  38.989   1.832
47327W        W 8693  37.041  40.360   5.611
47328W        W 8694  16.225  33.458  11.374
47329W        W 8695  37.910  25.027   4.645
47330W        W 8696  17.081   2.359   0.783
47331W        W 8697  12.797  22.038   2.182
47332W        W 8698   0.786   5.730   2.755
47333W        W 8699  23.040  31.453   4.686
47334W        W 8700   1.415  15.674   3.161
47335W        W 8701  23.224  40.005   1.267
47336W        W 8702  18.089   0.368   2.834
47337W        W 8703   6.870  44.888  12.429
47338W        W 8704   3.771  18.108  10.499
47339W        W 8705  28.662  40.836   4.601
47340W        W 8706  18.781  31.576  13.947
47341W        W 8707  25.151  12.743   1.788
47342W        W 8708  11.172  36.486  11.533
47343W        W 8709  10.213  29.574   3.293
47344W        W 8710  29.578  22.518   0.753
47345W        W 8711   8.716  17.763  12.531
47346W        W 8712  14.699  18.562   4.635
47347W        W 8713   4.373  21.199  13.413
47348W        W 8714  18.131  44.982   0.384
47349W        W 8715  13.203  21.214   0.457
47350W        W 8716   3.749  41.942  14.284
47351W        W 8717  36.043  29.007  11.447
47352W        W 8718  35.374  44.306   2.189
47353W        W 8719  16.752  44.273   3.361
47354W        W 8720  32.588  38.848  14.906
47355W        W 8721  14.785  19.698  14.775
47356W        W 8722  44.321  19.715   5.269
47357W        W 8723  39.406  22.098   3.831
47358W        W 8724  34.423  40.406   2.207
47359W        W 8725   5.407  37.842  14.410
47360W        W 8726   8.679   7.301  14.000
47361W        W 8727  31.935  41.926   2.216
47362W        W 8728  11.141  36.437   4.132
47363W        W 8729   9.725  44.993  13.525
47364W        W 8730  14.338  17.147  13.959
47365W        W 8731   2.227   1.931  10.517
47366W        W 8732   0.743   1.807   3.278
47367W        W 8733  40.840   9.771   4.799
47368W        W 8734  35.099  25.087  12.862
47369W        W 8735   2.724  13.223  12.560
47370W        W 8736  16.253  41.967   1.825
47371W        W 8737  20.165  37.426  14.866
47372W        W 8738  40.470   8.775   1.890
47373W        W 8739   8.744  43.320   3.670
47374W        W 8740   4.842  14.697   5.189
47375W        W 8741   5.881  12.202   3.254
47376W        W 8742  39.958  44.872   3.272
47377W        W 8743  39.864  20.030   0.917
47378W        W 8744   0.855   8.819  14.949
47379W        W 8745  16.583  15.673   0.304
47380W        W 8746  32.063  21.534   0.275
47381W        W 8747  32.022  43.476  12.942
47382W        W 8748  17.733  37.912  11.044
47383W        W 8749  38.946  35.890  14.282
47384W        W 8750   1.872  27.595   5.628
47385W        W 8751   8.318  34.881  11.950
47386W        W 8752  29.965  26.507  13.492
47387W        W 8753  38.433  25.602   3.830
47388W        W 8754  40.366  14.710   0.372
47389W        W 8755   1.366  25.966  13.909
47390W        W 8756  41.511  24.973   3.734
47391W        W 8757   4.414  26.487  13.018
47392W        W 8758  29.126  35.500   0.470
47393W        W 8759  39.887   6.681  13.872
47394W        W 8760  33.561   2.891  13.464
47395W        W 8761  43.942  26.957   2.223
47396W        W 8762  23.136  24.697  11.384
47397W        W 8763  42.825  36.505  11.980
47398W        W 8764  30.085   5.248   1.717
47399W        W 8765  20.567  11.793   0.297
47400W        W 8766  43.892  37.452   0.916
47401W        W 8767   3.345   9.846   4.213
47402W        W 8768  11.785  19.719   4.335
47403W        W 8769  29.153  17.769   2.254
47404W        W 8770  40.512  10.216   2.885
47405W        W 8771  37.869  18.694  13.835
47406W        W 8772   5.378  27.000   2.883
47407W        W 8773  24.032   7.311   4.799
47408W        W 8774   8.682  42.517   3.772
47409W        W 8775  25.603  18.759   1.926
47410W        W 8776  31.534  44.757  11.545
47411W        W 8777  13.121  35.093   2.361
47412W        W 8778  18.099  10.685  13.954
47413W        W 8779  21.730  35.107  11.025
47414W        W 8780  31.482  14.269  14.027
47415W        W 8781  38.836  22.018  10.149
47416W        W 8782  30.045  29.650   4.153
47417W        W 8783   4.859  19.697  11.007
47418W        W 8784  26.539  40.538  13.047
47419W        W 8785  24.173  37.550  12.384
47420W        W 8786   7.795  28.117  13.543
47421W        W 8787  19.601  26.695   1.753
47422W        W 8788  11.716   3.305  13.944
47423W        W 8789  11.653  29.077   1.270
47424W        W 8790   5.818  10.845  11.587
47425W        W 8791  32.400  11.662  11.473
47426W        W 8792  18.704  26.184   0.402
47427W        W 8793  20.573  18.754  14.320
47428W        W 8794  28.567  14.682   1.832
47429W        W 8795  29.590  33.050  11.394
47430W        W 8796  44.831   5.428   2.681
47431W        W 8797   0.409   8.345  12.388
47432W        W 8798  35.997  38.892   3.300
47433W        W 8799  31.088  23.165  14.997
47434W        W 8800  39.531  41.350   3.850
47435W        W 8801   7.389  13.825  14.826
47436W        W 8802  15.180  34.579   3.660
47437W        W 8803  13.725  43.790   1.329
47438W        W 8804   6.338  11.702   2.847
47439W        W 8805  22.067  16.266   0.444
47440W        W 8806  23.198  21.523  12.346
47441W        W 8807   6.907  25.650  11.529
47442W        W 8808  44.293  34.953   0.415
47443W        W 8809  22.070  26.542   2.204
47444W        W 8810  29.653  20.547   0.961
47445W        W 8811  28.044  25.699   4.695
47446W        W 8812   7.731  27.480  12.484
47447W        W 8813  26.573  34.575   1.250
47448W        W 8814  39.849  23.496  13.812
47449W        W 8815  34.048  24.633   4.345
47450W        W 8816  11.298  43.325  13.450
47451W        W 8817  42.904  23.563   0.828
47452W        W 8818  10.663  33.977   1.400
47453W        W 8819  30.952  38.435   4.728
47454W        W 8820  44.865  24.090   4.200
47455W        W 8821  34.559  29.139  13.853
47456W        W 8822  32.391  14.095  14.776
47457W        W 8823  39.332   5.771   4.238
47458W        W 8824   6.293  42.449  13.470
47459W        W 8825  38.560  23.240  14.463
47460W        W 8826   6.225  44.268   5.317
47461W        W 8827  39.886   8.300   0.963
47462W        W 8828  29.521  20.655   1.895
47463W        W 8829  44.289   3.251  12.350
47464W        W 8830  14.214   5.774  12.421
47465W        W 8831  13.841  36.034  13.395
47466W        W 8832   4.825  40.404  12.504
47467W        W 8833   8.337  27.091  14.496
47468W        W 8834  21.610  12.342  12.962
47469W        W 8835  31.118  39.845   3.252
47470W        W 8836  39.551  31.079  12.414
47471W        W 8837  26.966  24.998  10.120
47472W        W 8838  38.453   9.385  12.527
47473W        W 8839   0.327  38.568   2.402
47474W        W 8840  26.975  37.959  11.887
47475W        W 8841   5.266   4.412   1.723
47476W        W 8842  43.945  17.780  12.474
47477W        W 8843  34.997  20.234  14.983
47478W        W 8844  14.159  20.665  14.926
47479W        W 8845   7.310  25.118   4.212
47480W        W 8846  42.331  16.100  13.798
47481W        W 8847   8.900  42.462   0.321
47482W        W 8848  44.432  14.271  14.450
47483W        W 8849  44.269  29.079   2.398
47484W        W 8850  23.038   2.389  10.603
47485W        W 8851  17.249  22.629   2.367
47486W        W 8852  28.130  10.657   0.363
47487W        W 8853   0.299  38.517   0.734
47488W        W 8854   5.362  34.369   0.328
47489W        W 8855   7.789  21.641   2.835
47490W        W 8856  23.522  12.742   2.299
47491W        W 8857   0.297  24.717   0.826
47492W        W 8858  15.673   5.721   4.157
47493W        W 8859  34.904  32.611   0.742
47494W        W 8860  34.970  36.348   1.359
47495W        W 8861  43.378  22.079  10.637
47496W        W 8862   1.353  12.282   0.790
47497W        W 8863   1.477  39.513   0.806
47498W        W 8864  16.602  10.340   0.830
47499W        W 8865  37.917  23.699   3.182
47500W        W 8866   2.452  18.726  13.353
47501W        W 8867   9.672  13.673  14.773
47502W        W 8868  33.000  28.184  10.419
47503W        W 8869   3.946  15.643  11.388
47504W        W 8870  10.822  18.784  13.860
47505W        W 8871  14.166   3.286   1.228
47506W        W 8872  13.259  13.330  12.448
47507W        W 8873  25.103  42.444  12.884
47508W        W 8874   0.466  14.123  14.774
47509W        W 8875   4.240  10.723  10.454
47510W        W 8876  21.559  37.079  12.392
47511W        W 8877  10.690  24.609  11.460
47512W        W 8878  18.217  32.636  11.957
47513W        W 8879  36.097  10.262  13.313
47514W        W 8880  11.709  13.833   1.926
47515W        W 8881  25.505  19.232  10.553
47516W        W 8882   3.935  18.687   0.791
47517W        W 8883  25.630  30.013  12.939
47518W        W 8884  38.538  24.144  11.512
47519W        W 8885  39.513   4.865   0.878
47520W        W 8886  13.797   4.745  11.982
47521W        W 8887   5.857   9.213   2.805
47522W        W 8888   9.316   6.194   4.188
47523W        W 8889  42.925   5.799  13.832
47524W        W 8890  19.550  30.950  10.457
47525W        W 8891  33.598  13.686  11.935
47526W        W 8892  24.019  28.003  13.497
47527W        W 8893  16.102  43.421  13.827
47528W        W 8894  40.406  14.594  14.358
47529W        W 8895  15.818   0.894   0.275
47530W        W 8896   3.831  31.015  11.003
47531W        W 8897  25.541  26.604  12.554
47532W        W 8898   9.227  17.615  14.366
47533W        W 8899  39.449  17.694   2.743
47534W        W 8900   4.328  31.460  13.499
47535W        W 8901  23.673  28.520   3.856
47536W        W 8902   5.223  26.121   0.343
47537W        W 8903  44.282  42.864   1.406
47538W        W 8904   8.709   9.247   2.402
47539W        W 8905  14.104  37.420   0.322
47540W        W 8906  15.241  12.318   5.101
47541W        W 8907   9.698   6.677  13.820
47542W        W 8908   5.213  32.574  14.936
47543W        W 8909  23.715  28.473  12.930
47544W        W 8910   8.780  16.188  10.897
47545W        W 8911  41.808   7.788   0.327
47546W        W 8912  14.608  42.958   1.284
47547W        W 8913  16.254  25.533   4.727
47548W        W 8914  31.540  43.945  11.866
47549W        W 8915  31.931   0.954   0.800
47550W        W 8916  34.560   6.876  11.019
47551W        W 8917  39.319  26.070  13.869
47552W        W 8918   4.829  33.553  13.533
47553W        W 8919  31.065  22.605  14.421
47554W        W 8920  34.047  28.622   2.831
47555W        W 8921  43.927  17.616   4.305
47556W        W 8922  42.934   2.809   1.357
47557W        W 8923   4.755  22.016  13.362
47558W        W 8924  19.661  39.054   2.314
47559W        W 8925  42.428  22.568   4.353
47560W        W 8926  33.563  14.687  11.101
47561W        W 8927  31.588  14.335  12.471
47562W        W 8928   4.446  15.215   9.999
47563W        W 8929  44.489  22.617   1.293
47564W        W 8930   9.227  29.479   3.805
47565W        W 8931   9.653  36.935  13.341
47566W        W 8932   5.800   4.740   3.260
47567W        W 8933  16.192  21.058  12.373
47568W        W 8934  15.286  17.655   2.720
47569W        W 8935   8.369  44.376   1.238
47570W        W 8936   6.905  27.616  13.309
47571W        W 8937  14.730   8.869   2.876
47572W        W 8938  28.174  42.878   1.725
47573W        W 8939  12.849  17.090  12.059
47574W        W 8940   7.245  26.640  10.936
47575W        W 8941   6.853  34.002  14.834
47576W        W 8942  31.427   9.350   4.632
47577W        W 8943  28.129   1.934   0.742
47578W        W 8944   2.367  21.533   0.867
47579W        W 8945   6.267  29.523  12.452
47580W        W 8946   6.187  44.440   3.846
47581W        W 8947  42.520   1.406  12.540
47582W        W 8948  34.539  31.146   2.189
47583W        W 8949  16.782  29.010   3.177
47584W        W 8950  20.565   9.184  14.926
47585W        W 8951  26.964  40.017   4.754
47586W        W 8952  17.075  13.127   3.710
47587W        W 8953  34.387  32.951   2.304
47588W        W 8954  18.570  10.194  14.841
47589W        W 8955  25.529  43.292  11.552
47590W        W 8956  36.460  29.158  11.372
47591W        W 8957   9.655  42.837  14.800
47592W        W 8958  21.594   5.853  12.506
47593W        W 8959  28.529  13.810  11.010
47594W        W 8960  11.704  12.350   0.293
47595W        W 8961   2.422   3.326  10.556
47596W        W 8962   4.369  38.488   0.329
47597W        W 8963   2.770  29.011   1.923
47598W        W 8964   8.275  30.077   2.870
47599W        W 8965  32.946   0.983  12.470
47600W        W 8966  38.475  16.718   3.384
47601W        W 8967  16.103  30.089   1.714
47602W        W 8968  39.828  30.463  12.980
47603W        W 8969   3.268   3.873  12.465
47604W        W 8970   9.650   8.748  12.558
47605W        W 8971  41.434   1.385  13.423
47606W        W 8972   1.246  20.159  14.382
47607W        W 8973  41.465  30.439   1.795
47608W        W 8974  15.105  37.478  11.923
47609W        W 8975  14.341   8.888  14.861
47610W        W 8976  20.634  11.740  12.854
47611W        W 8977  33.592  36.579  11.589
47612W        W 8978  33.114  39.502  13.441
47613W        W 8979  38.405  31.026   4.302
47614W        W 8980  24.639   9.301   0.323
47615W        W 8981  28.614  37.958   3.370
47616W        W 8982   3.804  17.148   0.437
47617W        W 8983   8.688  19.578  12.981
47618W        W 8984   9.161  16.196   3.339
47619W        W 8985  18.774  31.923  13.821
47620W        W 8986  16.153  22.107  10.925
47621W        W 8987  33.404  38.980   5.793
47622W        W 8988  13.184  27.946   5.200
47623W        W 8989   4.914  39.336  12.067
47624W        W 8990  10.708   8.211  12.921
47625W        W 8991  21.084  23.540  13.330
47626W        W 8992  30.914  30.646   9.998
47627W        W 8993  20.176  36.489   1.332
47628W        W 8994  17.601   4.259   2.401
47629W        W 8995   5.297  36.062   0.273
47630W        W 8996  32.491  19.764   4.209
47631W        W 8997   1.433  10.238  13.520
47632W        W 8998  36.585  12.267   4.744
47633W        W 8999  16.215  10.684  11.612
47634W        W 9000  43.314   6.852   4.352
47635W        W 9001  32.102  23.581  14.813
47636W        W 9002  41.910  28.158   4.302
47637W        W 9003  17.732  36.452  10.512
47638W        W 9004  44.933  37.435  12.852
47639W        W 9005   0.828  22.057   2.789
47640W        W 9006  42.015  43.355  14.462
47641W        W 9007   6.863  23.240  10.604
47642W        W 9008  16.673  13.813  10.054
47643W        W 9009   4.439  43.513   4.803
47644W        W 9010  11.164   1.775  11.090
47645W        W 9011  35.478  32.600  11.891
47646W        W 9012  15.593  15.137  14.858
47647W        W 9013  27.456  34.419  11.544
47648W        W 9014  21.174  29.122  13.531
47649W        W 9015   7.739  44.441  12.972
47650W        W 9016  19.243   0.754   3.819
47651W        W 9017  36.915  43.304  13.935
47652W        W 9018  20.056  27.956  14.421
47653W        W 9019  25.197  24.004   3.355
47654W        W 9020  41.018  17.659   1.850
47655W        W 9021  18.775  26.966   0.775
47656W        W 9022  38.994  27.990   4.196
47657W        W 9023   5.914  14.815   5.129
47658W        W 9024  18.116   8.807   1.875
47659W        W 9025  14.631  10.315   0.482
47660W        W 9026  37.387   1.380  10.476
47661W        W 9027  29.013  29.935  13.883
47662W        W 9028  16.207  32.067  13.919
47663W        W 9029  24.998  20.037   2.349
47664W        W 9030   6.362   6.837  12.995
47665W        W 9031  43.901  35.864  14.999
47666W        W 9032  43.474  20.591   2.386
47667W        W 9033  42.895  34.085   2.266
47668W        W 9034  20.666  27.158   4.300
47669W        W 9035  15.624  44.447   2.879
47670W        W 9036  43.418  40.881   4.788
47671W        W 9037   9.673  35.580   0.885
47672W        W 9038  19.559  35.598   3.367
47673W        W 9039  26.203  25.012   2.830
47674W        W 9040   9.644  29.107   0.740
47675W        W 9041  35.444   1.898   4.296
47676W        W 9042  21.551  21.162  11.073
47677W        W 9043  39.435  23.585   2.760
47678W        W 9044  32.403  27.956   0.777
47679W        W 9045  23.987  17.228   1.772
47680W        W 9046  22.732  12.669  14.818
47681W        W 9047   3.436  40.946  12.373
47682W        W 9048  37.085   0.339   1.892
47683W        W 9049  36.404   8.401   3.327
47684W        W 9050  32.897   3.325   3.689
47685W        W 9051  23.684  39.942   4.232
47686W        W 9052  17.268  41.828   0.371
47687W        W 9053   2.834  37.371   0.442
47688W        W 9054   8.869  17.262   1.295
47689W        W 9055  21.249  23.059  10.529
47690W        W 9056  29.959  37.443  11.412
47691W        W 9057   7.272  31.027   0.823
47692W        W 9058   2.754  10.735  14.786
47693W        W 9059   1.321  32.405   2.278
47694W        W 9060   3.411   4.898  10.099
47695W        W 9061  32.601  10.782  14.787
47696W        W 9062   2.939  16.572  13.312
47697W        W 9063  42.331  25.697   1.433
47698W        W 9064  28.494  17.088  12.464
47699W        W 9065  37.935  25.695  11.426
47700W        W 9066   3.410   1.918   2.228
47701W        W 9067  39.951  35.543   2.221
47702W        W 9068  18.231  18.566   4.721
47703W        W 9069  43.278  12.165  11.590
47704W        W 9070  25.148  27.959  11.411
47705W        W 9071  17.669  13.246   4.250
47706W        W 9072  12.833  36.402   3.338
47707W        W 9073  16.075  28.567  12.386
47708W        W 9074  16.217  41.441   4.729
47709W        W 9075   4.869  37.486  14.798
47710W        W 9076   6.806  34.386   3.759
47711W        W 9077  36.905   1.930  14.353
47712W        W 9078   1.474  30.038  12.533
47713W        W 9079   4.219  32.022   4.228
47714W        W 9080  44.943   9.392   1.326
47715W        W 9081   7.892   4.348   5.611
47716W        W 9082  23.627   1.265   3.759
47717W        W 9083   4.210  23.646   4.200
47718W        W 9084   4.253  10.265   4.176
47719W        W 9085   3.889   3.898   2.767
47720W        W 9086  24.068  34.036  13.952
47721W        W 9087  14.325  43.498  11.955
47722W        W 9088   7.246  39.022   0.837
47723W        W 9089  32.476  31.925  14.942
47724W        W 9090  36.417  20.046   4.220
47725W        W 9091  39.414  27.454   0.470
47726W        W 9092  24.050  24.127  11.104
47727W        W 9093   7.729  23.067   0.432
47728W        W 9094   3.274   6.220   3.648
47729W        W 9095   8.254  35.992  11.476
47730W        W 9096   1.242  13.344  14.313
47731W        W 9097   5.826  10.256  11.399
47732W        W 9098  32.477  10.643  12.089
47733W        W 9099  41.503  41.480  11.612
47734W        W 9100  11.261  11.833   2.190
47735W        W 9101  40.881  17.155  11.385
47736W        W 9102  28.519  11.212   2.207
47737W        W 9103  11.170  14.813  14.446
47738W        W 9104  20.548   9.680   1.901
47739W        W 9105  44.813  15.639   2.341
47740W        W 9106  31.403  32.511   3.218
47741W        W 9107  26.025  38.501  10.494
47742W        W 9108  21.602  40.431  14.359
47743W        W 9109  25.625   1.274  11.979
47744W        W 9110   1.953  27.619  13.443
47745W        W 9111  35.885   9.843   2.694
47746W        W 9112  16.668  28.502  10.947
47747W        W 9113  18.196   2.740  14.361
47748W        W 9114  31.460   1.741   4.678
47749W        W 9115   5.395   9.837  13.859
47750W        W 9116  19.223  33.998  12.497
47751W        W 9117  40.013  35.963  11.934
47752W        W 9118  40.903  43.405   4.750
47753W        W 9119  14.812   6.770  14.308
47754W        W 9120  31.577  22.723   4.278
47755W        W 9121  27.151  26.103   4.306
47756W        W 9122  41.937  21.562  13.524
47757W        W 9123  23.156  36.588  14.313
47758W        W 9124  14.623   2.334  13.886
47759W        W 9125  32.139  36.973  11.930
47760W        W 9126  17.788   2.417  10.477
47761W        W 9127  29.133   5.826  10.505
47762W        W 9128  11.132   8.890   4.714
47763W        W 9129  18.682  11.799   0.441
47764W        W 9130  37.057  21.607  14.504
47765W        W 9131  33.129  26.963   1.813
47766W        W 9132  28.628  38.984   0.301
47767W        W 9133   9.316  30.609  14.885
47768W        W 9134  13.643  37.032  10.503
47769W        W 9135  31.610  44.840  12.039
47770W        W 9136  15.228  41.899   1.391
47771W        W 9137  14.186  26.700   0.919
47772W        W 9138  26.552  21.249  10.418
47773W        W 9139  32.127   2.352   1.787
47774W        W 9140  23.034   2.331   0.394
47775W        W 9141  13.178  28.103   4.187
47776W        W 9142  11.353  21.540  13.376
47777W        W 9143  30.142   6.817  10.525
47778W        W 9144   7.755  39.341  11.438
47779W        W 9145  44.841  44.505  13.838
47780W        W 9146  38.982  43.372   2.277
47781W        W 9147  44.425  18.090  11.880
47782W        W 9148  35.970  32.499  11.982
47783W        W 9149   1.957  41.024   1.846
47784W        W 9150  36.962  14.799   2.369
47785W        W 9151  23.110  29.970  11.606
47786W        W 9152   8.729  11.643  11.858
47787W        W 9153   9.783  29.080   4.335
47788W        W 9154  28.447  14.119   1.824
47789W        W 9155  37.007   8.832  10.442
47790W        W 9156  33.896  31.520   3.254
47791W        W 9157  24.118   2.951  11.932
47792W        W 9158  34.387  22.120  11.955
47793W        W 9159  37.010  44.498  14.021
47794W        W 9160   8.720  42.884  13.915
47795W        W 9161  18.111  38.510   1.875
47796W        W 9162  23.081  42.312   1.248
47797W        W 9163  39.908  21.192  13.349
47798W        W 9164  44.955  22.704   4.159
47799W        W 9165  22.686  18.208   1.829
47800W        W 9166   1.785  12.355   2.902
47801W        W 9167   4.766   0.365   3.640
47802W        W 9168   4.700  37.064   2.271
47803W        W 9169  12.121   2.354  10.535
47804W        W 9170   7.355  15.233   3.848
47805W        W 9171   1.468  33.408  13.805
47806W        W 9172  18.652  38.003   4.814
47807W        W 9173  31.596  18.223  13.315
47808W        W 9174  13.719  28.946   1.748
47809W        W 9175   6.384  27.655  11.045
47810W        W 9176  20.712  19.764   2.807
47811W        W 9177   0.930  42.909  12.934
47812W        W 9178  35.087   1.426   0.849
47813W        W 9179   1.256  20.206   3.738
47814W        W 9180  31.530  43.975   0.807
47815W        W 9181  15.144  42.852  14.466
47816W        W 9182  16.239  33.451   3.351
47817W        W 9183  17.296  10.287   9.931
47818W        W 9184  27.064  44.988  11.025
47819W        W 9185  36.846   8.273  12.916
47820W        W 9186  43.512  17.077   4.750
47821W        W 9187  39.355   9.361   3.277
47822W        W 9188  23.516  14.155  12.426
47823W        W 9189   6.768  40.411  13.364
47824W        W 9190  32.942  24.029   1.699
47825W        W 9191  39.372  43.950  11.964
47826W        W 9192  36.930   5.842  11.115
47827W        W 9193  16.283  10.255  12.961
47828W        W 9194  30.650   3.870  14.971
47829W        W 9195  11.342  31.634  12.910
47830W        W 9196  17.259   1.265  10.583
47831W        W 9197  23.183  28.058  10.541
47832W        W 9198   0.972   0.288   1.300
47833W        W 9199  44.280  11.373  13.797
47834W        W 9200   9.739  15.589  15.000
47835W        W 9201   5.344  44.990   2.185
47836W        W 9202  33.599  39.327  14.342
47837W        W 9203  25.027  24.711   2.402
47838W        W 9204  33.597   9.798  13.501
47839W        W 9205  16.210   2.741  13.050
47840W        W 9206  17.251  27.615   1.859
47841W        W 9207  44.272   3.403   4.296
47842W        W 9208  22.557  39.557  13.528
47843W        W 9209  18.726  29.517   0.959
47844W        W 9210   6.775  22.555   0.480
47845W        W 9211   9.887  34.988  11.458
47846W        W 9212  41.469  10.358  14.405
47847W        W 9213  35.467  19.249   3.350
47848W        W 9214  25.160  23.659   0.304
47849W        W 9215   4.399   1.862  11.113
47850W        W 9216  27.605  25.622  10.428
47851W        W 9217  21.155  37.581   4.677
47852W        W 9218  14.306  39.925   4.226
47853W        W 9219  12.215  24.479   4.162
47854W        W 9220  11.692   5.298  14.013
47855W        W 9221  21.063  33.449   2.867
47856W        W 9222   3.390   5.841  11.955
47857W        W 9223  37.954  26.083  11.001
47858W        W 9224  16.708  28.136   0.456
47859W        W 9225  10.236  35.480  12.499
47860W        W 9226   3.936  24.545  12.348
47861W        W 9227  34.059  23.540   3.870
47862W        W 9228  23.504  18.705  11.941
47863W        W 9229  16.248   2.895  11.937
47864W        W 9230  33.874  23.040  10.585
47865W        W 9231  39.324  13.803  11.961
47866W        W 9232  35.879  17.074   1.900
47867W        W 9233  15.818  33.436  13.420
47868W        W 9234  21.684  33.580  14.794
47869W        W 9235  34.605  16.582   3.376
47870W        W 9236  26.492  14.604   0.401
47871W        W 9237   0.451  28.137  13.543
47872W        W 9238  12.689  41.518  14.869
47873W        W 9239  10.786  13.668   3.744
47874W        W 9240  13.673  40.917  13.023
47875W        W 9241  22.686   9.364   0.432
47876W        W 9242  13.233  44.862  14.281
47877W        W 9243  23.736   5.875   1.251
47878W        W 9244  13.206  34.547   4.750
47879W        W 9245  44.960   9.855   1.746
47880W        W 9246   9.331  23.098  10.458
47881W        W 9247  43.418  30.487  13.439
47882W        W 9248  11.703  14.182   2.323
47883W        W 9249  30.642  30.500   4.194
47884W        W 9250  13.728   5.882   0.770
47885W        W 9251  28.076  24.705  13.367
47886W        W 9252  11.150  38.912   0.289
47887W        W 9253  34.511  29.592  13.937
47888W        W 9254  19.165  26.163  11.547
47889W        W 9255  33.099  13.170   0.463
47890W        W 9256  29.438  44.314  12.373
47891W        W 9257  28.144   1.778   0.318
47892W        W 9258   9.169  37.029  14.888
47893W        W 9259  11.193   4.377   2.390
47894W        W 9260  36.475  19.249  13.485
47895W        W 9261  36.029  19.079   3.815
47896W        W 9262  21.621  42.909  14.441
47897W        W 9263  25.515  40.512   1.374
47898W        W 9264  30.480  21.742  12.952
47899W        W 9265  12.751  28.159  12.353
47900W        W 9266  44.462   2.849   4.310
47901W        W 9267   9.308  18.705  14.846
47902W        W 9268  15.199  38.856   0.811
47903W        W 9269   5.771  22.039  12.436
47904W        W 9270  11.761  32.985   5.264
47905W        W 9271   1.457  12.221   2.285
47906W        W 9272   3.810   6.228   2.324
47907W        W 9273  31.115  41.813  13.894
47908W        W 9274   2.452  44.938  14.287
47909W        W 9275  12.277  21.070  10.634
47910W        W 9276  20.107  20.534  10.410
47911W        W 9277   2.243  24.620   1.395
47912W        W 9278  28.600  13.719   1.697
47913W        W 9279  41.994  26.615  12.959
47914W        W 9280  36.420  42.453  12.086
47915W        W 9281   1.456  29.590   4.669
47916W        W 9282  22.234  20.060   4.612
47917W        W 9283   6.745  44.995  12.007
47918W        W 9284  29.000  10.755  14.837
47919W        W 9285  25.594  17.272  12.986
47920W        W 9286   8.347   4.919  13.508
47921W        W 9287  40.029  40.361  14.825
47922W        W 9288  17.636   8.803  12.927
47923W        W 9289  38.459  37.907   2.212
47924W        W 9290   8.257   1.383  10.588
47925W        W 9291   8.798  25.016  11.572
47926W        W 9292   4.797  25.637   4.768
47927W        W 9293   9.732  29.157   3.325
47928W        W 9294   0.386  15.104   2.694
47929W        W 9295  44.376  43.966   9.944
47930W        W 9296  34.952   7.901   3.387
47931W        W 9297  31.989   4.314   1.698
47932W        W 9298  17.061  33.503   0.483
47933W        W 9299  11.313   9.163   2.733
47934W        W 9300  32.425  20.062   2.332
47935W        W 9301  37.939  22.611  10.424
47936W        W 9302  21.074  13.743  12.978
47937W        W 9303  40.516   4.773  11.060
47938W        W 9304  33.046   4.427  11.479
47939W        W 9305  30.435   8.189   3.670
47940W        W 9306  35.091   4.884   3.711
47941W        W 9307  39.043  34.566  10.465
47942W        W 9308  11.781  15.680   0.799
47943W        W 9309  10.856  15.222   2.394
47944W        W 9310  16.282  39.354   0.243
47945W        W 9311  34.401  31.575  11.062
47946W        W 9312  13.826   8.663   4.676
47947W        W 9313  29.622  32.046   5.113
47948W        W 9314  24.974   7.366  12.908
47949W        W 9315  21.553  16.169   4.627
47950W        W 9316  38.880  24.497  10.538
47951W        W 9317  33.416   7.201   9.964
47952W        W 9318  12.283   9.882  12.951
47953W        W 9319  38.500  25.017  11.061
47954W        W 9320  25.199  20.694  11.560
47955W        W 9321  13.755   7.722  12.544
47956W        W 9322  26.972   6.792  11.467
47957W        W 9323   5.896  33.557  11.599
47958W        W 9324  30.518   0.428  13.847
47959W        W 9325  34.563  19.064  12.908
47960W        W 9326   5.906  21.578   1.410
47961W        W 9327   8.240  37.358  14.371
47962W        W 9328   8.736  42.324  13.519
47963W        W 9329  18.602  10.760   3.343
47964W        W 9330   7.242   8.719   2.373
47965W        W 9331   6.348  21.222  12.921
47966W        W 9332  27.129  37.369   0.387
47967W        W 9333  41.925  20.239   3.205
47968W        W 9334   8.732   7.183   1.813
47969W        W 9335  41.357  29.645   0.872
47970W        W 9336  11.139  11.131  11.400
47971W        W 9337  22.724  33.095  12.520
47972W        W 9338  44.328  34.001  14.767
47973W        W 9339  38.063  33.594   4.124
47974W        W 9340  35.927  28.981  11.111
47975W        W 9341  14.136  33.460  11.052
47976W        W 9342  39.013  15.289   3.629
47977W        W 9343  39.956  44.260  13.983
47978W        W 9344  24.061  22.102  14.891
47979W        W 9345  35.498   0.921   0.344
47980W        W 9346  23.591  19.043   4.735
47981W        W 9347  12.279  39.002   3.785
47982W        W 9348  38.463  25.058   0.296
47983W        W 9349  35.474  18.633  10.573
47984W        W 9350  29.453  19.179   4.348
47985W        W 9351  32.518  19.707  10.040
47986W        W 9352  25.191  28.487   0.368
47987W        W 9353  12.801  11.353  13.332
47988W        W 9354   2.836   1.778  14.337
47989W        W 9355  20.565   4.759   0.386
47990W        W 9356   0.982  13.812   3.206
47991W        W 9357  22.235   3.710   1.363
47992W        W 9358  28.946   2.459   2.665
47993W        W 9359   5.278   9.660   2.259
47994W        W 9360  12.141  21.173   0.775
47995W        W 9361  23.572  25.520   0.965
47996W        W 9362  35.488  33.507   3.848
47997W        W 9363  23.116  16.120   0.274
47998W        W 9364  32.573  27.633   1.391
47999W        W 9365  26.535  43.385   0.443
48000W        W 9366  14.152  25.682   3.735
48001W        W 9367  21.537  32.099   3.699
48002W        W 9368  17.586  22.689   2.224
48003W        W 9369  35.569  17.682  13.852
48004W        W 9370  40.322  11.810  10.459
48005W        W 9371  31.454   1.828  14.462
48006W        W 9372  20.051  41.855  10.927
48007W        W 9373  23.605   7.340  13.918
48008W        W 9374  36.430  33.999   4.635
48009W        W 9375  12.193  41.029  11.444
48010W        W 9376  19.663  29.939  10.603
48011W        W 9377  26.634  24.590   0.464
48012W        W 9378  22.110  40.979   4.777
48013W        W 9379  18.269  19.149   0.844
48014W        W 9380   2.257  35.425   3.148
48015W        W 9381  32.122  40.949   1.708
48016W        W 9382  30.658  22.067   0.813
48017W        W 9383   8.868  33.402  13.448
48018W        W 9384   5.762  34.013  12.370
48019W        W 9385   0.833  18.717  12.011
48020W        W 9386  43.899  21.130   3.636
48021W        W 9387  35.886  32.437  13.836
48022W        W 9388   2.457  25.560   9.937
48023W        W 9389  39.032  40.968  12.840
48024W        W 9390  44.395   5.321   4.776
48025W        W 9391  25.550  41.530   2.855
48026W        W 9392  11.747  39.415  12.046
48027W        W 9393   2.397  43.929   1.240
48028W        W 9394  43.012  12.241   4.136
48029W        W 9395  43.456   9.650  13.423
48030W        W 9396   5.816  31.984   0.313
48031W        W 9397  38.557   8.170   3.349
48032W        W 9398  13.319  37.002  13.345
48033W        W 9399  18.587  14.763  14.357
48034W        W 9400  33.116   1.816  14.934
48035W        W 9401  15.615  36.924   3.260
48036W        W 9402   9.204  35.943   0.268
48037W        W 9403  43.442  22.716  11.494
48038W        W 9404  34.591  16.680  11.857
48039W        W 9405   3.858  24.063   4.239
48040W        W 9406  41.811  29.567  14.794
48041W        W 9407  37.352  18.134   2.762
48042W        W 9408  29.616  26.192   2.188
48043W        W 9409  24.109  13.110  13.031
48044W        W 9410  30.572  36.390  12.973
48045W        W 9411  21.548  34.528   1.383
48046W        W 9412  34.924  41.291   1.341
48047W        W 9413  43.886  13.144   1.374
48048W        W 9414  39.015  33.952  12.485
48049W        W 9415  23.184   2.778   1.817
48050W        W 9416  18.158  11.851  12.379
48051W        W 9417  14.160   7.675   2.263
48052W        W 9418  21.646  32.001   1.227
48053W        W 9419  30.095  40.420   0.430
48054W        W 9420  29.000  27.169  12.852
48055W        W 9421  21.089  35.408   1.414
48056W        W 9422  38.525  38.884  11.471
48057W        W 9423  37.403  12.675  10.083
48058W        W 9424  38.057  37.038   3.849
48059W        W 9425   1.924  41.911   0.259
48060W        W 9426  42.945   8.219  11.023
48061W        W 9427  41.958  14.110  10.441
48062W        W 9428   1.346  20.120   1.222
48063W        W 9429  33.086   7.698  11.016
48064W        W 9430  28.587  32.999   3.630
48065W        W 9431  10.375   3.860   2.742
48066W        W 9432  14.259  43.396   0.900
48067W        W 9433  27.080  34.988  13.888
48068W        W 9434  23.501  38.466   2.378
48069W        W 9435  15.592  32.991   1.333
48070W        W 9436  20.082   1.373   3.377
48071W        W 9437  10.138   4.313   1.402
48072W        W 9438  10.250  28.113   3.222
48073W        W 9439  12.287  35.419   4.756
48074W        W 9440  27.941  35.449  10.901
48075W        W 9441  29.152   9.289   1.417
48076W        W 9442  22.532  17.796   0.765
48077W        W 9443   4.417  41.316  10.563
48078W        W 9444  30.997   2.415   4.209
48079W        W 9445  39.892   9.754  11.004
48080W        W 9446  18.114  28.628   3.258
48081W        W 9447  31.111  36.354  14.395
48082W        W 9448  44.333  22.610   2.888
48083W        W 9449  11.719  18.089  13.841
48084W        W 9450  43.344   2.349  11.909
48085W        W 9451  22.674  39.451   0.778
48086W        W 9452  17.225  36.856   0.727
48087W        W 9453   7.211  14.788   4.712
48088W        W 9454   1.838  34.408   4.204
48089W        W 9455  11.769  21.122   5.287
48090W        W 9456  13.671  33.462   2.760
48091W        W 9457  16.742   7.828  10.971
48092W        W 9458  19.171  11.175   1.919
48093W        W 9459   1.775  20.740   0.910
48094W        W 9460   0.944  33.393   2.326
48095W        W 9461  34.109  38.505   0.307
48096W        W 9462   2.276  19.092  14.452
48097W        W 9463  29.045  10.761  14.443
48098W        W 9464  41.802   7.341   2.836
48099W        W 9465   8.660   6.351   0.407
48100W        W 9466  43.312  38.042   4.133
48101W        W 9467  36.410  36.035   0.295
48102W        W 9468   4.287  22.091  11.067
48103W        W 9469  21.648   5.306   1.717
48104W        W 9470   0.832   9.365   1.297
48105W        W 9471   8.806  41.458   4.239
48106W        W 9472  21.697  19.211  14.280
48107W        W 9473  14.229  21.704  11.499
48108W        W 9474   5.783   1.940   0.253
48109W        W 9475  12.796   6.242   2.281
48110W        W 9476  10.253  27.589  13.393
48111W        W 9477  12.272  22.513  13.528
48112W        W 9478  34.896  15.810   4.113
48113W        W 9479  44.909  20.073  11.589
48114W        W 9480  17.588  18.294   4.272
48115W        W 9481  33.928  28.172  10.579
48116W        W 9482   3.880  33.880  14.279
48117W        W 9483  31.111  20.748  12.025
48118W        W 9484  32.577  29.662  10.967
48119W        W 9485  14.827   8.192  13.028
48120W        W 9486   1.377  25.517  11.039
48121W        W 9487  37.053  17.724   1.236
48122W        W 9488  18.790  36.372  10.449
48123W        W 9489  23.170   4.347   1.901
48124W        W 9490  39.428  40.365  14.477
48125W        W 9491   9.296   0.971   0.752
48126W        W 9492   1.737   1.255  14.955
48127W        W 9493  24.682  28.136   2.802
48128W        W 9494  11.818  37.832   4.776
48129W        W 9495   0.349  30.529  14.298
48130W        W 9496   5.758  13.104   4.747
48131W        W 9497   7.759  44.831  12.094
48132W        W 9498  43.892   0.446   4.717
48133W        W 9499  27.571  21.197  12.580
48134W        W 9500  41.348  10.309  13.525
48135W        W 9501  24.062  39.825   0.406
48136W        W 9502  15.240  13.732  10.077
48137W        W 9503  37.579   0.473   4.794
48138W        W 9504  10.703  22.015  11.420
48139W        W 9505  41.833  16.240   0.904
48140W        W 9506  27.079  42.882   1.237
48141W        W 9507  38.954  36.952  12.543
48142W        W 9508  24.483  33.387  13.054
48143W        W 9509   5.205  14.638   3.797
48144W        W 9510   6.899   0.745  12.056
48145W        W 9511  18.699  40.839  10.634
48146W        W 9512  33.622  39.942  13.909
48147W        W 9513  32.408  26.585  10.927
48148W        W 9514  26.013  15.289   0.893
48149W        W 9515  33.002  28.519  13.847
48150W        W 9516   9.218   7.757  13.864
48151W        W 9517  42.841  32.481  11.415
48152W        W 9518  26.615  27.100  14.901
48153W        W 9519  32.941  22.561   1.434
48154W        W 9520  20.165  22.230  11.470
48155W        W 9521   7.388  25.983   4.191
48156W        W 9522  32.470  34.893   4.683
48157W        W 9523   5.406   8.357   1.752
48158W        W 9524  17.205  42.321  10.928
48159W        W 9525  17.235  18.782   4.223
48160W        W 9526  39.421  42.383   2.281
48161W        W 9527  17.092  13.151   2.368
48162W        W 9528  36.853  26.590  10.539
48163W        W 9529  34.090   2.420  12.554
48164W        W 9530  19.088  39.955  12.882
48165W        W 9531   3.327   8.404   1.423
48166W        W 9532  31.039  20.191  13.949
48167W        W 9533  29.010   2.831   0.796
48168W        W 9534  43.798  36.455  13.967
48169W        W 9535  13.261  19.602  14.288
48170W        W 9536  21.681  27.541   3.695
48171W        W 9537  19.660  31.107  10.988
48172W        W 9538  27.980  38.053  12.028
48173W        W 9539  19.755  22.241  11.532
48174W        W 9540  14.647   1.961   4.282
48175W        W 9541  42.977  19.777   9.979
48176W        W 9542  15.663  13.834   3.807
48177W        W 9543  14.807  12.149   0.915
48178W        W 9544  40.412  35.918  11.490
48179W        W 9545  43.335  17.258   2.290
48180W        W 9546  33.121   5.908   1.294
48181W        W 9547  41.304  25.211  13.545
48182W        W 9548  28.056   7.389  10.966
48183W        W 9549   1.781  22.184   3.718
48184W        W 9550   7.880  35.011   0.739
48185W        W 9551   3.264   9.706  10.942
48186W        W 9552  29.622  29.097   0.828
48187W        W 9553  14.271   6.676   3.699
48188W        W 9554  22.140  32.433  10.519
48189W        W 9555   6.829  32.502   0.361
48190W        W 9556  44.314  32.020  14.330
48191W        W 9557  25.150   5.929  12.503
48192W        W 9558  43.984  21.167   4.607
48193W        W 9559  43.843  38.901   2.757
48194W        W 9560  34.117  25.086  14.412
48195W        W 9561  15.145  16.730  14.021
48196W        W 9562  17.081  25.158   2.308
48197W        W 9563  41.292   1.263   2.811
48198W        W 9564  18.217  21.588  14.328
48199W        W 9565   6.796  43.284   1.928
48200W        W 9566  24.182   3.390   2.687
48201W        W 9567  44.280   6.719  10.601
48202W        W 9568  10.152  20.541   2.267
48203W        W 9569  34.530  28.621   2.791
48204W        W 9570  30.523  36.556   4.243
48205W        W 9571  41.006  35.066   2.213
48206W        W 9572  18.664  16.628  12.531
48207W        W 9573  30.013  27.533  13.535
48208W        W 9574  24.147  15.815  11.873
48209W        W 9575  37.989  37.430  14.022
48210W        W 9576  33.044  10.295  14.314
48211W        W 9577  14.784  27.571   2.816
48212W        W 9578  42.819  41.435  11.591
48213W        W 9579  16.699  28.575  13.401
48214W        W 9580  17.607  32.516   9.942
48215W        W 9581  21.161  36.990  14.850
48216W        W 9582   1.967  38.825  14.922
48217W        W 9583   3.405  33.129  10.631
48218W        W 9584   6.826  44.997   3.276
48219W        W 9585   4.730  26.996  14.280
48220W        W 9586  36.573  18.676  14.372
48221W        W 9587   5.342   8.309   0.866
48222W        W 9588  24.664  20.156   1.420
48223W        W 9589  38.408   5.909   4.789
48224W        W 9590  43.017   9.314  10.451
48225W        W 9591  16.180   4.832   4.156
48226W        W 9592  10.728  25.598   4.195
48227W        W 9593  11.662  26.555  14.313
48228W        W 9594  38.873  37.845   0.868
48229W        W 9595   8.669   9.390   4.824
48230W        W 9596  24.182   0.376  11.910
48231W        W 9597  38.061  27.529   1.284
48232W        W 9598  12.315  32.571   1.440
48233W        W 9599  31.942  23.054   0.869
48234W        W 9600  27.971   9.366  11.893
48235W        W 9601  21.177   7.224   1.250
48236W        W 9602  34.604  25.666  11.885
48237W        W 9603  22.074  43.794  12.945
48238W        W 9604  22.569   1.252  13.012
48239W        W 9605   3.857   1.427  10.905
48240W        W 9606   7.190   3.875  14.918
48241W        W 9607  18.102  35.488  14.910
48242W        W 9608  20.260  10.286  11.483
48243W        W 9609  26.998  17.725  14.865
48244W        W 9610  32.602  24.624   3.309
48245W        W 9611  24.520   4.420  13.540
48246W        W 9612   1.885  33.982  14.340
48247W        W 9613  27.947  15.112  14.947
48248W        W 9614  11.340  14.307  12.574
48249W        W 9615   3.923  28.589   0.410
48250W        W 9616  43.337  21.033  12.482
48251W        W 9617   7.191  15.304   1.262
48252W        W 9618  28.519  24.125  12.457
48253W        W 9619  30.006  21.594   4.607
48254W        W 9620  15.159   5.239  10.559
48255W        W 9621  33.902  36.095   0.248
48256W        W 9622  19.689  21.110   3.277
48257W        W 9623  13.692  10.672  14.020
48258W        W 9624  32.486  39.991   3.668
48259W        W 9625   1.322  42.915   1.746
48260W        W 9626  40.923  10.259   4.219
48261W        W 9627  22.688  16.583  11.511
48262W        W 9628  11.136  16.084   0.783
48263W        W 9629  25.999  20.229   0.323
48264W        W 9630  42.515  16.248  11.047
48265W        W 9631   5.763  32.123  12.040
48266W        W 9632  13.324  39.412  12.930
48267W        W 9633  38.525  28.173   4.648
48268W        W 9634  35.492  37.886   1.735
48269W        W 9635  39.858   8.306   2.419
48270W        W 9636  25.573   1.442  13.536
48271W        W 9637   1.959   5.282  10.422
48272W        W 9638  13.231  30.545  13.995
48273W        W 9639  44.320  23.181   2.344
48274W        W 9640  43.492   7.837  14.844
48275W        W 9641  37.852  19.171   3.309
48276W        W 9642  19.135   3.871  11.000
48277W        W 9643  44.966  40.896  14.784
48278W        W 9644  39.866  22.206  10.923
48279W        W 9645  30.051  33.909   1.926
48280W        W 9646  40.340  38.900   3.640
48281W        W 9647  42.506  14.626   0.274
48282W        W 9648  33.532  44.773   0.249
48283W        W 9649  31.039  39.452   4.354
48284W        W 9650  44.269  43.980   2.188
48285W        W 9651  41.292  16.117  14.934
48286W        W 9652   7.295  43.960   3.155
48287W        W 9653  29.450  15.125   3.237
48288W        W 9654   8.182  15.281   1.886
48289W        W 9655  12.209  29.921   3.688
48290W        W 9656  12.348  16.187  12.889
48291W        W 9657  37.421  33.125  12.053
48292W        W 9658  26.189  15.711  13.400
48293W        W 9659  15.216  43.857   2.274
48294W        W 9660   2.934  17.183  12.521
48295W        W 9661  24.500  12.776  13.340
48296W        W 9662  43.791  41.483  13.534
48297W        W 9663  35.406  17.615   4.693
48298W        W 9664  17.588   7.223   2.732
48299W        W 9665  10.843  27.590   3.739
48300W        W 9666  14.262  26.620   4.765
48301W        W 9667  21.731   8.370  14.765
48302W        W 9668  33.542  41.954  13.407
48303W        W 9669   8.863  13.177  13.060
48304W        W 9670  35.565   6.191  12.827
48305W        W 9671  34.550  28.060  11.560
48306W        W 9672  23.698  38.561  12.433
48307W        W 9673  12.856  20.063   3.766
48308W        W 9674  15.305  28.615  11.879
48309W        W 9675  35.435   9.832   4.617
48310W        W 9676   0.389   6.309   2.198
48311W        W 9677  22.514  18.748  11.522
48312W        W 9678  37.911   1.301   2.740
48313W        W 9679  32.136  26.518  10.596
48314W        W 9680  24.677  11.279   0.933
48315W        W 9681  20.160  10.681   3.659
48316W        W 9682  23.720   3.430  13.043
48317W        W 9683   5.821   7.804  13.898
48318W        W 9684   8.307  31.140   3.680
48319W        W 9685  14.732  35.924  13.808
48320W        W 9686  21.264  22.708   3.323
48321W        W 9687  13.637  29.109  14.920
48322W        W 9688  38.931  22.228  13.829
48323W        W 9689  21.648   2.958   3.300
48324W        W 9690  39.861  21.668   2.733
48325W        W 9691  41.800  25.213   2.778
48326W        W 9692  24.185  43.808   3.697
48327W        W 9693  29.666  13.840   2.290
48328W        W 9694   9.213  21.552   0.762
48329W        W 9695   1.975  16.205   2.777
48330W        W 9696  43.408   5.434  14.893
48331W        W 9697   4.259  26.627  11.004
48332W        W 9698  32.042  22.164   4.676
48333W        W 9699  28.608  13.686   1.312
48334W        W 9700  36.009   4.718  11.396
48335W        W 9701  36.047  19.122   4.184
48336W        W 9702   3.740  28.677  13.947
48337W        W 9703  33.030  42.497  11.050
48338W        W 9704  16.624  36.023   2.383
48339W        W 9705  16.717  15.139  13.020
48340W        W 9706  36.035  21.220   0.394
48341W        W 9707  23.716   0.416  11.070
48342W        W 9708  43.456  39.531   3.376
48343W        W 9709   8.790  42.908   5.195
48344W        W 9710  33.100  40.460  11.449
48345W        W 9711  13.133  39.477   0.318
48346W        W 9712  39.017  18.714  14.944
48347W        W 9713   4.714  11.763   0.483
48348W        W 9714  33.624  37.968   3.698
48349W        W 9715  34.446  32.020   3.764
48350W        W 9716  35.428   9.378  11.113
48351W        W 9717  27.669   0.480  12.891
48352W        W 9718  31.097  18.691  10.487
48353W        W 9719  17.128  39.512  10.436
48354W        W 9720  38.978  15.165   1.874
48355W        W 9721  11.254  12.159   4.677
48356W        W 9722  43.864  12.794  13.936
48357W        W 9723  25.711  14.680   0.890
48358W        W 9724  14.332   7.344   2.191
48359W        W 9725  15.725  10.669   2.764
48360W        W 9726  35.946  19.133  14.799
48361W        W 9727  10.352  40.006  10.502
48362W        W 9728  20.034  25.694  14.932
48363W        W 9729   9.283  22.602   1.246
48364W        W 9730  21.667  35.415   9.471
48365W        W 9731  21.163  26.612   2.418
48366W        W 9732  39.812  21.526  14.500
48367W        W 9733   3.302   4.273   0.913
48368W        W 9734  43.921  44.921   2.214
48369W        W 9735  41.816   7.227  14.852
48370W        W 9736  35.455  18.555  11.078
48371W        W 9737  20.114  40.955  10.585
48372W        W 9738  44.990   6.832  12.554
48373W        W 9739  42.489  44.466   4.132
48374W        W 9740  32.529  17.754  10.437
48375W        W 9741   7.399  15.099   3.268
48376W        W 9742  38.412   2.852  12.442
48377W        W 9743   3.723  17.245  13.832
48378W        W 9744  13.209  33.127   0.824
48379W        W 9745  11.634  42.919   2.328
48380W        W 9746  13.130  26.197  12.521
48381W        W 9747  26.200   8.202   3.736
48382W        W 9748  22.067  44.304  14.455
48383W        W 9749  22.709  24.619   3.247
48384W        W 9750  40.496   3.295   0.378
48385W        W 9751  15.290  35.863  13.378
48386W        W 9752   8.714  40.811  14.972
48387W        W 9753  34.413  34.467  12.421
48388W        W 9754  25.183  38.046   1.809
48389W        W 9755   0.423  20.744  12.873
48390W        W 9756  30.083  34.887   4.155
48391W        W 9757  31.592  41.787   2.251
48392W        W 9758  19.200   2.230   2.698
48393W        W 9759  44.479   3.721   4.178
48394W        W 9760   6.397  35.581  11.558
48395W        W 9761  24.015  44.834  12.980
48396W        W 9762  43.279  35.055   2.757
48397W        W 9763  30.932   8.824  12.013
48398W        W 9764  19.247  25.129   0.893
48399W        W 9765   9.677  31.978  12.068
48400W        W 9766  44.923   0.777   1.440
48401W        W 9767   9.220   8.199   3.341
48402W        W 9768  21.165  20.116   4.279
48403W        W 9769  37.371  10.268   0.400
48404W        W 9770  39.028   8.289   1.923
48405W        W 9771  12.249  44.960  12.562
48406W        W 9772   1.281  38.534   0.418
48407W        W 9773  38.345  30.990   3.830
48408W        W 9774  22.030  32.449  11.533
48409W        W 9775  29.149  34.481  13.326
48410W        W 9776   2.447  44.778   0.245
48411W        W 9777  41.833   2.367   1.309
48412W        W 9778   1.794  13.171  13.323
48413W        W 9779  40.528  27.596  13.795
48414W        W 9780   2.325  40.307  10.135
48415W        W 9781  14.732   5.258   2.309
48416W        W 9782  16.176   2.424  14.962
48417W        W 9783  44.431  27.565  11.489
48418W        W 9784  16.234   5.882  12.927
48419W        W 9785  19.192  23.502  14.423
48420W        W 9786  29.984  10.222  11.578
48421W        W 9787  42.346   5.320   3.231
48422W        W 9788  18.084   6.207   1.292
48423W        W 9789   0.467  42.873   3.774
48424W        W 9790  41.940  22.549  12.860
48425W        W 9791  22.152  23.186   4.770
48426W        W 9792  28.564  27.503   4.735
48427W        W 9793   1.919  28.441  10.966
48428W        W 9794  15.652  10.361   1.767
48429W        W 9795   8.664  12.617  13.909
48430W        W 9796  14.237   5.722   3.809
48431W        W 9797  29.637  26.971   5.584
48432W        W 9798   3.852  19.271  12.846
48433W        W 9799  33.564  20.706   2.381
48434W        W 9800   3.324  15.626  13.533
48435W        W 9801  40.954  27.080  11.011
48436W        W 9802  19.626  16.093   0.321
48437W        W 9803  33.983  43.855  10.929
48438W        W 9804   0.902  25.175   2.269
48439W        W 9805  32.933   9.651  11.583
48440W        W 9806  36.849   2.807  12.485
48441W        W 9807   5.930  22.206  13.029
48442W        W 9808  16.303  14.731   2.833
48443W        W 9809  32.442  15.136   4.606
48444W        W 9810  27.589  39.503   4.290
48445W        W 9811   8.221   2.893  14.340
48446W        W 9812   5.377  19.750   2.716
48447W        W 9813  18.286  24.176   1.890
48448W        W 9814   2.378  16.077   3.809
48449W        W 9815  28.093  38.487  12.503
48450W        W 9816  21.665  23.716   0.482
48451W        W 9817  19.587  33.615  13.796
48452W        W 9818  13.754  23.035  12.043
48453W        W 9819   1.329  36.038  13.492
48454W        W 9820  31.405  27.001  10.578
48455W        W 9821  40.828  10.169   3.332
48456W        W 9822   1.302  36.058   4.756
48457W        W 9823  33.096  11.828   3.305
48458W        W 9824  36.970  36.895   1.381
48459W        W 9825  44.373   2.297  10.481
48460W        W 9826   8.228  20.594  13.513
48461W        W 9827   1.352  11.647   1.251
48462W        W 9828  41.907  33.075  11.915
48463W        W 9829  42.419  27.034  14.923
48464W        W 9830  12.204  30.516   4.813
48465W        W 9831   0.824  32.906   0.333
48466W        W 9832   6.339  26.162  13.947
48467W        W 9833  35.512  10.818   0.753
48468W        W 9834  41.812   3.919   0.247
48469W        W 9835  22.119  19.046  13.871
48470W        W 9836  44.947  41.950   0.728
48471W        W 9837   9.287  13.273  14.452
48472W        W 9838   4.864  20.606  10.574
48473W        W 9839  13.259  11.276  11.061
48474W        W 9840  20.247  35.043  13.928
48475W        W 9841  11.857  16.691  14.829
48476W        W 9842  23.580  19.704   4.213
48477W        W 9843  34.481  24.607   0.846
48478W        W 9844  35.362  38.879  14.786
48479W        W 9845   4.750  33.970   3.241
48480W        W 9846   0.930  36.575   3.691
48481W        W 9847  32.985  30.918   4.262
48482W        W 9848  12.618  31.488   4.285
48483W        W 9849  12.692   6.912   4.772
48484W        W 9850  21.580   1.835  13.479
48485W        W 9851  30.018  13.702  11.547
48486W        W 9852  41.440  24.208  11.883
48487W        W 9853  21.696  26.672  11.921
48488W        W 9854  34.959  12.638  12.867
48489W        W 9855  33.501  44.489  14.983
48490W        W 9856  24.112  26.516   3.196
48491W        W 9857  43.464  35.966  11.114
48492W        W 9858  26.981  23.199   3.848
48493W        W 9859   4.300  35.894   0.326
48494W        W 9860  16.780  41.432  12.007
48495W        W 9861   7.301   6.697   9.920
48496W        W 9862  27.569  16.226  12.437
48497W        W 9863   8.788   6.425   2.828
48498W        W 9864  20.142  22.535  12.460
48499W        W 9865  28.539  44.485   0.277
48500W        W 9866  18.619  33.056   2.784
48501W        W 9867  31.438   3.255   4.616
48502W        W 9868  31.038  32.622  10.912
48503W        W 9869  10.863  29.550  13.447
48504W        W 9870  36.854  32.043   1.772
48505W        W 9871  36.354  28.182  12.037
48506W        W 9872  12.766  10.226   1.447
48507W        W 9873  39.317  12.674   1.315
48508W        W 9874  40.994   2.356  13.947
48509W        W 9875  19.708  40.823  13.862
48510W        W 9876  29.108  33.954   4.323
48511W        W 9877  23.576  42.919  14.848
48512W        W 9878  37.050  17.201   0.429
48513W        W 9879  14.738  44.492   2.819
48514W        W 9880  31.006  23.149   4.634
48515W        W 9881   4.212  41.003   1.919
48516W        W 9882   5.406  22.600  10.439
48517W        W 9883  37.995  22.038  10.454
48518W        W 9884  10.713  15.650   2.315
48519W        W 9885  42.400   3.308   0.292
48520W        W 9886  28.676  23.126   1.311
48521W        W 9887  19.687  10.321  14.381
48522W        W 9888   2.291  44.834   1.444
48523W        W 9889   8.244  18.726   2.787
48524W        W 9890   0.441  29.984  10.580
48525W        W 9891  40.035   4.262   1.811
48526W        W 9892  30.990   0.800   2.191
48527W        W 9893  10.377  36.474  14.926
48528W        W 9894   6.732  35.540  11.004
48529W        W 9895  35.061  26.018  12.469
48530W        W 9896   5.831  15.817   0.403
48531W        W 9897  29.570  39.935   0.838
48532W        W 9898  28.062  33.422   0.912
48533W        W 9899  26.536   1.325   3.146
48534W        W 9900  12.139  22.732   3.688
48535W        W 9901  26.193  16.798  13.474
48536W        W 9902   9.713  44.848  12.886
48537W        W 9903   8.729  16.095   3.161
48538W        W 9904  37.063  10.278  11.939
48539W        W 9905  30.141  42.898   1.409
48540W        W 9906  44.374  24.114   2.180
48541W        W 9907   5.429  19.694   3.791
48542W        W 9908  34.580  13.185  11.023
48543W        W 9909  42.336  14.724   3.231
48544W        W 9910   5.201  20.034   2.731
48545W        W 9911  36.066  37.052   4.182
48546W        W 9912  37.541  15.117   2.742
48547W        W 9913  29.032  42.443  13.515
48548W        W 9914  15.788  44.947   2.312
48549W        W 9915  20.122  16.745  10.504
48550W        W 9916  14.291  32.593   0.936
48551W        W 9917  10.756   0.407  14.419
48552W        W 9918  29.551  22.091  14.828
48553W        W 9919   6.344  31.961  13.332
48554W        W 9920  37.482  13.262  14.809
48555W        W 9921  37.422  24.486   0.333
48556W        W 9922  24.216  24.504  11.102
48557W        W 9923   4.342   2.816   0.244
48558W        W 9924  31.515  12.274   1.885
48559W        W 9925   2.362   9.290   4.252
48560W        W 9926  28.576  11.705  13.981
48561W        W 9927  41.890  19.124  14.016
48562W        W 9928   3.316  12.622  11.087
48563W        W 9929  31.975  32.964   0.340
48564W        W 9930  35.055  30.023   0.245
48565W        W 9931  26.097  39.938  11.506
48566W        W 9932  12.353  10.768   1.721
48567W        W 9933  41.882  32.618  14.000
48568W        W 9934  41.797  39.355  13.038
48569W        W 9935  18.217   2.920   0.372
48570W        W 9936   7.197   9.838   1.367
48571W        W 9937  38.867   3.802  13.362
48572W        W 9938  12.212   1.786  12.891
48573W        W 9939  18.730  12.798   0.416
48574W        W 9940  20.117   6.829  13.885
48575W        W 9941  26.690  16.201   3.237
48576W        W 9942  25.678  39.484   1.735
48577W        W 9943  32.569  33.389   9.937
48578W        W 9944  29.114  44.949  10.939
48579W        W 9945  28.526  32.142  14.412
48580W        W 9946  19.629  14.627   0.464
48581W        W 9947  39.429  19.092   0.939
48582W        W 9948  15.120  39.520   2.366
48583W        W 9949  31.503   3.843  12.072
48584W        W 9950  40.307  42.412   0.859
48585W        W 9951  33.480  40.484  11.533
48586W        W 9952  23.232  17.786  11.933
48587W        W 9953  37.553   1.887   0.402
48588W        W 9954  37.548  10.716   4.658
48589W        W 9955  21.522  38.544   1.414
48590W        W 9956   3.813  44.810  13.974
48591W        W 9957   7.277   4.891   1.776
48592W        W 9958  25.572  38.364   4.758
48593W        W 9959  37.030   1.355   1.722
48594W        W 9960  41.015  19.764  14.343
48595W        W 9961  30.539  39.383  13.948
48596W        W 9962  16.318   3.813  13.984
48597W        W 9963  20.245  20.575  14.332
48598W        W 9964  38.523  12.812  10.996
48599W        W 9965  13.157   4.339   0.759
48600W        W 9966  13.836  30.953  13.057
48601W        W 9967  40.428  18.073   2.418
48602W        W 9968   5.249  19.596  11.882
48603W        W 9969  10.301   7.201   4.247
48604W        W 9970  27.615  27.478  13.933
48605W        W 9971  42.491  15.241   4.811
48606W        W 9972   5.761  14.596   5.618
48607W        W 9973  15.662  28.648   1.290
48608W        W 9974  36.025  24.060  10.606
48609W        W 9975  38.562  39.457   2.801
48610W        W 9976  32.474   5.701  11.121
48611W        W 9977  26.511  39.520  11.905
48612W        W 9978  21.573  16.761  11.047
48613W        W 9979  33.894   3.780   2.831
48614W        W 9980  16.617  15.590   5.793
48615W        W 9981  41.363  11.760  12.576
48616W        W 9982  35.581  19.186  13.040
48617W        W 9983  32.434  22.501  13.422
48618W        W 9984  20.178  21.124   2.822
48619W        W 9985   9.744  19.663   1.444
48620W        W 9986  12.183   8.217   0.473
48621W        W 9987   7.402  33.452  13.542
48622W        W 9988   4.248   1.348  13.808
48623W        W 9989  18.136  32.505   0.778
48624W        W 9990   2.924   6.269  11.024
48625W        W 9991  13.343  42.836   9.930
48626W        W 9992  33.593  18.598   2.780
48627W        W 9993  12.788  21.754  10.913
48628W        W 9994  22.226  13.670   0.912
48629W        W 9995  11.698  29.481   1.696
48630W        W 9996  14.133  34.408  13.438
48631W        W 9997  38.883  36.867  14.973
48632W        W 9998  21.594  41.472   1.912
48633W        W 9999  20.594   9.837  11.855
48634W        W10000   3.253   7.889   4.762
48635W        W10001  24.225  38.388   1.210
48636W        W10002   5.236  34.575  13.954
48637W        W10003  20.553  29.170  12.000
48638W        W10004  41.817  23.208  10.930
48639W        W10005  17.121  34.891  13.542
48640W        W10006  41.421  20.045   2.808
48641W        W10007  33.529  16.698  14.294
48642W        W10008  40.972  30.994   0.281
48643W        W10009  25.546  27.599  11.883
48644W        W10010  25.006  38.005   0.893
48645W        W10011   7.388  19.160  13.013
48646W        W10012  33.402  28.565   3.328
48647W        W10013   4.248  12.848  12.009
48648W        W10014  44.804  20.664   0.908
48649W        W10015  19.639   7.728  12.909
48650W        W10016   3.920   5.394  10.584
48651W        W10017  42.808   0.873  11.014
48652W        W10018   6.377  35.531  12.456
48653W        W10019  33.987  34.035   0.798
48654W        W10020  14.638  34.040   3.723
48655W        W10021  36.374   1.882   3.745
48656W        W10022  26.681  16.310  11.080
48657W        W10023   4.865  28.165  11.598
48658W        W10024  39.414  12.632  10.504
48659W        W10025  27.042  21.086   4.114
48660W        W10026   7.353  35.036  12.386
48661W        W10027   6.204  25.650   3.698
48662W        W10028  16.671   8.246   3.705
48663W        W10029   5.368   2.409   9.666
48664W        W10030   6.873   8.760  11.933
48665W        W10031  10.192  30.573   3.384
48666W        W10032  36.532   6.358   4.638
48667W        W10033  13.699  25.667  11.451
48668W        W10034   6.295   7.817   1.307
48669W        W10035  24.045  44.403   4.292
48670W        W10036  28.605   8.202  10.929
48671W        W10037   7.901  28.636   3.768
48672W        W10038  24.496   5.810  13.989
48673W        W10039   7.297  12.325   1.250
48674W        W10040   4.367  29.112   4.136
48675W        W10041   6.807  28.620   1.797
48676W        W10042  40.053  28.544  11.411
48677W        W10043  35.486  25.171  14.833
48678W        W10044  13.143  42.506  10.482
48679W        W10045  29.067  24.555  14.948
48680W        W10046  29.661  19.596  13.898
48681W        W10047  30.483   7.889  11.486
48682W        W10048   7.322  15.142   1.769
48683W        W10049   2.807   5.438   4.598
48684W        W10050  40.513  16.774  10.570
48685W        W10051  25.469  40.471   1.795
48686W        W10052   7.192   0.902  10.614
48687W        W10053  29.079  43.952  13.429
48688W        W10054  42.892  33.429  14.779
48689W        W10055   7.186  21.186  11.435
48690W        W10056  29.541   6.676   4.634
48691W        W10057   8.698   8.858  11.468
48692W        W10058  10.826  10.329  12.497
48693W        W10059  12.151  26.598   2.742
48694W        W10060   9.393  11.630   0.926
48695W        W10061  16.733  34.884  13.923
48696W        W10062   4.809  26.055  14.889
48697W        W10063  40.408  26.102  14.372
48698W        W10064   6.711  23.572  13.842
48699W        W10065  20.191  10.860   1.930
48700W        W10066  42.943  33.028   0.309
48701W        W10067  38.840  41.367   0.312
48702W        W10068  22.098  16.091   2.740
48703W        W10069  38.912  15.822   3.781
48704W        W10070  38.968   0.446   3.280
48705W        W10071  42.281   3.879  11.488
48706W        W10072  22.052  10.307   1.721
48707W        W10073  24.212  39.430  14.822
48708W        W10074  37.058  13.729   2.845
48709W        W10075  27.617   4.855   4.209
48710W        W10076  26.531   4.438  10.929
48711W        W10077  44.275  19.216  11.373
48712W        W10078  39.408  22.620   3.217
48713W        W10079   9.162   2.369  14.020
48714W        W10080  22.176  41.483   0.967
48715W        W10081  31.456  39.473  13.876
48716W        W10082  40.308  30.611   4.700
48717W        W10083  32.122  14.697  10.641
48718W        W10084  40.534  16.114  12.502
48719W        W10085  25.024  28.674  11.581
48720W        W10086  19.185  16.666  12.426
48721W        W10087  33.468  25.582   4.247
48722W        W10088  14.601  28.135  10.459
48723W        W10089   1.298  33.444  12.076
48724W        W10090  13.740  11.756   2.201
48725W        W10091  39.003  27.966  14.481
48726W        W10092   0.257   4.355   4.192
48727W        W10093  14.788  19.622   0.852
48728W        W10094   4.770   3.237  14.926
48729W        W10095   6.264  41.862  14.850
48730W        W10096   8.288  20.064  13.416
48731W        W10097  21.173  41.974   4.686
48732W        W10098  24.120  34.600   1.276
48733W        W10099  22.664  31.921  12.940
48734W        W10100  15.815   6.771   2.261
48735W        W10101  16.304   3.904  10.997
48736W        W10102  43.841  22.533   0.403
48737W        W10103  18.635  21.020  14.283
48738W        W10104  41.380  17.165   3.269
48739W        W10105  23.513  15.226   3.261
48740W        W10106  35.450  16.706  14.020
48741W        W10107  27.087  32.057   0.864
48742W        W10108  12.329   4.818   4.351
48743W        W10109   0.896  29.438   4.691
48744W        W10110  40.893  10.784   0.884
48745W        W10111  29.088   3.306   4.812
48746W        W10112   9.767  20.126   3.647
48747W        W10113   2.294  30.091   2.416
48748W        W10114  35.037  35.588   4.806
48749W        W10115   7.220  34.468   1.318
48750W        W10116  35.941  41.885   4.189
48751W        W10117  39.915   6.886   3.226
48752W        W10118  15.595  24.096   2.744
48753W        W10119   6.318  41.419  11.103
48754W        W10120  28.510  17.223  10.960
48755W        W10121  44.754  17.284  11.521
48756W        W10122  38.504  11.178  14.968
48757W        W10123  38.929  15.328  10.020
48758W        W10124  16.570  24.023  14.276
48759W        W10125  26.060  21.589   1.879
48760W        W10126  30.467  13.337  11.421
48761W        W10127   4.381  19.546  10.954
48762W        W10128  38.459  35.993  12.494
48763W        W10129   9.352  21.248  12.002
48764W        W10130  38.500   0.809  14.882
48765W        W10131  14.603   4.424   0.938
48766W        W10132  43.301  13.726   0.945
48767W        W10133  32.402  13.617   0.365
48768W        W10134  44.933  11.278  13.477
48769W        W10135  29.526  11.256  13.926
48770W        W10136  11.155  14.739   3.690
48771W        W10137   4.918  41.016   1.823
48772W        W10138   6.717   5.698   4.310
48773W        W10139  25.640  40.448   2.742
48774W        W10140   3.253  28.501   1.753
48775W        W10141  12.144   7.833   2.194
48776W        W10142  24.056  41.518   0.745
48777W        W10143  32.930   9.266  11.880
48778W        W10144  40.872  15.229  14.967
48779W        W10145  11.223  38.996   3.854
48780W        W10146   6.888  22.519   2.282
48781W        W10147  35.386  28.086  12.833
48782W        W10148  12.748  11.748   3.672
48783W        W10149  16.257  26.003  11.005
48784W        W10150  14.748   5.239  12.012
48785W        W10151  10.236  37.029   1.283
48786W        W10152   7.904  27.561  13.344
48787W        W10153  34.116  22.639  14.907
48788W        W10154   7.312  34.478   3.287
48789W        W10155  41.496  27.039  14.028
48790W        W10156   4.702  39.946   5.091
48791W        W10157  43.811  34.494   1.413
48792W        W10158  14.818  43.887  11.877
48793W        W10159  10.256  15.752  12.971
48794W        W10160  42.504  11.724   4.138
48795W        W10161  44.382  42.406  10.410
48796W        W10162  29.957  26.561   1.321
48797W        W10163  21.107   6.812  11.886
48798W        W10164  31.466  17.248  13.372
48799W        W10165   5.337  13.834   2.735
48800W        W10166  13.738  22.726  13.401
48801W        W10167   7.765   8.349   2.269
48802W        W10168  29.506   0.267  10.464
48803W        W10169  38.381   2.465  12.366
48804W        W10170  38.844  21.749   2.800
48805W        W10171  32.512  14.720   0.402
48806W        W10172  15.127   3.297   5.152
48807W        W10173  38.992  28.462  10.483
48808W        W10174  35.439  39.396  10.603
48809W        W10175  19.758  35.891  13.828
48810W        W10176  44.355  36.360  14.381
48811W        W10177  27.601  13.132   2.715
48812W        W10178  30.600  19.217  12.435
48813W        W10179   6.287  12.720  10.006
48814W        W10180  38.441  10.261  11.058
48815W        W10181  28.965   8.888  11.013
48816W        W10182  22.600  21.701  11.931
48817W        W10183   0.374  35.570   4.268
48818W        W10184  38.496   7.757  10.535
48819W        W10185  24.186  36.997   1.351
48820W        W10186  37.364  33.537  11.027
48821W        W10187  21.129  15.193   4.240
48822W        W10188  43.988  30.578   2.281
48823W        W10189  33.082  19.551   5.608
48824W        W10190  15.127  16.310   3.847
48825W        W10191   0.400   0.263  14.815
48826W        W10192  20.051  30.932  14.973
48827W        W10193  40.902  43.378  12.826
48828W        W10194  13.747  31.934   1.308
48829W        W10195   0.373  40.545  10.917
48830W        W10196  24.130   3.261   3.671
48831W        W10197  27.609  21.600   9.931
48832W        W10198  14.258  10.283   1.438
48833W        W10199  44.464  15.247   4.818
48834W        W10200  36.021  16.626  10.485
48835W        W10201   0.424  29.158   2.695
48836W        W10202  14.676  28.498   2.834
48837W        W10203  14.169  11.286  12.465
48838W        W10204  25.982   3.289  13.540
48839W        W10205   4.285  21.225  12.991
48840W        W10206  43.909  18.612   4.646
48841W        W10207  17.617  24.073   2.374
48842W        W10208  19.071  21.574   4.803
48843W        W10209  19.547  11.701  11.064
48844W        W10210  11.190  10.803   3.327
48845W        W10211  18.206   7.907   0.914
48846W        W10212   2.405  34.461   1.323
48847W        W10213   4.272  43.990  13.992
48848W        W10214  29.476   6.690   0.964
48849W        W10215  28.462  43.284   2.668
48850W        W10216  33.995   0.329   0.441
48851W        W10217  24.099  13.602  12.910
48852W        W10218  28.569  38.477   2.325
48853W        W10219   4.348  37.572   4.820
48854W        W10220  41.900  15.806   4.338
48855W        W10221  29.956   3.753  12.829
48856W        W10222  10.763  39.857   3.208
48857W        W10223   7.666  26.078  14.029
48858W        W10224   6.341  19.164   0.313
48859W        W10225  39.823  42.924   9.932
48860W        W10226  29.061  39.380  14.972
48861W        W10227  31.553   7.845   1.211
48862W        W10228  44.395  12.203   3.683
48863W        W10229  30.926  39.933   1.291
48864W        W10230  33.438  41.931   2.686
48865W        W10231  19.094  14.280   3.816
48866W        W10232  33.479  10.878   4.143
48867W        W10233   1.808  27.460   4.746
48868W        W10234  12.141   8.331   1.814
48869W        W10235  40.450  42.402   4.339
48870W        W10236   7.792  26.677   3.315
48871W        W10237   4.909  21.741  12.440
48872W        W10238   0.324  21.536  12.423
48873W        W10239  26.479  32.418  13.456
48874W        W10240  21.238  22.048   0.292
48875W        W10241  28.113  44.883   3.321
48876W        W10242  23.071   5.399  13.869
48877W        W10243  19.568  42.983  14.480
48878W        W10244   8.817  14.184  12.025
48879W        W10245   1.901  14.781  12.381
48880W        W10246  14.634  13.645  10.639
48881W        W10247  32.888  36.462  12.863
48882W        W10248  20.628   2.339   0.354
48883W        W10249  25.611  18.211  14.342
48884W        W10250  40.901   5.767  10.625
48885W        W10251  38.047  27.566  12.441
48886W        W10252   2.784  21.038  14.968
48887W        W10253   6.724   6.246  12.503
48888W        W10254  27.124  38.344   0.806
48889W        W10255  36.508  25.086  13.902
48890W        W10256  31.095  11.355   3.673
48891W        W10257  11.150  10.211  12.548
48892W        W10258  35.088  20.698  14.305
48893W        W10259  26.022  38.899   1.228
48894W        W10260  24.576  23.171   1.265
48895W        W10261  22.664  34.369  14.950
48896W        W10262  43.402  27.076  14.331
48897W        W10263   7.855  10.669  12.880
48898W        W10264  17.149  25.020   0.870
48899W        W10265  41.360   6.366   2.239
48900W        W10266  10.148  29.139  10.488
48901W        W10267  39.913   3.913   3.726
48902W        W10268  16.194  44.378  11.440
48903W        W10269  23.122  31.402   3.150
48904W        W10270   5.202  31.544  11.043
48905W        W10271  24.083  26.479  13.051
48906W        W10272  23.037  23.985   2.357
48907W        W10273  19.205  31.957   3.670
48908W        W10274  17.671  30.127   2.898
48909W        W10275  16.793  19.675   4.344
48910W        W10276  37.579  14.154  12.902
48911W        W10277  20.562   4.888  14.014
48912W        W10278  14.277  32.123   2.245
48913W        W10279  40.813  11.806  14.984
48914W        W10280  24.724  39.498   2.381
48915W        W10281  24.224  26.038  12.491
48916W        W10282   3.755  30.942   2.374
48917W        W10283  34.932  12.738  11.390
48918W        W10284   9.755   3.341  12.424
48919W        W10285  27.513   6.725   2.232
48920W        W10286  36.550  15.324   4.734
48921W        W10287  31.570  21.027   1.823
48922W        W10288  19.150  10.353  11.983
48923W        W10289   5.837  34.532  14.997
48924W        W10290  37.862  23.511   1.236
48925W        W10291  36.985   5.831  12.535
48926W        W10292   0.793  36.039  10.429
48927W        W10293  38.485  31.589  10.436
48928W        W10294  35.880  12.259   2.228
48929W        W10295  15.266  38.011   3.180
48930W        W10296  35.450  28.488  11.995
48931W        W10297   2.732  36.912   1.366
48932W        W10298  39.913  36.500  10.420
48933W        W10299   6.830  29.999  12.501
48934W        W10300  12.653  22.598   0.726
48935W        W10301   3.838  37.924  11.500
48936W        W10302  21.052  32.421  11.448
48937W        W10303  23.516  15.315   0.407
48938W        W10304  44.373  35.599  13.854
48939W        W10305   6.424  14.827  11.419
48940W        W10306  43.485  22.068   2.710
48941W        W10307  24.065  20.262  13.835
48942W        W10308   8.186  30.088  11.470
48943W        W10309  36.462  38.492  13.939
48944W        W10310  16.732   2.761  12.878
48945W        W10311   5.718  15.814   0.845
48946W        W10312  24.698  26.178  14.429
48947W        W10313  10.189  37.870  11.500
48948W        W10314  42.829  40.361   3.836
48949W        W10315  22.232  34.952   1.425
48950W        W10316  20.722  18.694   2.223
48951W        W10317  18.225  36.404  13.923
48952W        W10318  41.492  31.990  13.968
48953W        W10319  33.558  12.845   5.289
48954W        W10320  12.692   7.236  13.927
48955W        W10321  14.234  33.065   5.314
48956W        W10322   6.899   1.731   0.905
48957W        W10323   4.702  37.915  11.080
48958W        W10324   8.315  20.651  11.966
48959W        W10325  43.429   9.279  11.047
48960W        W10326  20.535  43.861  11.488
48961W        W10327  15.217   3.900  11.520
48962W        W10328  13.321   6.738  13.976
48963W        W10329  23.624   4.421   0.405
48964W        W10330  42.966   4.705   4.320
48965W        W10331   2.428  31.448  11.462
48966W        W10332  33.956  35.511   4.128
48967W        W10333  30.160   7.361  14.333
48968W        W10334  28.128   9.771  10.044
48969W        W10335  32.026  26.620  13.518
48970W        W10336   9.665  25.184   1.730
48971W        W10337  33.971   9.330   2.728
48972W        W10338  26.689  34.547   3.631
48973W        W10339  42.784   0.915  11.487
48974W        W10340  40.952  13.123  12.509
48975W        W10341  32.459  30.152  11.959
48976W        W10342  11.632  43.336  12.556
48977W        W10343   8.656  13.186   4.803
48978W        W10344  10.219   3.900  11.465
48979W        W10345   9.660   2.348  12.851
48980W        W10346   1.967  21.714   4.287
48981W        W10347  28.491  34.933  11.450
48982W        W10348  14.778  41.331   9.951
48983W        W10349   7.367   0.952  14.871
48984W        W10350  24.556  23.096   1.914
48985W        W10351  41.970  16.144   2.236
48986W        W10352  12.152  10.364   3.222
48987W        W10353   2.961  21.116   2.367
48988W        W10354  36.875  36.391   4.349
48989W        W10355  31.141  10.270   1.380
48990W        W10356   3.363  31.139   0.894
48991W        W10357   9.233  12.778   1.352
48992W        W10358  15.236  23.211  11.554
48993W        W10359  12.639   3.421  14.774
48994W        W10360  31.130  32.581  13.337
48995W        W10361   9.217  22.694  10.443
48996W        W10362   8.774   0.827   3.221
48997W        W10363  33.944  41.310  14.307
48998W        W10364  20.067  33.396  12.049
48999W        W10365  37.874  15.313  12.052
49000W        W10366  16.106  41.326  12.016
49001W        W10367   4.347  18.176   2.826
49002W        W10368   1.928  13.231  11.504
49003W        W10369  30.633  27.989   4.260
49004W        W10370   4.841   5.209  13.809
49005W        W10371  25.618  25.994  12.925
49006W        W10372  36.054   1.322  14.003
49007W        W10373  40.322  41.463   3.267
49008W        W10374  38.375   2.402  11.882
49009W        W10375  13.217  19.277   1.874
49010W        W10376  12.136  37.871  12.464
49011W        W10377  12.844  38.074   3.379
49012W        W10378  15.669   8.719   5.182
49013W        W10379   8.801   2.254  14.876
49014W        W10380  12.204  14.278  14.986
49015W        W10381  16.764   7.308   1.443
49016W        W10382  37.957  16.196   3.158
49017W        W10383  12.685  36.037   0.457
49018W        W10384   7.326  36.497  10.539
49019W        W10385  13.193   2.954  10.911
49020W        W10386  16.801   7.268   0.272
49021W        W10387   7.280  25.157  10.639
49022W        W10388  35.370  13.263   2.738
49023W        W10389   0.775  10.157   5.285
49024W        W10390  29.628  10.198   0.739
49025W        W10391  38.033   2.291   3.258
49026W        W10392  34.406  43.013  11.599
49027W        W10393  10.316  24.157  12.393
49028W        W10394  15.666  31.559  11.441
49029W        W10395   2.763  15.242   3.730
49030W        W10396  13.268  23.082   1.399
49031W        W10397   0.377  26.483  12.557
49032W        W10398  34.058  15.770  11.902
49033W        W10399  43.283  10.297   4.823
49034W        W10400  27.662  25.530  12.504
49035W        W10401  16.227   1.902  12.392
49036W        W10402  43.860   0.984   4.761
49037W        W10403  10.698  42.883   3.827
49038W        W10404  32.943   6.740   4.117
49039W        W10405  17.646  20.210   3.668
49040W        W10406   1.917  12.682  12.420
49041W        W10407  36.841  23.543   3.253
49042W        W10408  14.121  40.049  11.558
49043W        W10409  34.887  13.647   0.872
49044W        W10410  15.722  19.719  13.850
49045W        W10411   6.811  15.096   0.363
49046W        W10412  29.078  25.180  12.882
49047W        W10413  32.059  34.892   1.737
49048W        W10414  26.031   2.851  11.080
49049W        W10415  30.462  16.089  13.879
49050W        W10416   9.200  18.217   2.856
49051W        W10417  37.039   5.234  13.992
49052W        W10418   4.450   4.845   4.685
49053W        W10419  39.840  41.849  14.839
49054W        W10420  44.320  32.512   3.262
49055W        W10421  37.876  44.387  13.545
49056W        W10422  38.928   5.328  12.021
49057W        W10423  40.917  29.463  14.446
49058W        W10424  41.375   9.647  11.970
49059W        W10425  14.332  31.005   5.172
49060W        W10426   5.278   4.820  11.421
49061W        W10427  43.374  38.838  10.959
49062W        W10428  39.444  21.100  10.455
49063W        W10429  28.157  15.633  13.033
49064W        W10430  34.422  37.565   1.820
49065W        W10431  39.341  14.113  14.891
49066W        W10432  32.034  30.083  14.327
49067W        W10433   0.962   6.744  10.521
49068W        W10434  35.002  36.411  10.431
49069W        W10435  44.455  35.882  14.899
49070W        W10436  41.982  22.735  12.011
49071W        W10437   7.286  37.910   0.307
49072W        W10438  40.415  29.148  13.381
49073W        W10439  40.897  35.372   4.163
49074W        W10440  42.922  34.903   0.395
49075W        W10441  19.765  40.863  14.970
49076W        W10442  29.137   8.872  12.442
49077W        W10443  19.621  22.176  10.974
49078W        W10444   4.370  38.003   0.243
49079W        W10445  31.011   6.266  12.951
49080W        W10446  21.645  33.569  14.386
49081W        W10447   7.846  22.584  11.023
49082W        W10448  27.040  29.069   1.383
49083W        W10449  23.150  12.775   0.367
49084W        W10450  42.495  42.310   0.462
49085W        W10451  44.310  43.409  14.839
49086W        W10452  32.626  21.739   4.620
49087W        W10453  22.152  35.041   0.877
49088W        W10454  31.022  14.771   0.287
49089W        W10455  30.147  15.581   9.942
49090W        W10456  13.328   4.732   2.271
49091W        W10457   1.331   4.357   4.688
49092W        W10458  40.901  28.013   0.449
49093W        W10459   5.830   8.710  12.558
49094W        W10460   0.930  44.890  11.957
49095W        W10461   7.696  14.609   1.722
49096W        W10462   3.371  15.107   3.841
49097W        W10463  11.345  18.747   0.903
49098W        W10464  39.065  35.875   1.435
49099W        W10465  38.354  23.992   4.153
49100W        W10466  15.663  10.199  10.064
49101W        W10467  38.998   0.437  14.775
49102W        W10468  17.638   5.697   1.933
49103W        W10469  24.028  37.514   1.438
49104W        W10470   8.821  42.990   3.340
49105W        W10471  26.070   2.957  14.401
49106W        W10472  42.816  10.142  11.389
49107W        W10473  44.898  10.316  14.827
49108W        W10474  44.284  42.033   3.785
49109W        W10475  26.697   2.237  12.065
49110W        W10476  11.729  32.400   0.813
49111W        W10477  43.812  11.800   2.806
49112W        W10478   2.805  20.745  12.948
49113W        W10479  22.095  14.287   1.726
49114W        W10480  38.865   0.284   2.812
49115W        W10481  11.162  25.526  12.577
49116W        W10482  42.436  42.953  12.911
49117W        W10483  17.747  32.578  11.413
49118W        W10484   4.843  13.240  14.283
49119W        W10485  19.103  32.885  10.449
49120W        W10486  24.182  36.407  13.521
49121W        W10487   9.839  20.616   3.296
49122W        W10488   4.753  25.108   9.980
49123W        W10489  20.692  35.934  13.849
49124W        W10490  22.537  13.156  14.887
49125W        W10491  36.507  19.279   4.643
49126W        W10492  36.593  25.481   3.332
49127W        W10493   2.337  17.608  10.962
49128W        W10494   4.238  42.892  14.392
49129W        W10495   8.740  15.629   0.772
49130W        W10496  35.558  37.370   3.358
49131W        W10497   6.903  29.125  12.430
49132W        W10498  11.668  21.734  14.480
49133W        W10499  24.658  14.629   2.688
49134W        W10500  22.732  17.275   2.819
49135W        W10501  21.122   0.447  10.154
49136W        W10502   7.304  27.002  14.886
49137W        W10503  20.243  33.968  13.900
49138W        W10504   3.723  13.638  14.839
49139W        W10505  18.218  17.221   1.764
49140W        W10506  14.779  40.833  14.949
49141W        W10507  25.514   4.823   2.399
49142W        W10508  13.225  17.696  13.386
49143W        W10509  18.784  43.289  12.065
49144W        W10510  29.432  19.569  13.548
49145W        W10511   8.685   7.860  13.440
49146W        W10512  15.738  29.590  12.840
49147W        W10513  18.728  17.239   2.866
49148W        W10514  25.502  41.351   4.130
49149W        W10515  32.949  40.952   1.825
49150W        W10516  13.610  20.136  12.362
49151W        W10517  35.083  19.595   1.826
49152W        W10518  14.598  10.652   3.159
49153W        W10519  39.490  44.503   0.842
49154W        W10520   3.234  30.140  12.502
49155W        W10521  10.301  40.847  10.473
49156W        W10522  32.978  44.857  14.938
49157W        W10523  37.915  11.165   3.796
49158W        W10524  28.622  33.407  11.526
49159W        W10525  18.069  30.593  11.456
49160W        W10526  16.786  14.199  13.843
49161W        W10527  20.219  33.513   0.956
49162W        W10528  21.119  20.073   1.413
49163W        W10529  34.401  11.189   2.797
49164W        W10530  19.262   6.365   0.926
49165W        W10531  40.846  25.053  13.062
49166W        W10532   7.668  21.018  12.562
49167W        W10533   5.915  16.144  13.314
49168W        W10534  24.495   1.780   2.862
49169W        W10535  36.886  44.264  13.318
49170W        W10536  33.933  11.227  14.923
49171W        W10537  35.550  41.860  14.371
49172W        W10538   1.895  40.417   4.149
49173W        W10539  35.037  13.648   4.243
49174W        W10540   7.689  26.523  11.023
49175W        W10541   4.370   7.714  12.033
49176W        W10542  23.563  26.472  10.030
49177W        W10543  31.952  19.744   1.863
49178W        W10544  29.951  34.945  12.093
49179W        W10545  16.576   3.269  14.375
49180W        W10546   3.774   2.872   4.765
49181W        W10547  41.471  26.506  11.905
49182W        W10548  16.810  43.846   2.680
49183W        W10549   1.347  29.524  11.400
49184W        W10550  36.014  15.304  13.332
49185W        W10551   4.398  33.951  12.464
49186W        W10552   2.284   3.329  14.372
49187W        W10553  39.334  20.617  13.809
49188W        W10554  28.185  27.503   0.792
49189W        W10555  14.235  19.758  11.095
49190W        W10556  29.975   4.378  13.878
49191W        W10557  17.648  14.283   5.133
49192W        W10558   3.297   6.227   0.390
49193W        W10559  20.040  24.073  13.325
49194W        W10560  18.129   5.203  13.513
49195W        W10561  43.492  10.250  14.513
49196W        W10562   3.234  14.742  12.971
49197W        W10563  30.019  16.806  14.953
49198W        W10564  18.217   8.664  10.630
49199W        W10565  16.284  28.138  13.483
49200W        W10566  35.475   2.784  11.932
49201W        W10567  42.399  21.602   3.318
49202W        W10568   8.243  21.707   0.320
49203W        W10569   6.879  34.942   2.393
49204W        W10570  34.053  35.413  10.535
49205W        W10571   5.823  34.016  10.408
49206W        W10572  35.432  13.204   2.264
49207W        W10573  26.688  14.257   1.315
49208W        W10574  44.479   0.976   4.636
49209W        W10575  36.399   1.880  13.986
49210W        W10576   6.378  11.368  12.342
49211W        W10577  22.153   5.301   0.425
49212W        W10578  40.982  22.728   4.280
49213W        W10579   2.313  10.711   2.720
49214W        W10580   2.945  35.426  10.903
49215W        W10581   6.896  24.632   2.664
49216W        W10582   2.954  20.620  10.430
49217W        W10583  32.045  28.496   3.851
49218W        W10584  26.065  18.645   0.733
49219W        W10585  31.001  37.390  13.365
49220W        W10586  18.755  20.139   2.790
49221W        W10587  31.503  42.881  14.761
49222W        W10588   6.682  42.482   1.817
49223W        W10589  30.940  14.626  13.547
49224W        W10590  29.670  37.056   4.783
49225W        W10591   4.735  27.125   2.238
49226W        W10592   7.846  33.910   4.670
49227W        W10593  41.990  23.519   2.232
49228W        W10594   2.370   5.252  10.581
49229W        W10595  17.744  21.034  13.425
49230W        W10596  12.697   2.793  12.079
49231W        W10597   5.229  27.003  13.811
49232W        W10598  11.812  24.004   2.286
49233W        W10599  35.398  38.522  12.533
49234W        W10600   3.743  29.991   1.823
49235W        W10601  27.973   5.756   0.415
49236W        W10602   5.801   7.806   4.336
49237W        W10603  17.219   0.830  11.439
49238W        W10604  19.276  41.397  12.093
49239W        W10605   8.317  14.272   3.313
49240W        W10606  35.394  25.126   4.635
49241W        W10607  25.193   3.909  12.349
49242W        W10608  30.974  41.003  13.890
49243W        W10609   1.741   8.664   4.199
49244W        W10610  19.235  24.137   2.671
49245W        W10611  37.579  37.351   5.191
49246W        W10612  33.515  17.760   4.609
49247W        W10613  23.237  37.962  12.390
49248W        W10614  27.631   1.369   2.854
49249W        W10615  40.843  31.576   3.307
49250W        W10616  33.461  29.943   3.767
49251W        W10617  31.539  39.870  10.053
49252W        W10618  13.285  37.402   0.878
49253W        W10619  26.129  30.003   4.826
49254W        W10620  17.141  16.265   4.218
49255W        W10621  15.266  36.892   1.417
49256W        W10622  32.051   1.796   1.840
49257W        W10623  40.802  32.077  13.016
49258W        W10624  42.400   4.356  11.530
49259W        W10625  17.157  13.821   0.482
49260W        W10626  24.092  15.169  11.976
49261W        W10627  37.437  29.516   5.174
49262W        W10628  19.104  40.367   1.720
49263W        W10629   9.312   5.774   0.431
49264W        W10630   7.826  21.531   1.695
49265W        W10631  32.523   0.352  10.619
49266W        W10632  43.766  33.396  13.902
49267W        W10633  40.412  24.687  11.514
49268W        W10634   2.737  26.605  12.075
49269W        W10635  44.334  16.793  14.860
49270W        W10636  19.735  38.062   5.314
49271W        W10637   2.403  42.896  14.440
49272W        W10638  19.660  26.635  11.995
49273W        W10639  28.136   3.864   4.124
49274W        W10640  11.244  21.538   2.215
49275W        W10641  22.641  12.188   3.782
49276W        W10642  35.928  16.170  14.415
49277W        W10643  10.162  36.078  12.553
49278W        W10644  13.285   6.876   3.362
49279W        W10645  35.442   4.224  14.500
49280W        W10646  28.050  10.640   3.859
49281W        W10647  42.472  15.713  12.868
49282W        W10648  28.996   4.773  11.930
49283W        W10649   9.372   9.863  12.049
49284W        W10650  23.105  12.647   1.290
49285W        W10651  36.982   2.313   2.335
49286W        W10652  25.491   0.769  11.058
49287W        W10653  35.486  18.148   3.355
49288W        W10654  36.443  27.103   1.294
49289W        W10655  16.186  17.713  10.153
49290W        W10656  37.060  14.285  10.452
49291W        W10657   5.251  25.981   3.651
49292W        W10658   9.386  26.662  14.351
49293W        W10659  23.654  26.082   0.403
49294W        W10660   3.267  36.024   4.832
49295W        W10661   0.394  42.805   4.637
49296W        W10662  41.925  29.932  12.827
49297W        W10663  29.017   2.250   1.869
49298W        W10664  24.681  38.405   4.214
49299W        W10665  16.763   4.230   3.348
49300W        W10666   8.297  43.361   4.605
49301W        W10667  27.588  22.067  13.532
49302W        W10668  29.544   5.792  12.962
49303W        W10669   7.762  24.080   1.426
49304W        W10670  20.114  19.180   0.792
49305W        W10671  13.300  22.191  10.922
49306W        W10672  34.380  38.861  10.535
49307W        W10673   6.277  25.166  12.002
49308W        W10674  38.915   3.266   0.908
49309W        W10675  44.374  33.105   3.812
49310W        W10676  20.527  20.662  13.921
49311W        W10677  13.229  27.114  11.008
49312W        W10678  23.709  32.047  11.052
49313W        W10679  15.666  41.850   2.307
49314W        W10680  25.199  44.872   4.355
49315W        W10681  10.875   4.233  12.569
49316W        W10682  23.105  40.446   2.821
49317W        W10683  30.091  43.484  13.433
49318W        W10684   9.176  21.210   0.366
49319W        W10685   5.747  14.320  11.584
49320W        W10686  18.106   1.751  10.515
49321W        W10687  23.048  14.669   4.776
49322W        W10688  43.012   9.768  14.344
49323W        W10689  19.098  26.635   0.774
49324W        W10690  44.792  42.434  14.026
49325W        W10691  41.445   5.205  11.909
49326W        W10692  22.081  43.316   0.923
49327W        W10693  38.499  22.082   0.403
49328W        W10694  14.220  44.992   1.363
49329W        W10695  25.966  30.532  13.994
49330W        W10696  32.437  42.816  14.356
49331W        W10697  40.311  11.327   3.303
49332W        W10698  29.120  29.507  10.543
49333W        W10699  38.470   3.263   4.316
49334W        W10700  34.063  12.803  12.396
49335W        W10701  35.972  19.265   4.728
49336W        W10702  25.207  44.844  12.029
49337W        W10703  18.544  17.208  12.997
49338W        W10704  20.041  11.246   3.651
49339W        W10705   1.743   7.870   4.798
49340W        W10706  17.248   8.779   1.212
49341W        W10707  15.220  35.553  14.978
49342W        W10708  39.063  16.670  12.549
49343W        W10709  16.656   1.770   1.786
49344W        W10710  10.829  16.747   2.673
49345W        W10711  20.563  44.921   1.819
49346W        W10712  20.163  17.077  13.369
49347W        W10713  11.320   1.254   0.354
49348W        W10714   7.859  37.476   1.311
49349W        W10715  16.610  30.953   1.882
49350W        W10716  43.979  43.825  12.032
49351W        W10717  29.047   0.778   2.392
49352W        W10718  41.858  40.510   3.208
49353W        W10719  11.625  43.472  14.788
49354W        W10720  16.724  30.590  11.953
49355W        W10721   8.366  44.318  10.910
49356W        W10722  43.335   3.780   0.406
49357W        W10723  41.801  11.334  14.405
49358W        W10724   4.849   8.894   1.223
49359W        W10725  10.715  30.583  13.012
49360W        W10726  43.883  31.059   4.693
49361W        W10727  26.598   3.407  11.597
49362W        W10728  39.404  16.790   1.369
49363W        W10729  18.082  13.698  12.568
49364W        W10730  40.931  40.033  12.063
49365W        W10731  35.378   7.212   0.939
49366W        W10732  20.145  14.305  14.942
49367W        W10733  31.002  32.398   4.238
49368W        W10734  26.491  40.840   2.322
49369W        W10735  42.302   7.912  10.406
49370W        W10736  31.607  23.240  13.341
49371W        W10737  13.262  11.250   4.821
49372W        W10738  36.555  21.137  11.407
49373W        W10739  43.355  15.781  13.314
49374W        W10740  10.839   6.293  14.362
49375W        W10741  16.127  13.767   2.286
49376W        W10742  19.766  24.182  11.899
49377W        W10743  19.644  31.907   1.817
49378W        W10744  11.170   8.165  13.330
49379W        W10745  12.122  31.900  11.374
49380W        W10746   2.293   3.747  13.978
49381W        W10747  35.477  15.809   4.129
49382W        W10748  43.993  36.941   0.331
49383W        W10749  14.200   5.789  11.927
49384W        W10750  19.543   7.298  11.467
49385W        W10751  10.808  14.604   4.179
49386W        W10752  14.236  38.994  12.414
49387W        W10753  13.663   3.849   0.828
49388W        W10754  39.915   4.227  14.443
49389W        W10755  29.475   7.302  13.508
49390W        W10756  13.672  17.558  12.419
49391W        W10757  12.797   9.368   2.677
49392W        W10758  29.506  16.120  14.434
49393W        W10759  40.355   9.355   4.237
49394W        W10760   8.161   5.309   1.822
49395W        W10761  39.922   0.269  11.045
49396W        W10762  39.333  38.057   1.246
49397W        W10763  19.069  43.328   2.377
49398W        W10764  25.136  43.350  12.878
49399W        W10765  16.214   3.295  13.888
49400W        W10766  19.246  36.850   4.647
49401W        W10767  33.949  16.608  11.075
49402W        W10768  23.123  36.955  14.936
49403W        W10769  18.077   6.863  13.008
49404W        W10770  22.211  11.176   3.786
49405W        W10771   9.208  29.057  13.879
49406W        W10772   8.284  20.714  14.476
49407W        W10773   6.879  22.522  11.550
49408W        W10774  44.875  29.578  10.501
49409W        W10775  33.941  16.182  12.086
49410W        W10776  35.108   4.352  13.851
49411W        W10777  10.307   3.292  12.516
49412W        W10778  29.062  17.624  11.607
49413W        W10779   4.757  36.420   0.436
49414W        W10780  31.956   5.306  13.918
49415W        W10781   0.305  42.022  10.535
49416W        W10782  25.150  36.020   2.667
49417W        W10783  10.642  27.556   4.148
49418W        W10784  25.620  11.863   0.283
49419W        W10785  15.603   7.751  12.062
49420W        W10786  26.701  11.850   0.474
49421W        W10787   4.819  33.625   9.929
49422W        W10788   9.770  34.390   3.844
49423W        W10789  22.544  11.325  10.527
49424W        W10790   0.907  23.110   4.749
49425W        W10791  28.050  15.773   2.231
49426W        W10792   9.196  43.287   3.849
49427W        W10793  20.529  13.338   1.309
49428W        W10794  41.035   3.396  13.958
49429W        W10795  38.503  29.649   1.448
49430W        W10796  28.020  30.499  14.866
49431W        W10797  23.117   2.743   4.597
49432W        W10798  22.590   4.263   4.233
49433W        W10799  40.953  15.274   2.221
49434W        W10800  36.898  11.167   3.806
49435W        W10801  13.266  24.516   2.198
49436W        W10802   9.664  42.017  13.495
49437W        W10803  16.699   8.778   0.255
49438W        W10804  16.224  21.590   3.736
49439W        W10805  12.266  21.736  13.954
49440W        W10806  38.944   4.225   0.882
49441W        W10807  29.632  23.702  12.969
49442W        W10808   5.802  43.439   1.743
49443W        W10809  40.505  26.115  11.413
49444W        W10810  30.496   4.367  14.848
49445W        W10811  30.418   0.902  13.938
49446W        W10812  30.078  13.680   1.438
49447W        W10813  17.780  25.678   1.821
49448W        W10814   5.387  28.946  10.604
49449W        W10815   6.851  31.075  14.795
49450W        W10816  42.331   1.358  14.985
49451W        W10817  26.664  20.586   2.190
49452W        W10818   6.379  41.452  12.889
49453W        W10819  23.193  42.880  10.155
49454W        W10820  21.158  44.484   3.348
49455W        W10821  26.464  40.382   1.308
49456W        W10822  40.832  12.731   1.285
49457W        W10823  33.543  30.971  14.959
49458W        W10824  23.215  13.783  12.549
49459W        W10825  43.276  37.987  11.605
49460W        W10826  35.523   9.745  13.378
49461W        W10827   6.372  12.335   0.379
49462W        W10828  17.307  31.540  11.912
49463W        W10829  11.191  36.987   1.738
49464W        W10830  33.521  29.568   9.938
49465W        W10831   3.821  36.446  10.407
49466W        W10832  15.622  39.540  14.005
49467W        W10833  16.711  14.238  12.349
49468W        W10834   3.412  15.295   4.248
49469W        W10835   4.227  17.595  10.589
49470W        W10836  12.837  11.275   0.420
49471W        W10837  38.565   6.266  13.863
49472W        W10838  16.631  31.022  13.463
49473W        W10839  28.447  25.493   0.361
49474W        W10840  12.117   2.751   2.350
49475W        W10841  26.557  13.840   0.803
49476W        W10842  32.395  10.257   0.763
49477W        W10843  19.244  38.999   2.769
49478W        W10844  38.990  20.130  13.960
49479W        W10845  36.095   9.225  11.469
49480W        W10846  10.746  18.051  13.499
49481W        W10847  10.281  23.711   2.308
49482W        W10848  30.071  30.428   4.340
49483W        W10849  29.522   1.784  10.405
49484W        W10850  20.559  14.759  11.995
49485W        W10851  43.850   9.380   1.814
49486W        W10852  43.454  30.473  11.102
49487W        W10853   2.314  36.969  11.086
49488W        W10854  12.211   6.912   1.842
49489W        W10855  18.095   7.191  10.478
49490W        W10856  26.622  20.212   2.817
49491W        W10857  21.719  33.522   3.786
49492W        W10858   6.878  11.212   1.245
49493W        W10859  40.379   0.843   4.121
49494W        W10860  43.371  29.121  13.471
49495W        W10861   5.405  39.816   0.445
49496W        W10862  17.217   8.875  11.475
49497W        W10863   7.687  16.617  12.076
49498W        W10864  31.999  14.709  14.939
49499W        W10865  17.105  10.824  10.570
49500W        W10866   5.704  24.512   1.895
49501W        W10867   2.776  20.049   2.817
49502W        W10868  20.752  15.669   3.818
49503W        W10869  13.256  44.423  11.583
49504W        W10870  17.770  20.594  11.455
49505W        W10871   1.892   3.376   1.804
49506W        W10872  12.663  10.810  11.586
49507W        W10873  24.546  17.578  11.574
49508W        W10874  35.978  44.835  14.932
49509W        W10875  23.210  15.669   4.126
49510W        W10876  22.006  11.328   0.259
49511W        W10877  11.203  36.022   3.823
49512W        W10878  41.314  17.716   0.384
49513W        W10879  39.827   2.742   2.259
49514W        W10880  36.008  25.468   0.364
49515W        W10881  14.737  43.394  14.367
49516W        W10882   7.867  32.601  10.492
49517W        W10883  13.250   8.664   3.351
49518W        W10884   1.867  36.557   2.708
49519W        W10885  33.955  20.704   2.228
49520W        W10886  18.167  39.841   1.695
49521W        W10887  24.632  39.830  12.423
49522W        W10888  26.645  43.955   3.375
49523W        W10889  42.414  11.861  13.899
49524W        W10890  37.877  37.450  12.862
49525W        W10891  18.696  37.469   1.883
49526W        W10892  29.066  34.034  10.582
49527W        W10893  19.134  27.512  14.921
49528W        W10894  14.754  38.397   4.191
49529W        W10895  30.002  32.979  11.426
49530W        W10896   0.827  22.152  13.391
49531W        W10897  10.865  41.308  11.031
49532W        W10898   8.667   7.273  11.445
49533W        W10899   7.844   4.788  12.380
49534W        W10900   2.339  16.660   3.284
49535W        W10901  25.642  40.362  11.483
49536W        W10902   9.869  31.023   4.688
49537W        W10903  21.187  35.496  13.057
49538W        W10904  14.199  42.776   1.356
49539W        W10905  18.203  39.970   0.779
49540W        W10906  32.925  16.182  14.327
49541W        W10907   8.861  15.697  10.131
49542W        W10908  29.132  18.133   2.852
49543W        W10909  23.555  35.065   9.490
49544W        W10910  12.204  16.130  13.943
49545W        W10911  29.427  32.050  13.443
49546W        W10912  40.948  31.567  13.406
49547W        W10913  14.235  40.980   1.782
49548W        W10914  23.206  39.476  14.424
49549W        W10915  15.188  40.882  14.385
49550W        W10916  22.638   1.962  14.792
49551W        W10917  18.600  43.009  10.589
49552W        W10918  11.196  29.629   2.691
49553W        W10919  13.122  18.262  14.339
49554W        W10920  42.839  38.539   1.341
49555W        W10921  21.237  37.941  11.378
49556W        W10922  29.054  12.857  11.386
49557W        W10923  36.448   7.672   3.657
49558W        W10924  22.250   6.264   9.624
49559W        W10925  44.328  43.497  10.110
49560W        W10926  36.488  37.382   1.726
49561W        W10927  34.541   4.910   3.759
49562W        W10928  16.083  16.574   2.724
49563W        W10929   5.862   9.691   4.277
49564W        W10930  32.601  10.374  14.444
49565W        W10931  22.201  31.619   2.678
49566W        W10932  36.441  42.452  10.999
49567W        W10933  21.060   3.405   3.657
49568W        W10934  22.026  15.627   2.774
49569W        W10935  26.204  42.508  11.485
49570W        W10936   1.330  34.522  12.874
49571W        W10937  31.473  34.542  10.564
49572W        W10938   1.889  11.160  13.831
49573W        W10939  17.269   4.907  14.492
49574W        W10940  33.973   1.765  12.900
49575W        W10941   8.237   5.809  12.012
49576W        W10942  41.840   3.330   4.299
49577W        W10943  20.699  40.536  13.321
49578W        W10944   8.356  18.716  12.562
49579W        W10945  15.101  12.301  14.433
49580W        W10946  15.743  38.565  11.977
49581W        W10947  27.188   8.211  14.454
49582W        W10948   6.196   3.711  14.405
49583W        W10949  14.726  13.696  11.465
49584W        W10950   3.929  10.856  12.970
49585W        W10951  38.562  15.759   1.415
49586W        W10952  17.175  33.427  12.388
49587W        W10953  28.983  37.443   3.781
49588W        W10954  39.035   3.738   2.273
49589W        W10955   2.293  40.797   0.457
49590W        W10956  18.094  23.626   0.870
49591W        W10957  25.072   8.817  12.053
49592W        W10958   9.739  23.654  10.941
49593W        W10959  22.542   0.815  13.835
49594W        W10960  10.828  36.981   0.353
49595W        W10961  43.285   8.717  11.887
49596W        W10962   2.301  19.100  11.373
49597W        W10963  30.583  26.532  13.411
49598W        W10964  22.209  10.312  13.900
49599W        W10965   8.362  24.213  13.002
49600W        W10966   4.801  30.479   4.728
49601W        W10967   3.914  42.428  11.898
49602W        W10968  35.421  31.952  14.000
49603W        W10969  31.493  31.478   0.782
49604W        W10970  21.064   8.224   3.386
49605W        W10971   2.270   0.817  13.046
49606W        W10972  19.750   3.819   1.905
49607W        W10973  33.006  15.802   0.776
49608W        W10974  39.869  20.120   4.671
49609W        W10975  42.011  33.418   0.478
49610W        W10976  42.474  34.595   1.790
49611W        W10977  30.456  13.145  12.962
49612W        W10978  44.502  34.107  13.897
49613W        W10979  18.246  14.823  10.963
49614W        W10980  39.036  43.980  12.966
49615W        W10981  26.682  24.178  14.925
49616W        W10982  38.071  22.660   4.311
49617W        W10983  43.964  21.512  13.517
49618W        W10984  16.691  17.068   3.774
49619W        W10985   3.295   5.314   0.907
49620W        W10986  24.987   5.237  13.792
49621W        W10987  16.807  20.678   0.745
49622W        W10988  22.531   3.407  10.930
49623W        W10989  42.884   2.787   0.249
49624W        W10990   5.874   0.862   0.953
49625W        W10991  21.247   2.297  13.796
49626W        W10992  27.016  38.869  13.018
49627W        W10993   9.785   6.892   0.385
49628W        W10994   2.935   6.872  10.985
49629W        W10995  36.545  22.644   3.290
49630W        W10996  36.453  12.810   1.242
49631W        W10997  10.252  25.969  11.046
49632W        W10998   2.396  33.050   1.248
49633W        W10999   2.890  39.337  11.874
49634W        W11000  26.525  37.528   2.845
49635W        W11001   6.364  24.053   5.311
49636W        W11002  41.533   0.786   4.302
49637W        W11003   7.280  11.780  11.459
49638W        W11004  26.029   8.293  14.818
49639W        W11005  40.347  11.364  11.015
49640W        W11006  26.503   6.687  10.954
49641W        W11007  31.441  35.541   0.843
49642W        W11008  39.528  41.470  12.414
49643W        W11009  15.704  39.441   1.906
49644W        W11010  44.953  30.002   1.418
49645W        W11011  33.951   0.954   2.182
49646W        W11012  32.602  43.765  13.542
49647W        W11013  20.633   2.300  14.347
49648W        W11014  35.069  44.304  11.556
49649W        W11015   0.921  25.571  12.491
49650W        W11016  20.681  20.630  10.944
49651W        W11017  34.474  26.457   2.418
49652W        W11018  22.537   4.799   2.683
49653W        W11019  29.109   4.716  10.510
49654W        W11020   1.463  41.306  12.387
49655W        W11021   1.335  20.720   0.897
49656W        W11022  34.095   9.789  11.928
49657W        W11023  30.949  39.053   2.260
49658W        W11024   0.864   3.800  12.922
49659W        W11025  17.120  16.246   0.764
49660W        W11026  43.399  11.372  14.825
49661W        W11027  14.594  16.241   1.275
49662W        W11028  44.884  23.047  11.396
49663W        W11029   7.722  30.038  12.862
49664W        W11030  41.849   3.395   5.316
49665W        W11031  10.803  34.584   4.739
49666W        W11032  11.628  12.787  11.125
49667W        W11033   5.367   4.878  10.158
49668W        W11034   7.268  13.746  12.396
49669W        W11035   5.921   4.437   1.826
49670W        W11036  14.219  43.410   4.235
49671W        W11037  35.006   3.909  10.972
49672W        W11038   1.478  13.713   4.598
49673W        W11039  22.623  30.102   2.347
49674W        W11040  35.038   0.443  11.528
49675W        W11041   0.790  23.632  11.555
49676W        W11042  28.955   1.871   0.735
49677W        W11043  38.551  14.109  14.760
49678W        W11044   3.796  10.280  12.436
49679W        W11045  29.567   0.981  12.870
49680W        W11046  18.227  36.020   3.250
49681W        W11047  26.959   9.237   2.664
49682W        W11048  13.178  44.849   4.260
49683W        W11049   8.680  38.847  11.962
49684W        W11050  34.900  30.989   0.435
49685W        W11051  27.950  24.222  13.848
49686W        W11052  18.721  43.325   3.146
49687W        W11053   8.251  29.616  14.334
49688W        W11054  34.494  39.953  13.514
49689W        W11055  41.890  23.596   2.672
49690W        W11056  24.638   4.358  14.790
49691W        W11057   7.298  31.901  11.929
49692W        W11058  37.477  25.987   0.873
49693W        W11059   2.361  39.841  13.441
49694W        W11060  42.004  43.766  13.912
49695W        W11061  27.664   9.753  12.015
49696W        W11062  15.279  23.223   0.462
49697W        W11063  18.609  28.006  12.455
49698W        W11064  21.649  33.093   2.275
49699W        W11065   0.362  13.264  14.982
49700W        W11066  28.636   2.278  11.547
49701W        W11067  34.580  33.015  13.930
49702W        W11068   4.759  23.593   9.990
49703W        W11069  12.259  29.117  11.053
49704W        W11070  35.473   8.887  10.616
49705W        W11071  29.437  30.962  11.593
49706W        W11072  11.717  24.104  11.525
49707W        W11073  21.185  23.539  10.029
49708W        W11074  35.037  13.253  13.914
49709W        W11075  17.739  15.815   5.268
49710W        W11076  36.850   1.267   2.779
49711W        W11077  15.651  44.986  13.847
49712W        W11078  30.615   0.281   1.265
49713W        W11079   8.377  25.214   2.237
49714W        W11080  38.360  29.079  11.020
49715W        W11081  36.024  41.309   9.965
49716W        W11082  40.799  40.909  12.423
49717W        W11083  26.055   6.679   1.369
49718W        W11084  16.698  11.295   0.473
49719W        W11085   4.276   0.336   3.748
49720W        W11086  27.578  38.546   4.172
49721W        W11087  41.024  31.002   2.387
49722W        W11088   4.838  12.164  13.978
49723W        W11089  24.553  38.062  10.487
49724W        W11090  34.939  39.453   1.416
49725W        W11091  37.582  15.670  11.896
49726W        W11092   9.215  12.317  10.971
49727W        W11093  28.990   1.345  11.077
49728W        W11094  28.929  42.503  11.588
49729W        W11095   0.898  23.493  13.364
49730W        W11096  37.892  22.548  12.067
49731W        W11097  16.282  30.625  14.431
49732W        W11098  42.306  29.662   4.226
49733W        W11099  44.270   0.461  11.908
49734W        W11100   8.838  23.207  11.879
49735W        W11101  13.163  28.522   4.213
49736W        W11102  37.501  44.493   2.694
49737W        W11103  19.050  40.807   4.329
49738W        W11104  37.968   1.354   0.908
49739W        W11105  39.549  28.964  12.533
49740W        W11106   2.892  30.539  13.460
49741W        W11107  27.472   8.730  11.597
49742W        W11108  18.122  29.473   2.876
49743W        W11109  19.226  22.055  14.814
49744W        W11110  35.094   0.956   3.677
49745W        W11111  19.091   8.673  13.875
49746W        W11112  11.237  19.195   1.838
49747W        W11113   9.778  37.953  11.870
49748W        W11114  40.514  30.043  10.937
49749W        W11115  16.118  12.135   4.742
49750W        W11116   8.752  31.897  13.899
49751W        W11117  32.097   9.188  10.935
49752W        W11118  31.080  21.049  12.831
49753W        W11119  20.111  27.591   3.190
49754W        W11120   0.473  30.064   4.654
49755W        W11121   4.712  28.018   1.339
49756W        W11122  18.205  22.113   3.298
49757W        W11123  36.551  15.207   1.725
49758W        W11124  25.992  34.984   4.803
49759W        W11125  44.985  32.525  10.641
49760W        W11126   7.322   5.225  11.079
49761W        W11127  19.195  37.504   2.727
49762W        W11128  30.446  38.434   3.858
49763W        W11129  44.916   5.859   0.296
49764W        W11130   5.795  18.747   5.100
49765W        W11131  43.291  41.528  11.881
49766W        W11132   7.173  10.876  13.963
49767W        W11133  24.182  24.553   3.370
49768W        W11134   6.369  13.310   0.323
49769W        W11135  18.239  27.958  12.014
49770W        W11136  11.793   2.904   0.766
49771W        W11137  38.436  17.162  11.976
49772W        W11138   5.308  10.385   1.386
49773W        W11139  33.466  26.023  11.493
49774W        W11140  40.384  20.765   1.286
49775W        W11141   5.343   4.849   5.170
49776W        W11142   6.233   0.968   2.702
49777W        W11143  44.499   0.335   3.309
49778W        W11144  43.798   7.713   1.845
49779W        W11145  41.862   6.731   4.195
49780W        W11146  18.717  12.289  12.559
49781W        W11147  29.076  42.358  10.445
49782W        W11148  24.694  44.455  10.031
49783W        W11149  16.283   8.819   3.221
49784W        W11150  23.991  27.681  12.402
49785W        W11151  16.678  37.919   1.860
49786W        W11152  36.080  23.148  10.412
49787W        W11153  37.902  32.558   1.847
49788W        W11154  21.081  10.214  13.502
49789W        W11155   7.696  20.181  11.925
49790W        W11156  38.340  28.549   4.154
49791W        W11157  32.957  14.219   0.739
49792W        W11158  23.098  30.541   0.789
49793W        W11159   9.280  19.568  12.425
49794W        W11160  39.359  42.782   1.715
49795W        W11161  12.286   2.831   3.205
49796W        W11162  44.445   0.449   4.326
49797W        W11163   7.178   3.354   1.292
49798W        W11164  29.526  39.509   3.697
49799W        W11165  28.036  33.614  10.983
49800W        W11166  43.471  28.014   2.211
49801W        W11167  19.555  31.542   3.644
49802W        W11168  21.719  17.627   0.743
49803W        W11169  11.344  15.683  12.074
49804W        W11170  39.994  36.396   3.305
49805W        W11171  30.593  29.592  11.400
49806W        W11172  32.966   6.923  14.320
49807W        W11173  37.909  22.215   1.935
49808W        W11174  20.652  42.844   3.164
49809W        W11175  28.096   2.427  14.371
49810W        W11176   0.814  30.611  13.371
49811W        W11177  25.192   1.751   2.782
49812W        W11178  23.515  17.758  12.398
49813W        W11179  37.417   3.810  13.482
49814W        W11180  25.062   6.292   4.609
49815W        W11181  38.013  14.613   0.398
49816W        W11182  37.409  11.789   1.766
49817W        W11183   3.734   9.187   0.265
49818W        W11184  28.141   2.962   4.325
49819W        W11185  10.836  42.872  13.356
49820W        W11186  18.258  14.684  11.476
49821W        W11187  18.063  33.542  11.594
49822W        W11188  25.563  43.847   0.258
49823W        W11189  31.492  16.075   3.218
49824W        W11190  10.749  35.870  10.891
49825W        W11191   4.939  17.210   2.761
49826W        W11192  16.258   4.332   4.781
49827W        W11193   9.723  26.997  10.441
49828W        W11194  16.680  31.406   4.321
49829W        W11195  24.150  38.374   4.152
49830W        W11196  38.996  15.663   2.385
49831W        W11197  37.488  39.417  11.001
49832W        W11198  42.988  38.532   0.801
49833W        W11199  10.873  31.502   3.194
49834W        W11200  34.556  40.026   1.434
49835W        W11201  33.490   2.391   3.236
49836W        W11202  42.408  27.653  10.443
49837W        W11203  12.698  29.158   1.791
49838W        W11204  12.341  28.491   0.898
49839W        W11205  33.011   1.912  13.056
49840W        W11206  35.439  23.217  12.857
49841W        W11207  17.730  14.315   1.847
49842W        W11208  17.734  15.321  14.906
49843W        W11209  31.571  13.184   1.438
49844W        W11210  28.145  13.689   0.325
49845W        W11211   3.273   3.900   9.635
49846W        W11212   9.201  22.036   2.371
49847W        W11213  25.586  12.179   4.630
49848W        W11214   8.276  41.852  13.393
49849W        W11215  30.050   5.835  11.388
49850W        W11216  44.957  21.635   1.727
49851W        W11217   5.292   2.339  12.557
49852W        W11218  34.389  22.225  12.493
49853W        W11219  42.288  39.484   4.331
49854W        W11220  25.677  12.184  14.826
49855W        W11221  17.736   6.423   1.299
49856W        W11222  44.977  25.521   4.140
49857W        W11223  12.134  37.080  14.364
49858W        W11224   7.174  40.810   4.693
49859W        W11225  33.115  14.656   1.780
49860W        W11226   3.932  30.509  13.867
49861W        W11227  18.224   5.699   1.276
49862W        W11228  35.383  24.127  10.975
49863W        W11229  22.081   4.832   1.724
49864W        W11230  13.227  14.743   5.116
49865W        W11231   3.452  33.558   4.837
49866W        W11232  15.650  13.197   0.300
49867W        W11233  10.209  24.160   0.448
49868W        W11234  34.081   8.165   2.209
49869W        W11235  20.194  20.191   3.307
49870W        W11236  40.410  23.684   0.392
49871W        W11237   8.744  21.570   4.287
49872W        W11238  22.632  24.101  12.856
49873W        W11239   5.729  30.971  13.821
49874W        W11240  21.639  38.011  10.486
49875W        W11241  20.562  40.868   1.744
49876W        W11242  19.602  23.546   4.669
49877W        W11243   0.832  31.640   0.894
49878W        W11244  20.113  36.390  11.392
49879W        W11245  18.663   3.278  14.878
49880W        W11246  35.088  38.829   2.326
49881W        W11247  13.314   7.229  14.282
49882W        W11248  14.276  13.211   0.905
49883W        W11249   9.285  32.409   2.760
49884W        W11250   7.675  27.182   1.783
49885W        W11251  29.927   3.711  11.117
49886W        W11252  21.093  32.584   5.708
49887W        W11253  39.033  41.807  12.890
49888W        W11254  29.128  41.896   4.182
49889W        W11255  24.978  23.204   3.296
49890W        W11256  20.768  22.541  14.457
49891W        W11257  41.934  21.247  14.012
49892W        W11258  23.185   0.953  12.410
49893W        W11259  21.717   9.218  11.496
49894W        W11260  15.797  31.541   4.154
49895W        W11261  13.117  41.970   0.760
49896W        W11262  40.453  14.793  11.036
49897W        W11263  32.908  31.949  13.997
49898W        W11264  27.179  15.650  14.361
49899W        W11265  29.437  33.523   0.259
49900W        W11266  15.262  16.250  14.412
49901W        W11267  16.633  11.854  13.321
49902W        W11268  40.395   3.738   1.295
49903W        W11269  35.946  44.465   4.664
49904W        W11270  20.066  19.229  12.507
49905W        W11271  10.697  11.671  11.531
49906W        W11272  20.145  29.141   1.723
49907W        W11273  38.069  36.037   4.166
49908W        W11274  17.224  18.230   1.912
49909W        W11275  16.653  32.526   3.809
49910W        W11276  26.599  21.580   4.118
49911W        W11277   6.333  33.428  14.276
49912W        W11278  18.597  21.252  12.390
49913W        W11279  13.272  38.949  12.928
49914W        W11280   5.402  36.523   1.899
49915W        W11281  19.745   4.281   4.254
49916W        W11282  25.511  37.369   3.147
49917W        W11283  20.078  21.614  13.412
49918W        W11284   2.289  31.428   2.192
49919W        W11285  12.341  13.332  11.929
49920W        W11286  21.750  27.578  12.400
49921W        W11287  44.425   9.195  12.878
49922W        W11288  19.681  25.022   4.113
49923W        W11289  23.108  24.504  14.842
49924W        W11290  43.445  30.550   3.273
49925W        W11291   5.273  11.818  11.507
49926W        W11292  13.117   6.342  11.395
49927W        W11293  42.822  35.573   2.280
49928W        W11294  25.562  23.504  12.011
49929W        W11295   0.880   5.219   3.289
49930W        W11296   5.715  14.693  13.467
49931W        W11297  28.587  31.512   4.739
49932W        W11298  25.123  34.938   2.732
49933W        W11299  19.136   0.874   2.713
49934W        W11300  10.776  29.606   4.800
49935W        W11301  36.954  38.361  11.507
49936W        W11302  15.296   2.922   3.233
49937W        W11303  27.070  38.468   3.212
49938W        W11304   5.690   3.902   2.404
49939W        W11305   7.774  34.411  10.599
49940W        W11306  11.246  21.602  12.362
49941W        W11307   2.765   1.327   1.248
49942W        W11308  19.161  12.235  14.341
49943W        W11309  11.861   8.820   4.801
49944W        W11310  21.046  33.933  12.902
49945W        W11311  22.654  33.621  14.352
49946W        W11312  27.518  38.048   3.313
49947W        W11313   3.709  14.627   2.202
49948W        W11314  13.318  26.013   3.336
49949W        W11315  43.401  31.053  14.946
49950W        W11316  38.054   8.352  13.537
49951W        W11317  32.490   9.685  12.059
49952W        W11318  27.530  25.125  13.370
49953W        W11319  27.625  31.538  12.011
49954W        W11320  27.166  14.728   4.603
49955W        W11321   1.975  41.433  12.580
49956W        W11322  20.225  44.342   2.246
49957W        W11323  37.553  37.986   4.664
49958W        W11324  15.816  39.847   2.711
49959W        W11325  14.324  41.337  13.053
49960W        W11326   8.187   3.712  13.496
49961W        W11327  31.492  13.301  12.520
49962W        W11328  34.481   4.885  12.068
49963W        W11329   6.241   5.772   2.766
49964W        W11330  43.779   8.324   1.442
49965W        W11331  10.251  39.453   4.636
49966W        W11332  19.070  14.832   4.212
49967W        W11333  10.750  19.097  11.923
49968W        W11334  36.028  44.987   4.194
49969W        W11335  30.143  36.450  13.454
49970W        W11336  21.620  29.106  11.976
49971W        W11337  40.376  42.009   3.195
49972W        W11338  15.304   8.166   3.761
49973W        W11339  32.577  23.557   0.377
49974W        W11340  43.817  42.412   1.291
49975W        W11341  12.621  32.127   2.888
49976W        W11342   7.274  44.443  13.520
49977W        W11343  24.102  42.485  13.859
49978W        W11344  36.549  15.699  12.948
49979W        W11345  17.756   3.919  13.959
49980W        W11346  33.071  19.122   3.651
49981W        W11347  40.880  29.497   0.844
49982W        W11348   0.875   2.857   2.678
49983W        W11349   9.782  31.643  11.533
49984W        W11350  30.535  16.732   2.825
49985W        W11351  23.707  19.250  12.016
49986W        W11352  18.630  34.099   5.182
49987W        W11353   1.799  28.071   4.254
49988W        W11354  40.011  13.179   4.665
49989W        W11355  39.527  19.051  12.873
49990W        W11356  26.587  39.989   0.390
49991W        W11357  26.003  43.778   1.226
49992W        W11358   1.948   3.286   3.201
49993W        W11359  18.287  38.849   3.271
49994W        W11360   0.948   3.717  13.516
49995W        W11361  34.570  36.073  13.455
49996W        W11362  17.577  12.783   2.392
49997W        W11363  44.869  29.943   4.138
49998W        W11364   9.711  39.416  12.468
49999W        W11365   5.429  29.616   4.164
50000W        W11366  44.777  16.227  14.845
50001W        W11367  24.527  25.526  11.576
50002W        W11368  33.879  10.379   4.143
50003W        W11369   8.768  40.451   2.893
50004W        W11370   5.747  10.655   0.343
50005W        W11371  22.664   3.378   4.656
50006W        W11372   0.978   6.209   0.764
50007W        W11373  31.560  44.342   3.730
50008W        W11374  39.545  12.278   2.879
50009W        W11375  18.745  42.311  11.534
50010W        W11376   1.305  38.061   1.713
50011W        W11377  38.568  19.273   3.159
50012W        W11378   8.308  22.727   4.172
50013W        W11379   9.825  42.479  14.319
50014W        W11380   0.797  22.525   0.339
50015W        W11381  33.419  39.847   0.951
50016W        W11382   8.316  41.827   3.827
50017W        W11383  44.480   4.826  13.423
50018W        W11384  23.038  43.474  10.623
50019W        W11385  38.560   6.712   1.344
50020W        W11386  13.758  17.776   3.835
50021W        W11387  34.490  34.902  15.000
50022W        W11388  14.703  31.977   3.795
50023W        W11389  31.898   8.713   0.399
50024W        W11390  13.217  17.753   4.291
50025W        W11391   3.461  22.078   1.861
50026W        W11392  37.046  44.432  10.427
50027W        W11393  21.742  18.238  13.998
50028W        W11394  26.574  37.487   1.705
50029W        W11395   3.338  13.115   3.299
50030W        W11396   5.285  22.997   0.769
50031W        W11397  16.777  15.813   0.866
50032W        W11398  20.091  19.639  10.083
50033W        W11399   8.737  16.735  13.985
50034W        W11400   4.393  15.740  12.887
50035W        W11401  28.613  36.868  14.781
50036W        W11402  11.323  16.178  13.489
50037W        W11403  18.075  22.529   0.766
50038W        W11404  39.869  26.685   0.425
50039W        W11405  18.647  25.631   2.409
50040W        W11406   1.372   5.397  14.321
50041W        W11407  37.947  32.523  11.489
50042W        W11408  35.451  39.479  11.464
50043W        W11409   7.397  16.799   5.163
50044W        W11410  35.978  31.610  11.575
50045W        W11411  22.561  44.827  13.897
50046W        W11412  31.999  37.006   3.808
50047W        W11413   4.815  19.099  11.413
50048W        W11414   2.460  14.803  14.774
50049W        W11415  25.085  11.867   1.440
50050W        W11416   8.741  11.371  11.407
50051W        W11417  11.255   2.935   1.272
50052W        W11418  42.323  38.013   0.755
50053W        W11419  29.437  16.645   1.760
50054W        W11420  41.397   8.380  10.552
50055W        W11421  32.453  30.971   1.273
50056W        W11422  34.112  31.119   3.639
50057W        W11423  23.194  16.664   3.679
50058W        W11424  18.681  20.197  11.583
50059W        W11425  15.172  44.791   4.125
50060W        W11426  13.126  14.110   3.198
50061W        W11427  44.339  14.607  13.317
50062W        W11428  37.890   7.334  12.544
50063W        W11429   8.240  20.637  14.922
50064W        W11430  32.042   3.854  13.334
50065W        W11431  36.035  21.543  14.445
50066W        W11432   2.454  43.443  10.545
50067W        W11433  37.950  25.660  14.341
50068W        W11434   7.218   7.741  10.496
50069W        W11435  35.424   2.364  10.464
50070W        W11436  25.196  39.887  13.487
50071W        W11437  30.423  11.716   2.221
50072W        W11438  26.555  12.671  12.877
50073W        W11439  29.549  27.616   3.252
50074W        W11440  18.053  32.630  13.449
50075W        W11441  40.513  11.366   0.892
50076W        W11442  44.321  39.458  10.123
50077W        W11443  20.691   1.807   2.299
50078W        W11444  23.521  17.153  12.899
50079W        W11445   3.358  21.737  14.844
50080W        W11446  17.750  22.055  10.540
50081W        W11447   4.907  38.533  12.414
50082W        W11448  42.437   5.231   0.287
50083W        W11449  15.636  37.397  10.107
50084W        W11450  26.639  38.873   5.119
50085W        W11451  25.668   2.353  13.958
50086W        W11452  23.574  29.607  13.505
50087W        W11453  44.817  13.710   4.693
50088W        W11454  28.448   8.181   3.260
50089W        W11455  32.607  41.410  12.581
50090W        W11456  18.137   8.205  13.332
50091W        W11457  17.204  12.780  14.440
50092W        W11458   2.905   7.220  10.935
50093W        W11459  23.493  24.718   0.796
50094W        W11460  30.923   1.912   1.847
50095W        W11461  27.083  18.257  12.470
50096W        W11462   6.204  40.840  10.462
50097W        W11463  22.580   1.733   3.764
50098W        W11464   5.763  20.260   3.866
50099W        W11465  39.911   2.412   0.863
50100W        W11466   9.837  15.140   4.667
50101W        W11467   5.762  31.082  14.347
50102W        W11468  35.573  32.038   3.846
50103W        W11469  38.925  13.141  13.314
50104W        W11470  20.690  38.877  13.455
50105W        W11471  21.024  20.718  10.463
50106W        W11472   6.325  43.387  10.959
50107W        W11473  10.728  21.755   1.451
50108W        W11474  35.959  31.619   1.441
50109W        W11475  23.191  11.219  14.864
50110W        W11476  17.088  13.307   1.428
50111W        W11477  20.741   9.674  10.519
50112W        W11478  35.557  30.469  14.430
50113W        W11479  17.698  30.998  12.514
50114W        W11480  25.986  24.493   4.607
50115W        W11481  21.244  19.253   3.303
50116W        W11482  41.413  29.041  10.499
50117W        W11483  40.959  32.600  14.886
50118W        W11484   2.456  28.585  14.902
50119W        W11485  16.591  39.827  12.094
50120W        W11486   4.212   5.324  10.061
50121W        W11487  11.307   0.866   4.628
50122W        W11488  11.802   8.310  12.823
50123W        W11489   5.412  18.773  13.455
50124W        W11490   2.893  11.274  14.347
50125W        W11491  23.629   3.272  12.001
50126W        W11492  13.818  43.515  13.801
50127W        W11493  30.153  20.106  13.998
50128W        W11494   7.348  44.753  11.524
50129W        W11495  21.701  32.468   1.218
50130W        W11496  29.958  38.340  11.496
50131W        W11497  25.651  11.713  10.003
50132W        W11498   3.856  22.540   2.748
50133W        W11499  32.998  34.598  11.894
50134W        W11500  32.439  30.599   1.294
50135W        W11501  30.457  24.585   0.914
50136W        W11502  44.463  40.999   0.470
50137W        W11503   2.769  40.415   2.361
50138W        W11504  25.983  44.430  14.861
50139W        W11505  26.017  34.949  14.938
50140W        W11506  30.988  23.699   2.376
50141W        W11507   3.947  26.683  12.572
50142W        W11508  11.129  17.567   2.742
50143W        W11509  38.022   0.354   0.805
50144W        W11510  12.361  37.044  14.889
50145W        W11511   7.239  40.421  14.973
50146W        W11512   0.330   5.396   3.658
50147W        W11513   2.845  31.580  14.359
50148W        W11514  40.356  24.495   4.157
50149W        W11515  35.914  16.145  14.779
50150W        W11516  36.397  42.958  14.938
50151W        W11517  30.648  28.483   3.757
50152W        W11518  43.958   7.679  11.032
50153W        W11519  34.950  33.951   4.130
50154W        W11520   0.924  13.739   0.817
50155W        W11521   3.782   5.778   1.431
50156W        W11522  23.703   8.779  12.857
50157W        W11523   3.249  21.144   3.352
50158W        W11524   4.350  40.999   2.366
50159W        W11525  35.881  41.876   3.383
50160W        W11526  13.801   0.447   1.793
50161W        W11527  42.003  19.203  13.404
50162W        W11528   2.955  16.651  10.510
50163W        W11529  25.575  26.062  12.479
50164W        W11530   9.217  19.107   3.840
50165W        W11531   1.949  42.472  12.472
50166W        W11532   0.837   6.402  10.533
50167W        W11533  44.823   2.757   2.716
50168W        W11534  22.023  25.714   2.343
50169W        W11535  41.318  18.221  10.440
50170W        W11536  41.481  34.566  13.792
50171W        W11537   7.702  42.829  11.964
50172W        W11538  20.252  24.560  10.524
50173W        W11539   9.286  24.513   2.217
50174W        W11540  30.494  33.952   2.784
50175W        W11541  13.262  39.865   1.917
50176W        W11542  25.598  41.031  11.982
50177W        W11543  37.933  17.141  10.060
50178W        W11544   4.415  30.124  11.384
50179W        W11545  44.283  17.726  14.352
50180W        W11546  18.211  35.977  10.456
50181W        W11547  14.294  33.380  11.954
50182W        W11548  12.291  27.459  11.005
50183W        W11549  29.096  17.151   0.402
50184W        W11550  37.427  19.109  13.986
50185W        W11551   2.250   4.815   2.677
50186W        W11552   6.375  40.457  11.463
50187W        W11553   1.803  36.945   4.284
50188W        W11554  36.092  44.282   1.300
50189W        W11555  41.490  40.971   1.778
50190W        W11556  17.119  17.712   2.736
50191W        W11557  32.478  33.481   0.819
50192W        W11558  13.828  44.444  12.936
50193W        W11559  27.165   8.370   4.213
50194W        W11560   4.907  18.088   2.204
50195W        W11561  14.259  14.710   2.312
50196W        W11562   8.883  27.660   0.281
50197W        W11563  33.598  32.997   4.685
50198W        W11564  41.504  24.107   1.924
50199W        W11565  12.721  18.054  11.945
50200W        W11566  23.709  13.198  13.969
50201W        W11567  34.431  17.147  10.952
50202W        W11568  30.029  19.076  13.459
50203W        W11569  43.431  26.076   3.212
50204W        W11570  11.329  10.306   1.900
50205W        W11571  44.928  11.821  10.912
50206W        W11572   0.856  33.089  14.965
50207W        W11573  34.526  43.459   1.919
50208W        W11574  15.122  12.793   2.325
50209W        W11575   4.877  22.051  11.426
50210W        W11576  18.641  44.867   0.415
50211W        W11577  32.565   6.282  11.000
50212W        W11578  21.228  12.204  12.368
50213W        W11579  37.043   2.337  11.586
50214W        W11580  13.267  22.737   1.363
50215W        W11581   4.206  11.222   2.242
50216W        W11582   9.160  38.337   0.400
50217W        W11583   1.794  38.954  10.902
50218W        W11584   4.332  25.504   1.227
50219W        W11585  24.589   8.191  14.015
50220W        W11586   8.716  15.208  12.416
50221W        W11587  38.025  13.801   0.361
50222W        W11588  14.634  31.561  14.872
50223W        W11589   6.746   6.851   2.678
50224W        W11590  33.008  29.971   0.279
50225W        W11591   1.776  14.293  14.943
50226W        W11592  33.113  24.531   1.241
50227W        W11593  15.823  34.437   0.242
50228W        W11594  28.978  32.571  12.892
50229W        W11595  22.613  42.017  11.927
50230W        W11596  24.048  12.209  11.413
50231W        W11597  32.909  13.771   4.154
50232W        W11598  37.885  41.023  12.442
50233W        W11599  28.139   8.327  13.004
50234W        W11600   9.795   0.489   1.723
50235W        W11601  33.517  11.261  10.073
50236W        W11602  13.132  20.051   4.613
50237W        W11603  11.836  17.732   3.822
50238W        W11604  13.722  29.159   0.363
50239W        W11605  18.167  13.606   3.309
50240W        W11606  22.155   8.711   0.771
50241W        W11607  37.489  16.083  11.505
50242W        W11608  10.867   2.786  14.469
50243W        W11609   4.405  34.903  11.400
50244W        W11610  44.464  39.446   1.376
50245W        W11611  44.913   3.741  12.551
50246W        W11612  24.217   9.698   3.688
50247W        W11613   5.737  41.865  13.479
50248W        W11614  40.323  44.882   1.420
50249W        W11615  17.618  42.009   1.819
50250W        W11616  11.332  34.417   1.284
50251W        W11617  42.290  18.643  12.871
50252W        W11618   5.753  15.821  10.092
50253W        W11619  38.556  39.925   4.780
50254W        W11620  13.744  23.652  12.862
50255W        W11621  16.112  31.555   3.178
50256W        W11622  14.335  17.724   0.395
50257W        W11623  19.573   0.748  11.009
50258W        W11624  38.997   6.216  14.328
50259W        W11625  33.392  39.869  12.495
50260W        W11626  44.493  37.502   1.373
50261W        W11627  30.444  10.352   5.141
50262W        W11628  14.755  13.174   0.889
50263W        W11629  40.948  13.653  11.080
50264W        W11630  39.549  25.692   4.318
50265W        W11631  13.124   7.202   2.886
50266W        W11632  15.202  42.353   3.856
50267W        W11633  40.948   1.391  10.639
50268W        W11634  41.815  24.011  12.991
50269W        W11635  28.445  44.416   1.364
50270W        W11636  23.105  39.988   2.859
50271W        W11637   7.763  28.006  12.537
50272W        W11638   5.789  12.806   3.640
50273W        W11639   6.897  20.119   0.251
50274W        W11640  19.630  10.176  13.448
50275W        W11641   2.362  38.917  10.964
50276W        W11642  40.445   0.346   1.816
50277W        W11643  32.118  20.095   3.664
50278W        W11644  35.881  19.088   2.786
50279W        W11645  31.612  25.076  10.911
50280W        W11646  40.892  13.817  14.801
50281W        W11647  16.273   2.279  12.028
50282W        W11648  36.589  21.178   0.809
50283W        W11649  16.637  22.513   2.736
50284W        W11650  35.527  21.532   0.763
50285W        W11651  41.043   5.438  10.449
50286W        W11652  38.470  17.092   1.748
50287W        W11653   8.202  22.709  12.552
50288W        W11654  26.541  33.055  10.468
50289W        W11655  26.143  18.718   4.789
50290W        W11656  34.086   8.733   3.741
50291W        W11657   9.713   1.884  13.965
50292W        W11658  13.287  29.653  12.346
50293W        W11659  16.211  10.273  11.573
50294W        W11660   0.960  38.936  14.337
50295W        W11661   4.878  40.026  14.409
50296W        W11662  16.098  40.923   0.768
50297W        W11663   0.890  44.376   3.834
50298W        W11664  32.059  16.591  13.970
50299W        W11665  35.411  20.268  14.341
50300W        W11666  41.996  32.470   0.865
50301W        W11667  17.702  39.049   0.288
50302W        W11668  44.475  41.444   0.884
50303W        W11669  10.358  21.261  10.542
50304W        W11670   2.318  15.786  12.971
50305W        W11671  32.517  26.114   1.726
50306W        W11672  11.252  27.650  14.854
50307W        W11673  32.471  17.064  10.933
50308W        W11674  38.570  15.637  12.449
50309W        W11675   1.242  38.393  10.420
50310W        W11676  26.959   7.672   1.252
50311W        W11677  18.547   6.371  12.916
50312W        W11678  40.005  44.881  13.981
50313W        W11679  21.218  22.054  13.445
50314W        W11680  29.592   3.954  12.480
50315W        W11681  23.984  15.156   2.286
50316W        W11682  19.763  32.613   0.894
50317W        W11683  31.957  21.753   3.848
50318W        W11684  13.255   4.812   5.221
50319W        W11685   2.275   6.803  14.795
50320W        W11686  10.309  29.170   2.230
50321W        W11687   4.850  37.442   2.899
50322W        W11688   7.886  43.425  11.060
50323W        W11689  28.464  10.210   4.324
50324W        W11690  30.426  29.987  11.437
50325W        W11691  41.445  43.386   0.406
50326W        W11692  23.557  41.838  12.492
50327W        W11693  12.686  34.893   3.182
50328W        W11694   3.340  43.896  12.455
50329W        W11695  33.024  24.204   4.827
50330W        W11696  29.016   4.222   2.856
50331W        W11697  31.057  34.047  14.006
50332W        W11698   3.435  43.400  14.461
50333W        W11699  41.958   7.323   4.303
50334W        W11700  16.269  33.908  14.454
50335W        W11701  40.440  32.483  11.866
50336W        W11702  43.393   6.695  11.499
50337W        W11703  24.709  42.350  13.017
50338W        W11704  27.092   2.413   0.372
50339W        W11705  17.690  24.579   3.216
50340W        W11706  28.653  23.672   1.909
50341W        W11707  23.672   2.258   0.319
50342W        W11708   0.472  37.023  11.521
50343W        W11709  11.715  33.032  11.054
50344W        W11710  29.929  37.004   2.896
50345W        W11711  16.813  18.609   0.269
50346W        W11712  32.077  29.524   4.113
50347W        W11713   9.867  15.196   0.310
50348W        W11714  11.226  32.005  12.345
50349W        W11715  29.518  29.537   3.247
50350W        W11716  34.928  17.767   3.656
50351W        W11717  20.608  37.495   0.387
50352W        W11718  17.723  40.492  14.333
50353W        W11719  20.077   8.771  13.021
50354W        W11720  26.528  27.020   9.989
50355W        W11721  17.240  39.450  14.314
50356W        W11722  35.916  11.273   1.795
50357W        W11723  43.862  43.922   2.336
50358W        W11724  43.380  22.601   4.820
50359W        W11725  35.478  19.171  14.382
50360W        W11726  21.223  27.024   3.364
50361W        W11727  29.600  19.234  14.355
50362W        W11728  41.498  18.781  12.477
50363W        W11729   0.324  41.015   3.313
50364W        W11730  26.657   7.858   2.182
50365W        W11731   3.714  40.972  11.509
50366W        W11732  32.595   7.183  13.435
50367W        W11733  43.434  18.220   3.739
50368W        W11734  23.038  34.504   4.144
50369W        W11735  19.779  32.490   0.336
50370W        W11736   2.895   6.778   0.321
50371W        W11737  34.534  15.322   4.245
50372W        W11738  39.013  19.750  14.381
50373W        W11739  10.224  23.722   0.736
50374W        W11740  23.510  39.327  13.042
50375W        W11741   0.436  20.199   0.265
50376W        W11742  34.517  21.179  11.984
50377W        W11743   8.861  35.034  13.812
50378W        W11744  42.421   8.720  13.000
50379W        W11745   4.813  19.076   0.890
50380W        W11746  18.194   6.278   3.308
50381W        W11747  43.788  26.688   4.169
50382W        W11748   4.354  38.958  14.988
50383W        W11749  37.543  18.545  11.475
50384W        W11750  18.276  38.539   4.738
50385W        W11751  28.968  26.107   4.824
50386W        W11752  18.253   8.777   2.304
50387W        W11753  42.422   2.849   1.336
50388W        W11754  27.505  43.494   1.796
50389W        W11755   0.323  44.429  13.478
50390W        W11756   3.743  35.086   3.802
50391W        W11757  12.844  24.140  14.399
50392W        W11758   9.807  25.105  14.759
50393W        W11759   6.243  17.271  13.324
50394W        W11760  43.308  20.239  10.955
50395W        W11761  28.178   1.391  12.435
50396W        W11762  10.740   1.470  13.329
50397W        W11763  27.563  26.540  12.936
50398W        W11764  12.615  41.468   2.714
50399W        W11765  17.767  32.463   2.363
50400W        W11766  25.576  39.852   3.180
50401W        W11767   8.256   2.725  12.829
50402W        W11768  26.699  21.717   3.841
50403W        W11769   9.282  42.416  11.993
50404W        W11770  42.505   0.777  14.945
50405W        W11771  31.625  43.945  12.519
50406W        W11772  16.142  25.476   3.821
50407W        W11773  26.059  28.034  14.367
50408W        W11774  42.902  36.020  13.895
50409W        W11775  18.182   1.391   1.310
50410W        W11776  21.678  21.166   0.386
50411W        W11777   4.712   1.471  14.028
50412W        W11778   7.908  16.286   9.483
50413W        W11779  21.669   2.965   2.850
50414W        W11780  22.515  32.613   1.786
50415W        W11781  19.644  40.846  11.918
50416W        W11782   0.950  43.868  13.026
50417W        W11783  30.043  41.470   0.908
50418W        W11784  13.137  33.949   2.770
50419W        W11785  35.428  17.208  14.813
50420W        W11786   0.452  23.641  12.977
50421W        W11787  30.985  31.152  13.037
50422W        W11788  25.121  22.531   4.751
50423W        W11789  27.185  34.601  11.572
50424W        W11790  14.729  43.273   3.237
50425W        W11791  27.542   4.736   4.774
50426W        W11792  37.925  37.945   4.304
50427W        W11793  40.534   6.687  12.980
50428W        W11794   6.778  20.760   2.216
50429W        W11795  25.132   2.721   3.634
50430W        W11796  44.808  39.915   3.790
50431W        W11797  14.248   7.719  13.035
50432W        W11798  27.557  15.254  14.513
50433W        W11799  10.336  38.021  12.885
50434W        W11800   8.381  15.152  13.838
50435W        W11801  28.472  44.002   4.647
50436W        W11802   0.493  28.988   3.266
50437W        W11803  39.354  40.932  13.344
50438W        W11804  32.545  43.795   2.251
50439W        W11805  43.385  43.500  10.918
50440W        W11806  18.211  40.484   1.744
50441W        W11807  37.434  13.126   2.401
50442W        W11808  24.560  13.649  10.574
50443W        W11809  44.277  26.490   1.900
50444W        W11810   1.824   3.953  10.042
50445W        W11811  14.714  44.442   3.640
50446W        W11812  31.950   2.884   0.309
50447W        W11813  44.985  22.142   2.863
50448W        W11814   9.738  28.101  14.328
50449W        W11815  40.982  13.136   4.246
50450W        W11816  12.241   0.865   0.287
50451W        W11817  36.873  23.100   4.703
50452W        W11818  14.731   9.276  14.022
50453W        W11819   8.896   0.310   4.709
50454W        W11820  40.889  15.626   0.260
50455W        W11821  12.783  44.815  10.492
50456W        W11822  41.408   0.964   2.306
50457W        W11823  10.675   6.339   4.324
50458W        W11824  41.397  34.424   3.172
50459W        W11825  15.692  21.034   1.884
50460W        W11826   6.827   2.829  10.467
50461W        W11827   3.323  13.674  10.416
50462W        W11828   4.742  17.649  12.943
50463W        W11829  23.662  37.964   0.335
50464W        W11830  43.804  14.198   3.802
50465W        W11831  17.627  40.356  13.935
50466W        W11832  38.004  33.536   1.781
50467W        W11833  16.784  12.732   3.158
50468W        W11834  11.668  44.763   3.685
50469W        W11835  17.112  16.589   2.747
50470W        W11836  28.565  24.182   4.181
50471W        W11837  19.236   6.702  10.908
50472W        W11838  33.429  44.856   2.690
50473W        W11839  15.758  35.886   0.390
50474W        W11840  14.145  37.384   5.257
50475W        W11841  30.034  36.942   0.916
50476W        W11842  23.607  35.056   1.893
50477W        W11843  14.624   0.864   4.710
50478W        W11844  18.100  26.494   1.904
50479W        W11845  17.130  37.831   2.662
50480W        W11846   6.255  38.522  14.784
50481W        W11847  11.768  25.139  10.644
50482W        W11848  22.633  21.538  14.478
50483W        W11849  31.501  24.032  12.472
50484W        W11850  31.417  32.513   2.316
50485W        W11851  17.582  28.573   0.483
50486W        W11852  43.484   7.207  11.995
50487W        W11853  37.399  37.496   2.901
50488W        W11854  13.807  37.548   3.163
50489W        W11855   6.782  11.820   4.295
50490W        W11856  39.989   6.767  10.563
50491W        W11857   2.315   8.862   2.346
50492W        W11858  27.472  38.855  14.453
50493W        W11859  40.348  33.101   2.857
50494W        W11860  12.621   7.227   0.451
50495W        W11861   5.352   7.193   1.435
50496W        W11862  41.995  41.451   5.264
50497W        W11863   0.285  41.310  10.949
50498W        W11864  39.009  42.019   1.833
50499W        W11865  38.350  32.423   4.245
50500W        W11866  24.514  14.662  12.451
50501W        W11867  40.910  28.605   3.692
50502W        W11868  13.134  32.890  13.888
50503W        W11869   3.925   6.863  13.805
50504W        W11870  26.599  22.096  13.312
50505W        W11871  23.065  16.780  10.600
50506W        W11872  35.943  16.129   3.368
50507W        W11873  31.928   1.427   0.882
50508W        W11874  44.294  29.980  12.499
50509W        W11875  44.390   6.425  14.311
50510W        W11876  44.753  10.233   4.321
50511W        W11877  38.939  29.971  10.510
50512W        W11878  13.822   9.645  12.463
50513W        W11879  30.993   3.386  10.089
50514W        W11880  27.016  18.145   2.832
50515W        W11881  28.944  44.448  11.427
50516W        W11882  25.593  10.281   0.353
50517W        W11883  10.211  29.618  13.437
50518W        W11884   3.955  10.718  14.958
50519W        W11885  21.211   5.890   3.748
50520W        W11886  26.636  25.999   9.527
50521W        W11887   7.284  17.137  10.499
50522W        W11888  13.823  13.700  10.462
50523W        W11889  36.452   0.478  11.477
50524W        W11890   6.868  38.000   0.335
50525W        W11891  22.021  42.302  12.513
50526W        W11892   5.913   3.236  11.086
50527W        W11893   6.707  30.418  10.607
50528W        W11894   2.860   5.345  13.527
50529W        W11895  37.926   1.272  10.436
50530W        W11896  29.147  25.083   3.372
50531W        W11897   3.387  12.299  12.028
50532W        W11898  21.150   9.867  11.543
50533W        W11899  11.289  12.255  11.544
50534W        W11900  14.322  39.479  14.326
50535W        W11901  16.314  41.303  12.340
50536W        W11902  30.050  12.676   1.718
50537W        W11903  26.589  28.059  11.532
50538W        W11904  38.891   5.297   4.836
50539W        W11905   5.755   7.867  12.047
50540W        W11906  23.042  22.742   2.249
50541W        W11907   6.422  34.549   3.633
50542W        W11908   6.727  13.210   1.721
50543W        W11909  39.814  33.499  12.851
50544W        W11910   9.386   8.222   4.682
50545W        W11911   7.787  44.455   2.721
50546W        W11912  29.638  24.517   1.816
50547W        W11913  37.085  44.437   3.306
50548W        W11914  40.991   1.401   0.422
50549W        W11915   3.299   6.426   2.756
50550W        W11916  29.069  19.592   1.400
50551W        W11917  24.085  17.066   0.834
50552W        W11918  22.246  33.063   4.279
50553W        W11919   5.291  30.919   3.363
50554W        W11920  44.807  41.017   4.208
50555W        W11921  26.610  16.775  14.294
50556W        W11922   4.410  36.457  14.909
50557W        W11923   1.410  16.110  14.935
50558W        W11924  10.183  33.999  13.455
50559W        W11925   4.374  42.398  13.819
50560W        W11926  15.634  11.262  10.134
50561W        W11927  27.135  15.641   0.467
50562W        W11928  23.025   5.761  10.428
50563W        W11929  27.509  42.884   0.401
50564W        W11930  19.539  40.879  14.339
50565W        W11931  14.098   1.848  13.390
50566W        W11932   9.228   9.217  13.021
50567W        W11933  30.516  13.338   1.355
50568W        W11934  33.962  43.774   4.264
50569W        W11935   0.313  22.637   0.795
50570W        W11936  44.974  19.173   1.277
50571W        W11937  32.889  30.472   2.677
50572W        W11938  13.753   1.268  13.498
50573W        W11939  39.362   0.843  14.929
50574W        W11940   1.481   2.786   2.216
50575W        W11941   1.971  17.299  14.322
50576W        W11942   8.268   9.809   1.715
50577W        W11943  13.236  15.634  12.926
50578W        W11944  34.089   8.813   0.904
50579W        W11945  35.493  36.978  13.514
50580W        W11946  14.224  29.556   2.893
50581W        W11947  38.360  33.022   2.677
50582W        W11948  18.100  38.334   2.371
50583W        W11949  29.575  31.628   3.168
50584W        W11950  23.064  41.452  13.539
50585W        W11951  36.939  37.024   0.417
50586W        W11952  39.015  35.948   2.206
50587W        W11953  27.679   8.768  12.075
50588W        W11954  37.381  10.291  14.444
50589W        W11955   1.738  39.881   0.369
50590W        W11956  16.155  35.550  13.966
50591W        W11957  42.837   0.812  10.422
50592W        W11958  32.599  35.568  13.449
50593W        W11959  12.620  25.212   0.944
50594W        W11960  44.457  11.836  10.609
50595W        W11961  19.268  20.149  13.472
50596W        W11962  22.548  22.076  12.012
50597W        W11963  19.133  32.909  12.580
50598W        W11964   6.230  43.359   4.345
50599W        W11965  16.134  22.029   4.809
50600W        W11966   4.820  25.205   3.863
50601W        W11967  43.344  21.572   4.660
50602W        W11968  24.610  15.166  11.929
50603W        W11969  24.682  13.120   0.293
50604W        W11970  37.877  36.895  12.385
50605W        W11971  13.829  18.547  10.410
50606W        W11972  44.774  13.774   2.778
50607W        W11973  42.326  42.371  11.023
50608W        W11974  35.436  24.706   0.771
50609W        W11975  14.120   9.880  12.456
50610W        W11976   1.391  25.547   4.661
50611W        W11977  20.603  20.588   1.835
50612W        W11978  37.545  14.652  14.801
50613W        W11979  11.288  38.462   1.873
50614W        W11980  44.323   8.835  13.389
50615W        W11981  42.387  38.922   1.302
50616W        W11982  34.113  14.623   4.659
50617W        W11983  16.177  26.582  12.962
50618W        W11984  34.440  11.635   1.269
50619W        W11985  41.803   3.785   1.286
50620W        W11986   1.879   6.311   4.692
50621W        W11987   0.898   9.162  10.926
50622W        W11988   3.910   4.375  13.477
50623W        W11989  22.096  26.666  12.514
50624W        W11990   0.363  23.230   3.367
50625W        W11991  16.726   0.810  12.846
50626W        W11992  10.869  40.345   9.931
50627W        W11993  37.064  27.960  13.002
50628W        W11994  34.921   5.439  13.913
50629W        W11995  23.017  15.629   3.747
50630W        W11996  28.053   7.700  12.386
50631W        W11997   6.712   2.724  13.358
50632W        W11998  17.753  41.404   2.329
50633W        W11999  27.551  42.961  11.453
50634W        W12000  41.832   8.771  12.080
50635W        W12001  35.445   7.721   3.258
50636W        W12002  42.950  37.955   5.192
50637W        W12003  31.618  26.022  12.512
50638W        W12004  10.260  20.202   0.483
50639W        W12005  37.373   2.321  14.831
50640W        W12006  30.041  17.682  10.047
50641W        W12007  17.119   7.817   0.919
50642W        W12008   3.818  39.390  12.451
50643W        W12009   0.451  11.235   0.882
50644W        W12010  18.115  35.979   1.895
50645W        W12011   3.830  33.419   3.800
50646W        W12012  13.678  26.999   0.265
50647W        W12013  34.064  26.574   5.142
50648W        W12014  28.661  35.599   3.866
50649W        W12015  11.211  12.144  12.858
50650W        W12016  20.757  21.675  12.520
50651W        W12017  40.464  12.286  12.069
50652W        W12018  39.453  27.943  13.800
50653W        W12019  17.136   7.783  13.917
50654W        W12020  31.968  33.949  14.027
50655W        W12021   5.855  31.045  12.441
50656W        W12022  41.526   2.750  11.444
50657W        W12023  26.675  10.247   0.352
50658W        W12024  38.881   6.810  12.420
50659W        W12025  14.213   3.242   4.738
50660W        W12026   1.311  40.898   0.893
50661W        W12027   7.259  39.838   3.203
50662W        W12028  38.442  10.644   4.670
50663W        W12029  44.376  36.438   4.223
50664W        W12030   3.322  41.394   0.832
50665W        W12031   3.216   3.908   0.453
50666W        W12032  33.573  17.606  13.364
50667W        W12033  34.386   3.446   0.397
50668W        W12034  30.429   5.270  13.487
50669W        W12035  14.223  34.420   3.296
50670W        W12036  22.080  16.298   0.788
50671W        W12037  33.507   4.751  11.435
50672W        W12038  39.878   3.259   1.835
50673W        W12039  18.279  11.720  13.394
50674W        W12040  21.673  43.487   1.784
50675W        W12041  14.596  34.599   5.636
50676W        W12042  29.580   1.296  12.374
50677W        W12043  26.039   0.753   1.721
50678W        W12044   4.297  27.466  11.965
50679W        W12045  16.098  16.771   1.788
50680W        W12046  15.108  34.382  11.993
50681W        W12047  19.091   5.337   3.289
50682W        W12048  23.557  36.878  13.498
50683W        W12049  43.349  33.129   2.805
50684W        W12050  22.037  41.357   1.350
50685W        W12051  28.954   8.762   2.698
50686W        W12052  43.016  25.083   1.733
50687W        W12053  23.575  13.804  14.788
50688W        W12054   6.416  27.611  10.560
50689W        W12055  29.521  39.037  12.840
50690W        W12056  10.796  23.698   0.394
50691W        W12057  10.280  37.084   2.344
50692W        W12058  10.307   5.898  14.800
50693W        W12059  22.148   8.288   0.379
50694W        W12060  27.171  41.435   1.805
50695W        W12061  29.521  10.656  13.389
50696W        W12062  23.190  21.125   1.835
50697W        W12063  13.313  38.017  13.414
50698W        W12064  35.986  36.560  12.935
50699W        W12065   2.887  30.066   1.321
50700W        W12066  18.733  23.158  14.890
50701W        W12067  19.215   5.933   2.353
50702W        W12068  35.462  14.120   3.300
50703W        W12069  32.410  40.453   3.287
50704W        W12070  15.092  31.472  12.451
50705W        W12071  14.655   6.716  13.926
50706W        W12072  44.403  37.918  10.426
50707W        W12073  24.202  14.831  14.391
50708W        W12074   1.338  27.196  14.288
50709W        W12075  41.926  26.165  13.024
50710W        W12076  19.236   2.422  11.590
50711W        W12077  14.705   2.932  13.480
50712W        W12078  41.503  27.563  10.460
50713W        W12079  38.454  26.157  12.847
50714W        W12080  32.989  29.115   1.265
50715W        W12081  23.491   3.435   0.799
50716W        W12082  25.557  23.568   5.194
50717W        W12083  40.966  44.985   3.295
50718W        W12084  37.880  26.955  10.489
50719W        W12085  33.013  14.825   0.374
50720W        W12086  31.003  37.904  14.346
50721W        W12087  16.286  34.065   2.404
50722W        W12088  11.136  20.041   2.884
50723W        W12089   8.706  29.019  12.087
50724W        W12090   0.754  28.614   1.420
50725W        W12091  36.417  25.087  14.306
50726W        W12092  38.556  15.132   1.914
50727W        W12093  37.078  41.808   4.637
50728W        W12094  18.135   1.871  12.473
50729W        W12095  42.000  30.440  13.999
50730W        W12096  41.967  19.563   3.871
50731W        W12097  29.966   8.775   3.869
50732W        W12098  30.060  44.002   1.443
50733W        W12099   4.941  19.255   0.354
50734W        W12100  22.632  43.300   1.221
50735W        W12101  29.505   4.417   3.348
50736W        W12102  19.106   4.385   3.328
50737W        W12103  14.235   0.383   2.727
50738W        W12104  16.584  33.384   4.293
50739W        W12105  36.875  25.193   2.202
50740W        W12106  30.931   3.773   1.879
50741W        W12107  33.594  29.122  12.388
50742W        W12108  40.812   1.324  14.931
50743W        W12109  33.992   6.882  11.589
50744W        W12110  31.130   8.778  14.391
50745W        W12111  26.468  17.746   2.699
50746W        W12112  26.682  42.006   3.312
50747W        W12113  19.591  14.662  13.317
50748W        W12114  38.437  16.297   0.269
50749W        W12115   0.785  19.693  12.389
50750W        W12116  15.132  36.353  11.458
50751W        W12117  10.639   4.927   4.614
50752W        W12118  11.237  17.229  11.498
50753W        W12119  25.574  29.961  11.949
50754W        W12120   8.737  18.170   0.852
50755W        W12121  26.059  42.313  11.088
50756W        W12122   7.367  39.935  13.423
50757W        W12123  17.264  38.020   4.615
50758W        W12124  28.565  25.651   3.823
50759W        W12125  28.094   2.797   3.254
50760W        W12126  28.099   1.360  13.384
50761W        W12127  13.839   8.397   2.792
50762W        W12128  32.985  10.677  14.323
50763W        W12129  12.354  15.196  12.407
50764W        W12130  33.411   9.263  10.642
50765W        W12131  33.610   2.471   3.854
50766W        W12132  37.524  29.529  14.842
50767W        W12133   6.830   5.309   3.160
50768W        W12134  37.446   5.889   3.696
50769W        W12135  21.604  19.283   1.761
50770W        W12136  43.339   1.790   4.338
50771W        W12137  42.417   6.426   3.150
50772W        W12138   9.247  29.946   1.286
50773W        W12139  34.377  43.390  11.056
50774W        W12140  11.324  24.096  11.036
50775W        W12141  10.351  19.612  13.516
50776W        W12142  24.041  21.748  13.009
50777W        W12143  20.604   4.862   2.665
50778W        W12144  31.616  20.092   2.896
50779W        W12145  34.913   1.807  11.465
50780W        W12146  26.650  20.043   3.654
50781W        W12147  28.442  33.554  12.346
50782W        W12148  44.760  44.408   0.367
50783W        W12149  14.109   5.769   2.668
50784W        W12150  42.998  16.633  12.087
50785W        W12151  17.193  33.388  13.522
50786W        W12152  16.095  31.081  12.939
50787W        W12153  16.316  38.826   3.683
50788W        W12154  12.691  35.421  12.501
50789W        W12155  25.182  10.793  14.787
50790W        W12156  19.632  34.394  12.053
50791W        W12157  40.925  29.960  14.391
50792W        W12158  31.408  23.131   2.279
50793W        W12159  21.711  40.803   2.387
50794W        W12160  21.044  21.559   0.390
50795W        W12161  31.916   5.809   4.810
50796W        W12162  20.764  11.763   0.862
50797W        W12163  23.131  26.990  11.115
50798W        W12164   7.805  11.360  10.965
50799W        W12165   8.386  30.438  13.431
50800W        W12166  42.993   2.302   4.796
50801W        W12167  35.879  40.376  11.439
50802W        W12168   0.790  12.340  10.998
50803W        W12169  29.011   8.385  12.362
50804W        W12170  19.136  36.019   3.164
50805W        W12171   0.430  33.469  13.873
50806W        W12172  35.422  21.525   2.900
50807W        W12173  18.242  38.430   2.811
50808W        W12174  22.024  37.342   3.196
50809W        W12175   4.204   6.781  11.609
50810W        W12176  21.636  13.110   4.147
50811W        W12177  15.690  43.323   2.388
50812W        W12178  30.592  20.040   0.727
50813W        W12179  36.464  34.967  12.070
50814W        W12180  27.950  16.270  12.823
50815W        W12181  16.186  19.267  14.859
50816W        W12182  41.388  44.961  12.868
50817W        W12183  32.937   2.452   4.668
50818W        W12184  33.889  22.506  14.363
50819W        W12185   6.916  44.476  13.823
50820W        W12186  40.943  24.619   0.889
50821W        W12187   8.373  27.662  12.575
50822W        W12188  30.975  26.518   0.254
50823W        W12189   4.794  38.495   2.774
50824W        W12190   1.397  12.730   4.252
50825W        W12191  26.110  20.178   1.885
50826W        W12192  14.340  40.049   1.822
50827W        W12193   0.296  36.414   0.430
50828W        W12194   5.255  15.118  12.860
50829W        W12195  28.679  11.743   0.958
50830W        W12196  29.565  21.717  14.295
50831W        W12197   6.898  20.532   0.481
50832W        W12198  18.747  10.220   0.329
50833W        W12199  34.461  25.141  11.072
50834W        W12200  41.446  11.193   4.289
50835W        W12201  18.173  26.671   4.332
50836W        W12202  31.437  27.964   0.883
50837W        W12203  39.849  24.048  10.934
50838W        W12204  12.648   5.330   3.260
50839W        W12205  31.063  28.504   1.295
50840W        W12206   9.204   3.266   4.725
50841W        W12207  42.353  19.756  10.568
50842W        W12208  20.132  12.212   3.701
50843W        W12209  27.049  34.503  12.916
50844W        W12210  10.817  22.093  13.894
50845W        W12211  30.415  31.084  14.769
50846W        W12212  35.586  39.538   3.689
50847W        W12213   7.211  14.312   1.912
50848W        W12214   6.816  26.555  14.346
50849W        W12215   5.908  31.634  10.426
50850W        W12216  21.742  19.192  11.929
50851W        W12217   5.247  17.108  13.016
50852W        W12218  20.145   9.219  12.395
50853W        W12219   3.440  43.337   0.955
50854W        W12220   4.328  34.466   0.401
50855W        W12221  40.927   5.360   0.908
50856W        W12222  36.470  12.824   4.708
50857W        W12223  26.130  20.759   3.800
50858W        W12224  30.585  37.531  13.406
50859W        W12225  36.549   1.251   1.879
50860W        W12226  16.705   6.227  14.813
50861W        W12227  35.537  12.622   4.225
50862W        W12228  17.212  23.635   0.740
50863W        W12229  44.830  28.156   4.192
50864W        W12230  31.589   4.388   4.213
50865W        W12231  38.003  40.986  11.938
50866W        W12232  34.912  16.733  10.438
50867W        W12233   5.871   4.372  10.490
50868W        W12234   9.877  35.081   2.692
50869W        W12235  30.518   8.724   3.778
50870W        W12236  20.767  37.496  13.319
50871W        W12237  17.083   0.948   3.805
50872W        W12238  10.717  44.866  11.122
50873W        W12239   4.349  16.802  13.840
50874W        W12240  35.530   8.834  10.970
50875W        W12241   5.201  33.467  14.908
50876W        W12242   3.804  30.950   3.294
50877W        W12243  10.291   0.956   5.126
50878W        W12244   0.964  12.829  13.878
50879W        W12245  18.703  39.980  13.799
50880W        W12246  36.431  39.015  12.933
50881W        W12247   2.440  40.361   2.315
50882W        W12248  17.718  39.419  12.004
50883W        W12249  19.084  11.349   4.735
50884W        W12250  27.022  35.443  12.828
50885W        W12251  10.703  27.599   1.733
50886W        W12252  17.227  34.931   4.754
50887W        W12253  12.674  39.422   0.894
50888W        W12254  18.263  39.401   3.177
50889W        W12255  43.783   1.935   2.670
50890W        W12256  37.511   9.709  11.588
50891W        W12257   7.330  35.556   2.208
50892W        W12258  16.100  22.678   1.925
50893W        W12259  30.935  42.028  11.129
50894W        W12260   7.841  24.642  10.608
50895W        W12261  32.455   4.945  14.767
50896W        W12262  17.606  28.030   2.755
50897W        W12263  18.606  34.457   2.399
50898W        W12264  26.604  11.729  11.043
50899W        W12265   5.881   0.811   3.729
50900W        W12266  21.684  11.133   1.237
50901W        W12267  18.250  35.855  11.015
50902W        W12268   9.246  31.408  11.949
50903W        W12269   4.267  43.826  12.966
50904W        W12270  15.326  36.015  13.887
50905W        W12271  15.191  25.980   0.407
50906W        W12272   4.903  40.950   2.293
50907W        W12273   2.233  17.163  10.478
50908W        W12274   3.827  15.146  13.797
50909W        W12275  36.933  40.955   5.750
50910W        W12276  39.436  37.435  10.548
50911W        W12277  19.211  18.155  13.331
50912W        W12278  17.752  28.088   1.319
50913W        W12279  37.425  27.477   1.813
50914W        W12280  36.921   2.286   0.467
50915W        W12281   9.741  29.577   0.917
50916W        W12282  40.323  10.213   0.338
50917W        W12283   9.375  28.006  12.039
50918W        W12284  41.861  41.516  11.955
50919W        W12285  10.307  40.983  12.532
50920W        W12286  11.777  37.431  14.489
50921W        W12287   1.244  19.069  13.377
50922W        W12288  32.138  27.495  10.977
50923W        W12289  29.571  37.535  14.976
50924W        W12290   3.325  21.225   5.104
50925W        W12291  31.496  22.099   2.249
50926W        W12292  18.691  43.416  14.890
50927W        W12293  36.007  29.588   2.723
50928W        W12294  12.219   2.364   2.373
50929W        W12295  19.105  20.561  14.004
50930W        W12296  31.622  20.584  10.504
50931W        W12297  28.517  26.199  14.486
50932W        W12298   6.680  25.561   2.228
50933W        W12299  14.243  16.736   0.803
50934W        W12300  35.015  33.084  12.437
50935W        W12301  27.036  36.884  14.501
50936W        W12302  34.099  10.737  14.407
50937W        W12303  28.100  15.593   3.751
50938W        W12304  17.737   8.328   4.317
50939W        W12305  16.173  23.696   1.846
50940W        W12306  26.046  34.917  12.029
50941W        W12307  13.607  39.359  14.367
50942W        W12308  31.613  15.285  11.890
50943W        W12309  43.827  10.675   1.273
50944W        W12310  44.762  35.476  10.558
50945W        W12311  37.423  30.939   0.962
50946W        W12312   7.282  18.219   0.245
50947W        W12313  29.542  30.959   3.378
50948W        W12314   6.849  27.196   3.350
50949W        W12315   3.791  35.548   1.371
50950W        W12316   1.933  19.607  14.026
50951W        W12317  12.806   0.294   3.780
50952W        W12318  12.698  17.682   2.713
50953W        W12319   4.933  24.650   0.807
50954W        W12320  15.706  26.177   4.119
50955W        W12321  27.671   9.286   2.893
50956W        W12322   6.268  19.192  13.024
50957W        W12323  34.062  44.371  12.913
50958W        W12324  21.107   8.880  14.418
50959W        W12325  40.801   0.410  12.873
50960W        W12326  42.910  20.599  10.427
50961W        W12327  10.776  26.694   0.966
50962W        W12328  16.214   4.850  10.899
50963W        W12329   2.922  21.250   3.309
50964W        W12330  11.773  16.626   2.398
50965W        W12331  28.174  35.465   1.753
50966W        W12332   4.252  25.574   1.788
50967W        W12333  20.051  34.984   1.347
50968W        W12334  35.463   8.189  12.966
50969W        W12335  17.246  34.544   3.745
50970W        W12336  36.903  10.794  10.517
50971W        W12337  18.162   5.210  12.436
50972W        W12338  12.302  17.633  13.914
50973W        W12339   9.751  37.917   3.369
50974W        W12340  17.718   6.915  13.346
50975W        W12341  43.765  34.062  14.788
50976W        W12342  19.244   0.288   1.261
50977W        W12343  35.470  15.087   3.308
50978W        W12344  30.495  19.091  11.928
50979W        W12345   5.759  26.115  13.406
50980W        W12346  35.966   1.254   4.731
50981W        W12347   0.433  28.662  14.916
50982W        W12348  20.759  12.236   3.360
50983W        W12349   2.447  23.078   3.645
50984W        W12350  37.435  34.916   3.669
50985W        W12351  16.251  12.731   0.443
50986W        W12352  27.530   1.868  12.960
50987W        W12353  12.805  32.088   2.288
50988W        W12354  35.988  11.327  13.046
50989W        W12355  16.683  18.104   0.331
50990W        W12356  24.069  12.196   0.797
50991W        W12357   2.724  39.404  12.560
50992W        W12358   9.757   7.695   2.180
50993W        W12359  37.430  10.243   2.270
50994W        W12360  24.686   0.361  10.954
50995W        W12361  15.617  23.512   4.332
50996W        W12362  34.037  21.061  11.507
50997W        W12363  14.277  31.607  10.943
50998W        W12364  16.632  43.843  10.538
50999W        W12365   1.240  24.020   1.704
51000W        W12366  39.880  39.472  10.494
51001W        W12367  41.337  42.777   1.451
51002W        W12368   9.177  24.496  14.426
51003W        W12369   2.732  13.621  12.947
51004W        W12370  27.113   4.270  12.083
51005W        W12371   7.777  23.988   2.351
51006W        W12372  27.968  35.973  14.346
51007W        W12373  31.147  32.068   9.934
51008W        W12374  15.166   5.274   4.235
51009W        W12375  41.336  28.463  11.003
51010W        W12376   5.358  38.372  11.120
51011W        W12377  39.905  13.834  13.806
51012W        W12378  44.774  21.537   4.142
51013W        W12379  17.272  44.396   2.350
51014W        W12380   5.733  20.538  14.888
51015W        W12381  17.127  11.672  10.131
51016W        W12382  25.520  15.246  11.103
51017W        W12383  39.034  10.147  12.526
51018W        W12384  20.718  22.189   3.362
51019W        W12385  23.602  42.458  13.971
51020W        W12386  16.233  32.940  12.385
51021W        W12387   4.342  26.110  14.964
51022W        W12388   5.816   7.320  11.377
51023W        W12389  29.060  20.068  12.493
51024W        W12390  21.081  31.937   3.315
51025W        W12391  35.358  42.404   0.395
51026W        W12392  10.822  42.506  11.981
51027W        W12393  18.273   6.348  13.419
51028W        W12394  10.863  14.672  12.943
51029W        W12395  28.045  23.668  12.539
51030W        W12396   6.407  32.119  12.533
51031W        W12397  28.669  32.424   4.767
51032W        W12398   0.406  43.303   4.613
51033W        W12399   9.851  33.878  13.417
51034W        W12400  43.947  29.925  12.887
51035W        W12401  44.848  29.936   4.799
51036W        W12402  39.871  44.408  11.081
51037W        W12403  28.048  39.357   0.337
51038W        W12404   5.783  42.499  14.297
51039W        W12405  11.735  29.090   4.776
51040W        W12406  15.242  21.614  11.428
51041W        W12407  28.607   9.870  14.515
51042W        W12408  15.778  43.458   4.788
51043W        W12409  16.160  44.009   3.675
51044W        W12410   6.921  30.587   2.833
51045W        W12411  17.095  36.537  12.475
51046W        W12412  40.815  15.758  12.575
51047W        W12413  35.380  42.973  11.071
51048W        W12414  34.046  31.588  10.634
51049W        W12415   6.413  42.859  10.888
51050W        W12416  20.583  25.503   3.843
51051W        W12417   1.298   8.700   1.363
51052W        W12418  31.435  35.011  14.874
51053W        W12419   2.908  11.768  10.482
51054W        W12420  17.768   4.855   1.704
51055W        W12421   1.911   7.695   4.191
51056W        W12422  42.374  20.554   0.280
51057W        W12423  32.063  21.532  12.913
51058W        W12424  13.164  36.954  13.956
51059W        W12425  16.146  20.206  12.457
51060W        W12426  17.090   7.882  13.057
51061W        W12427  31.077   0.811  12.030
51062W        W12428  33.911  26.459  11.587
51063W        W12429  44.469   1.750  14.838
51064W        W12430   4.746   8.192  12.367
51065W        W12431   8.250   4.376   1.780
51066W        W12432  37.081  10.255   0.484
51067W        W12433  39.480  24.165   1.930
51068W        W12434  25.681  18.286   2.281
51069W        W12435  28.497  12.142  10.406
51070W        W12436  40.525  13.702   1.708
51071W        W12437  29.127  12.844  13.911
51072W        W12438  42.288  36.491  12.020
51073W        W12439  34.006  10.186  14.343
51074W        W12440   2.349  24.568  14.892
51075W        W12441  22.138  35.360  13.538
51076W        W12442  42.967  25.200   4.252
51077W        W12443  34.452   4.221   1.300
51078W        W12444   7.308  41.980   0.348
51079W        W12445   2.397  43.846   1.725
51080W        W12446  32.969  11.331   2.207
51081W        W12447  27.170  38.073  11.037
51082W        W12448  21.208  32.576  12.094
51083W        W12449   4.828  27.608  10.897
51084W        W12450   5.830  43.346  11.383
51085W        W12451  15.292  10.633  14.411
51086W        W12452   3.245  27.547  10.544
51087W        W12453  29.564  19.199  14.840
51088W        W12454  41.936   4.894  10.158
51089W        W12455  12.803  17.691  14.819
51090W        W12456  32.945  17.767  11.938
51091W        W12457   6.189  34.473   2.351
51092W        W12458  39.959   6.287  13.427
51093W        W12459  38.468  15.714  10.538
51094W        W12460  41.532  37.858   2.788
51095W        W12461  39.876  24.029   0.729
51096W        W12462   3.423  37.868   4.641
51097W        W12463   4.915  11.280  13.037
51098W        W12464  28.465   1.837   2.896
51099W        W12465   4.910   2.345  10.409
51100W        W12466  26.204  13.663   2.235
51101W        W12467  13.759  43.494   0.904
51102W        W12468  26.483  18.673  13.840
51103W        W12469  30.963  32.561   3.765
51104W        W12470  25.624  32.418  12.963
51105W        W12471  17.642  32.957  10.934
51106W        W12472  37.363  32.622   4.807
51107W        W12473  27.053  23.594   0.305
51108W        W12474  24.599  32.571  14.506
51109W        W12475   7.796   5.825   2.825
51110W        W12476  20.123  18.210  13.442
51111W        W12477  40.431  30.464  14.884
51112W        W12478  43.878   8.799  13.862
51113W        W12479  13.640  27.564   2.743
51114W        W12480  25.169  37.975  14.984
51115W        W12481  25.510   0.855  12.012
51116W        W12482  42.896  19.575  13.324
51117W        W12483  14.241  27.137  14.501
51118W        W12484  22.025   3.829   2.727
51119W        W12485   5.890  22.216  11.572
51120W        W12486  35.963  12.647   0.802
51121W        W12487  43.348   0.440  13.438
51122W        W12488  10.326   5.413  13.012
51123W        W12489   6.923  32.041   1.917
51124W        W12490  32.618  33.128  11.373
51125W        W12491   5.865  14.174   0.928
51126W        W12492  15.647  13.819   3.180
51127W        W12493  15.799  32.888   2.837
51128W        W12494  31.080  20.052  10.465
51129W        W12495  12.696  14.171   0.908
51130W        W12496  11.342  37.946   2.283
51131W        W12497  11.721  44.497   4.263
51132W        W12498  13.179  10.138  14.812
51133W        W12499  44.459  20.606  14.395
51134W        W12500   0.870  20.552  14.418
51135W        W12501  39.472  24.155  11.461
51136W        W12502   1.390  38.885   4.623
51137W        W12503  22.193   9.268  11.533
51138W        W12504  14.113   6.284  12.401
51139W        W12505  38.878  25.551  13.853
51140W        W12506  24.228  41.348  10.099
51141W        W12507  40.835  43.780   2.384
51142W        W12508   5.768  34.590  13.803
51143W        W12509  11.182  21.078  14.814
51144W        W12510  23.166  28.933  13.411
51145W        W12511  20.058  44.999   2.279
51146W        W12512  38.034  31.480  13.346
51147W        W12513   4.907  24.048  14.460
51148W        W12514   6.257  21.019  14.317
51149W        W12515  30.489  40.321   0.312
51150W        W12516  12.132  29.089  13.323
51151W        W12517   7.682   4.379   1.770
51152W        W12518  15.718  34.039  10.450
51153W        W12519  19.650  37.474  12.538
51154W        W12520  15.653  11.728  14.876
51155W        W12521  41.892  26.659  13.795
51156W        W12522  11.340  26.130   3.664
51157W        W12523   2.913  16.280  11.496
51158W        W12524  23.084  16.687  13.388
51159W        W12525  27.539  42.391   0.254
51160W        W12526  21.100   1.393   1.267
51161W        W12527  27.585  14.762   3.222
51162W        W12528  23.503  23.197   4.162
51163W        W12529  34.459  42.387   2.379
51164W        W12530  15.136  42.396  14.427
51165W        W12531  42.440  24.130   1.355
51166W        W12532  32.560  36.372   0.798
51167W        W12533  19.149  21.538  12.408
51168W        W12534   0.367  43.440   2.837
51169W        W12535   3.796  43.933   0.447
51170W        W12536   9.255   7.790  14.284
51171W        W12537  15.187  15.319  14.473
51172W        W12538   7.879  17.250   2.248
51173W        W12539   0.263  25.695   1.912
51174W        W12540  36.850   5.252  11.075
51175W        W12541  32.525  33.500   3.294
51176W        W12542  18.729   7.705   3.354
51177W        W12543  43.454  35.974  14.455
51178W        W12544   1.955   3.304  13.459
51179W        W12545  38.328  28.949   4.645
51180W        W12546  43.367  20.566  14.790
51181W        W12547  38.331  30.444  13.856
51182W        W12548  28.991  39.388  14.474
51183W        W12549  31.491  13.843   1.849
51184W        W12550  32.018  15.587   4.204
51185W        W12551  13.178   2.421   4.159
51186W        W12552  37.435  41.010  14.379
51187W        W12553  36.937   4.839   3.838
51188W        W12554  27.652  41.301  13.023
51189W        W12555  42.296  38.024  14.947
51190W        W12556  19.751  14.230  13.324
51191W        W12557  30.633  44.767  11.452
51192W        W12558  12.618   2.914  13.872
51193W        W12559  40.824  28.131   4.273
51194W        W12560   3.923  21.245   3.262
51195W        W12561  32.503   7.345   2.718
51196W        W12562  41.984  16.671   4.793
51197W        W12563  38.439  15.639   3.764
51198W        W12564  38.403   9.845  14.285
51199W        W12565  11.622  38.425  11.410
51200W        W12566   0.448  22.132  10.983
51201W        W12567  20.624  39.336  12.400
51202W        W12568  10.633   5.374   0.369
51203W        W12569  24.205  26.554  10.454
51204W        W12570  11.763  26.976   0.470
51205W        W12571  18.568   2.303   0.792
51206W        W12572  16.102  12.624  11.079
51207W        W12573   5.914  25.018   1.425
51208W        W12574  18.710   4.927   0.356
51209W        W12575  30.615  10.161  13.326
51210W        W12576  11.359  16.093   2.346
51211W        W12577  42.314  42.990   4.706
51212W        W12578  44.354  29.121  12.351
51213W        W12579  11.755  32.416   2.793
51214W        W12580  13.137  26.468  14.021
51215W        W12581  24.643  29.011  14.018
51216W        W12582   2.358  10.203  14.845
51217W        W12583  21.158  36.416  12.951
51218W        W12584  32.099  18.726   3.168
51219W        W12585  14.287  33.398  11.435
51220W        W12586   9.218  19.172  10.471
51221W        W12587  13.340  30.951   2.379
51222W        W12588  44.436  12.787   4.652
51223W        W12589  35.446  31.477   0.934
51224W        W12590  42.375  15.586   3.205
51225W        W12591  15.786  13.197  14.926
51226W        W12592  12.297  15.164  11.862
51227W        W12593  25.173  37.369   1.826
51228W        W12594  36.901  19.157   3.715
51229W        W12595  15.150  27.016  11.544
51230W        W12596   7.219  17.171  13.048
51231W        W12597  28.177  19.134   0.419
51232W        W12598  30.419  17.780   2.722
51233W        W12599  39.495  30.495   4.289
51234W        W12600  18.622   2.942  13.792
51235W        W12601  35.061  23.580  11.536
51236W        W12602  17.667  23.185   0.383
51237W        W12603  32.999  30.640  13.867
51238W        W12604  17.069   8.665   0.867
51239W        W12605  44.791  22.737   3.355
51240W        W12606  36.894  36.466  10.477
51241W        W12607   0.467  15.616   0.733
51242W        W12608  20.584  10.139   1.730
51243W        W12609  34.422  37.855   3.352
51244W        W12610  44.282  41.365   5.251
51245W        W12611  36.550  21.230  12.824
51246W        W12612   3.738  22.197  12.857
51247W        W12613  33.625  15.216   2.796
51248W        W12614  43.825  10.849   2.737
51249W        W12615  20.163   5.207   1.440
51250W        W12616  36.023  29.941  13.880
51251W        W12617  28.573  26.526  13.333
51252W        W12618  35.540  43.390   2.231
51253W        W12619  35.944  29.434  14.911
51254W        W12620   1.254  43.487  10.983
51255W        W12621  28.108  10.218   5.219
51256W        W12622   7.292  39.451  12.465
51257W        W12623  39.523   2.266   3.688
51258W        W12624  26.576  13.788  12.453
51259W        W12625  16.128  29.529   3.300
51260W        W12626  25.195   7.281  13.947
51261W        W12627  13.750  18.227   0.278
51262W        W12628  38.837  24.539   1.922
51263W        W12629  10.207  41.845   0.423
51264W        W12630  39.015  29.521  13.391
51265W        W12631   4.763   1.777   3.210
51266W        W12632  37.346   4.259  14.026
51267W        W12633  42.508  11.152  13.838
51268W        W12634  36.964  13.173   1.796
51269W        W12635  24.989  25.505   4.649
51270W        W12636  28.444   8.779   4.766
51271W        W12637   8.399  36.386  13.355
51272W        W12638   1.310  39.045   0.749
51273W        W12639  36.996  43.469  13.473
51274W        W12640  10.746  28.625  12.855
51275W        W12641  30.617  11.326   4.814
51276W        W12642  28.990  39.995   2.308
51277W        W12643   2.319   5.790   3.791
51278W        W12644  10.372  32.410   3.244
51279W        W12645  13.819   5.203   0.257
51280W        W12646  31.933  43.299   2.777
51281W        W12647  22.155  37.923   3.194
51282W        W12648  26.626  28.600  13.051
51283W        W12649  15.302  38.971   2.368
51284W        W12650  42.362  25.147   3.286
51285W        W12651  26.529  31.987   2.869
51286W        W12652   7.409  36.869   2.880
51287W        W12653  14.326  23.199   2.826
51288W        W12654   7.202   3.804  14.461
51289W        W12655  21.724  36.028   0.957
51290W        W12656  33.888  28.145  11.024
51291W        W12657  21.119  30.058   1.793
51292W        W12658   4.733  43.380   2.718
51293W        W12659   2.364   5.875  12.530
51294W        W12660  38.982   6.883  13.947
51295W        W12661  40.538  28.113  11.493
51296W        W12662  18.728  42.426  12.368
51297W        W12663  33.521  32.428  14.897
51298W        W12664   7.668  15.683  14.783
51299W        W12665  22.245  42.463   3.763
51300W        W12666  17.688   4.754   3.812
51301W        W12667   9.202  38.830   4.746
51302W        W12668  16.696   8.668   2.243
51303W        W12669  40.912   2.899  11.945
51304W        W12670   6.250  25.642   4.722
51305W        W12671  20.128  15.155  13.903
51306W        W12672  31.954   2.737  12.092
51307W        W12673  14.732  10.351   4.139
51308W        W12674  13.255  43.398  13.310
51309W        W12675   2.278  26.542  14.986
51310W        W12676   2.734  23.074   4.704
51311W        W12677  39.045  38.532  12.865
51312W        W12678  23.221  21.103   4.717
51313W        W12679   0.878  28.530   2.770
51314W        W12680  33.131  16.734  11.421
51315W        W12681  18.743  37.968   2.776
51316W        W12682  37.998  42.885   4.654
51317W        W12683  35.902  32.104  14.281
51318W        W12684  11.825  40.418   3.232
51319W        W12685  44.294  16.696   1.808
51320W        W12686   9.200  37.416   1.255
51321W        W12687  28.141  12.189   2.877
51322W        W12688   8.728   0.362  14.354
51323W        W12689  34.438  44.296   0.845
51324W        W12690   4.704  27.155  13.367
51325W        W12691  15.751   8.836   4.744
51326W        W12692  25.071  32.996   4.694
51327W        W12693   1.862   6.900   2.695
51328W        W12694  12.119  31.504   2.816
51329W        W12695   7.224   5.368   4.810
51330W        W12696  40.829  41.534  14.295
51331W        W12697  23.074  21.137   5.299
51332W        W12698   4.271  43.427  11.910
51333W        W12699  18.265   7.260   3.381
51334W        W12700  27.179  24.194  11.516
51335W        W12701  34.527  25.661   2.684
51336W        W12702  30.474   2.791  10.480
51337W        W12703  23.546  24.039  11.374
51338W        W12704  41.901  14.254   4.796
51339W        W12705  36.449  31.088   4.658
51340W        W12706  36.866   9.868  11.075
51341W        W12707  12.289  10.283   3.708
51342W        W12708  19.143  17.575   1.298
51343W        W12709  12.118  31.534   4.695
51344W        W12710  12.812  10.256  10.543
51345W        W12711   3.284   7.267   0.743
51346W        W12712  18.614  26.613  10.406
51347W        W12713  10.148  34.374   3.760
51348W        W12714   9.286  32.047   0.731
51349W        W12715   8.888  33.045   4.637
51350W        W12716  28.953  11.348  14.763
51351W        W12717  42.887  30.431  10.899
51352W        W12718  20.688  20.125   0.965
51353W        W12719  13.842  44.355  13.926
51354W        W12720   6.205   4.353  13.811
51355W        W12721  13.727   9.276  10.940
51356W        W12722   6.721  38.515   1.251
51357W        W12723  21.039   3.850  14.322
51358W        W12724  16.203   0.404  12.503
51359W        W12725  28.937  44.957   4.600
51360W        W12726   3.769  42.993   1.793
51361W        W12727   5.296   6.873  14.827
51362W        W12728  30.569  34.117  12.877
51363W        W12729   9.749  21.621  11.912
51364W        W12730   7.733   7.293  10.597
51365W        W12731  13.769   3.226  11.430
51366W        W12732  33.901   8.249   3.223
51367W        W12733   5.920  41.406   1.823
51368W        W12734  27.633  19.221   3.751
51369W        W12735  10.290  27.173  14.285
51370W        W12736  13.742  38.399  11.998
51371W        W12737  23.731  43.785  10.956
51372W        W12738  29.546  42.456   3.281
51373W        W12739  19.588   3.414  11.865
51374W        W12740  27.565   6.787  10.575
51375W        W12741  42.882  37.873   4.314
51376W        W12742  37.436  23.580  11.437
51377W        W12743  41.425  14.595   4.722
51378W        W12744  23.063  15.319   0.879
51379W        W12745  37.026   1.831  11.412
51380W        W12746   9.162   3.852  13.936
51381W        W12747   4.699   0.492   1.269
51382W        W12748  10.687  41.466  14.393
51383W        W12749  13.624  26.461   0.944
51384W        W12750  33.042  16.679  10.643
51385W        W12751   8.662  34.406   3.324
51386W        W12752  44.937   5.325  13.022
51387W        W12753  13.329   1.253   4.156
51388W        W12754  35.069   2.777   1.798
51389W        W12755  13.218  44.887   2.847
51390W        W12756  10.819   4.272   2.214
51391W        W12757   6.720  21.219   2.671
51392W        W12758   3.729  14.660  13.371
51393W        W12759  37.395   1.836   2.344
51394W        W12760  25.524   4.865   1.334
51395W        W12761  40.535   3.915   0.302
51396W        W12762   2.349  26.996   1.341
51397W        W12763  12.222  21.211   1.325
51398W        W12764   2.311  20.029  11.061
51399W        W12765   7.825  30.645  11.898
51400W        W12766   9.790   6.340   4.709
51401W        W12767   1.294  39.007  12.884
51402W        W12768   6.215  42.420   1.749
51403W        W12769  23.037  21.071   2.216
51404W        W12770   7.838  29.111   3.351
51405W        W12771  26.065   4.449  12.530
51406W        W12772  16.751  38.943   1.882
51407W        W12773  36.499  11.316   3.679
51408W        W12774  10.319   2.294   1.363
51409W        W12775  19.049  14.265  11.447
51410W        W12776  32.409  42.907  12.520
51411W        W12777  22.111  13.636  10.915
51412W        W12778   8.378  14.678   2.302
51413W        W12779  37.582  38.506  11.907
51414W        W12780   0.364   0.800   4.196
51415W        W12781  40.831  30.966  12.347
51416W        W12782  38.848  34.055   2.686
51417W        W12783  21.204  30.454   5.237
51418W        W12784   8.776  12.264   0.391
51419W        W12785  26.201  38.395   0.781
51420W        W12786   7.405   9.372   0.860
51421W        W12787   0.313  43.302  13.820
51422W        W12788  10.862  44.465   3.712
51423W        W12789  35.488   9.654   4.190
51424W        W12790  29.448  36.522   1.746
51425W        W12791  26.056   6.400   4.331
51426W        W12792  22.064   6.676   3.320
51427W        W12793  18.552   3.724  12.956
51428W        W12794  22.553  24.020  12.564
51429W        W12795  16.756  15.141   0.800
51430W        W12796   1.454  33.612   3.213
51431W        W12797  28.661  11.822   3.387
51432W        W12798   0.406  12.713   3.833
51433W        W12799   3.302  25.217   0.393
51434W        W12800  43.792  41.446   2.884
51435W        W12801  37.469  26.014   2.797
51436W        W12802   0.468  14.589   2.821
51437W        W12803  22.089  24.169   3.267
51438W        W12804   4.807  39.496   0.312
51439W        W12805  20.730   0.415   4.173
51440W        W12806   1.287   5.296  12.882
51441W        W12807  19.234  33.528  10.593
51442W        W12808  14.099  10.235   2.181
51443W        W12809  31.034  10.341  14.312
51444W        W12810  38.551  27.092  13.929
51445W        W12811  34.948   9.206   2.267
51446W        W12812   6.337  14.245  12.094
51447W        W12813   1.912  19.204  11.091
51448W        W12814  12.311  27.024   3.649
51449W        W12815  19.184  18.085  11.982
51450W        W12816  27.035  33.016   3.711
51451W        W12817  23.626  34.071   3.146
51452W        W12818   4.781   6.729   9.590
51453W        W12819  33.950   3.351   2.348
51454W        W12820  18.121   7.235  13.417
51455W        W12821  25.108  35.929   4.716
51456W        W12822  29.630  16.188   4.302
51457W        W12823  12.152  10.835  10.922
51458W        W12824  19.280  43.932   3.724
51459W        W12825  19.766   0.933  14.818
51460W        W12826  21.626  24.031   2.339
51461W        W12827  18.286  17.777   3.741
51462W        W12828  14.224  40.917   0.937
51463W        W12829   6.716  32.478   4.710
51464W        W12830  35.372  15.713   3.750
51465W        W12831   0.836  19.079   0.373
51466W        W12832   4.802  12.754   4.671
51467W        W12833  36.371  25.188  13.470
51468W        W12834  30.032  18.114   2.254
51469W        W12835  31.031  13.197  14.309
51470W        W12836   6.814  37.830  13.316
51471W        W12837   2.281  18.148  12.008
51472W        W12838  35.058  42.294   3.345
51473W        W12839  15.268   7.250  12.939
51474W        W12840  12.276  19.758  11.466
51475W        W12841   7.809   2.399  14.021
51476W        W12842  29.923  41.451   0.335
51477W        W12843  30.450   7.794  11.093
51478W        W12844  16.275  17.102  12.427
51479W        W12845   2.267  41.954  10.532
51480W        W12846   4.329  32.529   4.232
51481W        W12847  34.446  24.661   0.413
51482W        W12848  29.118  10.226  10.937
51483W        W12849  21.537  32.941  11.549
51484W        W12850  18.129  20.551  11.940
51485W        W12851  23.213  33.447  10.406
51486W        W12852  23.511   1.808  14.346
51487W        W12853   9.726   4.770   0.746
51488W        W12854  19.759  13.348  14.910
51489W        W12855  24.633  13.634   0.863
51490W        W12856  16.210  13.797  14.416
51491W        W12857  36.354  29.033  12.410
51492W        W12858  15.605  37.007  12.992
51493W        W12859  29.979  44.469  14.904
51494W        W12860  13.334  28.094  11.971
51495W        W12861   9.229  20.619  11.381
51496W        W12862  34.871   7.311  14.018
51497W        W12863   3.715  13.721   4.707
51498W        W12864  13.109   0.815  12.852
51499W        W12865   1.435  33.517   0.278
51500W        W12866  12.183  13.776   0.433
51501W        W12867  40.053  24.032  13.320
51502W        W12868  43.880  35.383   2.258
51503W        W12869  32.560  37.492   1.281
51504W        W12870   2.345   6.193  13.504
51505W        W12871  21.573  10.289  11.385
51506W        W12872  42.981  32.005   2.672
51507W        W12873  44.430  13.260  11.880
51508W        W12874  25.110  31.436   1.366
51509W        W12875   0.850   9.647   1.721
51510W        W12876  26.654  21.613  12.398
51511W        W12877  39.494  18.203   2.729
51512W        W12878   6.271   5.284  11.412
51513W        W12879  12.805  32.972  12.966
51514W        W12880   9.837  44.402   1.250
51515W        W12881  23.173  29.660   1.450
51516W        W12882  12.299  30.026   0.307
51517W        W12883  37.989  10.809  12.096
51518W        W12884  30.466  44.882   2.764
51519W        W12885  26.610  24.978   0.857
51520W        W12886   8.687  31.131  10.452
51521W        W12887  36.433  18.740  10.954
51522W        W12888   5.382  12.233  14.895
51523W        W12889  40.349  18.132   3.266
51524W        W12890  41.533  39.885  14.381
51525W        W12891   2.233  42.406   0.352
51526W        W12892  43.825   1.867   3.200
51527W        W12893  33.562   3.843   2.667
51528W        W12894  16.644  37.365  10.417
51529W        W12895  18.244  25.093   2.877
51530W        W12896   7.795  16.153  14.422
51531W        W12897  19.613   4.226  12.473
51532W        W12898   2.908  24.002   4.323
51533W        W12899  29.454  32.574   1.400
51534W        W12900   9.344  29.018  12.010
51535W        W12901  10.719  37.544  12.578
51536W        W12902  11.719  34.941  13.476
51537W        W12903  42.500  28.045   4.636
51538W        W12904  44.490  33.612  14.813
51539W        W12905   4.237  21.155   3.362
51540W        W12906  42.006  24.585  11.931
51541W        W12907  25.556  41.944  13.539
51542W        W12908   3.831   7.824   0.833
51543W        W12909  39.821  21.244  10.439
51544W        W12910  18.273  30.996  11.484
51545W        W12911  12.830  43.441  12.558
51546W        W12912  17.088  25.653  13.849
51547W        W12913  18.553  10.309   4.123
51548W        W12914   5.331  43.820   1.790
51549W        W12915   3.733  16.646  11.014
51550W        W12916  36.498  16.170   3.831
51551W        W12917   7.358   5.789  11.384
51552W        W12918  33.597  38.413   2.834
51553W        W12919  23.079  17.170  12.034
51554W        W12920  26.464  30.648   4.352
51555W        W12921  29.490  37.981  13.350
51556W        W12922  20.696   0.877   2.741
51557W        W12923  14.781  37.551  14.834
51558W        W12924  22.055   3.843  12.986
51559W        W12925  21.092  22.232  10.498
51560W        W12926   7.860  25.606   0.808
51561W        W12927  11.297  34.510  11.512
51562W        W12928   8.279  35.466  14.887
51563W        W12929   0.318   1.743  11.388
51564W        W12930  31.566  10.382  14.285
51565W        W12931  36.547  17.661  14.918
51566W        W12932  31.141  26.607  10.442
51567W        W12933  41.392  40.918   4.274
51568W        W12934  15.673  34.599   1.232
51569W        W12935  24.202  28.488   1.740
51570W        W12936   0.371  19.051  12.574
51571W        W12937  43.930  18.770   0.743
51572W        W12938   9.838  11.293  13.344
51573W        W12939  33.967  17.750   3.148
51574W        W12940  22.197  19.176  14.789
51575W        W12941  24.060  24.481  14.887
51576W        W12942  32.074  31.428  13.951
51577W        W12943  14.653  27.025  10.980
51578W        W12944  42.325  19.596  12.469
51579W        W12945  29.572  11.341   1.305
51580W        W12946  11.662  19.232  14.448
51581W        W12947  20.681  21.152   3.675
51582W        W12948  36.471   6.834  13.464
51583W        W12949  10.873   8.233   1.922
51584W        W12950   9.232   8.777  11.899
51585W        W12951  14.817   1.764  14.392
51586W        W12952   9.800  13.157   3.772
51587W        W12953  40.945  24.101   3.247
51588W        W12954  21.632  44.378  10.102
51589W        W12955  21.157  12.678  11.040
51590W        W12956  26.568  37.877   4.180
51591W        W12957  27.056  23.634  13.492
51592W        W12958  10.244  13.679   4.684
51593W        W12959  23.582  39.835  12.574
51594W        W12960   6.252  10.160   4.174
51595W        W12961  36.887  10.165  11.423
51596W        W12962  18.240  26.621  12.023
51597W        W12963  25.688   7.175   0.749
51598W        W12964  39.937  41.396   1.902
51599W        W12965   1.845  26.594  13.880
51600W        W12966  31.040  32.516   0.832
51601W        W12967  32.030  34.037  11.065
51602W        W12968   4.779   2.309  14.957
51603W        W12969   2.340  17.683  12.023
51604W        W12970  32.545  10.331  12.440
51605W        W12971  30.909  35.544  13.008
51606W        W12972  27.099  44.949   2.272
51607W        W12973  16.578  11.212   2.676
51608W        W12974  42.304  27.073  14.511
51609W        W12975  12.287   8.804   0.442
51610W        W12976   5.375  15.253   1.716
51611W        W12977   5.240  27.565   2.245
51612W        W12978  13.310   7.776   3.290
51613W        W12979   6.422   9.865  13.542
51614W        W12980  21.062   7.175   5.110
51615W        W12981   8.670  22.582   2.694
51616W        W12982  12.712  44.785   4.117
51617W        W12983   3.726   9.645   0.929
51618W        W12984  32.075   3.825   4.673
51619W        W12985  42.879  25.554  14.824
51620W        W12986  35.975  42.797   1.806
51621W        W12987  29.139  32.943  10.404
51622W        W12988  28.155  14.261   3.286
51623W        W12989  32.391  15.729  11.063
51624W        W12990  44.762  37.876  11.596
51625W        W12991  10.364  43.956   3.231
51626W        W12992  13.241  19.626   5.314
51627W        W12993  22.125  42.831  14.977
51628W        W12994  12.191   8.658   1.379
51629W        W12995  32.443  27.447  10.435
51630W        W12996  11.190  17.802  12.372
51631W        W12997  31.527   4.748   1.912
51632W        W12998  29.490  38.880   0.890
51633W        W12999   3.405   5.293   1.293
51634W        W13000  10.862   8.373  11.999
51635W        W13001   5.316   9.268  12.528
51636W        W13002  16.802  38.068  10.425
51637W        W13003  26.578  13.799   0.392
51638W        W13004  34.535  18.643   1.712
51639W        W13005  23.995  11.635   1.216
51640W        W13006  14.634  40.538  14.768
51641W        W13007  15.197  40.943   3.147
51642W        W13008  13.690  15.778  12.547
51643W        W13009  13.304  15.758   4.216
51644W        W13010  43.885  37.941  13.959
51645W        W13011  22.604  30.418  10.444
51646W        W13012   6.677  40.023   4.313
51647W        W13013  40.876  13.744   1.377
51648W        W13014  39.962   9.869  11.970
51649W        W13015  38.926  35.923  14.903
51650W        W13016  42.312  24.610   4.144
51651W        W13017   7.314   8.841  11.509
51652W        W13018  21.146   6.223   0.936
51653W        W13019  17.220  28.975   3.811
51654W        W13020  28.481  34.902  11.885
51655W        W13021  13.197  44.874  12.449
51656W        W13022  44.275  30.622   4.185
51657W        W13023  41.384  23.988   2.721
51658W        W13024  31.549  12.281   0.345
51659W        W13025  13.801  37.860   1.304
51660W        W13026  16.807  23.119  13.495
51661W        W13027  41.482  12.697  10.431
51662W        W13028  15.167   7.329   4.739
51663W        W13029  17.747  32.921  11.394
51664W        W13030  25.197  37.403  13.442
51665W        W13031  29.633   0.952   5.247
51666W        W13032  22.013  39.327   2.897
51667W        W13033  22.595  22.628  14.864
51668W        W13034  10.311  10.219   4.699
51669W        W13035  11.333   0.373   4.254
51670W        W13036   8.253   8.790   3.810
51671W        W13037   1.968  18.556   0.438
51672W        W13038  40.442  12.303  14.844
51673W        W13039  33.623  17.725   0.379
51674W        W13040  25.481  37.858  14.785
51675W        W13041  36.071  41.324   0.459
51676W        W13042  11.849   6.333  12.485
51677W        W13043  38.384  16.079  10.573
51678W        W13044  38.050  29.940   2.706
51679W        W13045  37.565  10.381  11.428
51680W        W13046  42.486  32.631   3.869
51681W        W13047   7.669  24.621  11.427
51682W        W13048   5.394  24.709  14.762
51683W        W13049  31.970  29.056   3.147
51684W        W13050  20.197  30.960  11.082
51685W        W13051  42.322  30.563  11.597
51686W        W13052  31.443  26.965  14.000
51687W        W13053  36.956  33.588  11.105
51688W        W13054  12.211  22.235  13.427
51689W        W13055  25.670   6.343  12.026
51690W        W13056  11.256  30.022   3.793
51691W        W13057   7.667  43.810   2.182
51692W        W13058   6.911  19.692   3.748
51693W        W13059  22.709  24.019   0.473
51694W        W13060  29.066  10.241   4.670
51695W        W13061  26.197  37.857   4.641
51696W        W13062  42.021  12.823  10.009
51697W        W13063  44.960  36.038   1.725
51698W        W13064  20.756   6.282  14.368
51699W        W13065  35.379  18.229  14.399
51700W        W13066  37.549  27.017   0.246
51701W        W13067  19.229  16.298  12.924
51702W        W13068  27.038  37.065  11.991
51703W        W13069  23.060  30.420  11.073
51704W        W13070  26.553  34.946   1.327
51705W        W13071  11.672   7.258  11.109
51706W        W13072  31.451  42.880  13.384
51707W        W13073  34.877   7.726  13.531
51708W        W13074  18.113  30.944  14.362
51709W        W13075  16.124  36.375   2.800
51710W        W13076   3.886  20.724  13.994
51711W        W13077  42.372   0.315  13.464
51712W        W13078  23.227  23.076  11.373
51713W        W13079  14.736   3.381  10.525
51714W        W13080  13.703  26.642  12.035
51715W        W13081  37.580   7.237   1.904
51716W        W13082  34.054  15.701   4.148
51717W        W13083  15.758  23.096  14.907
51718W        W13084  37.484  13.274  14.327
51719W        W13085  31.430  10.634  10.952
51720W        W13086  18.780  30.593  10.899
51721W        W13087  15.732  30.509   1.862
51722W        W13088  11.317  38.936   2.730
51723W        W13089  36.547   9.393   1.840
51724W        W13090  35.967  23.195  14.824
51725W        W13091  17.187   9.243  11.067
51726W        W13092  17.802   3.389  12.462
51727W        W13093  38.025  23.707   0.272
51728W        W13094   4.265   7.667   1.781
51729W        W13095  14.814  21.568   4.615
51730W        W13096  14.716  39.392   1.881
51731W        W13097   8.252  12.716   0.754
51732W        W13098   8.658  29.963   4.610
51733W        W13099  29.121  42.927  12.939
51734W        W13100  18.570  36.940  13.040
51735W        W13101  36.087  39.399  14.365
51736W        W13102  11.194  31.517   1.789
51737W        W13103   4.262  19.043   1.839
51738W        W13104  29.589  17.557   3.329
51739W        W13105   5.875  41.899  10.976
51740W        W13106   9.252  43.960   0.416
51741W        W13107  18.192  16.266  13.433
51742W        W13108  22.649  22.624  12.836
51743W        W13109   5.862   1.897   0.887
51744W        W13110  41.347   2.431  14.446
51745W        W13111  21.548  23.650  14.309
51746W        W13112  11.703  22.626  10.427
51747W        W13113  42.489  32.938  11.929
51748W        W13114  25.209  14.298   4.803
51749W        W13115  14.781  35.448  10.159
51750W        W13116   9.231  41.878  14.766
51751W        W13117  37.912  39.476  14.812
51752W        W13118  44.438  38.011  12.480
51753W        W13119  12.350  16.211  13.362
51754W        W13120   5.205  42.438   4.794
51755W        W13121  21.619   4.785  11.950
51756W        W13122  28.674  20.197  14.376
51757W        W13123  17.113   5.420  14.406
51758W        W13124  17.562   0.747  11.125
51759W        W13125  35.402  17.156  13.882
51760W        W13126  24.172  10.865  14.343
51761W        W13127  24.081  33.447  13.008
51762W        W13128   4.440  30.605   3.692
51763W        W13129  39.372  29.147   3.865
51764W        W13130  12.259  20.111   0.763
51765W        W13131  34.024  37.019   4.805
51766W        W13132  25.092  35.554  13.471
51767W        W13133  21.565  39.546  12.003
51768W        W13134   1.421  37.867   1.337
51769W        W13135  27.577  13.701  12.422
51770W        W13136   0.791  17.269  10.033
51771W        W13137   1.830  12.157  11.879
51772W        W13138  34.958  10.712   3.664
51773W        W13139  28.958  14.134  14.872
51774W        W13140   6.824  31.123  12.016
51775W        W13141  39.534  30.492  13.044
51776W        W13142   6.215  36.491  14.762
51777W        W13143   5.881  35.083  10.572
51778W        W13144  21.027  24.669  14.931
51779W        W13145   4.766  36.939   1.396
51780W        W13146  19.087  14.332  13.847
51781W        W13147  41.341  30.434  13.932
51782W        W13148  12.744  37.372  12.068
51783W        W13149  12.636   1.884   1.863
51784W        W13150  27.472  33.923   2.799
51785W        W13151   0.360  27.142  13.945
51786W        W13152  42.353  44.380   3.733
51787W        W13153  20.123  34.036   0.818
51788W        W13154  31.459  19.278  13.381
51789W        W13155  22.710   3.261   5.211
51790W        W13156  16.075  44.950  10.936
51791W        W13157  16.101   4.250  10.519
51792W        W13158  16.251   8.900  13.839
51793W        W13159  40.399   6.294  10.595
51794W        W13160  15.704  30.561   0.863
51795W        W13161  20.674   9.298   1.918
51796W        W13162   0.348   9.846  12.079
51797W        W13163   9.278  40.035   0.361
51798W        W13164  35.064  10.658   3.270
51799W        W13165  10.807  42.859  11.427
51800W        W13166  14.216  27.053  12.352
51801W        W13167  39.976  13.159  11.007
51802W        W13168   9.168   6.404   2.814
51803W        W13169  13.188  38.398   2.772
51804W        W13170  21.104   1.449   2.186
51805W        W13171  30.540  23.050   2.810
51806W        W13172  29.097  26.043  10.894
51807W        W13173  42.507  19.221   3.784
51808W        W13174  13.175   9.297  13.023
51809W        W13175  31.900  32.569  10.487
51810W        W13176  43.437   8.844  12.345
51811W        W13177  32.510  10.283  14.882
51812W        W13178  29.544   7.332  14.996
51813W        W13179  29.099  22.652   3.663
51814W        W13180  22.156  44.901  11.056
51815W        W13181  36.570   7.277   4.301
51816W        W13182  12.662  19.258  13.453
51817W        W13183  41.327  26.180   2.691
51818W        W13184  20.210  36.029   1.785
51819W        W13185   6.754  19.050  14.480
51820W        W13186  20.749  13.614  14.515
51821W        W13187  31.625  29.046  12.499
51822W        W13188  32.442  16.629   4.636
51823W        W13189  23.234  20.625   3.352
51824W        W13190  38.057  18.613  14.940
51825W        W13191  33.076  26.618   4.295
51826W        W13192   4.808  43.403   2.292
51827W        W13193   7.859  41.398  11.448
51828W        W13194  40.956  40.367   0.926
51829W        W13195  35.075  12.221   2.356
51830W        W13196   2.389  37.375  10.096
51831W        W13197  21.205  14.815   1.844
51832W        W13198  14.634  39.363   0.953
51833W        W13199  20.185  34.452   2.831
51834W        W13200  38.426   8.257  10.621
51835W        W13201  22.248  28.444  11.909
51836W        W13202   3.376  43.316  14.846
51837W        W13203  12.644  17.653   1.423
51838W        W13204  23.211  27.579   3.200
51839W        W13205  44.331  21.229  12.466
51840W        W13206  34.963  11.783  11.560
51841W        W13207  28.075  19.108   2.857
51842W        W13208  31.110  44.892  13.866
51843W        W13209  26.700  21.604  13.035
51844W        W13210  35.937   6.876  13.840
51845W        W13211  15.693  17.740  11.973
51846W        W13212  23.635  43.905  12.050
51847W        W13213   2.757  39.551   0.280
51848W        W13214   7.231  32.576   4.828
51849W        W13215  30.618   7.857   1.337
51850W        W13216  32.477  37.541  11.082
51851W        W13217  12.635   2.896  10.984
51852W        W13218   5.386  11.864  14.807
51853W        W13219  30.649   6.316   2.813
51854W        W13220  19.276  38.967  10.948
51855W        W13221  40.478   9.360  14.451
51856W        W13222  19.585  38.057  14.427
51857W        W13223  32.588  29.018  11.387
51858W        W13224   6.869  28.966   4.223
51859W        W13225  43.820   0.299  14.819
51860W        W13226  24.614  42.794   2.878
51861W        W13227  29.496  17.279   1.733
51862W        W13228  12.773  42.432   2.322
51863W        W13229  34.598  20.255   4.152
51864W        W13230  12.670  29.657  10.435
51865W        W13231  43.438  13.666  14.873
51866W        W13232  41.451  20.201   1.383
51867W        W13233  22.537  40.391  13.333
51868W        W13234  36.966   0.882   1.238
51869W        W13235   4.241   2.834  10.048
51870W        W13236  12.673  32.031  10.024
51871W        W13237  43.403  17.274  10.159
51872W        W13238  34.513  38.075   2.247
51873W        W13239  16.664  31.502   2.691
51874W        W13240  23.672  28.130   2.756
51875W        W13241  28.972  33.517   0.770
51876W        W13242   8.711   3.445   2.877
51877W        W13243  10.367  43.466  11.904
51878W        W13244  32.618  28.567  14.894
51879W        W13245   1.332  17.731  13.462
51880W        W13246   1.962   1.440   3.352
51881W        W13247  37.467  16.076   4.148
51882W        W13248  24.072  33.418  11.904
51883W        W13249   5.232  31.482   2.728
51884W        W13250  10.653  38.894  13.453
51885W        W13251  34.912  30.078  13.483
51886W        W13252  16.175  12.642  13.955
51887W        W13253  25.217  18.212  12.999
51888W        W13254  41.336  14.643  11.116
51889W        W13255   6.266  25.500   4.150
51890W        W13256   2.910  40.853  12.895
51891W        W13257  41.970  11.718   0.783
51892W        W13258  43.847   2.227   2.839
51893W        W13259  43.000  36.439  10.521
51894W        W13260  28.671  14.128   0.368
51895W        W13261  37.533  29.487  13.422
51896W        W13262   8.405  32.518  14.824
51897W        W13263   2.467  21.686   2.674
51898W        W13264  23.631  17.655   3.632
51899W        W13265  30.562  37.399  12.971
51900W        W13266  33.458   2.828   1.214
51901W        W13267  20.722   8.736  10.929
51902W        W13268  11.751  20.114  12.893
51903W        W13269  12.740  38.047   1.917
51904W        W13270  39.449  34.369  10.498
51905W        W13271  39.860  25.031  13.855
51906W        W13272  21.142   3.884  12.017
51907W        W13273  21.234   0.759  12.343
51908W        W13274   1.924  42.326  11.972
51909W        W13275  13.105  32.993  14.986
51910W        W13276  42.465  11.835   0.407
51911W        W13277   7.706   8.796  10.430
51912W        W13278  25.136  27.952  12.531
51913W        W13279  41.849  36.994  14.341
51914W        W13280  38.074  18.662   0.846
51915W        W13281  35.499  28.127  13.949
51916W        W13282  10.176  38.909  11.087
51917W        W13283   5.362  26.696  11.122
51918W        W13284   4.308   0.952  13.524
51919W        W13285  10.184  41.794  12.037
51920W        W13286   4.275  16.235   1.882
51921W        W13287   3.945   1.342  13.019
51922W        W13288  18.548   7.850   3.640
51923W        W13289  40.396   1.743  11.859
51924W        W13290  41.362  26.979   3.779
51925W        W13291   8.339   9.735  14.334
51926W        W13292  34.507  39.056   9.482
51927W        W13293   6.801  35.087  12.938
51928W        W13294   0.868  34.897   2.267
51929W        W13295   9.306   6.734   1.835
51930W        W13296  28.461   2.442  14.856
51931W        W13297  29.427  43.971  10.642
51932W        W13298   1.910  41.040   3.744
51933W        W13299   2.835  14.753   1.298
51934W        W13300  19.535  38.849  10.619
51935W        W13301  34.499  36.465  14.329
51936W        W13302  40.305  42.908   0.743
51937W        W13303  22.117  13.788   0.428
51938W        W13304  36.903  41.294   0.929
51939W        W13305   8.877  24.219   0.820
51940W        W13306  16.620   0.773   4.277
51941W        W13307   3.869  22.539   3.215
51942W        W13308  26.648  35.427  13.407
51943W        W13309   8.746   3.318   3.173
51944W        W13310  24.668   0.450   3.327
51945W        W13311  25.098  36.446   1.802
51946W        W13312  38.855  18.645   4.811
51947W        W13313   5.817  23.082  10.576
51948W        W13314   8.839  40.829  11.393
51949W        W13315  32.950  11.318  14.010
51950W        W13316  42.923  13.778  11.438
51951W        W13317   3.310  21.109   1.804
51952W        W13318  42.375  22.722  13.514
51953W        W13319   6.272   4.943  12.021
51954W        W13320  15.678  27.947   0.967
51955W        W13321  10.803  36.886  14.930
51956W        W13322  29.550  24.559  11.485
51957W        W13323  40.848   5.262  14.491
51958W        W13324  41.037  32.624  11.858
51959W        W13325  39.823  36.409  12.004
51960W        W13326   2.920   4.314   1.340
51961W        W13327   4.851  32.022  12.482
51962W        W13328  18.627  27.464  13.052
51963W        W13329  11.798  29.613   2.351
51964W        W13330  28.043  22.190   4.740
51965W        W13331  14.322  38.568  14.842
51966W        W13332  44.988  11.752  11.595
51967W        W13333  34.962   7.404   5.215
51968W        W13334  27.460  39.027   4.755
51969W        W13335  10.158  16.191   2.748
51970W        W13336  16.590  25.695  13.008
51971W        W13337  13.235  31.960   3.833
51972W        W13338  16.801  34.899   4.348
51973W        W13339   0.861   8.677  13.044
51974W        W13340  10.255   0.314  12.968
51975W        W13341  35.104  35.859  10.456
51976W        W13342  30.078  44.790  11.458
51977W        W13343  43.013  44.802  13.939
51978W        W13344  16.173  27.132   2.283
51979W        W13345  35.047  24.655   3.174
51980W        W13346  27.579   8.302  13.465
51981W        W13347  18.670  17.072   3.848
51982W        W13348  20.528  25.525  10.486
51983W        W13349   6.797  24.077   0.853
51984W        W13350  29.494  15.143  10.963
51985W        W13351  19.160   5.195   3.736
51986W        W13352  32.515  32.462  14.970
51987W        W13353  39.958  13.351   4.161
51988W        W13354  32.091  17.588   0.874
51989W        W13355  18.738  29.979   0.368
51990W        W13356  18.109  28.987  14.832
51991W        W13357  14.228  16.696   3.661
51992W        W13358  39.990   1.975  13.384
51993W        W13359  25.025   4.775  13.888
51994W        W13360  41.429  28.092  14.314
51995W        W13361  42.908  29.437   1.822
51996W        W13362   3.273  23.514   3.804
51997W        W13363  18.194  28.147   3.643
51998W        W13364  34.542   2.468  12.455
51999W        W13365   0.281  41.887  13.457
52000W        W13366  25.195  44.814   3.789
52001W        W13367   1.736  16.788  10.604
52002W        W13368  19.688  17.682   2.315
52003W        W13369  44.755  40.395  14.854
52004W        W13370  41.831  26.636   0.863
52005W        W13371   2.226  37.832  12.481
52006W        W13372  12.692  16.208  13.324
52007W        W13373  39.486  42.921   5.314
52008W        W13374  36.426  24.037   2.706
52009W        W13375  24.651  22.735  12.547
52010W        W13376  44.484  35.427   2.712
52011W        W13377  35.423   2.912   2.765
52012W        W13378   5.397   6.323  13.388
52013W        W13379  10.318  26.097   0.780
52014W        W13380  18.221  11.258   1.811
52015W        W13381   6.350  44.994   4.640
52016W        W13382   4.907  17.765   3.352
52017W        W13383  28.588  18.573  13.062
52018W        W13384  13.112  11.353  12.963
52019W        W13385  38.959  31.436   1.763
52020W        W13386  30.069  41.407   3.275
52021W        W13387  23.999  22.580   0.335
52022W        W13388  14.612   9.846  10.902
52023W        W13389   9.179  21.583  12.505
52024W        W13390  36.896  16.294  14.885
52025W        W13391  20.585   0.836  10.962
52026W        W13392  25.564  13.665  11.069
52027W        W13393  42.364  36.886  14.801
52028W        W13394  35.576   2.439   3.384
52029W        W13395  24.016  34.392   3.342
52030W        W13396  26.599   0.891   2.296
52031W        W13397   7.772   4.253  11.981
52032W        W13398   5.378   8.351  14.432
52033W        W13399   0.756   5.770   4.621
52034W        W13400  38.983  24.217  13.423
52035W        W13401   9.394  20.225   1.912
52036W        W13402  18.210   5.725   4.791
52037W        W13403  29.989  33.023   3.847
52038W        W13404  36.458   1.805  11.078
52039W        W13405  33.095  20.690   2.733
52040W        W13406   4.276  44.305  12.550
52041W        W13407  39.024  39.953   2.730
52042W        W13408  35.852  22.567  10.915
52043W        W13409   6.406   6.785   0.324
52044W        W13410   2.788  20.213  13.944
52045W        W13411  37.525  36.874  14.456
52046W        W13412  33.882  35.993   1.238
52047W        W13413  29.945   2.857   1.443
52048W        W13414   2.366  38.500  14.407
52049W        W13415  18.649  16.262   2.256
52050W        W13416  26.616  31.969   3.366
52051W        W13417   7.312  16.662   0.289
52052W        W13418  35.956   4.237   2.766
52053W        W13419  35.007   3.363   3.281
52054W        W13420   9.211  25.003   3.847
52055W        W13421   6.737  32.562   3.275
52056W        W13422  19.597  16.792   1.369
52057W        W13423   0.249  35.092  10.637
52058W        W13424   1.370  22.694   4.646
52059W        W13425  25.025  12.831   2.315
52060W        W13426  20.656  14.787  13.430
52061W        W13427  37.852   0.749  12.372
52062W        W13428   6.245  11.189  12.990
52063W        W13429  13.284  23.060  13.503
52064W        W13430  11.162  33.925   1.436
52065W        W13431   2.442   8.169   3.711
52066W        W13432  43.389  42.334  12.477
52067W        W13433  17.091  28.041  12.949
52068W        W13434  40.455  15.208   3.685
52069W        W13435  33.981  25.058   0.890
52070W        W13436  34.017  39.511   5.776
52071W        W13437  27.948  17.685   2.417
52072W        W13438   2.427  29.998  14.911
52073W        W13439  19.657  44.801   2.232
52074W        W13440  34.412   3.325  12.971
52075W        W13441  36.545  13.224   3.715
52076W        W13442  14.327  38.907  12.922
52077W        W13443  28.494   9.756   0.938
52078W        W13444  31.116  38.066  12.852
52079W        W13445  12.170   4.222   3.287
52080W        W13446  29.462  32.958  12.499
52081W        W13447  12.144   6.825   4.747
52082W        W13448   8.755  29.148   3.822
52083W        W13449  17.301  33.941   2.795
52084W        W13450   4.298  30.156   1.290
52085W        W13451  13.705   8.377  12.846
52086W        W13452   9.684  14.230  10.940
52087W        W13453  33.396  42.489   4.770
52088W        W13454  37.411  21.162  10.542
52089W        W13455   5.778  28.498  13.918
52090W        W13456  26.145  28.527  11.868
52091W        W13457   5.384  19.688  12.476
52092W        W13458   5.909   5.302  13.938
52093W        W13459   3.872  31.038   1.331
52094W        W13460  30.525  29.997  13.851
52095W        W13461  21.241  30.017   2.223
52096W        W13462   2.383  23.069   1.755
52097W        W13463  12.255  41.368   3.811
52098W        W13464  26.993   4.413   2.752
52099W        W13465  31.013  44.009  10.575
52100W        W13466  42.840  17.070   4.216
52101W        W13467  30.104  15.304   1.745
52102W        W13468  29.109  36.482  13.986
52103W        W13469  21.201  11.674   3.721
52104W        W13470  11.370   1.970  13.831
52105W        W13471  42.465  26.564  13.976
52106W        W13472  12.321  27.132   0.803
52107W        W13473  21.231   6.334  14.393
52108W        W13474   0.254  21.628   1.923
52109W        W13475  11.211   4.868   3.216
52110W        W13476  33.028  11.288   2.790
52111W        W13477  12.635   8.258  13.426
52112W        W13478  23.707   2.949  10.588
52113W        W13479  20.194  40.029   0.917
52114W        W13480  34.904  15.805  12.502
52115W        W13481  20.040   5.768  11.986
52116W        W13482  24.515  12.687   2.680
52117W        W13483  27.003  34.410   3.255
52118W        W13484  12.770  24.503   4.634
52119W        W13485  33.462  39.535  10.131
52120W        W13486  26.689   4.405   4.214
52121W        W13487  43.512   1.937   2.886
52122W        W13488  37.555  27.190   4.747
52123W        W13489  29.977  31.026   4.150
52124W        W13490   6.191  30.969   2.390
52125W        W13491  21.609  28.668   0.402
52126W        W13492  36.581  31.488  14.479
52127W        W13493  21.057   3.760   4.723
52128W        W13494  26.603  33.499   1.287
52129W        W13495  30.560  29.520   2.382
52130W        W13496  11.326  27.137   1.370
52131W        W13497  32.977   2.284  14.401
52132W        W13498  36.020  14.232   1.805
52133W        W13499  43.817  17.730   4.752
52134W        W13500  14.257   4.226  13.890
52135W        W13501   2.727   6.384   3.278
52136W        W13502  24.985  22.149   0.950
52137W        W13503  38.042  26.496   2.840
52138W        W13504  28.977   0.952  14.438
52139W        W13505  25.499  23.043  12.577
52140W        W13506  34.535  43.971   2.830
52141W        W13507  22.127  37.028   1.241
52142W        W13508   0.348  43.937   0.391
52143W        W13509  43.409  39.841  14.395
52144W        W13510  27.110  16.749   4.248
52145W        W13511  30.446  35.881  10.934
52146W        W13512  21.568   4.208   9.996
52147W        W13513  38.535  39.859  13.502
52148W        W13514  35.098   9.823  13.877
52149W        W13515   0.364  25.590  12.837
52150W        W13516  15.698  31.557  12.835
52151W        W13517   2.454   2.333  10.435
52152W        W13518  26.585  34.578  13.044
52153W        W13519  27.036  33.447  14.403
52154W        W13520  23.524  32.121   5.172
52155W        W13521  12.249  26.545   4.642
52156W        W13522  30.032  43.340  10.960
52157W        W13523  17.563  16.689  11.385
52158W        W13524  20.119  26.632   0.734
52159W        W13525   2.885  13.610   1.306
52160W        W13526   4.718  22.524   4.217
52161W        W13527   5.804  42.334  11.465
52162W        W13528  37.873  27.954   2.746
52163W        W13529  34.448  15.268  13.877
52164W        W13530   1.463  40.954   3.846
52165W        W13531  13.760   5.741   1.409
52166W        W13532  19.208  18.574  14.952
52167W        W13533  41.529  18.137   4.717
52168W        W13534  15.215  25.198  14.438
52169W        W13535  33.981  12.663  10.541
52170W        W13536  38.888  38.837  13.922
52171W        W13537  16.204   8.884   4.164
52172W        W13538  32.117  26.205  12.350
52173W        W13539  42.364  10.724   3.282
52174W        W13540  32.938  23.042  14.313
52175W        W13541  23.200  30.153  13.879
52176W        W13542  21.196  23.225   0.373
52177W        W13543  41.514   7.746   2.796
52178W        W13544  42.395  44.880  10.511
52179W        W13545  38.997  14.832   3.379
52180W        W13546   0.321  32.611  10.610
52181W        W13547  11.243  40.316   4.652
52182W        W13548  20.604  39.837   0.355
52183W        W13549  15.630  26.498   2.317
52184W        W13550   5.311  24.508  13.346
52185W        W13551  40.005   0.382  14.925
52186W        W13552  38.547  43.331   3.784
52187W        W13553  10.191  29.013  14.011
52188W        W13554   6.754   3.307  13.415
52189W        W13555   7.694  37.067   0.472
52190W        W13556  16.078   4.301   1.851
52191W        W13557  40.873   9.356   0.253
52192W        W13558  15.583  43.370  11.413
52193W        W13559  17.697  16.777   4.288
52194W        W13560  42.334  42.328   2.833
52195W        W13561  38.833  35.529  11.009
52196W        W13562   4.703  40.966   0.467
52197W        W13563  13.191  42.382  10.951
52198W        W13564  34.576  12.277   4.738
52199W        W13565  25.124  40.960  12.388
52200W        W13566  38.522  15.784  12.958
52201W        W13567   2.902   0.473  12.848
52202W        W13568  34.916  25.163   2.840
52203W        W13569  11.368   9.316  13.337
52204W        W13570  21.104   0.442  13.971
52205W        W13571  34.928  11.325  10.988
52206W        W13572  17.796  11.264  11.864
52207W        W13573  43.020  13.234  10.545
52208W        W13574  18.634  25.468  14.847
52209W        W13575  37.845   3.278  12.992
52210W        W13576  12.757  10.760   1.879
52211W        W13577  35.106  24.169  11.036
52212W        W13578  21.055  17.272  11.032
52213W        W13579  41.990  27.043   3.766
52214W        W13580   2.310  24.605   3.730
52215W        W13581   1.907  32.616   3.154
52216W        W13582  25.560   4.251   0.828
52217W        W13583   6.402  40.453   4.802
52218W        W13584  17.178   3.953  13.400
52219W        W13585  10.679  15.643  10.016
52220W        W13586   2.772  33.587   0.852
52221W        W13587  44.776  27.010   1.317
52222W        W13588  15.161  43.873  13.362
52223W        W13589  19.672  11.727   3.227
52224W        W13590  21.729   7.335  11.594
52225W        W13591  44.997  22.203   4.778
52226W        W13592  14.340  37.874  10.476
52227W        W13593  12.167  29.617  12.874
52228W        W13594  42.024  29.082   0.783
52229W        W13595  12.203   6.324   2.305
52230W        W13596  23.623  12.712  11.887
52231W        W13597  12.121  21.573   2.362
52232W        W13598  27.666   9.859  11.397
52233W        W13599   2.288  25.197   2.328
52234W        W13600  29.468   4.732   2.181
52235W        W13601  22.520  27.061   4.737
52236W        W13602  29.979   8.170  13.483
52237W        W13603  18.177   3.318   2.389
52238W        W13604  28.624  16.249  12.578
52239W        W13605  26.604   7.184   3.383
52240W        W13606   0.398  35.948  14.802
52241W        W13607   4.837  43.350   3.324
52242W        W13608  10.780  39.931  11.573
52243W        W13609   8.341  33.975  12.919
52244W        W13610  37.354   5.762  14.879
52245W        W13611  10.811  28.016   3.773
52246W        W13612   6.905  27.500  14.435
52247W        W13613  15.610   6.228  12.065
52248W        W13614  34.386  27.449  11.435
52249W        W13615  29.120   4.917   1.883
52250W        W13616   2.268  31.498  12.854
52251W        W13617  19.734  20.155   2.801
52252W        W13618  14.303  23.619  13.961
52253W        W13619  39.506  23.548  12.939
52254W        W13620  20.272  44.449  11.526
52255W        W13621  23.028  28.046   3.245
52256W        W13622  34.588  35.591   0.797
52257W        W13623  16.202  26.172  12.065
52258W        W13624  41.332  43.809  10.921
52259W        W13625  21.190  40.497  11.042
52260W        W13626  40.357  16.736  13.811
52261W        W13627  18.261  17.599   2.338
52262W        W13628   0.965  33.947  11.441
52263W        W13629  39.525  43.837   0.349
52264W        W13630  27.676   5.816  12.480
52265W        W13631  40.977  27.671   1.365
52266W        W13632  13.760  14.233  11.904
52267W        W13633   7.751   6.834  12.374
52268W        W13634  20.222  19.089  14.761
52269W        W13635  22.506  43.858   1.336
52270W        W13636  21.034   2.228   2.240
52271W        W13637   1.331  19.667  14.009
52272W        W13638   6.235  10.169  10.020
52273W        W13639  41.487   8.236   2.833
52274W        W13640  35.074  20.738   3.869
52275W        W13641  29.554  42.989   4.313
52276W        W13642   1.833  17.299   1.224
52277W        W13643   0.463   6.735  11.977
52278W        W13644  26.697   2.881  12.577
52279W        W13645  19.272  25.075   1.852
52280W        W13646  10.175   7.375  12.055
52281W        W13647   4.286  31.560   2.891
52282W        W13648  41.791   1.840  14.770
52283W        W13649   7.730  43.807  14.003
52284W        W13650   8.784  42.416  14.338
52285W        W13651  15.771  24.992  13.818
52286W        W13652   2.402  10.226   1.830
52287W        W13653  28.454  31.906  11.402
52288W        W13654  43.972  18.296   1.326
52289W        W13655  31.600   7.760  12.937
52290W        W13656  39.011  44.850  11.873
52291W        W13657  21.592  15.085   1.738
52292W        W13658  24.574  28.972   3.691
52293W        W13659  19.235  28.490  13.475
52294W        W13660  31.133  40.900   3.261
52295W        W13661  29.570  27.541  13.986
52296W        W13662  38.516  10.217   1.433
52297W        W13663  25.106  14.750   5.098
52298W        W13664  34.570  20.233   0.782
52299W        W13665  13.701  18.198  11.024
52300W        W13666   0.793  43.424   3.784
52301W        W13667  11.637  44.417  11.581
52302W        W13668  15.636  22.153  10.117
52303W        W13669  14.247  37.907   2.418
52304W        W13670  23.524  30.084   1.776
52305W        W13671  26.575   9.249  13.853
52306W        W13672   0.971  13.798  10.966
52307W        W13673   0.398  34.427   3.309
52308W        W13674  16.202  14.810  11.413
52309W        W13675  24.135  44.390  12.904
52310W        W13676  27.593   5.347  10.893
52311W        W13677  39.943  17.746  12.556
52312W        W13678  23.188  10.775   0.262
52313W        W13679  12.172  41.479  14.875
52314W        W13680  10.825   5.885  13.406
52315W        W13681  26.112   7.233   0.882
52316W        W13682  16.796   5.351   0.778
52317W        W13683  16.132  30.099  11.552
52318W        W13684  13.661   2.775   3.313
52319W        W13685  13.119  38.895  13.319
52320W        W13686   7.316  43.461   3.753
52321W        W13687  30.439  10.334   3.235
52322W        W13688  23.721   2.265  10.461
52323W        W13689  14.252  31.925   5.313
52324W        W13690  27.193  23.996  12.529
52325W        W13691  40.937  28.930  12.423
52326W        W13692  40.838   7.285   1.793
52327W        W13693   4.348  40.525   0.329
52328W        W13694  31.989   8.168  13.338
52329W        W13695   1.337  36.900   1.885
52330W        W13696  13.813  18.199  12.044
52331W        W13697  22.594  12.362  13.423
52332W        W13698  39.846   8.390  14.286
52333W        W13699  34.579  39.388  10.064
52334W        W13700  41.043   0.927   0.462
52335W        W13701   0.963  28.948   3.240
52336W        W13702  39.518  40.859   0.272
52337W        W13703  32.515   7.854  14.814
52338W        W13704  36.060  22.530  10.541
52339W        W13705  22.134  14.297   3.217
52340W        W13706  10.720  22.532   4.673
52341W        W13707   1.956  17.168   2.870
52342W        W13708  43.343  37.482   1.700
52343W        W13709   8.894  27.106  13.814
52344W        W13710   7.244   0.766   0.299
52345W        W13711   7.835   2.863  10.952
52346W        W13712  34.002  30.503   4.185
52347W        W13713  41.313  20.694   0.257
52348W        W13714  17.193  42.002   1.446
52349W        W13715  43.804   8.322  14.907
52350W        W13716  44.905   9.833  14.021
52351W        W13717  34.435  32.502  11.563
52352W        W13718   7.710  28.544  13.406
52353W        W13719  26.083  17.657   1.390
52354W        W13720   9.388  36.989  13.371
52355W        W13721  42.778  35.943  11.533
52356W        W13722  34.906  37.911   1.353
52357W        W13723  19.733  10.667  14.783
52358W        W13724  24.095   3.375  12.984
52359W        W13725  41.354  18.605  13.929
52360W        W13726  11.364   1.481  10.960
52361W        W13727  11.279  31.133  11.905
52362W        W13728   3.444  13.207  14.297
52363W        W13729  23.189  33.527  14.848
52364W        W13730  41.351   6.244  11.883
52365W        W13731  20.753  26.521   2.828
52366W        W13732  23.544  31.483  14.978
52367W        W13733  22.086  21.166   1.917
52368W        W13734  28.111  24.487  10.935
52369W        W13735  26.459  37.456   1.411
52370W        W13736  31.613  35.494   3.662
52371W        W13737  35.857  20.679   2.256
52372W        W13738  27.155  11.237  14.373
52373W        W13739  33.625   6.722   4.715
52374W        W13740  26.955  12.307  13.485
52375W        W13741  19.282  31.073  11.496
52376W        W13742   4.289   6.843   9.536
52377W        W13743  28.439  19.109  11.398
52378W        W13744  42.442  24.068  13.323
52379W        W13745  41.385  35.969   1.258
52380W        W13746  21.658   7.343  15.000
52381W        W13747  39.924  35.469   0.471
52382W        W13748  34.087  40.396   1.733
52383W        W13749  10.650   4.794  14.403
52384W        W13750  22.133   0.771   3.321
52385W        W13751  24.147  13.230   0.845
52386W        W13752  37.931  42.808   3.774
52387W        W13753   9.876  34.063   4.211
52388W        W13754  28.550  11.735  10.587
52389W        W13755  33.053  39.001   0.279
52390W        W13756  35.447  16.262   4.674
52391W        W13757   5.331  36.957  11.486
52392W        W13758  14.590  17.088  10.929
52393W        W13759   1.405  15.628   0.399
52394W        W13760  36.961  13.268   3.752
52395W        W13761   5.861   5.325   0.794
52396W        W13762  20.119  25.620   3.811
52397W        W13763  29.432   0.266   0.876
52398W        W13764  18.124  37.468  13.990
52399W        W13765  17.212  24.230   1.925
52400W        W13766  24.974   1.876   0.884
52401W        W13767  29.958  38.432   3.741
52402W        W13768  29.504  40.980   3.260
52403W        W13769   6.774  36.994  11.931
52404W        W13770   6.363  31.955   0.335
52405W        W13771   7.336  28.583  10.905
52406W        W13772  13.705  26.107  13.440
52407W        W13773   3.301   7.724   0.351
52408W        W13774  37.348   6.200   0.774
52409W        W13775  39.941  15.256  14.413
52410W        W13776  15.800   6.677  10.528
52411W        W13777  14.831   4.403   3.819
52412W        W13778  36.845  15.610  13.495
52413W        W13779  10.287  20.038   4.139
52414W        W13780   7.319  32.950   3.741
52415W        W13781  34.519  19.283   1.909
52416W        W13782  19.101   9.209  13.962
52417W        W13783   5.229  21.620   0.773
52418W        W13784  12.716  43.402  13.423
52419W        W13785  17.556   8.351   3.707
52420W        W13786   8.667  32.609   2.359
52421W        W13787  44.973   0.453   0.763
52422W        W13788  14.644  22.628   2.854
52423W        W13789   7.306  27.519   0.824
52424W        W13790  40.316   1.772   0.763
52425W        W13791  10.692  24.706   1.241
52426W        W13792   7.312  39.348   1.767
52427W        W13793  19.130  25.635  14.352
52428W        W13794   3.735  25.682   4.650
52429W        W13795  28.536  31.136   9.454
52430W        W13796   5.196  38.403  11.488
52431W        W13797  12.137  13.758  10.605
52432W        W13798  33.105  31.637  11.373
52433W        W13799   2.958  12.293   2.707
52434W        W13800   9.394  12.748  10.904
52435W        W13801  16.105  42.400  10.895
52436W        W13802  19.730  35.411   4.698
52437W        W13803  44.933  25.162  12.890
52438W        W13804   4.257  36.888   1.276
52439W        W13805   7.229  34.961   3.863
52440W        W13806  25.978   1.820  10.959
52441W        W13807   2.333   8.888   1.698
52442W        W13808  30.133   3.313  11.517
52443W        W13809   9.209  40.814   0.802
52444W        W13810  37.041  31.519   4.325
52445W        W13811  23.695  29.443   5.114
52446W        W13812  12.835  14.255  12.423
52447W        W13813   3.396   5.298  14.442
52448W        W13814  41.476   6.871   0.848
52449W        W13815  41.917  16.796  11.976
52450W        W13816  18.614  15.662   1.332
52451W        W13817  42.470  26.608  11.943
52452W        W13818  14.663  28.480   1.362
52453W        W13819   2.257   8.786  13.053
52454W        W13820  17.609  14.289   2.834
52455W        W13821  10.185  27.947   0.279
52456W        W13822  21.146  13.235   2.712
52457W        W13823   2.325  35.858  10.998
52458W        W13824  37.354   7.751  11.469
52459W        W13825  44.815  32.117   1.219
52460W        W13826  12.326  38.422  11.581
52461W        W13827  36.406  12.646   3.660
52462W        W13828  39.886  44.882  11.544
52463W        W13829  26.962  17.300   0.426
52464W        W13830  20.113  25.504  11.590
52465W        W13831  44.332  19.122  12.938
52466W        W13832  31.896   4.343   2.764
52467W        W13833   0.346  25.665   3.765
52468W        W13834  19.194   7.215  11.089
52469W        W13835  35.364  18.116   0.834
52470W        W13836  24.051  31.012   0.965
52471W        W13837   8.275   3.922   0.764
52472W        W13838  36.053   4.783  14.351
52473W        W13839  21.605  11.777  11.097
52474W        W13840  33.061  13.319  13.029
52475W        W13841  16.617   2.254   2.818
52476W        W13842  32.926  12.359  10.599
52477W        W13843  37.874  42.829  11.450
52478W        W13844  42.451  34.502   2.782
52479W        W13845   4.857  29.549  14.469
52480W        W13846  12.344   3.804  11.103
52481W        W13847  23.188  40.946  11.871
52482W        W13848   8.771  37.472   0.823
52483W        W13849   5.436  31.415  11.445
52484W        W13850  25.506  17.199  13.900
52485W        W13851  14.146  28.476   1.775
52486W        W13852   0.320  43.865  11.375
52487W        W13853  19.749  29.945  14.456
52488W        W13854   8.770  23.553  14.781
52489W        W13855  38.540  21.124   1.376
52490W        W13856  31.637  16.217  11.957
52491W        W13857  35.875  17.187  13.018
52492W        W13858  43.430  30.024   1.824
52493W        W13859  38.386  17.651   2.373
52494W        W13860  26.488  20.138   4.811
52495W        W13861  13.700  32.527  11.926
52496W        W13862   3.356  24.636  10.550
52497W        W13863  13.787  21.649  11.455
52498W        W13864   7.732  32.920  11.552
52499W        W13865   4.699  21.103  14.280
52500W        W13866  28.037  35.893   0.371
52501W        W13867  39.414   5.261  11.529
52502W        W13868   0.326  18.138  11.459
52503W        W13869  33.421  16.789   3.167
52504W        W13870  32.925  24.484  14.310
52505W        W13871  25.561  31.946  11.023
52506W        W13872   9.872  40.895   1.356
52507W        W13873  16.300   7.892   3.222
52508W        W13874  19.168  42.867  14.815
52509W        W13875  14.314  29.592  13.967
52510W        W13876  12.142   9.835   3.297
52511W        W13877  36.847  12.158   2.249
52512W        W13878  12.633  14.618   0.325
52513W        W13879  33.040  25.998   3.857
52514W        W13880   4.219  44.475   1.290
52515W        W13881   3.799  11.793  13.920
52516W        W13882   5.407   8.345  11.966
52517W        W13883  31.619  35.898  13.947
52518W        W13884  18.653   5.932   4.742
52519W        W13885   1.442  11.129   0.967
52520W        W13886  19.771  16.774   3.330
52521W        W13887  42.021  41.927  10.491
52522W        W13888  39.469  19.090  12.047
52523W        W13889  18.131  34.081  12.934
52524W        W13890  37.572   3.791  11.420
52525W        W13891   6.424  12.350  10.543
52526W        W13892  32.129  14.610   0.383
52527W        W13893  15.192  27.176   2.228
52528W        W13894   8.385  11.356   0.957
52529W        W13895   7.709  27.033   4.828
52530W        W13896  13.630  24.196   4.702
52531W        W13897  35.099  32.088   4.312
52532W        W13898  20.099  22.095   2.698
52533W        W13899  39.497  25.641  14.483
52534W        W13900  14.181  19.187  13.524
52535W        W13901  37.866   0.458  11.921
52536W        W13902   6.296   5.713   4.737
52537W        W13903  10.257  31.465   0.290
52538W        W13904  37.477  33.527  13.019
52539W        W13905   9.345  36.510  13.944
52540W        W13906  35.065  28.964  13.860
52541W        W13907  17.269  20.749  12.516
52542W        W13908   1.442  23.088   1.227
52543W        W13909  24.161  30.446   2.766
52544W        W13910  34.378  36.515  14.871
52545W        W13911  29.029   9.247   3.671
52546W        W13912   7.355  22.500   0.868
52547W        W13913  42.415  22.712   2.732
52548W        W13914  43.836   5.351   2.862
52549W        W13915  15.811  19.674   3.148
52550W        W13916  41.336  38.962   0.294
52551W        W13917  43.789  16.089   2.216
52552W        W13918   9.294  41.802  10.978
52553W        W13919  21.044   6.301   2.281
52554W        W13920   7.690  27.997   4.279
52555W        W13921  32.410  28.183   4.166
52556W        W13922   9.806  20.752   0.294
52557W        W13923  44.974  30.994  12.430
52558W        W13924   8.289  18.102  11.604
52559W        W13925  43.288  21.686  14.978
52560W        W13926  40.412  37.055  12.955
52561W        W13927  43.950  38.520   4.774
52562W        W13928   2.811  27.663   1.381
52563W        W13929   4.783   2.851  10.414
52564W        W13930  31.984  40.949   3.630
52565W        W13931  13.686  38.324  10.445
52566W        W13932   3.940  44.454   4.143
52567W        W13933  27.116   5.922   2.347
52568W        W13934  26.114  15.695   4.611
52569W        W13935  20.246  41.900   1.801
52570W        W13936   4.942  13.225   0.317
52571W        W13937   7.305  35.062  10.564
52572W        W13938  12.256  22.525   4.309
52573W        W13939  14.667  26.954   4.656
52574W        W13940  27.063   6.428   2.221
52575W        W13941  44.982  41.294   2.311
52576W        W13942   1.878  26.096   1.898
52577W        W13943   3.764  19.747   0.401
52578W        W13944   6.212  10.290  10.567
52579W        W13945   5.767  24.635  13.373
52580W        W13946  33.483  40.845   1.406
52581W        W13947  15.100   3.863   1.437
52582W        W13948  37.487  33.984   2.284
52583W        W13949  19.593  13.167   4.811
52584W        W13950  31.435  26.671   4.118
52585W        W13951   3.335  39.968  14.438
52586W        W13952  32.025  12.790   2.788
52587W        W13953  39.000  10.793  13.396
52588W        W13954  21.032   3.302  10.157
52589W        W13955   4.245  14.781  10.117
52590W        W13956  40.449   5.712  11.553
52591W        W13957  28.165  26.475  12.030
52592W        W13958  10.347  13.174  11.869
52593W        W13959  13.142  38.825  12.379
52594W        W13960   5.926  31.999   3.261
52595W        W13961   6.343  10.641  11.040
52596W        W13962   8.363  33.531   4.599
52597W        W13963   9.203  37.885  12.501
52598W        W13964  12.298  11.227   3.209
52599W        W13965  38.972  34.002   4.686
52600W        W13966   2.826  34.053  10.587
52601W        W13967  12.752   1.905   0.307
52602W        W13968  20.759   8.828  14.445
52603W        W13969  25.681   6.186   4.321
52604W        W13970  17.727   6.880   0.925
52605W        W13971  43.864  40.431  12.973
52606W        W13972  31.896  24.694   3.262
52607W        W13973   0.789  13.658   2.384
52608W        W13974  37.930  34.936  10.440
52609W        W13975  38.441  19.224  12.990
52610W        W13976   6.821  19.126   4.683
52611W        W13977  35.079   5.875   3.809
52612W        W13978   6.397  32.034  11.411
52613W        W13979  43.453  31.131  13.910
52614W        W13980  14.604  40.837   2.772
52615W        W13981   5.793  14.253   3.671
52616W        W13982  21.236   6.213   3.643
52617W        W13983   7.879  40.879   2.252
52618W        W13984  18.273  20.534   4.273
52619W        W13985  26.102  30.559  11.021
52620W        W13986  35.902  17.714   3.324
52621W        W13987  23.498  20.041  13.958
52622W        W13988  44.980  39.332   1.312
52623W        W13989   4.301   1.414  12.854
52624W        W13990  10.701  40.421   4.699
52625W        W13991   1.743  31.903   4.280
52626W        W13992  23.735   1.298   5.224
52627W        W13993  18.725  12.323   4.816
52628W        W13994  37.862  18.719  14.399
52629W        W13995  14.114  17.757  12.870
52630W        W13996  12.136  25.166  11.862
52631W        W13997  26.126  22.706  11.515
52632W        W13998  41.873  20.159   4.649
52633W        W13999   0.327   1.398   3.633
52634W        W14000  42.517   1.470  13.913
52635W        W14001  27.691  35.500   0.247
52636W        W14002  29.002   9.752  12.476
52637W        W14003  31.646  16.634  11.461
52638W        W14004  17.208   9.815   2.323
52639W        W14005  15.101  22.671  11.030
52640W        W14006  28.498  41.331   3.322
52641W        W14007  24.639   0.937   1.257
52642W        W14008   9.883  33.525  13.931
52643W        W14009  21.135  16.175   1.755
52644W        W14010  23.720  30.450  11.372
52645W        W14011   0.883  22.671   3.836
52646W        W14012  38.869   1.314   1.436
52647W        W14013  21.164  17.136  11.915
52648W        W14014  34.456  35.095   2.779
52649W        W14015   7.208  38.512   2.384
52650W        W14016  29.577  20.761  13.427
52651W        W14017  28.073   3.406   1.276
52652W        W14018  15.589  20.706  13.334
52653W        W14019  13.302   4.819   1.724
52654W        W14020   3.793  36.459   2.265
52655W        W14021   3.432  23.116  13.053
52656W        W14022  31.548  32.543   4.249
52657W        W14023   4.425  30.120   3.784
52658W        W14024   5.368   2.353  13.936
52659W        W14025  27.452  39.932  12.509
52660W        W14026  34.371   5.787   0.831
52661W        W14027  30.162  37.537   1.372
52662W        W14028  25.040   4.300  14.493
52663W        W14029   1.831   5.258   4.622
52664W        W14030   3.777   9.359  13.916
52665W        W14031  26.051   1.387   1.359
52666W        W14032   0.335  33.542  10.471
52667W        W14033   4.743  11.798  13.954
52668W        W14034   9.848  24.147  11.435
52669W        W14035  36.881  36.943  12.501
52670W        W14036   0.775  42.975   2.669
52671W        W14037   5.832   2.240   0.419
52672W        W14038   5.765  23.532  14.374
52673W        W14039  43.343  19.575   0.372
52674W        W14040  28.111  25.513  11.908
52675W        W14041  42.980  21.725  11.572
52676W        W14042  30.625  29.991  10.408
52677W        W14043  26.176  25.055   2.227
52678W        W14044  23.022   9.247   1.907
52679W        W14045  29.522  19.663   3.812
52680W        W14046   6.760  41.427  14.910
52681W        W14047  26.646  17.126  13.933
52682W        W14048  32.038  19.098  10.057
52683W        W14049  28.022  38.976  10.921
52684W        W14050  10.268  18.758  14.476
52685W        W14051  34.595  37.932  14.808
52686W        W14052  35.598  40.322   0.760
52687W        W14053  40.841  44.278   0.883
52688W        W14054  41.523   4.295  11.447
52689W        W14055  43.910  44.297  14.360
52690W        W14056  35.429  25.693  13.859
52691W        W14057  31.645  42.356   1.859
52692W        W14058  18.604  35.475  13.330
52693W        W14059  15.291  14.834   1.248
52694W        W14060  39.027  10.313   1.377
52695W        W14061  21.629  25.690   0.452
52696W        W14062  38.945  10.744   4.747
52697W        W14063  27.537  27.504  14.476
52698W        W14064  35.370  13.145  13.916
52699W        W14065  42.887  35.536   1.855
52700W        W14066   3.730  28.459  11.371
52701W        W14067   9.378  36.517   3.782
52702W        W14068   7.912  12.758  12.063
52703W        W14069  27.089   3.916  12.510
52704W        W14070  29.967  21.018  13.852
52705W        W14071  25.090  26.064   4.733
52706W        W14072  42.953  31.058  11.464
52707W        W14073  24.704  22.053   2.853
52708W        W14074  37.973  35.438   3.372
52709W        W14075  14.254  36.593   0.934
52710W        W14076  21.222  23.671  14.819
52711W        W14077  11.308  20.052   4.323
52712W        W14078  27.650   6.242  10.528
52713W        W14079  44.800   1.387   4.836
52714W        W14080  44.426  44.461  14.933
52715W        W14081   2.306  18.240   2.251
52716W        W14082  27.974  17.294  12.505
52717W        W14083  38.540  14.785  10.546
52718W        W14084  18.187  23.589  14.456
52719W        W14085  36.989  20.756   4.208
52720W        W14086  27.639   6.398  11.956
52721W        W14087  34.004  22.632   3.714
52722W        W14088   0.365  41.848  14.335
52723W        W14089   9.862  44.984   4.773
52724W        W14090  28.533   4.823   2.713
52725W        W14091  31.903  20.564  13.916
52726W        W14092  26.551  41.340  11.583
52727W        W14093  13.138  34.907   4.250
52728W        W14094  25.102  40.924  10.586
52729W        W14095  26.153  29.161   2.867
52730W        W14096  32.917  32.456  12.387
52731W        W14097  33.420  12.738  14.383
52732W        W14098  44.458  29.971  11.015
52733W        W14099  26.996  18.058   3.354
52734W        W14100   0.963  36.088  14.027
52735W        W14101  19.160  40.022   2.416
52736W        W14102  40.504  37.994   0.265
52737W        W14103  39.515  11.721   1.900
52738W        W14104   8.735  22.718  11.576
52739W        W14105  41.799  25.156   0.402
52740W        W14106  30.114   1.331   3.195
52741W        W14107  28.019  41.995   2.314
52742W        W14108  11.723   3.725   1.772
52743W        W14109  34.917  35.051   1.917
52744W        W14110  37.087  14.339   1.393
52745W        W14111  22.064  27.662  14.968
52746W        W14112  17.196  39.541   3.871
52747W        W14113   1.972  14.292   3.740
52748W        W14114  23.527  31.621   3.250
52749W        W14115   9.380  44.968  14.434
52750W        W14116  35.959  11.342  11.059
52751W        W14117  34.573  32.458  12.992
52752W        W14118   9.709   1.906   3.843
52753W        W14119  25.194  33.382   3.329
52754W        W14120  22.244  18.623  10.546
52755W        W14121  20.118  44.483  12.032
52756W        W14122  23.215  30.135   3.765
52757W        W14123  25.669   3.768   3.686
52758W        W14124  13.180  34.587  14.011
52759W        W14125  37.347  44.292   5.181
52760W        W14126  18.576   4.796   4.302
52761W        W14127  35.393  18.116   4.711
52762W        W14128  18.224  42.314  10.471
52763W        W14129  11.297  32.580   0.876
52764W        W14130  40.367  25.986   3.726
52765W        W14131  39.387  22.228  11.064
52766W        W14132  28.480  33.055   4.740
52767W        W14133  43.477   0.467   1.797
52768W        W14134  39.500  19.631   4.285
52769W        W14135  26.078  42.390   4.670
52770W        W14136  25.558  32.996  14.775
52771W        W14137   2.315   3.817   0.939
52772W        W14138   5.338  27.166   4.116
52773W        W14139  19.734  42.936   4.314
52774W        W14140  22.143   4.449  12.881
52775W        W14141  41.523  11.258  13.858
52776W        W14142  40.033  14.667   4.746
52777W        W14143  25.078  12.119  11.954
52778W        W14144  30.148  38.385   1.280
52779W        W14145  31.605  44.902   4.227
52780W        W14146  16.692  13.736  12.841
52781W        W14147  42.965  35.371  12.472
52782W        W14148  20.550  11.793   3.216
52783W        W14149   4.933  12.206   2.869
52784W        W14150  24.709  35.960   4.120
52785W        W14151  24.195   4.282   4.326
52786W        W14152  12.215  37.482  11.041
52787W        W14153  11.327  36.051   0.752
52788W        W14154  18.549  17.263   5.319
52789W        W14155  44.501  43.022   3.209
52790W        W14156  26.656  28.604  14.361
52791W        W14157  13.286  38.074  10.972
52792W        W14158  35.977  44.925   3.240
52793W        W14159  21.613  14.820  11.116
52794W        W14160  25.194  34.578   1.806
52795W        W14161  28.669  43.287   3.820
52796W        W14162  22.631  24.551  12.856
52797W        W14163  21.187   0.456  11.915
52798W        W14164  28.556  17.145  14.429
52799W        W14165  28.024   3.228  14.904
52800W        W14166   0.933  38.981   1.705
52801W        W14167  11.750   2.883   3.223
52802W        W14168  37.373  26.604  13.442
52803W        W14169  39.855   2.377  11.468
52804W        W14170  40.384  18.679  11.968
52805W        W14171  16.692  17.108   0.893
52806W        W14172  17.731  12.759  10.043
52807W        W14173  23.710  15.684   0.891
52808W        W14174  40.518  40.314   4.231
52809W        W14175   8.821  24.059   3.807
52810W        W14176  12.700   2.870  12.959
52811W        W14177  31.500  24.593  11.037
52812W        W14178  12.683  20.567  11.118
52813W        W14179  21.679  31.631   0.339
52814W        W14180  34.876  29.591   1.911
52815W        W14181  18.153   1.311   4.278
52816W        W14182  37.469  37.499   0.466
52817W        W14183   1.882   4.269  10.489
52818W        W14184  30.924  21.085  13.845
52819W        W14185  11.703  42.370   0.910
52820W        W14186  10.312  40.011   3.829
52821W        W14187  11.304   4.776   2.202
52822W        W14188  35.931   2.467   4.610
52823W        W14189  29.469   7.828  13.911
52824W        W14190  18.782  25.996  13.864
52825W        W14191  33.508  24.687   4.283
52826W        W14192  21.704   3.738   5.302
52827W        W14193  32.594  11.174  14.339
52828W        W14194   5.277   3.283   1.922
52829W        W14195   8.784  38.476   4.161
52830W        W14196  36.994  14.104   3.754
52831W        W14197  18.125  22.503   0.297
52832W        W14198  42.410  21.749  13.381
52833W        W14199  25.984  41.973  10.617
52834W        W14200  40.327  35.952   3.243
52835W        W14201  41.427  29.426  14.279
52836W        W14202   5.897   3.856   3.855
52837W        W14203  15.651  43.483  12.392
52838W        W14204   0.752  14.646   3.225
52839W        W14205  32.636  18.295   3.693
52840W        W14206  38.519  10.143   2.825
52841W        W14207   1.891  28.489   3.797
52842W        W14208  34.889  33.979  12.435
52843W        W14209  42.986   9.352   3.655
52844W        W14210  44.780  11.849  11.931
52845W        W14211  36.364  21.074  11.006
52846W        W14212  35.456  25.511   4.341
52847W        W14213  21.743  13.663  13.430
52848W        W14214  43.271  44.860  11.044
52849W        W14215   3.915  20.099   4.723
52850W        W14216  22.166  24.712  14.000
52851W        W14217   6.683   5.438  12.907
52852W        W14218   2.783  24.628  13.009
52853W        W14219  32.485   2.949  11.396
52854W        W14220   6.891  13.230   4.743
52855W        W14221  42.982   1.822  14.433
52856W        W14222  27.992   2.924   1.344
52857W        W14223  28.080   6.326  13.941
52858W        W14224  13.339  20.767  10.423
52859W        W14225   6.377  27.028   1.835
52860W        W14226  18.671   3.224  13.998
52861W        W14227  40.489  23.622  11.129
52862W        W14228  28.046  34.526   3.700
52863W        W14229  14.099  37.048   3.671
52864W        W14230  21.585  30.034   3.213
52865W        W14231  11.138  44.280   1.762
52866W        W14232  29.053  42.939  14.338
52867W        W14233  29.154   8.192   0.798
52868W        W14234  35.873   4.894   4.646
52869W        W14235  41.906  33.591  14.453
52870W        W14236  13.684   3.876  13.368
52871W        W14237   6.768  42.506  10.509
52872W        W14238  36.035  23.152   3.350
52873W        W14239  17.704  28.006  10.952
52874W        W14240  34.536  10.840   0.319
52875W        W14241   6.259  11.264  12.071
52876W        W14242  37.521  29.088  10.107
52877W        W14243  27.136  42.849  11.094
52878W        W14244  13.225  24.641   1.375
52879W        W14245  18.167  25.172   3.221
52880W        W14246   7.852  20.212  14.841
52881W        W14247  18.590  36.464   1.748
52882W        W14248  42.443  29.972  13.414
52883W        W14249  35.387  42.444   4.789
52884W        W14250   3.320   2.420   0.342
52885W        W14251  38.327  19.769   2.368
52886W        W14252  31.534   2.390  13.991
52887W        W14253  33.481  21.102  13.980
52888W        W14254  11.270  35.535  13.969
52889W        W14255   8.799  36.474   3.692
52890W        W14256  29.980  14.271  12.541
52891W        W14257   2.400  26.111   4.644
52892W        W14258  19.568  33.935   2.332
52893W        W14259  19.539   9.363  10.419
52894W        W14260  34.102  16.092   4.616
52895W        W14261  36.423   3.435   4.629
52896W        W14262  19.192  29.434  11.992
52897W        W14263   9.862  11.764  11.958
52898W        W14264  26.059  31.002   4.793
52899W        W14265  33.053   9.648  12.375
52900W        W14266   4.326  19.076  10.540
52901W        W14267  32.952  12.295  14.307
52902W        W14268  23.104  18.713  12.367
52903W        W14269  19.715   0.946   1.278
52904W        W14270  38.923  20.598  13.982
52905W        W14271  37.961  42.510   3.744
52906W        W14272  13.294   2.911  12.540
52907W        W14273  26.185  40.388  14.498
52908W        W14274  16.788  27.000   2.289
52909W        W14275  41.864  12.856   2.855
52910W        W14276  12.632  18.163  13.827
52911W        W14277  33.397  38.394   5.118
52912W        W14278  31.528  35.578   3.361
52913W        W14279  41.516  39.983  12.916
52914W        W14280  37.477  14.317   5.284
52915W        W14281  10.301  33.079   4.219
52916W        W14282  30.094  18.727   2.778
52917W        W14283  36.861   0.405  12.832
52918W        W14284  18.782  14.657   1.783
52919W        W14285  41.991  12.292  12.910
52920W        W14286  40.438  34.446   0.824
52921W        W14287  36.882  28.947  11.898
52922W        W14288  12.152  24.148   4.611
52923W        W14289  43.831  11.159   0.249
52924W        W14290  27.105   3.748  11.863
52925W        W14291   2.302  38.952   2.684
52926W        W14292  19.283  25.467  12.459
52927W        W14293  12.158  24.066  13.882
52928W        W14294  27.008  23.149   4.279
52929W        W14295  17.773  18.249  14.499
52930W        W14296  13.775  34.406  12.032
52931W        W14297  19.281  26.153  12.565
52932W        W14298  34.595  41.375   4.267
52933W        W14299   3.449  31.043  14.933
52934W        W14300  12.849  13.640   3.214
52935W        W14301  41.336  12.640  14.804
52936W        W14302  14.161  25.673  13.975
52937W        W14303  36.862  43.435  11.000
52938W        W14304  42.334  10.138   4.742
52939W        W14305  11.853  27.555  11.111
52940W        W14306  38.352  41.956  11.961
52941W        W14307  37.004  38.527   4.134
52942W        W14308   9.337   7.338   3.348
52943W        W14309  20.664  20.129  12.499
52944W        W14310  12.653  34.984  10.602
52945W        W14311  36.846  36.590  13.003
52946W        W14312   9.274   2.246  12.544
52947W        W14313  10.313  26.537   5.169
52948W        W14314  19.613  19.685   2.297
52949W        W14315   8.790  18.760  11.490
52950W        W14316  22.114  22.655   1.381
52951W        W14317  32.109  35.940  10.535
52952W        W14318  23.168  40.416   1.346
52953W        W14319  29.533  36.064   4.600
52954W        W14320  31.920  22.093   0.774
52955W        W14321   8.783  23.494  12.516
52956W        W14322  14.697   1.414   4.295
52957W        W14323   4.362  43.999  14.769
52958W        W14324  22.517  24.115   5.151
52959W        W14325   6.284  16.228   0.819
52960W        W14326  18.727  38.458  14.907
52961W        W14327  41.821   7.208  10.900
52962W        W14328  41.325   3.943  13.817
52963W        W14329  44.851  11.824  13.057
52964W        W14330  27.480   8.197   2.191
52965W        W14331  13.190   3.306  13.817
52966W        W14332  26.554  28.174  10.463
52967W        W14333  34.929  14.615  12.344
52968W        W14334   5.331   3.241  13.832
52969W        W14335  43.961  11.294   3.796
52970W        W14336  35.028   9.323  12.962
52971W        W14337  29.111  16.232  10.518
52972W        W14338  26.979  10.206   3.251
52973W        W14339  14.328  31.440   4.614
52974W        W14340  30.132  43.298  11.996
52975W        W14341   4.263   2.857   1.849
52976W        W14342  26.988  38.359  11.956
52977W        W14343  36.098  43.005   0.766
52978W        W14344  12.626  23.654   2.370
52979W        W14345  30.047  18.596   1.419
52980W        W14346  44.453  23.549   0.472
52981W        W14347  32.445  25.116  13.980
52982W        W14348  43.973  23.207  10.645
52983W        W14349  23.624  41.402   1.331
52984W        W14350  18.645  41.922   0.367
52985W        W14351  42.804  15.318  14.310
52986W        W14352  20.158  25.970  14.289
52987W        W14353  40.932  43.491   0.342
52988W        W14354  41.004  25.176   0.841
52989W        W14355  10.175   8.743   3.217
52990W        W14356  26.161  40.324   4.675
52991W        W14357  26.059  44.436   0.875
52992W        W14358   4.854  21.047   2.753
52993W        W14359   3.903  11.747  12.344
52994W        W14360   8.721   1.389  10.559
52995W        W14361  39.321  32.444  14.298
52996W        W14362  42.331   6.920  13.857
52997W        W14363  34.520  31.628  14.961
52998W        W14364  12.809   4.406   3.359
52999W        W14365  43.005  32.140  12.029
53000W        W14366  34.459  40.002   3.247
53001W        W14367   8.895  15.248  10.003
53002W        W14368  13.172   3.733   3.670
53003W        W14369  29.112   6.365  12.398
53004W        W14370   4.822   8.736   3.149
53005W        W14371  17.113  10.169   5.131
53006W        W14372  25.076  44.323  12.574
53007W        W14373  23.620  23.131   2.372
53008W        W14374  24.041  16.603   2.315
53009W        W14375   3.427   3.300  14.780
53010W        W14376  23.237   4.705   3.221
53011W        W14377  25.632  21.616   0.917
53012W        W14378   4.330  31.492  11.536
53013W        W14379  32.030  10.319   1.446
53014W        W14380  35.100  43.959   0.372
53015W        W14381  42.456   5.846  11.470
53016W        W14382  33.381  20.073   0.916
53017W        W14383   2.966  21.714  12.072
53018W        W14384  42.008  35.433   3.271
53019W        W14385  38.377   8.767   0.384
53020W        W14386   9.754  35.357  10.514
53021W        W14387  26.481  36.058   0.821
53022W        W14388  23.049   6.724  10.457
53023W        W14389  25.177  42.526  10.917
53024W        W14390   6.688  13.184   0.464
53025W        W14391  27.147  16.178  13.940
53026W        W14392   1.465  27.474   3.842
53027W        W14393  18.584  13.733   0.298
53028W        W14394  12.783  28.596  12.938
53029W        W14395  19.263  15.602  13.844
53030W        W14396  19.041  33.898  14.387
53031W        W14397  25.626   3.840   0.853
53032W        W14398  15.712  17.261   1.704
53033W        W14399  19.258   0.471   4.190
53034W        W14400  39.477   3.799   0.825
53035W        W14401  38.535  34.481   2.382
53036W        W14402  13.218  25.205   1.273
53037W        W14403   1.241  16.625   2.293
53038W        W14404   9.663  23.508   3.636
53039W        W14405  18.724   3.746   3.698
53040W        W14406  26.036  31.409  12.059
53041W        W14407   4.372  25.651   2.187
53042W        W14408  13.753  18.755   1.730
53043W        W14409  40.901  13.201   3.728
53044W        W14410  32.425  42.836  13.473
53045W        W14411   5.914  21.604   2.883
53046W        W14412   7.385  41.364  12.402
53047W        W14413  10.215  43.294   4.691
53048W        W14414   5.873  35.383   4.188
53049W        W14415   8.829   6.182   4.601
53050W        W14416   1.400  26.654  12.464
53051W        W14417   4.904   4.796  13.867
53052W        W14418  42.442   6.420   2.796
53053W        W14419  29.137  27.999  12.490
53054W        W14420   5.824  30.150   0.930
53055W        W14421   4.865  21.025  11.546
53056W        W14422  44.314  31.989  14.013
53057W        W14423  36.379   9.307  11.068
53058W        W14424  29.460   4.357   1.227
53059W        W14425  24.015  27.151  11.904
53060W        W14426  40.987  36.040  13.917
53061W        W14427   2.811  18.248   2.233
53062W        W14428  41.301  41.007   1.385
53063W        W14429  16.200  36.551  14.388
53064W        W14430  36.390  27.547  12.970
53065W        W14431  13.261  19.252  13.378
53066W        W14432  31.014   1.822  14.328
53067W        W14433  22.083   0.984   2.787
53068W        W14434  10.861  31.988  11.491
53069W        W14435  34.902  41.495  13.024
53070W        W14436   7.232  19.067   4.598
53071W        W14437  30.981  28.009  13.995
53072W        W14438  44.452  17.574   3.264
53073W        W14439  42.348  43.889   1.921
53074W        W14440  21.560  13.140   2.397
53075W        W14441   8.701  28.546  11.896
53076W        W14442   4.868   7.320   0.754
53077W        W14443   7.823  43.934   0.408
53078W        W14444  39.935  36.412   0.482
53079W        W14445   6.404  39.318  13.449
53080W        W14446  25.219  11.314   4.312
53081W        W14447  29.501  27.529  11.049
53082W        W14448  25.083  14.156  12.973
53083W        W14449  15.727  37.440  11.448
53084W        W14450   8.679  35.852  11.477
53085W        W14451  16.305  23.037   2.875
53086W        W14452  24.658  42.919  14.490
53087W        W14453  10.813  36.434  13.911
53088W        W14454   4.330  11.651   4.719
53089W        W14455  18.050  24.482   4.751
53090W        W14456  34.054  33.570  14.007
53091W        W14457  34.048   7.317   3.668
53092W        W14458  28.107  26.962  12.509
53093W        W14459  43.791  25.026  11.508
53094W        W14460  38.896  28.128  12.357
53095W        W14461  30.948  13.716   3.756
53096W        W14462  23.597  38.923   4.291
53097W        W14463  24.136  44.272   3.323
53098W        W14464  26.684   4.892  11.579
53099W        W14465  43.802  21.257  12.434
53100W        W14466   1.341  44.890   0.768
53101W        W14467  29.516   0.428   1.419
53102W        W14468   2.365  11.295  11.427
53103W        W14469   6.756  23.031  14.406
53104W        W14470  43.987  24.592  12.564
53105W        W14471   1.370  31.598  13.998
53106W        W14472  34.459  41.295   2.400
53107W        W14473  37.378  13.134  13.421
53108W        W14474  30.114  28.129   1.418
53109W        W14475  33.409  15.148   3.268
53110W        W14476  42.948  26.016  14.320
53111W        W14477  41.838  26.075   1.293
53112W        W14478   2.855   5.881   3.366
53113W        W14479  19.568   7.263   3.808
53114W        W14480  31.542  26.088  14.362
53115W        W14481  23.522  44.473  10.553
53116W        W14482  40.995  30.918   4.194
53117W        W14483   7.888  26.987   3.319
53118W        W14484   8.166  16.626   2.732
53119W        W14485  44.431  14.660  10.533
53120W        W14486  14.248   9.838   0.461
53121W        W14487  10.814   9.293  10.523
53122W        W14488   6.404  33.578   0.826
53123W        W14489  32.118  41.823   0.844
53124W        W14490  16.072   2.839  11.567
53125W        W14491  28.502  16.647  12.910
53126W        W14492  24.490  19.235  12.057
53127W        W14493  20.647  39.483  10.465
53128W        W14494  21.617   4.281  12.997
53129W        W14495  16.136  23.640   1.442
53130W        W14496   3.333   4.271   3.297
53131W        W14497  25.040  34.895  12.973
53132W        W14498   2.353   8.656   0.792
53133W        W14499   6.706  31.619   4.267
53134W        W14500   6.731  44.795  11.488
53135W        W14501  44.829   6.758   1.301
53136W        W14502  27.675  23.593  13.918
53137W        W14503  16.302  34.557  10.526
53138W        W14504  29.120  42.857  11.895
53139W        W14505   8.877  41.405   4.733
53140W        W14506  31.609   5.840  11.547
53141W        W14507  30.923   5.853  12.018
53142W        W14508  26.139  35.910  12.403
53143W        W14509  44.923  29.426  11.414
53144W        W14510  33.950  36.853  12.370
53145W        W14511   0.973  31.914  11.071
53146W        W14512  15.751  37.477  14.325
53147W        W14513   4.843  32.540  14.483
53148W        W14514  36.394  33.429  11.890
53149W        W14515  11.326  29.019  11.082
53150W        W14516  37.006   7.171   4.339
53151W        W14517  33.116   6.405   2.783
53152W        W14518  17.280   4.788   3.176
53153W        W14519  29.948  39.366  14.339
53154W        W14520  34.969  29.627   4.158
53155W        W14521  19.602  40.415  10.443
53156W        W14522  25.498  36.533  13.816
53157W        W14523  32.085   2.870   4.679
53158W        W14524  28.963  26.593  10.539
53159W        W14525   0.429  19.203  12.057
53160W        W14526  44.824   7.324   2.387
53161W        W14527  20.725   5.930   4.159
53162W        W14528  30.971  32.021  11.122
53163W        W14529  17.623  30.984   4.710
53164W        W14530  13.801  12.202   2.785
53165W        W14531  38.912  34.957  14.290
53166W        W14532  40.435  44.758   2.661
53167W        W14533  41.354  31.047   0.801
53168W        W14534  13.271  30.141   3.385
53169W        W14535  29.497  13.753   1.909
53170W        W14536  23.216  24.095   0.282
53171W        W14537  21.744  38.941  11.591
53172W        W14538  29.523  40.815   0.362
53173W        W14539  13.803  40.522   3.825
53174W        W14540  31.452  12.150  14.495
53175W        W14541  28.578  15.657  11.471
53176W        W14542  15.272  42.465   3.213
53177W        W14543  11.161  18.083  10.443
53178W        W14544  13.653  24.660  10.488
53179W        W14545  35.437  40.935  11.439
53180W        W14546  38.565   3.737  14.348
53181W        W14547  25.994   0.264  12.074
53182W        W14548   2.723  27.513  12.885
53183W        W14549  28.009   4.761  11.515
53184W        W14550  21.719  37.881   2.222
53185W        W14551  15.242  36.950  10.578
53186W        W14552  40.910  32.458   1.859
53187W        W14553   1.292   6.677   1.887
53188W        W14554  32.959  40.395  13.043
53189W        W14555  27.195  12.164  12.906
53190W        W14556   0.422  22.061  12.853
53191W        W14557   7.865  20.060   0.729
53192W        W14558  18.667  16.792  13.495
53193W        W14559  18.757  42.031   1.218
53194W        W14560   0.958  14.122  13.817
53195W        W14561   9.305  30.448  10.496
53196W        W14562  17.067  26.481   4.266
53197W        W14563   2.299  40.502  11.484
53198W        W14564   6.797  30.442   4.158
53199W        W14565   1.353  12.824   2.402
53200W        W14566  30.488  24.563   3.854
53201W        W14567  11.335  23.210  10.456
53202W        W14568  12.143   5.396   4.743
53203W        W14569  39.999  14.718  10.636
53204W        W14570  14.168  42.330   0.864
53205W        W14571  14.665  39.517  10.642
53206W        W14572  20.121  37.550   3.250
53207W        W14573   2.740   1.395  14.851
53208W        W14574   9.344  40.400  11.403
53209W        W14575  36.885  24.489  10.515
53210W        W14576  28.619   4.714  13.898
53211W        W14577   9.245  37.838   1.340
53212W        W14578   3.430   5.802   3.271
53213W        W14579  18.585  34.936  10.972
53214W        W14580  15.229   1.761   3.367
53215W        W14581   6.257  10.635  13.322
53216W        W14582   3.747  17.770  14.843
53217W        W14583  36.908  30.499  13.392
53218W        W14584  14.783  28.485   3.168
53219W        W14585   6.300  25.134   3.280
53220W        W14586  40.909  22.505  11.983
53221W        W14587  33.524   5.689   2.379
53222W        W14588  32.976  41.440  11.508
53223W        W14589  21.638  33.018  12.420
53224W        W14590  13.700  26.634   1.273
53225W        W14591  42.487  29.430  13.934
53226W        W14592  17.143   4.286  11.091
53227W        W14593  11.174  21.516  11.388
53228W        W14594  15.140  18.608  12.377
53229W        W14595   1.272   4.847   2.898
53230W        W14596  19.605  41.787  11.390
53231W        W14597   5.262  39.471   1.914
53232W        W14598   7.216  38.831  10.539
53233W        W14599  40.360  42.818  14.324
53234W        W14600  34.439   1.802   4.182
53235W        W14601   2.878  26.570   3.656
53236W        W14602  23.048  37.071  12.475
53237W        W14603  16.314  34.008   3.363
53238W        W14604  35.079  43.332   3.372
53239W        W14605  40.824  17.098  12.065
53240W        W14606   2.740   9.785  12.478
53241W        W14607  16.794  29.919  11.881
53242W        W14608  34.461  10.732  10.952
53243W        W14609  39.387   8.885  10.623
53244W        W14610  34.374  24.678  12.951
53245W        W14611  16.273   5.247   2.350
53246W        W14612  40.039  16.768  11.607
53247W        W14613  11.316  33.493  11.511
53248W        W14614  12.270  37.838   3.802
53249W        W14615  21.044  28.482  11.377
53250W        W14616  19.233  15.102  11.958
53251W        W14617  42.913  19.274   3.346
53252W        W14618  27.547  29.488   4.147
53253W        W14619  40.880   0.319  14.780
53254W        W14620  27.042  17.646  11.556
53255W        W14621  38.969  44.900   3.272
53256W        W14622  27.032  31.482   0.884
53257W        W14623  15.627  19.224   4.163
53258W        W14624  14.643  37.071  11.493
53259W        W14625  43.453  13.242  12.346
53260W        W14626  12.750  15.793  14.328
53261W        W14627  27.655  23.494  10.951
53262W        W14628  39.859   2.338  14.820
53263W        W14629  28.630  17.068   2.234
53264W        W14630  22.030  31.456   1.426
53265W        W14631   6.281  25.152  10.606
53266W        W14632   2.311   0.830   2.357
53267W        W14633  21.051   7.859   3.258
53268W        W14634  17.289  36.967   0.346
53269W        W14635  27.197  37.415  12.366
53270W        W14636  40.050  28.114  10.582
53271W        W14637  28.101  22.080  13.308
53272W        W14638   6.239  22.240  10.585
53273W        W14639  32.889  13.803  10.562
53274W        W14640  15.707  18.610   5.217
53275W        W14641  36.542  35.478  10.535
53276W        W14642  32.537   9.185   3.246
53277W        W14643   5.258  10.824   0.432
53278W        W14644  39.476  37.033  12.996
53279W        W14645  14.297   4.868   2.852
53280W        W14646  34.447  29.428   1.925
53281W        W14647  38.901  24.122   4.236
53282W        W14648  18.567   5.210   4.349
53283W        W14649  35.043  23.115  14.324
53284W        W14650  37.493  40.518   1.422
53285W        W14651  13.782  10.256  11.461
53286W        W14652  23.075  37.919  11.880
53287W        W14653  24.594  30.459   0.909
53288W        W14654  43.389   1.304   1.794
53289W        W14655  28.668   5.400  12.347
53290W        W14656  33.516   5.435  10.534
53291W        W14657  14.322   2.885  13.840
53292W        W14658  28.100  22.502   4.300
53293W        W14659  31.072  33.036  13.383
53294W        W14660  35.873  42.348   2.721
53295W        W14661  28.568  31.117   2.343
53296W        W14662   3.322  15.288   1.771
53297W        W14663  26.695  28.040  11.004
53298W        W14664  44.288  32.617  13.802
53299W        W14665  18.784  19.712   2.676
53300W        W14666   5.370  11.631   2.765
53301W        W14667  29.085  19.146   3.329
53302W        W14668   5.312  10.252  11.568
53303W        W14669  30.943  19.653   5.143
53304W        W14670  10.710  19.638  11.413
53305W        W14671  15.789  40.004   1.255
53306W        W14672  14.095   6.821  12.526
53307W        W14673  13.694  30.949  11.595
53308W        W14674  11.692  34.471  13.397
53309W        W14675  34.937  37.885   0.323
53310W        W14676  25.625  19.233   1.369
53311W        W14677  28.492  30.414   1.701
53312W        W14678  23.532  37.879   3.718
53313W        W14679  31.111  31.106   3.782
53314W        W14680  29.954  39.994  10.908
53315W        W14681   3.361  44.000   2.894
53316W        W14682  29.632  12.280  14.944
53317W        W14683   6.870  12.229   1.758
53318W        W14684   3.320  12.210   3.800
53319W        W14685  37.002  23.171  11.434
53320W        W14686  41.901  24.167   2.843
53321W        W14687   2.456  28.576  12.014
53322W        W14688  44.271   0.922  12.851
53323W        W14689  36.871  18.790   4.612
53324W        W14690  35.882   9.726  14.286
53325W        W14691  43.894  17.242   1.831
53326W        W14692   5.370   7.804   4.284
53327W        W14693  22.143  44.011   0.753
53328W        W14694  36.417  12.839   3.204
53329W        W14695  22.083  22.566   4.131
53330W        W14696  29.608   8.208   3.288
53331W        W14697  11.721   3.771   0.769
53332W        W14698  44.392   1.449   1.327
53333W        W14699  42.978  14.715  14.301
53334W        W14700  34.964   6.237   2.817
53335W        W14701  16.250  24.982  13.366
53336W        W14702  41.316  28.541   3.852
53337W        W14703  14.663  32.022  12.578
53338W        W14704  31.453   7.732  12.444
53339W        W14705  43.963  34.875   0.307
53340W        W14706  14.777   9.805  13.316
53341W        W14707  39.320  31.564   1.287
53342W        W14708   7.893  17.710   3.851
53343W        W14709  27.096  36.422  12.536
53344W        W14710   5.321   7.709  10.529
53345W        W14711  11.757  37.437  11.014
53346W        W14712  16.602  38.467   0.923
53347W        W14713  37.428  42.524  13.433
53348W        W14714  29.133  12.821  14.815
53349W        W14715   5.407   7.742   4.735
53350W        W14716  41.373  43.801  12.998
53351W        W14717   6.761  12.667  12.426
53352W        W14718  13.133  36.454  11.982
53353W        W14719  33.058  18.229  14.969
53354W        W14720  12.687  13.722   2.686
53355W        W14721  20.155  34.088   3.644
53356W        W14722  10.150   0.355  11.968
53357W        W14723  23.990  16.662   1.413
53358W        W14724  29.084  33.464   1.930
53359W        W14725   0.978  34.433  10.059
53360W        W14726  41.811  18.213   4.344
53361W        W14727   4.927  26.491  12.411
53362W        W14728  41.863  22.552  13.902
53363W        W14729  31.985   5.202  13.377
53364W        W14730  29.996  10.642  13.507
53365W        W14731  28.542  21.671   4.260
53366W        W14732  40.327   2.368  11.421
53367W        W14733  11.288  12.822   1.733
53368W        W14734  12.259  31.420  13.943
53369W        W14735  32.526   7.713   3.373
53370W        W14736   3.885  41.947   4.202
53371W        W14737   0.947   9.294  11.528
53372W        W14738   7.824  20.074  11.565
53373W        W14739  10.261  16.629   4.347
53374W        W14740   9.241  26.629  10.020
53375W        W14741  13.646  28.611   2.797
53376W        W14742   7.334  23.152  10.500
53377W        W14743   7.853  13.124   1.808
53378W        W14744  24.020  22.524  14.794
53379W        W14745  17.566  20.118  11.859
53380W        W14746   2.423  27.517   1.434
53381W        W14747  22.615  20.691   3.199
53382W        W14748  29.924   6.816  11.987
53383W        W14749  12.814  35.011   0.378
53384W        W14750  13.115  28.526  11.041
53385W        W14751  20.121   4.826   1.744
53386W        W14752  37.353  18.564   3.176
53387W        W14753   5.895   1.784  10.465
53388W        W14754  20.573  44.945   0.801
53389W        W14755   0.974  25.541   4.286
53390W        W14756  35.055  10.868   2.411
53391W        W14757  11.339   4.922   4.605
53392W        W14758  37.432  16.189  13.352
53393W        W14759  27.464  18.671  11.474
53394W        W14760   7.389  22.077   3.775
53395W        W14761  26.571  16.080  12.992
53396W        W14762   4.365   0.419  11.005
53397W        W14763  31.141  28.983   4.210
53398W        W14764  40.043   4.432  12.837
53399W        W14765  19.646  27.637  11.120
53400W        W14766  13.804  43.838  10.947
53401W        W14767  23.038  34.947   0.726
53402W        W14768   1.413  21.694   2.794
53403W        W14769  30.513   8.883   1.416
53404W        W14770  28.957  40.457  14.962
53405W        W14771   6.845  31.529  11.046
53406W        W14772  35.434   8.391   1.349
53407W        W14773   6.714  15.794  11.600
53408W        W14774   9.728  43.447   4.213
53409W        W14775  21.530  34.478   3.351
53410W        W14776   0.288  22.998   1.280
53411W        W14777  41.422   3.712   0.281
53412W        W14778  27.045  22.133  14.315
53413W        W14779  33.098  35.010   3.153
53414W        W14780  43.502  12.171   4.786
53415W        W14781  40.870  13.807   0.824
53416W        W14782  34.587  33.930  10.893
53417W        W14783  19.153  27.675  12.974
53418W        W14784  34.019   3.336  11.094
53419W        W14785   8.869  43.368   2.262
53420W        W14786   3.243  14.245   4.799
53421W        W14787  43.810  19.174   1.285
53422W        W14788  41.013   4.224   4.318
53423W        W14789  10.317  33.587   4.179
53424W        W14790  20.713  28.988   4.607
53425W        W14791  12.682  30.545   0.321
53426W        W14792  10.140   6.369   1.845
53427W        W14793  42.901  16.216   4.289
53428W        W14794  30.069   4.851   1.742
53429W        W14795  27.045  44.866   0.771
53430W        W14796  10.834  37.873   0.805
53431W        W14797  16.758  39.319  11.591
53432W        W14798   9.808  24.586   4.763
53433W        W14799   3.754  38.032   3.796
53434W        W14800  10.648  19.754   3.811
53435W        W14801  25.638  42.030  13.905
53436W        W14802   5.698  28.059   0.867
53437W        W14803  37.896  17.116  11.952
53438W        W14804  34.538  12.147  14.811
53439W        W14805  39.392  14.694   4.805
53440W        W14806   6.295  30.600  14.838
53441W        W14807  11.351  35.453  12.961
53442W        W14808  38.339   5.409   3.183
53443W        W14809  21.738  10.732   1.758
53444W        W14810  11.636  43.318  13.381
53445W        W14811   5.339  21.740   4.219
53446W        W14812   2.398   6.842  13.954
53447W        W14813  27.041  24.081  10.566
53448W        W14814  16.281  41.956  11.009
53449W        W14815  37.847   6.268  13.417
53450W        W14816   9.755  28.541  13.435
53451W        W14817  12.202  15.598  14.973
53452W        W14818  44.290  25.023   1.292
53453W        W14819   2.945   5.700   0.887
53454W        W14820  35.980  19.762  14.401
53455W        W14821  33.038  44.317   1.826
53456W        W14822   5.818   7.854  14.882
53457W        W14823  19.599  14.257   0.823
53458W        W14824  28.624  16.572  10.910
53459W        W14825  30.631  31.062  13.893
53460W        W14826   9.363  26.543   1.931
53461W        W14827  20.269  13.331  13.813
53462W        W14828  42.403  32.042  11.408
53463W        W14829  21.619  12.314   3.202
53464W        W14830   8.803  39.916  11.496
53465W        W14831  19.149  44.965   4.796
53466W        W14832  28.941  40.816   1.235
53467W        W14833  36.095  44.754   0.874
53468W        W14834  28.011   9.683  10.924
53469W        W14835  34.993  18.722   1.854
53470W        W14836   4.340  26.476  13.895
53471W        W14837  14.147  38.438   4.643
53472W        W14838  14.208  44.428   1.432
53473W        W14839  21.226  13.628  11.877
53474W        W14840   7.319  41.348  10.621
53475W        W14841  21.142   2.920  14.786
53476W        W14842  14.145  33.056   3.671
53477W        W14843  20.530  33.549  10.438
53478W        W14844   7.863   1.362  13.058
53479W        W14845  40.988  44.490   1.435
53480W        W14846  20.136  17.759  14.287
53481W        W14847  24.128  26.191  13.810
53482W        W14848   2.358   6.363   0.761
53483W        W14849   3.301   1.251  10.480
53484W        W14850  27.187  40.807   2.354
53485W        W14851  30.090  16.317   4.613
53486W        W14852  32.574  36.539   3.286
53487W        W14853  26.179  11.806   1.408
53488W        W14854   3.766  39.030   3.762
53489W        W14855  39.005   6.358   1.275
53490W        W14856  24.668  10.644  12.997
53491W        W14857   7.282  24.492   4.819
53492W        W14858  39.353  17.564  12.021
53493W        W14859  15.788  32.408   4.682
53494W        W14860  32.921  21.588   0.482
53495W        W14861  37.842  38.510  12.437
53496W        W14862  27.179   3.326  10.566
53497W        W14863   0.427  20.691  10.591
53498W        W14864  12.271  29.497   3.217
53499W        W14865  27.980   2.466   2.358
53500W        W14866  15.587  17.591   2.761
53501W        W14867  31.515  11.209  14.444
53502W        W14868   4.286  35.937   0.728
53503W        W14869   6.340  31.943  14.321
53504W        W14870  26.656  32.914  10.111
53505W        W14871  10.245  39.339  10.618
53506W        W14872  19.163  35.091   3.845
53507W        W14873  20.255   0.776   9.935
53508W        W14874   0.456  39.437   3.632
53509W        W14875   1.925  12.169   3.168
53510W        W14876  38.067   4.426   3.654
53511W        W14877  33.035  41.488  14.462
53512W        W14878  15.316  27.536   0.474
53513W        W14879   3.932  21.206  12.917
53514W        W14880  42.972   3.907  11.120
53515W        W14881   8.357  18.676   3.195
53516W        W14882  23.644  21.120  14.370
53517W        W14883  44.900  40.477  10.004
53518W        W14884   6.917  30.954  10.904
53519W        W14885  15.091  13.648  13.380
53520W        W14886  35.968  29.081  12.488
53521W        W14887  31.617  14.722  14.290
53522W        W14888  11.254  41.316  12.080
53523W        W14889   4.889  29.937  12.415
53524W        W14890  15.256   8.397  14.884
53525W        W14891   3.869  24.102  13.844
53526W        W14892   4.904  26.982  11.995
53527W        W14893  39.906  15.577  14.499
53528W        W14894  12.158   3.423  12.992
53529W        W14895  10.355  28.952  11.076
53530W        W14896   0.780  25.592   3.335
53531W        W14897  16.310  44.877   0.391
53532W        W14898  33.879  19.079  13.837
53533W        W14899  19.258   1.261  13.890
53534W        W14900  40.853  36.097  11.008
53535W        W14901   0.269  44.951   2.694
53536W        W14902  31.568   7.355   1.315
53537W        W14903  20.616  36.571   1.325
53538W        W14904   4.896  12.341   0.804
53539W        W14905   0.385  31.044   2.247
53540W        W14906  30.456   9.777  11.870
53541W        W14907  18.229  15.166   9.569
53542W        W14908   7.356   8.390   4.136
53543W        W14909  31.914  17.089  13.908
53544W        W14910   2.912  12.800  10.404
53545W        W14911   7.725  30.151  11.091
53546W        W14912  24.111  20.095  14.789
53547W        W14913   8.192  27.480  12.082
53548W        W14914  25.185   5.873   4.776
53549W        W14915  35.038  33.480   0.815
53550W        W14916  34.375  30.032   0.416
53551W        W14917  19.557  15.641   4.752
53552W        W14918  17.762  33.982  14.958
53553W        W14919  29.664  23.134   0.249
53554W        W14920  23.496  12.162   4.247
53555W        W14921  12.350  35.914  12.953
53556W        W14922  30.592   0.812  14.903
53557W        W14923  37.395   2.318   1.238
53558W        W14924  42.974  21.589   2.414
53559W        W14925  11.232   1.956   1.828
53560W        W14926  10.324   8.386  12.914
53561W        W14927  41.028  19.083   2.212
53562W        W14928  33.621   5.288   1.918
53563W        W14929  12.694  28.454  14.463
53564W        W14930  44.412  23.637  13.380
53565W        W14931  19.663  24.029   2.783
53566W        W14932  29.984  16.144  11.402
53567W        W14933  36.462   2.280  12.971
53568W        W14934  27.053  30.957  13.943
53569W        W14935  23.664  42.452   2.881
53570W        W14936  31.920  12.798  11.403
53571W        W14937  35.509   9.858   2.407
53572W        W14938   0.978   2.349   3.636
53573W        W14939   4.906  23.056  10.565
53574W        W14940  12.281  30.633   4.146
53575W        W14941  29.429  10.276   4.700
53576W        W14942  35.918  31.495  11.080
53577W        W14943  41.479  21.141   2.865
53578W        W14944  25.503  40.375  13.448
53579W        W14945  41.834  37.526   4.668
53580W        W14946  19.281   5.733  13.831
53581W        W14947  11.210  38.999   3.320
53582W        W14948   4.774  21.609  11.423
53583W        W14949  24.594   2.310  11.486
53584W        W14950  24.175  23.501  13.404
53585W        W14951  18.720   3.299  12.855
53586W        W14952  35.918  24.140  12.520
53587W        W14953   3.757  37.070   4.132
53588W        W14954  20.558   5.885   3.829
53589W        W14955  16.644  43.789   0.765
53590W        W14956   9.156  28.148   0.743
53591W        W14957  43.840   1.911  11.960
53592W        W14958  13.214  12.790   3.348
53593W        W14959  12.223   4.906   3.757
53594W        W14960   2.245  18.607   0.731
53595W        W14961  14.236  39.065   5.266
53596W        W14962  38.924  27.032   0.315
53597W        W14963  19.635  23.115   3.699
53598W        W14964  24.626  27.947   0.483
53599W        W14965   6.715  16.309   0.753
53600W        W14966  39.432   8.337   1.779
53601W        W14967   0.411  30.108   0.289
53602W        W14968   6.210  27.145  10.430
53603W        W14969  11.293  36.441  14.931
53604W        W14970  13.605  15.688  11.417
53605W        W14971   2.358   1.410   4.800
53606W        W14972  13.172  42.971  12.395
53607W        W14973   6.195  30.001   0.344
53608W        W14974  13.748   8.861   2.748
53609W        W14975  33.425  27.982  10.109
53610W        W14976  28.558   2.331   3.790
53611W        W14977  29.127  22.245  11.531
53612W        W14978  33.531  29.078  14.004
53613W        W14979  20.603   2.828   4.644
53614W        W14980  37.854   7.310   5.128
53615W        W14981   6.361  24.008  13.934
53616W        W14982  26.118  10.349  10.489
53617W        W14983  23.135  35.507  11.609
53618W        W14984   2.334  41.786  13.390
53619W        W14985   9.787  44.297  11.386
53620W        W14986  33.049   4.263  10.473
53621W        W14987  21.711  37.576  11.987
53622W        W14988  28.109  28.566  13.951
53623W        W14989   6.878  30.004  10.411
53624W        W14990  19.091  12.116   1.447
53625W        W14991  27.644   9.349   4.722
53626W        W14992  35.880  22.179  14.309
53627W        W14993  29.059   0.754   4.206
53628W        W14994  21.135  11.843   0.860
53629W        W14995  41.829  17.302  11.049
53630W        W14996   2.908   9.812   1.257
53631W        W14997   1.917  42.307   3.250
53632W        W14998   4.446  30.602   4.285
53633W        W14999  28.622  10.292   1.724
53634W        W15000  31.517   3.802  12.848
53635W        W15001  20.610  26.011  13.472
53636W        W15002  38.975  29.020   1.296
53637W        W15003  24.180  36.011  12.951
53638W        W15004  24.087  40.310  13.896
53639W        W15005  44.792  33.454   4.293
53640W        W15006  10.648  15.636   2.743
53641W        W15007   5.725  17.790  10.460
53642W        W15008  42.347   5.246   3.807
53643W        W15009  37.437  42.408   1.257
53644W        W15010  24.519  19.272  14.902
53645W        W15011  43.295  35.936   2.730
53646W        W15012  31.903   8.163   4.122
53647W        W15013   7.358  33.408   5.164
53648W        W15014  39.984   7.361   1.749
53649W        W15015  19.720  14.115   2.315
53650W        W15016  39.879  18.664   4.319
53651W        W15017  33.501   3.767  12.994
53652W        W15018  17.779  23.001  14.793
53653W        W15019  14.109  32.628   4.736
53654W        W15020  10.641  11.732  13.991
53655W        W15021  42.306  27.044  13.471
53656W        W15022  25.551  42.295  10.608
53657W        W15023  21.517  19.546  11.062
53658W        W15024  19.688  17.580  12.898
53659W        W15025  32.573  18.056   3.319
53660W        W15026  22.677  30.040  13.476
53661W        W15027  15.194  35.938  14.886
53662W        W15028  39.519  43.917   2.776
53663W        W15029  12.245  39.521   4.741
53664W        W15030  16.722  33.903  13.537
53665W        W15031   5.358  13.315  14.931
53666W        W15032  27.997  30.960   4.144
53667W        W15033   1.269  21.753  10.976
53668W        W15034  25.520  33.407  14.420
53669W        W15035  42.419  23.161   2.216
53670W        W15036  15.676  36.574   2.687
53671W        W15037  13.161  37.064   1.420
53672W        W15038  38.019  18.580   1.431
53673W        W15039  38.421  14.299   1.923
53674W        W15040  21.747   7.307   4.344
53675W        W15041  39.339   9.686  14.766
53676W        W15042  29.165   7.276   4.815
53677W        W15043  23.719  25.506  13.799
53678W        W15044  12.701  25.529   2.744
53679W        W15045  29.620  39.948  10.932
53680W        W15046  36.354  22.606  13.865
53681W        W15047  10.641   3.436  12.875
53682W        W15048  17.794  35.948  10.538
53683W        W15049  22.635  29.127  14.372
53684W        W15050  29.954   1.370   1.804
53685W        W15051   5.319   1.912   0.392
53686W        W15052  30.934  16.646  14.503
53687W        W15053  24.117  10.638  11.066
53688W        W15054   4.778  37.035   2.664
53689W        W15055  32.564  18.197  12.857
53690W        W15056  33.507  31.452  12.976
53691W        W15057  43.805  26.458   0.326
53692W        W15058  16.281   1.428   1.338
53693W        W15059  44.844   5.863  10.533
53694W        W15060  43.350  26.484   0.728
53695W        W15061   6.786  40.380   1.384
53696W        W15062  15.087  34.491  12.531
53697W        W15063   8.327  12.188   0.385
53698W        W15064  36.881  31.564   0.752
53699W        W15065  27.690  41.502   1.377
53700W        W15066  15.251  22.568  12.351
53701W        W15067  31.412  10.230   2.761
53702W        W15068  19.233  11.770   3.327
53703W        W15069  23.570  42.919   2.417
53704W        W15070  40.304   0.288  10.438
53705W        W15071  18.581   1.475   3.716
53706W        W15072  17.753  12.166  11.504
53707W        W15073  34.436  44.298  14.329
53708W        W15074  25.603  39.474  12.867
53709W        W15075  28.995  31.124  11.938
53710W        W15076  34.571   7.711   1.442
53711W        W15077   4.426  28.457   3.322
53712W        W15078   7.755   3.802   1.833
53713W        W15079  32.065  35.501   4.658
53714W        W15080   8.286  22.249  13.432
53715W        W15081  41.874  19.646  13.018
53716W        W15082  34.574  22.714  10.504
53717W        W15083  41.906  10.830   4.654
53718W        W15084  37.346   3.395  10.540
53719W        W15085  10.236  19.135  12.002
53720W        W15086  14.700  35.008   3.800
53721W        W15087  27.468  23.091  10.580
53722W        W15088  19.076  18.052   3.242
53723W        W15089  18.755  15.597   2.280
53724W        W15090  17.717  28.572  13.035
53725W        W15091  44.268  21.614   1.381
53726W        W15092  13.177   1.832   1.792
53727W        W15093  24.495   2.763   2.795
53728W        W15094  23.074  16.306  13.508
53729W        W15095   3.710  32.476  10.434
53730W        W15096  29.062  32.510   2.350
53731W        W15097   9.688   9.719  11.049
53732W        W15098  34.514  25.655  11.076
53733W        W15099  33.898  32.040   2.736
53734W        W15100   6.258   7.255   2.664
53735W        W15101  38.542   9.281  12.990
53736W        W15102  17.755   5.327   3.166
53737W        W15103  32.611  27.675   0.847
53738W        W15104   3.816   2.941  11.072
53739W        W15105  30.561  28.158   3.692
53740W        W15106  36.992   1.454  11.403
53741W        W15107  40.390  27.179   4.351
53742W        W15108   0.422  16.771  12.998
53743W        W15109  40.891  28.050  12.535
53744W        W15110  14.756  31.097   2.783
53745W        W15111  41.303  26.616  14.811
53746W        W15112  22.543  15.189  10.413
53747W        W15113  24.044  17.107   2.250
53748W        W15114  42.781  34.514  12.026
53749W        W15115  15.246   6.684  11.519
53750W        W15116  30.598   1.385  11.547
53751W        W15117  13.145  32.062   4.124
53752W        W15118  32.440  36.038  13.956
53753W        W15119  21.259   5.778   1.253
53754W        W15120  35.993  23.730  13.920
53755W        W15121  24.643  24.042   3.742
53756W        W15122   6.918   6.876   1.416
53757W        W15123  32.527  42.312   4.274
53758W        W15124  23.220   7.231   4.170
53759W        W15125  15.656  12.822   5.317
53760W        W15126   9.846  13.251   1.353
53761W        W15127  43.955  19.569   3.158
53762W        W15128  29.146   2.337  13.381
53763W        W15129  38.063   9.802  11.942
53764W        W15130   0.292  41.504   0.912
53765W        W15131  40.924  11.743  11.898
53766W        W15132  25.088  40.024   1.262
53767W        W15133  24.709  21.617  14.976
53768W        W15134  13.770  18.268  13.055
53769W        W15135  38.978  39.457  14.499
53770W        W15136  26.679   3.954   3.184
53771W        W15137  29.980  28.666   1.770
53772W        W15138  13.140  31.568  10.487
53773W        W15139  31.088  26.011   4.142
53774W        W15140   7.896  17.261  14.853
53775W        W15141  26.989  31.632  13.334
53776W        W15142  17.750  10.138  10.889
53777W        W15143   5.395  11.179   0.402
53778W        W15144  25.980  15.236   2.344
53779W        W15145  41.974  43.998  13.478
53780W        W15146  18.082  24.197   4.188
53781W        W15147  22.683  35.595  12.486
53782W        W15148  28.036  23.601  11.411
53783W        W15149   8.214  37.984  12.532
53784W        W15150  18.151  12.320   0.956
53785W        W15151  26.011  17.229  12.533
53786W        W15152  29.973  28.981   1.802
53787W        W15153  14.834  42.447  11.027
53788W        W15154   0.326  26.155  10.600
53789W        W15155   0.811  19.068   1.795
53790W        W15156  15.679  14.817   4.239
53791W        W15157  28.447   5.803   4.293
53792W        W15158  20.608   3.918   0.886
53793W        W15159  10.187  15.246   2.214
53794W        W15160  40.398  30.066   0.416
53795W        W15161  39.817   8.338  11.029
53796W        W15162   8.880  11.248  10.966
53797W        W15163  39.945  15.227   2.835
53798W        W15164  30.003   2.277   0.336
53799W        W15165  36.966  36.375   0.293
53800W        W15166   5.232  32.445   0.846
53801W        W15167  28.063  23.186   0.265
53802W        W15168  30.910   0.350   2.411
53803W        W15169  24.579  43.419   0.243
53804W        W15170  24.155  14.300  14.809
53805W        W15171  35.580  25.001   3.667
53806W        W15172   4.230  39.406   3.318
53807W        W15173  27.647  38.534   3.837
53808W        W15174   6.727  42.955   4.225
53809W        W15175  23.076  17.718   4.677
53810W        W15176   9.743  26.995   1.380
53811W        W15177  27.562  31.059   3.794
53812W        W15178  25.481  32.939  14.468
53813W        W15179  12.611  40.532  10.967
53814W        W15180  13.270  13.796   3.236
53815W        W15181   9.812  38.485  13.967
53816W        W15182   0.868  33.120   2.869
53817W        W15183  37.898  29.085  11.466
53818W        W15184  30.490  37.346  14.449
53819W        W15185   1.795  25.981   2.394
53820W        W15186   0.882   2.340   0.463
53821W        W15187  19.573  33.525  13.380
53822W        W15188  33.130  36.844  13.543
53823W        W15189  11.337  24.666   2.382
53824W        W15190   9.832  25.997  10.914
53825W        W15191  25.198  30.001  14.476
53826W        W15192  17.556  20.534  14.866
53827W        W15193  17.243  21.041  10.538
53828W        W15194  37.513   3.722  12.480
53829W        W15195  15.673  43.930   1.925
53830W        W15196   3.420  28.033   2.841
53831W        W15197   3.761   0.485  14.293
53832W        W15198  30.652  28.990   0.871
53833W        W15199   5.771  39.449  12.032
53834W        W15200  44.897  25.524   0.915
53835W        W15201   2.264  20.624  14.025
53836W        W15202   4.287   2.869   1.296
53837W        W15203  39.420  20.036  12.926
53838W        W15204   3.910   3.345  12.023
53839W        W15205  32.906  21.746  14.019
53840W        W15206  29.467  30.009   2.768
53841W        W15207   3.929  41.377   2.775
53842W        W15208  23.201  32.539   4.120
53843W        W15209   7.810  39.515   0.747
53844W        W15210  41.918  36.549   1.328
53845W        W15211  14.277  30.119   2.245
53846W        W15212  34.938  25.988  11.046
53847W        W15213  41.420   5.747   4.181
53848W        W15214  30.100  44.813   3.316
53849W        W15215  25.179  44.897   4.632
53850W        W15216  23.136  33.920  13.426
53851W        W15217  32.940  17.260  10.903
53852W        W15218   0.857  21.156  11.012
53853W        W15219  35.027  10.341  14.886
53854W        W15220  35.047  44.798  12.927
53855W        W15221  39.823  26.027  13.845
53856W        W15222  36.358  19.696   1.882
53857W        W15223   6.288   0.904   1.441
53858W        W15224  39.048  16.585   4.678
53859W        W15225  15.142   0.452  14.413
53860W        W15226  32.034  32.932  14.499
53861W        W15227  41.885   4.275   1.888
53862W        W15228  13.733  15.184  14.843
53863W        W15229  14.697  16.758  10.429
53864W        W15230   9.872  39.435   4.335
53865W        W15231  30.032  18.787   4.232
53866W        W15232  36.425  17.127  12.390
53867W        W15233  44.819   2.782   4.343
53868W        W15234  14.191  37.473   1.876
53869W        W15235  39.519  33.423   4.703
53870W        W15236  41.923  18.120  12.466
53871W        W15237  33.049  11.179   1.264
53872W        W15238  15.768  30.015  11.520
53873W        W15239   6.728  40.846  12.898
53874W        W15240  11.766  36.404  13.831
53875W        W15241   3.217  13.669   9.975
53876W        W15242   1.317  10.317   4.783
53877W        W15243   6.288  39.920  11.035
53878W        W15244  35.924  42.796   3.298
53879W        W15245   0.860   9.785  13.834
53880W        W15246  41.523  41.510  10.409
53881W        W15247  33.059  18.077   4.720
53882W        W15248  27.059   6.696   0.272
53883W        W15249  19.629   3.214  13.064
53884W        W15250  30.982   9.206  13.047
53885W        W15251  24.504   2.324   4.670
53886W        W15252   1.398  17.574   1.306
53887W        W15253   8.312  20.264  11.102
53888W        W15254  29.464  15.708   4.323
53889W        W15255  12.698  22.688   4.263
53890W        W15256  29.623  24.062  14.869
53891W        W15257  20.174  35.448  14.815
53892W        W15258  21.738  35.074  14.883
53893W        W15259   7.753  16.755  13.473
53894W        W15260  31.600   8.735  14.895
53895W        W15261  42.298  13.807  13.468
53896W        W15262  11.310  23.533  12.847
53897W        W15263   0.901   5.783   1.417
53898W        W15264  25.608   3.222  14.317
53899W        W15265   4.863  32.897  13.056
53900W        W15266  17.780  13.617  12.874
53901W        W15267  12.618  27.018  11.090
53902W        W15268  27.503  27.008  14.384
53903W        W15269   4.710  25.621  11.528
53904W        W15270  29.135  32.465   3.280
53905W        W15271  31.525  39.450  14.982
53906W        W15272  20.112   8.705   0.300
53907W        W15273   9.779  20.274   3.382
53908W        W15274  28.014  29.999   4.233
53909W        W15275  17.593   3.864   3.298
53910W        W15276   7.742  43.999  12.365
53911W        W15277  35.887  12.139  14.370
53912W        W15278  18.179   9.363   1.223
53913W        W15279  39.893  40.986  11.560
53914W        W15280  10.385  20.615  12.955
53915W        W15281   9.690   2.767   2.209
53916W        W15282  36.493   4.842   0.295
53917W        W15283   1.391   1.836   0.817
53918W        W15284  15.758   0.315  14.877
53919W        W15285  28.960  12.661   4.124
53920W        W15286   6.317  13.229   4.610
53921W        W15287   5.406  35.503  10.520
53922W        W15288  34.467   1.765   0.763
53923W        W15289  13.150  32.109  11.926
53924W        W15290  16.143   1.471  11.511
53925W        W15291  11.162  26.963  13.449
53926W        W15292  28.451  19.590  14.898
53927W        W15293  28.653  44.977   0.962
53928W        W15294  37.943  44.272   3.869
53929W        W15295  38.956  36.371  13.886
53930W        W15296  39.535  24.667  10.463
53931W        W15297  35.465  44.911   0.251
53932W        W15298   5.249  44.397  13.326
53933W        W15299   7.794  41.970   1.249
53934W        W15300  25.188  27.589   1.925
53935W        W15301  39.850  44.011  11.441
53936W        W15302  21.701   5.734   0.479
53937W        W15303  35.955  30.583  11.526
53938W        W15304  39.336  25.007  14.378
53939W        W15305   9.732  24.991  14.376
53940W        W15306  43.791   6.345  12.482
53941W        W15307  14.316  36.014   2.689
53942W        W15308  38.921  23.615   1.382
53943W        W15309  15.816  22.237   2.349
53944W        W15310  32.003  13.642   0.938
53945W        W15311  13.668  31.497   5.797
53946W        W15312  21.053  42.885   3.648
53947W        W15313  32.591  16.667  13.907
53948W        W15314   8.348  33.977   2.395
53949W        W15315  21.164  22.048  12.882
53950W        W15316  25.506   8.812   0.271
53951W        W15317  14.602  38.064   2.396
53952W        W15318  32.887   3.764  12.544
53953W        W15319  27.677   2.265  14.509
53954W        W15320   9.347   2.308  13.337
53955W        W15321  24.643  26.480   4.740
53956W        W15322  39.828   2.365  14.313
53957W        W15323   3.437   4.436   1.808
53958W        W15324  35.562  31.423  11.487
53959W        W15325  23.115  20.617  13.898
53960W        W15326  21.614  19.728  13.521
53961W        W15327  38.392   9.821   4.164
53962W        W15328  33.990   3.871   0.429
53963W        W15329  27.126  42.807   0.285
53964W        W15330  24.131   4.286   2.249
53965W        W15331  21.755   8.365   3.170
53966W        W15332  14.671  14.762  12.542
53967W        W15333  10.691  35.455   2.759
53968W        W15334  41.307  21.716  10.444
53969W        W15335  38.967  31.633   4.663
53970W        W15336  23.184   4.255   0.928
53971W        W15337   5.359  15.650  12.431
53972W        W15338  42.913   8.232   1.762
53973W        W15339  24.514   8.888   1.338
53974W        W15340   3.349  33.022   1.893
53975W        W15341  13.271  21.582  12.907
53976W        W15342   9.883  27.060  14.441
53977W        W15343  27.991  12.318  12.448
53978W        W15344  10.769  23.718  11.391
53979W        W15345  38.860  13.245   1.302
53980W        W15346  28.962   3.318   2.275
53981W        W15347  23.038  28.969  13.800
53982W        W15348  38.003  23.022   2.408
53983W        W15349  38.947   7.766  12.535
53984W        W15350  17.272  43.921   0.364
53985W        W15351  19.096  34.875   9.471
53986W        W15352  29.530   7.258   1.312
53987W        W15353  38.994  33.445   0.894
53988W        W15354  21.563  11.799   3.353
53989W        W15355  18.110  12.314  12.994
53990W        W15356  24.536  40.398   2.804
53991W        W15357  41.796  31.636  14.437
53992W        W15358  36.581  29.476   2.209
53993W        W15359  25.587   7.872  11.991
53994W        W15360   2.888  44.286   3.179
53995W        W15361  19.140   9.781   0.352
53996W        W15362  15.783  31.063  12.375
53997W        W15363  29.516  24.666  12.845
53998W        W15364  10.847  18.600  12.946
53999W        W15365  15.198   2.420   4.325
54000W        W15366  23.223  31.022  10.982
54001W        W15367  25.560   7.293  11.889
54002W        W15368  35.961   7.183   2.738
54003W        W15369  28.941  29.521   1.441
54004W        W15370  39.322   4.860   2.802
54005W        W15371  16.125   7.299  14.313
54006W        W15372  34.063  26.698   0.775
54007W        W15373   8.283  32.080   3.727
54008W        W15374  31.941  22.205   3.820
54009W        W15375  31.447  16.136   2.767
54010W        W15376  20.088  39.524  10.618
54011W        W15377  30.486   1.731   3.363
54012W        W15378  13.615  37.953  14.000
54013W        W15379   3.865  44.981  12.428
54014W        W15380  19.538  33.888   4.653
54015W        W15381  17.196  21.099   4.750
54016W        W15382  27.511  37.058  12.962
54017W        W15383  23.200  23.231   2.819
54018W        W15384  44.365   6.308   5.141
54019W        W15385   1.794  26.961  13.359
54020W        W15386   0.986  25.554   0.443
54021W        W15387  10.174  22.192   3.631
54022W        W15388  31.909  16.219  11.459
54023W        W15389   1.948  12.831   1.854
54024W        W15390   8.656   4.263   2.854
54025W        W15391   2.788  42.394  10.435
54026W        W15392  34.069   0.942   0.275
54027W        W15393  30.416  34.009  13.478
54028W        W15394  16.631  26.652   0.342
54029W        W15395  12.338   4.824  11.006
54030W        W15396  25.022  37.491  14.446
54031W        W15397  26.094  15.815   1.266
54032W        W15398   7.819  14.729  11.880
54033W        W15399  44.863  29.151  12.426
54034W        W15400  26.539  38.489   3.814
54035W        W15401  27.092  20.649   2.295
54036W        W15402  40.016  39.881  12.927
54037W        W15403  36.346  44.278   3.691
54038W        W15404  27.063  39.444  14.887
54039W        W15405  11.195  14.630   1.881
54040W        W15406   4.255  29.483   1.935
54041W        W15407  13.316  14.271  10.038
54042W        W15408  25.548  42.921   3.793
54043W        W15409   9.239  42.806  12.849
54044W        W15410   9.300   7.229   2.766
54045W        W15411   2.351   5.704   4.251
54046W        W15412  39.551   8.393   2.677
54047W        W15413  15.712  44.281   0.822
54048W        W15414   0.962  22.129  11.455
54049W        W15415  41.915  24.073   4.214
54050W        W15416   0.484   1.908   3.277
54051W        W15417  39.446   5.361   1.811
54052W        W15418  35.468  38.563   3.804
54053W        W15419   0.381   0.488  12.922
54054W        W15420  41.038  36.587  11.384
54055W        W15421  35.947  28.995  14.454
54056W        W15422  22.215  42.514  10.900
54057W        W15423  21.017  43.334   5.187
54058W        W15424  12.121  32.119   0.395
54059W        W15425  30.962  13.702  14.326
54060W        W15426   3.908   7.700  12.452
54061W        W15427   6.766   6.830  13.529
54062W        W15428  32.604  15.310  13.928
54063W        W15429   7.316   8.853  12.941
54064W        W15430   1.936  29.063  14.956
54065W        W15431  28.640   6.330  11.546
54066W        W15432  39.376  42.296   3.753
54067W        W15433  35.966  41.835  11.881
54068W        W15434  16.662   7.877  11.856
54069W        W15435  29.633  21.696   5.215
54070W        W15436  17.279  16.090  13.365
54071W        W15437  24.208  24.723   1.408
54072W        W15438  23.059  28.153  14.289
54073W        W15439  44.344  21.021   5.133
54074W        W15440  27.975  38.879  14.792
54075W        W15441   5.888  12.335   4.809
54076W        W15442  24.536  30.456   3.349
54077W        W15443  20.140  27.194  12.072
54078W        W15444   6.232   8.733   0.268
54079W        W15445   3.461  18.637   0.264
54080W        W15446  17.604   7.668  12.076
54081W        W15447  14.679  27.581  11.490
54082W        W15448  22.092   6.322   4.159
54083W        W15449  30.539  38.063  13.985
54084W        W15450  37.974  37.389  14.416
54085W        W15451  36.900  25.563   0.306
54086W        W15452   2.921  32.522   1.904
54087W        W15453   3.833  16.777   5.301
54088W        W15454   4.420  33.911  12.885
54089W        W15455  16.637  26.488   2.768
54090W        W15456  16.254  11.743   9.955
54091W        W15457  16.195  25.556   2.896
54092W        W15458  21.052  18.719  14.370
54093W        W15459   3.458   3.768   3.274
54094W        W15460  41.928   5.353   2.253
54095W        W15461  24.114  11.746  10.148
54096W        W15462  17.270   6.267  11.587
54097W        W15463  36.589  19.622  14.895
54098W        W15464  32.932  12.281   1.236
54099W        W15465  42.284  29.610   1.406
54100W        W15466  19.708  15.240  10.567
54101W        W15467   3.237  15.273   1.286
54102W        W15468  32.485   9.756  14.345
54103W        W15469  21.657  31.565   5.213
54104W        W15470  32.066  14.147  13.958
54105W        W15471  21.228  11.827   0.407
54106W        W15472   5.249  39.984  13.060
54107W        W15473  26.963  37.571   2.278
54108W        W15474  35.048   0.745   2.366
54109W        W15475  13.236   4.754   4.309
54110W        W15476  41.022   2.752   4.234
54111W        W15477  24.084  36.535   1.349
54112W        W15478  38.477  44.420   1.844
54113W        W15479  35.075  21.706   3.672
54114W        W15480   7.194  29.939   1.911
54115W        W15481   7.864   0.405   0.900
54116W        W15482  39.453  28.988  10.639
54117W        W15483  12.821   5.875   4.828
54118W        W15484  37.053  44.301   0.452
54119W        W15485   3.352  11.254   1.695
54120W        W15486  34.100  15.308  13.329
54121W        W15487  16.701  44.344   1.257
54122W        W15488  14.300  31.000   3.289
54123W        W15489   0.982  33.525  11.876
54124W        W15490  10.328  20.272   1.231
54125W        W15491  16.780  41.382  13.869
54126W        W15492  35.544   8.329   2.701
54127W        W15493   9.155  15.763  12.499
54128W        W15494  31.405   6.733  12.854
54129W        W15495   8.723   0.476  11.960
54130W        W15496  16.125  26.138  13.510
54131W        W15497  17.791  32.094   0.899
54132W        W15498   4.376   3.300   1.260
54133W        W15499  22.502  40.992  11.923
54134W        W15500  30.475  35.524   4.779
54135W        W15501  27.016  30.455  11.957
54136W        W15502  14.632  41.803   4.721
54137W        W15503  43.014  27.662  14.320
54138W        W15504  24.591   7.904  10.027
54139W        W15505  34.432   2.318  13.981
54140W        W15506   2.738  41.389   3.640
54141W        W15507  12.742  24.035  14.006
54142W        W15508   6.266  30.497   3.227
54143W        W15509  18.147  28.994   0.755
54144W        W15510  19.732   9.320  14.476
54145W        W15511  35.852  44.316  13.795
54146W        W15512  27.471  27.521   3.320
54147W        W15513  22.027   8.775   2.719
54148W        W15514  40.421  14.139   0.917
54149W        W15515  32.906  36.394   1.708
54150W        W15516   3.832  44.469  12.519
54151W        W15517  24.636  43.360  12.516
54152W        W15518  32.971  32.504  13.488
54153W        W15519   7.289  42.403   1.303
54154W        W15520  20.720   9.331  11.437
54155W        W15521   6.854  42.425  14.503
54156W        W15522  13.319  35.013  10.961
54157W        W15523  36.969   0.950   3.366
54158W        W15524   5.328   8.358  11.465
54159W        W15525  25.009  37.353  14.893
54160W        W15526  30.414  28.462   2.399
54161W        W15527  39.553  37.488   5.139
54162W        W15528   3.741  38.565  14.855
54163W        W15529  25.038   0.399   0.341
54164W        W15530  38.881  43.299   4.194
54165W        W15531   2.306   6.292   4.131
54166W        W15532   2.467  20.683   2.269
54167W        W15533   4.724  37.035  11.950
54168W        W15534  28.931   9.297   2.886
54169W        W15535  41.868  37.564  10.147
54170W        W15536  40.375  21.719   3.262
54171W        W15537  39.893  42.385   2.895
54172W        W15538  40.355  10.278   1.441
54173W        W15539   2.837  21.557   2.294
54174W        W15540  21.040  25.175  10.028
54175W        W15541   4.391   2.961  10.949
54176W        W15542  26.164  25.129   0.780
54177W        W15543  39.347   4.705   4.744
54178W        W15544  39.891   1.452  14.481
54179W        W15545  13.169  39.062   4.232
54180W        W15546  15.303  31.935  14.482
54181W        W15547  30.988  40.051  12.451
54182W        W15548  26.699  36.885  11.965
54183W        W15549  19.233  32.106   4.675
54184W        W15550  10.861  38.911   4.625
54185W        W15551  43.783  31.456  14.015
54186W        W15552   1.445  39.959  14.482
54187W        W15553   0.971   6.212  11.053
54188W        W15554  25.019   2.389  12.961
54189W        W15555  12.319  19.149   3.169
54190W        W15556  43.343   3.254   4.141
54191W        W15557   3.912  13.320   0.478
54192W        W15558  22.231   6.777  12.483
54193W        W15559  30.945  25.201  11.504
54194W        W15560  41.869   5.830   4.792
54195W        W15561  11.732  29.972   2.291
54196W        W15562  30.473  35.458   4.203
54197W        W15563  26.139  20.238   4.217
54198W        W15564  39.506  33.881   3.253
54199W        W15565  42.849  38.494  14.958
54200W        W15566  17.590  28.678  10.987
54201W        W15567  18.762  22.179  10.411
54202W        W15568   9.244   8.867   5.253
54203W        W15569  26.045  34.580  14.845
54204W        W15570  35.009  36.038  14.908
54205W        W15571  34.900  24.610  13.822
54206W        W15572  44.369  41.400   0.335
54207W        W15573  42.326  40.038  13.392
54208W        W15574  25.646   1.777   1.725
54209W        W15575  39.495  14.655  14.806
54210W        W15576  27.688  17.608  10.538
54211W        W15577   7.800   2.252   2.750
54212W        W15578   8.765   7.748  11.466
54213W        W15579   8.358  42.856  11.938
54214W        W15580  34.515  30.503   3.851
54215W        W15581  22.631  37.082  10.899
54216W        W15582  31.917  44.429   2.725
54217W        W15583  21.131  19.681  10.050
54218W        W15584  21.678  15.601   2.730
54219W        W15585   5.198   1.421   0.365
54220W        W15586  44.483   3.398   2.331
54221W        W15587  15.128   8.667   1.276
54222W        W15588  41.360   8.736   3.361
54223W        W15589  24.608  25.141   4.615
54224W        W15590   6.894  29.474  12.036
54225W        W15591  26.090  19.651  14.840
54226W        W15592  17.648  10.857   4.127
54227W        W15593  29.611  17.661  10.620
54228W        W15594  26.671  31.532  14.943
54229W        W15595  21.657  41.348   5.249
54230W        W15596   8.395  41.526   4.818
54231W        W15597  25.167  10.367   3.248
54232W        W15598  39.395  27.962   0.842
54233W        W15599  15.727  10.767   2.376
54234W        W15600  22.193  43.013  13.931
54235W        W15601  31.508  40.867   1.273
54236W        W15602  41.960  36.886   2.770
54237W        W15603  37.387   3.263   9.958
54238W        W15604  44.392   2.450   3.730
54239W        W15605   5.332  31.004  13.962
54240W        W15606   0.264  26.155  13.421
54241W        W15607  36.063  21.251  10.936
54242W        W15608   6.719   3.263   0.914
54243W        W15609  13.287  39.046   0.409
54244W        W15610  13.191   2.310   3.794
54245W        W15611  18.273  10.346   2.259
54246W        W15612  13.166  39.505  11.041
54247W        W15613  44.438  27.163   1.307
54248W        W15614  43.392  34.927   1.232
54249W        W15615  35.502  41.456  14.779
54250W        W15616  38.839   2.893  10.533
54251W        W15617  30.933  22.207   1.253
54252W        W15618  10.242  43.989   1.699
54253W        W15619  30.949   4.381   0.280
54254W        W15620   5.378  14.647   0.911
54255W        W15621  33.471   6.342   1.259
54256W        W15622  13.208  27.978  10.534
54257W        W15623  20.055  37.508   3.721
54258W        W15624   0.343  27.961   1.797
54259W        W15625  26.671  22.241  11.467
54260W        W15626  41.307  21.110  11.492
54261W        W15627  43.441  35.470  11.959
54262W        W15628  21.569  12.704   2.873
54263W        W15629  35.070  14.603  10.547
54264W        W15630   6.703  41.350  10.529
54265W        W15631  10.764   3.840   1.870
54266W        W15632  33.521   6.848  14.333
54267W        W15633  44.823  28.565   0.423
54268W        W15634   0.336  43.291   0.296
54269W        W15635   8.831  10.145   4.136
54270W        W15636  11.365  25.615   2.862
54271W        W15637   2.739  32.024   4.818
54272W        W15638   2.288  40.025  12.402
54273W        W15639  20.658  33.094  12.342
54274W        W15640  43.995  27.505  12.381
54275W        W15641  25.682  13.329   3.344
54276W        W15642  21.061  26.663  13.339
54277W        W15643  15.658  44.816  12.436
54278W        W15644  28.600  27.577   5.769
54279W        W15645  24.092  38.447  13.529
54280W        W15646  42.987  38.941   0.966
54281W        W15647  20.627  35.446   2.373
54282W        W15648  40.909  10.676  13.890
54283W        W15649  15.138  28.446  11.512
54284W        W15650  35.919  36.892   4.746
54285W        W15651   4.812  42.338  13.972
54286W        W15652   5.344  17.151   1.359
54287W        W15653   1.754  27.114  14.283
54288W        W15654  39.906  29.471   2.210
54289W        W15655  34.064   5.227  12.521
54290W        W15656  24.712  13.828  13.891
54291W        W15657   0.868  36.435   0.905
54292W        W15658  11.722  17.637   0.289
54293W        W15659  27.601  20.613   3.846
54294W        W15660  22.154  23.672  11.439
54295W        W15661  33.038   7.872   3.311
54296W        W15662  33.017   8.669   3.817
54297W        W15663   8.697  22.094   1.820
54298W        W15664  21.121  24.186  12.551
54299W        W15665  42.884   6.902  10.438
54300W        W15666  27.014  30.643  11.413
54301W        W15667   6.319   4.794   3.732
54302W        W15668   3.442  25.112   3.230
54303W        W15669  39.017   2.729   4.349
54304W        W15670   9.394  14.743   2.717
54305W        W15671  26.638  26.076   1.349
54306W        W15672  44.347  26.612  11.032
54307W        W15673  37.997   7.322  13.927
54308W        W15674  32.115  44.860  14.908
54309W        W15675  21.188  31.603  11.873
54310W        W15676  26.619  43.382   1.217
54311W        W15677  40.957  16.303  11.519
54312W        W15678   8.842   1.470  10.985
54313W        W15679  34.397  42.498   4.779
54314W        W15680  16.734  12.719  14.333
54315W        W15681  44.853   7.783   2.326
54316W        W15682  19.126  36.914  13.906
54317W        W15683   8.761  13.776  13.468
54318W        W15684   7.337  30.591  11.472
54319W        W15685   8.220  13.842   2.773
54320W        W15686  11.757  10.259  13.477
54321W        W15687  12.755  19.600  14.867
54322W        W15688  22.531  22.083  14.970
54323W        W15689   8.336   9.328  14.000
54324W        W15690  30.430   4.409   1.417
54325W        W15691  39.862  10.748   2.699
54326W        W15692  12.167  34.964  10.633
54327W        W15693  21.720  10.383   4.667
54328W        W15694   2.359  43.018   1.886
54329W        W15695  40.490   9.158   4.705
54330W        W15696  10.296  16.257  14.910
54331W        W15697  35.448   2.354   2.327
54332W        W15698  13.267  30.160  12.974
54333W        W15699   4.302  32.447  12.366
54334W        W15700  12.234  38.077   3.275
54335W        W15701  31.962  25.988  12.016
54336W        W15702  24.532  20.628   1.383
54337W        W15703  30.484   5.786  10.494
54338W        W15704  27.527  13.115  13.375
54339W        W15705   9.790   9.735   3.640
54340W        W15706  41.379  22.240   1.810
54341W        W15707   6.895   5.823   1.299
54342W        W15708  23.187  24.536  13.377
54343W        W15709  24.090  35.949  11.531
54344W        W15710  11.624   9.361   0.462
54345W        W15711  25.499  30.033   2.406
54346W        W15712  29.026  43.315   3.681
54347W        W15713  16.170  31.127   5.258
54348W        W15714  43.395   7.287   1.755
54349W        W15715   8.186  21.253   2.824
54350W        W15716  31.015   7.178   2.389
54351W        W15717  21.227  19.700   1.306
54352W        W15718  17.106  39.486   1.332
54353W        W15719  34.405  17.074  11.398
54354W        W15720  33.438  12.846   3.219
54355W        W15721   7.873  14.722   4.830
54356W        W15722  38.477  43.868   0.780
54357W        W15723  42.818  25.631   0.266
54358W        W15724  18.261  38.030  10.620
54359W        W15725  11.235  44.960  11.916
54360W        W15726  37.487   7.272  14.784
54361W        W15727   5.409  26.561  10.615
54362W        W15728  18.241  26.034  11.605
54363W        W15729  16.661  27.999  10.539
54364W        W15730  32.502  28.498   0.935
54365W        W15731  28.107  26.106   2.418
54366W        W15732  20.134  21.237   3.861
54367W        W15733  44.376  35.099  10.411
54368W        W15734  18.095  41.011  12.540
54369W        W15735  22.607  40.953  10.522
54370W        W15736  21.520  42.966  14.774
54371W        W15737  12.281   9.652   2.680
54372W        W15738  32.468  23.689   1.433
54373W        W15739  14.162  13.827  14.978
54374W        W15740   9.848  22.533  10.522
54375W        W15741  12.611  33.920   4.185
54376W        W15742  35.947  12.223   3.199
54377W        W15743  31.470  29.432   4.132
54378W        W15744  16.116   3.215  14.444
54379W        W15745   4.908  30.483  11.534
54380W        W15746  13.232   6.714  12.387
54381W        W15747   8.261  33.951   4.229
54382W        W15748  25.084   1.851   1.850
54383W        W15749  12.734  16.147  14.284
54384W        W15750   6.883   8.210   2.313
54385W        W15751  41.872  19.276   2.867
54386W        W15752  30.619  40.901  12.012
54387W        W15753   3.287  31.989   2.727
54388W        W15754  32.047  40.040  10.014
54389W        W15755   4.912  28.522  13.356
54390W        W15756  12.166  18.100   0.260
54391W        W15757  10.340   0.486   3.723
54392W        W15758  15.256   8.160  12.856
54393W        W15759   8.350  25.185   3.302
54394W        W15760  41.833  17.248  14.507
54395W        W15761  33.985  35.520   0.327
54396W        W15762  36.540  24.692  12.358
54397W        W15763  24.544  22.249  14.392
54398W        W15764  19.651   6.697   2.686
54399W        W15765   8.294   8.820  11.555
54400W        W15766  20.240  13.272   3.298
54401W        W15767  10.289   1.810  10.611
54402W        W15768  42.425   1.815  14.513
54403W        W15769   1.271  31.089   3.653
54404W        W15770  37.485  31.511  13.409
54405W        W15771  34.880  12.783   0.824
54406W        W15772   7.814  15.096   2.303
54407W        W15773  23.215  15.637   1.766
54408W        W15774  31.007  34.558   4.834
54409W        W15775  22.138  15.119   3.382
54410W        W15776   6.745   3.925   0.815
54411W        W15777  43.801  13.320  13.504
54412W        W15778  25.570  35.514   3.862
54413W        W15779  42.793  39.830  13.887
54414W        W15780  37.555  24.118  11.875
54415W        W15781  28.617   4.817   2.348
54416W        W15782  39.870  20.195   4.318
54417W        W15783  31.921  11.665  11.102
54418W        W15784  33.912   2.245   1.903
54419W        W15785  42.321  43.852  12.922
54420W        W15786   0.251   2.849   0.433
54421W        W15787  19.560  36.468   4.758
54422W        W15788  40.428   3.413  14.938
54423W        W15789  40.971  23.620   3.342
54424W        W15790  14.757  14.167   1.441
54425W        W15791   6.916  15.750  12.492
54426W        W15792  33.424  35.896  10.945
54427W        W15793  44.305  16.120   3.246
54428W        W15794   4.241  19.674   3.869
54429W        W15795  21.513  42.341   3.180
54430W        W15796  37.351  24.106   4.696
54431W        W15797  27.584  32.914  13.432
54432W        W15798  35.528  27.493  14.345
54433W        W15799  16.154  32.966  11.527
54434W        W15800  33.087   1.878   4.674
54435W        W15801  20.238   6.355  14.326
54436W        W15802   8.771  22.673  11.041
54437W        W15803  20.592  11.311   4.760
54438W        W15804  10.209  14.763  14.420
54439W        W15805  12.162   3.404  13.968
54440W        W15806  18.682  18.294  14.019
54441W        W15807   1.411  39.559   1.860
54442W        W15808  11.787  30.522   1.441
54443W        W15809   2.828  41.971   1.741
54444W        W15810  42.001   0.904  12.505
54445W        W15811  36.507  18.260  13.495
54446W        W15812  28.017  41.454   0.448
54447W        W15813   1.430   9.382   1.397
54448W        W15814  10.723  12.344  11.105
54449W        W15815  43.359  25.551   2.749
54450W        W15816  21.152  34.108  12.485
54451W        W15817   6.266  19.646   2.717
54452W        W15818  25.653  26.683  11.094
54453W        W15819  42.976  42.927   1.233
54454W        W15820  30.088   3.832  14.308
54455W        W15821   6.300  29.969  10.970
54456W        W15822  28.976  14.137  14.370
54457W        W15823  21.158  37.844  10.005
54458W        W15824   4.931  30.968   3.299
54459W        W15825  19.572  44.890  14.802
54460W        W15826   3.453  39.935   0.317
54461W        W15827  37.529  20.607   0.300
54462W        W15828  19.199  44.483  12.937
54463W        W15829  25.995  35.520  10.405
54464W        W15830  39.815   7.375  12.968
54465W        W15831  43.939  40.004  14.350
54466W        W15832  24.499   0.960  12.541
54467W        W15833  44.411   6.339  14.960
54468W        W15834   5.748  35.081  13.979
54469W        W15835  34.044  10.714   0.739
54470W        W15836  34.992  34.517  11.998
54471W        W15837  34.898  29.477  13.457
54472W        W15838  16.663  43.321  12.948
54473W        W15839  24.717   3.873   3.364
54474W        W15840  19.090  38.978  10.547
54475W        W15841   8.219   4.820   4.311
54476W        W15842   8.165   1.352  12.053
54477W        W15843  12.308   2.856  12.020
54478W        W15844   4.831  20.041   1.770
54479W        W15845  11.698  24.220  12.506
54480W        W15846   4.230   6.718  11.896
54481W        W15847  28.450  13.755  13.406
54482W        W15848  41.928   4.862   4.183
54483W        W15849  44.452  20.231  10.480
54484W        W15850  10.302  19.574   1.792
54485W        W15851  31.454  24.093  11.561
54486W        W15852  27.961  15.798  13.817
54487W        W15853  42.781  15.776  11.591
54488W        W15854   4.321  25.059  13.853
54489W        W15855  44.373   3.289   2.806
54490W        W15856   1.919  32.077   2.787
54491W        W15857  12.145  34.593  11.091
54492W        W15858  10.356  16.638   0.871
54493W        W15859  30.100  31.554  14.299
54494W        W15860  10.301  42.478  12.436
54495W        W15861  10.352  40.521   1.274
54496W        W15862  16.233  15.109  13.314
54497W        W15863  12.243  39.381   2.759
54498W        W15864  44.985  18.547   3.342
54499W        W15865  28.048  40.487  14.401
54500W        W15866  23.653  35.564  12.064
54501W        W15867  33.581  28.561  13.548
54502W        W15868  34.004  27.632   4.188
54503W        W15869  27.618  44.292  12.361
54504W        W15870   2.316   1.814  11.576
54505W        W15871  30.548  30.453  12.919
54506W        W15872  28.060  31.939  11.011
54507W        W15873  26.625  30.164   0.254
54508W        W15874  37.564  29.150  14.818
54509W        W15875   1.244  36.365   4.621
54510W        W15876  31.931  35.866   1.775
54511W        W15877  26.202  32.393  12.486
54512W        W15878  41.527  34.436   1.244
54513W        W15879  13.301   6.379  13.996
54514W        W15880  21.594  13.697  14.337
54515W        W15881  15.605   1.446   3.754
54516W        W15882   2.740  21.522   3.845
54517W        W15883  12.768  27.036  14.396
54518W        W15884  22.253  25.562  14.413
54519W        W15885   3.452  29.973  10.626
54520W        W15886  16.111   5.262   1.338
54521W        W15887  18.092  20.265  11.540
54522W        W15888   5.729  31.948   2.418
54523W        W15889  13.741   0.476  12.384
54524W        W15890  32.890  23.541   0.745
54525W        W15891  44.277  27.687   4.219
54526W        W15892   8.182   6.684  11.510
54527W        W15893  29.150  34.106  10.979
54528W        W15894  16.631   2.738   4.346
54529W        W15895  12.241  40.333   0.809
54530W        W15896  40.398  29.141   5.140
54531W        W15897  36.924  13.656   3.632
54532W        W15898  10.265  36.034  13.999
54533W        W15899  34.984  44.278  12.051
54534W        W15900   1.779  16.603   2.706
54535W        W15901  30.596   1.471   1.910
54536W        W15902   1.253  15.796   2.244
54537W        W15903  22.109  24.665   1.887
54538W        W15904  42.020  20.722   1.416
54539W        W15905  42.409   6.237   1.760
54540W        W15906  17.218  40.441  12.071
54541W        W15907   5.763  40.426   0.421
54542W        W15908   0.826  12.217  12.868
54543W        W15909  16.240  23.004   4.663
54544W        W15910   6.429  44.943  14.334
54545W        W15911   0.357   7.820  13.016
54546W        W15912   6.915  39.964  12.001
54547W        W15913   0.401  17.589  14.889
54548W        W15914  32.986   5.754  11.071
54549W        W15915  14.649  16.132   4.778
54550W        W15916   4.215  12.216   2.413
54551W        W15917  43.426  18.229  11.115
54552W        W15918  36.995  40.920   9.660
54553W        W15919  40.403  44.482  11.588
54554W        W15920  42.924  26.965  13.364
54555W        W15921  44.372  29.122  13.863
54556W        W15922   3.759  30.432  12.917
54557W        W15923  41.951  44.381   1.374
54558W        W15924  22.119   0.972  11.383
54559W        W15925  11.784   7.404   1.781
54560W        W15926  42.970   5.769  13.381
54561W        W15927  34.560   5.242  10.449
54562W        W15928  38.971   6.858  10.522
54563W        W15929  11.199  21.720   0.420
54564W        W15930  15.608  18.104   2.404
54565W        W15931  29.058   4.753  12.917
54566W        W15932  43.466  28.456  12.458
54567W        W15933  23.534  30.084   3.206
54568W        W15934   6.224  23.577   0.332
54569W        W15935  38.872  38.906  11.404
54570W        W15936  15.631  42.486   4.611
54571W        W15937  38.452  38.460   4.739
54572W        W15938  27.011  31.992  12.055
54573W        W15939  19.709  34.114  14.419
54574W        W15940  40.376  42.892  10.008
54575W        W15941  15.806   6.862   3.264
54576W        W15942   0.957   1.302   4.601
54577W        W15943  23.010  13.113   4.249
54578W        W15944  18.771   9.314  11.989
54579W        W15945   3.254  35.433  12.085
54580W        W15946  31.599  42.396   2.862
54581W        W15947  43.896   1.316   4.726
54582W        W15948   8.780  44.839  13.535
54583W        W15949  43.930  14.618  10.454
54584W        W15950   6.905  42.782  13.973
54585W        W15951  33.448  15.793  13.839
54586W        W15952  36.937   0.404  13.320
54587W        W15953   9.353  44.267   3.259
54588W        W15954  44.863  21.550  10.946
54589W        W15955  21.179  26.694  11.436
54590W        W15956  22.160  15.741  13.881
54591W        W15957  37.540  33.595   1.903
54592W        W15958  31.036   2.446  13.017
54593W        W15959  14.108   9.850   2.801
54594W        W15960  23.051   5.332  14.897
54595W        W15961  42.907  31.985  11.073
54596W        W15962  32.890  28.593  12.380
54597W        W15963  39.468   1.738   4.139
54598W        W15964  28.489  33.100  11.075
54599W        W15965  28.522  34.494  12.405
54600W        W15966  13.782  24.522  12.057
54601W        W15967  22.215  10.322   2.787
54602W        W15968  38.889  17.132   3.640
54603W        W15969  15.787  27.032  11.872
54604W        W15970  39.475  36.056  13.958
54605W        W15971  41.431  38.564   4.337
54606W        W15972  12.169   6.686   2.792
54607W        W15973  21.186  38.325  11.394
54608W        W15974  22.685   8.857   5.216
54609W        W15975  13.815   2.740  11.893
54610W        W15976  23.691  11.650   2.791
54611W        W15977  24.491   9.361  13.394
54612W        W15978  24.974  37.481  12.072
54613W        W15979  31.609  29.165  11.033
54614W        W15980  13.124  38.436   3.766
54615W        W15981  11.227  41.872   1.918
54616W        W15982   0.360  18.131  10.973
54617W        W15983  43.878  16.574  14.304
54618W        W15984   0.747  32.398   1.214
54619W        W15985   5.373   2.905   0.481
54620W        W15986  44.867  12.164   0.855
54621W        W15987  31.118  39.435   1.813
54622W        W15988  28.490  31.526   1.295
54623W        W15989  17.096  28.988   2.794
54624W        W15990   4.217   1.783  14.512
54625W        W15991  13.166  40.889   0.418
54626W        W15992  26.133  37.382  13.543
54627W        W15993   9.698  19.704  12.088
54628W        W15994  30.493   7.233  10.463
54629W        W15995  33.904  32.078   3.307
54630W        W15996  32.939  10.873   4.144
54631W        W15997  30.076   2.373   1.388
54632W        W15998  37.442  10.214  14.013
54633W        W15999  29.014   7.689   2.336
54634W        W16000  29.082  29.569  10.972
54635W        W16001  36.007  19.558  13.461
54636W        W16002  12.157  25.531  14.283
54637W        W16003  14.338  39.944   1.287
54638W        W16004  32.008  12.347  10.457
54639W        W16005  28.037   7.801  14.481
54640W        W16006  21.542  40.425   2.843
54641W        W16007   6.387   4.258  12.421
54642W        W16008   1.927  39.951   4.723
54643W        W16009   1.760  15.729  13.424
54644W        W16010  30.654  18.580   9.627
54645W        W16011  31.583  21.146  14.450
54646W        W16012   7.670  30.495   4.237
54647W        W16013   1.963  13.227   5.262
54648W        W16014  39.047  14.129   3.282
54649W        W16015  35.575  10.324   3.680
54650W        W16016  23.201  25.100  10.525
54651W        W16017  20.690  13.607  14.783
54652W        W16018   6.787   7.345   0.926
54653W        W16019  36.347  29.041   1.331
54654W        W16020  31.967  41.342   9.539
54655W        W16021   8.761  25.151   2.772
54656W        W16022  29.959  26.021  13.983
54657W        W16023  29.639   4.386  10.945
54658W        W16024  32.602  35.983  11.074
54659W        W16025  18.553  21.701   0.829
54660W        W16026  23.553   3.287  14.011
54661W        W16027  34.984  27.605   0.920
54662W        W16028  35.437  44.860  13.365
54663W        W16029  19.705  42.440  11.877
54664W        W16030  44.473  31.525  13.901
54665W        W16031  21.026  18.138   4.183
54666W        W16032   2.440  27.170  11.896
54667W        W16033  28.672   4.410   0.462
54668W        W16034  33.490  42.964   4.671
54669W        W16035   8.899   4.355   2.392
54670W        W16036  31.072   9.800  11.385
54671W        W16037  17.719  28.532   2.712
54672W        W16038  17.745   3.375  14.983
54673W        W16039  24.156  18.266   3.795
54674W        W16040   6.916  42.025   2.839
54675W        W16041  19.753  33.113   3.681
54676W        W16042  31.090  29.082   0.843
54677W        W16043  28.661  27.525   0.409
54678W        W16044  11.196  41.441   1.356
54679W        W16045  28.552   7.174  11.466
54680W        W16046  21.668  14.711  14.292
54681W        W16047  16.133  36.085  13.928
54682W        W16048   6.897   5.883   2.784
54683W        W16049  38.545   5.418  10.414
54684W        W16050  29.645  25.133   2.716
54685W        W16051   4.882  34.449  13.945
54686W        W16052  42.813  30.417   4.647
54687W        W16053  19.222  22.685  11.086
54688W        W16054   2.725  19.212   0.896
54689W        W16055   3.307  19.188   0.753
54690W        W16056  27.014  42.487  12.862
54691W        W16057  43.274  35.512  14.423
54692W        W16058   3.357   6.356   1.339
54693W        W16059  28.069  34.505   4.665
54694W        W16060   5.840   2.832   4.228
54695W        W16061  43.814  12.163  12.838
54696W        W16062  13.129  29.570   2.676
54697W        W16063  43.884  30.920  13.038
54698W        W16064   0.331  42.444  12.542
54699W        W16065  20.534  30.566  11.975
54700W        W16066  27.542  40.428   3.267
54701W        W16067  19.232  15.151  13.401
54702W        W16068  24.114  30.912  11.026
54703W        W16069   3.334  11.186  12.550
54704W        W16070   0.856   6.900  11.969
54705W        W16071  36.518  12.630   1.892
54706W        W16072  40.365   6.402  11.563
54707W        W16073   4.878  29.078  10.982
54708W        W16074   4.839  41.858  14.447
54709W        W16075  36.922  39.994  10.645
54710W        W16076  30.912  42.367   2.244
54711W        W16077   2.898  31.073   4.717
54712W        W16078  34.104   9.361   3.654
54713W        W16079   4.237  34.508   2.668
54714W        W16080  37.985  13.674  11.441
54715W        W16081  21.577  36.861  14.784
54716W        W16082   3.845  32.427   0.824
54717W        W16083   7.713  13.185  10.060
54718W        W16084   3.378  42.873   0.949
54719W        W16085   1.882  30.116  11.045
54720W        W16086  34.468  44.388   1.886
54721W        W16087   0.875  36.012   0.867
54722W        W16088  38.903  27.138   3.859
54723W        W16089  10.252  22.183  11.094
54724W        W16090  22.626  36.066  13.855
54725W        W16091  32.082  21.517  13.450
54726W        W16092  31.938  24.190   4.227
54727W        W16093  16.578   8.673  14.766
54728W        W16094  29.941  36.981  11.463
54729W        W16095  15.753  27.550   3.815
54730W        W16096  38.329  28.651  12.086
54731W        W16097  11.132  41.820   2.329
54732W        W16098  42.392  25.514   1.762
54733W        W16099  18.117   5.931  10.553
54734W        W16100   1.276  32.391  10.901
54735W        W16101  23.729  11.813  11.126
54736W        W16102  44.007  23.145  12.414
54737W        W16103  41.491  18.717   1.796
54738W        W16104  11.852  37.380   1.727
54739W        W16105  27.654  24.088  11.464
54740W        W16106  28.130  36.980   2.271
54741W        W16107   9.817  24.184   1.372
54742W        W16108  20.734  38.370  11.546
54743W        W16109  14.326  22.122   1.930
54744W        W16110  22.241   5.927  10.447
54745W        W16111  18.708   6.805  12.441
54746W        W16112  31.617  17.558  10.414
54747W        W16113   2.789   0.872  13.817
54748W        W16114   3.434  39.459   3.221
54749W        W16115  25.489  18.749  14.851
54750W        W16116  34.014   7.883   0.922
54751W        W16117  20.218   7.193  13.823
54752W        W16118   0.248  24.103   3.381
54753W        W16119  19.241  41.895  14.919
54754W        W16120   8.798  29.578  14.446
54755W        W16121  10.788  19.734  14.016
54756W        W16122  41.017  14.801   0.809
54757W        W16123  20.238  39.340   3.199
54758W        W16124   6.752  12.351  11.392
54759W        W16125  39.365  19.140  14.859
54760W        W16126   8.239  40.332   0.821
54761W        W16127   7.770  18.217  13.874
54762W        W16128  13.777   5.257  12.393
54763W        W16129   1.918  26.048  13.544
54764W        W16130  40.436  40.904  14.476
54765W        W16131   2.774  23.566   3.337
54766W        W16132  41.868  18.620  13.541
54767W        W16133  33.555  37.403   5.313
54768W        W16134  37.005  34.910  11.954
54769W        W16135  24.723  36.349  10.894
54770W        W16136  19.077  33.469  11.522
54771W        W16137  36.538   1.769  12.047
54772W        W16138  10.339  12.704  10.446
54773W        W16139  44.981  10.839   4.760
54774W        W16140  10.257   8.261  13.943
54775W        W16141  31.906   7.393   0.354
54776W        W16142  44.420  20.561  13.853
54777W        W16143   1.414  17.582  11.994
54778W        W16144  13.223  32.997  11.926
54779W        W16145   6.276  35.983  13.453
54780W        W16146   6.244  19.105   4.295
54781W        W16147   1.838  34.943   3.665
54782W        W16148   1.245  22.692  11.388
54783W        W16149  16.089   4.839  10.001
54784W        W16150  20.041  22.149   4.155
54785W        W16151  13.671  21.680  10.606
54786W        W16152  36.398  26.518  11.531
54787W        W16153  37.564   5.293   2.252
54788W        W16154  36.878  26.953  11.080
54789W        W16155  35.414  29.498   1.430
54790W        W16156  41.825   1.304   2.203
54791W        W16157  11.866  35.992   2.283
54792W        W16158  22.653  10.684  13.063
54793W        W16159  18.667   7.857  12.526
54794W        W16160  13.202  40.427  14.512
54795W        W16161  24.211  16.766  10.446
54796W        W16162  33.068   8.360   4.225
54797W        W16163   5.893  41.448   2.773
54798W        W16164  27.147  20.532   3.239
54799W        W16165  14.277  10.712  13.330
54800W        W16166  37.880  28.485  11.373
54801W        W16167  14.255   3.299  10.126
54802W        W16168  32.955  33.591   2.403
54803W        W16169  33.508  23.608   4.744
54804W        W16170  20.049   5.296   2.201
54805W        W16171  29.499   4.781   0.848
54806W        W16172  44.784  18.295   1.761
54807W        W16173   4.348   4.714   2.713
54808W        W16174  37.033  11.859  12.888
54809W        W16175  41.419  31.539  14.426
54810W        W16176  25.130   7.821   3.762
54811W        W16177  23.595  16.227  11.046
54812W        W16178  41.797  14.094   0.777
54813W        W16179  29.503  26.019   4.205
54814W        W16180  38.529  29.647  13.315
54815W        W16181  14.751  13.609   5.247
54816W        W16182  11.234  19.054   4.211
54817W        W16183  41.848  16.788  13.425
54818W        W16184   8.301  40.031  10.961
54819W        W16185  18.164   0.296  13.017
54820W        W16186   6.368   3.416  14.933
54821W        W16187  40.021  23.242   2.378
54822W        W16188  25.594  28.993  12.504
54823W        W16189  36.566  14.225  10.589
54824W        W16190  27.972  34.484   1.356
54825W        W16191  39.945  42.478  10.967
54826W        W16192  23.652  43.908   3.325
54827W        W16193  40.476  41.305   1.224
54828W        W16194  35.072  17.221   3.356
54829W        W16195  10.341  35.546   2.243
54830W        W16196  10.191  29.125   4.698
54831W        W16197  21.533  10.338   2.861
54832W        W16198  40.329  12.722   3.752
54833W        W16199  19.598  16.111  13.350
54834W        W16200   1.867  25.515  10.001
54835W        W16201  12.856  29.990   2.885
54836W        W16202  41.397   5.332   4.320
54837W        W16203  44.912  33.063  11.964
54838W        W16204   5.812  38.835  11.380
54839W        W16205  38.845   4.907  14.479
54840W        W16206  19.597   1.792  11.532
54841W        W16207  15.238  33.622  11.963
54842W        W16208  14.286  26.177   0.752
54843W        W16209   6.850  25.522   0.881
54844W        W16210  34.922  14.340  10.489
54845W        W16211  14.128  41.394  13.531
54846W        W16212  31.081   3.380   4.126
54847W        W16213  44.346  39.982  13.906
54848W        W16214   4.252  29.604   5.205
54849W        W16215  27.516  39.503  14.470
54850W        W16216  20.610  31.119  14.931
54851W        W16217  34.944  39.322   4.767
54852W        W16218  13.602   8.746  11.123
54853W        W16219  17.751  25.595  13.488
54854W        W16220  28.119  36.844   0.944
54855W        W16221  22.047  22.620  12.366
54856W        W16222   1.893  10.376  14.968
54857W        W16223  41.787  35.376  11.025
54858W        W16224  25.986   0.439  13.374
54859W        W16225  44.388   7.700  12.941
54860W        W16226  25.967  20.547   1.785
54861W        W16227  29.481  18.717   2.782
54862W        W16228  10.169  35.528   0.797
54863W        W16229  36.861  37.840  13.433
54864W        W16230  11.775   0.887   1.439
54865W        W16231   4.437  19.078  14.827
54866W        W16232  12.715  26.695   2.739
54867W        W16233  43.781   7.774   3.846
54868W        W16234  28.553  15.653   4.803
54869W        W16235  11.827  30.981  13.845
54870W        W16236  12.126  30.116   2.722
54871W        W16237  37.448  36.029  13.488
54872W        W16238  44.394  42.873  13.374
54873W        W16239  17.787  34.539   5.611
54874W        W16240  10.203  34.503  14.913
54875W        W16241   1.738  33.002   1.757
54876W        W16242   5.831  22.579   4.143
54877W        W16243   9.732  37.035   1.270
54878W        W16244  17.197  21.046  10.939
54879W        W16245   8.718   1.917  13.492
54880W        W16246  44.764  17.703  14.452
54881W        W16247  36.969  26.021   1.726
54882W        W16248   0.261  30.936  13.956
54883W        W16249  42.439  20.219  11.371
54884W        W16250   7.226   0.905   1.212
54885W        W16251  13.769  20.032   2.310
54886W        W16252   2.888  28.519  12.449
54887W        W16253   3.748  20.160  11.873
54888W        W16254  26.600  10.760   1.345
54889W        W16255  30.496  27.088  14.871
54890W        W16256  27.014   9.816   0.384
54891W        W16257  18.157   3.742  13.408
54892W        W16258  42.879  25.540  12.496
54893W        W16259  38.448  37.040   2.835
54894W        W16260  43.388   3.246   1.866
54895W        W16261  23.521   4.414   2.768
54896W        W16262   0.982  26.697  11.480
54897W        W16263  30.442  11.786   3.780
54898W        W16264  22.093  29.426   4.762
54899W        W16265  40.453  17.641   0.927
54900W        W16266  37.935  35.928  11.438
54901W        W16267   6.850  42.904  10.078
54902W        W16268  30.536  32.591  10.518
54903W        W16269   5.743  17.591   1.796
54904W        W16270  14.208  18.226  12.518
54905W        W16271  15.110   9.796   0.865
54906W        W16272  11.275  44.456   4.180
54907W        W16273  19.204   1.771   1.425
54908W        W16274   4.378   2.296   0.258
54909W        W16275   8.816  11.622   0.950
54910W        W16276  43.448  26.540  14.382
54911W        W16277  28.434  41.946  12.449
54912W        W16278   8.225  12.190  13.415
54913W        W16279   1.938   0.753   2.277
54914W        W16280  23.636  38.527  14.808
54915W        W16281  42.895   1.375   4.276
54916W        W16282  41.905  14.792   0.446
54917W        W16283  30.512  17.668   1.444
54918W        W16284  32.136   1.251   1.370
54919W        W16285  35.969  34.883  12.837
54920W        W16286   4.756  21.673  10.497
54921W        W16287   4.709  34.046   4.168
54922W        W16288   9.842  44.495   1.870
54923W        W16289  21.202   1.332  10.539
54924W        W16290  19.624  40.504   3.763
54925W        W16291  29.921  37.050  14.950
54926W        W16292  28.990  40.411  12.504
54927W        W16293  18.233  29.522   4.154
54928W        W16294  24.490  25.522  14.942
54929W        W16295   8.280  21.028  12.018
54930W        W16296  30.086  37.033   3.679
54931W        W16297  43.327  10.862   1.731
54932W        W16298  15.245  23.655  11.471
54933W        W16299  15.220  43.863  12.519
54934W        W16300  43.923   3.897  13.491
54935W        W16301  25.557  37.545  10.557
54936W        W16302  18.156   2.416  11.869
54937W        W16303  33.389  38.543   1.866
54938W        W16304  21.559  22.576  14.419
54939W        W16305   4.351  42.849   0.854
54940W        W16306  29.949  38.389   0.818
54941W        W16307   6.807  10.276   4.624
54942W        W16308  14.637   4.307  12.985
54943W        W16309  26.562  31.924  10.605
54944W        W16310  25.612  30.104  10.921
54945W        W16311  35.006  32.064  12.858
54946W        W16312  12.758  43.427  11.925
54947W        W16313  43.828  24.022   1.280
54948W        W16314  29.973  40.345  13.861
54949W        W16315  34.995  35.011   0.825
54950W        W16316  24.193  29.925  11.377
54951W        W16317  32.910   5.735   2.343
54952W        W16318   7.397  29.563  12.093
54953W        W16319   2.360  22.233   4.828
54954W        W16320   5.332  30.104  11.961
54955W        W16321  39.466  22.031   0.315
54956W        W16322   9.312  35.060   0.855
54957W        W16323  31.934   6.321   0.796
54958W        W16324  11.666   0.962   2.257
54959W        W16325   6.230   7.864   2.367
54960W        W16326   1.373  17.110  11.117
54961W        W16327  20.566  44.363  13.353
54962W        W16328  16.186  44.498   3.199
54963W        W16329  41.848  26.548  12.008
54964W        W16330   1.823  43.780  12.904
54965W        W16331  11.823  36.430   0.937
54966W        W16332  13.182  38.945   1.712
54967W        W16333  44.885  20.111  13.419
54968W        W16334  20.222  23.022   2.419
54969W        W16335   5.263  10.342   1.902
54970W        W16336  14.249  38.008   4.192
54971W        W16337   7.742  12.634  12.546
54972W        W16338   7.811   2.933  13.924
54973W        W16339  14.689   1.348   3.695
54974W        W16340   3.830  28.437   0.761
54975W        W16341   7.898   3.434  13.489
54976W        W16342  40.981  29.918   1.926
54977W        W16343  26.172  26.090   0.360
54978W        W16344   4.416  30.612   1.773
54979W        W16345  18.688  14.290  14.430
54980W        W16346  42.854  30.495  12.890
54981W        W16347  31.584  18.665  11.472
54982W        W16348  29.946   7.276  10.508
54983W        W16349  38.463   2.781   3.270
54984W        W16350  26.580  28.577   0.917
54985W        W16351  28.597  15.237  13.976
54986W        W16352  37.886   2.295  13.906
54987W        W16353  11.802  17.102  10.064
54988W        W16354  34.560   9.789  10.497
54989W        W16355  26.653  19.560   0.835
54990W        W16356   5.928  41.955  12.874
54991W        W16357  25.964  14.330  11.878
54992W        W16358  37.002  33.932   3.733
54993W        W16359  30.625   0.449  11.123
54994W        W16360   2.792  18.789   4.299
54995W        W16361   6.364  15.117  11.937
54996W        W16362  18.191  28.587  11.538
54997W        W16363  43.347   0.965  11.447
54998W        W16364   4.240  37.834   0.915
54999W        W16365  25.112  34.557  10.564
55000W        W16366  20.596   5.195  10.623
55001W        W16367  19.709  24.043  10.920
55002W        W16368  41.852   6.905   1.230
55003W        W16369  24.669  19.554   4.136
55004W        W16370   0.476  39.531   0.813
55005W        W16371  28.111  44.341  12.030
55006W        W16372  32.938  35.509  14.934
55007W        W16373  44.331   0.456  12.468
55008W        W16374   8.222  36.489  12.498
55009W        W16375  44.333   6.886  11.974
55010W        W16376  19.280   0.770   0.880
55011W        W16377   8.274  40.881   0.851
55012W        W16378  44.433  39.956  10.984
55013W        W16379  38.339  18.635  11.440
55014W        W16380  43.849  10.697  13.437
55015W        W16381   6.908  15.660   1.873
55016W        W16382  38.919   3.364  14.780
55017W        W16383   4.258  29.546  11.964
55018W        W16384  35.533   5.293   3.180
55019W        W16385  11.794  42.874  10.644
55020W        W16386  10.666   4.328   2.791
55021W        W16387  20.599   8.801   3.665
55022W        W16388  12.641   8.229  12.420
55023W        W16389  17.559  25.520  12.947
55024W        W16390  34.545  28.571  13.376
55025W        W16391  33.497  19.134   0.933
55026W        W16392  38.891  14.784   1.382
55027W        W16393  27.091  34.522   0.323
55028W        W16394   8.191   9.829  13.321
55029W        W16395   2.465  24.205   3.797
55030W        W16396   3.725  41.441   2.181
55031W        W16397  35.010  30.006   3.794
55032W        W16398  39.409   6.788   0.766
55033W        W16399  26.115   2.932   1.400
55034W        W16400  30.960   9.234  11.603
55035W        W16401  15.156   1.949  14.925
55036W        W16402   1.734  36.537  14.919
55037W        W16403  43.820  10.271   4.299
55038W        W16404  17.787  21.145  14.300
55039W        W16405  21.736  24.092   1.747
55040W        W16406  27.478  43.819  11.016
55041W        W16407  39.974  33.452  14.313
55042W        W16408  41.861   1.471   4.818
55043W        W16409  25.084  43.965  12.403
55044W        W16410  27.569  21.085  14.963
55045W        W16411  21.624   1.771  12.352
55046W        W16412  41.786  18.743  12.577
55047W        W16413  32.454  14.666  11.044
55048W        W16414  37.549   8.887  13.993
55049W        W16415   7.313  22.635   3.851
55050W        W16416  25.169  22.244  13.923
55051W        W16417  11.712  40.475  11.124
55052W        W16418  14.330  40.407  13.803
55053W        W16419  19.265   6.255   4.696
55054W        W16420  36.845  34.611   3.222
55055W        W16421  31.603  25.653  14.357
55056W        W16422  31.619   4.926   2.214
55057W        W16423  16.748   3.228  10.599
55058W        W16424   6.355  10.346  13.842
55059W        W16425  25.616  31.446   0.474
55060W        W16426  26.616  41.386  11.094
55061W        W16427  17.687  17.582  13.341
55062W        W16428   8.257  17.246  12.394
55063W        W16429   2.857  31.041   5.597
55064W        W16430  19.189  12.615  12.492
55065W        W16431  42.515  40.393  11.934
55066W        W16432  11.803  12.231  14.496
55067W        W16433   7.895   1.380  14.335
55068W        W16434  30.107  41.974   3.693
55069W        W16435  32.402  33.440   3.755
55070W        W16436   8.747  36.469   4.314
55071W        W16437  17.771  32.397  14.921
55072W        W16438  38.559   1.740   1.791
55073W        W16439  42.468  29.456  14.424
55074W        W16440  31.536  23.697  10.037
55075W        W16441  36.357  20.207   0.367
55076W        W16442  20.727  36.024   0.373
55077W        W16443  17.121  35.941  12.540
55078W        W16444  22.042  39.038   1.304
55079W        W16445  11.711  20.126   0.405
55080W        W16446  25.481   7.750   0.293
55081W        W16447  12.204  23.552   2.250
55082W        W16448  17.797  16.275  10.447
55083W        W16449  27.671   0.339  13.487
55084W        W16450  31.018  25.186   4.348
55085W        W16451  42.931  43.007   3.243
55086W        W16452  28.536  17.696   0.288
55087W        W16453   1.475  34.958  13.040
55088W        W16454  26.652   8.843  12.037
55089W        W16455  41.945  23.015  11.965
55090W        W16456   9.235   2.937  12.975
55091W        W16457  43.440  31.152  10.985
55092W        W16458  29.148   3.942   2.210
55093W        W16459  14.783  11.186   3.272
55094W        W16460  28.474  22.618   3.676
55095W        W16461  22.206  25.582  10.448
55096W        W16462   6.347  16.275  14.859
55097W        W16463   9.314  19.740  14.784
55098W        W16464  16.790  17.570   9.997
55099W        W16465  27.142  19.716  11.915
55100W        W16466  35.376  44.936   3.196
55101W        W16467  20.637  22.156  14.412
55102W        W16468  28.017  13.281  11.120
55103W        W16469  12.310  27.165  12.462
55104W        W16470  27.629  17.239  11.920
55105W        W16471  40.379  42.830  11.537
55106W        W16472  27.584  44.898  14.846
55107W        W16473   1.835   0.974  10.600
55108W        W16474  30.063  25.509   4.669
55109W        W16475  37.362  24.715  12.083
55110W        W16476  27.061  14.796  14.856
55111W        W16477  17.183   4.700  10.533
55112W        W16478  41.401  32.010  10.425
55113W        W16479  29.522  37.871   1.729
55114W        W16480  33.450  37.576   0.896
55115W        W16481   5.301  10.830   3.300
55116W        W16482  31.513  37.019   1.249
55117W        W16483  29.976  35.899   1.882
55118W        W16484  10.844   7.399   3.726
55119W        W16485   0.867  11.301   3.146
55120W        W16486  21.250  42.855  12.548
55121W        W16487  25.126   5.247   4.724
55122W        W16488  10.704  16.308   4.676
55123W        W16489  20.101  41.404   1.377
55124W        W16490  35.945  13.644   1.427
55125W        W16491  37.880  12.825   4.602
55126W        W16492   1.891  31.012   0.348
55127W        W16493  11.862  25.579  11.960
55128W        W16494  39.954  27.046  14.922
55129W        W16495  19.201  31.645   0.294
55130W        W16496  14.645  29.030   1.422
55131W        W16497  34.883  42.959   0.821
55132W        W16498  34.481  27.102   1.728
55133W        W16499  11.153  42.983  10.994
55134W        W16500  36.034  31.069  14.502
55135W        W16501   7.845  41.444  13.514
55136W        W16502  31.049  21.175   4.134
55137W        W16503  28.140  14.325   2.223
55138W        W16504  31.502  15.654  13.402
55139W        W16505  25.519   4.362   2.694
55140W        W16506  34.464  35.997   2.282
55141W        W16507  33.453  31.132   3.868
55142W        W16508  26.093  44.887   2.384
55143W        W16509  15.272   3.403   4.328
55144W        W16510  27.991  29.136   1.417
55145W        W16511  28.978  17.105   2.232
55146W        W16512  35.875  37.055   0.280
55147W        W16513  11.331  10.138   4.309
55148W        W16514  36.032  37.571   3.157
55149W        W16515  14.106   4.908   1.898
55150W        W16516  36.470  27.580   0.899
55151W        W16517  37.344  39.883   5.169
55152W        W16518  30.971   5.816   9.942
55153W        W16519  30.501  17.790  12.959
55154W        W16520  43.352  39.508  11.913
55155W        W16521  39.900   7.384  12.408
55156W        W16522  23.509  13.621   4.834
55157W        W16523  11.774   3.895  11.595
55158W        W16524  16.668   9.703   3.309
55159W        W16525  40.825   7.286  11.012
55160W        W16526  34.952  28.446   3.271
55161W        W16527  42.938  43.942   4.714
55162W        W16528  25.055   2.871   1.347
55163W        W16529  31.905   1.481   2.719
55164W        W16530  36.848  33.486   1.246
55165W        W16531  39.553  13.349   1.386
55166W        W16532   9.303  16.599  13.998
55167W        W16533  33.403   9.229   3.858
55168W        W16534   5.726   6.792   3.840
55169W        W16535  21.073  22.654  13.327
55170W        W16536  10.246   6.225  10.914
55171W        W16537  35.379  19.623   0.884
55172W        W16538  25.664   0.867  10.436
55173W        W16539  39.424  30.122  10.904
55174W        W16540  36.503  36.544  13.429
55175W        W16541  13.262  17.081   1.328
55176W        W16542  19.676   8.245   1.216
55177W        W16543  15.604  32.526  10.434
55178W        W16544  31.153   0.438  11.612
55179W        W16545  28.987  33.564  12.093
55180W        W16546  14.641  25.133  14.480
55181W        W16547   4.223  30.470   4.785
55182W        W16548  31.538  28.164  13.850
55183W        W16549  40.378  32.409   1.366
55184W        W16550   2.360  10.298   9.941
55185W        W16551  14.241  34.108   0.950
55186W        W16552  12.666  38.483   2.663
55187W        W16553  31.646  37.000  11.878
55188W        W16554  13.647  38.554   3.220
55189W        W16555  16.628   4.284  13.928
55190W        W16556  30.055  30.061  12.051
55191W        W16557   1.951  34.501  13.876
55192W        W16558   0.321  28.470  12.357
55193W        W16559  43.290  13.269  12.905
55194W        W16560  37.892  23.589   3.652
55195W        W16561  28.651  37.874   4.349
55196W        W16562   1.421  19.752   4.612
55197W        W16563   8.244  27.108  14.763
55198W        W16564  31.966  42.336  12.846
55199W        W16565   2.331   8.195   3.169
55200W        W16566  29.027  21.707   1.349
55201W        W16567   2.791  44.998  13.470
55202W        W16568  29.136   4.812   3.378
55203W        W16569  38.344  15.691  13.413
55204W        W16570  14.818  28.165  14.471
55205W        W16571  23.176  38.328  10.906
55206W        W16572  24.529  37.969   4.213
55207W        W16573  26.480   6.395   0.772
55208W        W16574  20.590  41.028  14.338
55209W        W16575   2.816  15.745   3.148
55210W        W16576  26.956  18.631  11.997
55211W        W16577  24.512   9.806  10.549
55212W        W16578  33.450  28.005  12.389
55213W        W16579   2.324  11.708  14.287
55214W        W16580  15.618   3.775  11.481
55215W        W16581   0.882  40.410   4.257
55216W        W16582  21.551   6.680   2.208
55217W        W16583  28.681  28.126  12.346
55218W        W16584   8.779  28.502  13.464
55219W        W16585  24.565  36.388  14.003
55220W        W16586  14.830   9.828   1.411
55221W        W16587  25.102  22.209   4.133
55222W        W16588  35.059   2.854  14.988
55223W        W16589   6.836  14.122   2.689
55224W        W16590  16.236  13.696   3.832
55225W        W16591   9.821  36.370  11.482
55226W        W16592  33.515  13.788   4.160
55227W        W16593   2.872   4.747  11.125
55228W        W16594  16.307   0.255  11.011
55229W        W16595  24.693  10.277   1.803
55230W        W16596  40.400  41.329   1.728
55231W        W16597  24.009  38.016  13.833
55232W        W16598  23.675  44.812  13.826
55233W        W16599  36.016  32.071   2.282
55234W        W16600   6.733  13.667   2.869
55235W        W16601  36.973  29.599  11.478
55236W        W16602  14.747  13.841  13.373
55237W        W16603  33.405  16.790  12.475
55238W        W16604  28.075  14.823   2.301
55239W        W16605   8.311  22.625  11.526
55240W        W16606  34.611  31.106  14.985
55241W        W16607  14.793  24.615   0.475
55242W        W16608   2.294  22.722  12.053
55243W        W16609  16.166  12.805  10.422
55244W        W16610  38.828  22.172   0.831
55245W        W16611   6.689  43.956   2.354
55246W        W16612  18.209  27.088  12.076
55247W        W16613   5.837  18.064   4.218
55248W        W16614   3.945  27.164   4.616
55249W        W16615  36.846   3.247   2.259
55250W        W16616   9.683  41.812   2.284
55251W        W16617  39.545   7.290   2.663
55252W        W16618  44.484  38.456  11.047
55253W        W16619  24.625  12.173   3.235
55254W        W16620  35.368  24.550  12.973
55255W        W16621   9.723  36.903   0.282
55256W        W16622  34.082   1.431  13.410
55257W        W16623   1.334   6.806   3.751
55258W        W16624  42.902  24.548   3.350
55259W        W16625  36.367  27.138   4.704
55260W        W16626   5.750  40.890   3.349
55261W        W16627  20.582  19.114   0.817
55262W        W16628   0.943  20.656   4.296
55263W        W16629  26.633  17.276   2.741
55264W        W16630  25.055   3.236   0.352
55265W        W16631  24.499  38.332   4.697
55266W        W16632  43.942  12.728   2.395
55267W        W16633  13.120  29.478   4.741
55268W        W16634  34.465   0.751  14.923
55269W        W16635  22.609  23.691  13.910
55270W        W16636   7.386  22.693  11.603
55271W        W16637  12.649  33.437   0.934
55272W        W16638  35.033  36.497   3.173
55273W        W16639  21.682  22.069   3.639
55274W        W16640  33.981  23.219  14.343
55275W        W16641   2.723  26.154  14.451
55276W        W16642  36.937  10.206  14.938
55277W        W16643  42.312   6.311  13.938
55278W        W16644  11.349  11.156  10.546
55279W        W16645   5.229  16.761  14.399
55280W        W16646  16.271  40.466   4.242
55281W        W16647  13.702  26.204   2.330
55282W        W16648  30.473  24.606   1.748
55283W        W16649  17.148  28.578  11.859
55284W        W16650   0.834  14.622   3.846
55285W        W16651  32.103  41.501   3.213
55286W        W16652  40.990  36.935  14.437
55287W        W16653  27.003  25.701  13.881
55288W        W16654  26.182  33.487  14.479
55289W        W16655  25.696  11.811  13.436
55290W        W16656  30.984   7.200   2.747
55291W        W16657  37.381  38.410   2.190
55292W        W16658  40.951   0.840  10.618
55293W        W16659  31.557  40.869   2.857
55294W        W16660   0.455  13.836   2.319
55295W        W16661  24.638  18.218   1.430
55296W        W16662   8.177   7.261   3.681
55297W        W16663   3.801   7.770  13.329
55298W        W16664  35.518  36.040   0.918
55299W        W16665  36.568  15.709  11.124
55300W        W16666  12.807  18.755   2.887
55301W        W16667  22.064  35.489  12.015
55302W        W16668  33.034  33.520   3.226
55303W        W16669  28.944   0.844  12.442
55304W        W16670  35.357  19.199  12.066
55305W        W16671  38.383  44.343   3.700
55306W        W16672  23.110  12.839  13.504
55307W        W16673  13.281  36.037   2.381
55308W        W16674  38.416  13.693   4.125
55309W        W16675  42.291  27.609  11.045
55310W        W16676  20.732  34.503   0.779
55311W        W16677  25.580  33.551   4.663
55312W        W16678   6.204   4.935  14.881
55313W        W16679  27.983   3.742  11.478
55314W        W16680  17.089  38.526   3.689
55315W        W16681  16.273  43.876  14.765
55316W        W16682   2.251  11.816  10.888
55317W        W16683  18.667  25.121  11.554
55318W        W16684  10.680   1.733  14.979
55319W        W16685  16.786  26.126  13.384
55320W        W16686  38.338  25.615   1.437
55321W        W16687  43.802  29.047   1.279
55322W        W16688  35.563  14.266  13.323
55323W        W16689   5.897  30.089  12.876
55324W        W16690  22.159  44.772   4.647
55325W        W16691  27.585  18.549   4.235
55326W        W16692  36.578   9.869  10.600
55327W        W16693  37.043   4.250   4.633
55328W        W16694   9.882   3.350   0.755
55329W        W16695  40.314  31.498  12.879
55330W        W16696  35.924  22.107   0.459
55331W        W16697  28.486  23.125  14.938
55332W        W16698  31.006  16.621   3.781
55333W        W16699  42.804  11.304   2.362
55334W        W16700   5.404  17.802  12.462
55335W        W16701   1.803  39.954  14.948
55336W        W16702  37.830  37.943   3.679
55337W        W16703  42.509   9.723  12.962
55338W        W16704  36.036  26.668   1.380
55339W        W16705  32.512  43.461  13.839
55340W        W16706  25.054  29.044   1.399
55341W        W16707  40.465  21.699  13.997
55342W        W16708  11.667   8.661  11.891
55343W        W16709  35.878  29.637   1.282
55344W        W16710  39.327  10.381   1.904
55345W        W16711  18.575   3.346  12.423
55346W        W16712  10.251  27.541   0.278
55347W        W16713  35.440  21.114   2.714
55348W        W16714   4.907  38.434  14.438
55349W        W16715   4.831  22.085   2.733
55350W        W16716  40.871  10.854  12.023
55351W        W16717  28.578   4.338   1.788
55352W        W16718  29.987  21.137  14.485
55353W        W16719  30.453   7.885   2.410
55354W        W16720  28.544  26.115  14.955
55355W        W16721   3.420  18.578   4.130
55356W        W16722   6.273  20.178   2.295
55357W        W16723  22.661  29.168   2.668
55358W        W16724  10.168  18.680   3.861
55359W        W16725   4.913  39.474   3.166
55360W        W16726  22.088  21.250   0.964
55361W        W16727   2.751  32.089  12.945
55362W        W16728  34.502  10.727  13.841
55363W        W16729  40.406  22.716  14.401
55364W        W16730  29.512  29.639  12.902
55365W        W16731  12.708  37.070  10.530
55366W        W16732  39.442   7.173   2.303
55367W        W16733  44.870  32.932   4.205
55368W        W16734  25.070  27.459   2.349
55369W        W16735  13.137  24.092   2.735
55370W        W16736  14.247  36.530  11.983
55371W        W16737   0.439  41.345   1.836
55372W        W16738  24.171  11.759  13.889
55373W        W16739  36.960  38.331   2.322
55374W        W16740  29.989  21.696  11.065
55375W        W16741  16.589  41.462  10.601
55376W        W16742  21.210  13.649  10.930
55377W        W16743  24.647   1.826   4.769
55378W        W16744  41.427  37.554  14.394
55379W        W16745  34.024  20.566  12.085
55380W        W16746  13.217   0.923   2.710
55381W        W16747  43.299  37.503   0.244
55382W        W16748  24.713  10.268  13.311
55383W        W16749  33.512  25.092   3.760
55384W        W16750  18.576  40.543  12.498
55385W        W16751  17.614  35.506  11.004
55386W        W16752  13.176  12.147  12.545
55387W        W16753  38.915  16.726  14.836
55388W        W16754  42.980  41.930   2.879
55389W        W16755  40.542  44.924  12.414
55390W        W16756  16.153  26.010   1.254
55391W        W16757  20.241  11.215   2.708
55392W        W16758  16.213  37.361   2.368
55393W        W16759  11.215  29.925   2.894
55394W        W16760  40.385   3.336   5.185
55395W        W16761  21.601  24.224   4.724
55396W        W16762  29.635  34.023   1.223
55397W        W16763   1.977  38.047  12.488
55398W        W16764   7.249  37.987   2.189
55399W        W16765  33.581  24.201  12.024
55400W        W16766   2.316  36.570   1.410
55401W        W16767  31.538  41.975  12.040
55402W        W16768  10.263  24.602   4.701
55403W        W16769  31.963  37.358  11.016
55404W        W16770  28.665  21.184   1.871
55405W        W16771  22.523   0.457  11.077
55406W        W16772   3.337  14.146   1.214
55407W        W16773   1.357   6.291  13.533
55408W        W16774  42.980  38.855  13.372
55409W        W16775  27.566  44.336  14.505
55410W        W16776  43.975  38.847  12.082
55411W        W16777  38.822  38.519   3.827
55412W        W16778  15.223  43.773  12.982
55413W        W16779  43.843  27.493  12.001
55414W        W16780  20.034  10.328  12.089
55415W        W16781  31.963  40.910  11.103
55416W        W16782  32.118  19.258   2.333
55417W        W16783  35.103   9.665   1.327
55418W        W16784  36.496  26.529   4.118
55419W        W16785   5.348   4.832  10.889
55420W        W16786   7.759  27.031   4.249
55421W        W16787  10.773  29.488   2.353
55422W        W16788  42.962  23.085   4.742
55423W        W16789  31.545  42.997   3.668
55424W        W16790  42.474  33.424  11.973
55425W        W16791  40.014  36.527   3.810
55426W        W16792  44.797  38.508  13.463
55427W        W16793  32.423  34.880  11.607
55428W        W16794  42.404  13.747  10.424
55429W        W16795  21.223  39.429   0.363
55430W        W16796  37.544  32.948  11.398
55431W        W16797  12.809  27.582  14.479
55432W        W16798  14.748  23.173   4.656
55433W        W16799  18.583  19.673   4.768
55434W        W16800  10.263  31.901   0.303
55435W        W16801   8.178  35.428  14.323
55436W        W16802  11.231  11.194   0.287
55437W        W16803  41.830   3.249   0.380
55438W        W16804  15.091  21.744  10.903
55439W        W16805  38.470  23.521  13.026
55440W        W16806  18.162  25.111   4.286
55441W        W16807   4.826  32.412   0.905
55442W        W16808   2.315  27.599   0.817
55443W        W16809  11.723  17.589   0.834
55444W        W16810   3.312  23.618   4.668
55445W        W16811  44.772  36.593   0.441
55446W        W16812  28.608  24.641   3.858
55447W        W16813  27.549   6.694   0.955
55448W        W16814  28.166  33.536  12.437
55449W        W16815   0.377  19.256  11.017
55450W        W16816  44.777  27.513  10.424
55451W        W16817  41.455  21.108   4.774
55452W        W16818  24.639   2.229  13.054
55453W        W16819   3.756  33.122   3.289
55454W        W16820  28.584  10.633  10.642
55455W        W16821  24.057  12.291   3.845
55456W        W16822  16.309   0.281  10.622
55457W        W16823  25.467  16.110   4.616
55458W        W16824  44.451  37.962  14.860
55459W        W16825  28.436  15.612   3.346
55460W        W16826  17.233  39.441  12.837
55461W        W16827  11.796  33.595   2.775
55462W        W16828   2.878  19.756   0.386
55463W        W16829  25.989  23.574  12.404
55464W        W16830   5.259  24.656   4.293
55465W        W16831  22.544  10.773   4.179
55466W        W16832  20.185  42.945  13.870
55467W        W16833  44.306   5.768   4.641
55468W        W16834  20.617  30.530  11.570
55469W        W16835  22.747   5.233  13.461
55470W        W16836  15.627  20.063   3.807
55471W        W16837   0.834   6.353   1.232
55472W        W16838   3.391  30.547   1.284
55473W        W16839  21.578  15.787   0.853
55474W        W16840   0.896  11.661  10.462
55475W        W16841  18.632  21.564   0.438
55476W        W16842  33.604  41.832  14.505
55477W        W16843  30.928  19.142   9.467
55478W        W16844  38.372  39.544   4.255
55479W        W16845  32.066  35.408  14.012
55480W        W16846  10.877  40.847   1.353
55481W        W16847  30.933  37.414  12.579
55482W        W16848  38.053  10.348  10.095
55483W        W16849   9.210  32.578  12.453
55484W        W16850  13.350  30.103   1.888
55485W        W16851  41.382  38.415  10.643
55486W        W16852  27.087  25.535   0.749
55487W        W16853  40.960  32.011   0.419
55488W        W16854   2.838   7.755   0.360
55489W        W16855  42.860  25.708   5.096
55490W        W16856  36.579   3.808  14.480
55491W        W16857  36.382  39.345   3.271
55492W        W16858   1.849  28.442  14.985
55493W        W16859  38.920  28.091   2.898
55494W        W16860  20.526   8.785  14.788
55495W        W16861  15.587  13.175   1.325
55496W        W16862  29.668   1.427   1.706
55497W        W16863  25.553  35.988   0.340
55498W        W16864  41.800  30.147   4.716
55499W        W16865   5.762  15.688   4.307
55500W        W16866  42.837  13.838  14.392
55501W        W16867   3.459  11.723  14.883
55502W        W16868  28.186  33.401   2.838
55503W        W16869  42.813  36.898   3.371
55504W        W16870  13.264   3.743  14.923
55505W        W16871  26.649   7.793   5.306
55506W        W16872  38.402  36.954  10.992
55507W        W16873  29.002  17.097  13.902
55508W        W16874  12.172  26.054  11.377
55509W        W16875   0.310  38.948  10.970
55510W        W16876  25.625  22.688  13.018
55511W        W16877  11.210  19.050   4.646
55512W        W16878   0.912  17.175  10.976
55513W        W16879  23.658   7.824   3.157
55514W        W16880   3.774  22.654  10.516
55515W        W16881  29.635  18.675   4.761
55516W        W16882   7.197   1.271   2.329
55517W        W16883  40.431   2.309   1.440
55518W        W16884  41.538  14.692  12.932
55519W        W16885  18.174  31.402   1.377
55520W        W16886   2.838  23.088   0.403
55521W        W16887  25.693   0.349  14.003
55522W        W16888  29.481   9.209  14.775
55523W        W16889  21.568  19.111  10.949
55524W        W16890  24.015  36.951   3.750
55525W        W16891  34.455   6.851  11.541
55526W        W16892  26.502   6.400  13.044
55527W        W16893  18.654  39.478   2.309
55528W        W16894  13.797  23.508  13.378
55529W        W16895  13.673  40.543   2.330
55530W        W16896  42.516   2.285  12.846
55531W        W16897  12.806  20.204   1.831
55532W        W16898  31.060  28.013   1.863
55533W        W16899  14.265  34.911   0.449
55534W        W16900  35.540   1.284   3.205
55535W        W16901  27.530  17.187  13.039
55536W        W16902  39.484  41.960  11.516
55537W        W16903   5.250  31.608  14.004
55538W        W16904   8.688  17.637   3.786
55539W        W16905  42.953  10.322  13.376
55540W        W16906  20.686   2.271   0.911
55541W        W16907  39.878   0.972   0.949
55542W        W16908  21.593  27.945  11.858
55543W        W16909  14.652  29.925  11.091
55544W        W16910  14.759   7.286  12.360
55545W        W16911  24.491  26.026   3.242
55546W        W16912  11.785  36.549   2.676
55547W        W16913  19.780  17.570  14.028
55548W        W16914   7.871  27.133  12.578
55549W        W16915   6.791   7.346  11.875
55550W        W16916  22.525  24.712  13.397
55551W        W16917   8.823  17.258  12.467
55552W        W16918  33.495  30.526   1.868
55553W        W16919  11.335   7.353  11.070
55554W        W16920  40.803   7.181  12.989
55555W        W16921  21.700  25.035   4.315
55556W        W16922   3.340  43.390   2.404
55557W        W16923  34.411   4.942   2.242
55558W        W16924  34.427  37.543  11.938
55559W        W16925  34.518  39.437   4.608
55560W        W16926  42.865  17.685   3.313
55561W        W16927  41.850  17.126  12.077
55562W        W16928   5.887  30.126   3.255
55563W        W16929  34.979  21.081   5.111
55564W        W16930   3.943  16.694  14.871
55565W        W16931  13.313  26.085  12.015
55566W        W16932  13.310  35.003   3.325
55567W        W16933  36.504  24.655  11.917
55568W        W16934  34.991  35.392  14.816
55569W        W16935  40.434  40.393   1.262
55570W        W16936  13.236   2.344   0.852
55571W        W16937  25.538   5.435  14.776
55572W        W16938   1.876  19.156   2.251
55573W        W16939   2.959  42.303   2.727
55574W        W16940  41.415  41.316  13.965
55575W        W16941   8.334  28.182   2.901
55576W        W16942   0.747  19.042  11.541
55577W        W16943  23.136   1.344  13.879
55578W        W16944   8.847  35.871   4.133
55579W        W16945  44.799  21.062   2.814
55580W        W16946   9.776  11.327  14.421
55581W        W16947  38.976  26.147   3.150
55582W        W16948  29.529  10.787  12.542
55583W        W16949  10.193  16.805  12.074
55584W        W16950  27.539  32.567  10.988
55585W        W16951  13.642  22.050  10.410
55586W        W16952  26.571  23.223   0.821
55587W        W16953  38.403   1.845  13.530
55588W        W16954  38.074  39.455  14.401
55589W        W16955  24.606  27.083  12.905
55590W        W16956  28.104   7.176   5.305
55591W        W16957  10.645  36.063   1.373
55592W        W16958  25.637  14.102  12.025
55593W        W16959   2.244  26.562   1.714
55594W        W16960  22.543  36.390   0.350
55595W        W16961  28.558  37.906  10.894
55596W        W16962  21.256  33.429  12.923
55597W        W16963  14.655  27.033  11.433
55598W        W16964  22.167  12.819   1.892
55599W        W16965  23.165   9.317  13.928
55600W        W16966   4.832  11.848   3.196
55601W        W16967  41.532  12.715   0.947
55602W        W16968  22.171   5.228  14.402
55603W        W16969   5.866   9.699   1.239
55604W        W16970  36.075  34.373  13.465
55605W        W16971  15.323  24.083  14.466
55606W        W16972  13.272   4.738  12.825
55607W        W16973  33.976   0.343  14.959
55608W        W16974  10.654  39.536  14.765
55609W        W16975  22.206  32.525   9.609
55610W        W16976  17.686  21.106  14.917
55611W        W16977  31.113  15.581  11.381
55612W        W16978  17.278  18.254  13.992
55613W        W16979  44.963  37.854  14.799
55614W        W16980  12.128  11.653  10.420
55615W        W16981  43.944   4.228  10.501
55616W        W16982  40.443  15.262   1.801
55617W        W16983  26.058   0.798  13.391
55618W        W16984  24.074  21.594   3.326
55619W        W16985  37.975  30.558  11.447
55620W        W16986   7.753  41.445  12.482
55621W        W16987  41.998  42.876   0.405
55622W        W16988   5.383   7.172   2.261
55623W        W16989  30.967   9.298  13.999
55624W        W16990  10.695  29.052   2.775
55625W        W16991  30.974  23.576  14.290
55626W        W16992  38.838   3.890   0.283
55627W        W16993  22.691  17.306  10.549
55628W        W16994  44.976  42.482   0.869
55629W        W16995  44.379  19.648  13.342
55630W        W16996  44.376  16.085  12.829
55631W        W16997  34.872  10.376   4.148
55632W        W16998   5.714  30.484  12.875
55633W        W16999   7.799  29.082  10.630
55634W        W17000   9.237  38.903  10.525
55635W        W17001   8.803   6.686  11.465
55636W        W17002  29.595   6.921   3.716
55637W        W17003  15.113  40.816  12.885
55638W        W17004  36.366  39.044  12.445
55639W        W17005  17.572  21.115   4.828
55640W        W17006   8.805   0.326   2.854
55641W        W17007  19.745  32.533   4.623
55642W        W17008   2.724  33.123   1.210
55643W        W17009   1.929   7.307   4.150
55644W        W17010  43.495   6.187   3.749
55645W        W17011  36.041  13.173  14.017
55646W        W17012   4.753   5.715  10.500
55647W        W17013  20.570   2.439  13.311
55648W        W17014  43.274  44.282  10.160
55649W        W17015  26.065  12.253  14.437
55650W        W17016  28.657  16.645  10.419
55651W        W17017  11.702   0.315  12.573
55652W        W17018   1.266  32.404  13.843
55653W        W17019  44.300  29.133  12.049
55654W        W17020  24.051  29.578  14.280
55655W        W17021  15.609  34.941  14.815
55656W        W17022  29.088  42.805  12.476
55657W        W17023  42.460  25.651  12.365
55658W        W17024  24.979  31.136   5.767
55659W        W17025  36.935  13.723   3.345
55660W        W17026  17.072  31.949   1.368
55661W        W17027  32.981  44.981   2.824
55662W        W17028   8.767  25.625   0.290
55663W        W17029  32.952  23.556   3.196
55664W        W17030  42.377  37.422   2.887
55665W        W17031   0.779  43.795  10.932
55666W        W17032  38.879  33.390  13.448
55667W        W17033  32.450  30.523  10.907
55668W        W17034  14.145   4.711  14.496
55669W        W17035  35.384   9.205   4.157
55670W        W17036  35.442  21.619  13.976
55671W        W17037   2.780  20.573  11.879
55672W        W17038  10.723  32.974  11.467
55673W        W17039  41.846  15.115   0.932
55674W        W17040  41.425   3.315  10.465
55675W        W17041  22.736  27.477  12.066
55676W        W17042  16.082  12.328  12.531
55677W        W17043  39.888  39.362  14.338
55678W        W17044  41.501   0.352   0.761
55679W        W17045  22.032  27.954   4.160
55680W        W17046   7.218   8.786   3.199
55681W        W17047   2.842  29.606   5.152
55682W        W17048  34.075   1.288   0.834
55683W        W17049  32.611  41.484   1.345
55684W        W17050  14.218   4.321   9.975
55685W        W17051  15.764  35.554   4.148
55686W        W17052  36.848  28.520   1.826
55687W        W17053   8.282  24.711  10.569
55688W        W17054  10.824   9.240   0.809
55689W        W17055  33.496   5.923  11.484
55690W        W17056  18.247   6.919  11.567
55691W        W17057  28.085  24.988  11.983
55692W        W17058  14.760  24.187  12.844
55693W        W17059   6.851  13.629  10.513
55694W        W17060  18.770   6.855  13.474
55695W        W17061  12.264  24.709  12.934
55696W        W17062  41.454   1.852  10.586
55697W        W17063  21.153  18.112   2.718
55698W        W17064  43.466  15.665  14.800
55699W        W17065  10.666  16.702  10.612
55700W        W17066   6.417  38.336   3.679
55701W        W17067   0.844  33.954   3.219
55702W        W17068   7.713  11.335  10.002
55703W        W17069  11.718   9.648   9.935
55704W        W17070  12.662  13.239  12.922
55705W        W17071  32.440  37.915  11.050
55706W        W17072  34.889  26.528  11.459
55707W        W17073   2.431  44.371   1.698
55708W        W17074  44.271  40.995   3.821
55709W        W17075  44.448  31.947   1.223
55710W        W17076  39.040   2.432   2.663
55711W        W17077  26.192  44.261   4.148
55712W        W17078   5.867  26.536  11.081
55713W        W17079  27.174  40.907   2.783
55714W        W17080  13.751  12.163   4.237
55715W        W17081  37.425  19.774  12.477
55716W        W17082   7.314  26.108  11.856
55717W        W17083  16.620  27.463   3.710
55718W        W17084   9.790  17.623  12.998
55719W        W17085  16.674  25.623  10.627
55720W        W17086   1.775  18.286   3.751
55721W        W17087  35.473  31.507   0.282
55722W        W17088  29.164  21.225   3.159
55723W        W17089  43.012   5.696   2.263
55724W        W17090   2.421   6.918   1.929
55725W        W17091  35.494  32.100   4.774
55726W        W17092  12.302  23.548  14.433
55727W        W17093   5.791  21.723  14.365
55728W        W17094  36.915  24.072   0.250
55729W        W17095  40.938  26.082   1.346
55730W        W17096   4.235   1.926  14.813
55731W        W17097  25.588   6.796   3.776
55732W        W17098  14.221  43.994  10.481
55733W        W17099   5.878  23.104   4.755
55734W        W17100  17.561  28.666  14.964
55735W        W17101  36.887  37.948  12.518
55736W        W17102  23.990  17.756   1.923
55737W        W17103  44.398  35.488   3.792
55738W        W17104   5.262  28.936  11.074
55739W        W17105  17.785  24.647  13.989
55740W        W17106  21.107   4.247   3.355
55741W        W17107   0.933   4.937  12.952
55742W        W17108  40.380  33.400   4.696
55743W        W17109   3.726   3.376  13.046
55744W        W17110  27.113  43.901  12.503
55745W        W17111  13.676  44.837   2.285
55746W        W17112   9.822  42.889  11.946
55747W        W17113  41.506   4.793   3.286
55748W        W17114  44.369  11.288   9.997
55749W        W17115  31.403  28.624  13.906
55750W        W17116  10.818  15.667  12.455
55751W        W17117  37.934  34.395  13.864
55752W        W17118  16.618  32.536  13.906
55753W        W17119  16.622  39.854   0.832
55754W        W17120  43.875  35.427   1.444
55755W        W17121  39.054   2.923   2.402
55756W        W17122  21.194   1.447  11.963
55757W        W17123   5.417  28.993  14.801
55758W        W17124  21.684  44.961   4.708
55759W        W17125  24.524  36.496   4.305
55760W        W17126  29.600  13.132   4.742
55761W        W17127   9.336   6.245   0.342
55762W        W17128  33.422  36.502   5.191
55763W        W17129  27.459  18.611  14.761
55764W        W17130  14.751  38.825  12.410
55765W        W17131   3.422  42.817   1.430
55766W        W17132   0.764  22.522   4.597
55767W        W17133  18.166   5.374   2.409
55768W        W17134   4.207  13.158   3.317
55769W        W17135  37.997   4.849  11.949
55770W        W17136  36.994  18.214  11.589
55771W        W17137  34.113  33.087  12.491
55772W        W17138  38.943  26.692  14.888
55773W        W17139  44.921  29.979   2.283
55774W        W17140  20.668   3.830  13.037
55775W        W17141  20.254  28.960   0.364
55776W        W17142  14.165  35.495  10.494
55777W        W17143  23.662  14.149   4.651
55778W        W17144  10.205  29.933   2.347
55779W        W17145  19.564  39.363  11.608
55780W        W17146  30.050  12.242  10.471
55781W        W17147  27.641  20.737   3.207
55782W        W17148  30.617  39.993   1.765
55783W        W17149  10.177  42.466   3.212
55784W        W17150  28.464  21.599   1.342
55785W        W17151  19.641  36.063   1.373
55786W        W17152  10.657  24.087  12.561
55787W        W17153  31.486   0.765  12.095
55788W        W17154  44.858  29.169   2.257
55789W        W17155  14.791  34.096   0.939
55790W        W17156   4.707   2.447  11.041
55791W        W17157  32.952  25.712  10.638
55792W        W17158  38.484  34.115   1.333
55793W        W17159  17.620  34.509  12.530
55794W        W17160   7.684  17.071  14.477
55795W        W17161  30.509  33.084   1.328
55796W        W17162  31.519  41.914   0.875
55797W        W17163  32.979   8.696  12.093
55798W        W17164  33.042  40.383   0.298
55799W        W17165  12.724  14.321   9.491
55800W        W17166  27.044  25.694  12.415
55801W        W17167  24.556  24.490   1.782
55802W        W17168  23.156  26.163  14.802
55803W        W17169  17.112  34.965   1.743
55804W        W17170  43.514  22.516   1.300
55805W        W17171  22.571  38.342  12.477
55806W        W17172  16.665  29.938  11.077
55807W        W17173  25.194  14.297   3.764
55808W        W17174  11.757  42.878  11.907
55809W        W17175  33.511  29.135   2.793
55810W        W17176  40.333  36.992   3.199
55811W        W17177  26.602  26.133  14.839
55812W        W17178  22.098  44.771  11.445
55813W        W17179  18.279  13.844  14.424
55814W        W17180  12.243  27.008   0.322
55815W        W17181  38.973  30.432   0.873
55816W        W17182  10.342   8.279  14.889
55817W        W17183  30.123   1.284  10.435
55818W        W17184  36.888  30.107  12.984
55819W        W17185   2.310  26.113  14.319
55820W        W17186   7.244  32.442  14.773
55821W        W17187   5.314  20.544  14.932
55822W        W17188  28.090  27.063  12.853
55823W        W17189  17.224  12.796   3.295
55824W        W17190  20.040  14.773  14.978
55825W        W17191   1.918  29.554   4.688
55826W        W17192  18.586  19.190   1.890
55827W        W17193  15.752  31.443  13.504
55828W        W17194  31.922  35.441  12.498
55829W        W17195  42.776  41.992  14.814
55830W        W17196  19.256  12.754   3.733
55831W        W17197  35.870  33.557   3.844
55832W        W17198   7.791  32.127  10.946
55833W        W17199  37.858  21.602   3.314
55834W        W17200  28.033  44.826  12.062
55835W        W17201  35.890  33.004   1.701
55836W        W17202  23.176  24.606  11.128
55837W        W17203  12.340  40.354   1.749
55838W        W17204  15.814  10.801   3.348
55839W        W17205  39.996  38.984   0.925
55840W        W17206  12.847  34.080   4.656
55841W        W17207  17.228  11.747   3.165
55842W        W17208  17.564  11.364  12.960
55843W        W17209  27.569   5.783  13.853
55844W        W17210  16.685  17.166  13.328
55845W        W17211  16.272  16.683  12.995
55846W        W17212  34.525  22.066   0.792
55847W        W17213  42.891  15.132   1.697
55848W        W17214  13.816  12.652  11.998
55849W        W17215  28.482   7.352  12.437
55850W        W17216   4.927  18.220   0.778
55851W        W17217  16.642   4.806   0.401
55852W        W17218  38.501  34.597   3.829
55853W        W17219   8.202  38.050  11.058
55854W        W17220  43.003   1.330   2.364
55855W        W17221   5.222  13.224   2.402
55856W        W17222  34.940  25.699   2.326
55857W        W17223  41.022  20.697   3.820
55858W        W17224   6.700  10.743  14.323
55859W        W17225  30.650   1.353   4.690
55860W        W17226  13.252  19.229  14.910
55861W        W17227  32.966  19.616   4.748
55862W        W17228  23.153   3.789   2.721
55863W        W17229  40.919  32.557  10.536
55864W        W17230   1.437   3.772   3.861
55865W        W17231   7.718  18.109  11.998
55866W        W17232  40.983   9.294   4.629
55867W        W17233  16.294  42.786  12.495
55868W        W17234  13.743   2.757  14.288
55869W        W17235  12.303  26.663  11.534
55870W        W17236  37.464   5.810  13.870
55871W        W17237  16.570  12.760  13.448
55872W        W17238   7.690  13.172  11.530
55873W        W17239  21.731   1.451   1.279
55874W        W17240  32.035  18.699  12.375
55875W        W17241  13.149  17.767  11.020
55876W        W17242  29.124  41.868  11.572
55877W        W17243   7.711   2.811   3.798
55878W        W17244  38.830   6.395  13.990
55879W        W17245  35.001  23.544   4.174
55880W        W17246  42.787  14.769  14.949
55881W        W17247  19.582  36.989  13.341
55882W        W17248  20.596  40.387   3.823
55883W        W17249  33.049  22.050   1.449
55884W        W17250  18.620  11.255   2.757
55885W        W17251   6.728  32.968  10.516
55886W        W17252  38.877  38.571  12.399
55887W        W17253  22.583  24.506   0.811
55888W        W17254   9.671  26.115   2.225
55889W        W17255   3.786  34.912  13.392
55890W        W17256   0.933   6.918  13.042
55891W        W17257  19.115  27.019  13.982
55892W        W17258  34.604  12.304  12.489
55893W        W17259  21.683  38.887   5.305
55894W        W17260   9.388   1.775  11.547
55895W        W17261  37.480  26.200   3.671
55896W        W17262  12.729  16.139   0.731
55897W        W17263  11.356   6.753   0.777
55898W        W17264  10.864  17.197   9.945
55899W        W17265  39.452  20.641   2.811
55900W        W17266   4.383  44.779   2.360
55901W        W17267  22.045   8.214   3.766
55902W        W17268  37.353  34.904  10.548
55903W        W17269  36.509  31.928   2.214
55904W        W17270  29.993  26.569  13.064
55905W        W17271   0.316  39.871   0.829
55906W        W17272  34.495  26.049  13.915
55907W        W17273  14.201  11.852   2.886
55908W        W17274  14.156  42.490  12.020
55909W        W17275   3.296  30.026  14.301
55910W        W17276   6.818  34.886  12.553
55911W        W17277  44.369  42.440   0.755
55912W        W17278  28.566   3.903   4.304
55913W        W17279  29.642  29.541  14.500
55914W        W17280  33.920  39.055  14.032
55915W        W17281   3.947  27.049   2.720
55916W        W17282  12.142  33.520  13.044
55917W        W17283  38.055  30.996   0.445
55918W        W17284  23.675  18.676  11.055
55919W        W17285  24.545  39.066   2.393
55920W        W17286   1.799   9.668  13.535
55921W        W17287  41.322  22.690   1.330
55922W        W17288   9.748  29.619   1.790
55923W        W17289  44.389  18.095   9.963
55924W        W17290   1.315   7.782   1.924
55925W        W17291  44.754  15.231  13.007
55926W        W17292  10.858  20.150  11.400
55927W        W17293  25.096  32.890   1.720
55928W        W17294  23.179  26.994  14.479
55929W        W17295  24.016   7.236  14.999
55930W        W17296   4.719  19.576   1.705
55931W        W17297  12.243  32.029   2.849
55932W        W17298  42.385  22.601   4.694
55933W        W17299  11.634  30.031  13.453
55934W        W17300  15.753  16.716  13.515
55935W        W17301  14.220  28.984  13.319
55936W        W17302  41.502   8.716  10.545
55937W        W17303   3.877  23.131  12.903
55938W        W17304  31.982  34.418   0.450
55939W        W17305   8.719   0.778   4.187
55940W        W17306   0.780  31.574  12.881
55941W        W17307  15.581   9.190  13.400
55942W        W17308  29.607  11.179   0.945
55943W        W17309  22.626  14.249   5.279
55944W        W17310  14.232  22.085  13.542
55945W        W17311   9.830   9.829   4.789
55946W        W17312   4.424  25.651  13.538
55947W        W17313   6.757  24.706  12.369
55948W        W17314  11.650  37.511   0.442
55949W        W17315  17.088  28.003   2.237
55950W        W17316  10.641  14.717  11.931
55951W        W17317  39.808  20.654   4.290
55952W        W17318  32.914   1.776   4.226
55953W        W17319   2.959  20.272  14.940
55954W        W17320  36.514  33.615  10.528
55955W        W17321  22.154  22.562  11.857
55956W        W17322  31.003   6.730  11.544
55957W        W17323  30.494  12.730  11.010
55958W        W17324  21.664  37.845  13.501
55959W        W17325  20.159  33.027  12.473
55960W        W17326  14.814  17.070   1.851
55961W        W17327   4.278  31.918   0.922
55962W        W17328  43.386  24.589  12.471
55963W        W17329  36.530  30.446  13.945
55964W        W17330   2.925  36.468   2.727
55965W        W17331  22.662  30.651   2.402
55966W        W17332  35.944   6.288  14.421
55967W        W17333  18.119   1.349  13.527
55968W        W17334  16.711  11.777  11.452
55969W        W17335  12.696  40.901   3.253
55970W        W17336   4.865  41.450   1.732
55971W        W17337  13.214  37.476  10.593
55972W        W17338   9.255  19.589  13.487
55973W        W17339  43.463  43.508   3.325
55974W        W17340  15.703   9.822  12.362
55975W        W17341   4.440   5.418   3.731
55976W        W17342   7.309  20.756  11.882
55977W        W17343   7.284  27.177   1.238
55978W        W17344  14.118  16.291   0.457
55979W        W17345   5.919  41.527  14.302
55980W        W17346  28.480  24.219  14.342
55981W        W17347  23.686   2.958   4.827
55982W        W17348  28.440  43.788  13.042
55983W        W17349   4.814  33.593   0.828
55984W        W17350  15.093  24.550   0.762
55985W        W17351  41.814  21.106   4.613
55986W        W17352  36.529  32.103   2.743
55987W        W17353   0.491  28.130   0.290
55988W        W17354  11.832   8.271  10.462
55989W        W17355   1.800  27.952  10.110
55990W        W17356   6.762  37.053  10.528
55991W        W17357  36.992  13.626  11.013
55992W        W17358  23.048  44.335   1.794
55993W        W17359   8.687  28.510   4.341
55994W        W17360  22.543   9.850   1.794
55995W        W17361  39.983  24.659  11.588
55996W        W17362  39.503   5.893   2.796
55997W        W17363   3.769  40.307   0.789
55998W        W17364  41.391  43.384   4.145
55999W        W17365   5.793  10.231   1.245
56000W        W17366  10.164  22.524   1.853
56001W        W17367   4.220  31.003  10.583
56002W        W17368  25.058  29.974   2.797
56003W        W17369  43.796  43.383   3.292
56004W        W17370  40.493  18.748   1.230
56005W        W17371  25.605  38.927   0.773
56006W        W17372  24.625  11.263   4.696
56007W        W17373  36.048   9.725   2.270
56008W        W17374  35.023  14.720  12.894
56009W        W17375  39.871  40.516   3.198
56010W        W17376  20.732  18.736  13.342
56011W        W17377  17.784  37.057   3.273
56012W        W17378   8.364  36.577   2.237
56013W        W17379  14.705  20.105   3.209
56014W        W17380  40.869   9.342  12.964
56015W        W17381  38.491   4.943   1.402
56016W        W17382  27.044   1.290  12.856
56017W        W17383  27.155  15.133  10.598
56018W        W17384  19.203  42.320  14.465
56019W        W17385  21.720  38.931   3.161
56020W        W17386  42.323  22.689   1.733
56021W        W17387   3.233   9.769   2.347
56022W        W17388  16.668   3.233   4.281
56023W        W17389  27.029  29.975   9.969
56024W        W17390  37.083   2.273   4.166
56025W        W17391  26.089  25.632   4.620
56026W        W17392  22.134  10.797   2.338
56027W        W17393  15.684  20.561  10.091
56028W        W17394   6.288  37.526   0.841
56029W        W17395  37.562  25.707   4.121
56030W        W17396   7.224   1.889   4.620
56031W        W17397   9.196   4.356  14.848
56032W        W17398  36.475  26.208  12.418
56033W        W17399  23.009  29.500  10.928
56034W        W17400  21.078   3.409   1.368
56035W        W17401  18.096  27.656   3.738
56036W        W17402  35.882  10.693  11.990
56037W        W17403  30.423  14.127   1.926
56038W        W17404  35.924  25.609   2.375
56039W        W17405   3.770  15.095   0.823
56040W        W17406  22.555   7.332  14.877
56041W        W17407  32.986  40.410   0.882
56042W        W17408  30.453   1.735  14.937
56043W        W17409  39.830  14.193  14.440
56044W        W17410  36.962  24.168  13.320
56045W        W17411  36.380   3.444   1.225
56046W        W17412   6.759   7.213  13.019
56047W        W17413  19.754   3.871  12.496
56048W        W17414  25.162  18.778   4.769
56049W        W17415  36.032  31.518   2.722
56050W        W17416  31.637  38.840  14.028
56051W        W17417  35.493   3.336   2.860
56052W        W17418  30.627  23.071  12.858
56053W        W17419   3.229  26.530   1.783
56054W        W17420  38.958  36.063   3.313
56055W        W17421  19.736  14.692  12.454
56056W        W17422  17.156  31.543   0.284
56057W        W17423  37.480  24.028  10.947
56058W        W17424  23.706   1.284  13.368
56059W        W17425  19.738  15.739  11.494
56060W        W17426  17.066  30.424   5.210
56061W        W17427  43.432  10.365  12.935
56062W        W17428  36.956   3.811   2.194
56063W        W17429   8.196  32.537   0.432
56064W        W17430  34.985  25.216   1.313
56065W        W17431  38.860  21.534  12.445
56066W        W17432  32.964  10.658   4.681
56067W        W17433  13.195  24.539   4.237
56068W        W17434  30.000  18.124   9.460
56069W        W17435  17.168  19.118  12.968
56070W        W17436   9.295  26.072  14.811
56071W        W17437  22.013  12.632  12.013
56072W        W17438  24.059  23.130  12.994
56073W        W17439  18.702  14.192  13.509
56074W        W17440  11.158  44.441   9.926
56075W        W17441  27.627  13.723  12.075
56076W        W17442   1.273  41.375  10.986
56077W        W17443   0.467   8.312   4.785
56078W        W17444  26.546  37.381   0.885
56079W        W17445  17.240  35.080  11.021
56080W        W17446  13.670   7.178  12.913
56081W        W17447  12.203  19.164  14.970
56082W        W17448  35.035  22.193  13.800
56083W        W17449   9.841   2.456  11.485
56084W        W17450  20.204  20.768   4.712
56085W        W17451  37.867   8.758   4.690
56086W        W17452  13.306  32.450  11.493
56087W        W17453  31.576   9.734  11.442
56088W        W17454  21.208  22.023  11.927
56089W        W17455   2.249  10.381   1.344
56090W        W17456  25.212  31.495  14.016
56091W        W17457  22.658   8.239  13.906
56092W        W17458  28.137  24.031  13.335
56093W        W17459  34.494  32.498   2.818
56094W        W17460  41.446  36.559  12.494
56095W        W17461  14.695  33.979  14.025
56096W        W17462   4.760  27.554  10.619
56097W        W17463  39.855   8.791  10.442
56098W        W17464  29.047  34.490   2.883
56099W        W17465  27.162   3.742   5.779
56100W        W17466  11.302  41.888  12.362
56101W        W17467  44.311  21.241  12.905
56102W        W17468  17.661  27.675  14.414
56103W        W17469  41.377  34.943   4.797
56104W        W17470  44.006   7.854   1.316
56105W        W17471   4.256  43.307  12.892
56106W        W17472  31.504  25.157  12.361
56107W        W17473  22.552   2.782   1.873
56108W        W17474   8.814  16.112  13.008
56109W        W17475   6.678   6.418  13.369
56110W        W17476   0.425  32.141   1.704
56111W        W17477  44.368  36.420  13.874
56112W        W17478  40.467  29.091  14.976
56113W        W17479   5.790   9.264  11.892
56114W        W17480  19.658  40.361  12.358
56115W        W17481  34.427  41.883   3.356
56116W        W17482  30.911  18.199  13.438
56117W        W17483  20.191  28.679  14.477
56118W        W17484  23.065  38.476   4.758
56119W        W17485  31.040  27.025   0.856
56120W        W17486  40.990  41.454  12.549
56121W        W17487  11.171  42.330   0.742
56122W        W17488  37.046  36.911  13.462
56123W        W17489  28.547   8.881   3.670
56124W        W17490  13.757  35.952   4.344
56125W        W17491  23.550  11.705  13.427
56126W        W17492  32.064  35.864   1.277
56127W        W17493  13.137   0.430  11.966
56128W        W17494   6.836   4.877  14.414
56129W        W17495  36.434  29.557  11.964
56130W        W17496  21.042  44.279  13.542
56131W        W17497  22.073   9.719  12.345
56132W        W17498  20.111  30.441  12.949
56133W        W17499  14.694  29.536   2.686
56134W        W17500  25.534  42.982   4.598
56135W        W17501  18.643  25.145  10.897
56136W        W17502  22.087  44.846  12.036
56137W        W17503  11.318   1.859   2.195
56138W        W17504  40.492  24.619   4.811
56139W        W17505  37.482  22.144  12.577
56140W        W17506   7.344   9.271   1.421
56141W        W17507   8.885  25.629   3.862
56142W        W17508  43.440  19.626  13.053
56143W        W17509  32.593  22.705   3.216
56144W        W17510  10.277   6.187  12.069
56145W        W17511   5.218  24.695   1.231
56146W        W17512  25.128  32.033  11.900
56147W        W17513  39.325  36.511   2.261
56148W        W17514   6.816  12.662  11.045
56149W        W17515  24.195   1.945  10.129
56150W        W17516  26.070  26.558  12.895
56151W        W17517  27.675  40.451   0.828
56152W        W17518  12.201  20.695  12.837
56153W        W17519   8.379  37.557   9.981
56154W        W17520  23.996  32.125   4.682
56155W        W17521  10.225   6.242   4.795
56156W        W17522  10.356   2.421  14.278
56157W        W17523  20.212  33.938   2.295
56158W        W17524   8.683  11.653   4.819
56159W        W17525  24.592  11.666  13.359
56160W        W17526  30.057  31.896   4.327
56161W        W17527  37.381   4.916   4.603
56162W        W17528  25.218  26.061  14.472
56163W        W17529  32.635   5.755   0.378
56164W        W17530  17.570  43.818   2.185
56165W        W17531  19.657  17.066   1.398
56166W        W17532  30.927  22.632  12.501
56167W        W17533  36.098  38.901  13.529
56168W        W17534  34.890  38.012  14.767
56169W        W17535  30.443  26.067  14.975
56170W        W17536  17.607  26.149  13.058
56171W        W17537  17.556  35.083   0.350
56172W        W17538   3.383   1.734  14.007
56173W        W17539  30.611  29.931  13.537
56174W        W17540  26.975  31.994  14.925
56175W        W17541  17.095  38.451   2.797
56176W        W17542  27.524  23.050   1.907
56177W        W17543   9.286  37.837  12.984
56178W        W17544  37.392  23.557  14.027
56179W        W17545   6.827  25.699  14.897
56180W        W17546  40.905  34.566   2.291
56181W        W17547  38.416  24.495  10.436
56182W        W17548  43.456  14.219  13.419
56183W        W17549  30.625  13.197  10.582
56184W        W17550  31.975  10.635   3.665
56185W        W17551  32.994  10.746  11.974
56186W        W17552  42.960  34.005  13.486
56187W        W17553  13.138  36.922   0.273
56188W        W17554  29.525  43.987   3.753
56189W        W17555   4.750  41.961  11.441
56190W        W17556  16.758  22.091   3.667
56191W        W17557  42.986   6.755  13.430
56192W        W17558  33.045  43.472   5.700
56193W        W17559  38.974  33.557  14.319
56194W        W17560  13.325   7.238  11.095
56195W        W17561  44.353  27.534  12.501
56196W        W17562  31.035  17.671  10.115
56197W        W17563   8.375  39.024  10.616
56198W        W17564  32.091   4.399   2.399
56199W        W17565  19.281  28.048   4.821
56200W        W17566  40.944  31.570  14.881
56201W        W17567  27.515   3.251   3.791
56202W        W17568  18.276  20.157   3.762
56203W        W17569  28.098   4.297  12.875
56204W        W17570  21.236  18.630  13.969
56205W        W17571  35.913  42.450  10.973
56206W        W17572  42.844  30.975   0.908
56207W        W17573   1.323  30.915  10.972
56208W        W17574  28.118   4.298  12.044
56209W        W17575   1.911  36.494  11.497
56210W        W17576  19.064  33.460   4.163
56211W        W17577  22.579  17.766  12.573
56212W        W17578  15.218  18.690  11.999
56213W        W17579   1.341  14.612   2.889
56214W        W17580  19.053  41.021  13.463
56215W        W17581  39.353  11.752  13.891
56216W        W17582  34.421   0.389  13.815
56217W        W17583  42.393  36.468   2.235
56218W        W17584   5.219  32.889  11.530
56219W        W17585  39.890  22.999   0.737
56220W        W17586  13.291  11.683   0.322
56221W        W17587  20.112  42.919  12.979
56222W        W17588  19.555  41.040   0.735
56223W        W17589   1.421  28.617  13.032
56224W        W17590  28.547   0.443   3.247
56225W        W17591  38.833  28.144   2.306
56226W        W17592  10.818   0.947   0.771
56227W        W17593  14.244  14.185   2.333
56228W        W17594  29.130   7.307  12.390
56229W        W17595  35.408  10.377   4.290
56230W        W17596  18.755  40.954   2.402
56231W        W17597  13.662   8.202   3.193
56232W        W17598  11.304  25.472   3.705
56233W        W17599  24.992  35.453  13.024
56234W        W17600  23.680   1.756   4.721
56235W        W17601  40.902  16.570   3.658
56236W        W17602  31.966  42.504   3.732
56237W        W17603  14.126  36.003  12.850
56238W        W17604   3.804  18.646  14.405
56239W        W17605   7.856  13.636   0.412
56240W        W17606  11.178   8.799   1.429
56241W        W17607  10.308  42.836   1.694
56242W        W17608  12.804  29.612   1.847
56243W        W17609  30.004  15.653   1.727
56244W        W17610  38.972  15.624  12.418
56245W        W17611  13.607  36.526   2.387
56246W        W17612  18.281  16.116  12.038
56247W        W17613  23.672  32.019   4.294
56248W        W17614  11.714  31.973  14.959
56249W        W17615  35.074  21.523  12.960
56250W        W17616  25.118  32.046  10.643
56251W        W17617  30.113  10.248   4.695
56252W        W17618  13.617  15.627   2.395
56253W        W17619  23.628  36.466  13.920
56254W        W17620   7.870  39.041  10.113
56255W        W17621  40.848  26.172   3.863
56256W        W17622   6.745  39.036  13.808
56257W        W17623  43.816  26.469  12.956
56258W        W17624  39.066   1.792  14.396
56259W        W17625  35.546  18.142  14.963
56260W        W17626  32.446   2.275  14.465
56261W        W17627  18.605  20.047  12.991
56262W        W17628   9.660  12.309   0.956
56263W        W17629  31.993  40.341   2.900
56264W        W17630  33.104  29.924   2.674
56265W        W17631  24.148  44.499  10.972
56266W        W17632  26.001  17.788  14.327
56267W        W17633  11.303  28.490   2.340
56268W        W17634  33.113   7.769  14.497
56269W        W17635  11.759   8.265   2.808
56270W        W17636  32.424  33.551  12.073
56271W        W17637  27.651  44.379   1.408
56272W        W17638   7.760  25.013  14.400
56273W        W17639  23.549  12.855   1.819
56274W        W17640   5.269  39.983   1.810
56275W        W17641  17.103  32.132  13.974
56276W        W17642  37.908  10.174  14.899
56277W        W17643  10.695  28.962   2.232
56278W        W17644  40.430  19.666  13.500
56279W        W17645   7.379  24.542   3.678
56280W        W17646  26.102  33.026  11.960
56281W        W17647  44.841  43.819   1.775
56282W        W17648   8.351  40.397  14.030
56283W        W17649   8.750  28.148   4.261
56284W        W17650  25.057   4.899   9.515
56285W        W17651  15.108   7.333  14.839
56286W        W17652  44.943   7.396   4.686
56287W        W17653  23.009  13.177   3.235
56288W        W17654  32.422  35.040  14.810
56289W        W17655  32.956  28.129   3.707
56290W        W17656  31.112  29.637  12.368
56291W        W17657  28.072  36.532  10.604
56292W        W17658  44.917  24.592  11.927
56293W        W17659  18.055   8.162   4.612
56294W        W17660  43.932  15.632   2.827
56295W        W17661  30.463  14.643  13.955
56296W        W17662  12.730  25.696  13.322
56297W        W17663  11.232  12.173  14.019
56298W        W17664  37.086  27.537  12.462
56299W        W17665  19.650  26.655  13.366
56300W        W17666  35.506   0.257  12.092
56301W        W17667  39.507  14.647  14.495
56302W        W17668  32.567   1.732   4.291
56303W        W17669  17.241  34.957  14.023
56304W        W17670   0.256  33.066  14.495
56305W        W17671   4.882  22.736  13.005
56306W        W17672  20.117  31.409  11.555
56307W        W17673   3.887   0.434  12.553
56308W        W17674  43.372  32.443   4.143
56309W        W17675   9.236  11.300   1.909
56310W        W17676  36.547  35.997   0.928
56311W        W17677  20.146  30.582   3.756
56312W        W17678  44.902  32.140  10.114
56313W        W17679  25.965  39.060  12.014
56314W        W17680  18.279  10.230  10.055
56315W        W17681   5.703  23.087  12.950
56316W        W17682   4.322   8.392   3.365
56317W        W17683  44.942  35.919  11.601
56318W        W17684  11.258  34.448  13.004
56319W        W17685   0.947  44.397   2.769
56320W        W17686  19.678  28.506  11.542
56321W        W17687  24.191  35.014  13.980
56322W        W17688  41.025  32.396  13.046
56323W        W17689  10.232  25.195   2.893
56324W        W17690  41.330  21.147  11.901
56325W        W17691   2.442   5.338   5.103
56326W        W17692   7.828  43.896   1.898
56327W        W17693  40.871  27.060   3.329
56328W        W17694   8.221   6.234   0.412
56329W        W17695  40.827  42.795   2.308
56330W        W17696  44.997  42.987  13.513
56331W        W17697   0.355  20.761   4.234
56332W        W17698  32.391  13.110  11.004
56333W        W17699  12.622  32.919   2.272
56334W        W17700   4.712   8.835  12.344
56335W        W17701  38.938  19.114  11.575
56336W        W17702  26.639   8.269  12.477
56337W        W17703  29.468  21.171  10.443
56338W        W17704  13.763  37.832  14.390
56339W        W17705  41.464  38.545  14.969
56340W        W17706  31.055  16.235  11.121
56341W        W17707  44.913  34.894   1.403
56342W        W17708   7.856  41.864  11.925
56343W        W17709   4.364   2.896   4.750
56344W        W17710  35.886  10.370  10.487
56345W        W17711  14.170   5.780   3.156
56346W        W17712  32.075   9.148   2.346
56347W        W17713  42.518  11.292   0.751
56348W        W17714   4.249  17.677  11.924
56349W        W17715  20.189  10.819  10.924
56350W        W17716  43.414  16.290   0.950
56351W        W17717  18.679  12.777  14.798
56352W        W17718  41.826  10.738  11.484
56353W        W17719   7.766  43.293  10.631
56354W        W17720   7.872  11.657   2.823
56355W        W17721  26.059  34.601  11.377
56356W        W17722  26.594  12.751   2.867
56357W        W17723  25.131  42.013   4.221
56358W        W17724  25.711  31.984   3.369
56359W        W17725  10.875  12.329  11.951
56360W        W17726  10.870  14.151   3.260
56361W        W17727  14.244  19.082   2.762
56362W        W17728  29.588   2.299  11.541
56363W        W17729   5.798  31.901  11.446
56364W        W17730   4.801  41.822  12.028
56365W        W17731  10.326  15.677  14.816
56366W        W17732  38.043   1.881   3.815
56367W        W17733  42.853  20.265  11.958
56368W        W17734  17.093   8.377   1.279
56369W        W17735   0.371  37.901   3.673
56370W        W17736  11.783  34.066  12.403
56371W        W17737  15.221  14.264   0.312
56372W        W17738   9.698  30.502   1.856
56373W        W17739   1.425  42.895  10.625
56374W        W17740   5.772  17.162  12.058
56375W        W17741  40.311  33.584   3.800
56376W        W17742  31.590   9.296  11.866
56377W        W17743  17.602  35.362   1.759
56378W        W17744  19.146   8.280   1.233
56379W        W17745  33.904  38.939   3.261
56380W        W17746  24.574   7.213   2.413
56381W        W17747  14.106  21.606  13.332
56382W        W17748  36.510   7.229   1.243
56383W        W17749  32.134  20.164  14.363
56384W        W17750   1.887   1.947  12.475
56385W        W17751  29.150  44.801   0.909
56386W        W17752  44.937  42.876   0.352
56387W        W17753  15.155  35.574   5.157
56388W        W17754  30.123  36.015   1.310
56389W        W17755  43.765  41.027  10.996
56390W        W17756  20.101  36.579   4.290
56391W        W17757   4.237  16.640   2.262
56392W        W17758  35.409  12.131   1.743
56393W        W17759  33.114  37.951   2.213
56394W        W17760  35.362  12.334   1.327
56395W        W17761  39.052  40.919   3.305
56396W        W17762   6.334   4.908   1.239
56397W        W17763   7.718  13.238  13.032
56398W        W17764  26.486  37.050  13.812
56399W        W17765  13.177   5.737  13.031
56400W        W17766  28.988  26.658  11.490
56401W        W17767   8.856  29.971  11.558
56402W        W17768   2.874  32.011  14.881
56403W        W17769  43.829   4.446  14.460
56404W        W17770  11.312  11.819  12.340
56405W        W17771  44.382  33.994   1.238
56406W        W17772  17.604  16.253   9.933
56407W        W17773  42.281  14.168   0.760
56408W        W17774   5.901  37.913   2.781
56409W        W17775  24.585  18.609  13.995
56410W        W17776  37.905  16.725   3.683
56411W        W17777  36.473  15.642   4.677
56412W        W17778  13.732  22.185   0.742
56413W        W17779  38.869  35.043  10.982
56414W        W17780   7.245  43.439  10.935
56415W        W17781  11.217  35.453  11.482
56416W        W17782  37.562  27.677   3.853
56417W        W17783  31.964  18.150  14.471
56418W        W17784   9.182  33.488   0.291
56419W        W17785  26.996  27.131  12.490
56420W        W17786  39.435  14.645   0.797
56421W        W17787  38.960  44.836  10.571
56422W        W17788  26.560  37.512  11.398
56423W        W17789   6.214  38.902  10.154
56424W        W17790  16.721  26.140   4.266
56425W        W17791   3.326  29.602  12.361
56426W        W17792  29.006  18.661   0.917
56427W        W17793  20.611  15.132  10.596
56428W        W17794  21.637   5.872   4.657
56429W        W17795   9.179  33.614   4.293
56430W        W17796  44.774  24.560   2.192
56431W        W17797  14.735  39.832   2.669
56432W        W17798  15.639  15.785   5.207
56433W        W17799  18.152  30.956  12.959
56434W        W17800  19.582  20.681  12.530
56435W        W17801  40.317  22.510  10.055
56436W        W17802   0.383  43.500  12.949
56437W        W17803   4.287  28.008  10.921
56438W        W17804  25.530   6.722  13.064
56439W        W17805   6.708  14.164   3.736
56440W        W17806  18.611  22.703   1.818
56441W        W17807  24.696  30.601  11.600
56442W        W17808  35.094   3.392  13.366
56443W        W17809  25.551  25.664   4.217
56444W        W17810  42.372   8.848   3.328
56445W        W17811   7.679  30.159   0.360
56446W        W17812  19.211  26.134   1.755
56447W        W17813  23.239  35.442   4.639
56448W        W17814  23.198  20.621  14.793
56449W        W17815   7.794  20.691  14.369
56450W        W17816  30.413   6.231  10.514
56451W        W17817  38.890  11.705  13.503
56452W        W17818  42.918  35.374   2.798
56453W        W17819   7.186  12.179   4.118
56454W        W17820   4.771  38.961   4.614
56455W        W17821  23.611   8.314   1.441
56456W        W17822  10.139  34.867   2.277
56457W        W17823  26.468  38.882  14.336
56458W        W17824  10.304  33.906  10.472
56459W        W17825  31.961  34.866   3.255
56460W        W17826   6.778   5.275  11.471
56461W        W17827   8.841   9.191   3.714
56462W        W17828  36.908  28.563   2.762
56463W        W17829  35.955   5.849   3.862
56464W        W17830  19.150  29.176  11.515
56465W        W17831   4.303  13.792   0.300
56466W        W17832  26.132  33.549  13.861
56467W        W17833  11.836  12.770   3.767
56468W        W17834  36.949  19.615  12.093
56469W        W17835  40.327  28.144   4.754
56470W        W17836   5.816   3.737   1.417
56471W        W17837  18.210  17.129  10.057
56472W        W17838  10.229   1.750  10.073
56473W        W17839   9.746  27.530  10.517
56474W        W17840  13.275  35.940  10.967
56475W        W17841  10.837  24.023   4.769
56476W        W17842  16.318  41.965  12.073
56477W        W17843  20.089   7.766  10.602
56478W        W17844  16.638  33.472   2.705
56479W        W17845  13.177   5.718  12.447
56480W        W17846  19.740   9.836   4.816
56481W        W17847  23.101  26.125  13.357
56482W        W17848  40.831   1.375  13.412
56483W        W17849  34.445  36.495   1.385
56484W        W17850  14.123  35.967  11.576
56485W        W17851  31.056  10.340   4.674
56486W        W17852   3.854  12.313   1.449
56487W        W17853   9.666  34.409  14.351
56488W        W17854  30.024   4.293   1.440
56489W        W17855  15.744   0.895  12.970
56490W        W17856  27.478  37.404   1.259
56491W        W17857  40.319  34.935   2.409
56492W        W17858   7.180  20.592  13.325
56493W        W17859  40.029  14.131  10.988
56494W        W17860  14.704  39.007  10.901
56495W        W17861   6.338  37.448   3.205
56496W        W17862  14.284  11.654  13.962
56497W        W17863   1.955  33.922   3.259
56498W        W17864  43.393  44.775  10.546
56499W        W17865  37.365  31.062   5.095
56500W        W17866  21.576  11.811   4.667
56501W        W17867   0.922  26.656  14.454
56502W        W17868  11.745  26.601  12.485
56503W        W17869  11.802  36.046   0.838
56504W        W17870   7.715   1.447   1.861
56505W        W17871  23.079  13.617   3.329
56506W        W17872  34.473  29.465  12.572
56507W        W17873  26.084  23.521   4.686
56508W        W17874  28.618  29.592  12.975
56509W        W17875  19.267  23.155  13.372
56510W        W17876   1.789  31.137   2.868
56511W        W17877  38.496   3.394   2.238
56512W        W17878  36.500  24.115   3.684
56513W        W17879  29.637  28.454  10.110
56514W        W17880  23.084   7.378   2.819
56515W        W17881  33.088  22.230   2.289
56516W        W17882   2.929   7.322   2.383
56517W        W17883  17.660  39.391   4.616
56518W        W17884  36.436  39.962   1.876
56519W        W17885   4.371  33.591  11.474
56520W        W17886  15.124  34.967  14.503
56521W        W17887  31.517  26.148  14.845
56522W        W17888   3.844   3.391  11.479
56523W        W17889  40.835   1.794   2.677
56524W        W17890  19.087  31.608  11.594
56525W        W17891  37.852   0.304   4.335
56526W        W17892  11.811  44.834  14.436
56527W        W17893  18.091   6.679   2.366
56528W        W17894  13.112  16.798  14.468
56529W        W17895  20.722  35.007  13.980
56530W        W17896  43.798  20.526   2.291
56531W        W17897  44.266  18.247  14.367
56532W        W17898  30.923  25.179   3.858
56533W        W17899  19.683  40.352   2.711
56534W        W17900  31.453  17.600  14.031
56535W        W17901   0.413  29.482  11.963
56536W        W17902  10.318  44.878  10.958
56537W        W17903  24.631  32.443   4.305
56538W        W17904   3.827  38.354  14.347
56539W        W17905   2.295  35.377  14.459
56540W        W17906   5.346  15.821   3.830
56541W        W17907  12.309  14.220  13.841
56542W        W17908  11.641  17.570   2.196
56543W        W17909   9.761  22.064   2.893
56544W        W17910  16.764  28.470  14.354
56545W        W17911  21.043   6.908   3.759
56546W        W17912  24.524  22.517  11.104
56547W        W17913  36.531  36.851   3.747
56548W        W17914  27.951  29.472  11.018
56549W        W17915  10.331  12.834   1.278
56550W        W17916  12.738  31.022   0.254
56551W        W17917  12.212   7.228   1.739
56552W        W17918  27.989   4.288   1.706
56553W        W17919  44.878  44.810   0.817
56554W        W17920  28.065  21.219  10.022
56555W        W17921  20.185  19.139   3.774
56556W        W17922   1.809  21.725   1.237
56557W        W17923  27.985  40.928   3.267
56558W        W17924  14.317  18.750   4.205
56559W        W17925  29.118  23.040   4.328
56560W        W17926  22.193  30.937  12.366
56561W        W17927  12.800  18.208  12.400
56562W        W17928  44.987  28.936  12.092
56563W        W17929   4.879  34.914  11.867
56564W        W17930  20.255   1.898  14.379
56565W        W17931  18.083  23.708  14.786
56566W        W17932  17.261  44.373   3.243
56567W        W17933   8.843  26.961   0.822
56568W        W17934  21.565  25.119  12.531
56569W        W17935  24.054  35.875   1.415
56570W        W17936   0.871   5.431  13.932
56571W        W17937  15.643  23.053  11.978
56572W        W17938  29.506  25.594  12.471
56573W        W17939  40.998  11.169  13.460
56574W        W17940  33.581  10.245   0.355
56575W        W17941  15.624  19.543  10.118
56576W        W17942  26.007   5.378  10.415
56577W        W17943  33.935  21.167   0.349
56578W        W17944  18.748  18.278   3.838
56579W        W17945  14.651  39.479   1.266
56580W        W17946  21.520  30.501   1.724
56581W        W17947  41.850  10.789   0.433
56582W        W17948  25.711  42.288  14.861
56583W        W17949  34.490  26.495   1.713
56584W        W17950  36.407  30.080   0.872
56585W        W17951   5.888  16.617  14.925
56586W        W17952  44.975  42.025  11.030
56587W        W17953   2.845  18.572  14.805
56588W        W17954  37.951   2.253   1.220
56589W        W17955  16.223  40.960  13.832
56590W        W17956  29.565  38.819  13.882
56591W        W17957  34.908   7.233   1.802
56592W        W17958  26.078   3.822  14.791
56593W        W17959  32.499  28.989  12.016
56594W        W17960  28.672  12.853  12.556
56595W        W17961  17.092  12.306  11.920
56596W        W17962  37.860   1.864  11.907
56597W        W17963  23.703  29.082  10.535
56598W        W17964  25.092   9.648   4.223
56599W        W17965  19.567  30.618   0.904
56600W        W17966  20.687  39.320  11.502
56601W        W17967   1.464  18.081  14.355
56602W        W17968   0.347  35.523   0.426
56603W        W17969   1.431  36.486  10.506
56604W        W17970   2.259  21.164   4.694
56605W        W17971  14.707  21.037   1.275
56606W        W17972  40.941   6.399  12.823
56607W        W17973  22.586  28.441   2.255
56608W        W17974  30.520  29.629  10.611
56609W        W17975  12.180   1.483  13.865
56610W        W17976  23.609   2.433   3.840
56611W        W17977   6.855  21.552   1.915
56612W        W17978  26.544  19.241   1.861
56613W        W17979   6.708   0.440  13.525
56614W        W17980  34.058  35.867   4.248
56615W        W17981  24.169   0.361   0.321
56616W        W17982   2.952  44.995  10.629
56617W        W17983   9.372  43.802  11.891
56618W        W17984  38.952  44.880   0.407
56619W        W17985  26.010  22.516   4.783
56620W        W17986  20.679  12.195   4.736
56621W        W17987  35.000  26.475  11.949
56622W        W17988  38.034  25.992   0.916
56623W        W17989  44.364  10.309   2.285
56624W        W17990  19.162  21.208  14.364
56625W        W17991  44.987   4.295   3.334
56626W        W17992  34.524   6.276  12.968
56627W        W17993  16.619  30.042   1.450
56628W        W17994  31.602  41.930   4.226
56629W        W17995  27.603  20.613  10.957
56630W        W17996  21.190  30.941  11.855
56631W        W17997  41.886  18.262   2.856
56632W        W17998  26.516  12.209   0.384
56633W        W17999  37.072  35.504   2.341
56634W        W18000  33.955  18.691  12.845
56635W        W18001   4.226  44.892  12.946
56636W        W18002  23.676  36.868   0.313
56637W        W18003   6.337  43.809  12.520
56638W        W18004  10.162  40.339   2.205
56639W        W18005  41.859  18.773   1.790
56640W        W18006  19.724  23.008   0.296
56641W        W18007  20.034  11.825  12.407
56642W        W18008  20.047  43.830  14.401
56643W        W18009  16.782  39.902   1.377
56644W        W18010  40.966  37.956  14.324
56645W        W18011   1.255  23.688  12.030
56646W        W18012  36.550   3.710  11.938
56647W        W18013  39.412  39.973  11.860
56648W        W18014  12.209   4.440  12.471
56649W        W18015  20.666  16.146  13.058
56650W        W18016  14.274   8.254  11.517
56651W        W18017   7.910  15.600  12.970
56652W        W18018  23.696  26.684   1.219
56653W        W18019   6.808  41.029   0.441
56654W        W18020  42.029   7.800  10.588
56655W        W18021  37.355  39.828   3.235
56656W        W18022   6.856  40.043   0.461
56657W        W18023  35.980  39.474   2.807
56658W        W18024  26.190  30.987   3.734
56659W        W18025  27.036  44.895  10.437
56660W        W18026  33.037  20.675  10.067
56661W        W18027   4.335  36.386   1.827
56662W        W18028   2.421   5.288   1.288
56663W        W18029   3.303  14.634  14.352
56664W        W18030  40.009  21.728   4.136
56665W        W18031   3.428   7.667   1.278
56666W        W18032  41.033   2.844  11.008
56667W        W18033   9.188   1.350  11.497
56668W        W18034  21.073  30.063  12.346
56669W        W18035   6.886  37.903  12.453
56670W        W18036  38.439  16.781  11.434
56671W        W18037   4.283  34.944   4.663
56672W        W18038  19.747  11.699   0.809
56673W        W18039  39.463  30.028   0.470
56674W        W18040  15.263   5.328  12.965
56675W        W18041  11.719  21.590  14.763
56676W        W18042  17.795  41.007  13.428
56677W        W18043  29.444  37.454   9.991
56678W        W18044  27.164  41.536   5.282
56679W        W18045  39.521  10.839   2.417
56680W        W18046  12.694  17.276   1.257
56681W        W18047  35.464  41.497  12.050
56682W        W18048  38.397  13.175   2.331
56683W        W18049  34.998   3.815  10.578
56684W        W18050   3.720  20.615  11.860
56685W        W18051  19.729   9.360  12.468
56686W        W18052  16.719  19.250   3.645
56687W        W18053  43.418  22.577  11.908
56688W        W18054  23.511  30.594   2.870
56689W        W18055  43.770  16.195  11.590
56690W        W18056  16.649  24.658  11.918
56691W        W18057   8.300  31.140  11.415
56692W        W18058   6.383  29.138   1.934
56693W        W18059  18.249  38.067   3.381
56694W        W18060  37.020  31.042  11.018
56695W        W18061  28.445  11.361  11.589
56696W        W18062  18.597  21.578   3.707
56697W        W18063  22.084  17.671  12.382
56698W        W18064  16.757   5.711   3.739
56699W        W18065  17.092  28.580  13.512
56700W        W18066  30.624  10.793   1.370
56701W        W18067  16.598   1.391  10.505
56702W        W18068  21.640  10.743   3.851
56703W        W18069  23.121  20.062  10.977
56704W        W18070  26.561   3.755   1.765
56705W        W18071   1.941  35.914  14.889
56706W        W18072  30.434  30.942   4.145
56707W        W18073  36.378  22.528   1.870
56708W        W18074  25.658  36.522  11.046
56709W        W18075  17.206   9.817   4.812
56710W        W18076   2.443  12.166  13.462
56711W        W18077  17.722   4.382  13.013
56712W        W18078   1.907  31.565   2.361
56713W        W18079   4.284   1.292  13.439
56714W        W18080   6.376   7.876  14.320
56715W        W18081  40.022  11.807  10.424
56716W        W18082   3.845  10.650   0.330
56717W        W18083  22.516   0.258   2.363
56718W        W18084   9.785   8.894   2.744
56719W        W18085  33.898   8.829  10.082
56720W        W18086  36.969  11.651  12.534
56721W        W18087   9.266  18.732   1.229
56722W        W18088  12.196  40.526   0.247
56723W        W18089   8.679   6.350   1.272
56724W        W18090   1.893  30.657  11.422
56725W        W18091  25.678   8.719   1.401
56726W        W18092  29.562   1.912  10.011
56727W        W18093  22.182  41.819   3.229
56728W        W18094  28.496  14.814   3.805
56729W        W18095  37.463  17.274  12.015
56730W        W18096  22.140   6.237  11.430
56731W        W18097  41.360  10.767   2.758
56732W        W18098  41.854  19.248   1.277
56733W        W18099   2.882  35.860   4.219
56734W        W18100  39.544  39.821  13.805
56735W        W18101  19.552   0.307   1.436
56736W        W18102  12.147  39.017   4.634
56737W        W18103  38.889  31.023   3.793
56738W        W18104  40.967  39.365   1.935
56739W        W18105  42.012  31.963   0.366
56740W        W18106  31.004   3.844  10.893
56741W        W18107   1.764  14.261  12.553
56742W        W18108  44.862  14.773  12.926
56743W        W18109  30.557   1.308   0.452
56744W        W18110  22.216  16.279   4.781
56745W        W18111  10.637  10.678  12.447
56746W        W18112   6.335  19.597   0.809
56747W        W18113  16.318  38.038   3.645
56748W        W18114  21.076   7.677   5.321
56749W        W18115  30.968  31.481  12.578
56750W        W18116  21.217  37.882  11.100
56751W        W18117  37.549  27.575  11.447
56752W        W18118   4.699   9.699  14.988
56753W        W18119  12.246  25.573   3.334
56754W        W18120  21.620  33.617  12.020
56755W        W18121  33.910   4.339   0.296
56756W        W18122   3.781  10.844   2.872
56757W        W18123  12.301  31.643  13.308
56758W        W18124  11.298  40.315   0.252
56759W        W18125  13.669  30.506  10.995
56760W        W18126  23.214  35.485  10.038
56761W        W18127   8.190  14.236  14.466
56762W        W18128  14.668  30.439  13.865
56763W        W18129  44.993  17.246   4.739
56764W        W18130  29.158   1.902  12.877
56765W        W18131  19.190  11.203   1.212
56766W        W18132  32.492  10.155   2.745
56767W        W18133  29.547  26.206   4.675
56768W        W18134  27.445   3.945   5.745
56769W        W18135  14.299  42.344  11.047
56770W        W18136  15.662  20.192  10.993
56771W        W18137  37.076   0.299  12.016
56772W        W18138  19.256  19.261   3.317
56773W        W18139  13.316  18.294  12.077
56774W        W18140   7.878   7.203   3.249
56775W        W18141  22.603   6.842  13.036
56776W        W18142   1.864  29.654   1.312
56777W        W18143  39.910  24.101   3.238
56778W        W18144  29.135  25.551  10.405
56779W        W18145  13.757   3.408   2.721
56780W        W18146  40.940  15.794   2.731
56781W        W18147  23.500  12.688   0.275
56782W        W18148  39.446  41.468   0.906
56783W        W18149  11.352  34.405   5.216
56784W        W18150   8.187  17.594   4.704
56785W        W18151  41.320  12.302  12.397
56786W        W18152  42.370  17.278  13.809
56787W        W18153   5.340  21.744  14.786
56788W        W18154  15.699  27.022  12.475
56789W        W18155  24.636  31.403  13.499
56790W        W18156  27.607  20.264   0.889
56791W        W18157  26.491  19.575  11.963
56792W        W18158   3.431  43.391   1.865
56793W        W18159   0.478  22.250  12.414
56794W        W18160  22.736  39.931  10.019
56795W        W18161  40.481  17.677   0.363
56796W        W18162  27.602  15.732  12.872
56797W        W18163  19.612   5.706  12.890
56798W        W18164  43.888  24.188   1.926
56799W        W18165  31.052  33.468   3.750
56800W        W18166  28.625  14.289  14.399
56801W        W18167  38.891  20.128  13.477
56802W        W18168  11.672  44.276   5.320
56803W        W18169   2.395   6.889   1.269
56804W        W18170  44.761   2.829  13.314
56805W        W18171  15.325  31.503   4.636
56806W        W18172  39.473  34.583  14.949
56807W        W18173  17.260  34.011   0.425
56808W        W18174  43.458   3.360   1.420
56809W        W18175   4.306  27.635   0.859
56810W        W18176  28.471  36.565  13.045
56811W        W18177  40.430  39.854   1.449
56812W        W18178  29.664  23.524   2.833
56813W        W18179  18.741  27.671   3.183
56814W        W18180  21.649   7.175   0.795
56815W        W18181  12.214  21.746   0.967
56816W        W18182   6.270  30.151  11.435
56817W        W18183  32.068   3.311   1.229
56818W        W18184  34.513   6.685  12.031
56819W        W18185   2.786   1.833   3.380
56820W        W18186  29.024  20.666   0.340
56821W        W18187  39.538  25.607  14.030
56822W        W18188  36.069   7.393   0.243
56823W        W18189  31.930   6.213  12.096
56824W        W18190   9.357  23.654  11.937
56825W        W18191  22.178  37.472  14.326
56826W        W18192  18.163  43.976  13.399
56827W        W18193  18.548  35.999   0.727
56828W        W18194  22.512  27.106   2.342
56829W        W18195  39.435  43.299  13.985
56830W        W18196  18.259   1.290  13.853
56831W        W18197  28.467  35.513   4.688
56832W        W18198  42.816   5.317  11.040
56833W        W18199  15.674  25.017  13.042
56834W        W18200  30.004   4.430   3.201
56835W        W18201  43.853  21.653   2.846
56836W        W18202  19.581  39.024   0.785
56837W        W18203  19.272  36.434  11.443
56838W        W18204   2.297  21.056  10.565
56839W        W18205  35.391  38.989  10.574
56840W        W18206  15.154   4.712   2.750
56841W        W18207  40.329  14.164   1.238
56842W        W18208  44.863  15.734   0.394
56843W        W18209  43.477  23.124   4.651
56844W        W18210  13.136   6.256  13.517
56845W        W18211  44.985  41.374   3.828
56846W        W18212  40.915  25.633   3.238
56847W        W18213  35.013   8.179   4.354
56848W        W18214  16.204  19.767  13.427
56849W        W18215  30.535  34.521   3.701
56850W        W18216   7.319  33.046   2.797
56851W        W18217  31.493  34.092  13.976
56852W        W18218   9.373  32.487   3.710
56853W        W18219  38.400  21.714  13.524
56854W        W18220  35.074  16.789   0.901
56855W        W18221  37.956  10.275   1.330
56856W        W18222  10.878  19.282  12.456
56857W        W18223  31.913  44.430  13.391
56858W        W18224  16.666  13.175   4.834
56859W        W18225  35.937  24.183  13.978
56860W        W18226  12.658  17.097   1.711
56861W        W18227   2.447  13.690   4.805
56862W        W18228  27.113  43.921   1.355
56863W        W18229  42.518  33.989  11.568
56864W        W18230  17.156  25.499   0.919
56865W        W18231  27.173  33.520   0.424
56866W        W18232  43.903   5.841   2.744
56867W        W18233   9.779  16.314   4.653
56868W        W18234  35.877  33.417   0.318
56869W        W18235  29.624  12.703  11.571
56870W        W18236   4.240  11.146   0.314
56871W        W18237  25.700  28.563   3.781
56872W        W18238  30.948   8.763  11.084
56873W        W18239  12.276   3.729  10.512
56874W        W18240  30.488  42.873  12.448
56875W        W18241  10.823  34.509  14.279
56876W        W18242  12.803   4.301   1.714
56877W        W18243  28.592  33.989   1.318
56878W        W18244   2.826  29.923  12.576
56879W        W18245  42.473  44.856   2.697
56880W        W18246  25.131  22.581   1.216
56881W        W18247  14.697   6.198   0.784
56882W        W18248   5.379  37.013   3.208
56883W        W18249   0.368   3.235   4.167
56884W        W18250  41.863  18.288   0.389
56885W        W18251  22.086  41.987  11.587
56886W        W18252  43.376  10.746  13.442
56887W        W18253  34.114  17.641  11.904
56888W        W18254  33.412  31.931   0.948
56889W        W18255   6.310  27.046  13.484
56890W        W18256  27.158  19.557   4.301
56891W        W18257   5.785  23.171   0.414
56892W        W18258   9.842  27.571  12.897
56893W        W18259   1.920  41.900  14.797
56894W        W18260  26.067  40.515   4.344
56895W        W18261  15.765   3.827   1.732
56896W        W18262  17.585  26.130  12.455
56897W        W18263  27.941  22.186   3.861
56898W        W18264   9.391  26.005  10.636
56899W        W18265   6.251  25.667  14.759
56900W        W18266  19.575  13.187  13.794
56901W        W18267  21.073  36.916  13.497
56902W        W18268   0.937   1.842  14.445
56903W        W18269  21.078  22.699   2.665
56904W        W18270  38.008  32.913  13.423
56905W        W18271   0.945  24.515  13.877
56906W        W18272  38.346  26.559   0.473
56907W        W18273  37.511   2.457   1.890
56908W        W18274  18.685  17.588  13.392
56909W        W18275  43.774  36.956  11.886
56910W        W18276  17.586   7.249   1.838
56911W        W18277  44.341  42.003   4.742
56912W        W18278  15.271  28.958   0.916
56913W        W18279  42.812   1.296  13.050
56914W        W18280  16.699   9.213  11.116
56915W        W18281  16.164  37.372   3.358
56916W        W18282  29.066  38.917  12.390
56917W        W18283  41.482  29.460  12.988
56918W        W18284  21.707  27.054   1.287
56919W        W18285  17.644  16.297  13.008
56920W        W18286  34.487  32.946  14.511
56921W        W18287  18.774  15.633  13.011
56922W        W18288  17.079  32.938  10.597
56923W        W18289  36.997  41.951   1.745
56924W        W18290   6.335  23.187  14.383
56925W        W18291  33.985   2.322  11.002
56926W        W18292  36.926  36.088  10.566
56927W        W18293  43.891  13.172  12.842
56928W        W18294   0.900  13.631  13.044
56929W        W18295  43.924  28.931   3.294
56930W        W18296  35.017  10.159   0.417
56931W        W18297  35.994  29.012   2.329
56932W        W18298  20.258   8.169   0.807
56933W        W18299  40.331   1.250  12.527
56934W        W18300   8.295   3.897  12.030
56935W        W18301  10.270  17.129   1.256
56936W        W18302   0.926   7.674   3.282
56937W        W18303  23.606  42.461  10.494
56938W        W18304  11.237  35.854   1.249
56939W        W18305  42.519  38.928  12.071
56940W        W18306  32.487   8.695   2.236
56941W        W18307  24.095   5.348  14.892
56942W        W18308  13.152   3.315  14.822
56943W        W18309  28.014  29.064  11.607
56944W        W18310  16.101   7.719  14.480
56945W        W18311  16.603  17.751  14.973
56946W        W18312  35.546   9.809  14.758
56947W        W18313   5.765  18.667   9.952
56948W        W18314   9.195  11.851   4.814
56949W        W18315  26.040  33.096   3.753
56950W        W18316  12.179  23.640  14.026
56951W        W18317  26.613  39.491   2.760
56952W        W18318  44.279  10.757  11.100
56953W        W18319  37.895  22.027  14.843
56954W        W18320  18.565   5.371  12.459
56955W        W18321  40.374  16.117   4.704
56956W        W18322   6.384   9.207  13.943
56957W        W18323  13.285  35.370  14.813
56958W        W18324   1.904  43.822  13.544
56959W        W18325  39.368   1.376   2.327
56960W        W18326  27.623  16.598   2.855
56961W        W18327  26.457  12.257  13.479
56962W        W18328  40.845   5.279   3.175
56963W        W18329   9.869  25.520  12.890
56964W        W18330  19.179  34.893   1.248
56965W        W18331   7.174  22.545  14.800
56966W        W18332  29.653  44.006   3.381
56967W        W18333   1.300   2.246   1.933
56968W        W18334  34.520  25.964  12.457
56969W        W18335  29.473   5.880   1.417
56970W        W18336  29.613  40.463   1.400
56971W        W18337   9.233  13.193   2.855
56972W        W18338   0.978  35.572  12.977
56973W        W18339  16.575  29.172  11.917
56974W        W18340  40.337  32.401  11.484
56975W        W18341  25.080  36.851  11.974
56976W        W18342  26.089  17.111  11.063
56977W        W18343  19.712  37.448  10.629
56978W        W18344  31.495  19.550   0.398
56979W        W18345  30.060  18.098   1.309
56980W        W18346  28.514  22.020   2.694
56981W        W18347  36.572  42.952   3.767
56982W        W18348  14.607  18.157  14.797
56983W        W18349  24.229  43.992  12.922
56984W        W18350  19.682   3.227  10.529
56985W        W18351  42.959   6.694  12.340
56986W        W18352  19.752  25.609   1.851
56987W        W18353  26.121   5.827   1.288
56988W        W18354  21.112  27.486  14.883
56989W        W18355  43.359  34.871   4.770
56990W        W18356  22.035  33.055   1.883
56991W        W18357  13.704  24.022   1.902
56992W        W18358  16.681   5.745   3.338
56993W        W18359  33.581  41.465  12.974
56994W        W18360  37.957  31.032  13.540
56995W        W18361  27.146  21.040  10.083
56996W        W18362  43.768  40.961   2.201
56997W        W18363  18.753  42.385   1.345
56998W        W18364  11.291  32.081  14.828
56999W        W18365   6.298   1.788  13.045
57000W        W18366  43.336  29.595   0.433
57001W        W18367  28.535  15.615  14.814
57002W        W18368  32.003  33.080  14.906
57003W        W18369  34.421  40.051   0.757
57004W        W18370  29.631  35.543   1.364
57005W        W18371  22.531  19.116   2.714
57006W        W18372  40.486  10.301   2.231
57007W        W18373   8.723   2.466   3.259
57008W        W18374  39.065  40.945   4.623
57009W        W18375  39.952   6.247  12.488
57010W        W18376  32.522   4.837   0.273
57011W        W18377   4.206   3.756   2.688
57012W        W18378  29.162  23.200  10.003
57013W        W18379   6.914  12.346  13.472
57014W        W18380  35.519  43.934  13.497
57015W        W18381  14.664   2.842  13.064
57016W        W18382  12.256  35.359  13.034
57017W        W18383  26.691  33.915   1.300
57018W        W18384   6.385  10.729   2.247
57019W        W18385   6.258  40.011  14.956
57020W        W18386   7.223  44.889  13.827
57021W        W18387  36.880  40.884   1.435
57022W        W18388  41.840   1.732   1.874
57023W        W18389   0.871  15.243   2.205
57024W        W18390   0.400   4.450   2.340
57025W        W18391   1.309  29.501  12.081
57026W        W18392  17.240  14.677   3.675
57027W        W18393  38.450  31.924  11.068
57028W        W18394  14.222  26.589   0.296
57029W        W18395   2.231  24.557  12.826
57030W        W18396   2.780   4.838   1.868
57031W        W18397  24.062  32.624  11.497
57032W        W18398   2.771  24.530  10.507
57033W        W18399  28.958  37.546   2.292
57034W        W18400  25.200   5.393   2.263
57035W        W18401  29.137  20.767  12.488
57036W        W18402  35.578  26.600   3.241
57037W        W18403  34.472  38.856   0.339
57038W        W18404  17.753   4.708   0.358
57039W        W18405  20.188  12.152  12.341
57040W        W18406  38.985   5.247  13.466
57041W        W18407  19.708   6.744  11.878
57042W        W18408   0.284   4.715  12.906
57043W        W18409  19.124  11.774  12.873
57044W        W18410  28.065  31.005  12.922
57045W        W18411  11.806  21.218   4.140
57046W        W18412  10.187  35.544   4.806
57047W        W18413  39.875  39.366   1.278
57048W        W18414   9.679  20.608  14.968
57049W        W18415  40.360  17.226   5.226
57050W        W18416   5.198  11.176  11.492
57051W        W18417  14.777  29.599  14.888
57052W        W18418  20.169  43.468   2.812
57053W        W18419   4.301  39.994   1.888
57054W        W18420   3.928  44.329   3.332
57055W        W18421   5.248  13.131  14.321
57056W        W18422  37.576  43.796  14.376
57057W        W18423  31.640  25.190  13.375
57058W        W18424  25.206  36.585  13.868
57059W        W18425  39.434  27.521  13.834
57060W        W18426  32.942  10.875   0.484
57061W        W18427  12.174   8.364  14.510
57062W        W18428  43.994  15.104  13.417
57063W        W18429  31.576  13.155   4.200
57064W        W18430  17.243  22.506   4.760
57065W        W18431  31.144  38.993  10.452
57066W        W18432  25.017  20.216  11.400
57067W        W18433   9.338  13.120   1.446
57068W        W18434  23.038  24.682   4.142
57069W        W18435  20.161  43.850  13.036
57070W        W18436  14.225  22.194  10.899
57071W        W18437  29.070  21.191  11.597
57072W        W18438   3.892   1.443   0.910
57073W        W18439  21.258  29.619  11.384
57074W        W18440  34.864  31.041   2.767
57075W        W18441  33.565  17.662  12.047
57076W        W18442  29.172  42.968   0.480
57077W        W18443  31.991  23.594   2.275
57078W        W18444  18.263  28.968  14.356
57079W        W18445   0.798  12.152   0.889
57080W        W18446  11.145   8.863  12.062
57081W        W18447  25.167  23.046  13.057
57082W        W18448  19.282   5.926   4.706
57083W        W18449  31.611  36.414   2.186
57084W        W18450  37.994  34.007   3.375
57085W        W18451   2.872  16.304  12.043
57086W        W18452   2.905  44.412   4.186
57087W        W18453  11.733  27.622   4.693
57088W        W18454  43.429  22.538  12.347
57089W        W18455  37.087  12.246   0.823
57090W        W18456   6.240  19.042  11.929
57091W        W18457  37.394   2.242   3.824
57092W        W18458  15.606   7.213   2.790
57093W        W18459   1.926  38.487  13.978
57094W        W18460  19.569  39.558   2.209
57095W        W18461  28.002  40.054  13.000
57096W        W18462   3.902   3.415   0.896
57097W        W18463  40.831  31.025  14.287
57098W        W18464  39.933  30.069  14.891
57099W        W18465  11.720   2.298   3.208
57100W        W18466  18.641  23.022   4.279
57101W        W18467  15.112  17.074  11.062
57102W        W18468  43.398  35.888   2.329
57103W        W18469  36.475   6.782  10.525
57104W        W18470  29.565  31.003  14.502
57105W        W18471   0.944   0.744   4.168
57106W        W18472  30.573  25.102  12.467
57107W        W18473  20.247  41.389  11.915
57108W        W18474  27.160  24.991  11.447
57109W        W18475  44.271  22.097  13.990
57110W        W18476   8.385  34.978   1.820
57111W        W18477  19.629  13.665   0.399
57112W        W18478   1.257   3.400  11.898
57113W        W18479  12.287  23.633   2.811
57114W        W18480  25.564   8.857  10.514
57115W        W18481   2.447  22.580   2.408
57116W        W18482  15.585  35.496  12.901
57117W        W18483   8.182  37.071  11.408
57118W        W18484   4.891  31.582  13.917
57119W        W18485  16.589  19.115   4.167
57120W        W18486   4.405  10.783   3.223
57121W        W18487  33.431  38.399  13.523
57122W        W18488   0.837   1.273  13.389
57123W        W18489  16.096  38.946  14.029
57124W        W18490  10.192  37.420  11.042
57125W        W18491  27.968   7.861  11.956
57126W        W18492  10.643  27.157  13.977
57127W        W18493   4.736  12.332  11.596
57128W        W18494  10.338   3.910   4.648
57129W        W18495  39.433  24.229  10.503
57130W        W18496  23.984  29.962   1.777
57131W        W18497  12.836  41.805  10.988
57132W        W18498   3.450  30.632   1.724
57133W        W18499   1.785   9.854   2.283
57134W        W18500  43.797   4.369  14.974
57135W        W18501   1.745  43.341  11.499
57136W        W18502  11.767   5.715  13.328
57137W        W18503  35.369   4.835   1.440
57138W        W18504  42.469   8.658  14.512
57139W        W18505   0.963   4.743   2.849
57140W        W18506  34.047  10.786   3.215
57141W        W18507  12.216  24.228  14.279
57142W        W18508  11.191   6.370   0.863
57143W        W18509  13.338  29.057  12.985
57144W        W18510   7.713   6.425   3.777
57145W        W18511  35.387   7.314   3.727
57146W        W18512   8.332   9.258  11.496
57147W        W18513  42.327  27.608  13.006
57148W        W18514  39.524   8.332  11.374
57149W        W18515   4.892  18.784   4.764
57150W        W18516  16.663  22.202   4.189
57151W        W18517  40.461  11.290   2.724
57152W        W18518  12.722   8.757  10.917
57153W        W18519   0.860  18.262  13.453
57154W        W18520   8.170  36.053  10.537
57155W        W18521  13.819  13.279   1.363
57156W        W18522  17.748   9.291   3.855
57157W        W18523   3.421  25.643   0.770
57158W        W18524  40.906  20.090   3.773
57159W        W18525  17.785  24.545  10.520
57160W        W18526  16.802  11.758  12.556
57161W        W18527   9.207  24.199   1.426
57162W        W18528  41.827   4.940   0.397
57163W        W18529  17.177  13.265   4.709
57164W        W18530  30.552   3.325   5.264
57165W        W18531  25.122  39.888   0.816
57166W        W18532  14.758  31.964  10.092
57167W        W18533  19.556   2.373   3.191
57168W        W18534   2.899   7.775   2.259
57169W        W18535   9.815   8.862  12.075
57170W        W18536  19.679   2.299  13.799
57171W        W18537   6.233  18.226  10.962
57172W        W18538  17.216  10.259   1.259
57173W        W18539   8.348   9.220  12.010
57174W        W18540  18.758   1.963   3.209
57175W        W18541  16.602   6.786   0.262
57176W        W18542  33.052   9.224  14.762
57177W        W18543  17.692  32.406   3.212
57178W        W18544   6.344  30.092  12.403
57179W        W18545  26.646  24.029  10.532
57180W        W18546  24.651  22.077  10.969
57181W        W18547  43.837  16.168   4.783
57182W        W18548  25.136   6.794   2.731
57183W        W18549  10.242   1.237   3.757
57184W        W18550  31.962  12.321  14.842
57185W        W18551   3.781  40.838  14.513
57186W        W18552  30.134  41.453  14.855
57187W        W18553  19.065   8.685   2.242
57188W        W18554  32.590   0.440  13.944
57189W        W18555  37.935  25.629  11.022
57190W        W18556  19.178  20.122   3.870
57191W        W18557   4.789   5.816  13.961
57192W        W18558  30.094  16.082   2.355
57193W        W18559   9.221  21.197  14.972
57194W        W18560  10.189  16.119   2.376
57195W        W18561  35.077  40.980  12.989
57196W        W18562  24.006   4.802  10.520
57197W        W18563  40.352   2.267   3.856
57198W        W18564   1.808  29.954   0.854
57199W        W18565  14.599  42.303  10.551
57200W        W18566  13.675   0.835  13.502
57201W        W18567   2.376  29.619   1.794
57202W        W18568   6.877  28.023   4.328
57203W        W18569  24.178   1.413  11.517
57204W        W18570  42.009  16.704  13.945
57205W        W18571   1.971   9.692  11.511
57206W        W18572  28.028  35.485   0.418
57207W        W18573  26.581   5.883   2.230
57208W        W18574   6.841  28.491   4.207
57209W        W18575  32.917  30.535   1.842
57210W        W18576   1.759  16.303   0.820
57211W        W18577   6.302  31.454  11.066
57212W        W18578  22.065   0.369   1.269
57213W        W18579   6.260  44.929  12.502
57214W        W18580  38.373  18.200  13.374
57215W        W18581  24.560  22.532  11.965
57216W        W18582  26.207  32.109  12.428
57217W        W18583  42.295  41.810  11.458
57218W        W18584  17.183  28.652  12.468
57219W        W18585  14.119  34.068   4.732
57220W        W18586   4.436  42.017   1.855
57221W        W18587  31.587  15.135   4.608
57222W        W18588   6.319  13.116  11.003
57223W        W18589  43.956   5.774  11.468
57224W        W18590  39.005  17.169   1.368
57225W        W18591  39.401   1.742  12.848
57226W        W18592  16.797  11.732   4.615
57227W        W18593  19.120  10.259   4.135
57228W        W18594  24.069  36.453   4.767
57229W        W18595   2.822   1.298  11.497
57230W        W18596   6.286  12.746   1.910
57231W        W18597  14.605  28.135  12.914
57232W        W18598  34.073  43.449  12.410
57233W        W18599  24.087  40.425  10.617
57234W        W18600  29.600   3.334  12.895
57235W        W18601   6.415  24.540  10.549
57236W        W18602  16.282  12.168   9.486
57237W        W18603  21.102   0.934  12.875
57238W        W18604   3.300   8.869   3.784
57239W        W18605  29.605  43.327   2.288
57240W        W18606  37.527  29.479   3.318
57241W        W18607  30.953   4.704   4.256
57242W        W18608  25.510  31.134   3.146
57243W        W18609  23.555  28.586   0.796
57244W        W18610   5.869  13.692   1.240
57245W        W18611  39.417   0.941   0.858
57246W        W18612  23.234  10.732  11.563
57247W        W18613  17.075  11.796   3.642
57248W        W18614  12.331   7.694  11.027
57249W        W18615  43.420   3.343  10.103
57250W        W18616  27.664   2.459  12.851
57251W        W18617  11.318  35.497   2.789
57252W        W18618   3.314  16.072  13.910
57253W        W18619  42.887  14.095   3.803
57254W        W18620  25.655  37.497  10.962
57255W        W18621  23.553  39.010   1.446
57256W        W18622  19.093  34.485  11.381
57257W        W18623  44.263  35.994  11.076
57258W        W18624   6.271  31.069  12.937
57259W        W18625  40.017   6.793   1.395
57260W        W18626   1.396  33.002  12.895
57261W        W18627  22.034  15.813  13.528
57262W        W18628  21.096  17.216   2.349
57263W        W18629  40.522   5.303   1.732
57264W        W18630  19.696  21.630  12.536
57265W        W18631  20.209  25.647   0.836
57266W        W18632  38.834  11.851  12.372
57267W        W18633  29.102   5.870  14.453
57268W        W18634   2.896  27.054   1.839
57269W        W18635  23.174  22.058   3.373
57270W        W18636   7.703  15.097  13.409
57271W        W18637   2.238   5.710  12.834
57272W        W18638  35.059  19.575  10.118
57273W        W18639  37.965  21.676  11.071
57274W        W18640  16.615   8.713   4.210
57275W        W18641   4.759   8.171   3.685
57276W        W18642   3.932  11.835   9.948
57277W        W18643   4.311  40.448  12.837
57278W        W18644  16.290  23.617   2.378
57279W        W18645  35.019  14.766   4.113
57280W        W18646  31.456  19.565  12.554
57281W        W18647  38.888  17.712   1.275
57282W        W18648   4.333   0.329  10.456
57283W        W18649  22.025   2.878   1.246
57284W        W18650  10.311  11.660   5.130
57285W        W18651  18.560  16.294   0.732
57286W        W18652  35.956  16.607  14.025
57287W        W18653  19.281  37.453   1.316
57288W        W18654   5.863   4.838  10.606
57289W        W18655   4.813  26.579  10.590
57290W        W18656  14.155  12.178  13.939
57291W        W18657  36.569   6.874  12.970
57292W        W18658  39.983  12.350  14.450
57293W        W18659  27.554  42.286  14.823
57294W        W18660   2.901   6.684  12.342
57295W        W18661   5.232   6.404  11.894
57296W        W18662  18.708  39.953  11.464
57297W        W18663  39.935  38.985   4.191
57298W        W18664   9.231  30.927   0.399
57299W        W18665   7.210  24.596   2.782
57300W        W18666  31.625  37.967  10.981
57301W        W18667   8.825  18.554   4.743
57302W        W18668   3.215  14.217   5.082
57303W        W18669   0.795   8.672  13.321
57304W        W18670  44.325  21.033  10.036
57305W        W18671  16.571  37.559  14.453
57306W        W18672  25.509  18.202  13.358
57307W        W18673  41.299   5.379  14.359
57308W        W18674  30.104   7.395   0.863
57309W        W18675  24.176   1.784  12.008
57310W        W18676  17.704   8.303  10.976
57311W        W18677   2.924  40.539   0.840
57312W        W18678  37.543  27.056   5.087
57313W        W18679   1.265   3.904   4.815
57314W        W18680  38.527  20.649  14.813
57315W        W18681  22.680  28.653   4.614
57316W        W18682   2.768  22.151  11.920
57317W        W18683  29.947  14.181  10.903
57318W        W18684  14.257  17.091  13.506
57319W        W18685  29.023  27.591   4.337
57320W        W18686  24.479  14.644   2.393
57321W        W18687   0.248   0.458   3.703
57322W        W18688  13.764  32.096   9.967
57323W        W18689  31.457  20.528   2.247
57324W        W18690   5.927   1.777   9.464
57325W        W18691  15.189  39.029   1.871
57326W        W18692  32.922  36.537  12.524
57327W        W18693  41.890  40.960  10.566
57328W        W18694  30.110  10.154   3.296
57329W        W18695   2.471   2.900   2.856
57330W        W18696  43.796  39.484  13.459
57331W        W18697  28.987  32.008  14.811
57332W        W18698  17.107  41.024  12.056
57333W        W18699   6.677  44.316  14.278
57334W        W18700  37.528  18.747  13.467
57335W        W18701  41.039  41.449  12.861
57336W        W18702  18.108  36.061  14.836
57337W        W18703  11.686  22.613   3.737
57338W        W18704  17.795   9.855   2.815
57339W        W18705  35.055  44.961   1.787
57340W        W18706  31.921   9.250   3.279
57341W        W18707  12.303  21.537  12.951
57342W        W18708  42.396   0.440  13.847
57343W        W18709  36.473  27.661  12.398
57344W        W18710   3.824  20.593   0.279
57345W        W18711   5.885  34.022   2.708
57346W        W18712  25.582   0.481   0.291
57347W        W18713  16.207   5.407  13.043
57348W        W18714  14.129  11.229  11.116
57349W        W18715   8.879  39.954  14.368
57350W        W18716  33.097   6.425  12.465
57351W        W18717  26.083  14.651  13.514
57352W        W18718  42.793  36.550  13.503
57353W        W18719  10.250  23.226  10.585
57354W        W18720  11.211  28.156  14.962
57355W        W18721  40.936  42.902   1.742
57356W        W18722  26.574  36.399  11.932
57357W        W18723  25.693  30.536  12.966
57358W        W18724  44.989  43.318  11.926
57359W        W18725  18.223  21.204   0.961
57360W        W18726  10.858  27.112   4.774
57361W        W18727  34.417  29.032   1.264
57362W        W18728  35.428   7.172  12.845
57363W        W18729  25.218   8.167  12.960
57364W        W18730  15.276  35.082  14.880
57365W        W18731  28.014   3.352  11.590
57366W        W18732  20.765   6.762  11.395
57367W        W18733   5.886   5.381   1.267
57368W        W18734  39.429   9.246   1.325
57369W        W18735  38.053  20.176  12.379
57370W        W18736  23.633  28.444   3.168
57371W        W18737  32.993  24.489   4.170
57372W        W18738  44.344  44.994  12.044
57373W        W18739  10.294  34.468   3.230
57374W        W18740  26.149  41.519   3.307
57375W        W18741  27.007  37.521  14.484
57376W        W18742  27.965  16.698  14.289
57377W        W18743   9.835  25.074   3.754
57378W        W18744  10.851  27.111  10.582
57379W        W18745  38.461   2.470  14.443
57380W        W18746  38.930  17.584  11.422
57381W        W18747   1.862  17.275   0.332
57382W        W18748  20.272  14.631  11.399
57383W        W18749  34.495   8.865  12.450
57384W        W18750  13.773  15.773  10.126
57385W        W18751  30.996  24.725  12.483
57386W        W18752  17.632  17.650  11.100
57387W        W18753  24.724   2.934   0.478
57388W        W18754  16.656  27.510   2.662
57389W        W18755  33.959  24.075   3.701
57390W        W18756  32.919  33.888  12.344
57391W        W18757  43.298  35.459   1.265
57392W        W18758   2.376  10.183  11.460
57393W        W18759  19.170  23.123  13.937
57394W        W18760  10.813  43.818  14.279
57395W        W18761  17.127  43.465  12.468
57396W        W18762   1.438  20.076  13.411
57397W        W18763  30.464  31.993  14.275
57398W        W18764   5.427  20.567  11.909
57399W        W18765  39.047  38.968  14.354
57400W        W18766  40.866  26.085  11.997
57401W        W18767  43.391   5.326  13.315
57402W        W18768  25.570  16.121   4.198
57403W        W18769  20.271  37.457  14.408
57404W        W18770   3.793   3.911  11.377
57405W        W18771   3.843  25.182  11.121
57406W        W18772  35.378  11.776   2.266
57407W        W18773  38.471  36.882   3.209
57408W        W18774  41.352  18.231   2.882
57409W        W18775  11.222  17.612   3.651
57410W        W18776  43.283   2.880  14.922
57411W        W18777  30.056  20.616   0.295
57412W        W18778   0.759  35.385  11.861
57413W        W18779  42.944  14.181  11.458
57414W        W18780   4.277   3.434  12.866
57415W        W18781  19.249  44.761  14.959
57416W        W18782  12.766  33.583  13.364
57417W        W18783  34.584  43.400  10.610
57418W        W18784  23.199  41.870   3.660
57419W        W18785   5.706  10.808   4.335
57420W        W18786  22.076  15.250   2.778
57421W        W18787  10.294  35.077  11.099
57422W        W18788  19.769   8.208  11.089
57423W        W18789  15.806  38.002  14.300
57424W        W18790  29.124  13.275   2.849
57425W        W18791   1.290  39.842   4.200
57426W        W18792  13.264   5.766  11.484
57427W        W18793  19.625  13.668  13.546
57428W        W18794  32.016  34.495  14.413
57429W        W18795  23.733  30.648  11.952
57430W        W18796  28.638  18.178  12.403
57431W        W18797   9.714  27.539   1.722
57432W        W18798   7.311  15.218  12.072
57433W        W18799  28.631  43.845   4.325
57434W        W18800  41.444  34.510   1.724
57435W        W18801  15.601  16.671   5.321
57436W        W18802  23.681  12.260   2.736
57437W        W18803  19.062   9.332  13.434
57438W        W18804  16.167  42.305  10.508
57439W        W18805  42.845   9.771  12.556
57440W        W18806  13.210  37.851  10.629
57441W        W18807  41.820   9.702  14.398
57442W        W18808  44.273   8.707   1.355
57443W        W18809   3.283  38.533  10.962
57444W        W18810   1.758   3.780   5.245
57445W        W18811   7.794  16.686   5.153
57446W        W18812  28.932   6.768   4.796
57447W        W18813  39.843  17.780   2.301
57448W        W18814  32.493  34.882   3.219
57449W        W18815  39.360  36.352  10.642
57450W        W18816  24.711  26.035   1.338
57451W        W18817  13.611  35.107  13.401
57452W        W18818  14.233  40.379   4.181
57453W        W18819  29.658  33.472  11.870
57454W        W18820  15.775  43.394  13.429
57455W        W18821  18.729  23.995   4.313
57456W        W18822  10.383   1.323  12.517
57457W        W18823   7.202   3.457   4.117
57458W        W18824  39.852  37.940   0.273
57459W        W18825  11.863  11.275   1.801
57460W        W18826  20.615  17.190   3.661
57461W        W18827  27.540  13.342  14.778
57462W        W18828  42.300  41.322  10.998
57463W        W18829  37.852  41.377   2.710
57464W        W18830   8.806  15.315   1.386
57465W        W18831  11.793  24.027   3.672
57466W        W18832  30.141  38.853  12.340
57467W        W18833  10.146   2.903   3.248
57468W        W18834   1.248  22.675   0.404
57469W        W18835  30.959  36.986  13.044
57470W        W18836  28.169  18.548  14.387
57471W        W18837   8.164   3.429  12.852
57472W        W18838  13.817  23.600   2.818
57473W        W18839   4.413  10.664  14.347
57474W        W18840  35.954  18.573  14.504
57475W        W18841  18.661  12.194  14.295
57476W        W18842  33.455   7.413   2.692
57477W        W18843  34.615   9.786   4.201
57478W        W18844  27.965  35.604  11.560
57479W        W18845  22.211  43.416   0.444
57480W        W18846  31.616  43.350  14.389
57481W        W18847  24.039   7.855   5.229
57482W        W18848  15.330  27.626  11.046
57483W        W18849   2.398  27.681  14.932
57484W        W18850  26.203  11.799   4.175
57485W        W18851   2.423  23.017  14.466
57486W        W18852   0.771   7.831  12.070
57487W        W18853  32.564  43.920   3.669
57488W        W18854  13.269  31.921   9.978
57489W        W18855   2.803   5.755   4.183
57490W        W18856  24.119  37.495   4.762
57491W        W18857  21.182  32.951   3.155
57492W        W18858  26.505  25.032  13.527
57493W        W18859  32.057  13.303   5.314
57494W        W18860   2.808  34.562  12.926
57495W        W18861   4.225  41.528   3.704
57496W        W18862   1.841  28.458  11.451
57497W        W18863  32.079  24.002   0.263
57498W        W18864  11.840   2.923  12.930
57499W        W18865   6.896  25.570   1.279
57500W        W18866  43.342  29.627  11.882
57501W        W18867  33.554  43.352  11.417
57502W        W18868  10.323   1.827   2.226
57503W        W18869  31.969  22.532  12.027
57504W        W18870  31.646  12.693  13.979
57505W        W18871  10.294  10.320   2.395
57506W        W18872  23.733  13.720  11.922
57507W        W18873  28.672  40.522   2.181
57508W        W18874  26.544  44.005   2.387
57509W        W18875   8.826  21.121   4.168
57510W        W18876  39.032   8.865  12.958
57511W        W18877  24.572  36.901  13.963
57512W        W18878  21.077  36.368  13.325
57513W        W18879  34.432  34.590   2.699
57514W        W18880  37.890  31.012  10.460
57515W        W18881  42.395  23.093  11.520
57516W        W18882  40.850  14.694   2.860
57517W        W18883  19.772  43.413   4.813
57518W        W18884  10.362  15.139   1.274
57519W        W18885  44.850  15.297   1.698
57520W        W18886  44.332   3.438   0.461
57521W        W18887   9.367  27.536   2.321
57522W        W18888   0.426  44.441   4.807
57523W        W18889  11.226  39.511  14.448
57524W        W18890  12.856  15.266   0.475
57525W        W18891  11.807   3.711   1.449
57526W        W18892  23.004  36.984  14.280
57527W        W18893  21.181   7.224  10.560
57528W        W18894  36.593  17.762  11.417
57529W        W18895  19.622  30.558  12.425
57530W        W18896   2.331  20.701   3.716
57531W        W18897  39.473  16.770   4.341
57532W        W18898  44.926  14.811   3.331
57533W        W18899  42.845   4.242   1.289
57534W        W18900  13.740  20.711   0.338
57535W        W18901  22.509  44.847   1.805
57536W        W18902  19.157  44.784  13.488
57537W        W18903  34.086  37.486  11.511
57538W        W18904  40.482  38.855   9.949
57539W        W18905  22.088  32.616  13.502
57540W        W18906  33.063   1.447  13.907
57541W        W18907  40.803  41.853   4.204
57542W        W18908   8.387  29.110   0.455
57543W        W18909  12.318  44.392   2.867
57544W        W18910  18.562  12.285   3.656
57545W        W18911  21.747  21.083  10.516
57546W        W18912  37.446  14.244   2.684
57547W        W18913  27.195  44.462  13.419
57548W        W18914  38.498  25.610   4.119
57549W        W18915  39.016  30.420  10.463
57550W        W18916  22.117  17.582  14.499
57551W        W18917  15.738  41.988   3.308
57552W        W18918  44.867  24.677   3.802
57553W        W18919   4.392  14.611   5.229
57554W        W18920  22.199  11.859   4.687
57555W        W18921  42.290   9.206  14.347
57556W        W18922  41.379  20.699   3.240
57557W        W18923  38.538   7.351   4.238
57558W        W18924  34.528   2.238  11.054
57559W        W18925   9.750  42.525   1.754
57560W        W18926  23.211  17.296  13.411
57561W        W18927  41.519  42.786   2.178
57562W        W18928  39.501   7.728  10.593
57563W        W18929  23.059  10.283  14.997
57564W        W18930  38.536  11.300  13.019
57565W        W18931  28.578  41.526  14.347
57566W        W18932  34.879  35.886  13.827
57567W        W18933  34.903  26.146  14.862
57568W        W18934  40.912  18.130  12.580
57569W        W18935  37.415  37.532  13.378
57570W        W18936  33.874  23.508  14.301
57571W        W18937   2.788   4.449   3.631
57572W        W18938  41.347  13.308   4.151
57573W        W18939   1.340  36.903  13.346
57574W        W18940  27.007  32.913  12.341
57575W        W18941   4.270  36.446   1.215
57576W        W18942  38.070  10.325  11.903
57577W        W18943  18.280  23.039   4.266
57578W        W18944   3.386  32.002  14.908
57579W        W18945  35.432  40.306   1.249
57580W        W18946  30.428   1.874  14.483
57581W        W18947   1.883  43.963   3.660
57582W        W18948  44.981  33.582  13.905
57583W        W18949  40.870  36.989   3.273
57584W        W18950  17.673  19.759   1.257
57585W        W18951  35.585  26.603   4.768
57586W        W18952   7.304  41.450   4.178
57587W        W18953   7.389  35.525  11.438
57588W        W18954  41.511  10.223   4.276
57589W        W18955  23.092  21.113  10.454
57590W        W18956   3.357  42.956   5.104
57591W        W18957  39.314   8.716   2.370
57592W        W18958  33.061  41.866   4.147
57593W        W18959   7.376  14.337   0.835
57594W        W18960  36.908  26.607  12.019
57595W        W18961  25.498   1.930   2.295
57596W        W18962  29.144  38.336  12.427
57597W        W18963  41.884   6.407  13.308
57598W        W18964  28.546  15.133   3.746
57599W        W18965   9.830   0.404   4.178
57600W        W18966  32.512  21.625  13.909
57601W        W18967  38.041  35.378  12.870
57602W        W18968  41.420  11.658  10.432
57603W        W18969   8.780  33.895  12.502
57604W        W18970   8.827  37.557  14.456
57605W        W18971  16.211   3.926   1.878
57606W        W18972   7.210  17.133  13.482
57607W        W18973  14.159  44.274   0.859
57608W        W18974  17.773  26.041   3.313
57609W        W18975  18.687  14.698   3.851
57610W        W18976  13.257  21.734  13.399
57611W        W18977  10.206   5.286   0.866
57612W        W18978  35.366  37.991  10.549
57613W        W18979  23.489  17.584  13.905
57614W        W18980  27.645  42.916  12.026
57615W        W18981  41.884  34.062   3.816
57616W        W18982  10.638   5.806   2.354
57617W        W18983  11.136  12.834  10.915
57618W        W18984  41.813  10.379   5.286
57619W        W18985  11.678  11.645  11.388
57620W        W18986   3.438  15.176  14.852
57621W        W18987  23.507  19.601   1.822
57622W        W18988  33.551  16.803   1.430
57623W        W18989  21.578   2.741  13.460
57624W        W18990  23.230  38.964  10.504
57625W        W18991  36.979   7.296  14.424
57626W        W18992  30.418  29.564  12.987
57627W        W18993  29.042  38.390  13.547
57628W        W18994  16.782  28.678  10.480
57629W        W18995  30.021   2.339  14.431
57630W        W18996  23.540  24.571  11.897
57631W        W18997  25.120  40.934   3.783
57632W        W18998   7.354  33.540  11.963
57633W        W18999  33.878  13.770   3.670
57634W        W19000  31.907  24.621  10.934
57635W        W19001  34.506  40.410   0.876
57636W        W19002  44.504  26.990  10.944
57637W        W19003  16.110   2.827   3.362
57638W        W19004  13.640   6.285  12.051
57639W        W19005  33.053  32.023  10.492
57640W        W19006  37.492  17.800  10.413
57641W        W19007   7.175   3.431  10.900
57642W        W19008  28.459  22.677  10.065
57643W        W19009   7.825  26.605   4.351
57644W        W19010   1.746  26.128   5.229
57645W        W19011  18.235   2.848   4.314
57646W        W19012  16.181  34.569  14.962
57647W        W19013  41.939   2.457  11.021
57648W        W19014  41.516  19.261   4.126
57649W        W19015   6.815  32.048   4.239
57650W        W19016  12.637  12.299   3.674
57651W        W19017   0.332   4.368  12.870
57652W        W19018   7.224  17.622  11.468
57653W        W19019  42.409  38.394  14.279
57654W        W19020  41.429  25.585   4.748
57655W        W19021   3.863  16.745  14.460
57656W        W19022  24.170  44.999  12.368
57657W        W19023  20.634  25.628   2.395
57658W        W19024   6.686  17.290  13.062
57659W        W19025  20.699   6.904   4.654
57660W        W19026   6.695  11.178  11.855
57661W        W19027   0.360  32.508  13.862
57662W        W19028  14.672   6.391  13.516
57663W        W19029  16.119  27.659   1.790
57664W        W19030  16.315  12.222   0.291
57665W        W19031  24.060   4.241   1.784
57666W        W19032   2.276   5.789   2.368
57667W        W19033  20.248  14.310  10.906
57668W        W19034  11.354   7.860   4.317
57669W        W19035  13.639  33.450  14.397
57670W        W19036  14.786   8.232  13.450
57671W        W19037   0.373  39.061  14.885
57672W        W19038  14.741   2.855   0.785
57673W        W19039  15.299  32.990  11.872
57674W        W19040  19.660  44.011   2.664
57675W        W19041  12.209  32.137  14.342
57676W        W19042  34.866   5.836  12.838
57677W        W19043  20.585   1.882  12.453
57678W        W19044  29.489  21.136  11.539
57679W        W19045  19.678  24.220  12.475
57680W        W19046  40.894   9.178  14.381
57681W        W19047  43.496  22.607  14.414
57682W        W19048  39.821  15.726  12.440
57683W        W19049  11.297  11.267   2.841
57684W        W19050  17.706  16.783  13.326
57685W        W19051  19.224  12.622   2.774
57686W        W19052  11.830  22.040  12.842
57687W        W19053  28.115   7.275  10.568
57688W        W19054   7.260  27.998   2.671
57689W        W19055  26.665  35.439   0.919
57690W        W19056  37.565  17.717  14.485
57691W        W19057  12.642   6.323   1.772
57692W        W19058  39.438   3.814   4.264
57693W        W19059  41.344  10.159   2.840
57694W        W19060  14.168  15.800   1.910
57695W        W19061  10.281  26.127  10.590
57696W        W19062  34.536  27.547  14.866
57697W        W19063  20.169   2.463   4.322
57698W        W19064  18.095  19.760  10.530
57699W        W19065  37.433   9.188   3.726
57700W        W19066  23.070   1.764  14.808
57701W        W19067  38.557  44.303  13.920
57702W        W19068  20.039  23.620   4.120
57703W        W19069   7.205   4.932  13.910
57704W        W19070  21.741  15.170  14.370
57705W        W19071  41.331  10.298   3.699
57706W        W19072  27.536  12.352  12.506
57707W        W19073  12.645  11.856   2.721
57708W        W19074  12.294  19.122   3.774
57709W        W19075  40.432  17.752  12.992
57710W        W19076  28.657  21.551  14.335
57711W        W19077  14.675   0.757  12.952
57712W        W19078  10.380  37.533   5.245
57713W        W19079  38.351  29.040  13.875
57714W        W19080   7.803  16.305   0.461
57715W        W19081  43.986  34.092   1.702
57716W        W19082  43.380  35.603   4.824
57717W        W19083  14.201  43.488  11.503
57718W        W19084   3.317  29.594  12.089
57719W        W19085  29.559   0.941   0.260
57720W        W19086  19.546   0.941   1.770
57721W        W19087  35.856  21.034   1.435
57722W        W19088  42.523   0.804  14.418
57723W        W19089  27.047   7.286   9.960
57724W        W19090  25.153  31.120  10.002
57725W        W19091  42.796  13.664   1.349
57726W        W19092  38.962  39.978   1.272
57727W        W19093  31.971  19.670  11.886
57728W        W19094  31.525  35.563   1.283
57729W        W19095   3.349   6.803   0.313
57730W        W19096  22.664  28.625  12.009
57731W        W19097  24.148  41.473  11.077
57732W        W19098  25.018  32.943   4.238
57733W        W19099  13.735  14.099   1.360
57734W        W19100  12.849  38.351  11.950
57735W        W19101  33.070  38.380  12.900
57736W        W19102   6.411   3.375   1.298
57737W        W19103  30.546  31.030  11.883
57738W        W19104   0.954  22.233  10.547
57739W        W19105  15.732   3.443   9.986
57740W        W19106  41.877  33.886  11.007
57741W        W19107  33.029  41.435  13.810
57742W        W19108   2.261   2.242   4.115
57743W        W19109  29.564  26.130   1.213
57744W        W19110  17.184   4.239  12.828
57745W        W19111  14.149   0.854   0.877
57746W        W19112  13.773  33.432   0.418
57747W        W19113  37.357  39.521   4.267
57748W        W19114  13.308  30.507   2.748
57749W        W19115   4.285  22.561  12.993
57750W        W19116  42.850  31.541  13.033
57751W        W19117  14.242   9.854  14.953
57752W        W19118  17.243  33.031  14.870
57753W        W19119  40.413   0.840   1.707
57754W        W19120  34.434  11.280   3.695
57755W        W19121  43.815   9.345  12.924
57756W        W19122  11.257  32.555   2.361
57757W        W19123  44.483  43.304   4.224
57758W        W19124   9.889  28.108  14.840
57759W        W19125   6.342   1.272  14.938
57760W        W19126  23.058  12.316  11.062
57761W        W19127   2.397  20.541  14.368
57762W        W19128  27.975  11.255  12.369
57763W        W19129   9.305  23.137   0.446
57764W        W19130   4.777  28.595   4.836
57765W        W19131  14.706  42.867  12.373
57766W        W19132   3.901   6.890   3.186
57767W        W19133  18.140  14.244   9.576
57768W        W19134  43.906  44.909   3.305
57769W        W19135  27.037  34.083  10.625
57770W        W19136  39.838   9.282  12.435
57771W        W19137  27.606  30.607  10.969
57772W        W19138  16.774  25.488   4.740
57773W        W19139  14.100   9.305   3.713
57774W        W19140  44.911  39.032   3.787
57775W        W19141  20.178  39.332   4.807
57776W        W19142   5.282  38.944  14.012
57777W        W19143  17.589  35.991   2.712
57778W        W19144   6.735  10.269   1.771
57779W        W19145  11.173  36.551   0.947
57780W        W19146   2.302  37.523   0.963
57781W        W19147   0.354  28.123  14.807
57782W        W19148  44.850  39.065   2.256
57783W        W19149  12.644  23.023  11.542
57784W        W19150  11.182   4.771  12.480
57785W        W19151   9.175  20.605   1.226
57786W        W19152  34.894  31.905   0.378
57787W        W19153   5.847  14.097  13.995
57788W        W19154  42.888  31.949   4.701
57789W        W19155  39.876  29.130   3.254
57790W        W19156  35.373   8.759   2.716
57791W        W19157   1.860  18.278  11.588
57792W        W19158   5.289  25.084  13.853
57793W        W19159  40.024  44.426  13.458
57794W        W19160  36.063   9.776   0.930
57795W        W19161  32.921  19.180  14.896
57796W        W19162  34.928  39.916   2.279
57797W        W19163  37.519  23.504  14.937
57798W        W19164  20.689  17.591   0.786
57799W        W19165  38.398  27.972  14.357
57800W        W19166  13.305  39.389   2.191
57801W        W19167  41.790  12.164  10.468
57802W        W19168   3.337  40.362  14.499
57803W        W19169   9.342  18.288  13.019
57804W        W19170  29.612  24.684   0.779
57805W        W19171  18.218  10.830   2.870
57806W        W19172  28.671  44.885  10.457
57807W        W19173  16.219  38.425   4.251
57808W        W19174  33.574  18.097  12.363
57809W        W19175  41.388  39.927  13.900
57810W        W19176  35.467  17.185   3.255
57811W        W19177  21.237  12.118  13.964
57812W        W19178  20.254  33.131   3.205
57813W        W19179   2.451   0.756   4.156
57814W        W19180   7.273  16.258   3.315
57815W        W19181  33.876   3.344   3.297
57816W        W19182  35.596   8.305  11.079
57817W        W19183  11.192  10.777  14.501
57818W        W19184  27.045  28.604   3.231
57819W        W19185   3.400  26.185  11.949
57820W        W19186  38.451  34.026  11.509
57821W        W19187  11.633  39.420   0.357
57822W        W19188  43.917  20.029  13.918
57823W        W19189  19.051  40.926  14.473
57824W        W19190   4.920  31.095   4.224
57825W        W19191  21.599   2.348   2.279
57826W        W19192  16.636  34.371  12.053
57827W        W19193  25.156  24.135   0.318
57828W        W19194  36.395  27.981  13.055
57829W        W19195  22.248   8.675  11.095
57830W        W19196  32.523  43.940   0.247
57831W        W19197   1.881   9.239  14.379
57832W        W19198  19.568  43.493  12.020
57833W        W19199  40.362  10.858   2.712
57834W        W19200   0.248  14.246  14.455
57835W        W19201  18.130  18.054   1.394
57836W        W19202  26.638   4.719  13.847
57837W        W19203  20.159  40.925   0.258
57838W        W19204  42.401  44.404  10.436
57839W        W19205  34.118  35.587   4.739
57840W        W19206  41.484   3.299  11.545
57841W        W19207  26.023  30.926  12.580
57842W        W19208  29.009  19.129   1.721
57843W        W19209  15.719  40.381   0.248
57844W        W19210  35.923   8.228  11.483
57845W        W19211  36.913  10.768   2.184
57846W        W19212   7.340  39.342   2.350
57847W        W19213  23.693   2.742  14.326
57848W        W19214  18.180  30.426  11.864
57849W        W19215   8.365   3.234   2.362
57850W        W19216  18.169  35.079  13.006
57851W        W19217  44.416  31.910  14.897
57852W        W19218  42.347  34.073   1.291
57853W        W19219   8.351  11.140   2.662
57854W        W19220  20.685  36.579   2.792
57855W        W19221  42.809  25.550   1.354
57856W        W19222  39.477  13.702  13.861
57857W        W19223  30.587  21.075   3.188
57858W        W19224  28.089  36.445   2.394
57859W        W19225  25.552  28.135  12.011
57860W        W19226  40.853  24.663   0.472
57861W        W19227  14.644  29.173  13.434
57862W        W19228  23.182   5.206   0.810
57863W        W19229  41.909  36.494  13.832
57864W        W19230   2.760  10.801  12.479
57865W        W19231  43.284   8.345   4.654
57866W        W19232  10.205   5.272  11.413
57867W        W19233  44.776  26.206  12.357
57868W        W19234  42.804  11.133  11.381
57869W        W19235  11.276  33.626   0.317
57870W        W19236  18.772   0.449  14.831
57871W        W19237  42.441  32.098  14.030
57872W        W19238  38.916  16.161   3.749
57873W        W19239  31.572   8.704   3.643
57874W        W19240   9.783   4.343  10.517
57875W        W19241  19.254  41.506  12.919
57876W        W19242  31.539  22.112  12.041
57877W        W19243  12.330  24.010  11.914
57878W        W19244  18.109  32.085  11.085
57879W        W19245  26.076   6.706   5.216
57880W        W19246  39.881  30.052   4.666
57881W        W19247   6.230   1.977   1.843
57882W        W19248  22.671  16.297  14.281
57883W        W19249  30.585  12.191  14.326
57884W        W19250   4.209  19.048  13.432
57885W        W19251  12.790  14.804   3.188
57886W        W19252  24.691  30.051  14.999
57887W        W19253  43.515  29.022  11.903
57888W        W19254  43.381  31.144  12.832
57889W        W19255   2.451  12.234  12.574
57890W        W19256  31.428   5.214   2.697
57891W        W19257   8.849  15.767  10.888
57892W        W19258   4.835  33.022  11.055
57893W        W19259   2.305   4.432   1.287
57894W        W19260  26.204  37.372  13.891
57895W        W19261  10.242   2.800  11.463
57896W        W19262  13.122  21.234   4.813
57897W        W19263   9.338  36.083  12.834
57898W        W19264   9.658  28.671   0.413
57899W        W19265  12.225   8.167   3.155
57900W        W19266  32.896   9.197   1.722
57901W        W19267  26.545  10.808  12.519
57902W        W19268  31.930   7.889   4.305
57903W        W19269  10.365  10.297   0.835
57904W        W19270  34.504  35.596  12.472
57905W        W19271  27.496  25.988  11.088
57906W        W19272  32.917  37.045   0.441
57907W        W19273  31.921  35.520  10.972
57908W        W19274  24.551  33.085   3.792
57909W        W19275   1.967  10.706  10.982
57910W        W19276  16.283  32.499  10.154
57911W        W19277   1.862   5.236   2.874
57912W        W19278  32.073   6.686  13.440
57913W        W19279  36.471  16.647  13.799
57914W        W19280  27.003  11.316  14.886
57915W        W19281  26.167  27.014   1.724
57916W        W19282  44.407   5.242  10.546
57917W        W19283  15.776  41.538  10.997
57918W        W19284  29.091  30.413   4.639
57919W        W19285  35.517  26.626   0.348
57920W        W19286  13.277  23.174   0.323
57921W        W19287  38.894  39.525  13.871
57922W        W19288   7.325  32.960   4.324
57923W        W19289  12.125  45.000  11.894
57924W        W19290  31.047  15.291   4.261
57925W        W19291   8.837   8.342   2.699
57926W        W19292  40.423   5.316  12.942
57927W        W19293  39.912   9.306  10.515
57928W        W19294  13.147  25.571  10.517
57929W        W19295  33.549  39.444  12.394
57930W        W19296   1.337   2.795   0.833
57931W        W19297  32.535  13.147  13.338
57932W        W19298   9.211  34.081   1.915
57933W        W19299  12.298   9.660   0.763
57934W        W19300  18.201  33.931   1.930
57935W        W19301   6.244  23.638  14.489
57936W        W19302   9.751   8.828  12.998
57937W        W19303   5.743  32.888  12.445
57938W        W19304  36.896  37.428   2.194
57939W        W19305  29.639   0.877   4.114
57940W        W19306  42.524  14.607  11.980
57941W        W19307  15.800   5.276  13.990
57942W        W19308  41.344  44.786   2.262
57943W        W19309  23.668   2.460   1.811
57944W        W19310  44.876   0.351   3.766
57945W        W19311  22.249  37.938   3.633
57946W        W19312  24.051  27.449  13.006
57947W        W19313  33.040  32.039   5.222
57948W        W19314   3.730  43.810   0.960
57949W        W19315  36.531  38.861   4.777
57950W        W19316  15.216  33.394  12.483
57951W        W19317   5.385   6.302   4.614
57952W        W19318  17.579  32.031  12.428
57953W        W19319   4.726   9.244  11.088
57954W        W19320  31.622  44.302   2.211
57955W        W19321  23.202  32.027   3.793
57956W        W19322  42.357  13.225   2.259
57957W        W19323  39.417  28.934  13.881
57958W        W19324   5.353  33.472   4.350
57959W        W19325  36.449  40.808  11.485
57960W        W19326  25.569   1.276   0.876
57961W        W19327  23.006  39.334  10.434
57962W        W19328  24.562  20.184   3.737
57963W        W19329  42.400  30.553  14.309
57964W        W19330  26.495  25.637   4.263
57965W        W19331  42.420  26.129  13.834
57966W        W19332   5.393   3.219  13.379
57967W        W19333  21.033  19.192  10.405
57968W        W19334   9.829   7.313   2.383
57969W        W19335  38.379   1.379  14.371
57970W        W19336  16.191  12.829   5.711
57971W        W19337  41.024  20.086  11.904
57972W        W19338  37.974  44.008  10.980
57973W        W19339  16.811  22.104  12.574
57974W        W19340   1.297  24.162  14.326
57975W        W19341  15.688  15.189  12.983
57976W        W19342  23.091  34.083   4.682
57977W        W19343  34.464  20.213  12.838
57978W        W19344   6.807   6.908  12.085
57979W        W19345  37.020  29.965  12.525
57980W        W19346  16.231  43.935   1.220
57981W        W19347   7.802   0.293   2.766
57982W        W19348  30.513   1.974   1.755
57983W        W19349  41.885  44.367  14.968
57984W        W19350  12.189  43.861   0.341
57985W        W19351  18.567  42.401  13.365
57986W        W19352  19.268   7.759  12.512
57987W        W19353  15.666  41.903   5.121
57988W        W19354  44.327  15.655   4.761
57989W        W19355  44.360  20.132   1.824
57990W        W19356  33.007  12.124  12.450
57991W        W19357  32.502   8.189  11.884
57992W        W19358  35.953  13.114   5.113
57993W        W19359  17.799  10.671  13.351
57994W        W19360   6.818  24.634  13.870
57995W        W19361   5.358   0.783  12.019
57996W        W19362   6.793  41.537   4.798
57997W        W19363  17.112   8.847   3.231
57998W        W19364  33.414  13.645   4.740
57999W        W19365  19.108  20.133   1.373
58000W        W19366  37.030  42.317  11.583
58001W        W19367   7.314   9.385  11.015
58002W        W19368  40.864  26.955   2.280
58003W        W19369  25.636  25.088   3.801
58004W        W19370  33.911  44.903  11.495
58005W        W19371  39.061   2.960  12.855
58006W        W19372  40.369  15.819  12.833
58007W        W19373  14.116   2.360   3.361
58008W        W19374  11.641  44.857   4.677
58009W        W19375  37.542  25.519  12.482
58010W        W19376   7.718  43.381  13.963
58011W        W19377  14.296  44.861  13.923
58012W        W19378  39.840  27.112   1.303
58013W        W19379  23.101  34.586   1.760
58014W        W19380  25.140  17.151  13.990
58015W        W19381  23.070  37.007   2.778
58016W        W19382  16.585  10.374   2.297
58017W        W19383  26.482  34.943   4.273
58018W        W19384  20.643   9.257   2.179
58019W        W19385  37.444  38.886  14.331
58020W        W19386  23.003  24.724  12.946
58021W        W19387  30.531  17.214   3.282
58022W        W19388  17.205   2.771   9.946
58023W        W19389  39.835   2.237   1.891
58024W        W19390  19.761   7.745   4.276
58025W        W19391  22.732  18.778   1.434
58026W        W19392  36.545   9.699   4.352
58027W        W19393  38.385  23.001  10.464
58028W        W19394  20.721   7.385   4.221
58029W        W19395  30.625  36.076  11.881
58030W        W19396   4.205  13.306   0.928
58031W        W19397  40.896  38.978  11.584
58032W        W19398  11.234  30.989   0.814
58033W        W19399  38.336   2.746   1.906
58034W        W19400  14.694  15.652   3.188
58035W        W19401  24.659  21.708   3.228
58036W        W19402  41.439  22.172  11.060
58037W        W19403   6.368  38.382  12.465
58038W        W19404   5.409  41.889   1.405
58039W        W19405  26.502  25.980   5.678
58040W        W19406  25.127  26.637   1.412
58041W        W19407  44.469  23.694  12.967
58042W        W19408  39.852  30.072  12.400
58043W        W19409  39.998  28.591   3.243
58044W        W19410   9.787   6.383  14.993
58045W        W19411  17.261   2.726   0.443
58046W        W19412  43.768  19.120   2.363
58047W        W19413  11.702  43.863  14.515
58048W        W19414  27.611  13.177   0.330
58049W        W19415  38.982   3.857  11.079
58050W        W19416  31.534  23.108  14.816
58051W        W19417  34.459  24.213   4.249
58052W        W19418  38.973   2.471  11.537
58053W        W19419   8.325   2.274   2.782
58054W        W19420  36.357   3.414   1.805
58055W        W19421   2.361  35.448   1.348
58056W        W19422  34.085  29.602   2.414
58057W        W19423   8.745  22.743  12.384
58058W        W19424  15.811  44.365   3.821
58059W        W19425  27.054  14.669   1.233
58060W        W19426  28.067  34.382  14.997
58061W        W19427  18.659  24.722  10.996
58062W        W19428   8.372  36.352  13.927
58063W        W19429  19.079  12.318   3.646
58064W        W19430  26.016   6.223   0.806
58065W        W19431  29.514   2.304   3.247
58066W        W19432  23.628  36.448   1.712
58067W        W19433   8.810  33.536   1.721
58068W        W19434  35.576  35.474  14.988
58069W        W19435   9.311  36.962  10.893
58070W        W19436  24.619  40.832  14.388
58071W        W19437  31.140  24.543   1.702
58072W        W19438  17.702  21.524   2.289
58073W        W19439   7.749  37.500  12.450
58074W        W19440  31.085  41.978   3.856
58075W        W19441  34.090  38.855  13.370
58076W        W19442  26.586  20.563  11.944
58077W        W19443  19.119   7.271   4.701
58078W        W19444  40.419  31.005  11.038
58079W        W19445  20.082  32.015   1.735
58080W        W19446   3.890  13.154  13.839
58081W        W19447  38.069  35.068  11.008
58082W        W19448  28.655  22.649   3.150
58083W        W19449  12.753   5.268   2.852
58084W        W19450  42.808   4.270  14.011
58085W        W19451  27.503  21.220  14.487
58086W        W19452  28.456  33.604   0.379
58087W        W19453  39.510  33.457  11.887
58088W        W19454  36.408   0.369  12.556
58089W        W19455   9.660  34.445   1.889
58090W        W19456   7.736   5.226  10.603
58091W        W19457   9.821  25.127   4.676
58092W        W19458  28.959  38.511  13.796
58093W        W19459  23.024  20.076   0.341
58094W        W19460  29.951  17.172   0.955
58095W        W19461  27.593   1.842  14.837
58096W        W19462  33.920  24.677  13.476
58097W        W19463  44.846  27.644   1.819
58098W        W19464  11.829  12.777  11.993
58099W        W19465  32.900  26.002   1.729
58100W        W19466  31.945  19.705   0.361
58101W        W19467  18.550  36.560   3.365
58102W        W19468   5.201  37.534  11.590
58103W        W19469  31.045  44.891  10.998
58104W        W19470  36.526  29.101   0.424
58105W        W19471   0.251  20.173  13.322
58106W        W19472  42.823  43.968  14.405
58107W        W19473  31.402  38.859  12.459
58108W        W19474   6.813  25.552  11.919
58109W        W19475   9.368   8.684  11.565
58110W        W19476   1.834  24.012   4.642
58111W        W19477  30.073  29.981   1.409
58112W        W19478  28.176   1.362  14.851
58113W        W19479  34.518  28.601   0.867
58114W        W19480  42.305   9.796  13.973
58115W        W19481  12.845   6.356  13.866
58116W        W19482   2.952  38.946   3.171
58117W        W19483  30.521  26.122  12.085
58118W        W19484  21.154   3.288   5.216
58119W        W19485  26.057  31.983   2.875
58120W        W19486  15.262  11.351   2.855
58121W        W19487  13.756  29.660   2.276
58122W        W19488  11.698  39.332   1.774
58123W        W19489  19.161  27.511  10.612
58124W        W19490  13.780  16.732  13.430
58125W        W19491  30.986  16.703  14.983
58126W        W19492  27.487  43.984  12.912
58127W        W19493  35.003  13.786   1.766
58128W        W19494  18.155  35.479   4.215
58129W        W19495  29.044  27.190   1.284
58130W        W19496  36.497  34.505  14.895
58131W        W19497  41.363  29.918  13.459
58132W        W19498  31.979  44.774  14.375
58133W        W19499   2.374  20.202  10.570
58134W        W19500  20.106  32.968   2.755
58135W        W19501   4.245   2.263  12.040
58136W        W19502   6.277  17.166  13.036
58137W        W19503  31.429  18.557  14.863
58138W        W19504  24.672  43.472  14.340
58139W        W19505   6.777  43.391   4.642
58140W        W19506   1.747  44.311   4.296
58141W        W19507  43.833  23.722  13.916
58142W        W19508  10.174  12.142   0.386
58143W        W19509  34.451   9.367  14.407
58144W        W19510  24.168  38.435  11.598
58145W        W19511   0.429  19.739   4.805
58146W        W19512   2.361  20.651  12.439
58147W        W19513  40.521  41.514   0.961
58148W        W19514  28.016  30.934  10.623
58149W        W19515  11.692  26.054  14.945
58150W        W19516  38.867  15.291  13.394
58151W        W19517  30.115   0.823   4.660
58152W        W19518  14.704   0.397  10.051
58153W        W19519  44.879  23.241  14.478
58154W        W19520  33.424  37.398   3.825
58155W        W19521  32.508  24.686   3.836
58156W        W19522  34.479  33.576  10.461
58157W        W19523  42.782  35.562  10.562
58158W        W19524  11.814  25.676   2.669
58159W        W19525   3.261   2.232   3.325
58160W        W19526  24.642  41.844   0.964
58161W        W19527  28.973  27.542   5.105
58162W        W19528  43.871  27.487   4.830
58163W        W19529  27.516   5.693   3.866
58164W        W19530   6.284   1.356  11.398
58165W        W19531   3.392  24.168  12.482
58166W        W19532  31.613   4.365  12.038
58167W        W19533   4.399  12.134  14.854
58168W        W19534   4.232  18.161   2.406
58169W        W19535  26.594  18.120   5.177
58170W        W19536  42.833  44.296   2.711
58171W        W19537  35.565  28.626  14.428
58172W        W19538  23.644   0.927  13.448
58173W        W19539  33.117  28.676  14.924
58174W        W19540   6.231  30.108   1.414
58175W        W19541  12.726  22.020  13.498
58176W        W19542  36.513  15.213   1.257
58177W        W19543  31.067  23.150   1.783
58178W        W19544   4.769  19.660   4.277
58179W        W19545  35.405  24.193   2.835
58180W        W19546  25.038  43.957  13.876
58181W        W19547  24.669   3.930  12.964
58182W        W19548  10.361  31.095  10.947
58183W        W19549  12.724  41.449   1.424
58184W        W19550  26.085   0.873   0.939
58185W        W19551  27.524   2.443   3.176
58186W        W19552  21.262  31.523  13.325
58187W        W19553  14.694  18.264  11.505
58188W        W19554  35.593  14.608  14.997
58189W        W19555  43.833  21.043   1.774
58190W        W19556   4.293   5.829  11.598
58191W        W19557  44.883   1.425  13.438
58192W        W19558  24.481  38.414  13.881
58193W        W19559   2.948   8.397  10.640
58194W        W19560  36.023  30.635  13.021
58195W        W19561  11.651  33.390  12.927
58196W        W19562  36.563  15.167  14.938
58197W        W19563   1.440  36.881  12.829
58198W        W19564  18.243  11.841  14.420
58199W        W19565  24.695  22.091   4.731
58200W        W19566  34.596  28.591   1.382
58201W        W19567  26.968   5.214   0.332
58202W        W19568  16.158  24.988   0.393
58203W        W19569  41.906  31.126   4.191
58204W        W19570   5.691  40.899   0.864
58205W        W19571  22.737  16.240  13.440
58206W        W19572  27.155  22.040  12.833
58207W        W19573  43.837  31.979   2.754
58208W        W19574  34.878   8.843  11.066
58209W        W19575  22.578  44.005  13.041
58210W        W19576  36.971  26.103  12.001
58211W        W19577  27.620   5.717   3.295
58212W        W19578  19.732   7.669  14.514
58213W        W19579  13.749  13.795  12.512
58214W        W19580  35.972  38.973  13.952
58215W        W19581   1.933  10.286   3.371
58216W        W19582  21.731   4.808  14.331
58217W        W19583  30.476  30.499   1.728
58218W        W19584  40.834  24.994   1.786
58219W        W19585  25.110  27.525   3.211
58220W        W19586  30.073   8.173   0.422
58221W        W19587  11.821   0.400  10.589
58222W        W19588  26.198  23.594  11.969
58223W        W19589   7.750  43.381   0.255
58224W        W19590  20.200  21.038  13.881
58225W        W19591  17.171  43.843   3.680
58226W        W19592  43.365  19.207   0.904
58227W        W19593   1.821   0.310  13.828
58228W        W19594  41.008  22.742  14.855
58229W        W19595  30.953  38.956   3.323
58230W        W19596  10.696  31.443  14.374
58231W        W19597  24.038  19.653   2.203
58232W        W19598   2.448  17.670   2.244
58233W        W19599  28.460   7.897  12.065
58234W        W19600  15.287   4.801   1.839
58235W        W19601  17.801  23.002   0.898
58236W        W19602  14.231  25.145   2.278
58237W        W19603  18.274  29.059   3.348
58238W        W19604  37.418  27.117  14.353
58239W        W19605  14.223   0.784  10.965
58240W        W19606   5.405  43.789  11.937
58241W        W19607  42.526  30.533  14.007
58242W        W19608   3.742  21.029   0.842
58243W        W19609   4.754  39.338  11.598
58244W        W19610   9.690  22.101  10.549
58245W        W19611  22.063  21.659   2.278
58246W        W19612  39.065   8.334   1.223
58247W        W19613  10.197  27.187   3.834
58248W        W19614  25.714   4.331   0.313
58249W        W19615  18.084   0.921  14.474
58250W        W19616  35.042   1.430   2.869
58251W        W19617  33.908  25.656   3.733
58252W        W19618   2.238  23.576   4.670
58253W        W19619  44.264   2.431  13.922
58254W        W19620  37.339  36.582  11.420
58255W        W19621   9.654   2.813   1.356
58256W        W19622  35.581  26.138  14.028
58257W        W19623  18.710  16.750   3.226
58258W        W19624  20.198  25.061   2.201
58259W        W19625  36.863  21.641   2.308
58260W        W19626  24.621  37.083  14.777
58261W        W19627  13.219  39.945   2.387
58262W        W19628  13.107  30.151  13.845
58263W        W19629  42.825   5.900   1.328
58264W        W19630  39.974  32.107  13.330
58265W        W19631   4.380  40.820  11.520
58266W        W19632  38.873  36.587  11.973
58267W        W19633  25.508  11.724  10.540
58268W        W19634  10.168  19.089   4.646
58269W        W19635  22.527  16.080  11.989
58270W        W19636  41.449  25.192   4.174
58271W        W19637  16.742  16.143  11.514
58272W        W19638  28.645   5.690   1.433
58273W        W19639  19.094   0.390   2.311
58274W        W19640  31.402  11.353   0.817
58275W        W19641   8.211  24.480   2.375
58276W        W19642  24.713   9.758  13.029
58277W        W19643  10.174  23.096  12.040
58278W        W19644  23.719  40.548   4.616
58279W        W19645  37.502  11.259   2.179
58280W        W19646  27.550  10.147  12.555
58281W        W19647  26.096  24.111   1.839
58282W        W19648  38.403   6.815  11.406
58283W        W19649  41.040  39.395   4.318
58284W        W19650   3.459  15.135   4.741
58285W        W19651  38.974  28.931  13.963
58286W        W19652  10.670   8.361   2.885
58287W        W19653  12.166  41.901   3.209
58288W        W19654  25.519  14.635  12.036
58289W        W19655  12.338  30.499   1.784
58290W        W19656  24.115  12.611  10.111
58291W        W19657  21.250  20.706   2.354
58292W        W19658  35.887   1.804   0.262
58293W        W19659  16.212  21.199   1.915
58294W        W19660  22.149  16.292  14.797
58295W        W19661  29.152  27.529   3.333
58296W        W19662  41.450  44.494   1.930
58297W        W19663  12.164  20.223  12.001
58298W        W19664  24.167   7.895   1.718
58299W        W19665  25.610  33.613  13.063
58300W        W19666   6.254  42.802   3.252
58301W        W19667  35.020  12.686  13.888
58302W        W19668  41.038  40.402   4.795
58303W        W19669   5.700  18.272   9.580
58304W        W19670  19.044  14.833   3.323
58305W        W19671  33.603  32.108   1.763
58306W        W19672  10.373   9.396  14.935
58307W        W19673  23.612  39.908  10.617
58308W        W19674   9.391  20.229  12.978
58309W        W19675  35.066  11.348  14.966
58310W        W19676  24.979  42.426  11.393
58311W        W19677  27.970  24.187   3.215
58312W        W19678  32.476  32.045   0.480
58313W        W19679  32.507  39.862  13.529
58314W        W19680  27.502   5.701  11.019
58315W        W19681  28.099  11.234   1.811
58316W        W19682  20.114  22.512  10.449
58317W        W19683  31.081   6.717  10.918
58318W        W19684  13.113  38.867  13.868
58319W        W19685   8.376  25.574   2.822
58320W        W19686  42.459  34.604   2.415
58321W        W19687  22.714  31.034  11.095
58322W        W19688  14.606  22.144   1.342
58323W        W19689  34.033  27.000   1.708
58324W        W19690  27.670   6.400   4.161
58325W        W19691  10.798  20.127   2.296
58326W        W19692  14.274  36.434  13.879
58327W        W19693  36.400  19.772   0.390
58328W        W19694  17.690   2.771   3.308
58329W        W19695  42.032  24.644  10.547
58330W        W19696  23.736   0.375  13.503
58331W        W19697   9.746  18.739   2.402
58332W        W19698   7.817  25.145   5.152
58333W        W19699  19.192   3.453  13.047
58334W        W19700  33.583  29.138  11.582
58335W        W19701  10.776  17.603   3.795
58336W        W19702  40.956   7.352  11.433
58337W        W19703  19.171   7.877   4.671
58338W        W19704   6.802   5.358  14.829
58339W        W19705  10.328  13.785  10.931
58340W        W19706  10.200  41.407   0.769
58341W        W19707   3.284  15.623   5.256
58342W        W19708  34.993   1.763  13.994
58343W        W19709  30.963  14.643   2.816
58344W        W19710  32.981  16.202   3.705
58345W        W19711  25.138  43.824  14.807
58346W        W19712  36.505  40.440   5.768
58347W        W19713  14.218  24.213   3.167
58348W        W19714   0.918  27.556  13.517
58349W        W19715   6.851   3.341  13.792
58350W        W19716   0.929   3.456  13.816
58351W        W19717  35.022  12.235   4.133
58352W        W19718   1.266  36.896  13.919
58353W        W19719  24.712   3.244   2.405
58354W        W19720  40.987  15.108   3.350
58355W        W19721  15.168   7.672   1.435
58356W        W19722   2.274  35.557  11.984
58357W        W19723  39.025  37.364  12.005
58358W        W19724  26.085   9.378  12.895
58359W        W19725  35.434  29.169  14.437
58360W        W19726   9.300  28.077   1.774
58361W        W19727  27.646   6.889  12.383
58362W        W19728  17.573  17.113   1.756
58363W        W19729  16.700  29.990   0.311
58364W        W19730  25.650   0.262   2.847
58365W        W19731  40.802   4.842   4.780
58366W        W19732  14.213   2.421  11.987
58367W        W19733  27.196  40.348   2.346
58368W        W19734  13.159  19.236  10.962
58369W        W19735  15.156  26.083  10.972
58370W        W19736  39.431  37.838  12.009
58371W        W19737  44.490  39.904   0.799
58372W        W19738  22.614  12.700   3.700
58373W        W19739   3.444  12.168   1.789
58374W        W19740  24.659  13.336   2.878
58375W        W19741  28.660  10.190  10.065
58376W        W19742   0.310  32.550   2.225
58377W        W19743   5.691  20.547   3.718
58378W        W19744   3.824  22.676   4.614
58379W        W19745  34.403  25.478   2.305
58380W        W19746  15.327  42.362  10.919
58381W        W19747  41.922   0.889   0.868
58382W        W19748   5.259  37.351   3.260
58383W        W19749  21.599  23.717   1.407
58384W        W19750  34.392  32.407   4.807
58385W        W19751   6.191   5.689   2.225
58386W        W19752  12.769   2.737   0.801
58387W        W19753  35.905  24.518   3.829
58388W        W19754  13.279  14.315  12.901
58389W        W19755  30.441  38.373  12.902
58390W        W19756  29.166   6.358  13.874
58391W        W19757   2.387   5.215   4.174
58392W        W19758  15.114   2.327  12.082
58393W        W19759  23.501   9.849  11.531
58394W        W19760  33.073  36.912  12.510
58395W        W19761  27.097  13.123   0.820
58396W        W19762  39.494   0.916  14.282
58397W        W19763  18.171   9.714  11.974
58398W        W19764  11.803  30.418  10.451
58399W        W19765  18.755  39.491  13.027
58400W        W19766   8.301  12.635   4.241
58401W        W19767  16.112   5.269   4.141
58402W        W19768  24.193  34.866  14.956
58403W        W19769  19.630   9.660   2.899
58404W        W19770  24.143   1.791   4.639
58405W        W19771  19.675  42.425   0.876
58406W        W19772  36.464  22.562   4.834
58407W        W19773  36.552  31.120  14.955
58408W        W19774  39.922  18.291   4.788
58409W        W19775   5.701   3.887  10.584
58410W        W19776  25.033  29.591  12.391
58411W        W19777  36.991  34.583  14.413
58412W        W19778  35.929  32.912  11.442
58413W        W19779  41.795  38.992  13.541
58414W        W19780   3.275  20.712  11.593
58415W        W19781   3.216   2.403  14.856
58416W        W19782  33.577  39.937   1.323
58417W        W19783  24.567   4.777  12.093
58418W        W19784  37.539  25.189  10.889
58419W        W19785  32.562  10.691  14.432
58420W        W19786   3.403  44.871   0.820
58421W        W19787  36.885  42.978   0.807
58422W        W19788  12.689   9.265  10.616
58423W        W19789  36.865  44.360   1.747
58424W        W19790   7.891   4.857  11.549
58425W        W19791  37.047  37.904   2.390
58426W        W19792  23.681  27.042   3.216
58427W        W19793   9.853  20.645  10.500
58428W        W19794   6.855  11.840  10.437
58429W        W19795  33.484   5.328  12.551
58430W        W19796   3.831  10.272   4.655
58431W        W19797  16.732  11.159  12.959
58432W        W19798  38.838  27.056   2.294
58433W        W19799   8.201  16.103  14.023
58434W        W19800  31.617  18.658  11.893
58435W        W19801   3.908   9.729   3.177
58436W        W19802  24.144  30.984  11.942
58437W        W19803  22.538  36.888  13.460
58438W        W19804  16.796   4.238   2.331
58439W        W19805  18.164  33.404   3.825
58440W        W19806   2.949  37.412  13.392
58441W        W19807   1.243  19.042  12.050
58442W        W19808  22.237  36.391  11.601
58443W        W19809  39.974  32.512  12.346
58444W        W19810  20.179   0.440   1.858
58445W        W19811  34.605  30.923   1.440
58446W        W19812  44.835  37.848   2.297
58447W        W19813  37.868  36.095   5.190
58448W        W19814  20.724  25.535  11.031
58449W        W19815  35.372   9.395  11.539
58450W        W19816  30.560   2.766   3.149
58451W        W19817  40.992  11.256   2.362
58452W        W19818  40.522  27.062  11.088
58453W        W19819   0.464  17.141   1.236
58454W        W19820  28.013  11.280  10.008
58455W        W19821  29.018   4.385  13.431
58456W        W19822  28.510  18.788  13.467
58457W        W19823   3.810   7.223  14.023
58458W        W19824  24.104  41.042   0.473
58459W        W19825  17.244   4.886  12.352
58460W        W19826   9.239  29.513   1.335
58461W        W19827  44.467  44.335   0.828
58462W        W19828  34.008  20.191  11.985
58463W        W19829  19.555  44.817   2.683
58464W        W19830  30.028  26.645  11.909
58465W        W19831  18.637  25.588   3.237
58466W        W19832  29.018   1.258  12.002
58467W        W19833   8.243  13.652  12.468
58468W        W19834   1.892   0.462   3.785
58469W        W19835  13.335  24.023  12.486
58470W        W19836  28.024   9.317   1.282
58471W        W19837  10.684  18.103  12.478
58472W        W19838  10.220  29.449   0.336
58473W        W19839  22.746  31.971   1.901
58474W        W19840   4.715   9.232   0.259
58475W        W19841  26.121  32.476   4.200
58476W        W19842  24.091  43.883  13.385
58477W        W19843  12.263  16.107  11.440
58478W        W19844  16.797   2.831  11.376
58479W        W19845   0.761   4.773   1.826
58480W        W19846   0.874  34.057  13.541
58481W        W19847  13.778  36.873   1.281
58482W        W19848  42.333   7.345  13.870
58483W        W19849  27.476  34.513  13.879
58484W        W19850  13.690  22.012  12.934
58485W        W19851  20.617  28.007  12.497
58486W        W19852  37.571  26.625   2.352
58487W        W19853   3.731  38.996   3.188
58488W        W19854  33.946  10.290   0.842
58489W        W19855  21.125  14.746  12.973
58490W        W19856  41.977   1.354  14.423
58491W        W19857  39.857  31.465   3.821
58492W        W19858  14.281  23.162  13.002
58493W        W19859   8.875  22.202   2.809
58494W        W19860  12.679  19.166  12.436
58495W        W19861   9.248  17.575   4.321
58496W        W19862  28.469  13.138  12.893
58497W        W19863   3.283   5.890   2.742
58498W        W19864   4.416  34.522   0.744
58499W        W19865   9.818  21.215   4.776
58500W        W19866  30.590   7.344  10.927
58501W        W19867  15.292  41.879   3.676
58502W        W19868  40.390  25.093   0.884
58503W        W19869  28.175  33.402   0.260
58504W        W19870  13.738  32.417  13.883
58505W        W19871   8.405  35.067   0.913
58506W        W19872   2.878  21.190  13.913
58507W        W19873  41.410  23.129   1.296
58508W        W19874   1.867  26.484   2.221
58509W        W19875  10.350  11.131   1.912
58510W        W19876  44.981  16.783  11.882
58511W        W19877  34.483  12.828  12.953
58512W        W19878   9.322  29.465  11.944
58513W        W19879   6.809  39.892  14.280
58514W        W19880  26.461  11.233   1.709
58515W        W19881  36.872  44.338  11.866
58516W        W19882  40.511  14.815  12.984
58517W        W19883  16.232  11.770  13.467
58518W        W19884  37.847  14.282  13.892
58519W        W19885   8.204   1.350   2.807
58520W        W19886  44.951  10.328  13.467
58521W        W19887  22.683  11.341   1.790
58522W        W19888  13.192  18.765  13.867
58523W        W19889  25.132   7.301   3.255
58524W        W19890  32.111  20.559  12.991
58525W        W19891  17.249  44.843  12.840
58526W        W19892  24.655  41.352  11.100
58527W        W19893  21.627  34.598   0.340
58528W        W19894  15.615  42.411  12.555
58529W        W19895  24.664  34.485   3.704
58530W        W19896   5.310  25.578   2.754
58531W        W19897  40.034  36.427   4.619
58532W        W19898  10.266   8.660  11.432
58533W        W19899   0.304  12.782   2.686
58534W        W19900  10.823  19.094  12.871
58535W        W19901  15.814   2.350  14.411
58536W        W19902  24.490  14.833  14.787
58537W        W19903  18.674  33.592   5.277
58538W        W19904  26.046  39.957  14.879
58539W        W19905  14.292  34.522   0.865
58540W        W19906  32.073  11.812   0.733
58541W        W19907   1.443   2.802   4.617
58542W        W19908   7.797  19.279   0.312
58543W        W19909  16.671  33.970  14.492
58544W        W19910   1.399  36.450   3.285
58545W        W19911   9.794  22.617   1.724
58546W        W19912   8.191   4.866  10.482
58547W        W19913  20.633  29.547   1.785
58548W        W19914  37.481  33.082  14.846
58549W        W19915  30.995   5.752   2.722
58550W        W19916  32.509  11.739  12.400
58551W        W19917   2.746  33.041   1.776
58552W        W19918   1.780   5.903   1.730
58553W        W19919  25.008  21.244  14.850
58554W        W19920  39.951  13.684  13.372
58555W        W19921  12.785  43.387   2.239
58556W        W19922   6.819  18.094   2.793
58557W        W19923  13.735  36.862   2.754
58558W        W19924  21.262  30.916  13.062
58559W        W19925  15.692  38.471   4.299
58560W        W19926  31.646  25.654   2.856
58561W        W19927   2.449  41.905   3.270
58562W        W19928  29.606  28.975   4.600
58563W        W19929  31.919  38.880   3.292
58564W        W19930  41.368  42.515  14.488
58565W        W19931  34.525  34.462  13.525
58566W        W19932  34.468   4.934  11.040
58567W        W19933  25.068   2.906   0.826
58568W        W19934  13.726   9.881  13.502
58569W        W19935   1.430  26.491   0.430
58570W        W19936  28.539  14.240   2.185
58571W        W19937  15.724  15.803   1.236
58572W        W19938   0.462  38.906  14.018
58573W        W19939  39.834   3.849   1.271
58574W        W19940  14.699  17.731  14.300
58575W        W19941   9.828  21.715   3.836
58576W        W19942   2.759  29.470   3.830
58577W        W19943  28.634  43.816  12.537
58578W        W19944   0.348  43.366   1.238
58579W        W19945  31.452  44.335   4.773
58580W        W19946  22.044  36.486  13.329
58581W        W19947  19.644  35.010   2.183
58582W        W19948  27.119  24.039  11.055
58583W        W19949  42.375  35.536  13.045
58584W        W19950  33.974  30.545  11.607
58585W        W19951   7.375  23.527  11.392
58586W        W19952   4.787  10.839   1.347
58587W        W19953  23.989  26.527   1.323
58588W        W19954  12.742  15.619  11.080
58589W        W19955  14.821  28.666  10.504
58590W        W19956  43.812  14.712  12.350
58591W        W19957  32.620  39.533   3.732
58592W        W19958  26.605  12.338   2.866
58593W        W19959  10.865   4.353   4.785
58594W        W19960   8.302  24.026   4.277
58595W        W19961  31.042  12.758   5.311
58596W        W19962  20.600  27.486  12.491
58597W        W19963  12.154   9.329  13.504
58598W        W19964  12.725  24.116  10.568
58599W        W19965   5.852  32.936  10.955
58600W        W19966  16.091  31.639   2.401
58601W        W19967  43.370  33.426   0.466
58602W        W19968  44.471  40.455  14.823
58603W        W19969   6.914   3.770  11.597
58604W        W19970  11.320  18.067   1.882
58605W        W19971  28.591  36.566   2.285
58606W        W19972   2.343  12.832   2.186
58607W        W19973   1.466  39.915   2.203
58608W        W19974  30.098  15.786   0.796
58609W        W19975  34.504  17.164  13.885
58610W        W19976   2.897  39.390   3.204
58611W        W19977   7.770   0.302   3.205
58612W        W19978  26.012  30.479  13.354
58613W        W19979  21.157  36.034  12.341
58614W        W19980  28.129   6.409   9.934
58615W        W19981  24.110   6.316  11.472
58616W        W19982   7.240   6.921   2.862
58617W        W19983  12.798   4.902   0.340
58618W        W19984  28.127  19.605   3.216
58619W        W19985  11.268   2.337   3.358
58620W        W19986   3.887  15.181   2.270
58621W        W19987  12.309  18.232   3.748
58622W        W19988  41.432  32.394   1.712
58623W        W19989  35.377  15.242  11.499
58624W        W19990  39.949  28.053   4.121
58625W        W19991   0.770  16.632   2.858
58626W        W19992  19.040  27.056   3.268
58627W        W19993   4.855  20.766  13.891
58628W        W19994  11.319  12.640   1.401
58629W        W19995   2.253  34.946  14.277
58630W        W19996   4.251  23.647   0.756
58631W        W19997  43.377   1.760   5.129
58632W        W19998  31.035  32.535   2.708
58633W        W19999   7.748  20.041   3.814
58634W        W20000   1.890  31.565  10.549
58635W        W20001  36.901   6.261  12.949
58636W        W20002   6.247  23.703  13.474
58637W        W20003  29.597  29.639   0.348
58638W        W20004  42.886  15.090  12.007
58639W        W20005  21.608  12.190   2.408
58640W        W20006  25.659   2.315  14.795
58641W        W20007   4.230  41.024  11.910
58642W        W20008  38.547  23.513  12.471
58643W        W20009   3.431  16.096  11.948
58644W        W20010   4.793  42.989   3.829
58645W        W20011  15.809  37.384  12.002
58646W        W20012  11.280  23.154   1.739
58647W        W20013  41.476  19.694  13.420
58648W        W20014  30.603   3.248   2.864
58649W        W20015   5.773   1.791   3.679
58650W        W20016  41.509  44.369   4.645
58651W        W20017  37.505  39.845  13.531
58652W        W20018  41.444  25.091   4.778
58653W        W20019   5.264  17.252   2.731
58654W        W20020  39.477  39.908  14.411
58655W        W20021  15.735  27.058   1.870
58656W        W20022  33.590  41.324  13.932
58657W        W20023  34.461   8.814  13.938
58658W        W20024  37.906   6.209   4.807
58659W        W20025  29.928  28.511   2.382
58660W        W20026  44.299   5.716  14.997
58661W        W20027  36.475  25.638  13.980
58662W        W20028   4.244  32.038   4.679
58663W        W20029  40.000  40.318   4.776
58664W        W20030  36.889  38.991  11.996
58665W        W20031   2.261  21.043  12.894
58666W        W20032  35.902  18.731   4.762
58667W        W20033  29.150   5.895  13.952
58668W        W20034  24.547  28.022  13.521
58669W        W20035  11.659  33.076  11.928
58670W        W20036  34.394   2.413  14.343
58671W        W20037  14.728  11.785   3.778
58672W        W20038   4.887  13.350   4.120
58673W        W20039   8.747  43.385   0.791
58674W        W20040  41.523  23.051   2.685
58675W        W20041  29.542  33.591  14.814
58676W        W20042  30.964  43.295   0.756
58677W        W20043  42.450   1.342  11.391
58678W        W20044  19.078   7.215   4.286
58679W        W20045  32.577  38.530   0.780
58680W        W20046   4.942  32.114  11.000
58681W        W20047  27.654   0.429  11.972
58682W        W20048  21.150  16.624  13.933
58683W        W20049  12.145  21.512   1.263
58684W        W20050  18.070  26.672  10.616
58685W        W20051  18.240  36.478   2.202
58686W        W20052  38.966  34.108   4.115
58687W        W20053   2.932  33.495   3.670
58688W        W20054   3.366  21.138  11.941
58689W        W20055  40.972  23.685   0.278
58690W        W20056  24.508  44.367  11.993
58691W        W20057  28.544  22.708  13.030
58692W        W20058  44.901   9.646  12.422
58693W        W20059   5.757  28.029   1.889
58694W        W20060   5.256   2.774   2.900
58695W        W20061   2.940  19.567  14.861
58696W        W20062  12.299  25.580  13.868
58697W        W20063  35.037  44.949  11.975
58698W        W20064  18.066   3.451  14.001
58699W        W20065   1.751  32.028  13.798
58700W        W20066  24.120  29.166   2.376
58701W        W20067  19.682  28.495   4.710
58702W        W20068  19.577  14.664  14.280
58703W        W20069  43.411  15.084   3.241
58704W        W20070  22.718  27.640  14.431
58705W        W20071  38.829  29.510  10.547
58706W        W20072   7.366  23.232  12.875
58707W        W20073   7.736   1.896   5.154
58708W        W20074  38.070  34.473  12.056
58709W        W20075  40.896  41.383  14.985
58710W        W20076  11.228   4.363   3.243
58711W        W20077  26.550  40.933  14.499
58712W        W20078  14.191  35.073  13.339
58713W        W20079  29.551  11.344   3.291
58714W        W20080  32.393   3.307   2.769
58715W        W20081  44.413  30.627   0.306
58716W        W20082   9.670  36.417  14.456
58717W        W20083  18.142   6.909  10.637
58718W        W20084  25.595  25.063   0.809
58719W        W20085  30.116   5.897  14.836
58720W        W20086   4.717   9.727  14.291
58721W        W20087  40.529   0.839  10.515
58722W        W20088  19.269  15.281   4.290
58723W        W20089  42.464  31.032   2.309
58724W        W20090   1.809  43.967  10.500
58725W        W20091  44.867  39.033  14.774
58726W        W20092  13.316   4.351  11.391
58727W        W20093  44.445  36.381   1.919
58728W        W20094  13.653  41.915  14.786
58729W        W20095  24.136  10.180  14.304
58730W        W20096  43.843  33.451   2.789
58731W        W20097   4.698  34.496  13.506
58732W        W20098  43.961  36.438  12.457
58733W        W20099  10.810  33.411   4.147
58734W        W20100  44.919   6.718   2.820
58735W        W20101  34.944  44.472  14.959
58736W        W20102  40.512  11.623   2.280
58737W        W20103  18.784  19.217   0.852
58738W        W20104  26.533  33.015   4.179
58739W        W20105  17.288  13.684   4.797
58740W        W20106   4.733  27.602   3.177
58741W        W20107  18.687  37.865  13.321
58742W        W20108   3.377  40.913  14.423
58743W        W20109  26.475  30.040   3.379
58744W        W20110  27.106  35.993  14.934
58745W        W20111  43.450  25.045  13.931
58746W        W20112  16.258  14.726   0.441
58747W        W20113  30.095  14.305  14.808
58748W        W20114  19.561  20.178   4.122
58749W        W20115  42.900  25.657   2.339
58750W        W20116  30.125  26.208  14.794
58751W        W20117  38.552   0.327   2.862
58752W        W20118  35.101   4.703   5.219
58753W        W20119   0.378  42.932  13.998
58754W        W20120  23.193  12.660  14.360
58755W        W20121   9.854  25.470  10.960
58756W        W20122  32.010  11.793  10.404
58757W        W20123  10.352  44.776   2.856
58758W        W20124  33.110   9.732   3.268
58759W        W20125  17.271   3.848   1.747
58760W        W20126  31.490  34.864   2.841
58761W        W20127  36.929  28.549   3.658
58762W        W20128  28.491   3.830   3.312
58763W        W20129  34.374  11.246   3.266
58764W        W20130  33.011   6.203   2.416
58765W        W20131  43.341  32.448  11.034
58766W        W20132   9.286   7.373  14.370
58767W        W20133  44.884  32.613   0.848
58768W        W20134  21.140   0.940   2.390
58769W        W20135  24.674  44.898   4.215
58770W        W20136  12.710  11.684  11.103
58771W        W20137  37.425  11.189  14.849
58772W        W20138  19.096   4.888  11.462
58773W        W20139   9.270  37.898  11.005
58774W        W20140  39.551  43.291  14.292
58775W        W20141   1.970  24.601  11.550
58776W        W20142  40.366  10.681  14.399
58777W        W20143  11.689  16.274  14.345
58778W        W20144  26.031   6.797  14.843
58779W        W20145  37.888  36.419   2.778
58780W        W20146  28.600  36.456   4.776
58781W        W20147  13.608  32.425   0.895
58782W        W20148  11.686  16.191   3.734
58783W        W20149  41.842  40.985   0.757
58784W        W20150  19.088  16.179   2.416
58785W        W20151  34.903  16.756   0.244
58786W        W20152  42.999   0.397   4.806
58787W        W20153  16.654  17.565  12.885
58788W        W20154  18.184  25.554  13.811
58789W        W20155   1.797  10.216  12.977
58790W        W20156   5.862   6.234  12.432
58791W        W20157  28.950   0.303  13.512
58792W        W20158  30.434  39.988   4.602
58793W        W20159   1.456   9.380  10.524
58794W        W20160  32.989  41.880   1.341
58795W        W20161  36.411  29.167   2.250
58796W        W20162  20.597  18.578  14.998
58797W        W20163   7.677  10.294  12.978
58798W        W20164  15.196   7.876  13.461
58799W        W20165  21.024  42.416   4.751
58800W        W20166  44.775  40.351   2.824
58801W        W20167  37.344   0.249  10.961
58802W        W20168  41.505   8.239   4.261
58803W        W20169  40.449  17.642   3.682
58804W        W20170  14.810  41.871   3.737
58805W        W20171  19.084  18.600   2.240
58806W        W20172  28.460  30.006  13.517
58807W        W20173  15.087  40.455   0.870
58808W        W20174   1.958  37.039  14.831
58809W        W20175  32.546  44.917  11.578
58810W        W20176   3.738   9.650  12.370
58811W        W20177  10.677   8.264   0.822
58812W        W20178  17.230  22.149   0.952
58813W        W20179  42.329  31.524  11.518
58814W        W20180  34.552  44.970  11.446
58815W        W20181   6.850  15.180   3.754
58816W        W20182  35.542   3.273  11.577
58817W        W20183  19.686  10.223  10.096
58818W        W20184  30.955  37.915   3.324
58819W        W20185  36.593  37.895   0.898
58820W        W20186   6.700  41.323   0.756
58821W        W20187   7.176  34.051  12.893
58822W        W20188   6.888  30.064  13.884
58823W        W20189  16.806  16.107  14.374
58824W        W20190   0.820   7.745  11.549
58825W        W20191  29.076  31.474  14.403
58826W        W20192  32.420  43.467  10.585
58827W        W20193  42.338  17.097   3.147
58828W        W20194   1.785  35.999  10.634
58829W        W20195   9.690  31.000   3.176
58830W        W20196  31.025  12.739  10.461
58831W        W20197  16.242  19.583   4.609
58832W        W20198  19.633   6.211   0.809
58833W        W20199   7.224  23.180  12.018
58834W        W20200  14.632   4.864   2.849
58835W        W20201  23.722  14.304  10.611
58836W        W20202  20.074  35.854   3.871
58837W        W20203   1.926  38.918  13.407
58838W        W20204   0.494  37.983   1.786
58839W        W20205  20.249  29.004  12.917
58840W        W20206  33.569  25.630   3.794
58841W        W20207  19.265   4.412   3.825
58842W        W20208  12.142   9.201  12.422
58843W        W20209  16.175  21.211  11.993
58844W        W20210  25.686  15.291  12.005
58845W        W20211  42.418  43.328   3.698
58846W        W20212  17.638   6.286  14.309
58847W        W20213  42.486  14.299   1.701
58848W        W20214   2.285   6.383  12.854
58849W        W20215  30.113  37.930  14.280
58850W        W20216  19.646  36.037   2.891
58851W        W20217   0.321  18.209  10.617
58852W        W20218  34.908  14.828  11.003
58853W        W20219   8.235  19.126  11.597
58854W        W20220  33.394   2.857   0.864
58855W        W20221  14.804  37.492  13.955
58856W        W20222  16.163  26.143  10.617
58857W        W20223   2.294  29.465   4.807
58858W        W20224  42.514  23.501   0.449
58859W        W20225  18.221  21.182  13.350
58860W        W20226   1.928  30.555   3.720
58861W        W20227  43.897  15.763   1.394
58862W        W20228   6.789   6.892   0.809
58863W        W20229  32.052   0.913  12.466
58864W        W20230  23.134  34.086  12.986
58865W        W20231  19.669  37.937  12.059
58866W        W20232  23.678  21.634   0.937
58867W        W20233  15.104  40.528  14.967
58868W        W20234   8.337  25.674   1.243
58869W        W20235  28.136   5.853   3.382
58870W        W20236  29.062  13.654   0.245
58871W        W20237  15.315  31.067   0.256
58872W        W20238  40.460   2.745  12.945
58873W        W20239  27.040  29.053   5.697
58874W        W20240   4.388  11.330   4.250
58875W        W20241  37.399  22.631   0.871
58876W        W20242  40.527   2.930  14.859
58877W        W20243  23.657   3.934  13.054
58878W        W20244  20.071   2.268  12.988
58879W        W20245  43.778  39.047   1.763
58880W        W20246   9.696  36.500   3.327
58881W        W20247  29.053  16.733  10.552
58882W        W20248  31.603   9.725   2.880
58883W        W20249  12.799   6.725  10.896
58884W        W20250   6.703  35.068   4.734
58885W        W20251  41.514  32.614   0.893
58886W        W20252  34.500  35.042  14.364
58887W        W20253  31.125  24.644   2.858
58888W        W20254  41.334  43.770  11.592
58889W        W20255  31.048  35.005   3.785
58890W        W20256  33.999   7.761  12.014
58891W        W20257  38.408   6.302  14.387
58892W        W20258  14.705  26.191   1.699
58893W        W20259  41.445  36.919   3.801
58894W        W20260  26.994  38.333  13.994
58895W        W20261  44.375   2.951  11.020
58896W        W20262  34.582  12.295   1.750
58897W        W20263  44.325  14.764  12.500
58898W        W20264  43.473   4.761   4.764
58899W        W20265  24.485  29.605   1.322
58900W        W20266  31.904  10.204  13.329
58901W        W20267  30.087  38.959  10.496
58902W        W20268  35.586  11.306  13.911
58903W        W20269  37.841   4.755  14.433
58904W        W20270   2.387  22.138  11.858
58905W        W20271  40.497  26.188  14.818
58906W        W20272  41.391   0.798  13.060
58907W        W20273  42.964  18.553  14.447
58908W        W20274  26.642  44.464  13.822
58909W        W20275  39.047  11.314  11.521
58910W        W20276   9.643  30.547   2.755
58911W        W20277  11.636   7.689   0.262
58912W        W20278  27.159  35.093  10.419
58913W        W20279  21.580   5.288   4.740
58914W        W20280   7.212  13.319   0.356
58915W        W20281  44.384  14.634   2.852
58916W        W20282  17.790  43.773   3.699
58917W        W20283  38.497  27.197   1.408
58918W        W20284  41.843  20.657   2.685
58919W        W20285  15.736  24.493   2.280
58920W        W20286  42.858  17.746   4.318
58921W        W20287  19.753  43.903   1.290
58922W        W20288  19.042  21.707   0.904
58923W        W20289  10.703  18.596   1.367
58924W        W20290  38.947  10.175  10.027
58925W        W20291  26.638  10.638  14.000
58926W        W20292  31.644  27.533   1.295
58927W        W20293  14.771   3.732  12.833
58928W        W20294   0.840  14.669  11.585
58929W        W20295   1.846  10.640   4.805
58930W        W20296  24.485  26.600   0.849
58931W        W20297  11.174  38.997  13.463
58932W        W20298  42.357  33.976   2.871
58933W        W20299  36.055  31.607   0.845
58934W        W20300   2.318  30.922   2.185
58935W        W20301   4.308  32.589   4.814
58936W        W20302  40.368  37.050   2.393
58937W        W20303  30.140   4.840  11.575
58938W        W20304  38.000  40.849  12.973
58939W        W20305  21.663  16.137   1.753
58940W        W20306  44.290  33.397  11.612
58941W        W20307   9.386  24.659   3.310
58942W        W20308  28.094  15.150  12.394
58943W        W20309  41.357  40.014  10.621
58944W        W20310  19.649  17.650  14.277
58945W        W20311   6.819   1.923   2.343
58946W        W20312  42.337  16.806  12.453
58947W        W20313  13.186  23.010  11.868
58948W        W20314   1.857   5.872  14.389
58949W        W20315  32.448   4.237  10.455
58950W        W20316  44.290   6.741   3.865
58951W        W20317  39.380  36.866   0.849
58952W        W20318  13.768  39.423  12.891
58953W        W20319  30.973  17.571   5.322
58954W        W20320  27.062  38.504   4.186
58955W        W20321  24.129  30.117  11.997
58956W        W20322   1.887   3.914   0.422
58957W        W20323  40.530  37.491  13.947
58958W        W20324  18.638   0.808  11.499
58959W        W20325  19.187  18.592   0.846
58960W        W20326  14.190  43.944   3.273
58961W        W20327  42.349  15.313   0.242
58962W        W20328  42.304   4.900   3.373
58963W        W20329  27.188  39.511  11.947
58964W        W20330  22.190  35.859   3.840
58965W        W20331   4.875  39.470   1.817
58966W        W20332  31.507   8.211  13.455
58967W        W20333  23.640   3.905   1.709
58968W        W20334  34.924  15.293   3.796
58969W        W20335  37.571  21.607   0.949
58970W        W20336  17.798   3.254   0.416
58971W        W20337  29.071  27.075   0.731
58972W        W20338  39.416  13.720  12.428
58973W        W20339   7.237   7.691   4.622
58974W        W20340   3.381  25.554   5.082
58975W        W20341  10.731  31.099   3.689
58976W        W20342  25.491   7.341  12.418
58977W        W20343  24.565  27.152  10.440
58978W        W20344  10.153  43.393  10.452
58979W        W20345  12.654   9.754  14.919
58980W        W20346   7.310  25.686   1.732
58981W        W20347  13.336   1.305  13.843
58982W        W20348  28.595  18.053  11.881
58983W        W20349   2.757  20.030   0.348
58984W        W20350  42.927  12.180   4.718
58985W        W20351   0.983  23.042   3.305
58986W        W20352  14.736  12.806  14.359
58987W        W20353   9.256  14.254  14.829
58988W        W20354  35.453   8.796   0.447
58989W        W20355   5.913  26.077   0.732
58990W        W20356  41.920  43.500  11.882
58991W        W20357  13.656  10.232  10.500
58992W        W20358   2.757  36.450   0.287
58993W        W20359  16.318  43.282  11.867
58994W        W20360  24.016   8.393  13.855
58995W        W20361  20.158   6.728   3.380
58996W        W20362  35.102  11.289   2.190
58997W        W20363  24.032  16.112  12.544
58998W        W20364  21.575  22.041   2.876
58999W        W20365  32.487  39.000   1.375
59000W        W20366  16.247   4.780   2.842
59001W        W20367  43.837  36.967  11.592
59002W        W20368   8.365  14.219  12.350
59003W        W20369  23.535  21.741   4.757
59004W        W20370   4.749   4.309  14.298
59005W        W20371   9.227  18.233   3.739
59006W        W20372  24.669   5.228   5.595
59007W        W20373  29.482  36.418  10.503
59008W        W20374   2.420  12.718   0.474
59009W        W20375  36.390   4.333   1.765
59010W        W20376  34.611  30.083  11.076
59011W        W20377  33.604   0.984  12.081
59012W        W20378  36.452  10.360  12.450
59013W        W20379   0.451  29.525   3.204
59014W        W20380  22.609  25.982   1.759
59015W        W20381  36.562  35.503  12.919
59016W        W20382  21.182   9.273   2.274
59017W        W20383  11.811   0.899  12.008
59018W        W20384   0.266  37.426  13.991
59019W        W20385  28.460   6.268  14.844
59020W        W20386  38.936  11.832   0.358
59021W        W20387  31.122   4.922  13.543
59022W        W20388   0.344   2.279   2.312
59023W        W20389  10.648  34.393   2.855
59024W        W20390  37.908  39.907   4.203
59025W        W20391  17.645  23.048   1.911
59026W        W20392   2.821  24.164   1.760
59027W        W20393  32.980  37.928  14.281
59028W        W20394   9.880   7.251  11.960
59029W        W20395  35.569  38.975  13.461
59030W        W20396   9.305  17.637   9.669
59031W        W20397   0.757  13.114  12.430
59032W        W20398   8.234  34.951   0.296
59033W        W20399   2.469  21.631  10.642
59034W        W20400  16.114  17.072   3.799
59035W        W20401  13.684  20.662   1.866
59036W        W20402  32.039  32.094  13.008
59037W        W20403  29.570  12.851  12.406
59038W        W20404  15.751  34.445   3.168
59039W        W20405  42.429   0.812   1.239
59040W        W20406  14.710  10.693  13.957
59041W        W20407   0.302  31.603  13.438
59042W        W20408   4.409  33.979  14.945
59043W        W20409  44.942  24.684  13.318
59044W        W20410  26.016   1.931  12.837
59045W        W20411  35.531  30.032   3.668
59046W        W20412  21.658  38.439   0.817
59047W        W20413   5.824  21.148  10.916
59048W        W20414  35.550   7.359  10.632
59049W        W20415   6.895  41.339   2.733
59050W        W20416   0.801  37.582   5.268
59051W        W20417  25.160   8.312  13.858
59052W        W20418  36.528  24.014  14.409
59053W        W20419  12.207  30.926   1.403
59054W        W20420  12.784  18.691   1.375
59055W        W20421  19.653   8.881   3.255
59056W        W20422  31.084   1.938  13.851
59057W        W20423  16.242  35.559  12.575
59058W        W20424  29.055  37.988   4.116
59059W        W20425   2.399  25.034  12.471
59060W        W20426  14.141  32.404  14.884
59061W        W20427  42.460  39.034  13.399
59062W        W20428  37.359  40.945   4.227
59063W        W20429  21.228  12.271  13.063
59064W        W20430   7.675  10.339  10.014
59065W        W20431  44.378  27.010   0.468
59066W        W20432  18.571  22.604   0.428
59067W        W20433  36.079  31.057  11.378
59068W        W20434  28.526   3.939  12.536
59069W        W20435   2.830  30.535   2.874
59070W        W20436  44.350  24.664   3.715
59071W        W20437  32.409  39.895   0.921
59072W        W20438   4.742  22.054   2.270
59073W        W20439  11.716   9.208  11.544
59074W        W20440  27.532  25.031   4.244
59075W        W20441  36.028  40.956  14.776
59076W        W20442  32.024  36.458   4.199
59077W        W20443  14.249  16.756   4.623
59078W        W20444  26.635   3.723  10.524
59079W        W20445  15.124  11.241  13.394
59080W        W20446  26.565  39.432   3.255
59081W        W20447  24.589  35.069   0.408
59082W        W20448   6.676   8.683  12.551
59083W        W20449  17.082  25.075  13.313
59084W        W20450  22.119  30.655   3.161
59085W        W20451   2.785  40.031   2.307
59086W        W20452  29.994  26.168   4.706
59087W        W20453  39.451  32.078  13.392
59088W        W20454  38.932   2.348  13.841
59089W        W20455   0.755  24.210  11.492
59090W        W20456  15.282  44.902   0.876
59091W        W20457  43.765  28.130   0.248
59092W        W20458  31.925   0.470  12.867
59093W        W20459  30.159  29.604   0.261
59094W        W20460  22.031   8.865  12.420
59095W        W20461  23.496  27.147  13.958
59096W        W20462  17.097  33.018   0.901
59097W        W20463   4.319   2.415  13.896
59098W        W20464  41.378  40.418   3.224
59099W        W20465  34.908  43.830   1.758
59100W        W20466  17.207  23.079   0.816
59101W        W20467   3.779  14.171  11.408
59102W        W20468  24.622  32.451  10.422
59103W        W20469   8.778  39.909  13.998
59104W        W20470  40.317  36.930   4.155
59105W        W20471  33.064  35.019  11.502
59106W        W20472  13.119  31.444   0.318
59107W        W20473  42.328  43.344   1.426
59108W        W20474  17.087  38.051  13.913
59109W        W20475  36.956   0.328   2.235
59110W        W20476   8.780   4.798  14.409
59111W        W20477  19.206  32.928  10.981
59112W        W20478  40.850   6.898   4.604
59113W        W20479  40.332  18.173  10.619
59114W        W20480  10.801  16.110   2.732
59115W        W20481  20.116  36.004  13.512
59116W        W20482  31.956  37.505  14.785
59117W        W20483   0.311  42.817  13.388
59118W        W20484  39.933   5.430   2.719
59119W        W20485  12.165   6.200  11.864
59120W        W20486  33.471  32.953  13.515
59121W        W20487  26.065  34.371   0.923
59122W        W20488  42.909  10.807  13.052
59123W        W20489  17.775  23.594   4.728
59124W        W20490  27.033   3.817   0.440
59125W        W20491  41.340   1.831   4.673
59126W        W20492   6.327  21.649   4.165
59127W        W20493   2.741   0.288   1.749
59128W        W20494  21.585  31.602  14.274
59129W        W20495  18.209  28.940   1.909
59130W        W20496  12.339  10.822  14.795
59131W        W20497  16.671  12.333   1.839
59132W        W20498  27.586  20.554  14.478
59133W        W20499  27.194   1.774  11.858
59134W        W20500  16.729  21.749   1.820
59135W        W20501  31.505  41.414  13.929
59136W        W20502  17.678  25.563  11.969
59137W        W20503   5.819  32.976  14.360
59138W        W20504  36.072  11.778  12.499
59139W        W20505   0.257  33.535   0.874
59140W        W20506   5.796   6.720  10.982
59141W        W20507  24.608   0.985   2.231
59142W        W20508  16.793  32.126  11.519
59143W        W20509  23.191  28.623   1.730
59144W        W20510  31.106  40.894   1.267
59145W        W20511  39.005  18.189  14.968
59146W        W20512   3.738  34.005   2.679
59147W        W20513  43.918  13.756  10.990
59148W        W20514  21.031  16.290  12.405
59149W        W20515  44.479  18.647  14.280
59150W        W20516  19.748   2.785   4.294
59151W        W20517  40.413  16.705   3.723
59152W        W20518   7.183  41.517   3.312
59153W        W20519  16.673   0.427   0.401
59154W        W20520   4.446  36.554  11.124
59155W        W20521  12.226  12.245   0.866
59156W        W20522  44.001   6.891   0.918
59157W        W20523  27.043  16.171   4.721
59158W        W20524  22.187  34.504   0.401
59159W        W20525  36.862  36.521   4.817
59160W        W20526  20.578   2.866  13.314
59161W        W20527  10.794   8.893   4.644
59162W        W20528   5.253  19.552  11.480
59163W        W20529  20.741   0.332   4.788
59164W        W20530  27.499  39.352   3.291
59165W        W20531  20.053  36.057   0.890
59166W        W20532  35.947  40.488   3.767
59167W        W20533  22.511  19.265  12.925
59168W        W20534  44.772   7.759   3.201
59169W        W20535  25.141  24.484   0.343
59170W        W20536   9.742  21.211  13.313
59171W        W20537  41.841   8.263  14.822
59172W        W20538  33.390   9.729   4.337
59173W        W20539  37.370  23.684   0.958
59174W        W20540  40.422  32.891  11.424
59175W        W20541   4.320  42.785  13.899
59176W        W20542  17.268  28.146  11.997
59177W        W20543  27.126   4.718   4.313
59178W        W20544  20.211   7.359   2.205
59179W        W20545  36.898  12.701  13.918
59180W        W20546  21.588  16.186  11.941
59181W        W20547  33.389  19.589   3.221
59182W        W20548  41.963  37.911  12.071
59183W        W20549  20.148   6.333   2.197
59184W        W20550  32.420   9.286   2.663
59185W        W20551  38.459  42.362  12.476
59186W        W20552  19.157  33.058   2.319
59187W        W20553   6.786  32.084   3.721
59188W        W20554  25.562   2.228  14.385
59189W        W20555  16.242  33.412  12.978
59190W        W20556   9.862  19.273  13.352
59191W        W20557   3.336  44.311   3.254
59192W        W20558  44.319  11.646   5.190
59193W        W20559  18.703  39.876   4.750
59194W        W20560  21.232  10.372   3.243
59195W        W20561  30.075  34.583  14.955
59196W        W20562  38.824  35.362   4.770
59197W        W20563  33.013  27.030  14.926
59198W        W20564  31.120  21.557   3.302
59199W        W20565   0.863  35.041  12.497
59200W        W20566  10.285  15.622  10.964
59201W        W20567  19.261  35.424  10.441
59202W        W20568  42.015  37.049   1.911
59203W        W20569  13.200   6.400  10.624
59204W        W20570  42.290   8.210  14.456
59205W        W20571  36.067   9.761   4.734
59206W        W20572  13.730  11.328  13.326
59207W        W20573  13.314  44.896  13.452
59208W        W20574  26.036   8.334  13.876
59209W        W20575  25.109   4.710   0.800
59210W        W20576  40.524  25.164  10.921
59211W        W20577  28.018  42.322   3.669
59212W        W20578  30.658  31.026  13.476
59213W        W20579  24.059  15.270   0.479
59214W        W20580  24.150  25.177  14.762
59215W        W20581  19.643  11.219  13.399
59216W        W20582   2.947  25.189   4.743
59217W        W20583  36.472  43.812   4.174
59218W        W20584   4.363  11.722   0.456
59219W        W20585   8.772  14.768   1.861
59220W        W20586   4.774  10.644  10.416
59221W        W20587  27.951  33.518   5.224
59222W        W20588  33.472  14.649  11.520
59223W        W20589   0.823  30.657   0.728
59224W        W20590  23.558   9.358  13.390
59225W        W20591  30.959   1.844   2.841
59226W        W20592  35.384  26.968   0.736
59227W        W20593  29.630  16.644   3.151
59228W        W20594  31.126  39.047  14.890
59229W        W20595  23.614  35.040  13.362
59230W        W20596   2.781  26.018  12.051
59231W        W20597  14.662   6.418  14.471
59232W        W20598  44.390  25.484   3.869
59233W        W20599  20.236   0.793   3.636
59234W        W20600   0.862  31.565   3.831
59235W        W20601  28.977  36.904   1.845
59236W        W20602   6.746   0.263  10.484
59237W        W20603  32.396  40.372   3.743
59238W        W20604  15.186  25.558  13.438
59239W        W20605  11.129  17.304   0.904
59240W        W20606   0.372  25.191   4.287
59241W        W20607  10.199  13.119   1.856
59242W        W20608  36.406  31.485   3.172
59243W        W20609   0.378  16.280  10.905
59244W        W20610  34.983   0.821   4.694
59245W        W20611  15.314  41.366   1.303
59246W        W20612  10.751  34.103   1.909
59247W        W20613  40.428  14.691  12.351
59248W        W20614   2.870  31.550   3.641
59249W        W20615   9.181  44.304   4.331
59250W        W20616  32.964  44.801   2.353
59251W        W20617   5.841  31.042   2.716
59252W        W20618   2.916  12.283   1.378
59253W        W20619  14.631  13.817  13.910
59254W        W20620  42.462  31.489   0.887
59255W        W20621  32.002  23.003   3.852
59256W        W20622  39.981  35.537   3.181
59257W        W20623  42.370  43.515  13.996
59258W        W20624  18.634  43.771   0.446
59259W        W20625  37.992  11.135   3.371
59260W        W20626  26.500  13.294  10.454
59261W        W20627  26.624  42.362   4.161
59262W        W20628   1.285  32.633  13.371
59263W        W20629  16.610  26.474   2.284
59264W        W20630   7.812   3.864   1.224
59265W        W20631  26.526  32.398   4.753
59266W        W20632  12.784  33.102   3.804
59267W        W20633  24.103   0.483   1.715
59268W        W20634  20.611  20.262  13.335
59269W        W20635  10.286  28.476   1.875
59270W        W20636  38.997  26.490   4.167
59271W        W20637  39.448  39.811   4.277
59272W        W20638  19.175  30.081   2.180
59273W        W20639   2.732  23.709   4.230
59274W        W20640  19.609  34.105   2.725
59275W        W20641  25.184  38.517  13.934
59276W        W20642  38.000  36.498  11.502
59277W        W20643  43.396  26.208  12.431
59278W        W20644  40.307  34.052   1.809
59279W        W20645  40.944  16.787  10.470
59280W        W20646  10.867  39.499  10.969
59281W        W20647  33.598   8.369   0.732
59282W        W20648  14.188  27.545   1.921
59283W        W20649   3.917  27.611  13.957
59284W        W20650  16.260  28.183  11.536
59285W        W20651  41.399  19.204  11.547
59286W        W20652  13.648   8.694  14.470
59287W        W20653  35.414   4.927   4.192
59288W        W20654  12.249  19.564  12.989
59289W        W20655   5.285  43.495   2.335
59290W        W20656  22.237  12.743   1.217
59291W        W20657  41.885  31.075  14.827
59292W        W20658  19.078   9.261   4.668
59293W        W20659  31.077  10.241  14.924
59294W        W20660  26.466  43.307  14.453
59295W        W20661   6.768  10.677  13.493
59296W        W20662  36.474  13.268   0.343
59297W        W20663  38.970   9.224   1.771
59298W        W20664  39.007   1.439   0.408
59299W        W20665  25.076  33.416  11.395
59300W        W20666  25.095   6.380   1.927
59301W        W20667   2.721  33.384   2.679
59302W        W20668  12.722  10.766  14.501
59303W        W20669   7.254  29.481   1.392
59304W        W20670  30.465  28.130   2.179
59305W        W20671  43.472  42.337   1.412
59306W        W20672  41.945  18.677  11.908
59307W        W20673  29.589  28.122  14.295
59308W        W20674  20.102   4.418  10.953
59309W        W20675  42.282  10.224  13.917
59310W        W20676  35.996   0.384  11.998
59311W        W20677   5.242  22.046  11.467
59312W        W20678  27.519   3.258   0.252
59313W        W20679  18.277  41.926  11.575
59314W        W20680   3.276  20.144  12.904
59315W        W20681  25.709  27.493   2.354
59316W        W20682   0.298   4.765   2.331
59317W        W20683  28.555  34.531  11.038
59318W        W20684   0.308  44.291   0.726
59319W        W20685  22.666  22.198   0.831
59320W        W20686  37.027  41.306   9.528
59321W        W20687  13.609  33.048  12.453
59322W        W20688  38.548  31.576   0.769
59323W        W20689  20.203  17.754  13.506
59324W        W20690   7.859  15.252   1.422
59325W        W20691  14.608  25.173   3.629
59326W        W20692  34.611  14.175   3.270
59327W        W20693  35.600  34.387   0.244
59328W        W20694   8.377   9.660  10.538
59329W        W20695  27.691  23.537   0.796
59330W        W20696  32.462  44.974   1.242
59331W        W20697  40.444  16.186  13.495
59332W        W20698  23.678  21.107   3.344
59333W        W20699  34.912  26.593   1.327
59334W        W20700  42.986   5.283  14.342
59335W        W20701  14.315   8.759   0.827
59336W        W20702   0.974  40.405  11.401
59337W        W20703  25.652  36.550  14.951
59338W        W20704   4.794  13.163  11.388
59339W        W20705  18.260  35.966   2.215
59340W        W20706  39.930  33.558   4.287
59341W        W20707  18.174  21.087   1.696
59342W        W20708  19.705  22.160   4.202
59343W        W20709  43.844  44.923  13.843
59344W        W20710  34.609  21.589  13.477
59345W        W20711  17.557  24.195   3.326
59346W        W20712  20.263   0.319   3.235
59347W        W20713  27.079  43.957   3.322
59348W        W20714  30.546  33.603  11.991
59349W        W20715  36.991  40.364  14.981
59350W        W20716  27.124  14.283  10.482
59351W        W20717  20.256  31.539  14.937
59352W        W20718  28.165  31.048  14.894
59353W        W20719   3.790  19.153  12.016
59354W        W20720  17.624  41.371   0.483
59355W        W20721  40.003  35.457   2.896
59356W        W20722   8.748   8.258  10.429
59357W        W20723   4.758  17.223   1.244
59358W        W20724  19.102  28.480   0.818
59359W        W20725  16.765  24.174   2.326
59360W        W20726  19.071   4.302  10.905
59361W        W20727  19.670  30.449   2.787
59362W        W20728  43.942  42.334  11.938
59363W        W20729  41.489  34.062   1.323
59364W        W20730  37.370   6.722   2.261
59365W        W20731  28.678  14.780   1.447
59366W        W20732  13.730  12.809   3.243
59367W        W20733  27.642  10.305   2.841
59368W        W20734  43.893  31.952   3.171
59369W        W20735  14.746  44.763   1.393
59370W        W20736  19.065   1.349   0.868
59371W        W20737   1.731  29.430   3.859
59372W        W20738  17.290  43.855  14.871
59373W        W20739  30.596   1.827   0.967
59374W        W20740  39.395   1.296  13.529
59375W        W20741  44.389  32.397  11.876
59376W        W20742  30.452  26.130   0.438
59377W        W20743   5.206   3.821   2.366
59378W        W20744   8.247  36.971  14.015
59379W        W20745   3.375  44.774  12.452
59380W        W20746  33.527  14.338   3.331
59381W        W20747  10.302  41.534   2.238
59382W        W20748  14.273  42.382  11.567
59383W        W20749   1.952  42.836  14.772
59384W        W20750  31.527  26.103   2.384
59385W        W20751  15.273  31.897   5.210
59386W        W20752  15.329  30.456   0.835
59387W        W20753  23.533   9.387   2.382
59388W        W20754  41.482   3.417  13.414
59389W        W20755  38.034  19.729   0.944
59390W        W20756  35.967  14.195  11.077
59391W        W20757  24.033  38.957  12.478
59392W        W20758  26.651  44.433  12.478
59393W        W20759  37.008  39.440  11.468
59394W        W20760   3.743  27.153   2.200
59395W        W20761  25.977  20.245   0.761
59396W        W20762  35.524  17.739   2.854
59397W        W20763  31.078   3.763   4.203
59398W        W20764  40.416  13.237  11.512
59399W        W20765   5.876  18.765   0.412
59400W        W20766  33.067  25.585  10.970
59401W        W20767  31.620   6.879   0.393
59402W        W20768  27.524  31.623   1.382
59403W        W20769  23.170  13.755  11.906
59404W        W20770  43.844  28.039   2.700
59405W        W20771  37.576  14.172   2.183
59406W        W20772  27.974  38.985  13.465
59407W        W20773  41.487  13.831  14.288
59408W        W20774  12.131  33.898  11.403
59409W        W20775  36.936   3.746   3.262
59410W        W20776  29.093  22.602   3.304
59411W        W20777   4.941  30.947   3.778
59412W        W20778   9.161  36.046   2.829
59413W        W20779  18.669   2.815  11.485
59414W        W20780   1.306   5.822   3.723
59415W        W20781  18.144   4.906   9.990
59416W        W20782   8.388  22.589   2.820
59417W        W20783   2.959  10.170  12.391
59418W        W20784   2.827  22.233  14.899
59419W        W20785   9.223   3.726  11.871
59420W        W20786  13.299  39.557  13.805
59421W        W20787  40.384  44.343   3.688
59422W        W20788  10.680  26.546  10.446
59423W        W20789  22.062  14.731   4.692
59424W        W20790   9.828  34.380   3.287
59425W        W20791   9.273  40.431  13.967
59426W        W20792   6.876  10.256  12.909
59427W        W20793  28.642  40.303   4.166
59428W        W20794  10.768  30.946   4.200
59429W        W20795  37.463  42.885   3.326
59430W        W20796  11.347  23.696   1.262
59431W        W20797   2.798  39.059   4.156
59432W        W20798   9.676   1.279  14.470
59433W        W20799  10.180  20.572   4.167
59434W        W20800  40.020  25.062   4.673
59435W        W20801  32.134  18.062  11.456
59436W        W20802  12.829  36.974   4.763
59437W        W20803  20.537   1.906  13.871
59438W        W20804  15.100   8.668   4.328
59439W        W20805  20.584   5.361   4.256
59440W        W20806  10.761  39.417  11.587
59441W        W20807  33.991  21.096   3.846
59442W        W20808   0.359  11.151  13.812
59443W        W20809  12.137  10.848  14.446
59444W        W20810   0.943  10.376   2.871
59445W        W20811  26.209  16.219   0.802
59446W        W20812  40.023   2.244  13.914
59447W        W20813  38.443  20.576  13.844
59448W        W20814  43.416  31.042  14.366
59449W        W20815  36.897  22.742  12.382
59450W        W20816  18.691  14.733   0.342
59451W        W20817  27.017  18.700   2.219
59452W        W20818  42.366  25.026  11.859
59453W        W20819   0.254   8.285   4.144
59454W        W20820  38.831  35.507  14.779
59455W        W20821  29.666  38.845   4.325
59456W        W20822  12.651  14.661   5.696
59457W        W20823   7.911  15.740   3.828
59458W        W20824   4.296  39.466  10.503
59459W        W20825  44.406  16.224  14.473
59460W        W20826  26.628  12.832   0.393
59461W        W20827  44.440   7.863  13.413
59462W        W20828  37.417  28.153   0.953
59463W        W20829  21.616  29.050  12.946
59464W        W20830  22.656   0.768   0.454
59465W        W20831  26.161  30.516   4.703
59466W        W20832  26.518  23.690   0.305
59467W        W20833  21.543  31.626  12.356
59468W        W20834  36.900  28.164   3.219
59469W        W20835  38.052   1.350  14.869
59470W        W20836  41.816   8.365  12.932
59471W        W20837  36.879  37.515  10.933
59472W        W20838  20.622  31.093   2.346
59473W        W20839  40.482   9.788  14.413
59474W        W20840  17.269  32.009  12.543
59475W        W20841  38.837  18.738   3.259
59476W        W20842  32.956  10.765   0.838
59477W        W20843  18.189  43.007   2.256
59478W        W20844  10.738  43.869  12.950
59479W        W20845   8.237  25.017  11.116
59480W        W20846  33.595  38.936   4.761
59481W        W20847  26.162   4.745  11.968
59482W        W20848  44.892  43.851  13.495
59483W        W20849   2.286  38.517   3.693
59484W        W20850  27.021  18.664   4.332
59485W        W20851  41.416   4.315   1.893
59486W        W20852  36.903  42.390   3.348
59487W        W20853  30.448  36.939   1.305
59488W        W20854   1.330   8.850   2.313
59489W        W20855  38.841  19.214   3.232
59490W        W20856  13.271  31.095  13.991
59491W        W20857  33.468  35.033  10.443
59492W        W20858  34.934  42.938  13.813
59493W        W20859  31.908  33.124  10.997
59494W        W20860  25.189  42.975  11.066
59495W        W20861  20.619  38.327   3.677
59496W        W20862  16.723  35.029   3.232
59497W        W20863   4.443   4.800  10.160
59498W        W20864  37.832   6.276  11.003
59499W        W20865  22.620  33.126   1.415
59500W        W20866  36.965  26.480   2.243
59501W        W20867  15.586  23.574  13.892
59502W        W20868  26.994   2.728  14.985
59503W        W20869  39.428  33.559  10.504
59504W        W20870  20.568   2.280   3.331
59505W        W20871  23.145  16.607  10.999
59506W        W20872  32.921   1.301  11.878
59507W        W20873  15.321  44.283   2.244
59508W        W20874  33.882   0.828  11.124
59509W        W20875  34.945  39.363   1.770
59510W        W20876  31.000   2.251  10.414
59511W        W20877  26.646  13.189  13.333
59512W        W20878  20.649  13.324  10.582
59513W        W20879   0.871  12.671  10.115
59514W        W20880   0.263  36.458  12.537
59515W        W20881   9.265  32.397  14.780
59516W        W20882  24.697  37.578  13.506
59517W        W20883   4.934  27.092   4.730
59518W        W20884  12.724   8.816  14.512
59519W        W20885  33.463  41.384   1.823
59520W        W20886  37.568   7.353  10.500
59521W        W20887  20.525  44.880  11.484
59522W        W20888  19.679  16.317   3.675
59523W        W20889   3.437  24.493   4.116
59524W        W20890  44.949  23.125  13.320
59525W        W20891  43.336  16.761  12.357
59526W        W20892   0.247  27.496  12.381
59527W        W20893  33.518  37.006   1.391
59528W        W20894  32.565  18.628   1.777
59529W        W20895  29.649  33.486   5.173
59530W        W20896  14.245   4.729  13.411
59531W        W20897  35.518  27.547  12.855
59532W        W20898  32.104  25.163   3.182
59533W        W20899  18.645   2.922   4.648
59534W        W20900  27.451  22.665   2.815
59535W        W20901  39.934   0.775  10.437
59536W        W20902  29.512  20.755  12.455
59537W        W20903  22.209  30.027   2.387
59538W        W20904  20.744  39.956  14.449
59539W        W20905  44.433   8.160   0.929
59540W        W20906   0.275  40.902   4.642
59541W        W20907  13.346  42.953   2.683
59542W        W20908  28.066   9.759   3.174
59543W        W20909   6.238  29.524   2.701
59544W        W20910   9.290  44.829   3.689
59545W        W20911  22.741   7.225   3.679
59546W        W20912  32.431  44.995   0.801
59547W        W20913  25.216  10.150   3.787
59548W        W20914   3.739   5.816   4.125
59549W        W20915   4.396  35.438  14.276
59550W        W20916  23.708  44.824  13.048
59551W        W20917  16.795  23.162   1.254
59552W        W20918  21.262  18.103   2.413
59553W        W20919  36.938  36.963  10.499
59554W        W20920  27.085  23.691   2.847
59555W        W20921   4.375   8.255  11.554
59556W        W20922   5.381  30.024   4.645
59557W        W20923  40.813   1.857   1.412
59558W        W20924   7.250  10.184  11.990
59559W        W20925  12.330  11.808   4.621
59560W        W20926  28.057   0.788  13.450
59561W        W20927  14.830  25.096   4.273
59562W        W20928  33.409  11.313   4.224
59563W        W20929   2.853  16.766   4.176
59564W        W20930  43.995  22.727   4.311
59565W        W20931   3.352  18.647   0.874
59566W        W20932  37.929  37.362  12.473
59567W        W20933  28.460  33.412   0.749
59568W        W20934  14.234  22.692  13.059
59569W        W20935  42.451  27.994   0.282
59570W        W20936  20.664  11.190   4.352
59571W        W20937   3.944  12.789  13.444
59572W        W20938  38.014  10.686   0.300
59573W        W20939  14.241  31.624  13.443
59574W        W20940  28.152  16.787  10.432
59575W        W20941   1.467   4.709  12.415
59576W        W20942  21.738  24.195   1.384
59577W        W20943  43.473  29.983   3.757
59578W        W20944  19.547  32.569  13.318
59579W        W20945  42.356  17.190   0.882
59580W        W20946  17.762  32.890  12.038
59581W        W20947  32.458  28.116   0.247
59582W        W20948   3.910  25.063  12.952
59583W        W20949  13.834   0.962  10.448
59584W        W20950  14.187  36.844  13.019
59585W        W20951  42.350  14.278  13.983
59586W        W20952  23.051  14.163   2.215
59587W        W20953  12.357  34.087   2.352
59588W        W20954  21.515  33.482  13.308
59589W        W20955  37.012  36.537  14.513
59590W        W20956  11.788  29.554   0.458
59591W        W20957  38.922  35.393   2.192
59592W        W20958  25.195   9.318  12.515
59593W        W20959  30.075  43.476   3.834
59594W        W20960  37.471  22.161  14.975
59595W        W20961  11.331  24.498  10.923
59596W        W20962  33.511  37.837   2.810
59597W        W20963  33.571  16.664   1.899
59598W        W20964   3.796  33.427  13.398
59599W        W20965   9.300  26.584  13.335
59600W        W20966   1.458  24.546   2.202
59601W        W20967  12.318  23.053   3.303
59602W        W20968  35.564  18.090   0.349
59603W        W20969  32.411  17.242   3.708
59604W        W20970  36.504  40.953  13.337
59605W        W20971   1.909  34.474  10.506
59606W        W20972  16.077  15.817  14.365
59607W        W20973  42.393   3.455   4.121
59608W        W20974  38.009   5.890  14.965
59609W        W20975  42.452   1.742  13.400
59610W        W20976   6.415  28.676   3.279
59611W        W20977  37.977  40.540   5.136
59612W        W20978  19.059  10.639   1.845
59613W        W20979  18.618  13.276  12.885
59614W        W20980  13.178  30.569   1.902
59615W        W20981  40.876  15.302   2.681
59616W        W20982  26.193  25.691  14.976
59617W        W20983  33.526  19.099   2.683
59618W        W20984  41.843  14.190  11.454
59619W        W20985  23.197   5.262   4.809
59620W        W20986  31.106  39.429  13.063
59621W        W20987   8.194   8.684   3.207
59622W        W20988   3.759  34.973  11.436
59623W        W20989  29.570  18.730   4.294
59624W        W20990  14.649   8.743   9.949
59625W        W20991  11.195  25.966   0.444
59626W        W20992  37.088   9.826  12.910
59627W        W20993  29.601  26.956  13.813
59628W        W20994  33.051   0.930   1.383
59629W        W20995  44.954  36.018  13.342
59630W        W20996  15.623  38.043   1.278
59631W        W20997  16.796  32.475  12.478
59632W        W20998  15.169  41.436  14.483
59633W        W20999   9.309  38.890  11.107
59634W        W21000   3.856  21.069   2.352
59635W        W21001  43.982  36.935   2.784
59636W        W21002   5.344   0.797  10.021
59637W        W21003   6.259   5.199   2.349
59638W        W21004  21.259  28.463  13.446
59639W        W21005  34.403  44.412   0.309
59640W        W21006  22.631  31.042   0.457
59641W        W21007   5.278  44.803  12.553
59642W        W21008  21.074  10.303   3.796
59643W        W21009  11.715  32.480   1.860
59644W        W21010  25.503  20.273  12.037
59645W        W21011  25.495  44.873  14.312
59646W        W21012  17.777  23.525  13.887
59647W        W21013  20.180  30.079  11.537
59648W        W21014   9.711  44.983  10.506
59649W        W21015  17.580  19.185  14.842
59650W        W21016  20.699  25.640   4.793
59651W        W21017   3.279  41.037   0.250
59652W        W21018  41.902   2.894  14.915
59653W        W21019  40.533  24.226  11.871
59654W        W21020   3.821  37.857   1.442
59655W        W21021  38.870   4.219   1.872
59656W        W21022  29.651  11.319   2.192
59657W        W21023   8.828  24.114   2.663
59658W        W21024  39.013  44.430  10.456
59659W        W21025   5.196  43.493   2.781
59660W        W21026  32.101  33.463  13.528
59661W        W21027   8.808   3.859  10.977
59662W        W21028  37.943  17.120   1.709
59663W        W21029   9.261  12.680   1.818
59664W        W21030  43.508  22.715  10.456
59665W        W21031   1.747  10.250  13.926
59666W        W21032   0.368  33.414   4.670
59667W        W21033  40.374  44.811  11.394
59668W        W21034  10.661  31.968   1.224
59669W        W21035  14.712  34.403   0.894
59670W        W21036  28.617   4.447  10.609
59671W        W21037  33.023   9.709  12.823
59672W        W21038   2.751  24.568  14.860
59673W        W21039  12.163   4.231  13.338
59674W        W21040  30.997   7.258  10.141
59675W        W21041   2.748  12.329  14.878
59676W        W21042  20.666  27.064  13.409
59677W        W21043  25.617  21.082  11.062
59678W        W21044   9.282  29.519   2.735
59679W        W21045  30.480  11.327  11.562
59680W        W21046  25.574  18.254  14.019
59681W        W21047  18.141  23.565   2.732
59682W        W21048  13.170  41.376  11.003
59683W        W21049  40.430   4.860   4.227
59684W        W21050  29.653   3.288  14.338
59685W        W21051  31.954  22.102   4.113
59686W        W21052  37.083  22.652   3.369
59687W        W21053  26.024  40.894  10.512
59688W        W21054  31.573  43.778  12.897
59689W        W21055   0.818  39.345  14.328
59690W        W21056   6.390  16.805  14.366
59691W        W21057  26.666  33.991   0.828
59692W        W21058  36.405  24.185   1.699
59693W        W21059  35.574  19.730  12.571
59694W        W21060  39.328  44.942  13.501
59695W        W21061  40.031  38.006  14.000
59696W        W21062  31.478  29.470   0.744
59697W        W21063  35.105   7.784  14.857
59698W        W21064  10.233   1.867   4.346
59699W        W21065  12.725  33.605   3.650
59700W        W21066  34.888  26.680  12.418
59701W        W21067  27.544   7.760  13.847
59702W        W21068  41.515   6.875   3.864
59703W        W21069  17.714  40.514   0.357
59704W        W21070   7.667   1.968   2.263
59705W        W21071  15.121  13.606   2.681
59706W        W21072  22.049   6.286  11.064
59707W        W21073  42.868  36.033  11.916
59708W        W21074  27.175  29.003   5.128
59709W        W21075  11.658  17.115   2.747
59710W        W21076  20.273  30.039   2.404
59711W        W21077   2.835  14.654   4.263
59712W        W21078  27.980   3.364   4.267
59713W        W21079   3.422  22.112   4.319
59714W        W21080  13.121  17.159   0.899
59715W        W21081  29.993  21.625   3.219
59716W        W21082   3.303  11.347   2.384
59717W        W21083  38.863  27.021   4.697
59718W        W21084  25.640  32.016  11.576
59719W        W21085  22.999  11.347   2.204
59720W        W21086  35.393  18.770  12.078
59721W        W21087  14.591  14.685  13.964
59722W        W21088  39.968   4.277  11.417
59723W        W21089  32.897  44.379  13.384
59724W        W21090  23.104   5.926   0.358
59725W        W21091   3.898  25.605   0.794
59726W        W21092  41.864   5.423  14.913
59727W        W21093  44.428  43.896   3.240
59728W        W21094  30.578  30.933   5.310
59729W        W21095   1.377  23.679   1.925
59730W        W21096  23.510  34.017   0.837
59731W        W21097   6.339  35.972  11.564
59732W        W21098  25.612   2.756   3.868
59733W        W21099  35.876   6.234  11.454
59734W        W21100  17.261  26.171  11.414
59735W        W21101   7.818   0.899  10.604
59736W        W21102   0.324  15.684  12.436
59737W        W21103   6.182  25.585   1.836
59738W        W21104   5.793   1.820   4.175
59739W        W21105   8.396   4.290  12.478
59740W        W21106  19.606  32.917  13.394
59741W        W21107   1.437  25.532   3.704
59742W        W21108  35.976  36.492  14.860
59743W        W21109  20.522  43.467   4.748
59744W        W21110  35.952  14.635   1.837
59745W        W21111  25.165  36.592   3.699
59746W        W21112  35.097  38.054  14.416
59747W        W21113  14.306  38.996  14.899
59748W        W21114  10.370  40.923   3.714
59749W        W21115  10.710  19.682  12.445
59750W        W21116  21.645  32.968  10.428
59751W        W21117  35.388  17.104   4.351
59752W        W21118   4.808  35.486  11.601
59753W        W21119  16.268  26.522   2.335
59754W        W21120  24.181   0.469  12.511
59755W        W21121  21.197   1.823   4.661
59756W        W21122  39.345  15.318  14.910
59757W        W21123  12.162  35.511  12.470
59758W        W21124  41.409  15.142   4.203
59759W        W21125  32.583  42.333   2.716
59760W        W21126  40.006  28.056   1.740
59761W        W21127  28.159   3.326  10.639
59762W        W21128   6.868  10.640   1.903
59763W        W21129  29.026  17.176   1.425
59764W        W21130  25.147   8.772  13.347
59765W        W21131  44.837  30.551   3.275
59766W        W21132  19.697  24.654   1.816
59767W        W21133  35.034  28.929  11.086
59768W        W21134  21.070   9.831  11.019
59769W        W21135  21.640  11.623   1.728
59770W        W21136  44.357  41.306   3.868
59771W        W21137  25.584  28.578  13.924
59772W        W21138   5.256  25.170   3.792
59773W        W21139  17.748   5.207  10.492
59774W        W21140  31.969   6.233   3.291
59775W        W21141   6.700   5.776  10.603
59776W        W21142  16.261  36.026  12.565
59777W        W21143  11.315  21.057   1.387
59778W        W21144  44.325  28.157  11.509
59779W        W21145  18.606  37.896  10.974
59780W        W21146  19.717  29.127  10.482
59781W        W21147   4.285  28.657  11.941
59782W        W21148  28.004  13.197   4.116
59783W        W21149  34.598  28.118  13.062
59784W        W21150   8.691   8.686   2.828
59785W        W21151  28.133  14.186  10.503
59786W        W21152  23.696  11.160  13.413
59787W        W21153  29.477   4.751  11.595
59788W        W21154  31.898  20.262   0.316
59789W        W21155  34.085  38.421   4.744
59790W        W21156  37.960  38.472   1.807
59791W        W21157  36.515  29.944   3.164
59792W        W21158   6.720  35.603  14.415
59793W        W21159  37.405  12.156  14.927
59794W        W21160  41.428  31.994   1.222
59795W        W21161   2.280  40.838   4.230
59796W        W21162  16.317  11.755   4.226
59797W        W21163  44.938   7.396  10.942
59798W        W21164  24.687  29.081   0.864
59799W        W21165   3.889  23.710   3.719
59800W        W21166  14.707   6.760  11.065
59801W        W21167   5.401  23.178   4.136
59802W        W21168  27.619   5.224  12.970
59803W        W21169  32.412   2.740  14.410
59804W        W21170   7.269   4.743   3.373
59805W        W21171   4.750  20.676   4.653
59806W        W21172  26.553  28.438  12.433
59807W        W21173   9.335  23.042  13.877
59808W        W21174  16.641   6.684   4.289
59809W        W21175  18.746  10.779   2.231
59810W        W21176  27.577  43.513   2.774
59811W        W21177   8.203  40.872   3.258
59812W        W21178  30.502  24.001   4.685
59813W        W21179   9.192   8.344   0.275
59814W        W21180  14.645  22.621   1.253
59815W        W21181  34.427  40.386   3.275
59816W        W21182  27.062  37.564  14.930
59817W        W21183   1.960  25.182  11.125
59818W        W21184  31.132  14.202  14.843
59819W        W21185  43.892  12.748   3.292
59820W        W21186  11.836  20.574   4.326
59821W        W21187  32.068  26.199  14.797
59822W        W21188   0.915  17.768   3.806
59823W        W21189  22.580  31.076  14.993
59824W        W21190  26.497   0.288  12.564
59825W        W21191  44.860   4.711   1.697
59826W        W21192  33.103  19.662   4.293
59827W        W21193  36.983  38.028   3.210
59828W        W21194   3.286  28.985   2.273
59829W        W21195  13.258  26.982  11.443
59830W        W21196  33.116  44.916  12.488
59831W        W21197   4.868  11.187   4.246
59832W        W21198  24.030  31.508   2.830
59833W        W21199   2.372  15.255   3.301
59834W        W21200  20.705  19.769  11.092
59835W        W21201  15.316  20.692  13.384
59836W        W21202  21.617  18.759  12.501
59837W        W21203  25.640  36.951   3.866
59838W        W21204  31.531  15.646  13.911
59839W        W21205  25.484   0.946   4.677
59840W        W21206  25.548  19.698   1.750
59841W        W21207  33.999  15.610  14.979
59842W        W21208  25.032  36.448  12.420
59843W        W21209   6.766  33.462  12.989
59844W        W21210  19.581  36.879  14.934
59845W        W21211  16.803  44.917   2.796
59846W        W21212  36.391   7.246   2.799
59847W        W21213   8.182   4.870  11.888
59848W        W21214  36.866   3.221  13.052
59849W        W21215  39.816  41.347  10.956
59850W        W21216  19.583  31.589  11.929
59851W        W21217  34.594   5.759   1.764
59852W        W21218   4.898  12.345  10.932
59853W        W21219  23.107  14.195   4.264
59854W        W21220  12.658  35.568   1.234
59855W        W21221  11.706  13.613   0.751
59856W        W21222  20.034   7.889  11.118
59857W        W21223  12.835   0.952  14.899
59858W        W21224  29.573  33.467   2.704
59859W        W21225  31.408  38.997   0.438
59860W        W21226  21.736  27.558   2.837
59861W        W21227  13.812  29.515  12.859
59862W        W21228  21.067  40.315   2.862
59863W        W21229  16.257  31.607  10.051
59864W        W21230  12.756   8.787  10.516
59865W        W21231   9.788  19.663  12.978
59866W        W21232  23.102  29.006   0.409
59867W        W21233  30.040   5.338   1.212
59868W        W21234  22.249  21.642  10.567
59869W        W21235  13.168  34.379  13.361
59870W        W21236   9.317  31.642   1.349
59871W        W21237  13.349  15.680  10.468
59872W        W21238  28.460   7.897   1.931
59873W        W21239  22.564  40.447  11.878
59874W        W21240   6.908  23.118   1.413
59875W        W21241   1.776  24.980  10.482
59876W        W21242  39.937   9.205   3.746
59877W        W21243  21.706  44.979   4.120
59878W        W21244  39.550  30.600   0.828
59879W        W21245   7.298  25.502  11.496
59880W        W21246  40.438   8.199   3.153
59881W        W21247   4.785  23.701  11.535
59882W        W21248  42.294  22.679   1.327
59883W        W21249  26.105  37.971  11.020
59884W        W21250  31.623  30.944   3.721
59885W        W21251  15.686  21.261  11.081
59886W        W21252  13.320  29.048  14.859
59887W        W21253   0.398  40.421   2.220
59888W        W21254  25.202   5.840  14.002
59889W        W21255  28.002  24.577   3.366
59890W        W21256  18.093  29.666  14.968
59891W        W21257  21.189  44.910   2.237
59892W        W21258   3.362  44.471  12.404
59893W        W21259  44.781  27.958  14.461
59894W        W21260  33.950   1.848   2.368
59895W        W21261  25.097  29.023   3.811
59896W        W21262  16.618  21.132  12.990
59897W        W21263  17.173  41.964   2.763
59898W        W21264  35.434  22.642  13.382
59899W        W21265  24.484   0.292  14.004
59900W        W21266  17.192   5.842  11.986
59901W        W21267  42.497  31.898   3.255
59902W        W21268  13.679  22.217  13.911
59903W        W21269  18.574   9.274  14.814
59904W        W21270  20.671  23.132   4.633
59905W        W21271  37.529  19.248   0.877
59906W        W21272  34.011   0.407   1.426
59907W        W21273  23.506  38.897  11.589
59908W        W21274  26.628  25.539   1.295
59909W        W21275  26.071  14.299   2.732
59910W        W21276   3.899  32.142  14.873
59911W        W21277   0.306   8.892   2.341
59912W        W21278  13.261  18.683  11.112
59913W        W21279  16.753   5.731  14.868
59914W        W21280  39.395  41.440  10.405
59915W        W21281   1.361  19.139  10.918
59916W        W21282   8.193  42.816  13.991
59917W        W21283  20.649   6.699  13.495
59918W        W21284  34.519  33.006   0.243
59919W        W21285   2.731  18.702  13.041
59920W        W21286  21.175  32.437   9.666
59921W        W21287  33.110  12.286  12.070
59922W        W21288  37.845  35.013   2.858
59923W        W21289  35.003   6.192   0.846
59924W        W21290   0.387  42.459  12.933
59925W        W21291  25.135  19.054  14.295
59926W        W21292  23.056  31.623  10.465
59927W        W21293  10.350   7.306   0.271
59928W        W21294  24.640   6.351  14.022
59929W        W21295  22.658  28.456  10.521
59930W        W21296  20.595  38.835  12.883
59931W        W21297  41.501  24.647  13.898
59932W        W21298   9.790  13.631   2.749
59933W        W21299  35.546  12.151   2.371
59934W        W21300  10.267  10.717  12.886
59935W        W21301  10.192   7.682   5.246
59936W        W21302   7.178  30.014  12.468
59937W        W21303  24.123  35.059   0.344
59938W        W21304   7.757   4.749   4.321
59939W        W21305  16.636  36.946   1.396
59940W        W21306  39.487  35.962   1.398
59941W        W21307  14.323  33.590   2.670
59942W        W21308  29.030  32.629   4.644
59943W        W21309  29.452  29.486   1.234
59944W        W21310  27.014  31.966  10.141
59945W        W21311  11.188   4.324   2.697
59946W        W21312  17.062  17.101  11.402
59947W        W21313  23.720  19.208  12.440
59948W        W21314  10.797   4.430   3.290
59949W        W21315  20.574   3.781  10.500
59950W        W21316  36.502   3.881  14.793
59951W        W21317  25.079  20.121   3.380
59952W        W21318  10.858  40.316  13.790
59953W        W21319  33.613  30.632   1.418
59954W        W21320  20.622  40.989  12.972
59955W        W21321  26.206  18.130  10.404
59956W        W21322  34.960  42.487   5.743
59957W        W21323  41.317   0.445   4.813
59958W        W21324  27.197  20.188  10.450
59959W        W21325  36.027   1.862   4.321
59960W        W21326  35.402  42.375  12.347
59961W        W21327   0.882  24.510  11.439
59962W        W21328  32.618  27.969   4.702
59963W        W21329  31.129  19.722   1.928
59964W        W21330  42.379   9.277  13.055
59965W        W21331  33.388  39.370  14.811
59966W        W21332   0.481   8.281   3.677
59967W        W21333  39.840   2.443  13.017
59968W        W21334  37.402  10.246   3.245
59969W        W21335  32.593  42.422  12.923
59970W        W21336  25.637  24.686  13.945
59971W        W21337   3.763  32.112   0.298
59972W        W21338  28.569  24.129   1.791
59973W        W21339  25.994  44.827   4.282
59974W        W21340  36.961  31.453   3.652
59975W        W21341  32.411  30.163  14.395
59976W        W21342  26.501  23.017   4.817
59977W        W21343   9.278  39.946  10.536
59978W        W21344  17.577  24.026   1.811
59979W        W21345  40.910  16.804  12.846
59980W        W21346  39.547  42.479  10.569
59981W        W21347  37.473  29.143   2.662
59982W        W21348  22.685  34.066  13.025
59983W        W21349   0.917  32.497  13.400
59984W        W21350  14.327  27.624  13.802
59985W        W21351  41.452   4.834  11.930
59986W        W21352  19.052  13.231  10.984
59987W        W21353  13.320  42.282  12.457
59988W        W21354  29.949  36.889   3.322
59989W        W21355  26.105  38.474  11.445
59990W        W21356  40.863  29.093  13.408
59991W        W21357   2.760   3.254   4.670
59992W        W21358  42.420  26.044  14.468
59993W        W21359  10.383   9.703  10.404
59994W        W21360  25.588  33.619   3.334
59995W        W21361  22.212  17.132  11.546
59996W        W21362   0.883  29.489   0.334
59997W        W21363  19.768  19.577  13.344
59998W        W21364  26.639  43.277  14.796
59999W        W21365  17.743  40.496   3.178
60000W        W21366  17.577  19.568  10.920
60001W        W21367  38.330  29.173  14.974
60002W        W21368  32.018  35.081   0.336
60003W        W21369  20.198  14.114   1.830
60004W        W21370  30.586  16.247  12.047
60005W        W21371  22.196  33.533   4.233
60006W        W21372  44.849   2.781  11.973
60007W        W21373   3.447   9.165  11.920
60008W        W21374   7.280  37.079   3.778
60009W        W21375  22.178  41.489  13.054
60010W        W21376   4.376  37.890  10.444
60011W        W21377  36.445  31.989  11.565
60012W        W21378  16.280   7.394  12.524
60013W        W21379   4.776  12.831   0.386
60014W        W21380  27.507   4.930  10.900
60015W        W21381  42.393   9.373   1.367
60016W        W21382  26.188  38.432   2.721
60017W        W21383   1.481  18.773  14.461
60018W        W21384  34.536  27.182  12.526
60019W        W21385  26.595  22.015   0.368
60020W        W21386  41.803   9.335   0.321
60021W        W21387  17.647   3.743   0.967
60022W        W21388  34.863  19.092  11.425
60023W        W21389  44.933  26.065  10.552
60024W        W21390  39.990  27.118  11.500
60025W        W21391  37.883  36.058  11.995
60026W        W21392   5.697  38.439   0.385
60027W        W21393  14.328  21.228   3.690
60028W        W21394   0.749  35.953   3.716
60029W        W21395  43.873  22.744  10.426
60030W        W21396  10.874  21.514  13.467
60031W        W21397   1.758  30.487  13.840
60032W        W21398   9.885   1.370  12.857
60033W        W21399  41.822  28.522   4.717
60034W        W21400  34.379  35.891  11.021
60035W        W21401  36.956  20.242   0.911
60036W        W21402  11.367  39.056  12.427
60037W        W21403   7.832  16.647   9.973
60038W        W21404  12.847   1.405  14.909
60039W        W21405  28.585  24.121  14.867
60040W        W21406  11.701  39.471  10.518
60041W        W21407  30.954  11.787  13.982
60042W        W21408  10.668  31.897  13.899
60043W        W21409  40.410  42.992   1.351
60044W        W21410  33.389  23.732  10.460
60045W        W21411  26.480   3.897   4.298
60046W        W21412  33.455  35.471   0.303
60047W        W21413  10.849  35.592  10.591
60048W        W21414   4.326   8.686  10.924
60049W        W21415  16.591  31.489   0.345
60050W        W21416  23.501  28.673   0.363
60051W        W21417  25.012   4.931   2.750
60052W        W21418   4.919  34.483   1.863
60053W        W21419  28.488  20.237   0.311
60054W        W21420  23.235   2.741   5.788
60055W        W21421  10.176  26.578  13.500
60056W        W21422  18.636   5.780  13.041
60057W        W21423  42.456  25.204   0.476
60058W        W21424   3.769  15.199   4.148
60059W        W21425   7.417  44.338   0.733
60060W        W21426   1.426  31.939   4.601
60061W        W21427  40.837  40.948  11.964
60062W        W21428   6.427  43.422  13.977
60063W        W21429  17.286  27.041  14.431
60064W        W21430   8.722  36.502   0.381
60065W        W21431  27.489  16.219   1.400
60066W        W21432  35.531   4.753  14.477
60067W        W21433   3.438   6.268   2.234
60068W        W21434  23.573  31.135  10.553
60069W        W21435  37.535  34.926   4.234
60070W        W21436  21.176   4.842  11.592
60071W        W21437   3.796  30.129   0.845
60072W        W21438   2.257  25.098   3.782
60073W        W21439  20.624   8.749   0.345
60074W        W21440  27.688  40.968   1.837
60075W        W21441  21.675   1.467   4.242
60076W        W21442  21.535  12.336   3.845
60077W        W21443  42.524  10.736   1.864
60078W        W21444   4.407  19.274   4.680
60079W        W21445  29.974  44.312  11.901
60080W        W21446  37.943  40.964   1.752
60081W        W21447   7.858  24.641   3.288
60082W        W21448  35.886  14.620   3.717
60083W        W21449  18.572  42.792  14.931
60084W        W21450   7.716   5.353   2.201
60085W        W21451   8.796  26.119  12.907
60086W        W21452  26.197  37.538  12.981
60087W        W21453  17.778  17.279  10.613
60088W        W21454  23.232   0.268  11.474
60089W        W21455  43.444  19.207   0.317
60090W        W21456  42.961  37.904  10.562
60091W        W21457   8.370  22.732  13.956
60092W        W21458  38.486  38.563   3.287
60093W        W21459  40.999  33.485  11.475
60094W        W21460  43.887  44.973  10.632
60095W        W21461  42.986  10.180   4.688
60096W        W21462  27.165   0.897  14.003
60097W        W21463   0.881  41.370   1.327
60098W        W21464  19.603   7.692   1.788
60099W        W21465  39.975   3.347  14.812
60100W        W21466  40.822  38.056  11.070
60101W        W21467  11.689  21.138  11.988
60102W        W21468  17.602  41.311   2.782
60103W        W21469  34.540  40.825   4.782
60104W        W21470  36.495  44.494  10.154
60105W        W21471  32.907  12.252  13.831
60106W        W21472  27.553  24.146   0.288
60107W        W21473  24.047  44.448  14.383
60108W        W21474   8.790  21.198   1.237
60109W        W21475  10.769  35.067  14.367
60110W        W21476  32.001  34.439   0.740
60111W        W21477  11.853  31.955   1.806
60112W        W21478  27.474   4.294   2.411
60113W        W21479  22.657   3.248  11.978
60114W        W21480  21.537   4.231   5.227
60115W        W21481  23.658  12.732  10.614
60116W        W21482  23.181   1.257   3.279
60117W        W21483  31.143  39.952   0.355
60118W        W21484  31.968  38.005  12.989
60119W        W21485  11.287   9.705   2.403
60120W        W21486  42.286  12.352  13.806
60121W        W21487   8.780  40.543  14.865
60122W        W21488  30.475   5.370   2.328
60123W        W21489  14.160  20.156  12.060
60124W        W21490  32.977  12.719  11.460
60125W        W21491   6.764  39.333   2.295
60126W        W21492   9.267  27.516   0.877
60127W        W21493  19.272  40.035   0.308
60128W        W21494  30.119   3.243   0.347
60129W        W21495  26.542   6.282   1.822
60130W        W21496   5.879  24.537   0.730
60131W        W21497  13.156  10.315   5.141
60132W        W21498  17.293  12.329  13.407
60133W        W21499   7.801  33.555   0.345
60134W        W21500  10.676   3.720  10.936
60135W        W21501   2.234  34.482  13.418
60136W        W21502   6.365   1.300  12.908
60137W        W21503  19.263  23.669  12.972
60138W        W21504  13.682  37.542   2.892
60139W        W21505  15.297   4.259  14.872
60140W        W21506  23.079  17.739   0.830
60141W        W21507  37.989   5.269  10.954
60142W        W21508  39.356  26.185   0.750
60143W        W21509   1.748  39.336  12.916
60144W        W21510  32.627  28.111  13.493
60145W        W21511  25.217  10.855  10.992
60146W        W21512  29.618  21.614   0.419
60147W        W21513   6.714   1.361   3.233
60148W        W21514  31.509  35.994  12.016
60149W        W21515  17.136  13.806   1.348
60150W        W21516  17.147   4.374  12.526
60151W        W21517  14.265   5.267  13.850
60152W        W21518  13.649  20.695  11.579
60153W        W21519  15.092   1.430   3.306
60154W        W21520   8.217  42.485  10.459
60155W        W21521  17.284  33.488  13.889
60156W        W21522  18.618  16.125   5.257
60157W        W21523  12.145   5.277   4.296
60158W        W21524  11.134   3.939   4.682
60159W        W21525  10.780   6.762   1.249
60160W        W21526  40.333  39.908  13.382
60161W        W21527  38.937  10.787   3.837
60162W        W21528  22.012   7.250  11.566
60163W        W21529  11.243  13.322  10.449
60164W        W21530  36.581   2.294  11.947
60165W        W21531  44.426   6.233  10.154
60166W        W21532   9.156  20.194   3.679
60167W        W21533  20.175  23.509  14.997
60168W        W21534  37.846  29.936   4.189
60169W        W21535   3.373  17.773  13.352
60170W        W21536  42.022  28.530  14.330
60171W        W21537  42.939  24.605  13.389
60172W        W21538  18.651  21.599  12.503
60173W        W21539  33.597  11.655  13.528
60174W        W21540   3.780  25.492   3.867
60175W        W21541  10.352   8.851   0.857
60176W        W21542  25.137   1.846  12.576
60177W        W21543  22.562  23.145   1.932
60178W        W21544  19.747  23.145  13.350
60179W        W21545   5.270  29.519   3.729
60180W        W21546  29.170   7.262  11.612
60181W        W21547  21.208  30.121  10.415
60182W        W21548  33.419  26.544   0.255
60183W        W21549  24.044  25.186  13.867
60184W        W21550  41.920  38.986   2.318
60185W        W21551   2.847  15.280   0.854
60186W        W21552  26.006   8.781  14.335
60187W        W21553  13.609  27.182  13.442
60188W        W21554   2.329  11.272  13.932
60189W        W21555  29.621   1.434   2.718
60190W        W21556  35.970  35.546  13.992
60191W        W21557  32.928  34.384  13.040
60192W        W21558   6.399  43.349  10.518
60193W        W21559   7.196  20.056   1.794
60194W        W21560  32.989  15.257  13.059
60195W        W21561  44.901  44.349  13.346
60196W        W21562  39.418  30.119   4.672
60197W        W21563  39.419  31.059  14.503
60198W        W21564  28.970  10.381  14.401
60199W        W21565  13.180   2.341   1.386
60200W        W21566  37.340  16.244   1.735
60201W        W21567  31.021  28.935   2.277
60202W        W21568   3.447  27.040   1.709
60203W        W21569  33.030  21.222  13.517
60204W        W21570  39.416  17.121  13.931
60205W        W21571  29.091  14.800   4.248
60206W        W21572   8.248  28.980  13.861
60207W        W21573  22.164  39.922  14.009
60208W        W21574   1.836  44.758   2.394
60209W        W21575  23.708  15.206  11.912
60210W        W21576  30.540  14.229  10.569
60211W        W21577  23.078   8.188   2.809
60212W        W21578  38.028   4.361   4.327
60213W        W21579  16.197  13.280  10.068
60214W        W21580   6.418  17.555   9.920
60215W        W21581  35.965  42.881  12.971
60216W        W21582  14.313  17.218  14.764
60217W        W21583  40.934  41.463  13.951
60218W        W21584  24.161  29.438   2.775
60219W        W21585  27.144  25.125   2.321
60220W        W21586  41.301  39.879   3.184
60221W        W21587  33.022  33.476  12.860
60222W        W21588  37.431   0.478   1.784
60223W        W21589  31.061   2.441  11.502
60224W        W21590   6.875  28.113  10.902
60225W        W21591  28.458  20.151   3.241
60226W        W21592  19.162  32.615   4.833
60227W        W21593   4.245   9.763  14.477
60228W        W21594  44.449   5.277   2.333
60229W        W21595   7.178  35.095   1.342
60230W        W21596  39.889   1.386   2.228
60231W        W21597  38.033  24.187   3.219
60232W        W21598  19.644  42.867  11.480
60233W        W21599  42.464  23.641  13.824
60234W        W21600  19.678  30.132  12.857
60235W        W21601  11.659  12.179  13.994
60236W        W21602  44.343  30.947  12.488
60237W        W21603   1.932  37.520  10.507
60238W        W21604  17.572   2.948   4.220
60239W        W21605   0.746  42.963   2.353
60240W        W21606  16.762  32.927   1.395
60241W        W21607  22.727  25.165   4.647
60242W        W21608   4.251  42.479   4.684
60243W        W21609   2.885  37.478   1.725
60244W        W21610  22.185  40.413   4.180
60245W        W21611  32.135  43.473   4.712
60246W        W21612  23.503  34.538   3.761
60247W        W21613  11.783   9.827  13.405
60248W        W21614   7.853   0.300  13.485
60249W        W21615   9.288   2.801   5.126
60250W        W21616  22.251  15.811  10.502
60251W        W21617  16.187  22.689  12.901
60252W        W21618  42.976  15.683   2.856
60253W        W21619  18.680   1.792  13.059
60254W        W21620  37.991  43.323   1.221
60255W        W21621  28.173  39.967  14.820
60256W        W21622  10.242  28.960   3.304
60257W        W21623  17.114  18.068  14.781
60258W        W21624  19.632  44.937   3.721
60259W        W21625   1.914  32.922   3.774
60260W        W21626   2.408   4.226   2.185
60261W        W21627  10.800  33.556   1.871
60262W        W21628   8.395  25.519  10.617
60263W        W21629  41.508   7.853  12.055
60264W        W21630  39.388   7.192   4.616
60265W        W21631   0.753  19.578   3.737
60266W        W21632  28.934  25.179   1.421
60267W        W21633  42.795  24.569  11.959
60268W        W21634  37.453   4.255  13.529
60269W        W21635  23.079   8.851  10.419
60270W        W21636  19.777  18.584   3.795
60271W        W21637  28.009  17.724   0.777
60272W        W21638  28.608  11.625   4.254
60273W        W21639   9.356  34.464   2.354
60274W        W21640  41.343  24.533   2.407
60275W        W21641  13.770  22.533   3.264
60276W        W21642  15.256  41.032   3.868
60277W        W21643  35.604  10.284  11.556
60278W        W21644  39.890  27.472  11.098
60279W        W21645  29.997  41.907   3.212
60280W        W21646  12.829  44.486   1.909
60281W        W21647  20.045  22.542  11.456
60282W        W21648  24.502  44.322   0.791
60283W        W21649   2.226  17.625   1.221
60284W        W21650  24.602  27.078  11.083
60285W        W21651  43.794  34.911  11.482
60286W        W21652   1.745  15.266  12.418
60287W        W21653  23.559   4.322   3.808
60288W        W21654  16.639  38.514   1.228
60289W        W21655  33.125  43.370  12.408
60290W        W21656  29.455   3.871   1.816
60291W        W21657   4.810   6.916  13.345
60292W        W21658  41.961   6.422   4.800
60293W        W21659  32.521  26.967   2.326
60294W        W21660  42.015  34.369   2.205
60295W        W21661   1.842  27.553   2.755
60296W        W21662  20.198  20.583  14.784
60297W        W21663   4.797  39.355  12.931
60298W        W21664  28.569  15.319  12.503
60299W        W21665  36.945  30.539  13.878
60300W        W21666   6.805   4.788   5.269
60301W        W21667  29.923  30.074   2.238
60302W        W21668   3.401  39.925   3.252
60303W        W21669  28.587  38.963  14.906
60304W        W21670  44.875  19.705  14.449
60305W        W21671  30.948  15.726  14.958
60306W        W21672   6.875   5.425  13.482
60307W        W21673  10.669   7.203  12.549
60308W        W21674  29.974  38.358  14.336
60309W        W21675   0.891   9.866  14.346
60310W        W21676  35.070   6.842  14.974
60311W        W21677  25.653  35.014   1.885
60312W        W21678  39.841  13.324  14.873
60313W        W21679  25.176  20.241  10.551
60314W        W21680  27.665  30.082   0.783
60315W        W21681  36.036  42.327  14.983
60316W        W21682  19.276  43.862   4.307
60317W        W21683  14.698   1.906  13.844
60318W        W21684  20.708  36.850   3.184
60319W        W21685   8.360  13.197  14.460
60320W        W21686  32.077   9.355  13.375
60321W        W21687  12.641  36.018  12.466
60322W        W21688  44.999  42.030   2.691
60323W        W21689  43.849  16.277   2.721
60324W        W21690   8.788  25.584   2.340
60325W        W21691  23.173  29.578  12.065
60326W        W21692  29.559  10.661  14.422
60327W        W21693   0.475  36.479  10.924
60328W        W21694  17.089  31.129  11.413
60329W        W21695  32.570  38.405  13.332
60330W        W21696  38.823  42.937  12.381
60331W        W21697  19.670  15.129   4.343
60332W        W21698  27.994   6.419   0.362
60333W        W21699  14.206   9.749  14.029
60334W        W21700  34.525   3.920  13.898
60335W        W21701  12.315  18.703   1.346
60336W        W21702  25.580  15.704  10.981
60337W        W21703  17.649   5.722   3.798
60338W        W21704  35.374   6.873   2.773
60339W        W21705  23.535  25.190  10.952
60340W        W21706   2.935  16.783   3.784
60341W        W21707   4.922  37.467  13.320
60342W        W21708  34.081  30.975   4.688
60343W        W21709  31.456  15.665   4.749
60344W        W21710  34.905   9.177  12.575
60345W        W21711  15.751  10.752  11.488
60346W        W21712  44.770  18.072   2.703
60347W        W21713  37.349  42.403   0.835
60348W        W21714   7.368  36.888   0.452
60349W        W21715  30.504  36.864   2.326
60350W        W21716   0.961  29.970   3.850
60351W        W21717  16.137  22.097  13.398
60352W        W21718  22.644  34.919   0.302
60353W        W21719  25.696  34.526  12.953
60354W        W21720  36.475  25.551   0.782
60355W        W21721  33.418  28.446   4.176
60356W        W21722  10.359  21.153  11.080
60357W        W21723   4.840   5.228  14.503
60358W        W21724   5.790  13.230  13.861
60359W        W21725  21.103  14.161  13.983
60360W        W21726  11.131  19.046  12.564
60361W        W21727  35.593  17.264   3.707
60362W        W21728  37.541  12.841   1.317
60363W        W21729  41.411  25.667   4.240
60364W        W21730  35.086  22.034  10.578
60365W        W21731  11.189  18.226   0.742
60366W        W21732  20.759  15.632  13.356
60367W        W21733  34.038   6.813  13.000
60368W        W21734  37.960  31.975  12.054
60369W        W21735  21.592  20.680  14.012
60370W        W21736  11.302  32.070   4.337
60371W        W21737  29.982  40.888  13.367
60372W        W21738  40.345  31.640  13.799
60373W        W21739  15.108  10.355   1.763
60374W        W21740   4.353   8.869   4.653
60375W        W21741  16.226  19.762  14.295
60376W        W21742  44.833  35.998  12.017
60377W        W21743  24.003  33.586   4.771
60378W        W21744  33.964  34.374  10.893
60379W        W21745  33.085   2.950  12.972
60380W        W21746  25.001   2.276   3.750
60381W        W21747  20.203  14.767   2.346
60382W        W21748   4.860  38.553  11.071
60383W        W21749  41.967  36.386  11.545
60384W        W21750  27.556  36.873   3.191
60385W        W21751   8.664  43.494  14.027
60386W        W21752   0.356  22.054  10.611
60387W        W21753   7.302  34.606  14.989
60388W        W21754  28.119  41.461   0.950
60389W        W21755   5.693  24.204  13.334
60390W        W21756  42.456  37.368   1.889
60391W        W21757   5.423  39.424  10.608
60392W        W21758  42.420  15.651   0.322
60393W        W21759  35.949  34.898  13.965
60394W        W21760  13.800  27.045  12.923
60395W        W21761  36.916  36.876   1.787
60396W        W21762  40.036  13.678  11.024
60397W        W21763   8.841  22.214   4.155
60398W        W21764  37.472  35.406   3.714
60399W        W21765  34.465  15.587   1.411
60400W        W21766  40.488  31.999   5.142
60401W        W21767  37.950  44.919  11.554
60402W        W21768  30.489  27.006   2.783
60403W        W21769  43.322  31.078   0.730
60404W        W21770   4.215  22.689   3.338
60405W        W21771  33.921  20.084  12.516
60406W        W21772   1.461  29.142   1.836
60407W        W21773  18.189  11.325   2.809
60408W        W21774  26.972   9.218   3.324
60409W        W21775  28.951   8.184  11.915
60410W        W21776   9.334   6.819   1.349
60411W        W21777  39.328  44.312   0.275
60412W        W21778  41.340  26.669  12.500
60413W        W21779  30.129  36.964   1.348
60414W        W21780  11.682  25.659  11.534
60415W        W21781  27.052   6.803  12.487
60416W        W21782  31.036  23.054  14.345
60417W        W21783  44.795  18.587  11.410
60418W        W21784  15.765  13.201  14.383
60419W        W21785  44.470   8.754  12.450
60420W        W21786  34.520  18.224  14.456
60421W        W21787  27.564  36.005   0.394
60422W        W21788  31.462  37.400  10.113
60423W        W21789  18.207  29.988   3.203
60424W        W21790  34.546  13.291  12.379
60425W        W21791  32.441  20.707  13.834
60426W        W21792  26.565  33.074   0.431
60427W        W21793  32.959  42.425   1.759
60428W        W21794  19.756  33.075   1.246
60429W        W21795  26.969  40.462  12.515
60430W        W21796   4.385   7.179   1.843
60431W        W21797  21.587  36.397   4.647
60432W        W21798  44.280  12.741  11.420
60433W        W21799  24.603  32.051  13.919
60434W        W21800  20.526  13.235  11.035
60435W        W21801   2.312  36.079  14.963
60436W        W21802  32.002  44.831   3.737
60437W        W21803  38.430  21.064  14.915
60438W        W21804  41.387   2.776   3.690
60439W        W21805  24.607   9.794  10.920
60440W        W21806  20.177   6.692  14.483
60441W        W21807  20.041  15.254  13.379
60442W        W21808  42.846   2.388  11.443
60443W        W21809  35.511  25.561   3.835
60444W        W21810  21.030   7.331   0.329
60445W        W21811  33.074  11.846   0.932
60446W        W21812  42.943  33.614   0.759
60447W        W21813  40.522  11.145  11.532
60448W        W21814  27.657  24.622  11.425
60449W        W21815   4.320  43.786   2.810
60450W        W21816  10.672  22.019  12.085
60451W        W21817  34.885  27.650   2.327
60452W        W21818  15.198  15.758  13.480
60453W        W21819   9.380  17.229   4.700
60454W        W21820  21.196  12.192  14.780
60455W        W21821  21.737  23.496   4.201
60456W        W21822  16.288   4.250   1.358
60457W        W21823   7.791   8.704  11.897
60458W        W21824  13.645  22.222   1.288
60459W        W21825   1.750   2.799  10.913
60460W        W21826  40.988   3.270  11.437
60461W        W21827   2.426  32.062  13.491
60462W        W21828   9.208  27.154   2.816
60463W        W21829  11.643  13.194  11.536
60464W        W21830  11.234  20.205  10.590
60465W        W21831  18.124  31.431  12.844
60466W        W21832  15.104  37.483  14.482
60467W        W21833   3.430   1.392   4.248
60468W        W21834  44.788   7.691  12.826
60469W        W21835  22.227  11.352   3.177
60470W        W21836  28.110   0.860  10.431
60471W        W21837  16.770   8.282  13.940
60472W        W21838  22.643  28.554   0.413
60473W        W21839   1.480  33.966  11.933
60474W        W21840  34.062  16.752  11.942
60475W        W21841   2.396  33.077   2.797
60476W        W21842  33.509  36.928   4.155
60477W        W21843  26.012  12.803   3.229
60478W        W21844   4.763  24.229  11.546
60479W        W21845  40.017  35.474  13.330
60480W        W21846   6.388   5.420   5.621
60481W        W21847   0.752   4.373   1.444
60482W        W21848  29.050  25.477   0.846
60483W        W21849  39.490  20.263  10.511
60484W        W21850  29.668  29.959  12.068
60485W        W21851   9.764   8.170   2.179
60486W        W21852   9.152  38.374  11.411
60487W        W21853  15.802  16.748   2.209
60488W        W21854   4.369  22.702  13.525
60489W        W21855  41.320  16.201  11.107
60490W        W21856  26.612   6.265  12.378
60491W        W21857  13.335  25.587  12.456
60492W        W21858  22.532  36.445   3.736
60493W        W21859  30.923   1.474  13.919
60494W        W21860  29.076  38.832   3.226
60495W        W21861  29.083  20.210   1.446
60496W        W21862  33.562  22.558   4.224
60497W        W21863  43.505  38.503   2.841
60498W        W21864  18.595   6.270   3.237
60499W        W21865  21.617  25.571  11.007
60500W        W21866   8.266  29.041   2.850
60501W        W21867  34.959  11.822   1.755
60502W        W21868  18.689  38.540   0.482
60503W        W21869  42.971  30.920   2.828
60504W        W21870  44.871  37.997   0.411
60505W        W21871  37.952   4.799  13.027
60506W        W21872  43.369  14.770  11.001
60507W        W21873  42.918  10.174  12.897
60508W        W21874  35.370  22.158  12.041
60509W        W21875   0.347   3.830  11.530
60510W        W21876  39.389   3.780  12.570
60511W        W21877   7.805  36.865  14.279
60512W        W21878  44.938  39.818  13.938
60513W        W21879   4.217  33.549   4.655
60514W        W21880  24.677  17.157  13.876
60515W        W21881   9.651  20.241  11.874
60516W        W21882  39.810  19.079   4.664
60517W        W21883  44.300  35.412  14.363
60518W        W21884  19.225  23.059   3.215
60519W        W21885   7.307  42.953   4.124
60520W        W21886  16.113  35.931  11.984
60521W        W21887  35.391  18.691   3.675
60522W        W21888  12.637  28.458  10.896
60523W        W21889  36.376  16.311   2.287
60524W        W21890   8.327   5.303  14.973
60525W        W21891  11.267   6.782   0.369
60526W        W21892  38.889  14.741   2.266
60527W        W21893   9.243  25.044   2.218
60528W        W21894  35.498  27.944   0.794
60529W        W21895  24.696  17.606   4.296
60530W        W21896  36.412  22.241  13.824
60531W        W21897  13.151  20.124   3.239
60532W        W21898   0.477  30.054  14.816
60533W        W21899   3.218  38.556  11.590
60534W        W21900  39.906  13.283  13.494
60535W        W21901  19.206   7.679  14.958
60536W        W21902   0.766  37.934  13.868
60537W        W21903  32.889  19.775  10.590
60538W        W21904  36.890   7.266   2.310
60539W        W21905  40.847   4.234  13.802
60540W        W21906  16.702  41.309   1.718
60541W        W21907  39.866  41.421  11.546
60542W        W21908   4.945  35.401  12.017
60543W        W21909  39.037   4.346  14.978
60544W        W21910   3.275  38.552   2.293
60545W        W21911  43.282  41.343   1.914
60546W        W21912  33.933  30.994  14.884
60547W        W21913  44.400  32.945  12.435
60548W        W21914  35.455  35.002   4.243
60549W        W21915   2.857  43.769   2.784
60550W        W21916   0.870   1.893  11.579
60551W        W21917  29.579  12.851   3.346
60552W        W21918  37.904  28.581  13.881
60553W        W21919   6.232  15.276  11.470
60554W        W21920  26.100   6.916   2.192
60555W        W21921  13.244   4.403   3.862
60556W        W21922  10.701   4.432  11.954
60557W        W21923   9.843   8.281   1.822
60558W        W21924  14.161   8.399  12.906
60559W        W21925  21.160  44.995  11.118
60560W        W21926  38.037  22.217   2.721
60561W        W21927  38.948  37.034  11.521
60562W        W21928  23.082  30.163   0.357
60563W        W21929  29.041  24.563   0.281
60564W        W21930  25.109   0.463  10.517
60565W        W21931  38.394  36.029   4.806
60566W        W21932  13.250   7.810  14.352
60567W        W21933  31.107  18.065  13.838
60568W        W21934   8.716  23.180   0.357
60569W        W21935   9.251  31.123   2.239
60570W        W21936  31.409   8.750  14.450
60571W        W21937  22.609  18.575  14.509
60572W        W21938  11.295   5.360  10.510
60573W        W21939  17.757   6.864   4.237
60574W        W21940  22.156  38.507   3.847
60575W        W21941  15.810  34.950   1.908
60576W        W21942   9.656   9.846  12.564
60577W        W21943  33.894  35.000  14.293
60578W        W21944   8.738  35.964   0.870
60579W        W21945   7.384  40.448  10.993
60580W        W21946  40.492  30.141  14.279
60581W        W21947   2.449  17.197   3.272
60582W        W21948  37.850  31.070  10.994
60583W        W21949  34.495  36.932  12.023
60584W        W21950  29.103  15.315   3.648
60585W        W21951  21.625  17.606  13.039
60586W        W21952  43.441  25.696   4.223
60587W        W21953   1.933  33.448  10.644
60588W        W21954   9.249   8.706  14.384
60589W        W21955  38.001   0.815   0.859
60590W        W21956   3.852   7.334   4.146
60591W        W21957   6.745  41.348  14.369
60592W        W21958  39.816   7.247   3.750
60593W        W21959  25.213  43.275  14.854
60594W        W21960   6.756  17.734   0.435
60595W        W21961  25.595  11.700  11.554
60596W        W21962  21.702  12.336   0.804
60597W        W21963   6.331  28.575  11.416
60598W        W21964  27.604  17.737  14.019
60599W        W21965  30.630  32.561  12.838
60600W        W21966  32.410  42.866   1.710
60601W        W21967   4.933  19.779  14.952
60602W        W21968   8.348   7.377  12.934
60603W        W21969  12.227  38.355  13.977
60604W        W21970  33.493  42.412  10.970
60605W        W21971  44.381  35.417  12.864
60606W        W21972  20.034  10.144  13.308
60607W        W21973  23.060  41.852   4.721
60608W        W21974  38.364  29.630  13.896
60609W        W21975  27.015   4.858   1.772
60610W        W21976  35.533  13.259  12.365
60611W        W21977  24.175  43.399   3.734
60612W        W21978   6.876  43.952  13.946
60613W        W21979  17.234   7.817   2.308
60614W        W21980  38.363  31.596  12.431
60615W        W21981  33.595  19.683  11.462
60616W        W21982   0.880   2.808   4.755
60617W        W21983   2.884  41.483  12.533
60618W        W21984  15.117  31.095  10.426
60619W        W21985  24.006   0.773   1.231
60620W        W21986  10.255  15.195   3.643
60621W        W21987  11.755  28.174  14.778
60622W        W21988   7.729  26.063   2.893
60623W        W21989  32.065   3.245  11.943
60624W        W21990  43.960  32.890  12.005
60625W        W21991  14.313  35.585  14.908
60626W        W21992  37.472  33.891  11.583
60627W        W21993  34.981  42.373   1.876
60628W        W21994   9.657  12.746   4.782
60629W        W21995  13.146   5.932   2.221
60630W        W21996   4.734  44.450  11.977
60631W        W21997   0.268  24.207  11.563
60632W        W21998  13.311   2.899   3.289
60633W        W21999  12.294  20.532   2.219
60634W        W22000  18.215   7.758   4.824
60635W        W22001  38.894  31.640  14.006
60636W        W22002  39.935   6.350  12.948
60637W        W22003   2.840  35.879   2.723
60638W        W22004  31.900   6.854  11.952
60639W        W22005   6.699  25.629  12.835
60640W        W22006  31.465  32.014  10.405
60641W        W22007  40.992  24.979   4.738
60642W        W22008  36.386  23.521  12.416
60643W        W22009   6.702  19.102  14.869
60644W        W22010  28.999  26.464  13.424
60645W        W22011  13.790  35.060   0.268
60646W        W22012   4.329  20.095  12.460
60647W        W22013  17.647  22.563   3.740
60648W        W22014  35.495  26.489   0.730
60649W        W22015   9.155   0.469   3.793
60650W        W22016  32.419  43.887  14.384
60651W        W22017  16.806   0.977  11.431
60652W        W22018   4.803  14.795   4.271
60653W        W22019  21.582  26.481   4.747
60654W        W22020   9.163  30.548  11.941
60655W        W22021  28.670  34.551   4.688
60656W        W22022   7.728   8.238   4.330
60657W        W22023  28.006   2.235  12.939
60658W        W22024  25.998  15.281  14.842
60659W        W22025  28.989  19.278  12.012
60660W        W22026  32.106  19.136  14.833
60661W        W22027  19.081  12.828  12.873
60662W        W22028  39.041  40.473  12.862
60663W        W22029  42.356  16.276  12.072
60664W        W22030   0.879  22.732  12.824
60665W        W22031  41.359  30.133   1.223
60666W        W22032  24.607   9.342  10.631
60667W        W22033  41.410  41.018   4.615
60668W        W22034   5.205  22.569   3.678
60669W        W22035  32.402  13.606  12.041
60670W        W22036  33.626  28.469  12.825
60671W        W22037  17.760  11.749   2.178
60672W        W22038  18.732  26.486   5.143
60673W        W22039  18.659   0.418  14.514
60674W        W22040   9.157  21.740  13.993
60675W        W22041  10.239  21.058   1.309
60676W        W22042  11.854  39.332  12.554
60677W        W22043  44.447  24.010   0.937
60678W        W22044  34.890  29.922  12.077
60679W        W22045  28.519  19.216   0.943
60680W        W22046   1.428  31.535   0.727
60681W        W22047  37.445  41.010   3.365
60682W        W22048  30.924  27.671   1.241
60683W        W22049  30.532  21.245   1.401
60684W        W22050  41.908  17.681   3.171
60685W        W22051  38.508   7.347  14.404
60686W        W22052  30.556  11.270  10.517
60687W        W22053   6.734  15.096  14.460
60688W        W22054   6.233  42.501  14.986
60689W        W22055  25.666   6.283  11.531
60690W        W22056   4.321  41.787  13.861
60691W        W22057  30.045  33.075  12.992
60692W        W22058  16.614   8.322   1.737
60693W        W22059  13.832  26.457   0.337
60694W        W22060  10.355  10.257   2.693
60695W        W22061  39.834  33.941  10.913
60696W        W22062   6.358  15.675  14.805
60697W        W22063  17.114   2.251   1.799
60698W        W22064  43.994   4.254  11.917
60699W        W22065  17.094  30.545  12.860
60700W        W22066  25.471  35.046   3.308
60701W        W22067  25.646  23.620   0.815
60702W        W22068  15.088   4.716  14.439
60703W        W22069  35.883   4.420   3.844
60704W        W22070  17.073  37.914  11.406
60705W        W22071  26.060  18.645   2.847
60706W        W22072  33.591  17.604  11.612
60707W        W22073  23.081   4.275  14.503
60708W        W22074  41.942  25.050   9.964
60709W        W22075  10.301   4.359  12.872
60710W        W22076  35.888  22.581  12.092
60711W        W22077  30.627  19.648  11.994
60712W        W22078  23.220  26.999   1.767
60713W        W22079  28.592  29.472   4.693
60714W        W22080   0.767  29.624  10.080
60715W        W22081   4.730   2.876   2.668
60716W        W22082  20.603  27.964  11.437
60717W        W22083  33.624  12.797   4.718
60718W        W22084  12.247  20.103  13.490
60719W        W22085  20.607  16.812  10.955
60720W        W22086  33.026  20.167   3.664
60721W        W22087  28.934   3.245   3.205
60722W        W22088  36.973  38.445   2.822
60723W        W22089   8.691  15.200   3.311
60724W        W22090  14.175  21.042   2.873
60725W        W22091  19.643  20.638  14.951
60726W        W22092  25.617   8.168   0.478
60727W        W22093   7.752   7.751   5.295
60728W        W22094   9.230  17.729   2.223
60729W        W22095  42.024  42.981  13.992
60730W        W22096  14.694  10.169   3.360
60731W        W22097  21.041  38.353  13.838
60732W        W22098  21.712  22.613   3.229
60733W        W22099  10.336  39.861  14.027
60734W        W22100  28.484  31.987  11.081
60735W        W22101  25.975   0.286  11.381
60736W        W22102  15.651  26.033  13.541
60737W        W22103  37.886  20.154   0.951
60738W        W22104  17.093  10.249   3.766
60739W        W22105  33.039   0.290   2.847
60740W        W22106   5.693  17.645   9.571
60741W        W22107   1.386  38.029  10.628
60742W        W22108  34.421  39.055   4.252
60743W        W22109  37.458  32.037   3.332
60744W        W22110   7.837  41.819   0.879
60745W        W22111  28.466  12.243   0.295
60746W        W22112  14.142  26.115  12.095
60747W        W22113  30.495  28.577   4.661
60748W        W22114   9.282   8.392   1.321
60749W        W22115  41.936  31.413   1.267
60750W        W22116   8.202  12.711   4.777
60751W        W22117   1.868  25.026  14.956
60752W        W22118  12.816  11.276  10.586
60753W        W22119  32.439  28.957   1.402
60754W        W22120   5.896  16.129   2.223
60755W        W22121  31.996  24.177  13.481
60756W        W22122   9.853  14.702  11.512
60757W        W22123  14.230  18.157   2.243
60758W        W22124   1.906  16.151   4.826
60759W        W22125  33.531  29.572  12.478
60760W        W22126  28.091   3.800  10.613
60761W        W22127  18.073  26.668   0.956
60762W        W22128  18.214  28.021   0.471
60763W        W22129  27.969  21.630  13.451
60764W        W22130  18.771   3.454  14.316
60765W        W22131  18.617  33.587  10.956
60766W        W22132  22.552  16.797  13.348
60767W        W22133  32.420  13.692   0.851
60768W        W22134   2.358  38.480   1.433
60769W        W22135  10.876   8.680  11.107
60770W        W22136  10.301  41.523  10.503
60771W        W22137   2.237  26.475   2.179
60772W        W22138  12.222  20.264   1.777
60773W        W22139  41.965  28.046  13.491
60774W        W22140  42.486  37.422   0.453
60775W        W22141  40.389   1.911   1.763
60776W        W22142  20.222   1.451  13.415
60777W        W22143   0.854  39.985  10.906
60778W        W22144  25.978  16.589   2.842
60779W        W22145  25.603  32.055  12.485
60780W        W22146  40.362  19.198   4.190
60781W        W22147  23.102   8.403   3.257
60782W        W22148  15.096   0.337   0.303
60783W        W22149  14.716  35.891   0.353
60784W        W22150  12.130  41.947   4.192
60785W        W22151  17.108  13.686  14.809
60786W        W22152  27.633  17.137  10.932
60787W        W22153   2.333  40.036   4.242
60788W        W22154  19.690   6.689  14.316
60789W        W22155  12.621  21.237   2.204
60790W        W22156  18.764  17.602   0.924
60791W        W22157  18.585  34.414  12.491
60792W        W22158   4.870   4.363  12.001
60793W        W22159   4.731  41.310   0.351
60794W        W22160  29.449   8.369   4.700
60795W        W22161  38.958  43.879   5.288
60796W        W22162   7.713  36.552  14.032
60797W        W22163   9.223  39.054  14.781
60798W        W22164  29.089   8.857   2.215
60799W        W22165  35.448  30.572   3.366
60800W        W22166  23.624  12.130   4.701
60801W        W22167  22.680   2.828  12.441
60802W        W22168   5.265   2.430   4.667
60803W        W22169  34.004  42.517  13.923
60804W        W22170  43.467  27.078  12.472
60805W        W22171  30.089  36.953   0.319
60806W        W22172  10.762  34.954   4.611
60807W        W22173  18.703  36.891  13.483
60808W        W22174   1.344  12.783  12.001
60809W        W22175  13.792  19.054  12.063
60810W        W22176  24.517  10.675   0.351
60811W        W22177  29.669  34.569  11.871
60812W        W22178  34.037  33.023   2.695
60813W        W22179   5.722  31.530   0.321
60814W        W22180  15.671   0.299   1.726
60815W        W22181  11.147  33.964   0.739
60816W        W22182   5.866   6.303  11.094
60817W        W22183  36.988  29.638   0.874
60818W        W22184   1.971  32.041  10.518
60819W        W22185  23.153   0.901   0.754
60820W        W22186  16.798  44.303   0.349
60821W        W22187  21.217   7.693   3.729
60822W        W22188  39.026  30.430   2.722
60823W        W22189  37.878  17.750   3.234
60824W        W22190  22.136  37.526   2.852
60825W        W22191  13.331  31.544   4.253
60826W        W22192   1.744   0.839   4.200
60827W        W22193  33.975  13.162  14.893
60828W        W22194  18.066  20.551   4.617
60829W        W22195  19.682  31.131  12.934
60830W        W22196  37.408  25.539   2.752
60831W        W22197  15.772  21.216  12.085
60832W        W22198  35.018  22.053   4.619
60833W        W22199  38.834  43.370  14.897
60834W        W22200  13.614  32.071   0.869
60835W        W22201  35.939  32.568  14.275
60836W        W22202   2.401  43.487   4.618
60837W        W22203   4.349   5.411  11.110
60838W        W22204  40.524  27.669   4.225
60839W        W22205  38.902   2.911   1.426
60840W        W22206   8.706  33.423  14.016
60841W        W22207  11.361  40.952  14.829
60842W        W22208  26.115  22.702   0.479
60843W        W22209  32.637   3.315   3.837
60844W        W22210   7.784  23.514  10.594
60845W        W22211  17.221  32.580  14.408
60846W        W22212  42.952  20.645  12.826
60847W        W22213  38.838   7.335   9.961
60848W        W22214  40.415  26.644   4.705
60849W        W22215  34.610  10.848   3.736
60850W        W22216   8.669   6.898  14.009
60851W        W22217   3.296   5.278  11.889
60852W        W22218   7.268  40.980   0.935
60853W        W22219  11.283  28.960   4.134
60854W        W22220  40.342   7.197  12.511
60855W        W22221  38.405  30.158  14.909
60856W        W22222  25.652  43.811  14.838
60857W        W22223  11.246  28.462   2.741
60858W        W22224  10.817  14.142  12.990
60859W        W22225  36.054  42.863  11.598
60860W        W22226  42.941  31.127   3.786
60861W        W22227  40.023  24.179  13.950
60862W        W22228   0.786  32.418   0.864
60863W        W22229  37.433  38.996   2.719
60864W        W22230  10.139  33.957   4.259
60865W        W22231  15.824   7.704  13.340
60866W        W22232  41.491  38.867   2.894
60867W        W22233  44.010  41.982  12.009
60868W        W22234   1.796  31.029  12.340
60869W        W22235   3.374  29.486   3.301
60870W        W22236   2.238  22.044  14.510
60871W        W22237  43.438  18.066   5.113
60872W        W22238  17.277  25.182  11.047
60873W        W22239   4.253  34.377   2.272
60874W        W22240  29.568  42.347   2.228
60875W        W22241  23.554  23.605  14.788
60876W        W22242   0.766  31.153   4.710
60877W        W22243  29.435   5.902  11.434
60878W        W22244  41.919  23.579  13.839
60879W        W22245  32.890  42.412  11.606
60880W        W22246  27.554  31.607  13.822
60881W        W22247  33.946  15.824   1.715
60882W        W22248   9.181  39.451   1.870
60883W        W22249  38.329   5.426  11.432
60884W        W22250  29.010  25.682  13.020
60885W        W22251  32.930   3.952   4.245
60886W        W22252   8.259  32.521   2.217
60887W        W22253   5.919  20.145  11.490
60888W        W22254  26.119  44.895  14.326
60889W        W22255  37.042  19.253  11.915
60890W        W22256  44.983   6.903  12.091
60891W        W22257   5.272  26.590  12.563
60892W        W22258  41.339  24.199  14.450
60893W        W22259  30.106  19.262   4.252
60894W        W22260   5.263   7.831  13.826
60895W        W22261  25.657  17.584   2.265
60896W        W22262  32.015  22.243   2.731
60897W        W22263  17.638  30.127   4.207
60898W        W22264  36.401  30.942   0.856
60899W        W22265  17.671  39.838   3.311
60900W        W22266  38.536  37.068  11.588
60901W        W22267  36.953  39.924  13.021
60902W        W22268  21.573   1.308  14.032
60903W        W22269   1.940  40.837   1.350
60904W        W22270  15.705  16.145  10.500
60905W        W22271  39.052  22.554   4.154
60906W        W22272  17.139  20.703   2.813
60907W        W22273  13.183  42.422   3.810
60908W        W22274   1.915  31.939  13.361
60909W        W22275  29.103  26.064  13.925
60910W        W22276  19.259  16.630  10.404
60911W        W22277  16.754   4.261   1.437
60912W        W22278   9.770  32.035   3.837
60913W        W22279  19.077   4.865  13.359
60914W        W22280  36.589  33.582  13.452
60915W        W22281  12.839  16.657   3.259
60916W        W22282  21.154  22.034   3.797
60917W        W22283  21.164  27.630  11.611
60918W        W22284  11.835  35.038   0.265
60919W        W22285  25.489  16.169  10.582
60920W        W22286  16.625  39.816  14.968
60921W        W22287  16.735  24.583  12.355
60922W        W22288  23.214  17.134   0.938
60923W        W22289  32.551  16.573   4.326
60924W        W22290  15.761  26.629  10.126
60925W        W22291   3.342  18.756   1.811
60926W        W22292  35.964  31.142  10.498
60927W        W22293  33.429  24.497  13.447
60928W        W22294  44.861  43.478   1.215
60929W        W22295   9.825  26.560  10.111
60930W        W22296  30.533  27.590   3.221
60931W        W22297  31.529  44.373  12.049
60932W        W22298  12.168  29.045   2.809
60933W        W22299  33.548   3.419   5.147
60934W        W22300  40.951  18.669   0.787
60935W        W22301   4.880  41.858   5.118
60936W        W22302  16.743   6.316   0.782
60937W        W22303  12.754  16.303   3.167
60938W        W22304  21.704  36.980  11.904
60939W        W22305  38.343  44.989   1.914
60940W        W22306  17.625  13.820  10.972
60941W        W22307  17.771  23.530  14.449
60942W        W22308  39.904  24.671  14.993
60943W        W22309  22.035  43.849   1.850
60944W        W22310  40.423  26.055  12.501
60945W        W22311  35.449   1.936   3.333
60946W        W22312  22.081  33.598  10.465
60947W        W22313  16.795  35.990  11.461
60948W        W22314  15.217   6.713   3.207
60949W        W22315   6.759  40.460   2.773
60950W        W22316  34.113  15.733  11.502
60951W        W22317  44.285  26.645  10.448
60952W        W22318  44.793  34.054  12.091
60953W        W22319  15.728   9.359  14.965
60954W        W22320  28.154  30.151   2.804
60955W        W22321  19.050   8.775   4.690
60956W        W22322  15.598  20.685  11.960
60957W        W22323   3.419   5.310  14.803
60958W        W22324  20.186  23.691  13.851
60959W        W22325  10.877   6.270   0.282
60960W        W22326  10.793  23.529   3.804
60961W        W22327  34.481  17.107   0.397
60962W        W22328   9.695  25.977   4.657
60963W        W22329  18.125   4.227   1.782
60964W        W22330   4.290  26.635  10.122
60965W        W22331  20.749  10.836  11.119
60966W        W22332  43.468  29.493   4.658
60967W        W22333  24.530  36.891   4.170
60968W        W22334  41.934  41.522   3.194
60969W        W22335  16.625  21.072   1.829
60970W        W22336  15.311  17.080   0.855
60971W        W22337  38.495  23.561   0.268
60972W        W22338   2.873   9.803   0.747
60973W        W22339  26.552  42.341   1.211
60974W        W22340  27.032  32.069  11.470
60975W        W22341   8.797  18.634   2.685
60976W        W22342  15.621  10.781  14.949
60977W        W22343  17.274  41.389  13.312
60978W        W22344  37.506  22.543  14.967
60979W        W22345  32.925  25.007   2.703
60980W        W22346   3.416  10.300   2.382
60981W        W22347  21.528  28.581   1.407
60982W        W22348  28.587   3.329  11.535
60983W        W22349  13.805  40.908   3.846
60984W        W22350  34.036  44.311   4.747
60985W        W22351  14.820  30.012   3.191
60986W        W22352  43.348  18.727  10.008
60987W        W22353  28.529   4.741  13.484
60988W        W22354  40.846  37.339  14.020
60989W        W22355  28.154  16.796  13.975
60990W        W22356  31.486   9.679  13.009
60991W        W22357  33.455   1.812  11.907
60992W        W22358  10.678   5.728  11.892
60993W        W22359  39.461  27.614   2.399
60994W        W22360  42.019  26.162  13.402
60995W        W22361  14.682  23.994   0.942
60996W        W22362  36.859  34.915   4.294
60997W        W22363  11.318  16.800  11.941
60998W        W22364  33.396  20.646   5.193
60999W        W22365  27.026  20.757  11.379
61000W        W22366  37.356   8.358  11.561
61001W        W22367  42.932  44.346  10.517
61002W        W22368   5.288  35.393   1.446
61003W        W22369   8.203   0.270   4.674
61004W        W22370  36.357  36.990  12.025
61005W        W22371  31.050  39.320  12.392
61006W        W22372  11.298  18.734   1.892
61007W        W22373  37.054   4.805   3.225
61008W        W22374  43.849  28.551  12.879
61009W        W22375   4.718  40.431  14.864
61010W        W22376   0.376  19.215   4.152
61011W        W22377   6.694  43.440   0.773
61012W        W22378  43.003  10.878   3.233
61013W        W22379  29.932  18.183   4.755
61014W        W22380  16.663  30.494   1.221
61015W        W22381  31.411  12.687   0.910
61016W        W22382  21.046  18.098   5.299
61017W        W22383  21.721  40.889   1.828
61018W        W22384  14.676  11.152  14.983
61019W        W22385  18.790  30.100   3.773
61020W        W22386  43.770  13.624  13.369
61021W        W22387  24.546  13.146  13.930
61022W        W22388  29.466   0.287  13.802
61023W        W22389  28.937   2.796   0.468
61024W        W22390  12.852  25.710  11.869
61025W        W22391  30.016  24.580  12.065
61026W        W22392   9.161   6.428  10.031
61027W        W22393  22.579   8.721  13.423
61028W        W22394  25.517  44.389   0.934
61029W        W22395   7.829   1.766  13.866
61030W        W22396  31.606  13.791  11.411
61031W        W22397   6.692  41.921  10.539
61032W        W22398  10.338  44.328   1.225
61033W        W22399  29.055   5.883  13.350
61034W        W22400   0.845  39.049   2.666
61035W        W22401  15.289  24.575  11.507
61036W        W22402  33.055  39.419   1.749
61037W        W22403  40.843  26.534   4.138
61038W        W22404  11.254  16.599   4.155
61039W        W22405  27.112  38.473  12.932
61040W        W22406  34.906  17.224   2.729
61041W        W22407  31.905  31.066   0.418
61042W        W22408  17.625  12.693  10.547
61043W        W22409  15.179   0.763  14.303
61044W        W22410  36.483   0.825   0.827
61045W        W22411  43.366   8.790  10.482
61046W        W22412  34.023  29.025  12.552
61047W        W22413  34.066  18.665  11.606
61048W        W22414  42.809   5.713  14.322
61049W        W22415  18.242  32.125   0.463
61050W        W22416  14.803  16.099   1.926
61051W        W22417   1.437   8.662  11.497
61052W        W22418  11.259  41.439  11.399
61053W        W22419  37.494  43.387   1.795
61054W        W22420  34.448   8.256  13.486
61055W        W22421  16.671  37.363   1.360
61056W        W22422  17.614  26.006  14.761
61057W        W22423  34.405  40.899  14.364
61058W        W22424  22.532  14.195   4.354
61059W        W22425  14.203  22.695  14.858
61060W        W22426  26.630  22.578   0.461
61061W        W22427  25.045  23.643  10.441
61062W        W22428  22.506  17.595   2.686
61063W        W22429  24.600   0.774  12.974
61064W        W22430   3.242   7.179  11.468
61065W        W22431  10.140  41.425   9.939
61066W        W22432  34.476   7.854  13.336
61067W        W22433  31.507   1.239  13.850
61068W        W22434  37.076  39.988  11.042
61069W        W22435   8.746  44.344   3.350
61070W        W22436  25.129   9.827  10.434
61071W        W22437  24.481  32.412   4.619
61072W        W22438  37.549  23.597  13.040
61073W        W22439   2.266   3.254  11.568
61074W        W22440  30.983   3.820   3.752
61075W        W22441  27.023   4.704   2.736
61076W        W22442  31.627  27.543   2.364
61077W        W22443   7.875   7.888  12.030
61078W        W22444  26.621  18.570  12.026
61079W        W22445  15.217  24.671   2.215
61080W        W22446  32.632  12.839   4.181
61081W        W22447  30.951   9.880  11.041
61082W        W22448  29.484  41.884   1.384
61083W        W22449  25.158  11.344  14.470
61084W        W22450   0.875   7.682  13.517
61085W        W22451  27.175   7.840   3.778
61086W        W22452   8.886  22.586  13.828
61087W        W22453  30.023  19.180  14.765
61088W        W22454  34.985   3.252  10.532
61089W        W22455   8.286   6.347   3.676
61090W        W22456   7.407  29.597   4.343
61091W        W22457  41.377  23.119  10.898
61092W        W22458  15.250  37.058   5.775
61093W        W22459  17.080  43.342  14.797
61094W        W22460  34.953  27.595   3.689
61095W        W22461  19.218  20.082   2.268
61096W        W22462   3.337   6.697   4.337
61097W        W22463  18.111  17.080   1.386
61098W        W22464  43.478   6.880   2.748
61099W        W22465  43.323  39.372  11.000
61100W        W22466  35.465  44.474   1.382
61101W        W22467  27.587  30.043   5.083
61102W        W22468  41.888  19.731  11.070
61103W        W22469  35.866  44.944  14.026
61104W        W22470  21.536  20.179  10.903
61105W        W22471  16.673   7.778   2.369
61106W        W22472  44.937  38.504  13.056
61107W        W22473  31.054  25.622  11.450
61108W        W22474  24.500  36.887   2.275
61109W        W22475  26.033  36.898   2.680
61110W        W22476  14.154  35.050   2.899
61111W        W22477  14.789  22.542   1.894
61112W        W22478   8.683  42.504  11.964
61113W        W22479  21.709  32.588  11.899
61114W        W22480   9.394  35.044  11.123
61115W        W22481  10.156  30.056  11.004
61116W        W22482  30.132  24.989   2.671
61117W        W22483  16.257  13.348   0.930
61118W        W22484  44.869  23.686  14.511
61119W        W22485  16.119   5.266  11.927
61120W        W22486   1.949   8.868  10.466
61121W        W22487  14.654  35.543   4.599
61122W        W22488  23.065   9.283  12.470
61123W        W22489   0.894  38.349   3.809
61124W        W22490  17.629   1.262  14.836
61125W        W22491  22.055  28.615   3.210
61126W        W22492   9.219  22.666  14.469
61127W        W22493   9.831  23.996  10.643
61128W        W22494  24.208  42.861   4.706
61129W        W22495  18.623  14.204   4.178
61130W        W22496   7.723  32.111   3.356
61131W        W22497   3.267  33.502  12.473
61132W        W22498  16.573  17.235  14.472
61133W        W22499   8.885  26.659   4.652
61134W        W22500   1.339  27.672  13.493
61135W        W22501  10.791   9.293  12.947
61136W        W22502  32.523  21.213   5.111
61137W        W22503  12.319   3.454   1.249
61138W        W22504   8.363   9.307  13.425
61139W        W22505  14.196  19.104   4.164
61140W        W22506  36.487  22.058  12.570
61141W        W22507  25.204   6.888  14.396
61142W        W22508  19.265   2.883  14.968
61143W        W22509  19.679  26.683  12.912
61144W        W22510  21.648  41.388   3.764
61145W        W22511  22.514   3.354  14.318
61146W        W22512  42.410  39.945   2.883
61147W        W22513  19.657   9.880  14.904
61148W        W22514  27.048  28.148  12.564
61149W        W22515   8.186  17.286  14.826
61150W        W22516  30.639  16.189   4.273
61151W        W22517   8.874   0.411  12.520
61152W        W22518   3.365  35.945  10.096
61153W        W22519  12.341  24.061  12.387
61154W        W22520   2.896   5.358   3.737
61155W        W22521  12.225  17.157   3.165
61156W        W22522  38.903   2.745   2.857
61157W        W22523   3.767  24.530   0.358
61158W        W22524  38.477  24.693  12.388
61159W        W22525   3.232  20.543  11.856
61160W        W22526  29.956  11.252  11.047
61161W        W22527  40.032  34.957  12.885
61162W        W22528  40.913  33.550   0.254
61163W        W22529  16.566  18.668   3.708
61164W        W22530  25.972  21.062   2.313
61165W        W22531  16.140   0.327  13.858
61166W        W22532  42.861  43.930   1.229
61167W        W22533  21.235  29.076   3.834
61168W        W22534  19.698  27.014  10.975
61169W        W22535  18.670  18.593  13.356
61170W        W22536  16.776  32.597   2.404
61171W        W22537  29.500   2.815   2.304
61172W        W22538   8.669  11.855  14.289
61173W        W22539   0.766   4.417   3.381
61174W        W22540  35.968  40.052   5.657
61175W        W22541  23.051  17.259   0.433
61176W        W22542  17.574  26.046   1.285
61177W        W22543  37.412  34.523   2.266
61178W        W22544  14.254  29.560  12.389
61179W        W22545   1.335  32.610   0.301
61180W        W22546  28.089  27.950   0.840
61181W        W22547   1.924  31.433   0.850
61182W        W22548  39.861  23.028   2.668
61183W        W22549   4.450  22.683   2.231
61184W        W22550  30.973  14.807   4.218
61185W        W22551  39.921  26.473   0.814
61186W        W22552  29.553   2.401  12.495
61187W        W22553  21.678  36.940  11.404
61188W        W22554  26.977  42.924  11.509
61189W        W22555  26.175   3.287   1.392
61190W        W22556  11.769   4.705   2.301
61191W        W22557  19.743  16.704  13.953
61192W        W22558  11.369  39.363   1.353
61193W        W22559  10.184  26.180   3.632
61194W        W22560  32.493  18.759   2.294
61195W        W22561  31.987  33.981   4.654
61196W        W22562  30.052  22.681  11.555
61197W        W22563  44.941   9.885  14.780
61198W        W22564   5.352  43.873   0.468
61199W        W22565  44.918  30.094  12.570
61200W        W22566   8.270   6.893  13.457
61201W        W22567  43.808  23.019  13.366
61202W        W22568  27.456  30.446  11.381
61203W        W22569  13.653   7.407  10.457
61204W        W22570  32.998  31.036  11.986
61205W        W22571  23.646  31.596  13.385
61206W        W22572   4.881  17.150   3.325
61207W        W22573  17.578  34.965  13.359
61208W        W22574  44.808  37.024   4.677
61209W        W22575  23.569  11.825  12.825
61210W        W22576   3.362  32.398   1.242
61211W        W22577  31.528  37.912  10.633
61212W        W22578  30.453  12.777  10.529
61213W        W22579  44.817  28.614   3.810
61214W        W22580  27.948  40.445  11.993
61215W        W22581  23.578  32.885  13.450
61216W        W22582  15.772  37.472   0.768
61217W        W22583  31.047  19.242  12.931
61218W        W22584  32.017  17.797  10.565
61219W        W22585  38.566  27.560  11.062
61220W        W22586  20.635  25.642  12.977
61221W        W22587  35.109  23.985   4.289
61222W        W22588  31.561  24.498   2.410
61223W        W22589  36.964  20.177  10.895
61224W        W22590  13.265   0.908  14.794
61225W        W22591   6.870  16.737   0.939
61226W        W22592  31.933  10.143  10.963
61227W        W22593  36.060  26.010   1.390
61228W        W22594  15.660   5.402  12.580
61229W        W22595  35.580   6.209  11.952
61230W        W22596  38.527  19.770  13.381
61231W        W22597   4.741  24.188  12.886
61232W        W22598  18.627  27.156   3.215
61233W        W22599  19.245  29.062   1.397
61234W        W22600   7.687  23.700   0.880
61235W        W22601  10.293  28.625   3.215
61236W        W22602  12.182   0.865   4.652
61237W        W22603  25.534  41.039   2.409
61238W        W22604  25.993  18.759  10.994
61239W        W22605  24.222  32.050   0.906
61240W        W22606   6.786  30.956  10.488
61241W        W22607   3.406  25.993  13.896
61242W        W22608  15.584  38.017  10.485
61243W        W22609   3.341  26.474  13.369
61244W        W22610   6.239  23.101   4.824
61245W        W22611  14.695  29.142  12.925
61246W        W22612  21.051  36.066  14.435
61247W        W22613   7.722  13.205   2.359
61248W        W22614  43.978   1.240   1.892
61249W        W22615  41.533  34.950   0.479
61250W        W22616  36.083  11.659   3.260
61251W        W22617   1.319  14.254  10.571
61252W        W22618  41.520  42.444   2.750
61253W        W22619  24.508  42.310   4.610
61254W        W22620  16.659   9.812  12.090
61255W        W22621  36.525  23.097   1.920
61256W        W22622   8.200  37.338   2.379
61257W        W22623  32.137  40.844   9.965
61258W        W22624   4.353  13.264   3.774
61259W        W22625   5.298  22.128  13.529
61260W        W22626  39.530  10.808   0.404
61261W        W22627  17.760  32.943  13.016
61262W        W22628  38.993   7.285  14.901
61263W        W22629  42.866  28.057  14.372
61264W        W22630  10.878  16.812  14.819
61265W        W22631  23.711  20.116   0.301
61266W        W22632  22.608  36.435  12.394
61267W        W22633  36.384  25.108   0.360
61268W        W22634  35.010  16.140   1.816
61269W        W22635  44.474  13.166   2.843
61270W        W22636  18.245  15.777  11.425
61271W        W22637  13.326  24.973  13.491
61272W        W22638  27.619  14.829  12.358
61273W        W22639  27.652  17.137   0.347
61274W        W22640  18.197   6.813  12.093
61275W        W22641  39.507  31.047  12.005
61276W        W22642   8.820  17.799  12.903
61277W        W22643  19.691  37.432  13.898
61278W        W22644  41.898  22.037  12.364
61279W        W22645  16.585  19.649   4.801
61280W        W22646   1.370  22.596   3.322
61281W        W22647  22.587   1.455  12.560
61282W        W22648  16.763  31.502   3.359
61283W        W22649  23.584  31.911  13.895
61284W        W22650   7.771  38.938   1.822
61285W        W22651  18.139  40.407   4.631
61286W        W22652  15.270  38.820   3.813
61287W        W22653   4.804  42.777   4.766
61288W        W22654  34.457  36.522  13.816
61289W        W22655  24.224  14.121   1.717
61290W        W22656  22.555   5.905   1.793
61291W        W22657  18.584  32.035  12.830
61292W        W22658  35.430   7.679   4.319
61293W        W22659   0.775  26.053  11.427
61294W        W22660  25.496   0.822  14.487
61295W        W22661  44.767  39.003  13.055
61296W        W22662  29.088  13.189   0.453
61297W        W22663  28.986  23.663   0.863
61298W        W22664   8.361  16.792  12.983
61299W        W22665  12.298  36.883   1.441
61300W        W22666   5.221  23.562   3.264
61301W        W22667   4.334   6.210  12.884
61302W        W22668  18.273  29.495   1.925
61303W        W22669  27.615  35.387  14.465
61304W        W22670  26.152  39.963   1.774
61305W        W22671  27.184  13.609  10.985
61306W        W22672   7.815   7.786  12.853
61307W        W22673  16.674  20.566  11.378
61308W        W22674   5.217   2.759   1.797
61309W        W22675  16.712   0.344   3.272
61310W        W22676   4.274  23.063   3.183
61311W        W22677  25.100  41.375  14.785
61312W        W22678  23.685  42.868  10.446
61313W        W22679  36.034  15.318   0.326
61314W        W22680  15.647   2.954  10.547
61315W        W22681  15.267  11.733   0.475
61316W        W22682  26.998   3.950   5.222
61317W        W22683  41.990   1.973   4.194
61318W        W22684   2.424  20.045   2.376
61319W        W22685  41.379  24.091  12.978
61320W        W22686   0.825  13.248  13.999
61321W        W22687  34.526  31.618   2.791
61322W        W22688  37.889  24.555   2.261
61323W        W22689   6.315  32.516  13.009
61324W        W22690  44.469  42.374   1.707
61325W        W22691   1.349  23.617   3.730
61326W        W22692  44.826  29.572   0.410
61327W        W22693  33.084  29.088   0.893
61328W        W22694  44.401   4.893   2.785
61329W        W22695  37.368  13.747  14.768
61330W        W22696  16.670  36.543  10.472
61331W        W22697  32.516  43.825   3.252
61332W        W22698  24.087  39.996  10.966
61333W        W22699   2.396  16.778  11.434
61334W        W22700  16.190   7.892   2.246
61335W        W22701  32.970  22.733  13.998
61336W        W22702  33.598  23.667  11.951
61337W        W22703  32.469  33.524  14.990
61338W        W22704  36.433  22.528   4.303
61339W        W22705  10.679  41.314   0.446
61340W        W22706  33.019  25.132  10.996
61341W        W22707  13.796  10.295  13.539
61342W        W22708  10.225  31.006  13.468
61343W        W22709  35.569  39.066  14.315
61344W        W22710  31.920  32.446  12.064
61345W        W22711  43.022  38.474   3.356
61346W        W22712  26.604  34.929  12.987
61347W        W22713  31.436  14.665   4.161
61348W        W22714  23.120  31.561   1.868
61349W        W22715  12.616   4.322  10.441
61350W        W22716  27.118   7.237  13.917
61351W        W22717   7.814   1.774  12.967
61352W        W22718   6.711  30.916  13.416
61353W        W22719  29.519  12.161  11.486
61354W        W22720  41.437  18.552   3.670
61355W        W22721  41.355   1.774  14.344
61356W        W22722  14.610  17.678   0.372
61357W        W22723  19.208  16.198   9.631
61358W        W22724  33.049  11.342   0.289
61359W        W22725  35.545   8.238  10.435
61360W        W22726  18.173  17.285   0.915
61361W        W22727  14.180  30.084   1.720
61362W        W22728  10.685   1.281   3.741
61363W        W22729  37.944  33.106   3.326
61364W        W22730   0.783  33.466  14.981
61365W        W22731   7.769  30.071  13.521
61366W        W22732  44.503  30.529   3.252
61367W        W22733   4.359   6.914   5.759
61368W        W22734  37.508  42.985   0.250
61369W        W22735  38.419  21.219   0.959
61370W        W22736  44.465  44.433  13.020
61371W        W22737  24.011  40.035   3.731
61372W        W22738   2.820   2.740  11.122
61373W        W22739  22.652  17.564   1.350
61374W        W22740  17.141   0.821  13.867
61375W        W22741  42.358   7.188  12.984
61376W        W22742  28.100  23.666   9.975
61377W        W22743   6.678  27.092   2.807
61378W        W22744  30.444   2.285   3.641
61379W        W22745  38.446   5.715   1.900
61380W        W22746  22.740   3.414   1.758
61381W        W22747  41.831  23.012   0.910
61382W        W22748   9.879  42.354  13.470
61383W        W22749  31.990  10.195  14.881
61384W        W22750  12.751  29.660   4.745
61385W        W22751  25.489   9.312   0.323
61386W        W22752  15.700  40.482  14.997
61387W        W22753  23.222   6.796   3.745
61388W        W22754  17.151  17.688   2.215
61389W        W22755   6.745  22.176  12.454
61390W        W22756  16.224   4.253  12.386
61391W        W22757  30.615  44.914   3.641
61392W        W22758  28.622  22.144  14.465
61393W        W22759  35.930  43.401   3.203
61394W        W22760  10.332   6.279  10.630
61395W        W22761  34.505   2.903  14.460
61396W        W22762  11.313   3.837   1.747
61397W        W22763  14.826  14.719  14.327
61398W        W22764  34.944  11.372   1.246
61399W        W22765  30.573  41.392  10.579
61400W        W22766  22.684   5.312  14.912
61401W        W22767  24.096  14.205  11.372
61402W        W22768  36.965  37.881   2.845
61403W        W22769  35.531  23.552   1.210
61404W        W22770  43.917  33.410   2.178
61405W        W22771  43.420  15.251  14.791
61406W        W22772  20.082   5.428  14.791
61407W        W22773  37.028  29.550   2.872
61408W        W22774   8.287  38.047   0.902
61409W        W22775  42.812  44.839  12.482
61410W        W22776  35.070  28.479  13.812
61411W        W22777  17.084  38.482   2.294
61412W        W22778  17.130   0.320  10.135
61413W        W22779  18.264  39.406   2.827
61414W        W22780  28.176   9.734   0.446
61415W        W22781  12.821   6.253  12.931
61416W        W22782   3.873  25.194   1.890
61417W        W22783  25.031  25.529  11.026
61418W        W22784  40.039  27.583  14.377
61419W        W22785  29.111  18.158  11.054
61420W        W22786   0.437  18.725  10.502
61421W        W22787  38.860  44.448  14.982
61422W        W22788  31.590   8.824   0.900
61423W        W22789  29.460  16.143   3.693
61424W        W22790  10.763  34.539   3.774
61425W        W22791  44.000  20.111   0.741
61426W        W22792   5.782  31.511  14.816
61427W        W22793  21.120  37.844   0.267
61428W        W22794  40.405   5.194  13.449
61429W        W22795  11.681  17.280   4.156
61430W        W22796  42.357   7.260   4.314
61431W        W22797  21.258  43.835  10.160
61432W        W22798  44.327   5.265   4.148
61433W        W22799   2.940  21.222  11.018
61434W        W22800  34.565  24.531   2.798
61435W        W22801  39.936   7.285   1.312
61436W        W22802  24.681  19.222   0.756
61437W        W22803  28.979  31.136  12.349
61438W        W22804  31.941  36.478  10.479
61439W        W22805  44.419  22.737  13.959
61440W        W22806  10.364  20.227   3.317
61441W        W22807  20.263  43.437   0.948
61442W        W22808  42.303  14.101  12.871
61443W        W22809  20.175  38.966   4.198
61444W        W22810  11.354   8.338  12.868
61445W        W22811   5.194  38.423  14.465
61446W        W22812  44.898  27.004   3.344
61447W        W22813   3.459  24.548  13.008
61448W        W22814  31.566  23.222   1.893
61449W        W22815  20.128  19.247  13.037
61450W        W22816  28.643  26.649   1.694
61451W        W22817  38.006  10.272   3.840
61452W        W22818  22.659  35.898   0.314
61453W        W22819  34.874  33.496   2.355
61454W        W22820  36.887  35.505   1.738
61455W        W22821  17.607  12.723   5.122
61456W        W22822  28.577  35.391   0.729
61457W        W22823  44.285  34.498  11.921
61458W        W22824  44.438  30.543   2.842
61459W        W22825  24.638  40.405  11.080
61460W        W22826   6.685  27.005  14.994
61461W        W22827  44.287   4.837  11.909
61462W        W22828   1.795   9.298   4.621
61463W        W22829  24.638  21.237   0.378
61464W        W22830  40.373  23.502  13.478
61465W        W22831   3.784  39.934   0.940
61466W        W22832   0.423  31.953   4.192
61467W        W22833  27.491  41.495   1.878
61468W        W22834   4.770   9.361   3.724
61469W        W22835   2.304  14.647   2.742
61470W        W22836  37.915  40.017  10.463
61471W        W22837  16.151  34.584  11.520
61472W        W22838  27.598  19.212  12.566
61473W        W22839  29.654   8.708   4.654
61474W        W22840  33.481  14.184   5.141
61475W        W22841  13.630  14.605  11.498
61476W        W22842  14.763   4.707   0.242
61477W        W22843   1.822  21.558   0.852
61478W        W22844  10.357   2.910  10.445
61479W        W22845  37.369  31.474  10.567
61480W        W22846  20.261   0.284  14.447
61481W        W22847  18.071  28.517  12.394
61482W        W22848  15.309  14.791   3.813
61483W        W22849  14.173  22.010   3.725
61484W        W22850  26.182  23.663  13.547
61485W        W22851   9.238  34.103  12.958
61486W        W22852  35.393  10.242  14.275
61487W        W22853  21.162  28.139   1.798
61488W        W22854   4.828  44.949  13.309
61489W        W22855  19.657   7.765  10.949
61490W        W22856   9.878   1.770   2.726
61491W        W22857  32.633  25.084   3.857
61492W        W22858  36.486   7.388   0.355
61493W        W22859  30.627  44.840  14.816
61494W        W22860   5.725  38.407  11.930
61495W        W22861  43.944  30.520  13.914
61496W        W22862  14.764  37.451  12.367
61497W        W22863  26.991  31.124  14.771
61498W        W22864  24.215  26.121   3.150
61499W        W22865  36.400  43.985  13.519
61500W        W22866  29.961   0.845  12.981
61501W        W22867  41.436  33.064  14.913
61502W        W22868  30.573  44.450  13.387
61503W        W22869  37.046  22.146   2.361
61504W        W22870  17.303  37.534  10.536
61505W        W22871  30.071  43.818  12.094
61506W        W22872  36.014  17.113   1.421
61507W        W22873  14.314  31.586  11.976
61508W        W22874   6.704  17.647  10.585
61509W        W22875  43.432  15.608  12.416
61510W        W22876  22.508   8.401   4.198
61511W        W22877  22.093  21.154  11.449
61512W        W22878  13.236  29.129   4.277
61513W        W22879  41.994   2.894  11.039
61514W        W22880   5.824  16.618  12.887
61515W        W22881  15.205   3.284   4.648
61516W        W22882  30.529  43.841  13.002
61517W        W22883  35.591  21.539  11.406
61518W        W22884   0.260   3.350   2.799
61519W        W22885   6.910   2.914   5.729
61520W        W22886  14.334  42.877  14.366
61521W        W22887   3.810  21.559   4.157
61522W        W22888  16.162   0.372   4.692
61523W        W22889  30.573   4.431   2.267
61524W        W22890  40.361  35.966  14.947
61525W        W22891  15.669  28.530  14.849
61526W        W22892   9.356  37.844  10.636
61527W        W22893  14.764  28.047   4.340
61528W        W22894  13.623  18.683  14.960
61529W        W22895  22.603   9.649  14.308
61530W        W22896  13.271  31.407  11.083
61531W        W22897   4.256  17.598  14.877
61532W        W22898  28.672  25.634   2.672
61533W        W22899   4.798  15.215   3.174
61534W        W22900   8.861  30.110  14.779
61535W        W22901   3.302  44.360  13.866
61536W        W22902  42.467  29.606   0.747
61537W        W22903  14.738  31.643   1.726
61538W        W22904   3.425   9.790  14.467
61539W        W22905   0.444  12.159  14.819
61540W        W22906  13.623  12.739   0.337
61541W        W22907   1.813  23.174  10.586
61542W        W22908  33.902  38.557   1.235
61543W        W22909  26.553  37.931   3.334
61544W        W22910  24.545  20.768   2.860
61545W        W22911  26.558  42.486  11.888
61546W        W22912  38.518  36.400  12.499
61547W        W22913  11.147  44.407   0.763
61548W        W22914  31.901  17.682  12.837
61549W        W22915   7.716  14.731   0.928
61550W        W22916   3.421   7.279   4.116
61551W        W22917  30.979   6.412  14.326
61552W        W22918  20.216  18.682  14.856
61553W        W22919  19.055   2.950   4.808
61554W        W22920   8.358  44.465   0.749
61555W        W22921  30.078   7.183  12.381
61556W        W22922  15.219  11.143  10.890
61557W        W22923  31.140  11.864   1.766
61558W        W22924  32.012  10.642  12.833
61559W        W22925  37.450  26.535  13.993
61560W        W22926  34.887  22.679   3.230
61561W        W22927  17.609   9.705  10.417
61562W        W22928  11.741   0.474   0.371
61563W        W22929   8.170  38.343   3.783
61564W        W22930  29.084  24.002  14.022
61565W        W22931   0.851  10.806   3.153
61566W        W22932   9.165  28.680   4.815
61567W        W22933  18.753  26.018   1.713
61568W        W22934  21.227   3.346  13.546
61569W        W22935  35.011  21.693   9.995
61570W        W22936   2.275  42.954   0.453
61571W        W22937   6.915  19.185  12.456
61572W        W22938  38.910  37.506  12.424
61573W        W22939   4.351  32.435   1.751
61574W        W22940   3.450  44.390   2.316
61575W        W22941  37.392  18.738  14.336
61576W        W22942  26.081   8.681  12.343
61577W        W22943  16.591  28.010  12.449
61578W        W22944  29.557   4.406  13.903
61579W        W22945  14.186  25.016   1.260
61580W        W22946  40.922  27.551   4.148
61581W        W22947  18.266  29.646  10.942
61582W        W22948  11.140  20.114   1.393
61583W        W22949  40.427  43.812   3.766
61584W        W22950   8.178   6.900  12.939
61585W        W22951  21.687  20.232  14.285
61586W        W22952  10.314  21.592   0.879
61587W        W22953  41.380  36.085  12.580
61588W        W22954  36.438  42.823  10.159
61589W        W22955  27.603  11.254  12.552
61590W        W22956  24.559   9.854  11.580
61591W        W22957   1.806  23.065   1.848
61592W        W22958  10.326  42.977   4.829
61593W        W22959  44.326   7.220   0.361
61594W        W22960  15.760  13.640   9.493
61595W        W22961  14.760  12.190   2.722
61596W        W22962   3.398  17.766   1.319
61597W        W22963   4.855  41.826  14.999
61598W        W22964  30.979  15.186   3.852
61599W        W22965  29.530  26.054   0.406
61600W        W22966   9.165   8.796   2.319
61601W        W22967   2.312  20.760   1.397
61602W        W22968  29.144  42.481  14.471
61603W        W22969   3.219  14.617  10.422
61604W        W22970   4.780  18.701   1.395
61605W        W22971  34.024  11.837  13.909
61606W        W22972   6.381   6.357  11.408
61607W        W22973  11.836  12.241  12.490
61608W        W22974  19.724  19.779  12.541
61609W        W22975  10.642  28.977  13.815
61610W        W22976  25.104   7.674   2.208
61611W        W22977   4.408  13.158  13.395
61612W        W22978  18.665  38.820   9.929
61613W        W22979  34.372   8.795   0.951
61614W        W22980  12.321  11.274  13.478
61615W        W22981  31.152  41.317   0.853
61616W        W22982  30.416  11.866   1.754
61617W        W22983  20.262  35.560  11.095
61618W        W22984  32.544  33.539   1.853
61619W        W22985  42.518  39.871   3.203
61620W        W22986  24.507  20.684  12.429
61621W        W22987  37.897  14.235   2.827
61622W        W22988   1.447  12.794  14.430
61623W        W22989  21.725   4.213  14.998
61624W        W22990  30.104  37.423   2.707
61625W        W22991  40.322   0.494  14.808
61626W        W22992  21.694   0.258   0.868
61627W        W22993   2.810   1.827  13.505
61628W        W22994   1.479   1.974  11.905
61629W        W22995  22.250   4.271   0.779
61630W        W22996   8.779  31.971   0.404
61631W        W22997  35.873  30.527   3.688
61632W        W22998   3.854  39.509   1.450
61633W        W22999  36.550  37.949   4.294
61634W        W23000  40.346  44.473  13.878
61635W        W23001  39.061  14.744  12.452
61636W        W23002  26.682  19.263   0.915
61637W        W23003  23.516   0.384   2.220
61638W        W23004  18.066  10.318   3.663
61639W        W23005  18.229  35.892   3.658
61640W        W23006  18.629   3.438   5.281
61641W        W23007  30.116  10.247  12.521
61642W        W23008   1.250  40.336  10.468
61643W        W23009  39.038  10.167   4.257
61644W        W23010   7.224  40.826  11.588
61645W        W23011  35.054   8.685  11.998
61646W        W23012   9.884  39.866   3.155
61647W        W23013  39.937  25.508  12.037
61648W        W23014  18.575  18.757  11.546
61649W        W23015  10.162  17.277  14.800
61650W        W23016   0.432   0.312  13.414
61651W        W23017  24.228  27.067  12.479
61652W        W23018  15.185  21.564   2.902
61653W        W23019   6.879   4.220  14.945
61654W        W23020  35.554  37.909   1.286
61655W        W23021  14.142  13.640   1.411
61656W        W23022  17.568  37.917   2.849
61657W        W23023  13.315  43.824   2.711
61658W        W23024  37.861   0.807  12.028
61659W        W23025  37.876  43.332  13.521
61660W        W23026  11.627  10.743   2.761
61661W        W23027  35.991  21.656   0.266
61662W        W23028   7.407  43.850   3.758
61663W        W23029  13.183  27.063   3.165
61664W        W23030  44.839  13.633  13.318
61665W        W23031  12.768  21.574   4.643
61666W        W23032  16.191   0.351  11.481
61667W        W23033  39.433  34.064   2.842
61668W        W23034  31.488   3.353  11.579
61669W        W23035   3.276   5.747   1.899
61670W        W23036  25.083   4.941   2.219
61671W        W23037  22.674   5.302  11.475
61672W        W23038   6.200  13.604  12.846
61673W        W23039   6.850  17.101   0.388
61674W        W23040  16.167  43.001   0.252
61675W        W23041  14.128  39.917  12.925
61676W        W23042  34.586  43.412  12.881
61677W        W23043  35.104  33.886  13.981
61678W        W23044  16.688  11.648   2.246
61679W        W23045   4.296   2.388   3.697
61680W        W23046   1.434  17.106  12.447
61681W        W23047   7.207  27.496   2.188
61682W        W23048  14.695  21.138  14.986
61683W        W23049  12.171  31.135   5.576
61684W        W23050  27.972   6.857   1.818
61685W        W23051  36.401   7.670  12.410
61686W        W23052  26.079  40.382  14.929
61687W        W23053  12.181  29.425   0.838
61688W        W23054   0.912   6.846   0.845
61689W        W23055  44.755   0.296   1.347
61690W        W23056   9.719  14.180   2.709
61691W        W23057  26.133  37.050   4.695
61692W        W23058  11.179   1.404  13.026
61693W        W23059  35.960  26.040   2.240
61694W        W23060  27.977   4.444  11.595
61695W        W23061  14.591   8.266   2.746
61696W        W23062  43.469  43.787   4.151
61697W        W23063  14.832  40.471  11.946
61698W        W23064  38.962  16.267   4.295
61699W        W23065  42.971  26.094   2.816
61700W        W23066   0.748  37.877   3.161
61701W        W23067   8.837  20.031   3.207
61702W        W23068   4.877  32.438   2.747
61703W        W23069  34.588  23.537   0.913
61704W        W23070  11.297   8.764  14.368
61705W        W23071  36.520  24.135   3.376
61706W        W23072  37.009  19.252  11.414
61707W        W23073  44.351  20.743  11.915
61708W        W23074  22.095   8.848   1.909
61709W        W23075  39.907  38.003  14.357
61710W        W23076  32.038   1.892   3.794
61711W        W23077  17.094  30.510   0.393
61712W        W23078   1.769  24.643  12.825
61713W        W23079  11.287  32.023   4.752
61714W        W23080  19.200  36.525   3.842
61715W        W23081  32.964   8.169  12.453
61716W        W23082  37.049  31.105   3.229
61717W        W23083  36.484  16.642   0.262
61718W        W23084  22.059   6.804   5.126
61719W        W23085  22.708  44.818   0.272
61720W        W23086   4.757  34.892  11.611
61721W        W23087   9.283  12.787  13.899
61722W        W23088  16.661  37.881  10.905
61723W        W23089  20.107   4.814  11.048
61724W        W23090  29.607  39.372   0.313
61725W        W23091  36.998  43.275   1.743
61726W        W23092  22.502  15.754   3.658
61727W        W23093   4.319  32.127  14.292
61728W        W23094  23.157   9.822  11.010
61729W        W23095  14.770  19.716  10.019
61730W        W23096  43.506  37.080   2.320
61731W        W23097  41.801  17.606   0.789
61732W        W23098  10.364  30.570   1.222
61733W        W23099   5.866   6.858  13.845
61734W        W23100  12.332   6.781   4.201
61735W        W23101   0.811  11.775   5.142
61736W        W23102  40.466  42.494  11.571
61737W        W23103   4.702   3.817  13.791
61738W        W23104   9.655   2.250  11.884
61739W        W23105   6.725  11.633   2.295
61740W        W23106  25.190  38.441  12.531
61741W        W23107   7.682  24.991   2.706
61742W        W23108   4.325  11.755   2.831
61743W        W23109  29.566  10.337  11.113
61744W        W23110  20.567  20.525  13.387
61745W        W23111  21.024  31.573  12.550
61746W        W23112  26.681  30.614  11.946
61747W        W23113  39.033  35.498  11.860
61748W        W23114  42.823  34.515   4.821
61749W        W23115   5.860  32.460  12.568
61750W        W23116   7.872  30.659   0.384
61751W        W23117  13.173   4.353  13.012
61752W        W23118   4.433  11.224   0.781
61753W        W23119  22.630  20.718  13.858
61754W        W23120  34.415  11.769  14.450
61755W        W23121  10.647  39.829  13.954
61756W        W23122  26.664  18.710   5.247
61757W        W23123  13.757  13.310  11.913
61758W        W23124  16.202  40.312  13.799
61759W        W23125  29.478   0.816  13.485
61760W        W23126  14.311  43.805  11.409
61761W        W23127  42.391  15.233  11.015
61762W        W23128  25.560  12.730   4.680
61763W        W23129   3.916   6.694   1.855
61764W        W23130   9.823  35.358   3.320
61765W        W23131  26.961  25.597  14.397
61766W        W23132   6.365   0.493  11.593
61767W        W23133  25.014  26.012   1.908
61768W        W23134  27.132   7.380   0.739
61769W        W23135   2.954  15.284   1.748
61770W        W23136  33.001  14.641  12.561
61771W        W23137  37.976  21.555  14.447
61772W        W23138  38.909  41.868   1.321
61773W        W23139   6.766   1.444  13.939
61774W        W23140  28.962  27.179   0.250
61775W        W23141  42.787   6.897   4.660
61776W        W23142  42.328  11.224  12.344
61777W        W23143   9.761  29.567   1.430
61778W        W23144  30.445   8.196  10.955
61779W        W23145  12.723  30.063  11.071
61780W        W23146  13.321  41.949   0.251
61781W        W23147  13.234  41.461   0.382
61782W        W23148  19.263  19.722  11.930
61783W        W23149  17.294  38.842  14.413
61784W        W23150  22.041  11.852  12.367
61785W        W23151  38.563   4.206  14.474
61786W        W23152  12.732  38.897  10.050
61787W        W23153   4.213  30.627   3.266
61788W        W23154   4.205  10.698  12.533
61789W        W23155  35.005  21.631  11.525
61790W        W23156  28.623  33.532   3.236
61791W        W23157   6.317  15.320  14.491
61792W        W23158  22.057  19.712  14.909
61793W        W23159  27.530  25.007  10.919
61794W        W23160  29.074  41.402  10.576
61795W        W23161  22.095  43.780   3.771
61796W        W23162  10.823   0.887  12.995
61797W        W23163  25.584  40.943  12.827
61798W        W23164  40.482  29.036   2.195
61799W        W23165   7.353   3.243   5.168
61800W        W23166   5.257  35.416   2.848
61801W        W23167   3.269  27.952   3.380
61802W        W23168   0.370  23.645   3.363
61803W        W23169  44.444  23.201   0.353
61804W        W23170   6.717   8.313   2.816
61805W        W23171  14.318  37.389   3.757
61806W        W23172  30.497  20.258  12.479
61807W        W23173   8.162   4.897   4.654
61808W        W23174  32.544  44.007  12.382
61809W        W23175  15.596  15.618   3.629
61810W        W23176  41.966  35.069   1.313
61811W        W23177  35.070   3.755   2.371
61812W        W23178   5.861  27.575  11.935
61813W        W23179  22.097   3.433  11.865
61814W        W23180  14.307  15.760  11.583
61815W        W23181  22.733  24.649  11.529
61816W        W23182  31.426  35.924   3.336
61817W        W23183   8.383  20.553  13.796
61818W        W23184   8.753   4.890   4.187
61819W        W23185   7.369  39.481   3.796
61820W        W23186  16.271  30.596   2.268
61821W        W23187   7.221   6.776   4.730
61822W        W23188  21.070   3.740   4.303
61823W        W23189  42.379  19.168  14.864
61824W        W23190  16.117   6.856   3.166
61825W        W23191  21.649  19.743  10.485
61826W        W23192  16.601  22.128   2.297
61827W        W23193  35.858  31.541  14.426
61828W        W23194   6.862  28.647  10.990
61829W        W23195   8.205  23.708  11.557
61830W        W23196   6.217   0.772   1.934
61831W        W23197   5.406  40.974   2.266
61832W        W23198  28.159   8.403  13.501
61833W        W23199  22.644  10.879  11.887
61834W        W23200   1.274  11.266   0.307
61835W        W23201  34.578  43.885   1.337
61836W        W23202  28.435   7.730  12.540
61837W        W23203  21.518  38.847  14.999
61838W        W23204  35.533  44.828   2.406
61839W        W23205  27.191  18.679  12.863
61840W        W23206   0.283  34.034  12.365
61841W        W23207  17.223  20.158   2.200
61842W        W23208  32.027  31.904   3.853
61843W        W23209  36.368   6.917  12.466
61844W        W23210  44.454  11.800  14.434
61845W        W23211  20.583  33.081  10.561
61846W        W23212  23.633   9.782  13.001
61847W        W23213  41.978  30.162   0.916
61848W        W23214  28.950  13.657   4.173
61849W        W23215  34.585  31.056   1.790
61850W        W23216  14.219  38.882   1.292
61851W        W23217  42.992  40.980   1.706
61852W        W23218   7.204  15.100   5.126
61853W        W23219  41.355   8.284   3.179
61854W        W23220  36.954  26.616   3.176
61855W        W23221   8.200  41.448  10.975
61856W        W23222  39.923   9.338   0.366
61857W        W23223  43.292  27.572   3.228
61858W        W23224  43.010  24.002  14.766
61859W        W23225  23.150  17.135  12.542
61860W        W23226   5.731  17.724  14.858
61861W        W23227   9.718  37.951  14.347
61862W        W23228  28.579  11.840   0.265
61863W        W23229  37.083   3.275   4.777
61864W        W23230  16.585  39.926   4.340
61865W        W23231  28.614  42.943   4.153
61866W        W23232  36.083  13.766  11.117
61867W        W23233  39.870   6.345  14.920
61868W        W23234  42.817  44.487  11.472
61869W        W23235  43.815  19.144   3.153
61870W        W23236  39.501  15.792  10.956
61871W        W23237  36.531  32.404  12.031
61872W        W23238  21.082  18.236  11.399
61873W        W23239  30.992  19.166   5.599
61874W        W23240  40.817  22.528   1.841
61875W        W23241   4.424   8.656  14.314
61876W        W23242  25.063  30.563   1.820
61877W        W23243   5.195  13.267  11.545
61878W        W23244   1.732  35.045  11.993
61879W        W23245  12.652  23.499  12.565
61880W        W23246  22.554  35.079   3.235
61881W        W23247  27.132   4.432   0.467
61882W        W23248  14.643   7.699  14.332
61883W        W23249  15.083  12.789  14.332
61884W        W23250  43.856  38.015   2.865
61885W        W23251   3.741  26.044  12.531
61886W        W23252  21.033  15.256  11.923
61887W        W23253  44.844  17.609   3.696
61888W        W23254  26.963   9.339  14.476
61889W        W23255   3.937  15.622  12.344
61890W        W23256  10.290  44.815   0.324
61891W        W23257  21.572  23.650  11.531
61892W        W23258  17.724  26.552  13.862
61893W        W23259  41.494  31.613   4.173
61894W        W23260  43.499  41.397   5.257
61895W        W23261  23.715  24.586  13.030
61896W        W23262  22.075  23.163  10.622
61897W        W23263  22.038  24.079   2.818
61898W        W23264  27.011   4.732  14.426
61899W        W23265  44.861  16.293   4.140
61900W        W23266  23.715   5.901   5.224
61901W        W23267  39.375  44.821  11.392
61902W        W23268  29.078  27.457  12.381
61903W        W23269  12.839  10.648   4.793
61904W        W23270  20.217  22.688  13.487
61905W        W23271  33.043   5.299  10.466
61906W        W23272  31.629  32.065  12.065
61907W        W23273  23.731  40.869  12.411
61908W        W23274  20.592  23.985   3.332
61909W        W23275  17.185  25.019   3.168
61910W        W23276  34.938  32.006   2.354
61911W        W23277  18.605  41.445   1.402
61912W        W23278  20.137  14.749  13.320
61913W        W23279  27.563  18.747   0.803
61914W        W23280  15.175  28.932   4.741
61915W        W23281  44.265  34.890   1.297
61916W        W23282   2.344   0.837  11.867
61917W        W23283  30.538  30.063   4.623
61918W        W23284  33.574   3.422   0.841
61919W        W23285  15.655   7.728   4.191
61920W        W23286   4.431  33.953  14.323
61921W        W23287  25.208  18.779  12.965
61922W        W23288  26.656  15.167   0.796
61923W        W23289   3.373  17.071   2.686
61924W        W23290  28.645  10.265   3.817
61925W        W23291   9.208  43.508   0.483
61926W        W23292   7.398   1.778  12.043
61927W        W23293  28.059  23.678   4.608
61928W        W23294  24.195  24.541   0.262
61929W        W23295  17.631   0.323   3.259
61930W        W23296   4.434  34.015   3.727
61931W        W23297  44.431  23.676  10.904
61932W        W23298  38.352  32.402  12.536
61933W        W23299   1.865  18.159  12.394
61934W        W23300   3.419   6.267  12.080
61935W        W23301   6.408  44.909   0.788
61936W        W23302  11.274  24.594   4.232
61937W        W23303  29.464   3.904   0.430
61938W        W23304  39.558   1.243   1.443
61939W        W23305  35.368  13.730  10.898
61940W        W23306  23.524  28.071   4.759
61941W        W23307  34.543  18.676  11.496
61942W        W23308  13.114  26.477  12.439
61943W        W23309  25.561  33.441  11.056
61944W        W23310  21.707   6.206   0.455
61945W        W23311  41.003   1.263  13.014
61946W        W23312  10.291   2.365  13.520
61947W        W23313  22.099  32.893   2.743
61948W        W23314  19.057  32.566  14.762
61949W        W23315  29.112  25.567  13.548
61950W        W23316  17.190   8.765  11.047
61951W        W23317  16.145  29.629   1.733
61952W        W23318   8.224  23.093   4.729
61953W        W23319  32.980   4.828   3.678
61954W        W23320  35.082  21.737  11.075
61955W        W23321   0.395  34.463  13.036
61956W        W23322  23.234  11.759   4.619
61957W        W23323  12.281  42.934  14.513
61958W        W23324  19.085   2.296  13.059
61959W        W23325  34.533  27.586   0.481
61960W        W23326   8.378   7.829   2.201
61961W        W23327  40.353  15.663   4.208
61962W        W23328  10.709  39.945  14.927
61963W        W23329   9.273  32.076  10.156
61964W        W23330  15.734  37.474  10.933
61965W        W23331  28.158  35.084  14.876
61966W        W23332  18.760  34.116  14.976
61967W        W23333   7.842   3.380  12.852
61968W        W23334  22.071  18.638   0.439
61969W        W23335   4.350  26.160   3.630
61970W        W23336  26.594  39.950  14.415
61971W        W23337  27.985  33.461   4.222
61972W        W23338  26.581  31.528   2.357
61973W        W23339  32.028   4.780  12.842
61974W        W23340  40.819  18.103   3.846
61975W        W23341  10.743  15.237  10.547
61976W        W23342  33.537  40.456  14.022
61977W        W23343  21.655  31.080  11.877
61978W        W23344  37.079  10.727  10.908
61979W        W23345  18.163  17.738   0.274
61980W        W23346  42.018  18.678  13.967
61981W        W23347  28.018  44.357   3.851
61982W        W23348  38.566   8.296  12.078
61983W        W23349   9.327  40.882   0.472
61984W        W23350  27.040  11.683   0.811
61985W        W23351   5.323   4.891   1.760
61986W        W23352   1.456  37.034   2.753
61987W        W23353  25.711  23.550  10.642
61988W        W23354  44.895  29.463  12.971
61989W        W23355  10.140  17.061   4.709
61990W        W23356  34.948  23.182   4.651
61991W        W23357   9.862  27.625   0.796
61992W        W23358  22.131  35.402   0.438
61993W        W23359  44.854  44.921   4.305
61994W        W23360  39.929  27.179  14.391
61995W        W23361  18.183  29.555  12.511
61996W        W23362  35.057  20.095   4.241
61997W        W23363  25.206  19.217   0.291
61998W        W23364  24.517   6.795  14.329
61999W        W23365   2.866  33.559   2.411
62000W        W23366  25.581  37.912  10.619
62001W        W23367  35.028  12.285  14.380
62002W        W23368  19.050  16.796   0.254
62003W        W23369  37.876  42.327  13.399
62004W        W23370  15.237  41.833  10.918
62005W        W23371  19.541  24.697  12.347
62006W        W23372   3.711   0.751  13.330
62007W        W23373  20.161  16.738   0.966
62008W        W23374  12.732  26.691   4.226
62009W        W23375  16.311  40.913   1.292
62010W        W23376   7.296  13.349   4.278
62011W        W23377   8.199  33.084  10.455
62012W        W23378   2.737  37.500  12.353
62013W        W23379   8.307  22.623  10.942
62014W        W23380  10.277  17.660  13.030
62015W        W23381  27.573  21.613  10.508
62016W        W23382   0.943   8.186   3.273
62017W        W23383  33.421  32.888   0.361
62018W        W23384   0.310  31.898  14.923
62019W        W23385  34.395   5.840  14.392
62020W        W23386  39.324  44.319  12.994
62021W        W23387  39.980  29.443  11.571
62022W        W23388   1.271   7.671  14.280
62023W        W23389  40.978   1.937   4.216
62024W        W23390  34.081  24.043  13.949
62025W        W23391   7.711  26.195   2.209
62026W        W23392  15.784  37.831  13.880
62027W        W23393  34.379  31.057  14.371
62028W        W23394  35.972  29.427   3.242
62029W        W23395   0.798  44.480  13.982
62030W        W23396  30.561  17.098   0.347
62031W        W23397  18.615  13.155   2.764
62032W        W23398  37.902  34.457  13.477
62033W        W23399  33.128  44.380   4.748
62034W        W23400  30.651  16.686  12.082
62035W        W23401  35.548  30.632   4.730
62036W        W23402   6.280  37.975   3.838
62037W        W23403  28.995  14.671   3.320
62038W        W23404  20.646   7.763  10.945
62039W        W23405   7.831  33.591   3.238
62040W        W23406  43.316  12.692  12.973
62041W        W23407  31.479  26.655   0.335
62042W        W23408  12.652   8.689   1.877
62043W        W23409  41.435  43.484  11.979
62044W        W23410  38.930  24.158  12.922
62045W        W23411   2.869  43.000   2.348
62046W        W23412  12.220  10.721   3.361
62047W        W23413  44.966  30.574  10.474
62048W        W23414  39.497  30.618  12.526
62049W        W23415  34.439  34.468   0.869
62050W        W23416  13.755  33.998   3.203
62051W        W23417   6.236  16.745   3.347
62052W        W23418  25.683  27.119   1.440
62053W        W23419   6.334  40.391   3.276
62054W        W23420  17.732   0.286  11.991
62055W        W23421  21.518  31.457   2.393
62056W        W23422  28.630   4.255   3.737
62057W        W23423  30.017  34.959  13.439
62058W        W23424  33.049   3.386   4.260
62059W        W23425  35.936  39.463  11.404
62060W        W23426  13.175   6.241  10.150
62061W        W23427  22.048  13.113  10.625
62062W        W23428  40.355  43.354   1.255
62063W        W23429  42.377  26.129   4.197
62064W        W23430   2.239  18.775  12.053
62065W        W23431  43.768  39.959  11.941
62066W        W23432  17.739   9.785  14.884
62067W        W23433  31.565  36.559  12.012
62068W        W23434  15.085  13.187   5.251
62069W        W23435  11.787  16.079   0.285
62070W        W23436   8.769  19.602   1.779
62071W        W23437  18.230  17.092  13.933
62072W        W23438  19.591  39.347   0.358
62073W        W23439  10.740  39.339   2.225
62074W        W23440  27.486  10.308   0.434
62075W        W23441  26.549   3.214  14.763
62076W        W23442  27.005  15.131   1.824
62077W        W23443  25.664  14.775  12.549
62078W        W23444  33.045   9.883   0.779
62079W        W23445  40.478  38.420   3.635
62080W        W23446  21.669  15.589  14.013
62081W        W23447  19.601   5.924   3.800
62082W        W23448  31.555  38.571   4.153
62083W        W23449  42.799   7.285  13.487
62084W        W23450  28.951   8.701  12.005
62085W        W23451  36.393  39.978   3.354
62086W        W23452  29.111  11.151  10.593
62087W        W23453  32.586  23.148  12.830
62088W        W23454  44.332  43.798  11.862
62089W        W23455  37.879   5.773   0.269
62090W        W23456  19.764  42.374   0.257
62091W        W23457  27.669  42.848   2.731
62092W        W23458   1.975  36.496   2.246
62093W        W23459  15.770  41.797   1.895
62094W        W23460  18.728  26.071  10.418
62095W        W23461   8.171   7.266  13.349
62096W        W23462  12.354   7.859   4.262
62097W        W23463  18.183  32.547  11.551
62098W        W23464  19.198  15.591  13.489
62099W        W23465  11.355  13.297  11.942
62100W        W23466  29.475  38.478   3.219
62101W        W23467  19.543  33.915  10.085
62102W        W23468  29.640  31.547   1.845
62103W        W23469  10.787   2.876  12.514
62104W        W23470  38.346  23.163   4.154
62105W        W23471  44.875  29.551  12.523
62106W        W23472  36.080   6.396  13.483
62107W        W23473  24.536  34.390  14.397
62108W        W23474  32.485   1.941   3.300
62109W        W23475   7.685  16.645  10.567
62110W        W23476  40.474   1.819   3.712
62111W        W23477   1.247   4.721   4.623
62112W        W23478  29.988  15.729  12.839
62113W        W23479  17.207  40.531   1.220
62114W        W23480  18.063  28.480   1.367
62115W        W23481  14.622  26.620  13.496
62116W        W23482  24.030  13.620  12.353
62117W        W23483   7.296   9.739  14.797
62118W        W23484  42.796   1.905  11.940
62119W        W23485  18.082  12.649  14.856
62120W        W23486   4.306  15.204  11.933
62121W        W23487  35.090  42.852  11.918
62122W        W23488  43.440  42.314   3.357
62123W        W23489  41.525  28.079  12.373
62124W        W23490  25.103  24.612  11.604
62125W        W23491   9.291   6.839   2.192
62126W        W23492  30.070  10.738   2.358
62127W        W23493  25.033  42.027   3.273
62128W        W23494  19.673  10.225  14.825
62129W        W23495  29.135   7.199  11.974
62130W        W23496  36.518  35.025   2.734
62131W        W23497  12.289  37.988  13.489
62132W        W23498   2.253  42.032   1.316
62133W        W23499   5.342  30.590  14.846
62134W        W23500  21.670  23.143   3.247
62135W        W23501  20.149  14.594  12.042
62136W        W23502  43.514  15.237  12.825
62137W        W23503  11.351  13.645   0.281
62138W        W23504  17.692  25.993   2.327
62139W        W23505  34.522  26.081  13.311
62140W        W23506  33.040   4.737   2.877
62141W        W23507  34.584   4.717   2.855
62142W        W23508   3.286  17.736  12.486
62143W        W23509  38.901  20.579   0.454
62144W        W23510  35.480  28.595   0.440
62145W        W23511  24.708  41.991   1.448
62146W        W23512   0.851  24.653  12.447
62147W        W23513  16.746  12.760  11.102
62148W        W23514  40.444  34.440  14.488
62149W        W23515  32.097  16.281  10.620
62150W        W23516  11.698  37.041   1.225
62151W        W23517  26.108  22.117   2.305
62152W        W23518  12.686  14.654   1.771
62153W        W23519  14.665  20.147   4.212
62154W        W23520   8.246  33.114   0.261
62155W        W23521  40.346  37.452  14.785
62156W        W23522  24.094  19.533  14.960
62157W        W23523   3.747   0.328  10.467
62158W        W23524   8.688   4.422  13.408
62159W        W23525  25.633  44.425   1.316
62160W        W23526  27.578  23.587   0.284
62161W        W23527  13.686  30.461  13.356
62162W        W23528  12.214   3.739   1.213
62163W        W23529  14.197  31.628   0.464
62164W        W23530  39.055  41.440  13.389
62165W        W23531  44.904  15.237  13.547
62166W        W23532  15.655   7.386   3.854
62167W        W23533  43.315  28.567   1.832
62168W        W23534  22.213  21.668   0.411
62169W        W23535  26.500   9.654   3.823
62170W        W23536  13.320  44.487   0.841
62171W        W23537  31.582  34.383   4.328
62172W        W23538  34.030  33.937  10.969
62173W        W23539   8.380  28.656  12.496
62174W        W23540  10.363  11.216   1.247
62175W        W23541   3.249   2.367   5.169
62176W        W23542   6.372  31.569  10.122
62177W        W23543  28.034   0.428  14.779
62178W        W23544  17.230  41.002   3.657
62179W        W23545   1.338   6.332   2.292
62180W        W23546   2.814  36.016   4.628
62181W        W23547   9.156  16.591  11.915
62182W        W23548   8.361  42.884   2.903
62183W        W23549  36.047   8.403  11.936
62184W        W23550  18.233  29.939  14.819
62185W        W23551   3.352  37.896  11.956
62186W        W23552  44.863  19.053   2.717
62187W        W23553  26.131   2.730   4.693
62188W        W23554  11.324  42.795  13.940
62189W        W23555  37.007  20.097  11.503
62190W        W23556  11.751  43.792  14.891
62191W        W23557  28.662  27.620  14.006
62192W        W23558  29.560   1.783  11.588
62193W        W23559   6.374   0.404   0.950
62194W        W23560  30.119  32.997   0.915
62195W        W23561  15.103   6.689  13.799
62196W        W23562  31.918  31.131   4.661
62197W        W23563   4.206  20.637  10.597
62198W        W23564  24.535   2.398   3.696
62199W        W23565   7.354  29.016   4.686
62200W        W23566  15.101  16.620   1.251
62201W        W23567  43.826  39.981   1.376
62202W        W23568  11.854  23.032  12.394
62203W        W23569  31.470  43.350   1.780
62204W        W23570  13.662   5.259   3.669
62205W        W23571  27.186   6.880  10.918
62206W        W23572  43.431  25.470  14.366
62207W        W23573  18.203  18.215  14.431
62208W        W23574   2.926  35.406  12.871
62209W        W23575  34.538   9.763   3.645
62210W        W23576  12.666  36.500  14.361
62211W        W23577  31.462   5.200   4.663
62212W        W23578  20.063  24.122  14.465
62213W        W23579  27.184  21.554   0.458
62214W        W23580  38.426  28.136   2.826
62215W        W23581  15.794  16.647  12.989
62216W        W23582  21.197  34.901   3.754
62217W        W23583  42.837  17.792  14.820
62218W        W23584  26.648  17.650   0.413
62219W        W23585  35.426  20.646   4.352
62220W        W23586   2.392   5.269  11.440
62221W        W23587   6.717  11.260   4.785
62222W        W23588  34.069   5.785  14.939
62223W        W23589   6.200   0.833   0.728
62224W        W23590  26.201  41.860  12.087
62225W        W23591  42.883  43.488  12.358
62226W        W23592  30.996  32.471   1.368
62227W        W23593  28.477  19.626   2.876
62228W        W23594  37.981  41.024  10.571
62229W        W23595  19.735  24.068  14.484
62230W        W23596  39.447  17.206   3.153
62231W        W23597  37.529  34.933   1.240
62232W        W23598   1.841  11.221  11.467
62233W        W23599  19.577  10.783   3.638
62234W        W23600   5.756   3.843   4.195
62235W        W23601  36.881  13.747  11.448
62236W        W23602  41.420   9.701  11.517
62237W        W23603   0.829  14.296  12.417
62238W        W23604  37.032  24.003  12.445
62239W        W23605  27.958   4.330   0.320
62240W        W23606  34.972  30.414   1.451
62241W        W23607   9.663  16.200  13.479
62242W        W23608   9.209  42.288  12.373
62243W        W23609  23.640  22.653  11.374
62244W        W23610  23.548  31.592  14.369
62245W        W23611  23.048   5.325  12.916
62246W        W23612  39.487   6.231   2.248
62247W        W23613  27.140   6.403   0.877
62248W        W23614  22.075   1.884   1.276
62249W        W23615  22.649  18.258   4.157
62250W        W23616   3.378  34.996  12.504
62251W        W23617  16.220  39.995  14.760
62252W        W23618  13.326  18.602   1.910
62253W        W23619   0.842  41.533   9.966
62254W        W23620  24.722  28.476  13.863
62255W        W23621   2.732  44.492   2.869
62256W        W23622  12.194  33.930  14.350
62257W        W23623  18.237  13.202   1.331
62258W        W23624  32.962  27.106   3.830
62259W        W23625  18.295   1.810   0.739
62260W        W23626   9.260  21.173   3.275
62261W        W23627  44.873  25.489   1.719
62262W        W23628  42.981  43.324  14.782
62263W        W23629  25.060  13.350  13.509
62264W        W23630  29.642  35.088   4.237
62265W        W23631  16.148   9.838   2.255
62266W        W23632  23.704  41.338  11.420
62267W        W23633   1.283  40.843  13.402
62268W        W23634  41.019  14.705  11.464
62269W        W23635  27.108  28.008   1.699
62270W        W23636  40.895  37.925  11.449
62271W        W23637   0.983  16.634  13.908
62272W        W23638  12.250  25.971   1.748
62273W        W23639  41.004  27.665   3.655
62274W        W23640  11.728  37.837  11.113
62275W        W23641  27.057  39.889   0.753
62276W        W23642   2.302   0.952  12.429
62277W        W23643  41.373  39.912  14.801
62278W        W23644  10.705  34.380   9.489
62279W        W23645   9.395   7.200  12.054
62280W        W23646   1.264  21.621  13.866
62281W        W23647  10.383  22.223   4.224
62282W        W23648  16.108  15.820   2.417
62283W        W23649  34.410  28.038   4.633
62284W        W23650  25.636  24.212   4.186
62285W        W23651  29.148  16.186   4.312
62286W        W23652  42.303  33.007  13.039
62287W        W23653  30.914   7.304  13.875
62288W        W23654  35.962  35.953  10.443
62289W        W23655  16.183   2.959  14.459
62290W        W23656   1.847  10.835   4.280
62291W        W23657  43.279  25.616   3.378
62292W        W23658   1.922  30.509   9.924
62293W        W23659  12.158  27.040  14.858
62294W        W23660   8.747  21.678   2.187
62295W        W23661   2.880  33.073  14.883
62296W        W23662  15.109  28.958  13.543
62297W        W23663  18.250  37.906   0.397
62298W        W23664  17.119   8.873  13.008
62299W        W23665  13.783  31.605  11.124
62300W        W23666  29.113  12.199   3.328
62301W        W23667  19.551  27.170  11.563
62302W        W23668  44.789  26.171  10.009
62303W        W23669   6.345  28.511   1.254
62304W        W23670  22.699  39.447  11.424
62305W        W23671  20.057  27.023  10.406
62306W        W23672  14.686  11.652  12.902
62307W        W23673  34.978  12.261  10.952
62308W        W23674  16.203  35.073  13.792
62309W        W23675  17.658  14.709   2.204
62310W        W23676  36.543  19.708  12.421
62311W        W23677  16.183  35.031   4.821
62312W        W23678  38.374  27.942   3.277
62313W        W23679  23.619   7.889  11.545
62314W        W23680  33.941  37.940   0.416
62315W        W23681  25.052  19.597   3.849
62316W        W23682  18.761   9.349  11.552
62317W        W23683   6.307   4.350  13.025
62318W        W23684  42.795  29.963   4.343
62319W        W23685  24.613  41.005   4.188
62320W        W23686  24.707  27.459  13.369
62321W        W23687  21.708  15.784   1.369
62322W        W23688  31.436  27.944  11.937
62323W        W23689  20.236   7.742   3.680
62324W        W23690  12.253  18.088  14.300
62325W        W23691  39.016   5.695  12.428
62326W        W23692  16.688  37.471   0.352
62327W        W23693  37.463  33.925   1.768
62328W        W23694  39.410   3.251   0.793
62329W        W23695  44.346  19.168   3.325
62330W        W23696  21.242   2.907   3.234
62331W        W23697   5.872  40.395   4.701
62332W        W23698  24.987  13.218   1.426
62333W        W23699  25.642  22.023   2.664
62334W        W23700  33.934  37.544   4.346
62335W        W23701   8.375   0.828  13.445
62336W        W23702  40.009  36.060   2.812
62337W        W23703  30.161  18.700  14.377
62338W        W23704  25.565  30.619  11.518
62339W        W23705  30.968  13.845  11.556
62340W        W23706  26.477  22.126   3.184
62341W        W23707  32.965  17.684   2.836
62342W        W23708  28.936   2.796  12.959
62343W        W23709  26.056   3.441   4.748
62344W        W23710  11.170  27.653  10.631
62345W        W23711   9.886   2.841  12.853
62346W        W23712  29.521  37.337   2.807
62347W        W23713  14.220   8.229   4.135
62348W        W23714  36.562  24.589  10.541
62349W        W23715  27.081   3.813  13.815
62350W        W23716  22.717  29.944  10.611
62351W        W23717  18.276   0.837  12.016
62352W        W23718  38.968  37.532   0.898
62353W        W23719  21.645  38.840   4.811
62354W        W23720  32.948  43.512  13.427
62355W        W23721  19.730  41.303  14.989
62356W        W23722   2.815   5.877  14.899
62357W        W23723   7.189  15.639   1.270
62358W        W23724  12.642  37.338   3.387
62359W        W23725   3.434  14.628   0.348
62360W        W23726  44.835  20.132   1.283
62361W        W23727  17.099  42.355  12.880
62362W        W23728  10.172  23.704  13.539
62363W        W23729  43.380  30.652   5.209
62364W        W23730  34.613  13.338  14.481
62365W        W23731  37.066  40.466  10.039
62366W        W23732  10.367  12.738  13.986
62367W        W23733  24.102   6.873  10.479
62368W        W23734  25.104   9.718   0.836
62369W        W23735   3.912  27.156  12.481
62370W        W23736  35.864  22.679  12.406
62371W        W23737  28.545  19.097  12.938
62372W        W23738  43.274   2.252   0.815
62373W        W23739  28.005  29.514   0.763
62374W        W23740  12.698  17.267   3.357
62375W        W23741  23.674   1.281  13.806
62376W        W23742  26.128  22.715  12.016
62377W        W23743  12.639  42.912   4.302
62378W        W23744   0.918  23.140  10.499
62379W        W23745  37.493  23.648   3.642
62380W        W23746   6.209  21.170  11.449
62381W        W23747  16.786   4.927  11.549
62382W        W23748   5.760   0.430   4.243
62383W        W23749  33.597  44.390   1.872
62384W        W23750  10.227   5.875  11.941
62385W        W23751  43.985  41.321   4.721
62386W        W23752   8.270  43.778  14.009
62387W        W23753   0.351   9.390   1.380
62388W        W23754   5.369   7.866  12.348
62389W        W23755   6.789  29.965  14.509
62390W        W23756  21.079  28.497  10.630
62391W        W23757  19.262  39.034   0.469
62392W        W23758  11.671  44.432  14.450
62393W        W23759   8.869  34.399  10.939
62394W        W23760  18.765  39.487   4.172
62395W        W23761   0.910   4.207  12.020
62396W        W23762  15.088  30.949   3.226
62397W        W23763  21.607  15.644   3.263
62398W        W23764  42.399  41.458   0.285
62399W        W23765  17.137  44.810   2.417
62400W        W23766  42.295  20.714   4.792
62401W        W23767  42.826  38.955   3.230
62402W        W23768  39.402  34.451  12.832
62403W        W23769   7.700  19.071   1.784
62404W        W23770  14.230  39.855  12.553
62405W        W23771  19.279  38.848  14.504
62406W        W23772   6.870  18.731   3.650
62407W        W23773   2.442  36.070  14.291
62408W        W23774   4.744  24.670   2.757
62409W        W23775   1.933  40.973   2.294
62410W        W23776  25.686  32.908  11.582
62411W        W23777  28.589  18.606  14.476
62412W        W23778   5.302  42.882  13.544
62413W        W23779  41.853  11.721   4.675
62414W        W23780  43.353  19.546   4.263
62415W        W23781  43.782   3.736   1.766
62416W        W23782  31.482  24.692   4.256
62417W        W23783  35.409  16.287   1.832
62418W        W23784  30.146  37.870  11.011
62419W        W23785  40.908  10.764   0.366
62420W        W23786  32.097   3.751  14.869
62421W        W23787  24.048  33.532   3.801
62422W        W23788  17.688  20.182  11.459
62423W        W23789  30.158   4.216  12.836
62424W        W23790   5.700  37.967   1.714
62425W        W23791  31.040  11.728  11.026
62426W        W23792  40.431   6.773  13.427
62427W        W23793   8.379  28.140  12.465
62428W        W23794   9.681  12.123  13.473
62429W        W23795   6.235  22.579   0.773
62430W        W23796  27.582  35.517   0.739
62431W        W23797  22.247   4.871  13.538
62432W        W23798  43.000   8.379  12.482
62433W        W23799  36.016  27.571  13.541
62434W        W23800   6.790   9.778  11.875
62435W        W23801   5.400  17.586  13.042
62436W        W23802   7.859  22.198  10.450
62437W        W23803  40.050  38.876  12.969
62438W        W23804  36.982  28.504  13.433
62439W        W23805  35.504  39.969  14.426
62440W        W23806   6.220  31.584   1.734
62441W        W23807  12.717  23.553  11.525
62442W        W23808   9.358  17.255   5.303
62443W        W23809  40.964  22.038   3.681
62444W        W23810  12.695  15.637   1.318
62445W        W23811  42.482   8.178  10.929
62446W        W23812  13.227  42.479  11.466
62447W        W23813  17.103  30.008   2.666
62448W        W23814  40.957  18.760  11.511
62449W        W23815  41.382  39.471   0.420
62450W        W23816   3.376  31.442   4.836
62451W        W23817  16.304  41.821   3.810
62452W        W23818  27.473   7.334   4.214
62453W        W23819   2.382  17.214   2.372
62454W        W23820  40.342  44.893  14.309
62455W        W23821  16.126  27.040  14.286
62456W        W23822  13.719   2.852  11.407
62457W        W23823  38.325   4.742  14.867
62458W        W23824   2.898  42.983   3.742
62459W        W23825  14.702   9.722   2.786
62460W        W23826   1.768   9.653  11.984
62461W        W23827  14.176  25.060  10.599
62462W        W23828  29.942   3.901   2.866
62463W        W23829   8.685  38.911  11.487
62464W        W23830  15.759   9.268   0.890
62465W        W23831   4.395   6.240  10.929
62466W        W23832  39.987  42.808   2.866
62467W        W23833  33.940  18.593   4.200
62468W        W23834  44.788  18.701   3.636
62469W        W23835   2.849  22.251   0.909
62470W        W23836  34.871   8.855  13.522
62471W        W23837  20.241  15.203  12.569
62472W        W23838  19.599  29.444   0.777
62473W        W23839  30.497  21.699   3.228
62474W        W23840   0.456   1.323  12.046
62475W        W23841  36.520  21.160   4.346
62476W        W23842   1.812  11.232   0.920
62477W        W23843  23.106  41.882   3.319
62478W        W23844  10.242  20.701   0.742
62479W        W23845   5.856  35.520   2.697
62480W        W23846  15.243  15.232   2.372
62481W        W23847  28.435  16.278   2.355
62482W        W23848  10.257   9.815  12.010
62483W        W23849  17.592  22.739  14.430
62484W        W23850  28.999   7.188   0.916
62485W        W23851  34.571  11.859  12.859
62486W        W23852   5.923   7.668  11.459
62487W        W23853  33.935  37.037   2.351
62488W        W23854   9.302  36.896  13.888
62489W        W23855  32.901  25.115   0.464
62490W        W23856  29.481  32.544   2.210
62491W        W23857  12.686  17.140  11.467
62492W        W23858  14.835   6.207  11.497
62493W        W23859  43.335  40.033   0.355
62494W        W23860  30.046  35.444   2.714
62495W        W23861   3.765  42.914   4.731
62496W        W23862  33.541  13.108   4.312
62497W        W23863  32.553  41.898   2.698
62498W        W23864  35.477  43.870   4.334
62499W        W23865  28.976  36.413  11.978
62500W        W23866  16.165  40.963  10.644
62501W        W23867  17.160  27.518  10.508
62502W        W23868  25.649  16.195   3.342
62503W        W23869  16.599  20.043  10.429
62504W        W23870  30.967  17.119  10.991
62505W        W23871  25.514  38.553  12.002
62506W        W23872  16.623  20.730  14.812
62507W        W23873  43.497  44.274  10.930
62508W        W23874  11.277  21.137   3.191
62509W        W23875   2.923  28.004  11.516
62510W        W23876  31.131  34.899  13.879
62511W        W23877  22.015  24.517  12.340
62512W        W23878  37.420  36.957  11.978
62513W        W23879  27.623  21.146   3.845
62514W        W23880  29.616  37.362  12.857
62515W        W23881  32.025  15.709   3.231
62516W        W23882  27.458  17.210   1.298
62517W        W23883  24.705  36.512   1.735
62518W        W23884   2.864  10.705  13.842
62519W        W23885  21.718  16.093  11.019
62520W        W23886  34.470  20.129   4.830
62521W        W23887  19.095  10.822  14.343
62522W        W23888  12.293  26.586   3.652
62523W        W23889   6.315  25.487   0.911
62524W        W23890   8.797   8.232  13.035
62525W        W23891  18.265  11.771   2.265
62526W        W23892  26.663  25.555   1.779
62527W        W23893  15.750  26.693  11.414
62528W        W23894  40.920  12.703   4.772
62529W        W23895   7.185  25.708  13.969
62530W        W23896  17.670  15.767   0.943
62531W        W23897  20.199  17.070  12.076
62532W        W23898   4.328   8.266   0.791
62533W        W23899  14.117  25.047  11.061
62534W        W23900  31.620  10.770   1.844
62535W        W23901  28.651   2.788  13.818
62536W        W23902  19.585  29.455  12.861
62537W        W23903  42.284  28.534   1.824
62538W        W23904  36.982  30.013  12.018
62539W        W23905   2.272   4.728  11.592
62540W        W23906  36.091  27.610   3.272
62541W        W23907  30.113  37.842  12.859
62542W        W23908  19.689   1.345  12.092
62543W        W23909  41.422   3.311  14.283
62544W        W23910  40.335  35.497   2.793
62545W        W23911  16.574  36.357   2.272
62546W        W23912  43.941  26.692   4.699
62547W        W23913  36.848  21.531  13.033
62548W        W23914  39.836  13.117   1.271
62549W        W23915  23.199  11.709   1.776
62550W        W23916  17.247  33.959  14.962
62551W        W23917   3.855  20.232  14.355
62552W        W23918  20.679  41.815  12.462
62553W        W23919  42.858   0.978  13.843
62554W        W23920  25.140  24.562  14.032
62555W        W23921  27.657  22.638   2.288
62556W        W23922  15.206  17.606   0.845
62557W        W23923  27.604  36.393  14.515
62558W        W23924  36.541  29.008   3.648
62559W        W23925  21.227   6.384  12.014
62560W        W23926   7.406  23.549   3.870
62561W        W23927   6.215  18.093   4.247
62562W        W23928  32.453  26.084   2.210
62563W        W23929  36.028  43.827  14.921
62564W        W23930   0.395  31.486  10.644
62565W        W23931  25.096  15.779   2.832
62566W        W23932  23.011  44.896  12.405
62567W        W23933  13.754  23.008  12.925
62568W        W23934   7.691   2.396   1.398
62569W        W23935  26.699  37.053  12.862
62570W        W23936  35.940  17.079  14.971
62571W        W23937  18.169  31.570  11.494
62572W        W23938  42.324  37.913  12.374
62573W        W23939  19.187  33.516   3.301
62574W        W23940  20.075  42.818   2.829
62575W        W23941  33.091  37.884   3.678
62576W        W23942  26.078  26.125   2.842
62577W        W23943   2.302  20.090  14.474
62578W        W23944  24.627  32.946  11.063
62579W        W23945  30.136  34.417   0.435
62580W        W23946  43.462  24.651   1.765
62581W        W23947  39.059  20.054  14.446
62582W        W23948  11.364  41.815  13.437
62583W        W23949  10.857  32.596   4.156
62584W        W23950  30.068  27.172   2.884
62585W        W23951  39.422  42.855   2.769
62586W        W23952  21.135   7.317  13.822
62587W        W23953  31.904  44.860  12.475
62588W        W23954  22.121  28.602  12.359
62589W        W23955  38.376  20.210   2.230
62590W        W23956  37.053  38.893  14.984
62591W        W23957  26.524  34.459  11.527
62592W        W23958  22.193   2.356  13.951
62593W        W23959  15.746  20.199   4.233
62594W        W23960  40.946  19.693  11.115
62595W        W23961  38.922  22.637   1.705
62596W        W23962  11.843   2.844  12.428
62597W        W23963  19.701  19.152   4.132
62598W        W23964  39.379   7.671  10.914
62599W        W23965  23.120   6.727  14.784
62600W        W23966  18.240  37.914  11.017
62601W        W23967  17.560  13.657   1.769
62602W        W23968  30.630   0.822  13.466
62603W        W23969  43.989  40.512   4.214
62604W        W23970  44.499  24.110  11.409
62605W        W23971   9.219  42.428   3.308
62606W        W23972  15.184  13.641  14.508
62607W        W23973  28.522  25.504   1.765
62608W        W23974  17.191   5.237   0.783
62609W        W23975  29.443  25.171   4.816
62610W        W23976   7.801  16.598   0.427
62611W        W23977   1.417  14.599  12.826
62612W        W23978   1.809   9.824  10.950
62613W        W23979  11.323  15.212  13.853
62614W        W23980  10.336  27.097   2.407
62615W        W23981   5.301   2.413  14.817
62616W        W23982   3.916  28.940  13.494
62617W        W23983  25.529  39.038   4.188
62618W        W23984  11.824  16.720  10.491
62619W        W23985   6.734  36.020  13.893
62620W        W23986  39.928   7.725  13.936
62621W        W23987  43.876  16.716   1.218
62622W        W23988  39.965  27.980   2.342
62623W        W23989   9.243  24.628  11.408
62624W        W23990  14.688   1.962  11.406
62625W        W23991  32.528  39.929   2.316
62626W        W23992   7.863  43.457   2.310
62627W        W23993  10.338  26.103   4.763
62628W        W23994  38.913  13.298  14.829
62629W        W23995   7.746  17.202   4.327
62630W        W23996  15.588  41.389  11.448
62631W        W23997   6.788  39.479  14.770
62632W        W23998  10.184   3.334  10.892
62633W        W23999  40.929  41.016   3.287
62634W        W24000  42.996   3.419  10.569
62635W        W24001  38.869   4.943   5.293
62636W        W24002  42.858  44.937   2.757
62637W        W24003  38.426   0.270   2.215
62638W        W24004  41.316  37.437   1.314
62639W        W24005  27.628  20.176   1.855
62640W        W24006   2.433  12.297   1.871
62641W        W24007  12.256  21.674  14.467
62642W        W24008   8.247  42.984   0.375
62643W        W24009  23.085   6.793  13.814
62644W        W24010  13.285  44.843  14.787
62645W        W24011  14.252  25.085  12.948
62646W        W24012  42.871  32.925   4.242
62647W        W24013  40.539  21.659   2.662
62648W        W24014  29.982  33.995  13.508
62649W        W24015  36.067  36.923   2.191
62650W        W24016   8.281  11.755   2.713
62651W        W24017  21.064  17.576   2.721
62652W        W24018  22.026   1.415  13.943
62653W        W24019   4.345   2.884  14.414
62654W        W24020  11.233   3.870  12.484
62655W        W24021  32.436  41.960   4.328
62656W        W24022  14.675  12.118   3.769
62657W        W24023  21.736  34.095   0.332
62658W        W24024  37.939  30.935   1.814
62659W        W24025  38.422  24.619   2.356
62660W        W24026   1.331  31.576  13.486
62661W        W24027  15.252  41.452   2.337
62662W        W24028  36.482  44.923   0.727
62663W        W24029  16.685  43.982   0.425
62664W        W24030  14.714   9.247   0.951
62665W        W24031  17.097   1.348   0.849
62666W        W24032   2.422  34.489  11.527
62667W        W24033  24.112  35.460  10.110
62668W        W24034  24.539  15.083   1.363
62669W        W24035  23.000  40.423  14.800
62670W        W24036  37.873  25.205  13.384
62671W        W24037  19.200  39.895  12.359
62672W        W24038  33.533  44.320   0.904
62673W        W24039  28.088  39.326  12.493
62674W        W24040  13.157  41.828  10.447
62675W        W24041  21.732  25.177   4.666
62676W        W24042   8.746   5.246   1.220
62677W        W24043  16.311  25.203  11.056
62678W        W24044  39.816  29.050   1.790
62679W        W24045  23.546  13.236   3.710
62680W        W24046  39.934  22.242   4.140
62681W        W24047  17.262  16.076   2.892
62682W        W24048  17.572  23.198   3.151
62683W        W24049   4.789  18.227   2.877
62684W        W24050  40.985   1.918   3.830
62685W        W24051  15.761   2.933  11.112
62686W        W24052  43.425   1.748   3.720
62687W        W24053   8.854  17.780   4.678
62688W        W24054  20.543   4.879   4.741
62689W        W24055   5.421  37.350  13.937
62690W        W24056  40.839   2.332   0.799
62691W        W24057  30.010  33.898   2.828
62692W        W24058  43.310   9.371   2.407
62693W        W24059  39.811   0.304  11.386
62694W        W24060  39.438  15.810   3.218
62695W        W24061  20.623   8.182  14.473
62696W        W24062  14.767   1.887  12.457
62697W        W24063  12.698  14.227  11.390
62698W        W24064  35.057  16.210   0.862
62699W        W24065  12.701  33.016  13.864
62700W        W24066  21.695  38.540   0.400
62701W        W24067   1.733   0.352   1.307
62702W        W24068  29.160   0.898  11.507
62703W        W24069   3.829   6.754   0.952
62704W        W24070   4.769  10.727  11.475
62705W        W24071  44.441  11.640   2.870
62706W        W24072  29.599   9.233   1.776
62707W        W24073  38.532  32.606  14.395
62708W        W24074   9.172  11.663  10.420
62709W        W24075  33.946  15.823  10.607
62710W        W24076  44.810  29.571  14.937
62711W        W24077   1.470  29.656   0.736
62712W        W24078   5.364  21.541  13.841
62713W        W24079   6.288   5.697   1.251
62714W        W24080  28.562  43.897   2.355
62715W        W24081  21.222  34.440   0.896
62716W        W24082  24.595  23.146  10.612
62717W        W24083  19.138   4.234   4.700
62718W        W24084   7.371  12.826   2.187
62719W        W24085  28.537  13.683  10.442
62720W        W24086  34.043  28.444   3.357
62721W        W24087  26.088  42.879   3.784
62722W        W24088  14.786  28.536  13.527
62723W        W24089   0.806   5.300   3.850
62724W        W24090  43.969  17.564  11.497
62725W        W24091  37.339  44.924  10.901
62726W        W24092  15.581  12.333  12.876
62727W        W24093  44.910   1.944  12.999
62728W        W24094  15.202  24.186   2.693
62729W        W24095  28.597   8.875  11.941
62730W        W24096   6.424  34.092  10.957
62731W        W24097  21.566   2.254   3.256
62732W        W24098  23.626  34.915  14.824
62733W        W24099  31.569  38.441   4.769
62734W        W24100  16.282   4.208   3.313
62735W        W24101  16.282  15.780  14.914
62736W        W24102   9.323  14.637   3.706
62737W        W24103  36.391  37.516   3.657
62738W        W24104  39.062  12.758  12.569
62739W        W24105  38.568  43.874  13.923
62740W        W24106   7.252  32.443  11.075
62741W        W24107  24.128  42.865   3.323
62742W        W24108  33.479  32.954  14.387
62743W        W24109   0.829  42.851   0.923
62744W        W24110  12.693  27.529   4.324
62745W        W24111  28.940  32.961  14.903
62746W        W24112  12.773  17.690   1.762
62747W        W24113   2.877   6.808   4.640
62748W        W24114   7.803  41.461   5.155
62749W        W24115  38.361   7.836  11.986
62750W        W24116  16.078  27.514  12.899
62751W        W24117  29.974  42.355  13.313
62752W        W24118  41.438  25.539  12.922
62753W        W24119  12.811  30.442   1.769
62754W        W24120  41.914   3.798   3.317
62755W        W24121   7.770   1.922   1.848
62756W        W24122  17.211   2.859  13.317
62757W        W24123  39.938  30.913   2.385
62758W        W24124  15.247  18.709   2.750
62759W        W24125  28.494  40.440  13.878
62760W        W24126  11.260  30.471  13.396
62761W        W24127  36.888  40.812   4.708
62762W        W24128  36.530   1.275   4.605
62763W        W24129  37.072   5.306   1.252
62764W        W24130   5.903  29.612   1.308
62765W        W24131  32.131   6.778  12.970
62766W        W24132   8.724  33.493   0.776
62767W        W24133  34.601  42.297  10.565
62768W        W24134  23.495  27.042   4.208
62769W        W24135   0.324  23.541  14.825
62770W        W24136  27.184   9.324   1.406
62771W        W24137   3.797  18.670  13.861
62772W        W24138  42.003   7.693   2.385
62773W        W24139  36.895  34.951  11.121
62774W        W24140  18.731  21.633   3.151
62775W        W24141  28.482  24.566  12.065
62776W        W24142  18.647  24.145   2.687
62777W        W24143   5.277   0.823   4.323
62778W        W24144  40.968  37.544  11.535
62779W        W24145  11.706  27.604  14.378
62780W        W24146  36.536   7.912   1.278
62781W        W24147  25.152  11.818   0.893
62782W        W24148   1.762  39.411  14.808
62783W        W24149  10.202  14.712   1.316
62784W        W24150  38.566  33.482  12.031
62785W        W24151  36.992  33.089   1.328
62786W        W24152  19.268  30.148   3.693
62787W        W24153  13.785  25.584  13.542
62788W        W24154  39.835  42.454  11.905
62789W        W24155  21.217  41.827   1.274
62790W        W24156  20.147  28.947  13.525
62791W        W24157  42.424  33.049   3.292
62792W        W24158  31.468  32.609  13.394
62793W        W24159  21.188   4.803   0.443
62794W        W24160   9.826  28.123  13.036
62795W        W24161  22.518  34.440  13.521
62796W        W24162  24.132  27.045   4.814
62797W        W24163   1.959  35.440  10.500
62798W        W24164   9.749  41.399   3.177
62799W        W24165   7.267  13.629  13.983
62800W        W24166   6.323  29.596   3.681
62801W        W24167  15.275  18.773   9.964
62802W        W24168  20.061  44.478   4.178
62803W        W24169   6.196  32.416   2.270
62804W        W24170  24.501   5.367   2.760
62805W        W24171  41.523  36.355  10.470
62806W        W24172   0.944  10.685  14.935
62807W        W24173  36.422  14.748   2.872
62808W        W24174  31.137   9.337  12.009
62809W        W24175  25.010  10.224  13.309
62810W        W24176  26.093   9.651   4.241
62811W        W24177  32.623  35.471   1.289
62812W        W24178  10.859  31.084  11.374
62813W        W24179  21.043  28.549  12.396
62814W        W24180   9.226  12.829   4.767
62815W        W24181  15.216   9.801  13.834
62816W        W24182  12.817   3.833  10.412
62817W        W24183  14.317  39.920  14.350
62818W        W24184  29.144  42.321   0.435
62819W        W24185  10.655  20.090  11.956
62820W        W24186  18.549  25.078   2.671
62821W        W24187   4.444  23.691  11.075
62822W        W24188  37.559   5.302  12.070
62823W        W24189   0.305   1.840   1.838
62824W        W24190  37.009  32.003  13.494
62825W        W24191  39.403  21.643  13.528
62826W        W24192  39.978  20.615   4.729
62827W        W24193  20.726   0.405  12.887
62828W        W24194  32.131  24.673   3.698
62829W        W24195   4.943   4.882  12.831
62830W        W24196   1.962   9.839   0.873
62831W        W24197  36.474  40.801   9.541
62832W        W24198  21.530   5.276  13.546
62833W        W24199  25.042  13.296  14.914
62834W        W24200  17.567  22.008   3.741
62835W        W24201  20.640  10.211  13.056
62836W        W24202  10.826  10.877   0.340
62837W        W24203  10.195  20.254   0.757
62838W        W24204   0.457   3.371   2.303
62839W        W24205  42.383  23.534   2.412
62840W        W24206  36.375  28.988  14.932
62841W        W24207  24.585  37.086   3.794
62842W        W24208  14.287  34.101   1.801
62843W        W24209  42.891  32.130  14.289
62844W        W24210  41.322  36.849  13.395
62845W        W24211  41.837  16.098  11.573
62846W        W24212  12.655  22.049   3.849
62847W        W24213  10.735  26.617   1.418
62848W        W24214  38.385  30.429   2.866
62849W        W24215  36.432  38.328  10.526
62850W        W24216  39.914  15.178   3.734
62851W        W24217  12.198  44.001  11.421
62852W        W24218  39.919   7.715   3.366
62853W        W24219  22.007  29.174   0.854
62854W        W24220  41.296  35.525  14.495
62855W        W24221  37.085  31.130   0.403
62856W        W24222  13.301  10.711   4.657
62857W        W24223  20.592   6.682  14.947
62858W        W24224  21.712   3.871   1.819
62859W        W24225  28.575  32.476  12.459
62860W        W24226   2.878   7.178   1.900
62861W        W24227  17.763  32.457  10.541
62862W        W24228   6.193  13.185   3.768
62863W        W24229   9.249  21.633   4.185
62864W        W24230   2.322  42.876   2.195
62865W        W24231   8.822  36.917   3.760
62866W        W24232  32.628  14.230   1.342
62867W        W24233  34.900   6.308   1.211
62868W        W24234  19.172   5.241  14.993
62869W        W24235  34.908   5.435   3.840
62870W        W24236  22.678  22.222  10.482
62871W        W24237  22.589  34.110  14.495
62872W        W24238  21.619  33.056   0.768
62873W        W24239  23.508   5.436   0.451
62874W        W24240  10.259  42.024  14.504
62875W        W24241  44.818   5.430  11.382
62876W        W24242   4.303  26.038  12.046
62877W        W24243  31.127  14.759  12.870
62878W        W24244   0.309   4.364  10.901
62879W        W24245  43.271  25.072   5.293
62880W        W24246  30.029  24.141   1.312
62881W        W24247  22.042  35.603  11.598
62882W        W24248  36.905  11.204  12.471
62883W        W24249   2.369  24.135   1.932
62884W        W24250  33.904  27.075   3.164
62885W        W24251  26.640   0.874  11.392
62886W        W24252  28.491  16.202   3.701
62887W        W24253  25.626  39.899   0.428
62888W        W24254  30.593  17.612  11.509
62889W        W24255   9.730  41.916  13.826
62890W        W24256   4.845  20.090   3.353
62891W        W24257  20.248  17.149  10.533
62892W        W24258   9.331  11.817  10.061
62893W        W24259  38.950  21.715   1.236
62894W        W24260   6.400  18.669   1.221
62895W        W24261  34.048   2.967  13.870
62896W        W24262  39.851  22.198   3.852
62897W        W24263  12.199  40.904  14.304
62898W        W24264  21.602  18.589   3.671
62899W        W24265  18.270   7.864  11.394
62900W        W24266   8.801  25.131  10.405
62901W        W24267  39.826  38.406  14.962
62902W        W24268  41.006   6.817   4.311
62903W        W24269  21.117  44.872   0.431
62904W        W24270  36.391  26.694   3.774
62905W        W24271  19.192  40.510   2.224
62906W        W24272  12.259  32.064   0.911
62907W        W24273  39.525  31.076   3.858
62908W        W24274  19.546  26.088   2.323
62909W        W24275  15.225  15.669  14.487
62910W        W24276  36.419  29.085  10.142
62911W        W24277   3.365  12.142  13.437
62912W        W24278  37.913  25.644   4.221
62913W        W24279  40.870  41.385   2.331
62914W        W24280  43.282  26.952  14.794
62915W        W24281   8.178  37.050   2.393
62916W        W24282  41.022  15.226  13.921
62917W        W24283   5.321   6.739  10.133
62918W        W24284  25.577   3.760  12.392
62919W        W24285   6.349  44.382   0.482
62920W        W24286   1.864  42.887  12.527
62921W        W24287  15.125  37.973  11.508
62922W        W24288  15.160   5.199  11.406
62923W        W24289  40.869  28.548   2.385
62924W        W24290  40.512   4.920  10.054
62925W        W24291  29.527  38.966   0.371
62926W        W24292   9.348  25.660  14.997
62927W        W24293  30.523   9.879  12.464
62928W        W24294  14.759  17.706   3.746
62929W        W24295  42.777   9.367  14.363
62930W        W24296  43.867  26.199  13.464
62931W        W24297  31.641  40.040  12.033
62932W        W24298   6.716  29.030   1.833
62933W        W24299  30.483  25.479   3.747
62934W        W24300  42.387  11.262   3.274
62935W        W24301   2.424  13.669   3.760
62936W        W24302   1.276  27.051   4.728
62937W        W24303   6.709  33.465  13.524
62938W        W24304  14.177   3.907  13.917
62939W        W24305   7.716  21.259  11.925
62940W        W24306  40.365  33.496   2.412
62941W        W24307  40.856   4.744   2.367
62942W        W24308  39.462   0.941  13.059
62943W        W24309   9.262  26.951  12.841
62944W        W24310  34.402  16.606   0.728
62945W        W24311  21.227  42.893  14.011
62946W        W24312  19.145  38.867  13.874
62947W        W24313   6.380  17.220   2.189
62948W        W24314  14.118  41.367   1.327
62949W        W24315  26.561   3.871   0.765
62950W        W24316  15.264   4.789  12.933
62951W        W24317  30.445   1.969   0.458
62952W        W24318   0.862   6.375  11.553
62953W        W24319  32.991  14.663   0.787
62954W        W24320  28.454  40.938  14.989
62955W        W24321  35.398  35.973   4.331
62956W        W24322   8.786   4.849  14.984
62957W        W24323  30.415  37.914  12.060
62958W        W24324  44.360  11.682   1.778
62959W        W24325   4.231  17.644  12.944
62960W        W24326  11.236  36.946  11.912
62961W        W24327  19.142  26.609   2.810
62962W        W24328  12.126  26.952  11.899
62963W        W24329  43.012  33.961  11.608
62964W        W24330  38.531  44.272  12.001
62965W        W24331  43.326   8.763   3.236
62966W        W24332  25.699  44.830  12.863
62967W        W24333  43.499  42.898   2.406
62968W        W24334   1.399  41.528  14.470
62969W        W24335   9.762  33.564  14.431
62970W        W24336   1.819   6.876  11.596
62971W        W24337   7.876  18.216  14.409
62972W        W24338  26.022   9.753   4.756
62973W        W24339  23.232   3.812   3.328
62974W        W24340  27.153  40.334   0.420
62975W        W24341  34.114  13.774  14.488
62976W        W24342   1.265  34.429   2.315
62977W        W24343  16.165  12.794   0.801
62978W        W24344  39.010   0.931  13.438
62979W        W24345   6.298   2.938   0.434
62980W        W24346  37.507  30.081   4.137
62981W        W24347  15.750  31.058   0.759
62982W        W24348  15.705  18.107  10.639
62983W        W24349  28.541   1.887   2.344
62984W        W24350  10.812  44.495  14.800
62985W        W24351  17.572  37.551  11.114
62986W        W24352  43.510  43.336  10.625
62987W        W24353  13.143  17.151   2.849
62988W        W24354  23.641  27.556  14.772
62989W        W24355   3.823  31.584  13.031
62990W        W24356  10.284   7.721  12.553
62991W        W24357  39.960  18.678  13.510
62992W        W24358   1.291   0.750   1.758
62993W        W24359  26.078  36.024  10.993
62994W        W24360  39.934  41.425   1.334
62995W        W24361  39.867   6.399  14.361
62996W        W24362  36.576  12.335   0.459
62997W        W24363   0.959  29.145   2.811
62998W        W24364  32.537  32.433  13.949
62999W        W24365  10.773  18.650   4.271
63000W        W24366  41.802   6.790  13.545
63001W        W24367  43.405  15.632  13.920
63002W        W24368  25.078  40.803   1.752
63003W        W24369  18.134  13.215  13.016
63004W        W24370  38.480  25.537  13.053
63005W        W24371  13.664  25.006  10.907
63006W        W24372  25.524  27.486   0.261
63007W        W24373  34.376  42.967  14.839
63008W        W24374  37.836  11.723  12.072
63009W        W24375  16.738  29.557  12.349
63010W        W24376  33.496   6.789  14.761
63011W        W24377   8.312  15.313   0.364
63012W        W24378  42.520  42.780  11.906
63013W        W24379   9.722  30.989   4.318
63014W        W24380  44.857  18.709   0.302
63015W        W24381   6.705  29.946  14.897
63016W        W24382  43.806  23.069  11.416
63017W        W24383  31.431  42.001   0.413
63018W        W24384  44.766  21.599   0.472
63019W        W24385   2.820  34.994  12.539
63020W        W24386  22.104  22.608   3.208
63021W        W24387  39.049  43.784  10.511
63022W        W24388  21.021  35.444  12.408
63023W        W24389   4.725  21.056  10.427
63024W        W24390  32.477  31.491   4.307
63025W        W24391  14.123  19.609   3.155
63026W        W24392  23.199  16.250   0.894
63027W        W24393  28.530  35.020  13.931
63028W        W24394   5.773   2.409   2.315
63029W        W24395  38.460  13.616  10.506
63030W        W24396  20.207  15.277   3.698
63031W        W24397  10.333   5.777  12.392
63032W        W24398  34.384  34.090  14.396
63033W        W24399  42.419  14.785   2.830
63034W        W24400  30.597  23.510   3.263
63035W        W24401  44.988  16.239   3.150
63036W        W24402  20.660  27.058  10.475
63037W        W24403  18.724  31.072   1.887
63038W        W24404  11.134  20.607  13.871
63039W        W24405   5.737  24.986   2.278
63040W        W24406  28.479  24.529   1.221
63041W        W24407  12.291  38.530   2.205
63042W        W24408   6.771  19.673   0.459
63043W        W24409   2.372  41.971  14.506
63044W        W24410  11.745  37.519  11.962
63045W        W24411  11.784  28.184   1.697
63046W        W24412  21.746  43.478  14.394
63047W        W24413  34.434   0.934   1.369
63048W        W24414  37.877  23.567   5.084
63049W        W24415  43.850  17.725  10.605
63050W        W24416   4.432  34.931   2.366
63051W        W24417  26.995  29.599   3.223
63052W        W24418  20.614   9.672  13.958
63053W        W24419  27.947   1.449  11.464
63054W        W24420  24.502  22.742   4.227
63055W        W24421  41.034  20.237  14.286
63056W        W24422  38.003  27.680  14.857
63057W        W24423  22.584   6.204  11.950
63058W        W24424  15.310  41.980  12.432
63059W        W24425   2.241  31.413  11.878
63060W        W24426  26.544  27.551   3.327
63061W        W24427   3.800  33.944   0.748
63062W        W24428  28.182  39.404  11.095
63063W        W24429   3.240  42.327   0.343
63064W        W24430  37.038  10.653  14.933
63065W        W24431  43.014  27.063   0.827
63066W        W24432  42.806  34.403  11.508
63067W        W24433  12.343  16.631  13.885
63068W        W24434  32.631  27.044   0.856
63069W        W24435  40.902   9.774  12.878
63070W        W24436   3.881  14.765   4.211
63071W        W24437  26.095  20.651  12.426
63072W        W24438   9.809  38.038  11.473
63073W        W24439  39.485  38.544   3.250
63074W        W24440   2.815  13.815  12.496
63075W        W24441   6.684  26.619  14.971
63076W        W24442  33.475  10.707   3.791
63077W        W24443  39.811  11.729  13.950
63078W        W24444  44.931  10.803  14.811
63079W        W24445  15.171  42.811   2.398
63080W        W24446  29.642  29.571  14.988
63081W        W24447  43.864  43.962   1.300
63082W        W24448  24.212  33.067  14.900
63083W        W24449  26.180   6.385  13.908
63084W        W24450  23.237  36.457   0.306
63085W        W24451  17.798  38.510  14.782
63086W        W24452  33.456  22.215  13.466
63087W        W24453  37.886   5.927  10.542
63088W        W24454  21.547  22.646  12.389
63089W        W24455  41.971  17.583  11.068
63090W        W24456  32.582  37.581   2.668
63091W        W24457  31.898  41.345   1.713
63092W        W24458  27.100  23.533   2.400
63093W        W24459  30.116  28.491  10.421
63094W        W24460   6.732  44.835  14.894
63095W        W24461   4.386  12.214   0.761
63096W        W24462  31.942  26.482  11.562
63097W        W24463   5.861  24.091  13.837
63098W        W24464  34.449  16.686  10.527
63099W        W24465   9.274  24.681  11.012
63100W        W24466   8.344  33.383  12.526
63101W        W24467  24.493  18.192   3.255
63102W        W24468  30.491   6.757  13.884
63103W        W24469  19.747   9.829   2.254
63104W        W24470  23.560  23.092  12.379
63105W        W24471   9.239  25.212  12.826
63106W        W24472  20.591  24.535  11.856
63107W        W24473  22.706  36.357   1.221
63108W        W24474  39.975  37.020   1.309
63109W        W24475  33.588  43.482   0.773
63110W        W24476  38.531  28.979   0.397
63111W        W24477  32.561  34.067  14.490
63112W        W24478   5.765  17.286   0.751
63113W        W24479  19.278   0.384  12.858
63114W        W24480  20.748  37.878  11.053
63115W        W24481  16.270  22.534  10.612
63116W        W24482   1.302  16.625  14.027
63117W        W24483   9.307  34.415   1.729
63118W        W24484  42.309   7.796   4.824
63119W        W24485  35.563  18.143  11.032
63120W        W24486  25.038  22.650   0.847
63121W        W24487   9.244  24.143   1.789
63122W        W24488  27.519  40.412  10.938
63123W        W24489  43.940   4.898   0.469
63124W        W24490  38.012  23.704  10.414
63125W        W24491  42.992  10.833  12.073
63126W        W24492  41.401  28.136   2.243
63127W        W24493  38.011   6.406   0.938
63128W        W24494   6.848   7.871  14.017
63129W        W24495  12.802  11.634   3.226
63130W        W24496  13.266  20.543   0.403
63131W        W24497  37.339  15.133   3.343
63132W        W24498   5.439  23.702   1.884
63133W        W24499  17.573  19.616   3.286
63134W        W24500   9.805   2.858   1.884
63135W        W24501  13.186  16.655  13.316
63136W        W24502  38.928  20.649   1.444
63137W        W24503  33.552   5.882  13.898
63138W        W24504  22.529  33.996  12.467
63139W        W24505  28.593   1.897  12.086
63140W        W24506  17.087  33.122   2.340
63141W        W24507   1.836  15.313  11.439
63142W        W24508   5.690  33.454   4.167
63143W        W24509  30.595  38.556   2.884
63144W        W24510   1.971  32.469   1.914
63145W        W24511  35.455  18.173  13.372
63146W        W24512   1.260  23.154  11.866
63147W        W24513  33.565  12.820  10.939
63148W        W24514  26.966  17.559  12.042
63149W        W24515  27.630   6.192  11.501
63150W        W24516  19.079   6.809   4.315
63151W        W24517  40.934   8.310  12.406
63152W        W24518  12.619   9.159  13.051
63153W        W24519  38.326  13.217   4.708
63154W        W24520  13.611  15.713  10.951
63155W        W24521   7.244  38.866   3.217
63156W        W24522   9.328  43.796   1.362
63157W        W24523  27.458   5.282   9.608
63158W        W24524  42.500  30.520  12.382
63159W        W24525  27.980  30.948  13.540
63160W        W24526   6.427  30.417  10.914
63161W        W24527   1.313  42.433  11.395
63162W        W24528  28.967  37.346  12.372
63163W        W24529  42.984  26.040   1.753
63164W        W24530  19.203  14.107  13.443
63165W        W24531   2.777  29.086   2.699
63166W        W24532  29.532  38.878  14.316
63167W        W24533  42.508   7.384   3.202
63168W        W24534  30.520   8.668  13.907
63169W        W24535  27.578  37.993   3.830
63170W        W24536  27.473   9.252   0.433
63171W        W24537  40.927   0.332   0.947
63172W        W24538  22.521  36.843   5.088
63173W        W24539  18.063  38.416  11.429
63174W        W24540  10.283  27.148  11.025
63175W        W24541   1.783  26.504   3.804
63176W        W24542  10.649  32.553   1.220
63177W        W24543  22.998  44.490   3.380
63178W        W24544  27.943  18.205  14.410
63179W        W24545  36.079  35.370  13.531
63180W        W24546  32.535  25.579  11.028
63181W        W24547   3.732  35.936  12.070
63182W        W24548  32.104   2.269   3.236
63183W        W24549  12.689   2.369  12.444
63184W        W24550  36.965  25.993   3.630
63185W        W24551  25.081  40.033   3.307
63186W        W24552  34.585  27.557   2.878
63187W        W24553  33.406  13.761   3.660
63188W        W24554  37.436   2.471  10.974
63189W        W24555  35.578   2.368  13.520
63190W        W24556  33.410  21.601   4.164
63191W        W24557  13.696  24.547  14.389
63192W        W24558  24.071  27.111   2.413
63193W        W24559   0.342  30.970   0.775
63194W        W24560  19.610  19.576  10.480
63195W        W24561   1.432   4.914   3.211
63196W        W24562  35.052  34.116  14.371
63197W        W24563  33.925  13.734   0.388
63198W        W24564  43.327  12.214   1.717
63199W        W24565   2.942  19.666  13.797
63200W        W24566  17.149   3.796   2.384
63201W        W24567  17.104  10.865  14.382
63202W        W24568   7.299  40.952   1.892
63203W        W24569  36.522  28.990  11.111
63204W        W24570  26.952  36.922  12.523
63205W        W24571  35.868   8.388   3.835
63206W        W24572   7.836  38.347  14.907
63207W        W24573  10.716   9.793   3.814
63208W        W24574  44.836  17.725   1.799
63209W        W24575   3.771   7.187  11.601
63210W        W24576  18.289  22.666  14.881
63211W        W24577  18.201  19.223   2.819
63212W        W24578   5.716  22.697  13.405
63213W        W24579  40.527  13.735  14.892
63214W        W24580  15.803  17.762  13.014
63215W        W24581  22.235  18.097  12.573
63216W        W24582   8.336  17.098  11.110
63217W        W24583  28.623   0.323  11.525
63218W        W24584  19.595  27.640  12.070
63219W        W24585  22.179  26.561   4.631
63220W        W24586  10.838  35.445  11.454
63221W        W24587  17.573   1.466  14.437
63222W        W24588  22.230  40.448  13.967
63223W        W24589   9.647   9.889   0.409
63224W        W24590  34.531  30.563  12.887
63225W        W24591  41.502  18.606   0.290
63226W        W24592  31.563  44.894  12.566
63227W        W24593   6.290  18.714   4.322
63228W        W24594   3.245  19.661   2.359
63229W        W24595  24.585  19.146  14.410
63230W        W24596   1.384  10.877  12.032
63231W        W24597  20.608  16.132   3.176
63232W        W24598  32.532   2.268   1.824
63233W        W24599  16.750  41.442   3.292
63234W        W24600  41.899  15.178  14.385
63235W        W24601  34.953  31.901   4.721
63236W        W24602   9.806  21.146   0.875
63237W        W24603   2.341  10.704   4.288
63238W        W24604  25.591   4.910   5.258
63239W        W24605  26.056  15.213  13.023
63240W        W24606   3.259  39.424   2.722
63241W        W24607  41.035  34.938  10.531
63242W        W24608  36.909  31.139  10.643
63243W        W24609  39.821  31.487   3.353
63244W        W24610  34.378  29.552   0.763
63245W        W24611  33.393  27.035  13.362
63246W        W24612  26.065   1.419  11.526
63247W        W24613  15.772  31.988  11.074
63248W        W24614   0.765  38.016   1.719
63249W        W24615  31.499  14.294   3.190
63250W        W24616  17.645  20.112   3.171
63251W        W24617  40.037  17.564   3.288
63252W        W24618   4.845  29.160   3.643
63253W        W24619  38.379  25.631   0.915
63254W        W24620   8.283  31.057   3.359
63255W        W24621  11.334  28.964   2.808
63256W        W24622   1.782  25.100  12.065
63257W        W24623  26.208  11.322   4.774
63258W        W24624   0.447  32.580   0.383
63259W        W24625  38.554  36.537   3.659
63260W        W24626  15.701   9.166  13.970
63261W        W24627  44.901  25.506   2.243
63262W        W24628  29.022  29.598   3.823
63263W        W24629   2.254  33.513  13.946
63264W        W24630  31.151  42.979  14.468
63265W        W24631  12.123  17.127  12.945
63266W        W24632  36.886  43.956  11.426
63267W        W24633  20.526  20.530  14.877
63268W        W24634  35.863  13.818  12.452
63269W        W24635  22.078  28.528  14.339
63270W        W24636  39.555  44.485   2.864
63271W        W24637   8.685  18.678   0.451
63272W        W24638  28.978  37.002  11.537
63273W        W24639  39.841  14.293  11.918
63274W        W24640   3.755  25.572   4.297
63275W        W24641   9.649  11.297   3.779
63276W        W24642  32.135   3.896   1.418
63277W        W24643  31.968  22.716  14.509
63278W        W24644  29.629   1.973   2.667
63279W        W24645  23.586  12.198   0.426
63280W        W24646  41.867  10.193  12.935
63281W        W24647  19.563  14.595  10.984
63282W        W24648  25.540   9.238  12.379
63283W        W24649   3.333  36.085  11.581
63284W        W24650  38.384  25.067   1.357
63285W        W24651  28.141  41.492   1.269
63286W        W24652  33.921  43.911  12.473
63287W        W24653   4.387  30.134  10.566
63288W        W24654  22.251  21.220   2.257
63289W        W24655  24.135  25.142   3.196
63290W        W24656  27.671  18.753   4.733
63291W        W24657   6.248  11.844   1.431
63292W        W24658  44.923  30.456  14.463
63293W        W24659  12.274  11.821   4.147
63294W        W24660   6.824   6.281   5.775
63295W        W24661   7.290  22.175  11.005
63296W        W24662  40.478  13.655   1.306
63297W        W24663  11.184  44.869  13.412
63298W        W24664  29.525  39.354   3.228
63299W        W24665  29.133  28.053   5.260
63300W        W24666   9.338  17.272  14.860
63301W        W24667  15.609  12.296  11.537
63302W        W24668   9.149  14.640   1.800
63303W        W24669  40.998  14.664  14.949
63304W        W24670  36.471   7.247  13.380
63305W        W24671  32.423  24.525   4.340
63306W        W24672  15.305  33.882  12.917
63307W        W24673  35.939  23.503  12.499
63308W        W24674  16.279   7.398   3.840
63309W        W24675   1.385  26.140  14.768
63310W        W24676  29.548  24.177   3.366
63311W        W24677  34.026  33.110   0.343
63312W        W24678  12.665   7.698  13.896
63313W        W24679  33.895  39.014   0.882
63314W        W24680   8.706  14.722   1.360
63315W        W24681  39.832  23.021  13.373
63316W        W24682   7.744  17.765   2.853
63317W        W24683  37.419   3.904  14.022
63318W        W24684  43.443  21.590  11.943
63319W        W24685  20.760  28.111   1.825
63320W        W24686   7.331   9.275  10.428
63321W        W24687  19.557  39.900  14.959
63322W        W24688  37.047  23.496  13.362
63323W        W24689  35.482  11.198  14.403
63324W        W24690  18.272  35.370  11.057
63325W        W24691  28.020   6.735  11.974
63326W        W24692  40.412  29.523  13.335
63327W        W24693  30.934  36.575  10.936
63328W        W24694  12.682  23.059   1.862
63329W        W24695  37.841  33.521   2.218
63330W        W24696  26.991   9.154   3.808
63331W        W24697  23.497  19.040   3.787
63332W        W24698  26.988  12.162  10.414
63333W        W24699   2.418   9.251  13.462
63334W        W24700  12.636  25.203   4.615
63335W        W24701  38.834   7.230  12.581
63336W        W24702   5.331  36.509  13.810
63337W        W24703  23.662   0.475  14.878
63338W        W24704  18.210  32.013  14.412
63339W        W24705  27.945  21.512  14.374
63340W        W24706  20.736  42.930   4.151
63341W        W24707  40.816  39.840   3.768
63342W        W24708  24.120  39.978  14.505
63343W        W24709   3.323  39.346  12.376
63344W        W24710  35.102  14.194  13.505
63345W        W24711  43.966  21.566  10.589
63346W        W24712  30.061  38.885   3.763
63347W        W24713  15.703  21.619   4.312
63348W        W24714  11.292   9.742  12.920
63349W        W24715  30.539  18.086  11.492
63350W        W24716   5.734  26.069   4.211
63351W        W24717  18.131  15.233   3.735
63352W        W24718  11.264  23.515  14.354
63353W        W24719   8.212  17.639  13.531
63354W        W24720  38.497   8.667  12.571
63355W        W24721  43.826  17.702   2.316
63356W        W24722  43.794  28.562   5.244
63357W        W24723  14.759  24.153   2.314
63358W        W24724  38.502  34.042   3.343
63359W        W24725  12.618  20.755   3.695
63360W        W24726  22.009   4.785  10.115
63361W        W24727  30.504  17.800  14.912
63362W        W24728  23.011   6.324   2.861
63363W        W24729   0.978  22.554  11.571
63364W        W24730   6.864  13.686  13.471
63365W        W24731  44.853   9.232  13.397
63366W        W24732  42.993  28.512  12.855
63367W        W24733  21.671  33.623   3.346
63368W        W24734  19.081  42.511   2.889
63369W        W24735  27.501  35.073  14.883
63370W        W24736  20.238  13.171  12.485
63371W        W24737   0.432  25.650   0.955
63372W        W24738  34.533   2.472   2.209
63373W        W24739  10.638  38.979   1.771
63374W        W24740  35.496  38.347   4.706
63375W        W24741  27.179  14.155   0.847
63376W        W24742  10.322  20.175  12.956
63377W        W24743  28.114  14.138  11.922
63378W        W24744  44.496  27.646   3.206
63379W        W24745  14.826  44.384  13.974
63380W        W24746   5.305  19.142  11.417
63381W        W24747  32.979   7.239   0.829
63382W        W24748  26.087   1.459   1.932
63383W        W24749  22.018   3.294  12.891
63384W        W24750  43.505  13.248   2.783
63385W        W24751  38.945  22.114  11.061
63386W        W24752  33.458  23.042  11.378
63387W        W24753   5.261  29.483   2.765
63388W        W24754  27.593  41.294   2.286
63389W        W24755  16.601  39.458   3.811
63390W        W24756  32.494  10.798   1.876
63391W        W24757  18.783  23.731   3.155
63392W        W24758  34.549   2.869   4.607
63393W        W24759   8.266  13.716  14.329
63394W        W24760  41.359  30.966   4.681
63395W        W24761  12.183  23.542   4.707
63396W        W24762   1.479  26.640   1.336
63397W        W24763   0.265  44.878  13.809
63398W        W24764  26.978  37.377   1.858
63399W        W24765  38.972  10.173   0.336
63400W        W24766   0.765  21.639  11.082
63401W        W24767  11.157  33.090  10.923
63402W        W24768  31.066  40.029   9.945
63403W        W24769  24.063  20.212  12.078
63404W        W24770  27.094  29.116  12.550
63405W        W24771  37.037  36.379  12.032
63406W        W24772  37.967  20.660  14.948
63407W        W24773   3.855  19.593  13.339
63408W        W24774  27.567   3.929  10.626
63409W        W24775  28.176  31.546   5.096
63410W        W24776  40.396  14.124  11.590
63411W        W24777  10.751   5.237  13.363
63412W        W24778  42.442   7.403   2.673
63413W        W24779  44.980  21.680   3.176
63414W        W24780   4.927  38.338   9.932
63415W        W24781  13.603   6.842   3.192
63416W        W24782  21.583  28.154   2.791
63417W        W24783  13.651   7.737   4.219
63418W        W24784  30.650  15.667   4.187
63419W        W24785  44.449   0.395  13.391
63420W        W24786  29.481  37.859  10.519
63421W        W24787   1.891  36.445  10.487
63422W        W24788  11.790  24.058  13.979
63423W        W24789  25.705   9.207   1.412
63424W        W24790  27.942  42.335  10.446
63425W        W24791   8.353   4.294   1.299
63426W        W24792   3.914  22.244  12.499
63427W        W24793  15.734  12.683  13.887
63428W        W24794  42.826  30.027   1.844
63429W        W24795  39.480  26.104   1.795
63430W        W24796  11.331   6.227   0.483
63431W        W24797  34.612  10.843  10.544
63432W        W24798  14.664  17.160  13.436
63433W        W24799   2.898  33.945   2.728
63434W        W24800  22.572  41.909  13.846
63435W        W24801   0.829   1.412   3.728
63436W        W24802  23.575  42.945   3.333
63437W        W24803  42.031  19.722   1.337
63438W        W24804  38.486  40.543  13.798
63439W        W24805  43.984   1.797  13.830
63440W        W24806  42.941  21.523   0.902
63441W        W24807  15.711   3.233  10.943
63442W        W24808   3.260   7.368   4.604
63443W        W24809  13.131  30.451   1.384
63444W        W24810  11.736  29.035  14.873
63445W        W24811  12.753  39.905  12.082
63446W        W24812  33.993  41.382  11.005
63447W        W24813   8.276  44.871  10.421
63448W        W24814  20.656  22.010   2.777
63449W        W24815  13.608  31.112   1.431
63450W        W24816  17.113   9.759   1.382
63451W        W24817   8.238  21.518   1.864
63452W        W24818  21.070   0.479   0.274
63453W        W24819   9.391  13.188   4.653
63454W        W24820  30.435  33.475  11.407
63455W        W24821  20.132  35.390   9.973
63456W        W24822  25.177   7.406   0.317
63457W        W24823  14.826  23.529   4.626
63458W        W24824  20.272  32.101  10.949
63459W        W24825  14.648  23.597  12.953
63460W        W24826  17.601   7.283   1.397
63461W        W24827  37.373  22.656  13.034
63462W        W24828   0.385   1.817  13.985
63463W        W24829  29.156  23.552  11.096
63464W        W24830  19.556  35.563  11.005
63465W        W24831  34.592  12.186   0.375
63466W        W24832   9.340  17.681  13.955
63467W        W24833  17.648  43.960   4.130
63468W        W24834  28.552  26.053  13.341
63469W        W24835  10.236  26.587   1.309
63470W        W24836  13.282   0.790  13.419
63471W        W24837  23.123  36.900  10.969
63472W        W24838  30.083  30.457   4.657
63473W        W24839  16.207  16.715   9.528
63474W        W24840  19.628   1.774  13.533
63475W        W24841  28.473  11.736   4.606
63476W        W24842  33.620  26.171   2.840
63477W        W24843   1.913  32.035  11.119
63478W        W24844  19.243   1.252  10.525
63479W        W24845   0.871  33.616   4.671
63480W        W24846   2.923  42.779  10.475
63481W        W24847   4.313   2.258  11.578
63482W        W24848  25.048  33.092   0.817
63483W        W24849   7.187  23.204   0.948
63484W        W24850   0.949  42.998  14.308
63485W        W24851   0.947  43.800   1.787
63486W        W24852  23.611  19.544   2.230
63487W        W24853  16.253  20.082   0.845
63488W        W24854  25.048   9.835   1.825
63489W        W24855   7.302   2.379  14.022
63490W        W24856  35.057  10.298   5.221
63491W        W24857  44.322  43.383  12.955
63492W        W24858   2.761  18.684  14.360
63493W        W24859  17.066  35.468   0.941
63494W        W24860  18.079  15.727   0.824
63495W        W24861  38.455  15.253  14.323
63496W        W24862  16.271  29.652   0.747
63497W        W24863  41.296  42.384   1.729
63498W        W24864   5.867  31.001  10.568
63499W        W24865  40.941  16.625   2.236
63500W        W24866  15.710  11.738   1.269
63501W        W24867   3.443  44.930  13.352
63502W        W24868   3.799   2.369   2.410
63503W        W24869   1.827  10.659  12.004
63504W        W24870  21.657  37.504   3.738
63505W        W24871   6.700  43.430  11.921
63506W        W24872   6.406  14.283   2.185
63507W        W24873  24.083  33.879   1.881
63508W        W24874  25.067  43.885   2.863
63509W        W24875   3.893  14.701   1.734
63510W        W24876  31.920   5.917  13.534
63511W        W24877  38.351  34.614  11.036
63512W        W24878  44.299  24.494   3.328
63513W        W24879  30.628   5.394  13.844
63514W        W24880  27.139  33.952  14.348
63515W        W24881  21.114   0.845   4.650
63516W        W24882  28.996  24.004   1.406
63517W        W24883  39.502  35.369   1.720
63518W        W24884  27.586   8.260   2.768
63519W        W24885  31.573  29.056   0.791
63520W        W24886   1.773  16.313   1.398
63521W        W24887  11.625  29.169  10.007
63522W        W24888  26.506  15.117  13.516
63523W        W24889  15.733  20.140   4.755
63524W        W24890   0.376  30.542  12.438
63525W        W24891  14.799  27.487   4.797
63526W        W24892  22.143  28.957  11.118
63527W        W24893  29.641  24.090  12.046
63528W        W24894  27.561  12.764  13.001
63529W        W24895  11.361   6.342   3.205
63530W        W24896  27.173  31.607   1.748
63531W        W24897  15.314   0.440   2.667
63532W        W24898  40.045   4.305   3.334
63533W        W24899   5.395  17.198  10.599
63534W        W24900  30.992   9.291   0.752
63535W        W24901  36.519  37.851   4.628
63536W        W24902   4.869  18.063  12.578
63537W        W24903  11.301  26.683   1.875
63538W        W24904   4.932  20.248  13.961
63539W        W24905   1.972  19.149   0.354
63540W        W24906  18.098   8.401  10.909
63541W        W24907  42.775   7.381   2.878
63542W        W24908   2.916  25.507  12.486
63543W        W24909  24.137  20.133   2.890
63544W        W24910  30.148  13.289   4.223
63545W        W24911  15.167  33.888  12.033
63546W        W24912  37.493   8.732   0.860
63547W        W24913   3.452  36.018  14.492
63548W        W24914  11.840  40.535   4.625
63549W        W24915   5.880  37.937   0.953
63550W        W24916  34.508  15.579  12.994
63551W        W24917  27.085  39.353  14.284
63552W        W24918  34.384  15.777   3.814
63553W        W24919  34.553  22.162   3.239
63554W        W24920  32.573  42.863   0.795
63555W        W24921   6.775   0.985  14.916
63556W        W24922   8.720  44.862   1.336
63557W        W24923  17.215   5.429   4.732
63558W        W24924  37.915   1.738   1.836
63559W        W24925  23.658  35.933   3.240
63560W        W24926  11.700  31.129  13.403
63561W        W24927  38.354  28.087  13.485
63562W        W24928  39.830  24.215  12.385
63563W        W24929  31.074  21.136  14.943
63564W        W24930  23.033  41.503  12.354
63565W        W24931  27.596  31.945   1.312
63566W        W24932   8.862  11.312  12.561
63567W        W24933  21.693  44.372   3.146
63568W        W24934  36.492  20.557  13.408
63569W        W24935   8.796   4.871  13.009
63570W        W24936  39.413  31.534   0.922
63571W        W24937  10.191  28.102   3.686
63572W        W24938   5.294  20.658  14.011
63573W        W24939  16.572   2.873  14.480
63574W        W24940  23.032   4.747  12.558
63575W        W24941   4.377   7.818   1.322
63576W        W24942  14.219  31.152  13.407
63577W        W24943   8.274   2.376   0.413
63578W        W24944  11.760   7.284  11.856
63579W        W24945  44.821  39.021  13.337
63580W        W24946   2.420  28.157   0.333
63581W        W24947  21.188  19.057  11.914
63582W        W24948  17.653  10.174   3.765
63583W        W24949  22.067  33.029   0.757
63584W        W24950   3.804   2.378   0.387
63585W        W24951  27.146  12.617   2.305
63586W        W24952  31.917  12.321   3.304
63587W        W24953  15.812  20.088   0.267
63588W        W24954  35.985  18.712   4.305
63589W        W24955  15.118  17.303  13.359
63590W        W24956  19.635  13.834   2.710
63591W        W24957  42.425  25.215   1.881
63592W        W24958  42.032   3.860  11.475
63593W        W24959  32.589   4.764  13.312
63594W        W24960  43.496  40.424  12.912
63595W        W24961  37.500   9.762   3.190
63596W        W24962  12.725  22.501  14.499
63597W        W24963  11.156  15.160  14.981
63598W        W24964  29.106   5.327  12.546
63599W        W24965  17.219  40.530   2.231
63600W        W24966  26.977  33.461  13.799
63601W        W24967   5.302   5.706   1.311
63602W        W24968  38.522  17.616   3.640
63603W        W24969   8.769  36.903  13.425
63604W        W24970  14.096   9.206   3.286
63605W        W24971  15.324  36.429  14.953
63606W        W24972   7.756  12.219   2.309
63607W        W24973   6.331  12.715  13.956
63608W        W24974  21.141  21.026  11.527
63609W        W24975   6.397  28.152   0.269
63610W        W24976  18.758  22.187  10.066
63611W        W24977  35.084   1.302  14.305
63612W        W24978  27.104  11.196  13.911
63613W        W24979  43.911  20.131  13.499
63614W        W24980  35.100  10.197   1.242
63615W        W24981  39.875  40.523   4.139
63616W        W24982  10.780  12.187   3.203
63617W        W24983  18.084   1.972  13.033
63618W        W24984   7.297  31.469   3.664
63619W        W24985   1.313  44.755  14.877
63620W        W24986   8.747  21.221  13.453
63621W        W24987  14.714  22.648  10.517
63622W        W24988  26.136  29.666   4.764
63623W        W24989  27.005  41.967  13.538
63624W        W24990   8.715   0.979   2.293
63625W        W24991  25.602   8.759   2.297
63626W        W24992  29.068  43.007   0.840
63627W        W24993   1.354   8.181  10.903
63628W        W24994  28.933  35.547  12.924
63629W        W24995  31.520   1.457   3.757
63630W        W24996  41.971  12.312   1.749
63631W        W24997  11.231  37.059   2.412
63632W        W24998  17.654  16.770   0.803
63633W        W24999  14.141  35.472   4.295
63634W        W25000  34.027  22.232  12.993
63635W        W25001  15.101  42.435   0.292
63636W        W25002  24.721  42.499  11.003
63637W        W25003   1.449  27.122  12.465
63638W        W25004   8.721   2.801  14.004
63639W        W25005  22.144  42.451  12.873
63640W        W25006  38.982  33.382  13.986
63641W        W25007  42.475   2.746  14.986
63642W        W25008  44.898  35.445  12.835
63643W        W25009  40.847  23.724  12.828
63644W        W25010  37.863  27.521   4.170
63645W        W25011   5.857  28.444   2.875
63646W        W25012   7.410  33.991  10.949
63647W        W25013  30.481   0.349   4.239
63648W        W25014  38.453  25.058  12.903
63649W        W25015  43.975  39.937   0.463
63650W        W25016   5.797  13.646   3.693
63651W        W25017  13.681   8.208  13.437
63652W        W25018  19.151  25.136   2.237
63653W        W25019   1.451  25.696   5.128
63654W        W25020  12.222  36.868   1.839
63655W        W25021  20.237   0.822   2.208
63656W        W25022   9.846  22.708  11.954
63657W        W25023  11.271   3.812   3.856
63658W        W25024  25.135   0.838  14.848
63659W        W25025  31.019  11.361  10.417
63660W        W25026  23.084  19.176  14.378
63661W        W25027   4.209   1.251   0.292
63662W        W25028  21.587   3.955   2.348
63663W        W25029  14.638  26.144  14.919
63664W        W25030   9.290  25.983  13.413
63665W        W25031  17.711  41.390   1.342
63666W        W25032  10.756  13.144   4.765
63667W        W25033  43.883   5.193  14.416
63668W        W25034  16.635  16.125   0.321
63669W        W25035  34.971  31.524  13.931
63670W        W25036  12.328  37.366  11.540
63671W        W25037  36.922   6.221   3.214
63672W        W25038  29.561   0.899   1.236
63673W        W25039   4.787  27.542   2.821
63674W        W25040   5.357  42.433   1.905
63675W        W25041  25.200  23.104  11.879
63676W        W25042  30.140  44.338   4.289
63677W        W25043  19.595  14.272  13.828
63678W        W25044  24.088  35.431   0.271
63679W        W25045  31.045  26.961  11.887
63680W        W25046  11.175   6.735   3.832
63681W        W25047   8.397  43.821   0.328
63682W        W25048  12.261   2.287  14.790
63683W        W25049   2.406   0.926  11.502
63684W        W25050  27.453  21.745  12.934
63685W        W25051  31.113  20.125  10.973
63686W        W25052   2.932  30.485  12.485
63687W        W25053   7.181  10.697   0.463
63688W        W25054  41.297   6.330  13.851
63689W        W25055  27.477  37.488   3.171
63690W        W25056   0.985  43.818  12.091
63691W        W25057   5.381   4.318   3.687
63692W        W25058  31.458  20.102  13.466
63693W        W25059  21.174  25.048   4.627
63694W        W25060  28.111  18.266  12.852
63695W        W25061  28.130  24.982   4.290
63696W        W25062  12.179   5.930   4.810
63697W        W25063  39.039  34.438   5.306
63698W        W25064  11.183  12.727   4.285
63699W        W25065  14.241   5.878  14.805
63700W        W25066   2.388  19.194  12.548
63701W        W25067  18.765  33.494  12.059
63702W        W25068  12.136   8.674  12.478
63703W        W25069  14.762  39.950  10.628
63704W        W25070  43.894  10.169   3.858
63705W        W25071  15.652  29.648   2.830
63706W        W25072   4.311  28.073  14.992
63707W        W25073  11.289  12.246   1.445
63708W        W25074  29.466  42.829   2.372
63709W        W25075  17.773  42.839  14.485
63710W        W25076  32.046  14.608   0.763
63711W        W25077  42.020   7.719  14.992
63712W        W25078   3.449  33.578   4.145
63713W        W25079  13.795  30.619  14.467
63714W        W25080  23.675  32.460  11.049
63715W        W25081  29.494  24.127  11.062
63716W        W25082  12.714   2.952  10.574
63717W        W25083  11.795  44.373   1.407
63718W        W25084   2.264  22.034  13.904
63719W        W25085  24.724  44.935   4.828
63720W        W25086  20.739  41.904   3.770
63721W        W25087  44.967  35.358   1.746
63722W        W25088  40.305  44.475  14.433
63723W        W25089  41.019  44.414   0.285
63724W        W25090  30.432  28.559   1.287
63725W        W25091  10.355  38.072  14.761
63726W        W25092  18.227  28.036  13.966
63727W        W25093  40.439  39.859   4.762
63728W        W25094   9.785  43.964   4.701
63729W        W25095  10.708   6.694   3.707
63730W        W25096  13.823  27.628  11.000
63731W        W25097   2.433  44.007  14.457
63732W        W25098   2.313  16.115  13.955
63733W        W25099  18.715  22.512  14.305
63734W        W25100  37.459  24.222  12.852
63735W        W25101  40.045   1.768   1.290
63736W        W25102  24.500  15.083  10.472
63737W        W25103  18.095  27.168  14.400
63738W        W25104  16.728  23.196   4.335
63739W        W25105  23.701  44.796  11.549
63740W        W25106  13.630   4.439   3.758
63741W        W25107  24.564  10.262   3.193
63742W        W25108   9.382  15.232  11.587
63743W        W25109  40.997   2.280   2.235
63744W        W25110   5.918  42.869  13.471
63745W        W25111   2.406  11.624  14.005
63746W        W25112   2.774  44.904  11.475
63747W        W25113  24.022  43.883  11.928
63748W        W25114   7.775  39.938  14.503
63749W        W25115  21.708  23.069  14.879
63750W        W25116   9.761  13.152  10.639
63751W        W25117  18.788  33.052   1.703
63752W        W25118  34.867   5.699  14.031
63753W        W25119   8.660   9.827  12.434
63754W        W25120  10.657  10.185  13.064
63755W        W25121   6.738   5.829  11.920
63756W        W25122   1.401  25.103   1.807
63757W        W25123  24.020  32.116  11.998
63758W        W25124  31.906  37.044   1.694
63759W        W25125  28.115  10.380   3.159
63760W        W25126  25.487  37.950  11.402
63761W        W25127  26.981   6.732   4.339
63762W        W25128  14.330   3.410  11.608
63763W        W25129  38.507  28.183  11.862
63764W        W25130  20.206  34.106   2.691
63765W        W25131  28.085  19.590   3.653
63766W        W25132  41.979  36.091  11.098
63767W        W25133  24.044  15.115  14.868
63768W        W25134  36.933  39.972  13.920
63769W        W25135  35.586  35.437   2.335
63770W        W25136  20.085  37.364   0.966
63771W        W25137  27.055  10.153  10.627
63772W        W25138  22.224   4.878  11.040
63773W        W25139   4.744   2.395   5.694
63774W        W25140  42.947  28.121   4.113
63775W        W25141  16.716   2.377   4.798
63776W        W25142  23.012  17.625   1.218
63777W        W25143  32.118   6.689   4.645
63778W        W25144  19.541  43.901  11.404
63779W        W25145  39.889  22.184   1.740
63780W        W25146  25.521   8.695  12.062
63781W        W25147  23.571   6.866  12.872
63782W        W25148   1.441   8.386   0.835
63783W        W25149   5.290  18.658   1.345
63784W        W25150   4.817  36.942   1.905
63785W        W25151  38.933  25.557  12.989
63786W        W25152  43.841  10.190   4.763
63787W        W25153   0.866   5.376   2.296
63788W        W25154  25.168  15.677   1.719
63789W        W25155  23.149   3.458   1.368
63790W        W25156  43.881  12.736  10.470
63791W        W25157   9.887   7.757  13.387
63792W        W25158  43.990   2.895  12.494
63793W        W25159  42.959  35.465   4.756
63794W        W25160   8.378  10.349  12.831
63795W        W25161  30.486   3.405  14.014
63796W        W25162  29.954  35.991   0.373
63797W        W25163   3.401  29.469   2.288
63798W        W25164  30.077  24.507  11.011
63799W        W25165  36.455  15.313  11.520
63800W        W25166   9.852  28.632  10.425
63801W        W25167  17.119  25.507  12.361
63802W        W25168  36.994  22.613   4.346
63803W        W25169  21.753  10.329   2.401
63804W        W25170  32.495  18.565   0.472
63805W        W25171  34.554  26.194  14.793
63806W        W25172  13.158  24.684  12.469
63807W        W25173  33.580  42.805  12.393
63808W        W25174  35.444  23.163   1.706
63809W        W25175  12.702  42.992  12.036
63810W        W25176  13.281  35.930   1.227
63811W        W25177  38.522  38.890  14.512
63812W        W25178  16.106  36.444  13.889
63813W        W25179  33.117  10.876  14.003
63814W        W25180   0.845  13.742   3.641
63815W        W25181  41.367  37.489  11.584
63816W        W25182  38.357  39.026  11.976
63817W        W25183  16.773  27.105  12.497
63818W        W25184  36.552  37.856  14.025
63819W        W25185   5.332  21.652  11.436
63820W        W25186  43.443  34.967  13.445
63821W        W25187  10.695   5.427   2.377
63822W        W25188  37.850   4.896  10.030
63823W        W25189   3.260   5.853   0.902
63824W        W25190   1.751  39.931   2.795
63825W        W25191  39.351   2.804   2.290
63826W        W25192  42.910  23.099  12.933
63827W        W25193  21.694   3.303  14.465
63828W        W25194  18.707  38.053  12.927
63829W        W25195  42.903   4.413  12.097
63830W        W25196  18.716  31.910   9.986
63831W        W25197  31.070  21.516   5.700
63832W        W25198  36.469   6.871  13.952
63833W        W25199  22.060  27.649  12.089
63834W        W25200   2.279  19.662  13.991
63835W        W25201  14.212  17.657   2.758
63836W        W25202   1.953  36.074  12.900
63837W        W25203  21.024  15.719   3.244
63838W        W25204  29.435  34.926  12.868
63839W        W25205  39.496  14.728  13.490
63840W        W25206  24.085  28.983   0.358
63841W        W25207  28.160  11.728  13.963
63842W        W25208  23.149  41.342  12.957
63843W        W25209   8.396  34.405  13.833
63844W        W25210  18.697  30.954  14.480
63845W        W25211  12.741   3.723  14.904
63846W        W25212  14.201  25.635   4.690
63847W        W25213  24.672  35.512   1.445
63848W        W25214  10.642  22.537  10.950
63849W        W25215  37.863  24.050  11.974
63850W        W25216   8.379   7.855  12.020
63851W        W25217  33.022   3.358  11.509
63852W        W25218  12.315  44.913   2.873
63853W        W25219   0.873   7.755   2.230
63854W        W25220  21.118  36.935   3.660
63855W        W25221  17.286  24.066  11.468
63856W        W25222  12.324   5.931  13.921
63857W        W25223  21.719  14.231   2.334
63858W        W25224   8.339  17.693  13.968
63859W        W25225   9.698  35.997   2.365
63860W        W25226  18.640  20.662  10.897
63861W        W25227  21.631  27.107  14.340
63862W        W25228  19.566  19.075  11.922
63863W        W25229  29.958   9.776   1.852
63864W        W25230  22.561   9.767   2.237
63865W        W25231  40.519   0.404  13.861
63866W        W25232   6.898  28.598  11.960
63867W        W25233  34.542  38.387   4.125
63868W        W25234  14.307  35.466   2.286
63869W        W25235   0.346  38.015   2.398
63870W        W25236  10.674  35.934  12.903
63871W        W25237  39.037  39.049  14.952
63872W        W25238  16.272  42.523   0.363
63873W        W25239  10.676  29.443  12.010
63874W        W25240  41.848  25.526  10.997
63875W        W25241  18.065  23.104  14.294
63876W        W25242  44.795  21.665   4.609
63877W        W25243  44.906   8.823  11.912
63878W        W25244  20.226  30.139  13.970
63879W        W25245  38.949  41.501   0.745
63880W        W25246  13.302  23.538  12.500
63881W        W25247  25.013  24.010  10.455
63882W        W25248  44.261  32.525   1.714
63883W        W25249  11.232  22.182   4.315
63884W        W25250  12.188  10.640   0.279
63885W        W25251  44.356  11.653   4.134
63886W        W25252  20.583  24.164  14.899
63887W        W25253   8.758  34.041   2.682
63888W        W25254  17.194  24.605   3.650
63889W        W25255   8.375  36.364   4.168
63890W        W25256  40.449  15.823  11.388
63891W        W25257  32.103  30.986   1.450
63892W        W25258  38.497   7.362   1.237
63893W        W25259  32.606   9.704   1.782
63894W        W25260   7.377  29.140   2.226
63895W        W25261  22.062   7.720  14.822
63896W        W25262   6.809  18.057  13.978
63897W        W25263  16.127  24.530   4.609
63898W        W25264  39.940  37.969  11.882
63899W        W25265  31.548  34.453   2.713
63900W        W25266  39.884   9.884  11.581
63901W        W25267  33.048  32.636  13.967
63902W        W25268  18.065  21.120  14.791
63903W        W25269  42.805  18.064  13.042
63904W        W25270   4.271  31.058  13.450
63905W        W25271  32.095   1.903   3.274
63906W        W25272  19.100   3.357  11.481
63907W        W25273  44.819  26.532   3.207
63908W        W25274  36.972  35.568  11.415
63909W        W25275  31.106  22.612  12.976
63910W        W25276  18.687  13.811   4.124
63911W        W25277  43.439   5.408   0.777
63912W        W25278   7.714  21.681  11.484
63913W        W25279   3.917  15.757  12.992
63914W        W25280  15.095  21.578   2.282
63915W        W25281  41.004  16.202   0.799
63916W        W25282  12.809  37.949  11.926
63917W        W25283   9.872  41.338  14.328
63918W        W25284   3.313  16.740  14.326
63919W        W25285  22.636  38.982  14.487
63920W        W25286  10.235  29.031  12.439
63921W        W25287  15.656  38.329   1.723
63922W        W25288   3.853  43.839   1.922
63923W        W25289  10.231  42.939   9.985
63924W        W25290   7.889  10.763  13.998
63925W        W25291  39.501   8.736   0.781
63926W        W25292  22.016  20.657  12.893
63927W        W25293  43.809  20.124   2.678
63928W        W25294   1.326   5.843   2.227
63929W        W25295  27.971  32.443  13.907
63930W        W25296  37.483  12.360   0.907
63931W        W25297  12.655  42.525  14.771
63932W        W25298  44.873  39.339   0.348
63933W        W25299  16.078  40.848  11.083
63934W        W25300  16.237  27.537  14.004
63935W        W25301  31.414   0.967  13.972
63936W        W25302  13.666  15.206   2.881
63937W        W25303   1.358   1.858  12.845
63938W        W25304  28.503  25.133  11.398
63939W        W25305  16.136   6.290   3.871
63940W        W25306  19.041  23.570  13.323
63941W        W25307  34.103  17.783  12.365
63942W        W25308  14.183  10.762  13.043
63943W        W25309  26.184  39.333  11.938
63944W        W25310  36.567  11.177   0.813
63945W        W25311  18.689   7.758   1.779
63946W        W25312  18.579  38.840   1.778
63947W        W25313  11.768   7.306  12.355
63948W        W25314  28.976  10.286  13.425
63949W        W25315   1.256  43.335   0.318
63950W        W25316  16.739  28.664   0.384
63951W        W25317  32.591  14.798  12.026
63952W        W25318  14.152   3.405  13.998
63953W        W25319  17.221  37.030  12.571
63954W        W25320  44.394  17.285  14.913
63955W        W25321   6.769  34.898   2.707
63956W        W25322  35.385  30.463  11.096
63957W        W25323  20.104   9.362  11.068
63958W        W25324  35.869   3.382  11.042
63959W        W25325   8.786  36.861  14.377
63960W        W25326   3.948  20.533   4.122
63961W        W25327  31.927  41.892  11.601
63962W        W25328  36.415  37.911   1.328
63963W        W25329  22.183  17.276  10.941
63964W        W25330   3.731  18.254   3.864
63965W        W25331  38.068  28.064   4.809
63966W        W25332  33.432  11.729   2.404
63967W        W25333  33.898   3.740   0.753
63968W        W25334  19.555  22.024  14.817
63969W        W25335   8.690  25.533   1.776
63970W        W25336  30.514  30.448  11.534
63971W        W25337  34.534   0.832   3.675
63972W        W25338  29.148   0.942   0.742
63973W        W25339  35.422  40.888  13.052
63974W        W25340  33.568   1.373   3.311
63975W        W25341  37.043  42.481   1.258
63976W        W25342  41.318  19.043  13.923
63977W        W25343  22.624  20.645  13.368
63978W        W25344  21.639  15.662  14.435
63979W        W25345  19.191  29.555  14.812
63980W        W25346  14.205  11.829   0.274
63981W        W25347   7.281  34.924  12.861
63982W        W25348  24.160  31.982  14.301
63983W        W25349  44.934  10.267   2.753
63984W        W25350  13.336   9.841  13.539
63985W        W25351  34.068  41.294   1.701
63986W        W25352  24.714  13.190   4.154
63987W        W25353  31.111   3.349  14.455
63988W        W25354  42.838  20.663  13.831
63989W        W25355   2.303  38.949   1.842
63990W        W25356   4.751   7.786   5.278
63991W        W25357   4.921  33.950   1.729
63992W        W25358   8.227  29.667  11.608
63993W        W25359  33.976  24.075   3.180
63994W        W25360   4.440  44.896  13.914
63995W        W25361  21.755  17.172   4.712
63996W        W25362  12.761   9.668   0.332
63997W        W25363  16.802  44.413  14.472
63998W        W25364   4.307  42.995  11.448
63999W        W25365   2.417  29.968   9.437
64000W        W25366  22.573  37.435   0.346
64001W        W25367   8.874  37.843  11.419
64002W        W25368  12.766  39.003  13.834
64003W        W25369   7.306  38.334  10.435
64004W        W25370  32.050  38.346  10.070
64005W        W25371   4.403  21.042  10.987
64006W        W25372   1.311   2.797  10.460
64007W        W25373  32.964  42.810  12.862
64008W        W25374   5.290   4.428  12.467
64009W        W25375   5.859  39.496   4.612
64010W        W25376  31.561  29.132  12.852
64011W        W25377  29.150  36.914   2.802
64012W        W25378   3.451  35.582  14.507
64013W        W25379  13.729  31.472   3.854
64014W        W25380  40.511   8.835   0.343
64015W        W25381  35.956  28.106  11.031
64016W        W25382  40.988  38.444   1.870
64017W        W25383  10.271  40.446   4.633
64018W        W25384  11.243  13.176   1.432
64019W        W25385  21.558  33.997  10.536
64020W        W25386  37.901  14.227   1.289
64021W        W25387  13.259  20.264   1.285
64022W        W25388  19.660   9.261  11.474
64023W        W25389  18.074   3.433   4.822
64024W        W25390  23.611  31.615   3.814
64025W        W25391  33.535  42.307  14.012
64026W        W25392  36.075  40.971  11.500
64027W        W25393  19.642  19.119   0.881
64028W        W25394  21.263  38.387   3.779
64029W        W25395  20.620  41.510  13.835
64030W        W25396  25.604  37.067  13.912
64031W        W25397  35.097  15.288  13.860
64032W        W25398  33.380  31.628  10.103
64033W        W25399   8.161  24.492  12.830
64034W        W25400  21.549  44.783  14.279
64035W        W25401  17.127  22.218  13.875
64036W        W25402  17.287  14.793   0.873
64037W        W25403  30.543  15.309  13.856
64038W        W25404  22.153   0.405  10.608
64039W        W25405  32.061  24.138   3.271
64040W        W25406  40.815  34.935  13.332
64041W        W25407  12.701  19.559   4.156
64042W        W25408  44.285  31.999  11.891
64043W        W25409  42.894   0.383   1.423
64044W        W25410   1.968   0.252  14.770
64045W        W25411   8.669   0.826  12.986
64046W        W25412  29.532  20.126  11.459
64047W        W25413  19.167   4.418  13.374
64048W        W25414   3.938   4.899   2.240
64049W        W25415  12.196  42.954   1.229
64050W        W25416  10.286  30.137  11.950
64051W        W25417  26.128   6.392   1.874
64052W        W25418  40.544  26.598  13.321
64053W        W25419  36.401  34.531   5.155
64054W        W25420  33.542  19.637  14.025
64055W        W25421  22.069  39.435   0.318
64056W        W25422   8.379  24.505  14.861
64057W        W25423  11.195  23.985   1.741
64058W        W25424  38.906  30.058   0.866
64059W        W25425  17.636   5.373   2.183
64060W        W25426  42.474  27.645   4.617
64061W        W25427  25.585  10.817   4.260
64062W        W25428  26.981  12.215  10.925
64063W        W25429  38.867  15.607   3.191
64064W        W25430  16.705  39.846  12.996
64065W        W25431   6.887   0.960   4.653
64066W        W25432  38.514  13.272  12.552
64067W        W25433  13.782  36.887   3.155
64068W        W25434  44.787  10.814  13.334
64069W        W25435  26.649  29.644   1.436
64070W        W25436  14.797  33.406  13.546
64071W        W25437  32.564  23.075   3.645
64072W        W25438  43.449  16.295   0.368
64073W        W25439   4.285  19.734  14.295
64074W        W25440  18.713  16.796  11.495
64075W        W25441  14.224  19.643   1.283
64076W        W25442  26.019  40.053  13.993
64077W        W25443  12.655   6.323   2.718
64078W        W25444  29.571  18.788  14.793
64079W        W25445   4.878  32.444   4.235
64080W        W25446  21.738  21.193   3.860
64081W        W25447  24.076   6.183   0.829
64082W        W25448  21.030  30.136   3.245
64083W        W25449  38.482   3.449   1.861
64084W        W25450  20.625  18.246  13.348
64085W        W25451  24.570   1.252  10.425
64086W        W25452  11.716  18.687  13.991
64087W        W25453   1.358   7.705  13.307
64088W        W25454  30.473  41.393   3.247
64089W        W25455  33.525  44.796  13.807
64090W        W25456  18.590  34.984   3.224
64091W        W25457   8.824  26.684   2.236
64092W        W25458  24.537   1.276  13.361
64093W        W25459  42.466  44.299   2.201
64094W        W25460  41.922  12.752   0.933
64095W        W25461   4.364   2.417  12.461
64096W        W25462   2.927   4.747  14.895
64097W        W25463  22.139  28.483  14.905
64098W        W25464  39.981   2.735  12.551
64099W        W25465  26.672  23.703   3.795
64100W        W25466   4.442  19.224   2.211
64101W        W25467  43.452  24.560  14.944
64102W        W25468  29.470   5.227  14.483
64103W        W25469  19.145  16.746   3.234
64104W        W25470  31.536  35.873  12.483
64105W        W25471  13.822  17.624  11.953
64106W        W25472  44.919  30.130   1.713
64107W        W25473  42.523  43.799  10.556
64108W        W25474  35.031  31.060  13.885
64109W        W25475  42.349  21.658   3.745
64110W        W25476  39.431  23.147  12.912
64111W        W25477  43.937  41.903   2.902
64112W        W25478  11.683   8.668  14.286
64113W        W25479  17.730  44.447  10.499
64114W        W25480  36.592  43.447  12.444
64115W        W25481  16.567  21.578  14.509
64116W        W25482  43.974  18.663   2.364
64117W        W25483  26.702  22.676   0.934
64118W        W25484   7.719   4.298  14.470
64119W        W25485  39.054  10.233  13.017
64120W        W25486  31.455  30.997  10.513
64121W        W25487   9.680  34.925  12.432
64122W        W25488  15.625   5.392   1.886
64123W        W25489  13.347  37.968   4.707
64124W        W25490  30.440   9.776   1.698
64125W        W25491  41.824  16.703   1.329
64126W        W25492  33.886   9.866   0.300
64127W        W25493   7.242  19.255  11.113
64128W        W25494  15.680  37.384   1.222
64129W        W25495   8.374  23.036   3.332
64130W        W25496  17.265  27.116   1.735
64131W        W25497  32.124  27.632   2.379
64132W        W25498  35.904  24.077  13.354
64133W        W25499   8.718  26.092   3.853
64134W        W25500  32.525  39.846  11.064
64135W        W25501  35.076   4.302  12.030
64136W        W25502  17.742  37.521  14.984
64137W        W25503  17.753  38.380   0.350
64138W        W25504  16.169  18.054   4.193
64139W        W25505   8.866   3.415   4.117
64140W        W25506  33.581  27.598   1.388
64141W        W25507   6.883   3.792   0.375
64142W        W25508  40.397   8.177  13.962
64143W        W25509  26.116  18.788   0.297
64144W        W25510  21.183   0.744  14.966
64145W        W25511  37.016  16.795  10.589
64146W        W25512  13.650  44.282  13.386
64147W        W25513  38.563  37.934   1.714
64148W        W25514   2.280  38.432   2.834
64149W        W25515   2.420   3.426  12.881
64150W        W25516  19.255  36.045  11.592
64151W        W25517  26.514  27.476  10.153
64152W        W25518  13.814  18.633  12.495
64153W        W25519   2.285  19.125   4.333
64154W        W25520  20.116  40.970   0.879
64155W        W25521  33.519  29.920  10.428
64156W        W25522  29.583   8.197  14.934
64157W        W25523   1.783  26.486   0.816
64158W        W25524  29.120  39.005  13.916
64159W        W25525   4.805  30.425  14.024
64160W        W25526   7.677  24.654  12.933
64161W        W25527   3.717  30.043   3.155
64162W        W25528  36.581  44.340  14.824
64163W        W25529  19.118  11.787  11.579
64164W        W25530  12.326   2.880   4.619
64165W        W25531  31.139  22.199  10.096
64166W        W25532   1.249  44.472  11.995
64167W        W25533  40.394  40.390   5.146
64168W        W25534  21.130   4.375  12.893
64169W        W25535  41.504  37.414   1.897
64170W        W25536  42.288   3.288   1.249
64171W        W25537  29.020  30.585  11.950
64172W        W25538  25.214   6.191  14.410
64173W        W25539  32.413   0.467   1.898
64174W        W25540  13.787   7.234  14.910
64175W        W25541   0.892  17.300   4.287
64176W        W25542   2.872   4.898  13.998
64177W        W25543   9.383   1.898  10.636
64178W        W25544  42.795   9.845   2.271
64179W        W25545  39.387  35.993   0.294
64180W        W25546  27.580  32.120   1.787
64181W        W25547   2.931  11.358  13.950
64182W        W25548   2.441   5.197   2.369
64183W        W25549  37.840  29.017  12.868
64184W        W25550  44.292  33.552   4.306
64185W        W25551  36.568  22.241  14.935
64186W        W25552  23.698  39.401   2.689
64187W        W25553  15.221   1.278   0.928
64188W        W25554  22.014  34.872   9.938
64189W        W25555  13.331  24.205   1.760
64190W        W25556  40.336   9.315   3.823
64191W        W25557  29.919   6.261   3.745
64192W        W25558  11.645  43.878   1.761
64193W        W25559  26.594   7.833   0.409
64194W        W25560   9.330  41.397   3.800
64195W        W25561   9.827   7.668  12.084
64196W        W25562   0.886  18.622   3.163
64197W        W25563  23.579  29.426  10.639
64198W        W25564  30.084   9.695  10.497
64199W        W25565  14.722  19.603  11.563
64200W        W25566  31.952  40.881  13.861
64201W        W25567  38.485  30.953   1.385
64202W        W25568   1.809  43.821  14.937
64203W        W25569  37.376  24.220   2.764
64204W        W25570  39.983   0.440   2.251
64205W        W25571   8.229  30.076  13.983
64206W        W25572  29.149  38.327  14.426
64207W        W25573  17.752   6.746   4.745
64208W        W25574  11.143  27.096   4.273
64209W        W25575   2.421   7.342  11.385
64210W        W25576  24.165   1.331   5.160
64211W        W25577  19.203   2.285  14.933
64212W        W25578   4.377  30.135  14.961
64213W        W25579   5.214  34.034   3.793
64214W        W25580  21.170  41.921   0.733
64215W        W25581  24.573  15.306   2.397
64216W        W25582  30.638  38.426  14.394
64217W        W25583  44.756   1.959   4.838
64218W        W25584  10.761   3.726  11.561
64219W        W25585  43.932   9.713   4.812
64220W        W25586  20.062   3.834   1.368
64221W        W25587  20.071   0.438  13.837
64222W        W25588   7.382  36.874  12.496
64223W        W25589  42.787  33.077   2.368
64224W        W25590   3.406  32.561   3.841
64225W        W25591  34.378  25.144   0.749
64226W        W25592  14.255  21.603   3.345
64227W        W25593  23.721  43.790  14.825
64228W        W25594  41.942  10.277  10.504
64229W        W25595  26.167   3.325   3.165
64230W        W25596   6.240  15.144  12.500
64231W        W25597  27.665  20.584  14.758
64232W        W25598   6.188   8.865   3.794
64233W        W25599   8.227  37.374  13.986
64234W        W25600   9.710  25.979  14.344
64235W        W25601  24.487  43.342  13.492
64236W        W25602   3.887  15.744   1.353
64237W        W25603  29.169   6.290  11.586
64238W        W25604  40.021  29.665   0.744
64239W        W25605  41.903   6.715   0.462
64240W        W25606  17.800  15.682   1.298
64241W        W25607  18.712  43.327   0.897
64242W        W25608  34.956  17.079  14.849
64243W        W25609  27.041   2.897   3.800
64244W        W25610   9.309   9.193  11.962
64245W        W25611  24.529  29.062  11.419
64246W        W25612  32.087  44.419  14.992
64247W        W25613  36.850   7.790  13.033
64248W        W25614  38.380   2.856   4.684
64249W        W25615  34.865  37.465  10.586
64250W        W25616  16.297  39.914   0.893
64251W        W25617   8.752  42.326  14.905
64252W        W25618  32.142  44.336  11.425
64253W        W25619   1.771  22.121   3.358
64254W        W25620  19.680  23.647   0.357
64255W        W25621  35.421   6.836   0.448
64256W        W25622  23.544  17.601   1.210
64257W        W25623  40.882   9.875  12.496
64258W        W25624  40.445   6.221  13.832
64259W        W25625  10.720  23.555  13.331
64260W        W25626  31.621  22.643   1.770
64261W        W25627  34.058  13.305   3.859
64262W        W25628   9.818  40.302   4.115
64263W        W25629   7.415  39.057  12.366
64264W        W25630  35.024  34.481  11.606
64265W        W25631  35.585  43.966  13.835
64266W        W25632   9.686  17.626  11.527
64267W        W25633  24.529  30.945   0.841
64268W        W25634  41.299  22.198  11.596
64269W        W25635   0.792   2.426  12.059
64270W        W25636  39.404  44.863  11.979
64271W        W25637  37.878   3.439   2.412
64272W        W25638  42.891   8.777  11.884
64273W        W25639   3.842  44.755   1.747
64274W        W25640  21.630  19.624   2.290
64275W        W25641  25.190  44.505   0.263
64276W        W25642  15.237  31.917   2.399
64277W        W25643   2.723  34.384   4.277
64278W        W25644  20.642  25.086   0.885
64279W        W25645  39.351   5.851   0.472
64280W        W25646  19.280  41.963   0.764
64281W        W25647  11.673  39.928   3.870
64282W        W25648  10.770  36.067   4.172
64283W        W25649  11.362  16.073  11.532
64284W        W25650  39.322  39.060   0.394
64285W        W25651  29.638  16.668   2.753
64286W        W25652  13.125   9.660  14.316
64287W        W25653  31.484  37.903  12.532
64288W        W25654  28.580  39.924   0.251
64289W        W25655  33.015  34.976  11.007
64290W        W25656  34.085  22.198  11.516
64291W        W25657   5.805   8.760  13.458
64292W        W25658  25.663  36.363   3.365
64293W        W25659   2.322  23.584   3.260
64294W        W25660  28.935  13.630  11.981
64295W        W25661   6.202  29.641   4.775
64296W        W25662  34.057  15.087  10.890
64297W        W25663   4.415  35.049   0.960
64298W        W25664  36.463   5.365  14.305
64299W        W25665   6.728  14.783  10.942
64300W        W25666  12.346  43.950   2.890
64301W        W25667  26.013   4.890  14.840
64302W        W25668  37.839   4.434   4.603
64303W        W25669  11.208  24.583  10.523
64304W        W25670  13.112  38.563   4.655
64305W        W25671  24.496  21.628   4.741
64306W        W25672  17.244   8.300  12.418
64307W        W25673  30.618  26.540   2.416
64308W        W25674  20.595  26.567   1.699
64309W        W25675  13.842  36.867  12.028
64310W        W25676  40.002  41.022  12.842
64311W        W25677  28.617  12.131   3.800
64312W        W25678   0.895   8.338   4.612
64313W        W25679  15.692   3.391   1.860
64314W        W25680  44.787  21.151   3.681
64315W        W25681   6.403  19.585  13.392
64316W        W25682  25.204  11.807   3.199
64317W        W25683  43.914  13.638  11.382
64318W        W25684  31.517   9.261   2.709
64319W        W25685   4.272  32.925  14.352
64320W        W25686  22.664  12.325  11.116
64321W        W25687  25.031  43.340  11.484
64322W        W25688   8.889  16.240  13.807
64323W        W25689  35.961  12.780   4.121
64324W        W25690  43.842  43.425   2.246
64325W        W25691  16.606  21.719  11.577
64326W        W25692  14.140   3.335   2.772
64327W        W25693  13.640  24.163  11.378
64328W        W25694  32.982  15.813  10.511
64329W        W25695  22.082  37.527  11.574
64330W        W25696  18.707   3.271   1.242
64331W        W25697  41.457   4.890   4.798
64332W        W25698  22.508  37.531   5.084
64333W        W25699  28.518  37.883  12.375
64334W        W25700   2.794  22.637  10.447
64335W        W25701  12.611  25.546   4.825
64336W        W25702   8.218  20.576   3.845
64337W        W25703  36.384   7.260  12.409
64338W        W25704  32.616  37.547   5.150
64339W        W25705  34.948  42.015  14.792
64340W        W25706  23.058  41.343   5.138
64341W        W25707   2.285  37.868   1.814
64342W        W25708  38.416   5.919   1.447
64343W        W25709  34.523  14.158   4.127
64344W        W25710  28.543   7.896  14.806
64345W        W25711   1.815   2.809  11.449
64346W        W25712  24.185  36.422  12.015
64347W        W25713  39.393  17.632  13.792
64348W        W25714   6.208  21.173   1.758
64349W        W25715  11.264  28.184   3.813
64350W        W25716  25.619  44.348  10.412
64351W        W25717   4.310  14.674   3.853
64352W        W25718  42.893  18.579  10.895
64353W        W25719   0.787  33.547   1.712
64354W        W25720  43.319  12.614   1.410
64355W        W25721   1.432  16.618  12.050
64356W        W25722  30.131  43.800   4.818
64357W        W25723  17.117  37.390   0.930
64358W        W25724   5.717  38.403  13.358
64359W        W25725  21.646   2.866  12.045
64360W        W25726  34.056  44.378   0.475
64361W        W25727  40.851  14.736   0.381
64362W        W25728   7.842  42.909  13.916
64363W        W25729  18.224  42.507  11.453
64364W        W25730  33.912   4.230   4.807
64365W        W25731  39.888  30.502  14.502
64366W        W25732  32.079  17.222  12.445
64367W        W25733  10.683   7.761   4.727
64368W        W25734  41.431  11.866   4.817
64369W        W25735   7.783  11.255   1.332
64370W        W25736  31.978  38.881   0.346
64371W        W25737  12.711  24.012   3.642
64372W        W25738   0.893   4.702  13.357
64373W        W25739  14.832  44.476   4.285
64374W        W25740  21.722  17.657   3.779
64375W        W25741  40.871  26.002   4.197
64376W        W25742  31.607  19.671  13.407
64377W        W25743  29.516  21.577  13.408
64378W        W25744   8.843  32.951   3.376
64379W        W25745   2.390   8.833   4.340
64380W        W25746   3.786  34.077   3.829
64381W        W25747  44.003  27.132  11.420
64382W        W25748  28.008  33.938  14.380
64383W        W25749  43.837  18.186  13.007
64384W        W25750  13.718   2.331  11.974
64385W        W25751  16.796  16.738   3.377
64386W        W25752  43.959  19.636  14.999
64387W        W25753  36.002  44.950  13.015
64388W        W25754   5.910  29.591  11.999
64389W        W25755  21.752  23.068   4.697
64390W        W25756  11.648   0.779   0.469
64391W        W25757  38.458  33.003  11.944
64392W        W25758  16.666   4.369  11.983
64393W        W25759  25.608  36.845  11.482
64394W        W25760  29.588   4.224  12.471
64395W        W25761  15.601  20.094  12.527
64396W        W25762   8.264  27.485  13.046
64397W        W25763   4.387  16.696   5.155
64398W        W25764  26.622  35.498  14.862
64399W        W25765   3.354  29.980   3.823
64400W        W25766   4.709  40.318   3.830
64401W        W25767   5.790  29.603   2.760
64402W        W25768  17.679   9.244  13.795
64403W        W25769   0.968  23.681   1.888
64404W        W25770  16.764  36.486   0.463
64405W        W25771  26.981  36.909  10.908
64406W        W25772  35.921   5.290   2.239
64407W        W25773   3.237  22.093   2.301
64408W        W25774  22.095  39.912   4.159
64409W        W25775  30.050   1.867   2.241
64410W        W25776  22.622  26.137   3.648
64411W        W25777  42.396  28.988   4.651
64412W        W25778  14.188  32.924  13.802
64413W        W25779  20.700   3.856  13.349
64414W        W25780   4.752   6.797   2.346
64415W        W25781  42.491  33.920   4.156
64416W        W25782  27.667  11.703  11.923
64417W        W25783  41.460  12.118   0.829
64418W        W25784   1.819  33.892  12.869
64419W        W25785   4.892  39.452  11.120
64420W        W25786  17.641  44.260  14.781
64421W        W25787  44.893   5.313  10.517
64422W        W25788  43.788  19.146  13.793
64423W        W25789   0.342  12.287   2.326
64424W        W25790   4.422   8.832   4.252
64425W        W25791  19.637   5.381   0.881
64426W        W25792  19.248  25.058   3.652
64427W        W25793  38.457  44.805  11.960
64428W        W25794  10.647  25.151  14.942
64429W        W25795  43.797  35.909  13.482
64430W        W25796  43.925  23.715  11.969
64431W        W25797  38.326   1.252  11.906
64432W        W25798  17.194   9.815  14.009
64433W        W25799  34.966   7.284   2.849
64434W        W25800  37.020  31.135   2.313
64435W        W25801   7.754  40.492   2.897
64436W        W25802  27.100   7.251  12.502
64437W        W25803  43.295  34.538  11.414
64438W        W25804  29.591  21.046   2.230
64439W        W25805  31.000  40.344   9.947
64440W        W25806   8.805  41.880   1.443
64441W        W25807  20.597  12.344  13.310
64442W        W25808   6.376  12.733  12.429
64443W        W25809  13.793  30.649  14.851
64444W        W25810  35.976  15.759  13.348
64445W        W25811   8.674  29.558   4.128
64446W        W25812  27.477  44.958  13.471
64447W        W25813  41.416  33.488   4.791
64448W        W25814  41.936  34.588  10.980
64449W        W25815  15.088  26.560   2.684
64450W        W25816  16.237  29.082  14.978
64451W        W25817  34.006  30.502   3.313
64452W        W25818   2.888  15.154   5.220
64453W        W25819  19.139   9.800   2.708
64454W        W25820   1.775  41.296   3.759
64455W        W25821  37.004  24.078   2.345
64456W        W25822  37.495   4.277  12.924
64457W        W25823  13.814  31.146  13.948
64458W        W25824  37.491  37.573   4.266
64459W        W25825  23.999  37.555   2.233
64460W        W25826   3.817  16.589  11.500
64461W        W25827  36.017   8.326  13.809
64462W        W25828  24.591   6.752   5.248
64463W        W25829  28.080  35.087  13.858
64464W        W25830  13.844  34.500  14.451
64465W        W25831  36.457  17.584  10.984
64466W        W25832  23.564  39.409   2.359
64467W        W25833  31.975  31.950  12.530
64468W        W25834  36.406  19.279  12.411
64469W        W25835  40.026  22.177   2.759
64470W        W25836  16.255  43.338   2.207
64471W        W25837  18.126   8.176   3.272
64472W        W25838  36.414  40.933   3.648
64473W        W25839  20.598  23.165  12.886
64474W        W25840  29.969  34.934  13.799
64475W        W25841  44.893   3.251  14.850
64476W        W25842   8.264  25.608  14.854
64477W        W25843  27.085  19.065  14.848
64478W        W25844  23.036  24.124  10.605
64479W        W25845  39.453  28.176  11.864
64480W        W25846  21.696  30.029  12.459
64481W        W25847  17.673  35.101   1.860
64482W        W25848  32.600  23.237  13.859
64483W        W25849   6.191  33.114   0.252
64484W        W25850   3.920   5.368  12.069
64485W        W25851  28.976  37.388   0.836
64486W        W25852  38.997  31.570  14.308
64487W        W25853  39.363  25.534  13.345
64488W        W25854  16.706  21.558   2.870
64489W        W25855  36.990  29.626  13.845
64490W        W25856   1.315   7.401  13.438
64491W        W25857  22.635  10.827  14.323
64492W        W25858  28.541  34.385   1.906
64493W        W25859  28.058  14.645  14.315
64494W        W25860   0.971   2.242   1.775
64495W        W25861   8.202   1.382  11.606
64496W        W25862  12.826   1.259   4.831
64497W        W25863  32.978  35.962  11.406
64498W        W25864  16.259  35.052   1.254
64499W        W25865  43.392  43.337   1.923
64500W        W25866  14.723  38.426  14.292
64501W        W25867  17.256   5.745   0.777
64502W        W25868   6.833  23.552   4.254
64503W        W25869  10.830  30.955  13.397
64504W        W25870  15.756  35.854  12.862
64505W        W25871  29.978  40.013   1.817
64506W        W25872  38.451   7.204  14.782
64507W        W25873  44.293  32.459  11.544
64508W        W25874  11.314  33.918   2.885
64509W        W25875  44.770  12.667  14.986
64510W        W25876  24.521  23.049   0.472
64511W        W25877   6.866   8.281  12.369
64512W        W25878   9.769  16.665   4.203
64513W        W25879  19.098   8.810  14.951
64514W        W25880  28.159  32.981  14.286
64515W        W25881  24.975   3.753   1.816
64516W        W25882  31.516  19.168   2.284
64517W        W25883  32.565  27.149  11.084
64518W        W25884   9.159  32.054   5.113
64519W        W25885  19.672  20.563   2.899
64520W        W25886  25.184  22.209   3.748
64521W        W25887   3.250  32.528  11.863
64522W        W25888  17.703  10.198   4.807
64523W        W25889  29.086  34.959   1.918
64524W        W25890  29.166   8.182   1.407
64525W        W25891  42.982  36.982  11.004
64526W        W25892  40.459  17.130  11.950
64527W        W25893  36.540   1.447  13.957
64528W        W25894  19.538  16.256  10.995
64529W        W25895  34.570   0.459  14.923
64530W        W25896  29.057  17.630  14.863
64531W        W25897  32.628  24.118  12.086
64532W        W25898   5.337   6.858  10.466
64533W        W25899   2.260  32.444  11.950
64534W        W25900  17.562   4.750   2.348
64535W        W25901  43.291  34.115  13.350
64536W        W25902  28.575  27.589   1.379
64537W        W25903  43.990   3.740  14.453
64538W        W25904   7.833  42.851  13.056
64539W        W25905  12.719  44.952   0.362
64540W        W25906  29.017  41.006  11.532
64541W        W25907  27.626  28.458   9.485
64542W        W25908  43.017  29.093  10.955
64543W        W25909  41.398  16.701  11.510
64544W        W25910  29.518   8.270  11.510
64545W        W25911  24.584   2.283  14.869
64546W        W25912   8.194  16.153  14.796
64547W        W25913  22.245  32.909   3.763
64548W        W25914  14.806  26.577   0.810
64549W        W25915  34.959  10.301   3.676
64550W        W25916  24.506  33.578   4.737
64551W        W25917  19.711  31.563  14.811
64552W        W25918  40.941  11.857   2.768
64553W        W25919  35.523  32.054   2.209
64554W        W25920  35.106  43.348  11.551
64555W        W25921  16.181  40.490  12.946
64556W        W25922  27.640   6.682   0.328
64557W        W25923  21.591  43.458  10.405
64558W        W25924  17.089  14.135   5.303
64559W        W25925  30.531   5.927  14.453
64560W        W25926  15.290   1.428  11.072
64561W        W25927  38.546  41.898   4.159
64562W        W25928  18.702  38.015   3.348
64563W        W25929  16.718   7.678   3.319
64564W        W25930  30.436  43.350   0.352
64565W        W25931  15.674  38.938  14.360
64566W        W25932  30.521  41.374   1.325
64567W        W25933  19.607   3.250  11.409
64568W        W25934  30.432  39.349  12.409
64569W        W25935  20.099  40.314  13.548
64570W        W25936  22.711  10.266  10.948
64571W        W25937   9.175  26.998  12.550
64572W        W25938  25.020  15.305  10.592
64573W        W25939   9.688  32.088   0.321
64574W        W25940  37.450  17.296  14.412
64575W        W25941  30.504  20.604   2.747
64576W        W25942   1.817  25.105  13.905
64577W        W25943  41.848  35.944   1.845
64578W        W25944  40.490  29.479  10.160
64579W        W25945  10.784   2.967  13.548
64580W        W25946  24.097  32.590  12.498
64581W        W25947   1.826  35.574  13.041
64582W        W25948  26.521  26.514   3.371
64583W        W25949  24.217  15.618   4.818
64584W        W25950  21.247   1.912  12.931
64585W        W25951  42.506   8.349   0.911
64586W        W25952   3.910   5.328  12.393
64587W        W25953  22.119  39.973   2.381
64588W        W25954  26.964  26.207   1.371
64589W        W25955   1.353   5.934   0.799
64590W        W25956   9.215  16.689   2.722
64591W        W25957  14.137  20.768   1.782
64592W        W25958  41.315  10.680  12.539
64593W        W25959  16.131  19.265   4.156
64594W        W25960  14.641  39.809   0.447
64595W        W25961  14.153   0.943   2.399
64596W        W25962  30.441   3.922  10.472
64597W        W25963  22.649   9.652   2.888
64598W        W25964   4.846  39.472  12.369
64599W        W25965  16.621   4.239  13.529
64600W        W25966  23.092  34.885  13.528
64601W        W25967   1.480  14.223   0.395
64602W        W25968   5.778  12.240  11.110
64603W        W25969  11.289  42.886   0.469
64604W        W25970   1.908   4.790   4.812
64605W        W25971  22.539  22.636   3.665
64606W        W25972  29.439  44.493   3.267
64607W        W25973  40.933  33.581  13.987
64608W        W25974  17.147  13.754   5.193
64609W        W25975  29.485  12.829   4.190
64610W        W25976  30.967  24.688  13.959
64611W        W25977   0.417   1.400   0.895
64612W        W25978  30.964  32.547   2.292
64613W        W25979   0.966  13.262  14.327
64614W        W25980  36.084  34.914  14.284
64615W        W25981  13.726  43.320  14.467
64616W        W25982  44.772  13.322  12.559
64617W        W25983  36.982   7.815  13.846
64618W        W25984   6.336  34.448  11.436
64619W        W25985  34.922  43.474   4.153
64620W        W25986  25.964  17.095   3.338
64621W        W25987  30.134  24.225   3.809
64622W        W25988  44.449  25.172  12.542
64623W        W25989  16.195  37.476  12.412
64624W        W25990   5.862  15.780  14.418
64625W        W25991  29.034  21.741   1.801
64626W        W25992   7.396  13.668   0.859
64627W        W25993  31.406  38.846  10.567
64628W        W25994   0.453  32.041   4.611
64629W        W25995  25.511  16.087   1.905
64630W        W25996  23.097  37.575   5.254
64631W        W25997  21.045  28.932   0.453
64632W        W25998  24.039  38.023   2.850
64633W        W25999  12.679   8.242   0.454
64634W        W26000  29.955  42.399   1.866
64635W        W26001  16.120  42.526  13.525
64636W        W26002  16.573  30.501  14.945
64637W        W26003  22.681  22.595   4.310
64638W        W26004  15.230  29.968   1.857
64639W        W26005  33.925  15.185   0.386
64640W        W26006  43.913   5.193  11.411
64641W        W26007   6.233   7.686  13.830
64642W        W26008  24.617  30.977   1.875
64643W        W26009  29.947  15.772   3.377
64644W        W26010  12.237  28.079  13.421
64645W        W26011  33.598  14.716  14.444
64646W        W26012  31.924  30.067  12.855
64647W        W26013  12.741  23.054   2.222
64648W        W26014  33.577  20.585  14.024
64649W        W26015  20.207  36.504   3.794
64650W        W26016  17.669  41.890   2.249
64651W        W26017  18.752  40.386  13.341
64652W        W26018  26.081   4.241  11.560
64653W        W26019  14.293   1.371   4.643
64654W        W26020  15.327  12.319   4.293
64655W        W26021  25.981  31.414   3.213
64656W        W26022  40.510  41.305   2.267
64657W        W26023   3.821  28.170   5.737
64658W        W26024  24.175  21.235  11.372
64659W        W26025  36.877  26.580   1.402
64660W        W26026  28.100  12.846   4.642
64661W        W26027  26.535  35.435  12.982
64662W        W26028  38.955  17.789   2.815
64663W        W26029  39.352  17.666  13.320
64664W        W26030  13.146   7.724   4.338
64665W        W26031  24.090  33.999   4.619
64666W        W26032  13.142  22.663  14.321
64667W        W26033  13.324  30.612  13.469
64668W        W26034  12.726  28.531   3.154
64669W        W26035  17.082  14.273   1.776
64670W        W26036  40.808  36.026   0.346
64671W        W26037  35.109  22.230   2.321
64672W        W26038   5.319  37.511  10.930
64673W        W26039  14.210  30.058  12.972
64674W        W26040  23.188  24.689   1.250
64675W        W26041  34.445  24.672  13.347
64676W        W26042   4.224   0.317   4.205
64677W        W26043  11.731   5.842  10.625
64678W        W26044   6.329  35.392   2.669
64679W        W26045  28.951  14.630   2.805
64680W        W26046   1.909  42.902  11.403
64681W        W26047  22.228  19.663   0.409
64682W        W26048  34.067   1.303  12.882
64683W        W26049   4.436  14.146  14.377
64684W        W26050  42.988  25.642  11.002
64685W        W26051   0.407  33.056  13.408
64686W        W26052  32.590  22.616   0.814
64687W        W26053   7.321   1.841   0.341
64688W        W26054  42.382  42.329  13.041
64689W        W26055  37.565  17.640   2.361
64690W        W26056  33.080  42.497  12.898
64691W        W26057  38.981  27.988  10.938
64692W        W26058  41.407  29.050   0.409
64693W        W26059  10.819  22.707  11.903
64694W        W26060   3.826   2.251  13.001
64695W        W26061   7.357  39.820   4.645
64696W        W26062  29.619  40.506  11.494
64697W        W26063  42.284  31.539   1.259
64698W        W26064  36.095  30.038   3.174
64699W        W26065  36.552   1.830  12.572
64700W        W26066  33.117  31.044   4.728
64701W        W26067  43.909  18.780   3.274
64702W        W26068  29.451  41.507   2.790
64703W        W26069  39.487   7.813  14.339
64704W        W26070  41.004   1.779  11.936
64705W        W26071  24.689  32.466  14.799
64706W        W26072  33.105  36.097  10.430
64707W        W26073   3.862  30.988  12.429
64708W        W26074  31.114  38.514  12.854
64709W        W26075  11.261  33.968  12.079
64710W        W26076  40.491  13.119   2.788
64711W        W26077  11.363   0.336  13.425
64712W        W26078  23.122  37.029   4.220
64713W        W26079  20.211  34.017   0.307
64714W        W26080  40.473  17.683  11.411
64715W        W26081  23.186  18.585   2.798
64716W        W26082  16.751  40.854  14.800
64717W        W26083  28.017  29.063  14.493
64718W        W26084  14.820  26.654   2.202
64719W        W26085  39.336  29.540   1.252
64720W        W26086  10.244  38.825   2.689
64721W        W26087  11.771   1.478   2.265
64722W        W26088  13.137  36.485   0.413
64723W        W26089  14.832  30.494   5.140
64724W        W26090  21.257  11.194  12.922
64725W        W26091  19.552  39.389  12.350
64726W        W26092   8.844  10.350   4.683
64727W        W26093  27.095  30.005  14.828
64728W        W26094  32.898  19.123  11.104
64729W        W26095  27.064  12.727  12.346
64730W        W26096  21.565  14.813  13.321
64731W        W26097  41.816  38.545   1.266
64732W        W26098  39.808  21.721   0.295
64733W        W26099  15.617  38.463  12.385
64734W        W26100   1.433  41.386  11.528
64735W        W26101  11.805   9.364   1.261
64736W        W26102  10.305   5.378   3.370
64737W        W26103  23.532  10.635   3.168
64738W        W26104   6.730  16.597   2.329
64739W        W26105   3.722   3.384  12.373
64740W        W26106  44.781  13.264   2.885
64741W        W26107   1.816  12.804   4.812
64742W        W26108  37.492  35.582   2.196
64743W        W26109  39.414  29.610   0.415
64744W        W26110  19.680  25.563   1.375
64745W        W26111  30.606  11.274   0.287
64746W        W26112  42.786   8.814  14.363
64747W        W26113  29.931  12.791   2.833
64748W        W26114   7.208  10.225   3.862
64749W        W26115   3.795   8.807   4.146
64750W        W26116  12.789  33.568  14.439
64751W        W26117  15.166   2.780  11.062
64752W        W26118  30.096  35.463  11.893
64753W        W26119  10.224  24.484   0.404
64754W        W26120  34.062  30.536  14.857
64755W        W26121  14.715   7.171  12.010
64756W        W26122  17.299  16.580  13.508
64757W        W26123  21.603  10.367  13.857
64758W        W26124  19.556   1.402  14.760
64759W        W26125  15.619  32.430  11.899
64760W        W26126   9.374  25.154  11.051
64761W        W26127   0.436  35.888  12.889
64762W        W26128  39.314  34.467  12.393
64763W        W26129  26.625   5.728  11.475
64764W        W26130  38.822  15.659   1.266
64765W        W26131  12.318  37.352   0.285
64766W        W26132  29.457  29.087  11.966
64767W        W26133  43.343   4.277  13.451
64768W        W26134  26.501  34.034  10.499
64769W        W26135  14.149   9.291  10.428
64770W        W26136  36.919  20.638   3.350
64771W        W26137   0.848  41.808   0.263
64772W        W26138   2.912  15.618  14.768
64773W        W26139   0.911  17.596  11.602
64774W        W26140   7.353  21.515  12.039
64775W        W26141  27.192   3.436   4.311
64776W        W26142  44.862  26.145  14.501
64777W        W26143  22.009   9.776  14.821
64778W        W26144  37.042   8.163   3.253
64779W        W26145  17.215  10.829   9.999
64780W        W26146  27.668   9.291  14.391
64781W        W26147  43.005  29.956   3.265
64782W        W26148   7.754   2.886  10.412
64783W        W26149  14.669  34.377   2.343
64784W        W26150  39.481  39.490  13.936
64785W        W26151  37.445  36.551  12.823
64786W        W26152   8.819  37.906  14.898
64787W        W26153  17.802  41.796   3.248
64788W        W26154   2.723   2.940  13.486
64789W        W26155  38.948  18.202  12.468
64790W        W26156  41.982  18.122  14.306
64791W        W26157  20.145  27.183   1.768
64792W        W26158  25.023   1.405   2.353
64793W        W26159  27.175  18.567  10.927
64794W        W26160   2.911  16.670  12.552
64795W        W26161   2.268   1.375  14.364
64796W        W26162  35.464  29.919   0.907
64797W        W26163  25.642  35.500   1.699
64798W        W26164   3.798  28.158   2.257
64799W        W26165  28.158  12.655   3.735
64800W        W26166  10.229  44.868  12.996
64801W        W26167  12.652  26.156   2.385
64802W        W26168  32.012  14.213   1.822
64803W        W26169  44.420  20.097   0.908
64804W        W26170  10.709   5.430   4.290
64805W        W26171   8.696  44.277   0.418
64806W        W26172  16.279  31.986  12.006
64807W        W26173  30.652  17.271  13.977
64808W        W26174  39.540  32.397   4.775
64809W        W26175  12.733  23.514  13.543
64810W        W26176  15.579  44.788   3.712
64811W        W26177   2.300  32.963  13.846
64812W        W26178   3.442  17.589  12.871
64813W        W26179   7.835   0.786  14.313
64814W        W26180  40.046   5.365  13.415
64815W        W26181  39.849  28.583   1.233
64816W        W26182  15.676  33.439  14.985
64817W        W26183   9.714   4.278  12.467
64818W        W26184  31.501  18.093   0.447
64819W        W26185  34.964  29.170   2.398
64820W        W26186  33.012  44.980   4.277
64821W        W26187  44.355  43.482  13.471
64822W        W26188  31.036  25.216  10.595
64823W        W26189   9.200  27.479  14.982
64824W        W26190  22.173  31.423   5.291
64825W        W26191  19.227  36.074  13.810
64826W        W26192  25.625   6.248  13.044
64827W        W26193  38.571  38.058  10.476
64828W        W26194  11.803  29.559  11.055
64829W        W26195   0.764  17.741   1.449
64830W        W26196   0.391  44.914  11.440
64831W        W26197  42.373   1.409   2.735
64832W        W26198  41.019  29.053   2.274
64833W        W26199  36.013  36.349   3.668
64834W        W26200  12.820  14.242   5.298
64835W        W26201  22.249  16.712   3.360
64836W        W26202  18.583  36.581   5.695
64837W        W26203  29.147  37.394   3.386
64838W        W26204  33.038   5.776   4.649
64839W        W26205  28.032  11.141   3.373
64840W        W26206  43.778   4.868  12.940
64841W        W26207   3.782  18.642   1.909
64842W        W26208   6.212  29.112   0.379
64843W        W26209   2.946  42.815  13.502
64844W        W26210  37.856  21.061  10.135
64845W        W26211  30.994  44.765   1.246
64846W        W26212  33.526  24.479  11.953
64847W        W26213   1.345  43.821   2.729
64848W        W26214  37.839  31.607  14.887
64849W        W26215  25.179  11.182   3.803
64850W        W26216   2.430  40.050   3.263
64851W        W26217  31.102  23.693  13.044
64852W        W26218  18.772   3.223  12.081
64853W        W26219  36.407  17.784   4.349
64854W        W26220  31.610  42.873  11.584
64855W        W26221  33.535  36.380   2.233
64856W        W26222  22.588   6.245   1.778
64857W        W26223  29.119  18.138   1.268
64858W        W26224  38.850  30.100  14.287
64859W        W26225   8.359  39.526  10.558
64860W        W26226   7.221   4.333  12.887
64861W        W26227  43.298   7.230  11.530
64862W        W26228  32.465  35.972   0.902
64863W        W26229   6.876  23.172  14.838
64864W        W26230   2.937  11.220  11.975
64865W        W26231  22.172   4.300  13.982
64866W        W26232  25.635  39.062   2.277
64867W        W26233   5.278  24.543  12.437
64868W        W26234  35.927   1.878  14.788
64869W        W26235   7.905  27.493   4.182
64870W        W26236  36.362  30.151   4.305
64871W        W26237   6.889  16.568  13.469
64872W        W26238   6.778   8.398  11.545
64873W        W26239  25.115  34.059   2.228
64874W        W26240  37.558  41.039   3.643
64875W        W26241  40.309  10.873  13.937
64876W        W26242  27.024  34.444  13.889
64877W        W26243  28.550  24.689   2.369
64878W        W26244  31.101  27.114  14.343
64879W        W26245  16.697  25.059  13.400
64880W        W26246  34.901  29.543   2.781
64881W        W26247   3.917  43.878   3.815
64882W        W26248  21.149   3.271  12.460
64883W        W26249  31.546  14.272  11.083
64884W        W26250  12.136  34.508   1.266
64885W        W26251  31.605  12.339   2.853
64886W        W26252   5.859  42.328  10.540
64887W        W26253  42.951  16.658  11.059
64888W        W26254  12.637  24.633   2.698
64889W        W26255  25.068  19.232  13.542
64890W        W26256  42.785  20.693  11.897
64891W        W26257  13.205  25.509  14.887
64892W        W26258  28.678   4.779  12.068
64893W        W26259  29.120  32.473  11.966
64894W        W26260  40.525  10.855  11.580
64895W        W26261  34.018  35.079   0.734
64896W        W26262  44.986  12.247   3.340
64897W        W26263  21.579   4.856   4.166
64898W        W26264   9.378  38.024  11.929
64899W        W26265   1.275  30.980  13.349
64900W        W26266  29.073  37.552  14.486
64901W        W26267  30.535  13.604  12.832
64902W        W26268  42.439   2.414  14.018
64903W        W26269  26.507  38.915  14.875
64904W        W26270  36.055   5.810  14.997
64905W        W26271   0.884  29.618  13.429
64906W        W26272  40.900  25.511   2.870
64907W        W26273  38.428  14.138  10.423
64908W        W26274  44.773   7.853  10.929
64909W        W26275  30.053  19.286  13.022
64910W        W26276  37.518  40.980   2.232
64911W        W26277   6.316  11.161  14.819
64912W        W26278  25.991  14.105   0.921
64913W        W26279  20.700  11.806   4.814
64914W        W26280  13.192  17.648  14.387
64915W        W26281  43.012  41.463   0.383
64916W        W26282  17.714  35.892   0.927
64917W        W26283  44.342  10.868   2.744
64918W        W26284  18.601  15.154  12.034
64919W        W26285   7.673   5.824  14.933
64920W        W26286  19.133   5.816  10.629
64921W        W26287  15.158  42.335   2.693
64922W        W26288  18.201  25.512  14.365
64923W        W26289   3.226  33.956  14.426
64924W        W26290  19.143   1.922   2.196
64925W        W26291  35.478  18.578   0.911
64926W        W26292   2.893  30.502  12.922
64927W        W26293  18.645  22.630   0.906
64928W        W26294  40.367   0.817   0.348
64929W        W26295  14.682  43.281   2.326
64930W        W26296  41.790  36.094   1.316
64931W        W26297  25.963   2.919  10.506
64932W        W26298  22.688  10.263  10.123
64933W        W26299  28.545  13.671  14.472
64934W        W26300  20.678  11.218  14.975
64935W        W26301  39.553  44.800   1.343
64936W        W26302  43.994  36.528  10.493
64937W        W26303  12.298  42.352   1.803
64938W        W26304  35.394   4.893  14.817
64939W        W26305  29.589  31.590  12.944
64940W        W26306  40.951  38.328   2.881
64941W        W26307  37.349  41.399  11.018
64942W        W26308   7.759  28.948   3.846
64943W        W26309   9.179  33.404  10.007
64944W        W26310  16.790  16.733  13.427
64945W        W26311  12.263   7.343  10.604
64946W        W26312   2.954  37.526   3.682
64947W        W26313   4.777  28.507   0.919
64948W        W26314   0.439   2.905  14.301
64949W        W26315  29.157   3.788  12.502
64950W        W26316   9.149  13.148   4.286
64951W        W26317  39.940  37.028   1.726
64952W        W26318  30.413  20.640   0.943
64953W        W26319  11.687   7.683   0.760
64954W        W26320  37.400   3.296   1.337
64955W        W26321  25.050   1.412  12.941
64956W        W26322  43.408   5.711   3.228
64957W        W26323  12.162  38.497   3.765
64958W        W26324  40.811   5.198   2.880
64959W        W26325   0.476  25.109  14.781
64960W        W26326   3.358  16.681   0.929
64961W        W26327  44.279   4.944  10.586
64962W        W26328  44.464  33.486  11.987
64963W        W26329  28.668  27.638   3.288
64964W        W26330  40.341  39.511  13.470
64965W        W26331  17.125  26.485  12.968
64966W        W26332  17.307  43.949   2.864
64967W        W26333  24.201  34.575   4.117
64968W        W26334  40.447  28.144  10.910
64969W        W26335   0.377  24.075   4.723
64970W        W26336  17.577   6.374  13.821
64971W        W26337  34.939  21.523  10.563
64972W        W26338  23.163  37.535  10.972
64973W        W26339  23.568  21.611   2.836
64974W        W26340   2.400   6.875  11.514
64975W        W26341  40.036   6.381   1.406
64976W        W26342   6.730   9.336  14.384
64977W        W26343  38.842  34.932  11.383
64978W        W26344   3.272  28.510   2.327
64979W        W26345  33.453  30.073  14.983
64980W        W26346   4.930  17.714  11.377
64981W        W26347   3.434  10.191   3.369
64982W        W26348  23.080   8.747   1.760
64983W        W26349  28.101  43.334   4.834
64984W        W26350  13.625  41.512  11.040
64985W        W26351  36.873  17.787   3.160
64986W        W26352  20.182   3.884  11.535
64987W        W26353  24.569   9.723  11.958
64988W        W26354   1.799  12.275  12.864
64989W        W26355  33.124   0.843   4.827
64990W        W26356  26.167  43.418   3.835
64991W        W26357  35.003   6.891   2.805
64992W        W26358   5.866   9.260  13.546
64993W        W26359  24.997  40.999   0.466
64994W        W26360  36.032  35.584  10.497
64995W        W26361   4.930  30.121   4.238
64996W        W26362   4.722  44.392   3.779
64997W        W26363  21.594  12.236  10.471
64998W        W26364   7.824  16.641  12.967
64999W        W26365  17.307   6.716   1.450
65000W        W26366  34.897  37.399   2.696
65001W        W26367  42.926  32.055  13.450
65002W        W26368  36.387  27.562   1.221
65003W        W26369  11.149  18.232  11.886
65004W        W26370  38.850   8.342  13.918
65005W        W26371  10.741  18.673  11.040
65006W        W26372  35.046  40.546  12.434
65007W        W26373  42.817  15.627  10.599
65008W        W26374  19.749   1.761  13.815
65009W        W26375  36.400   9.675  12.377
65010W        W26376   0.401  39.860  13.869
65011W        W26377  32.584  23.202  14.839
65012W        W26378   7.313  10.654  14.873
65013W        W26379  16.686  31.498  12.459
65014W        W26380  16.645  25.702   2.192
65015W        W26381  27.947  38.864   4.803
65016W        W26382  14.159  41.510   2.412
65017W        W26383  10.150  25.558   3.637
65018W        W26384   2.871  18.777   0.256
65019W        W26385  30.414  12.278  13.478
65020W        W26386   2.832  13.189   1.809
65021W        W26387  18.054  42.469   2.875
65022W        W26388   8.382  39.408  13.885
65023W        W26389  26.113  19.630  12.988
65024W        W26390   7.810  32.402   4.779
65025W        W26391  11.159  19.196  10.569
65026W        W26392   9.791   4.818  11.413
65027W        W26393  33.570  19.157   4.298
65028W        W26394   2.826  30.516  14.479
65029W        W26395   5.702  17.625  14.387
65030W        W26396  41.340  32.526   0.434
65031W        W26397   1.468  11.340  10.967
65032W        W26398  20.630  34.519  11.555
65033W        W26399  41.408  25.674  10.928
65034W        W26400   2.853  26.963   0.886
65035W        W26401   4.780  21.054   9.972
65036W        W26402  18.752  31.129  10.980
65037W        W26403  28.104  33.891  12.060
65038W        W26404  38.986  28.107  11.876
65039W        W26405  36.896  41.874  11.387
65040W        W26406  20.170  14.314   1.231
65041W        W26407   5.338  26.520  14.477
65042W        W26408  32.422   5.320  12.951
65043W        W26409   9.212  43.397   4.313
65044W        W26410  43.320  38.052  14.338
65045W        W26411  19.644  14.209   3.831
65046W        W26412   1.734   2.467  12.924
65047W        W26413  39.917  41.462   2.833
65048W        W26414  10.362   3.271  14.478
65049W        W26415  17.791  30.556   4.680
65050W        W26416  30.077   0.909   0.407
65051W        W26417  26.179  20.209  14.439
65052W        W26418  11.646   7.884  13.455
65053W        W26419   7.786  13.140   0.888
65054W        W26420  21.259  17.591  13.460
65055W        W26421  41.300  14.735   0.434
65056W        W26422   0.309  40.897  13.030
65057W        W26423  31.913  38.384   0.407
65058W        W26424  33.045   5.396  13.916
65059W        W26425   8.273  20.131  14.014
65060W        W26426  25.585  16.113  14.926
65061W        W26427   3.402   3.388   3.269
65062W        W26428  22.509  11.268  12.028
65063W        W26429  40.914   5.779  11.051
65064W        W26430   2.931  14.605   9.568
65065W        W26431  14.268   7.188   0.322
65066W        W26432  26.190  42.985   2.317
65067W        W26433  37.879  28.563  12.058
65068W        W26434  11.343   1.456  12.496
65069W        W26435  31.948  30.644   3.157
65070W        W26436  33.997  27.568   1.791
65071W        W26437  43.817   7.830   0.355
65072W        W26438  25.604  39.421   3.202
65073W        W26439  38.488  44.410  11.420
65074W        W26440  41.905  14.340  11.865
65075W        W26441   2.379   8.296   4.598
65076W        W26442  34.997  43.308  13.821
65077W        W26443  36.056  27.094   3.160
65078W        W26444  37.909  33.978   4.738
65079W        W26445  26.024  11.325  14.429
65080W        W26446  36.522  20.062  14.828
65081W        W26447  18.209  36.386  12.901
65082W        W26448  13.621  44.938  11.936
65083W        W26449  17.677  11.289   1.891
65084W        W26450  44.290  26.620  13.062
65085W        W26451  43.784  32.031   0.257
65086W        W26452  10.847  28.950  11.957
65087W        W26453   3.292  42.815   4.147
65088W        W26454  12.123  25.601  12.360
65089W        W26455  26.097  41.306  14.343
65090W        W26456  15.819  21.192   2.183
65091W        W26457  32.620  10.837  12.452
65092W        W26458  40.914   3.733  13.994
65093W        W26459   6.185   9.759   3.291
65094W        W26460   3.218  37.900   0.910
65095W        W26461  22.095  30.427  11.109
65096W        W26462  42.414  17.635   2.717
65097W        W26463  44.420  44.302   3.182
65098W        W26464  25.994   9.239   0.788
65099W        W26465  24.527  11.340  12.005
65100W        W26466  37.018  16.121   4.640
65101W        W26467  34.016  16.198   3.825
65102W        W26468  42.946  22.070  12.875
65103W        W26469  22.715   2.462   2.331
65104W        W26470  34.043  42.996  14.940
65105W        W26471  35.494   9.360   3.253
65106W        W26472   7.804  27.971  10.561
65107W        W26473  20.552  33.017   2.715
65108W        W26474  38.457  26.167   1.922
65109W        W26475  21.735  22.705  13.408
65110W        W26476   0.827  31.106   4.154
65111W        W26477  16.709  29.555   0.466
65112W        W26478  21.576   1.356  12.452
65113W        W26479  30.445  12.765  11.606
65114W        W26480   0.900  20.102   1.376
65115W        W26481  36.875  44.347   4.724
65116W        W26482  40.824  37.480   1.275
65117W        W26483   1.293  30.132   1.764
65118W        W26484  27.601   7.334   1.371
65119W        W26485  42.886  15.277  13.891
65120W        W26486   3.264   4.752  14.485
65121W        W26487  36.930  29.158  13.908
65122W        W26488  13.784   6.746   2.391
65123W        W26489  38.508  26.109   4.331
65124W        W26490  29.475  23.600   3.730
65125W        W26491  22.156  24.072  10.583
65126W        W26492  10.340  21.153  14.003
65127W        W26493   0.788  10.195  11.473
65128W        W26494   0.304  28.005   3.219
65129W        W26495   3.228  33.609   3.658
65130W        W26496   9.164  14.291  10.942
65131W        W26497  38.556  19.771   4.636
65132W        W26498   2.756  43.815  11.519
65133W        W26499  40.460  12.270   3.768
65134W        W26500   7.191  13.637   0.329
65135W        W26501  37.419  25.191  12.451
65136W        W26502  28.603  44.289   2.310
65137W        W26503  24.645   0.929  11.558
65138W        W26504  12.287  15.632  12.007
65139W        W26505  16.241  25.198   2.776
65140W        W26506   0.320  16.310   1.922
65141W        W26507   3.348  16.198   5.287
65142W        W26508  23.031  28.576   3.226
65143W        W26509  25.496   3.253   1.319
65144W        W26510   6.902  39.941  11.518
65145W        W26511  11.312   1.841   4.744
65146W        W26512  22.700   2.841  14.017
65147W        W26513  17.119  30.123  10.555
65148W        W26514  40.481  27.047  11.548
65149W        W26515   1.813  35.918   2.334
65150W        W26516  40.013  34.929  14.408
65151W        W26517   0.467  38.520  12.475
65152W        W26518  39.048  37.485  10.593
65153W        W26519  35.952  34.088  12.856
65154W        W26520  24.572  16.145   2.304
65155W        W26521  10.344  24.673   3.665
65156W        W26522  38.044  21.531  13.873
65157W        W26523  24.984  29.515   1.340
65158W        W26524   5.410  18.212  13.313
65159W        W26525   3.773  29.977  11.408
65160W        W26526   3.890   9.804  10.440
65161W        W26527   2.875  14.605   4.681
65162W        W26528  21.110  40.941   3.737
65163W        W26529  10.791   1.963  10.547
65164W        W26530  33.125   0.891  14.881
65165W        W26531  21.712  32.477  12.379
65166W        W26532  39.031  11.192  14.985
65167W        W26533  38.073  17.746  10.994
65168W        W26534  39.445  19.604  12.517
65169W        W26535  37.008  12.781   1.326
65170W        W26536  32.499  41.904  12.001
65171W        W26537  11.259  18.764   2.395
65172W        W26538   8.802  39.971  14.836
65173W        W26539  27.450  30.947  12.552
65174W        W26540   0.759  12.823  12.947
65175W        W26541   4.426  28.579  13.802
65176W        W26542   2.450  10.799   2.415
65177W        W26543  35.026   2.286  14.334
65178W        W26544  38.500  18.688  12.987
65179W        W26545   0.933  41.966  10.449
65180W        W26546  26.483  43.823  11.115
65181W        W26547  35.001  35.922   0.335
65182W        W26548   5.723  42.958  10.447
65183W        W26549  37.986  12.264   3.790
65184W        W26550  42.459   2.936  14.404
65185W        W26551   6.338  13.694   4.325
65186W        W26552  21.071   8.850   3.190
65187W        W26553  35.934   4.295  13.990
65188W        W26554  22.713  17.670  13.793
65189W        W26555  12.222  36.465  10.481
65190W        W26556  10.810  21.019   4.791
65191W        W26557  29.022  28.957  10.916
65192W        W26558   7.223  37.394  13.386
65193W        W26559  42.343  35.408   1.328
65194W        W26560  20.620  22.684   0.732
65195W        W26561  16.623   9.326   3.285
65196W        W26562   6.259  40.869  12.070
65197W        W26563  37.428  24.600  11.044
65198W        W26564  24.659  39.321  13.844
65199W        W26565  43.814   8.723   5.148
65200W        W26566  20.225  34.090   4.648
65201W        W26567   0.276   3.740  13.937
65202W        W26568  25.133  38.982  10.577
65203W        W26569  25.980  16.747  10.956
65204W        W26570   7.876  41.885   4.798
65205W        W26571  16.716   5.282  14.342
65206W        W26572  35.494  36.464   3.376
65207W        W26573  22.626  34.946  10.588
65208W        W26574  13.139   3.828  10.618
65209W        W26575   6.680   7.347   5.202
65210W        W26576  30.659   6.686   3.660
65211W        W26577  30.625  41.389  11.107
65212W        W26578  38.962  13.193  11.995
65213W        W26579  19.535   9.705  12.559
65214W        W26580  32.086  15.661   0.862
65215W        W26581  26.137  10.650   0.482
65216W        W26582  24.648  17.744  14.356
65217W        W26583   4.793  20.689   4.347
65218W        W26584  32.581  38.840  10.469
65219W        W26585   4.441  40.967   4.831
65220W        W26586  32.031  15.703  12.934
65221W        W26587  42.360  24.125   0.346
65222W        W26588  12.828  34.413  12.504
65223W        W26589   1.887   8.728   3.660
65224W        W26590  32.626  16.218   4.772
65225W        W26591  35.475  17.258   2.786
65226W        W26592  37.894   9.832  14.825
65227W        W26593  15.812  31.606  11.925
65228W        W26594  18.717  13.795   3.841
65229W        W26595  18.274  18.113   0.881
65230W        W26596   1.918  40.799  12.947
65231W        W26597  32.471  24.555   1.358
65232W        W26598  16.761  10.717   3.228
65233W        W26599   8.390  36.563  11.953
65234W        W26600  32.636  19.072   5.302
65235W        W26601  40.425  40.371  14.462
65236W        W26602  33.598  26.994   3.361
65237W        W26603  40.433  44.901   1.714
65238W        W26604   9.286  27.159  10.429
65239W        W26605  16.707  12.149  11.431
65240W        W26606  14.638   9.812  12.498
65241W        W26607  19.208  34.880   0.898
65242W        W26608  33.104  29.432  10.608
65243W        W26609  16.623  31.954  13.379
65244W        W26610  37.938  14.277   0.838
65245W        W26611  25.032   2.326  14.768
65246W        W26612   4.793   8.226   0.930
65247W        W26613  27.574   4.322   3.376
65248W        W26614  17.562  12.658   4.705
65249W        W26615  14.327  42.956  13.334
65250W        W26616  44.262  44.266   0.472
65251W        W26617   4.408  40.345   1.317
65252W        W26618  11.795   1.877  14.333
65253W        W26619   8.377   0.809   1.892
65254W        W26620  15.266  36.521  11.022
65255W        W26621  22.017  12.320   4.252
65256W        W26622  22.745  25.212   3.821
65257W        W26623   6.183  38.059  12.923
65258W        W26624  18.218  17.108  12.341
65259W        W26625  41.901   5.833  13.001
65260W        W26626  41.364  17.285  13.324
65261W        W26627  30.657  23.567  10.613
65262W        W26628  11.715  22.505  14.416
65263W        W26629  37.909  38.545  14.471
65264W        W26630  38.455  40.049  10.997
65265W        W26631  26.683  40.372   2.377
65266W        W26632   0.944  38.485  14.827
65267W        W26633  26.188  36.579  10.575
65268W        W26634  25.495  40.869  14.023
65269W        W26635  19.661  43.963  14.450
65270W        W26636   8.895   7.704   0.353
65271W        W26637  28.978  41.946   0.349
65272W        W26638  20.051  38.559   2.737
65273W        W26639  42.787   8.183   3.733
65274W        W26640  25.643  11.831  12.424
65275W        W26641  35.017  24.170   2.283
65276W        W26642  25.168  37.872  12.839
65277W        W26643  14.249  28.587  12.555
65278W        W26644  19.045   5.391   0.356
65279W        W26645  33.555  28.529  11.114
65280W        W26646  32.952  19.592  10.889
65281W        W26647  17.768  43.283  12.903
65282W        W26648  19.609  43.395   1.778
65283W        W26649  34.068   3.392   2.674
65284W        W26650   9.660  22.504   3.805
65285W        W26651   0.743  33.383  10.523
65286W        W26652  13.226  15.219  12.432
65287W        W26653   9.210   8.720  12.427
65288W        W26654   1.364  38.527   3.321
65289W        W26655  37.441  25.214   2.349
65290W        W26656   5.285   8.312  14.027
65291W        W26657  39.373   5.243  12.002
65292W        W26658  13.728  19.771  11.586
65293W        W26659  29.035  40.307   4.204
65294W        W26660   0.770  18.192  14.343
65295W        W26661  43.802  13.742   4.710
65296W        W26662   5.923  11.789   2.802
65297W        W26663  14.139  14.221   0.825
65298W        W26664  33.384  19.127   3.315
65299W        W26665  34.473  34.495  12.991
65300W        W26666  11.142   5.252   1.895
65301W        W26667  36.885  38.495  14.025
65302W        W26668  34.934   6.726  14.391
65303W        W26669   3.333  15.788   0.956
65304W        W26670  17.729  38.472  11.486
65305W        W26671  29.463  18.202   0.785
65306W        W26672   3.460  33.925  13.544
65307W        W26673  38.896  21.102   4.597
65308W        W26674   1.957  27.601   3.207
65309W        W26675  26.604   7.831  13.882
65310W        W26676  44.354  20.190   4.303
65311W        W26677  18.559  12.624   5.112
65312W        W26678  42.904  23.194  12.429
65313W        W26679  12.208  31.412   4.187
65314W        W26680  31.534  13.148  14.808
65315W        W26681  19.687  21.652  12.025
65316W        W26682   9.828  19.656   4.829
65317W        W26683  27.975  38.329  11.422
65318W        W26684  28.954  25.626   3.233
65319W        W26685  15.820  15.595   1.726
65320W        W26686   0.778   5.727  12.001
65321W        W26687  30.138  36.592  10.936
65322W        W26688  32.420  32.543  11.902
65323W        W26689  15.676   0.887  12.448
65324W        W26690  12.645  25.703   1.299
65325W        W26691  37.941  43.816   1.753
65326W        W26692   4.832   4.817  14.882
65327W        W26693  36.347   4.222  14.493
65328W        W26694  34.512  35.974  12.486
65329W        W26695  37.541  42.419   1.773
65330W        W26696  29.474   9.332   4.732
65331W        W26697  35.920  13.301   4.340
65332W        W26698  20.523  21.520  14.290
65333W        W26699  19.125   6.348   0.271
65334W        W26700  24.522  17.689   3.865
65335W        W26701  11.628  26.628  10.112
65336W        W26702  27.501  37.532   0.757
65337W        W26703  23.635  18.574   4.270
65338W        W26704   6.885  10.748  13.953
65339W        W26705  14.825  29.626  12.422
65340W        W26706  28.964   8.666   4.726
65341W        W26707   6.918   4.259   3.802
65342W        W26708   3.842  15.264  13.370
65343W        W26709  22.124  16.245   1.224
65344W        W26710   0.428  23.564   1.338
65345W        W26711  25.482   8.780   4.660
65346W        W26712  25.182  14.694  10.921
65347W        W26713   8.174  15.124   9.659
65348W        W26714   5.842  27.950  10.632
65349W        W26715  10.773  11.155  12.901
65350W        W26716   8.773  15.100   4.165
65351W        W26717  34.996  17.070  13.004
65352W        W26718   9.787  42.344  11.044
65353W        W26719  38.558  12.631  13.529
65354W        W26720  18.645  26.070   3.288
65355W        W26721  14.698   4.728  12.955
65356W        W26722  22.220  44.407  12.837
65357W        W26723  20.651  25.045   1.321
65358W        W26724  44.279  15.159   0.288
65359W        W26725   2.401  21.666   3.274
65360W        W26726  33.537  21.185   2.671
65361W        W26727   8.876  15.317   5.136
65362W        W26728  29.473  25.550   2.346
65363W        W26729  23.151  29.120  10.123
65364W        W26730  43.947  22.165  11.979
65365W        W26731  12.786  36.008   2.268
65366W        W26732   7.843  29.625  14.866
65367W        W26733  37.875  26.469  11.999
65368W        W26734   9.689  34.503  13.414
65369W        W26735  32.076  39.332   2.747
65370W        W26736  16.798  41.004  11.936
65371W        W26737   5.753  13.763  14.303
65372W        W26738   7.395  41.424   1.249
65373W        W26739  18.052  17.108  13.043
65374W        W26740  40.928   0.400   2.743
65375W        W26741  14.170  19.113   1.269
65376W        W26742  37.524   3.337   4.768
65377W        W26743  19.203  19.580   0.362
65378W        W26744   1.731   8.352  10.410
65379W        W26745  30.640  30.625   3.767
65380W        W26746   4.278  38.902   0.261
65381W        W26747  43.451  14.821  13.519
65382W        W26748  31.977  42.809  10.500
65383W        W26749  13.702  44.792  14.275
65384W        W26750  10.279   2.460   2.763
65385W        W26751  10.741  39.444  13.826
65386W        W26752  39.488  39.828  12.560
65387W        W26753  44.829  23.713  12.579
65388W        W26754  29.121  39.523  11.009
65389W        W26755  33.616   8.684   2.710
65390W        W26756  12.346  27.616   0.756
65391W        W26757  41.417  21.051  14.326
65392W        W26758  27.515  44.488   3.308
65393W        W26759  41.351  42.002   1.330
65394W        W26760  37.891   1.403  13.818
65395W        W26761  22.562   8.275   3.291
65396W        W26762  44.479  22.144   2.894
65397W        W26763  32.518  41.436  11.977
65398W        W26764  27.517  24.086   2.768
65399W        W26765  13.731  11.314  10.473
65400W        W26766   7.885   2.380   4.293
65401W        W26767  30.013  15.732  14.922
65402W        W26768  13.842  39.453  13.308
65403W        W26769   1.428  17.655   0.867
65404W        W26770  17.295  11.740   1.779
65405W        W26771   6.704  16.788   3.800
65406W        W26772  28.087  10.290   0.799
65407W        W26773  30.443  33.949  12.442
65408W        W26774  17.275  18.768  11.515
65409W        W26775  14.615  25.540   3.197
65410W        W26776   3.922  20.735  11.404
65411W        W26777  40.960  11.222   1.877
65412W        W26778  18.601  33.919  13.011
65413W        W26779  28.439  22.567  14.939
65414W        W26780  16.267   5.789   3.717
65415W        W26781  16.710  18.669   1.235
65416W        W26782  17.199   5.353  10.510
65417W        W26783  39.033   0.920   1.226
65418W        W26784  22.702  33.463  11.474
65419W        W26785  28.599  37.497  11.074
65420W        W26786  25.038  16.643   0.441
65421W        W26787  10.758  36.986  13.991
65422W        W26788   1.326  19.705   2.853
65423W        W26789   2.293  26.195   1.912
65424W        W26790  36.350  26.605  10.139
65425W        W26791  33.029   8.353   2.842
65426W        W26792  14.218  28.643  13.947
65427W        W26793  39.431  24.038   2.838
65428W        W26794   4.749  29.080   9.675
65429W        W26795  30.163  20.079   0.280
65430W        W26796  43.987  18.625   1.265
65431W        W26797  31.909  30.530  11.009
65432W        W26798   6.853  27.188   4.191
65433W        W26799  43.773  33.074  11.537
65434W        W26800  41.029   7.235   3.387
65435W        W26801  20.623   6.827   3.334
65436W        W26802  42.015  24.220   3.719
65437W        W26803  32.040  36.909  10.555
65438W        W26804   4.256  26.018  13.845
65439W        W26805  30.978  13.610   1.933
65440W        W26806   2.340  35.853   0.329
65441W        W26807  37.390  20.526   1.923
65442W        W26808  18.578   2.380   3.214
65443W        W26809  24.658  35.978  14.877
65444W        W26810  15.298  44.007   1.385
65445W        W26811  39.938  33.410  12.524
65446W        W26812  22.153  35.597  14.456
65447W        W26813   0.428  40.049   3.853
65448W        W26814  23.562  22.543  14.460
65449W        W26815   3.771   8.332  14.020
65450W        W26816  21.160  11.803   1.925
65451W        W26817   7.269  36.515   3.286
65452W        W26818  18.599  43.320  10.916
65453W        W26819  42.912  16.178  14.294
65454W        W26820  41.361  42.793  10.887
65455W        W26821  32.466  16.115   2.368
65456W        W26822  19.588   2.259  14.500
65457W        W26823   2.882  36.998  10.465
65458W        W26824  40.487  42.969  12.947
65459W        W26825  16.688  40.449   0.775
65460W        W26826  17.208  18.181  14.293
65461W        W26827   0.296  35.577  13.447
65462W        W26828   4.414  21.597  13.334
65463W        W26829   1.808  36.906   2.838
65464W        W26830   0.883  28.097   0.335
65465W        W26831  25.692  33.425   1.289
65466W        W26832  10.212  13.691   2.367
65467W        W26833  11.745  35.895   3.202
65468W        W26834  26.064  29.567  12.477
65469W        W26835  26.027  12.194   0.846
65470W        W26836  25.101  31.422  14.494
65471W        W26837  12.842  32.513   5.602
65472W        W26838  25.078  27.127  10.561
65473W        W26839  44.754  23.182   2.241
65474W        W26840  17.125   9.674  14.454
65475W        W26841  21.133  13.268  13.503
65476W        W26842  13.325  32.407   1.778
65477W        W26843  44.407  25.071  13.483
65478W        W26844   8.388  27.131  11.495
65479W        W26845  20.182  12.357  12.979
65480W        W26846  20.562   9.350  10.901
65481W        W26847  28.590  22.030  13.320
65482W        W26848   2.788   3.884  10.911
65483W        W26849   9.796  11.276  11.119
65484W        W26850  17.636  36.476   2.249
65485W        W26851  29.026  27.669   1.764
65486W        W26852  28.563   7.883  10.498
65487W        W26853  30.493  30.993  10.640
65488W        W26854   6.257  44.791  10.921
65489W        W26855  37.341  42.361   3.300
65490W        W26856  23.619   7.338  11.867
65491W        W26857  38.009  10.723  11.018
65492W        W26858  43.408   4.781   1.322
65493W        W26859  19.696  41.488   0.395
65494W        W26860  27.190  38.016   0.769
65495W        W26861  18.751  30.127  13.542
65496W        W26862   3.933  26.460  11.398
65497W        W26863  23.707  12.341  11.034
65498W        W26864  25.585   6.710   1.228
65499W        W26865  17.595   1.460   3.221
65500W        W26866  33.889  40.905  12.342
65501W        W26867  39.539   8.266   4.175
65502W        W26868   8.791  29.950  10.605
65503W        W26869  26.075  44.838  13.480
65504W        W26870   3.805   3.242  10.047
65505W        W26871  27.675  11.370   3.286
65506W        W26872  31.439  34.111   1.830
65507W        W26873  14.143   4.231  10.577
65508W        W26874  15.580  30.148   0.857
65509W        W26875  28.041  18.108   2.182
65510W        W26876  12.744   7.375  11.588
65511W        W26877  42.834  31.964  13.881
65512W        W26878  36.570  36.423   0.903
65513W        W26879  29.623  35.375   4.256
65514W        W26880  37.549  35.443  12.006
65515W        W26881  32.907  12.195   4.155
65516W        W26882   0.949  23.055  11.907
65517W        W26883   4.337  16.812   0.726
65518W        W26884  14.249  22.623   1.807
65519W        W26885  39.891  39.048   3.380
65520W        W26886   3.376  13.108   1.227
65521W        W26887  19.238  11.699   1.326
65522W        W26888  17.169  39.526  10.960
65523W        W26889   7.843  29.146   4.718
65524W        W26890  42.852  24.535   4.607
65525W        W26891  22.141  14.625   4.129
65526W        W26892  16.576  20.561   2.299
65527W        W26893  41.042   4.250  11.039
65528W        W26894  39.856  36.422  12.971
65529W        W26895   2.289  37.068  11.895
65530W        W26896  18.249  32.506   1.841
65531W        W26897  38.555  23.550  13.374
65532W        W26898   4.275  35.442   2.267
65533W        W26899  29.137   7.772  13.030
65534W        W26900  23.714  44.417  10.089
65535W        W26901  27.639   8.316   0.870
65536W        W26902  35.434  19.681   3.828
65537W        W26903  20.756  29.633  10.996
65538W        W26904  41.920  33.003  14.399
65539W        W26905  31.065   5.748   4.717
65540W        W26906   4.399  35.415  12.072
65541W        W26907  14.220   3.850   0.361
65542W        W26908  24.597  15.188   3.792
65543W        W26909   8.222  29.054   0.746
65544W        W26910   6.272  21.235  10.947
65545W        W26911  33.035  43.875  12.966
65546W        W26912  10.305   4.842   1.213
65547W        W26913  11.824  15.180  13.893
65548W        W26914  24.492   0.781   0.892
65549W        W26915   0.481  41.389  11.443
65550W        W26916  34.534  41.293   1.893
65551W        W26917  14.208   4.416  13.443
65552W        W26918  14.275  22.605   0.823
65553W        W26919  32.004  36.843  14.374
65554W        W26920  11.654  37.445   0.787
65555W        W26921  41.923  17.094   3.645
65556W        W26922  27.966  28.595   5.693
65557W        W26923  20.755  15.737  12.391
65558W        W26924   5.368  27.063  14.475
65559W        W26925  37.958  31.089   4.325
65560W        W26926  29.053  32.447   0.269
65561W        W26927  32.993   5.294   4.135
65562W        W26928  20.607  15.228   1.928
65563W        W26929   2.930  35.397  14.031
65564W        W26930  28.060  25.067   1.891
65565W        W26931  36.884  32.440   3.158
65566W        W26932  20.677  17.587   3.789
65567W        W26933  21.134  40.482  14.872
65568W        W26934  10.239  15.610  14.389
65569W        W26935   3.889  26.169   2.178
65570W        W26936  21.161   7.857   1.742
65571W        W26937  10.646  38.034   1.284
65572W        W26938  35.436  38.963   3.834
65573W        W26939  11.852  24.033   1.440
65574W        W26940   9.251  23.515   2.321
65575W        W26941  27.155  21.634   0.825
65576W        W26942  19.557  10.826   4.733
65577W        W26943   1.408  26.199   3.864
65578W        W26944  30.462  16.080   3.271
65579W        W26945  15.210  34.587  12.829
65580W        W26946  14.644  35.572   2.377
65581W        W26947   9.700  44.792  12.357
65582W        W26948   0.470  36.077   4.254
65583W        W26949   3.890   4.797   2.726
65584W        W26950  22.069  10.743   1.432
65585W        W26951   1.406  31.930  13.888
65586W        W26952  41.338  21.186  11.001
65587W        W26953   0.829   2.318  13.465
65588W        W26954  31.630  18.062  12.088
65589W        W26955  16.256  26.625  11.006
65590W        W26956  34.516  40.947   9.968
65591W        W26957   6.272   6.874  13.865
65592W        W26958   2.786   8.752  11.114
65593W        W26959  41.477  38.035  11.062
65594W        W26960  20.235  22.173  13.837
65595W        W26961   2.339  38.856  10.428
65596W        W26962  18.080  18.142  12.004
65597W        W26963   6.269   6.286   2.789
65598W        W26964  29.627  14.809   4.759
65599W        W26965  14.599   5.849   2.856
65600W        W26966  30.492  21.549   4.117
65601W        W26967  30.105  34.897   2.736
65602W        W26968  23.141   9.694   1.223
65603W        W26969  12.836  24.553  12.986
65604W        W26970  13.113  14.688  12.877
65605W        W26971  30.548  24.194  11.109
65606W        W26972  22.574  42.526  12.488
65607W        W26973  16.711  38.996   2.822
65608W        W26974   9.361   2.336  11.397
65609W        W26975   7.892  25.544  12.959
65610W        W26976  44.467  18.286   5.183
65611W        W26977  24.191  30.554  11.877
65612W        W26978   1.417  14.163   2.756
65613W        W26979  10.649   5.824   1.751
65614W        W26980  40.448  11.759  10.102
65615W        W26981  39.411  35.107  10.053
65616W        W26982  27.065  21.743   2.698
65617W        W26983  26.535  19.063  13.527
65618W        W26984   6.185  10.787  12.356
65619W        W26985  42.308  14.803  11.592
65620W        W26986   5.896   9.782  13.513
65621W        W26987   4.922   8.783  13.341
65622W        W26988  28.962  41.799  13.386
65623W        W26989  37.968  31.615   2.292
65624W        W26990  19.146   7.217   3.717
65625W        W26991  38.963  42.408   1.892
65626W        W26992  11.311  28.151  12.414
65627W        W26993  29.600  36.378   3.320
65628W        W26994  44.475  39.506   0.435
65629W        W26995   2.919  44.471  11.381
65630W        W26996  15.111  12.277  11.552
65631W        W26997  41.409  26.089  13.472
65632W        W26998  28.502  27.661   2.827
65633W        W26999  20.077  30.122  10.506
65634W        W27000  26.496  18.177   3.802
65635W        W27001  39.514  37.390   4.229
65636W        W27002  35.992  38.347   4.322
65637W        W27003   1.273  33.972  14.924
65638W        W27004  13.627  35.500  14.397
65639W        W27005  38.568   8.235   4.179
65640W        W27006  44.330  15.798  12.049
65641W        W27007  11.806  20.604  11.990
65642W        W27008  28.667   2.756   4.212
65643W        W27009  36.874   6.893   3.636
65644W        W27010  28.182  29.500   4.209
65645W        W27011  20.682   7.227  14.839
65646W        W27012  20.636  24.535   3.761
65647W        W27013  36.366  32.470  11.050
65648W        W27014  13.268  23.687   2.691
65649W        W27015  24.698  26.553   1.376
65650W        W27016  36.982  29.986   1.865
65651W        W27017  33.080  39.921  12.034
65652W        W27018   4.449  13.795   1.349
65653W        W27019  29.609  13.253   2.265
65654W        W27020  27.575   1.977   4.185
65655W        W27021  35.855  26.079  14.023
65656W        W27022   3.954  41.966   3.653
65657W        W27023  24.212  15.268   0.803
65658W        W27024  30.148  44.285   2.374
65659W        W27025  10.321  23.726  14.434
65660W        W27026  39.849   6.914  11.540
65661W        W27027  25.678  42.775   1.267
65662W        W27028   9.209  26.646  13.008
65663W        W27029  39.535  30.139  10.639
65664W        W27030   8.297  30.630   4.647
65665W        W27031  32.432  23.669   3.738
65666W        W27032  16.791   2.256  14.386
65667W        W27033  39.550  35.863  14.430
65668W        W27034   9.197  28.971   2.839
65669W        W27035  39.559  43.804  14.461
65670W        W27036  20.736   5.851   0.744
65671W        W27037  20.248  37.864  14.437
65672W        W27038  32.091  40.047  10.588
65673W        W27039   3.354   2.384  11.875
65674W        W27040   8.880  37.542   3.236
65675W        W27041  25.566  10.749   3.200
65676W        W27042  15.636  11.182  13.057
65677W        W27043  29.057  11.784  13.031
65678W        W27044   7.228  23.700   1.412
65679W        W27045   3.401  29.110  12.492
65680W        W27046  13.827  11.863  12.995
65681W        W27047  24.025  29.120   4.789
65682W        W27048  29.984   8.775   1.405
65683W        W27049  26.110  15.776   3.218
65684W        W27050  41.342  44.344   0.276
65685W        W27051  23.113  35.008   3.848
65686W        W27052  17.753  23.561   3.349
65687W        W27053   6.375  41.812   0.838
65688W        W27054  29.580  39.374   2.896
65689W        W27055  39.464  37.431   2.778
65690W        W27056  40.338  18.741   4.118
65691W        W27057  34.494  34.398   0.295
65692W        W27058  34.587  20.539   3.781
65693W        W27059  10.191   3.729   1.812
65694W        W27060  23.046  12.810   2.334
65695W        W27061  32.886  25.182   0.934
65696W        W27062  24.598  36.909   0.844
65697W        W27063  39.027  17.302  10.420
65698W        W27064  43.363  39.419  10.616
65699W        W27065  43.384  40.047   1.756
65700W        W27066  40.908  21.130  14.276
65701W        W27067  31.631  28.949  10.584
65702W        W27068   9.341  12.633   2.287
65703W        W27069  44.782  44.381   3.292
65704W        W27070   3.291  22.248   2.699
65705W        W27071  30.512  41.929  11.032
65706W        W27072  25.506  16.092  11.859
65707W        W27073  37.347  18.282  14.448
65708W        W27074  24.981  19.534   0.367
65709W        W27075   5.912  43.982   4.709
65710W        W27076  32.593  32.019   0.791
65711W        W27077  30.001  23.732   2.889
65712W        W27078  17.761  16.133  11.118
65713W        W27079  14.185   3.248   2.264
65714W        W27080  39.514  34.083   0.809
65715W        W27081  37.892  42.282   9.930
65716W        W27082  20.096  19.639   2.775
65717W        W27083   0.841  40.871  12.359
65718W        W27084  32.623  38.848   0.322
65719W        W27085  31.471  26.185   3.322
65720W        W27086  44.312   0.374   2.314
65721W        W27087  41.413  37.084  10.579
65722W        W27088  42.482  29.503  12.502
65723W        W27089  36.516  36.939  13.877
65724W        W27090  16.786  41.007   3.236
65725W        W27091  23.173  13.808  11.413
65726W        W27092  14.624   4.852   3.360
65727W        W27093  38.993   3.221  10.566
65728W        W27094   2.230   3.951  11.891
65729W        W27095  15.579  17.615   1.770
65730W        W27096   2.340   1.238  12.029
65731W        W27097  37.041   8.309  10.442
65732W        W27098  43.312   5.346   2.391
65733W        W27099  23.693  17.191  14.940
65734W        W27100  37.394  41.883   1.847
65735W        W27101  39.336  21.520   1.864
65736W        W27102  35.563  22.175  14.294
65737W        W27103  30.989  26.988   2.405
65738W        W27104   3.424   4.305   2.405
65739W        W27105   2.909  31.553  11.411
65740W        W27106  27.047  29.040   0.804
65741W        W27107  32.474   3.735   0.933
65742W        W27108   8.287  13.664   3.840
65743W        W27109  17.101  33.880  14.471
65744W        W27110  31.122  42.962   4.235
65745W        W27111  39.359  43.816   3.688
65746W        W27112   2.852  37.524  10.953
65747W        W27113  11.818  26.134  11.040
65748W        W27114  15.219  42.380   0.883
65749W        W27115  31.529   9.260  12.525
65750W        W27116  35.579  43.290   4.626
65751W        W27117  44.401  10.342   0.409
65752W        W27118   8.737   6.826   3.712
65753W        W27119  26.970   8.380  10.500
65754W        W27120  43.478  35.512   3.239
65755W        W27121  23.513  35.089   0.394
65756W        W27122  33.533  41.000   0.243
65757W        W27123  15.595  31.603   2.759
65758W        W27124   1.858  10.718  13.452
65759W        W27125   9.807  44.462  10.416
65760W        W27126   0.317  41.950  12.518
65761W        W27127   4.709  19.264   1.336
65762W        W27128  10.263  23.588   3.181
65763W        W27129  27.457  12.227   3.638
65764W        W27130  27.633  28.075  11.970
65765W        W27131   3.786  36.078   1.386
65766W        W27132  27.497  27.477   0.814
65767W        W27133   7.751  32.034  11.455
65768W        W27134  40.402  37.497  14.306
65769W        W27135  38.035  14.173  14.829
65770W        W27136  41.837  16.762   2.345
65771W        W27137  30.146  41.484   4.778
65772W        W27138  23.201  29.653  13.537
65773W        W27139  22.069  25.680   0.470
65774W        W27140  24.143  39.065  13.942
65775W        W27141  19.750  15.099   3.285
65776W        W27142   7.778  30.546   4.756
65777W        W27143  42.868  44.777  11.902
65778W        W27144  14.758  20.578   1.244
65779W        W27145  13.133  14.195  11.527
65780W        W27146  14.133  23.097   1.738
65781W        W27147   1.913  12.354  13.941
65782W        W27148  25.686  36.866   2.827
65783W        W27149  35.026   7.693  10.636
65784W        W27150   7.403  27.495  14.324
65785W        W27151  17.211  28.678  14.474
65786W        W27152  31.019   7.243  11.902
65787W        W27153  33.491  18.281   4.248
65788W        W27154  11.819  15.779  12.061
65789W        W27155   2.767   9.370   3.323
65790W        W27156  20.754  42.827   2.185
65791W        W27157  20.614  27.166   2.406
65792W        W27158   7.260   7.415  11.532
65793W        W27159  29.578   3.858   1.292
65794W        W27160  23.239  40.318  10.513
65795W        W27161  28.958  21.026   4.707
65796W        W27162  41.409  24.672  12.515
65797W        W27163   8.244  37.957   4.153
65798W        W27164   2.283  24.219  11.451
65799W        W27165  23.006  26.526  12.483
65800W        W27166  40.819  17.116  14.790
65801W        W27167  19.646  44.983  13.884
65802W        W27168  24.641  40.039   2.288
65803W        W27169  20.208  19.084  11.972
65804W        W27170  16.101  22.693  14.347
65805W        W27171   6.344   4.277  10.465
65806W        W27172   6.253  38.981   1.313
65807W        W27173  37.997  18.559  12.424
65808W        W27174  22.511  11.140   2.899
65809W        W27175   3.945  14.605  14.280
65810W        W27176  15.095   1.480  13.926
65811W        W27177  39.410  41.827  13.026
65812W        W27178  31.055  37.416  10.993
65813W        W27179  23.007   5.365   5.082
65814W        W27180  41.373   2.452   2.382
65815W        W27181   8.685  16.122   0.837
65816W        W27182  19.276  12.354   0.424
65817W        W27183  11.287  38.459   1.265
65818W        W27184  44.388  20.557   2.415
65819W        W27185  23.049  42.902  13.489
65820W        W27186  29.066  26.058  10.076
65821W        W27187  36.022  36.931  12.381
65822W        W27188  17.298  17.601   1.277
65823W        W27189   2.935   2.430   2.241
65824W        W27190   0.806  13.267   3.798
65825W        W27191   5.361   2.899   3.669
65826W        W27192   7.188   8.394   2.199
65827W        W27193  32.053   4.906   0.473
65828W        W27194   7.283  42.480   2.258
65829W        W27195   3.952   0.818   1.881
65830W        W27196  40.429  15.294  12.435
65831W        W27197  21.160  39.458  11.924
65832W        W27198   0.965  21.516  10.542
65833W        W27199  22.513   8.840  12.557
65834W        W27200   2.365  18.755  14.403
65835W        W27201   9.845   1.324   3.216
65836W        W27202   6.837   1.837   3.146
65837W        W27203  15.284  33.914  11.552
65838W        W27204   0.973   3.744   2.729
65839W        W27205   2.855  29.580  13.008
65840W        W27206  11.721  32.909   9.514
65841W        W27207   1.275  28.145  12.082
65842W        W27208  40.828   2.288   3.274
65843W        W27209  28.676  29.043  14.338
65844W        W27210  44.897  44.933   2.268
65845W        W27211  40.847  12.798  14.498
65846W        W27212  43.813   8.855   4.667
65847W        W27213  18.729  42.783  10.038
65848W        W27214  32.599  15.740  12.380
65849W        W27215  14.712  17.236   3.805
65850W        W27216  39.491  34.067  11.049
65851W        W27217  20.092   0.323   4.658
65852W        W27218  30.419   7.218  13.506
65853W        W27219  26.629  43.971   2.786
65854W        W27220   2.772  28.437   0.264
65855W        W27221  42.833  39.840   2.326
65856W        W27222  21.101  42.783   2.863
65857W        W27223  27.169  39.398   0.265
65858W        W27224   0.268  24.992   0.785
65859W        W27225   4.432  32.914   0.445
65860W        W27226  27.600  19.687  14.790
65861W        W27227  31.079  40.945   4.615
65862W        W27228  19.559   9.807  11.115
65863W        W27229  25.039  19.689  10.480
65864W        W27230  21.105  38.867  13.802
65865W        W27231  37.873  38.879   4.725
65866W        W27232  11.820  37.442   2.888
65867W        W27233  16.648  42.509  12.937
65868W        W27234  40.532  14.821   2.373
65869W        W27235  44.369  27.976  14.985
65870W        W27236  26.180  13.246   4.819
65871W        W27237  14.621  20.030  14.287
65872W        W27238  37.517  40.844   1.296
65873W        W27239  44.445  23.557  14.984
65874W        W27240  27.578   0.428   1.311
65875W        W27241   1.769  30.015   2.716
65876W        W27242  40.485  34.541   1.779
65877W        W27243  25.555  22.731   3.221
65878W        W27244  25.528   5.385  12.490
65879W        W27245  35.016  27.011   4.151
65880W        W27246  20.724  28.616  10.614
65881W        W27247  38.820  39.485   0.833
65882W        W27248  30.558  13.841   3.629
65883W        W27249  19.234   2.784  12.454
65884W        W27250  35.067  31.460   2.776
65885W        W27251  13.252  21.642   1.390
65886W        W27252  39.523  42.427  13.855
65887W        W27253  41.510   2.755  12.553
65888W        W27254   6.909   2.959  14.472
65889W        W27255  31.405  34.061   2.327
65890W        W27256  29.936   4.439   0.333
65891W        W27257   9.740  21.106  13.989
65892W        W27258  13.701   9.156   3.760
65893W        W27259   4.383  15.207  11.075
65894W        W27260  41.904  42.516  10.908
65895W        W27261   3.382  39.533  11.374
65896W        W27262  17.140  22.644  13.402
65897W        W27263  20.681  32.436   1.846
65898W        W27264   5.829  19.721   4.648
65899W        W27265  33.558  25.645   1.401
65900W        W27266   3.784  35.080   1.426
65901W        W27267  43.816  21.209   2.850
65902W        W27268   4.322  22.085  14.370
65903W        W27269   9.667  15.175  11.053
65904W        W27270  12.244  38.051   1.901
65905W        W27271  16.583  21.662  14.914
65906W        W27272   4.326  20.076  12.971
65907W        W27273  23.017   9.783   1.921
65908W        W27274  33.551  12.128  12.449
65909W        W27275  21.536  22.545  14.010
65910W        W27276  34.961   8.368  14.276
65911W        W27277  25.633  44.283   4.817
65912W        W27278  44.827   6.326   4.731
65913W        W27279  41.420   4.904  11.019
65914W        W27280  17.728  15.789   3.722
65915W        W27281  21.734  32.907   5.596
65916W        W27282  40.842  29.557  10.923
65917W        W27283  42.333   1.773  11.124
65918W        W27284   7.809  19.778  11.564
65919W        W27285  26.120  38.407  14.479
65920W        W27286   6.283   1.794  12.471
65921W        W27287   9.360   2.930   4.613
65922W        W27288  38.549  13.340  11.529
65923W        W27289  24.230  11.815   1.808
65924W        W27290  13.269   8.738   2.882
65925W        W27291   4.892  44.300   0.250
65926W        W27292  23.650  27.150   1.921
65927W        W27293  23.071   1.771   1.821
65928W        W27294   9.372  33.882  14.928
65929W        W27295   3.805  19.132  11.423
65930W        W27296  12.228   7.406  13.982
65931W        W27297  36.364  44.799   1.344
65932W        W27298  39.328   0.312  12.494
65933W        W27299   6.295  27.676  13.335
65934W        W27300  18.170  32.913   1.242
65935W        W27301   9.666  11.141  12.941
65936W        W27302  38.332  32.070   0.264
65937W        W27303   8.826  12.242  14.889
65938W        W27304  28.027  16.568  12.436
65939W        W27305  43.480  25.122  13.371
65940W        W27306  43.846  27.606   0.272
65941W        W27307  12.743  40.838  11.529
65942W        W27308  41.928  23.148  11.478
65943W        W27309   0.472  41.860   4.154
65944W        W27310  14.611   3.219   1.339
65945W        W27311   8.200  18.727  14.486
65946W        W27312   4.719  27.529   9.939
65947W        W27313  18.160   1.448  14.850
65948W        W27314  23.549  34.005   9.652
65949W        W27315  37.924  28.558  10.946
65950W        W27316  39.322  13.125  12.936
65951W        W27317  22.249  31.970   2.199
65952W        W27318  13.666  22.022   0.439
65953W        W27319  26.564  25.523   3.286
65954W        W27320  21.158  26.628   2.841
65955W        W27321  27.131   4.898  13.010
65956W        W27322  40.930   1.963  10.896
65957W        W27323  18.049  41.964   2.778
65958W        W27324   4.342  33.431  11.875
65959W        W27325  15.136  13.285  13.935
65960W        W27326  32.009   9.291  11.532
65961W        W27327   1.783  36.433   4.740
65962W        W27328  35.397  34.964   0.264
65963W        W27329  36.873  37.079   0.744
65964W        W27330   2.777  23.085  14.915
65965W        W27331  13.341  31.585   4.689
65966W        W27332  12.747  29.947  14.794
65967W        W27333  39.057   3.219  12.577
65968W        W27334  18.069  41.436  14.429
65969W        W27335   3.938  13.840   5.606
65970W        W27336  44.484  43.445   1.711
65971W        W27337  14.109  39.539  13.889
65972W        W27338  12.200  22.168  11.534
65973W        W27339   5.275  30.433   4.635
65974W        W27340  29.164   0.345  12.955
65975W        W27341   5.875  36.084   0.334
65976W        W27342  32.498  33.094  12.555
65977W        W27343  41.381  12.297  10.989
65978W        W27344   2.289  42.799   3.274
65979W        W27345  38.372   9.682   1.929
65980W        W27346   9.203  12.663  11.990
65981W        W27347  26.968  36.462  10.448
65982W        W27348  10.758  38.363   4.645
65983W        W27349  35.039   9.185  14.384
65984W        W27350  11.188  31.611   3.348
65985W        W27351  32.960   5.403  11.859
65986W        W27352  17.108   0.291   2.800
65987W        W27353  22.168  37.438  12.408
65988W        W27354  33.550   3.784  12.081
65989W        W27355   5.695  18.191  13.492
65990W        W27356   4.345  26.965  12.860
65991W        W27357   3.401   4.757   4.610
65992W        W27358  17.199  19.080   0.916
65993W        W27359  24.679  44.341  14.311
65994W        W27360  13.346   7.214   3.274
65995W        W27361  12.636  28.471  12.083
65996W        W27362  20.715  35.066  14.452
65997W        W27363  12.258  18.201  12.470
65998W        W27364  43.834  15.803   4.757
65999W        W27365  43.794  20.573   2.865
66000W        W27366  41.040  32.122  14.873
66001W        W27367  38.853  28.675   0.415
66002W        W27368  38.997  16.717   0.942
66003W        W27369  29.445  14.766   0.818
66004W        W27370  39.331   7.825  12.092
66005W        W27371  41.891  39.517  13.501
66006W        W27372   8.300  24.562   4.793
66007W        W27373  34.116   5.700  13.794
66008W        W27374   3.290  43.339   4.777
66009W        W27375  44.927  33.089   3.344
66010W        W27376   9.308   7.175  12.940
66011W        W27377  19.042   9.329   2.387
66012W        W27378   0.755  24.628   2.349
66013W        W27379   4.232  25.162   2.702
66014W        W27380  17.676  24.650  14.872
66015W        W27381  33.971  34.909  14.009
66016W        W27382  11.313  41.531   3.218
66017W        W27383  40.940  37.465  12.075
66018W        W27384   6.213  24.013  14.790
66019W        W27385  24.093  16.287  11.990
66020W        W27386  24.513   8.795   2.191
66021W        W27387  18.651  31.543  12.375
66022W        W27388  19.736  36.981  11.105
66023W        W27389   7.861  20.090   4.747
66024W        W27390  42.866  20.154  14.313
66025W        W27391   7.768   3.405   4.297
66026W        W27392  29.632   1.899  14.315
66027W        W27393  44.478  16.783  12.874
66028W        W27394  14.701  44.296   4.731
66029W        W27395  15.160   7.227  11.559
66030W        W27396   1.840  17.558  14.905
66031W        W27397   3.935  31.933  12.489
66032W        W27398  22.716   4.827  12.523
66033W        W27399   8.729   7.282  14.799
66034W        W27400  22.250   5.271  12.093
66035W        W27401   7.340  33.874  13.799
66036W        W27402  34.901  31.925  12.017
66037W        W27403  24.504  22.209  13.511
66038W        W27404  25.064  35.854  11.508
66039W        W27405  41.537  29.926   3.263
66040W        W27406  26.205   0.418  10.572
66041W        W27407  32.424   7.311  12.927
66042W        W27408  33.019  19.780   5.109
66043W        W27409  41.517  28.947  12.874
66044W        W27410  24.175  33.970   1.221
66045W        W27411  39.485  27.180  14.904
66046W        W27412  37.357  32.449   1.771
66047W        W27413  19.622  29.588  14.899
66048W        W27414  17.189  30.040   0.837
66049W        W27415  19.565  22.580  13.952
66050W        W27416  23.667  41.024  10.498
66051W        W27417  33.069  19.107  10.542
66052W        W27418   7.893  19.273   3.384
66053W        W27419  10.771  30.603  10.453
66054W        W27420  32.406  42.413  12.037
66055W        W27421   6.392  14.132  13.354
66056W        W27422   8.842  35.925   2.823
66057W        W27423  10.226  27.987   4.132
66058W        W27424  38.021  34.494  14.773
66059W        W27425  39.429  31.567   2.410
66060W        W27426  12.218  14.748   2.703
66061W        W27427   1.295   8.688  12.353
66062W        W27428  29.174   9.865   3.839
66063W        W27429   5.852   5.931   1.300
66064W        W27430  23.521  29.086  14.369
66065W        W27431  22.727  26.022   2.229
66066W        W27432  21.622  27.480  11.486
66067W        W27433  17.251   3.830  14.961
66068W        W27434  13.761  28.671   4.128
66069W        W27435   0.382  23.034   0.305
66070W        W27436  20.651  14.118  11.937
66071W        W27437  24.158  13.162  14.347
66072W        W27438  19.219  40.999  14.854
66073W        W27439   5.335  36.977  13.015
66074W        W27440   8.366  25.622  11.458
66075W        W27441  24.534  32.599  11.952
66076W        W27442  21.034  35.393  14.346
66077W        W27443  16.800  22.630  13.791
66078W        W27444   9.872  41.905   3.270
66079W        W27445  32.115  28.439   2.764
66080W        W27446  14.166  32.449   5.094
66081W        W27447  31.535   9.301  14.497
66082W        W27448   6.223   3.447  13.988
66083W        W27449   5.261  43.828  14.395
66084W        W27450  15.726   6.858  14.839
66085W        W27451  41.480  18.174   3.870
66086W        W27452   9.372  31.588  12.410
66087W        W27453  10.323  31.897  10.905
66088W        W27454  22.169  31.405   4.347
66089W        W27455   3.940  28.940   5.203
66090W        W27456  30.919  40.006   4.226
66091W        W27457  20.651  23.119  13.483
66092W        W27458  37.340  38.842  11.941
66093W        W27459  20.743  12.770   0.905
66094W        W27460   1.968  12.746  13.043
66095W        W27461  11.217  35.485  10.956
66096W        W27462  14.634  40.805   3.195
66097W        W27463  15.183   6.830   4.805
66098W        W27464   6.794  10.800   2.365
66099W        W27465   9.675  37.574   1.875
66100W        W27466   1.400   3.345  14.293
66101W        W27467  18.739   8.349   1.889
66102W        W27468  23.528  22.252   1.710
66103W        W27469  37.474  13.678   4.713
66104W        W27470  18.115  25.083  14.442
66105W        W27471   6.342  37.014   3.298
66106W        W27472  36.975  11.846  13.885
66107W        W27473   6.841  43.910   0.825
66108W        W27474  29.028  41.476  14.815
66109W        W27475  20.661  36.841   2.875
66110W        W27476  31.070  12.187  14.898
66111W        W27477  44.296   3.841  12.887
66112W        W27478  24.175  23.529   3.363
66113W        W27479  15.196  41.026  14.973
66114W        W27480  37.929  35.957   0.469
66115W        W27481  14.335  40.961  11.057
66116W        W27482  17.638  39.559   0.883
66117W        W27483  39.413  16.142  10.590
66118W        W27484  10.296   9.158  13.362
66119W        W27485  14.653  35.945  14.347
66120W        W27486  10.646  37.921  12.532
66121W        W27487   0.923   9.323   4.185
66122W        W27488   0.350  27.131  10.490
66123W        W27489  24.190  24.058  13.863
66124W        W27490  37.968  43.015  13.341
66125W        W27491   8.819  12.127  13.840
66126W        W27492  29.008  18.276  12.905
66127W        W27493   1.943  32.489  13.049
66128W        W27494  24.118  21.662   3.854
66129W        W27495   2.265   9.199  12.409
66130W        W27496  10.375  35.584  14.435
66131W        W27497  16.216  38.848  14.868
66132W        W27498  44.822  43.799  14.919
66133W        W27499  25.143  37.480   4.160
66134W        W27500  21.135  19.724  14.436
66135W        W27501  40.950  33.960   2.314
66136W        W27502  13.233  23.057  11.400
66137W        W27503   5.314  31.627  12.522
66138W        W27504   7.408  42.782   1.825
66139W        W27505  17.249  33.395   4.299
66140W        W27506   4.725   5.831  14.420
66141W        W27507  15.748   4.726   4.607
66142W        W27508  35.063  13.800  13.890
66143W        W27509  26.202   1.907   4.283
66144W        W27510   4.737  35.902   3.803
66145W        W27511  26.687  36.384   3.744
66146W        W27512  42.337  27.449  13.872
66147W        W27513   8.688  20.122  10.543
66148W        W27514  29.436  35.992  14.784
66149W        W27515  25.632   0.952   4.116
66150W        W27516   6.901  17.743  14.797
66151W        W27517  15.700  42.877   9.948
66152W        W27518  19.700   1.911  10.050
66153W        W27519  41.428  13.164   2.888
66154W        W27520   3.232  33.624   0.786
66155W        W27521  10.719  10.744  14.504
66156W        W27522   2.351  29.630   1.357
66157W        W27523  38.348  33.909  14.911
66158W        W27524   7.689  44.269   0.411
66159W        W27525  39.010  33.111  11.014
66160W        W27526   7.248   0.866  14.315
66161W        W27527  17.615  12.751  13.028
66162W        W27528  30.962  24.132  10.522
66163W        W27529  19.539  39.910   2.323
66164W        W27530  26.598   4.438   1.335
66165W        W27531  35.419   1.321  14.487
66166W        W27532  35.877  34.972   4.606
66167W        W27533   6.273  40.481  13.358
66168W        W27534  31.012  27.010   3.207
66169W        W27535  14.272  43.325   1.914
66170W        W27536  10.194  32.487   1.340
66171W        W27537  35.470  44.762  14.808
66172W        W27538  16.195   5.855   1.733
66173W        W27539  38.965  29.536  12.539
66174W        W27540  35.370  38.452  11.937
66175W        W27541  29.638   9.881   2.336
66176W        W27542  27.081  17.267   2.797
66177W        W27543   7.765  23.632  13.377
66178W        W27544  19.684  27.009  13.403
66179W        W27545  40.843  11.170  11.392
66180W        W27546  35.545   1.792   4.677
66181W        W27547  36.056  25.006  10.977
66182W        W27548   5.357  11.646  10.017
66183W        W27549  22.671  39.039   2.804
66184W        W27550   9.340  11.363  14.494
66185W        W27551  38.922  30.544  13.482
66186W        W27552  28.547   1.381  14.929
66187W        W27553  32.424  36.537  12.438
66188W        W27554  26.094   1.287  13.036
66189W        W27555  11.816  24.588   0.923
66190W        W27556  41.990   0.474   4.230
66191W        W27557  23.731  31.409  11.512
66192W        W27558  25.555   3.955   3.209
66193W        W27559   4.754   8.853   4.334
66194W        W27560  29.462  22.170  14.000
66195W        W27561  36.988   7.268  14.018
66196W        W27562  38.883   8.347   9.938
66197W        W27563  29.519  35.057   3.716
66198W        W27564   3.344   3.377   0.242
66199W        W27565  12.217  25.039   1.248
66200W        W27566  17.129  35.992   1.910
66201W        W27567  43.450  37.496   4.142
66202W        W27568  29.480   1.791   0.852
66203W        W27569  34.929  44.936   0.901
66204W        W27570  41.934  20.681   1.699
66205W        W27571  37.372   1.390   0.246
66206W        W27572  25.594   8.293   1.799
66207W        W27573  43.513  42.418   0.897
66208W        W27574  10.167  15.089   0.885
66209W        W27575  37.491  44.466  14.513
66210W        W27576   1.836  18.689   1.752
66211W        W27577  23.583  18.151  14.943
66212W        W27578  22.723  20.534   3.828
66213W        W27579  35.106  11.213   2.830
66214W        W27580   7.302  28.512  12.988
66215W        W27581  27.657  44.502  13.041
66216W        W27582   7.362  14.630  10.988
66217W        W27583  27.527  33.905   3.334
66218W        W27584  15.199  25.574   4.674
66219W        W27585  40.963   7.700   0.739
66220W        W27586  31.098  21.556  11.864
66221W        W27587  35.917  39.035  14.988
66222W        W27588  23.019  28.089   1.290
66223W        W27589   7.683  43.465   1.293
66224W        W27590  14.703   2.283   3.713
66225W        W27591  33.889  34.958  12.965
66226W        W27592  35.553  32.946  11.119
66227W        W27593  43.978   4.356   2.259
66228W        W27594  36.007  12.132   2.772
66229W        W27595  44.323  36.348  12.988
66230W        W27596   9.776  21.238  14.381
66231W        W27597  15.245  41.975   1.900
66232W        W27598  40.463  16.624   2.898
66233W        W27599  12.252   3.251   0.855
66234W        W27600   6.414  27.957   2.683
66235W        W27601   9.794   3.871   3.187
66236W        W27602  33.434  40.926   2.879
66237W        W27603   7.350   5.884  11.894
66238W        W27604  43.787  36.075  12.870
66239W        W27605  23.240   9.233  10.459
66240W        W27606  38.514  26.195   2.269
66241W        W27607  10.828  41.920   1.706
66242W        W27608  39.368   7.860   1.341
66243W        W27609   1.859  29.476   1.772
66244W        W27610  28.482  33.558   4.244
66245W        W27611  32.519  31.490  10.934
66246W        W27612  42.309  34.427  11.929
66247W        W27613   0.834  13.644  14.382
66248W        W27614  18.650  24.153  13.510
66249W        W27615   3.459  20.678  14.302
66250W        W27616  11.267  22.099   3.288
66251W        W27617  36.051  44.385  11.452
66252W        W27618  27.612  20.112  10.132
66253W        W27619  23.000  24.051  14.962
66254W        W27620  42.961  32.529  10.612
66255W        W27621  15.660  44.969  13.013
66256W        W27622  32.976  13.199   2.396
66257W        W27623  23.720  20.143   2.867
66258W        W27624  24.163  26.505  11.031
66259W        W27625  31.441  17.760   2.689
66260W        W27626  28.112  24.618  12.568
66261W        W27627  34.564  12.238  10.945
66262W        W27628  38.933  37.072  10.932
66263W        W27629  41.503  35.456   0.937
66264W        W27630  15.187  13.721  11.096
66265W        W27631  28.601  32.569   0.247
66266W        W27632  34.478   2.278   4.733
66267W        W27633  10.644  37.465  13.008
66268W        W27634  26.613  38.462  12.555
66269W        W27635  25.534   9.248  14.336
66270W        W27636  35.958  16.295   2.679
66271W        W27637  43.803  41.391   0.293
66272W        W27638  27.039  26.584  13.937
66273W        W27639  39.824  26.467  10.536
66274W        W27640   1.810  15.145  11.092
66275W        W27641  21.127  24.124  14.022
66276W        W27642  31.485  27.604   3.841
66277W        W27643  37.499  15.104   1.759
66278W        W27644  14.274   2.796  12.928
66279W        W27645   3.856  21.138   3.711
66280W        W27646  24.005   0.976   4.607
66281W        W27647  14.684  36.592   3.342
66282W        W27648  28.097  12.642  11.381
66283W        W27649  39.554   8.663  13.423
66284W        W27650   7.385  10.260  12.447
66285W        W27651  22.628  23.688  14.996
66286W        W27652  28.020  28.939   0.318
66287W        W27653   5.823   2.407  14.925
66288W        W27654  20.179   6.184   2.794
66289W        W27655   4.215  12.689  13.040
66290W        W27656  23.043  31.481  13.363
66291W        W27657  22.504  34.876   3.697
66292W        W27658   3.387  38.489  14.503
66293W        W27659  17.291   6.899  10.470
66294W        W27660  10.383  20.158  12.545
66295W        W27661  12.644  32.972  11.424
66296W        W27662   8.661  24.089   1.355
66297W        W27663  28.681  41.890   1.754
66298W        W27664  17.660   7.838  12.430
66299W        W27665  23.215  26.951   2.255
66300W        W27666  22.687  29.536   9.927
66301W        W27667   4.788  27.952   0.859
66302W        W27668   8.234  38.517   3.321
66303W        W27669  39.328  44.993   1.754
66304W        W27670   3.360  12.771   4.598
66305W        W27671   5.377  44.300   0.756
66306W        W27672  38.030  26.198   4.261
66307W        W27673  20.586  26.026  14.314
66308W        W27674  40.425  17.128  10.105
66309W        W27675  20.611   4.259  14.787
66310W        W27676  33.966   0.819  14.770
66311W        W27677  17.077   4.909   2.661
66312W        W27678  34.924  41.885   0.262
66313W        W27679  21.208  43.419   2.222
66314W        W27680   9.296  34.109   4.289
66315W        W27681  44.406  23.547   1.369
66316W        W27682  43.478  33.423  11.976
66317W        W27683  22.683   5.223  10.153
66318W        W27684  17.721  24.124   3.709
66319W        W27685  12.752  42.944  10.971
66320W        W27686  27.652  23.027   3.714
66321W        W27687  31.144  29.567  13.960
66322W        W27688  32.608   8.340   3.780
66323W        W27689   2.451  19.277  13.031
66324W        W27690  23.090  26.990  11.949
66325W        W27691   3.412   0.299   0.275
66326W        W27692  42.009  39.324   2.372
66327W        W27693  22.621  11.148  13.415
66328W        W27694  34.896  29.036  11.481
66329W        W27695  13.746  30.040   0.755
66330W        W27696  37.035  35.020  12.855
66331W        W27697  28.478  40.828   0.415
66332W        W27698  14.133  19.694   4.199
66333W        W27699  41.399  27.551   1.330
66334W        W27700   0.475  35.993   1.241
66335W        W27701  44.796  39.453  10.523
66336W        W27702  17.717  12.801  11.089
66337W        W27703  27.175  20.739   1.816
66338W        W27704  34.934  31.024  12.351
66339W        W27705  30.102  22.554  13.443
66340W        W27706  33.491  41.961  10.891
66341W        W27707  25.526   0.783  13.421
66342W        W27708  19.258   9.170  12.850
66343W        W27709  42.809  17.183  14.369
66344W        W27710  23.569  21.547  12.094
66345W        W27711  42.384   5.337   4.231
66346W        W27712  22.131  37.418  14.797
66347W        W27713  37.036  34.933  14.958
66348W        W27714   6.784  42.399   3.199
66349W        W27715  35.067  31.514  14.759
66350W        W27716  38.432  27.589   0.413
66351W        W27717   2.934  17.231   1.714
66352W        W27718   2.470   6.795   0.267
66353W        W27719  18.686  24.563   4.629
66354W        W27720  25.668  35.470  13.517
66355W        W27721   9.699   7.389  12.557
66356W        W27722  40.828   3.436   0.480
66357W        W27723  30.911  30.071   0.438
66358W        W27724  13.722  40.008   3.649
66359W        W27725  37.871  30.044   2.294
66360W        W27726  14.148  21.687  14.427
66361W        W27727  24.704  32.056   3.722
66362W        W27728  37.843  36.439  11.956
66363W        W27729  31.001  19.714   0.477
66364W        W27730   6.355  21.662   1.315
66365W        W27731   9.242  32.911   2.873
66366W        W27732  40.357   2.823   4.181
66367W        W27733  18.681  31.090   2.897
66368W        W27734   1.961   5.720   2.726
66369W        W27735  32.119  31.440  14.808
66370W        W27736   7.769  16.208  13.408
66371W        W27737  22.601  26.952   3.854
66372W        W27738  44.433   7.415  14.997
66373W        W27739  40.363  23.732  11.943
66374W        W27740   3.344   2.843  11.861
66375W        W27741  34.027  20.705   3.761
66376W        W27742   4.940  37.581  10.511
66377W        W27743   3.301  21.565  11.418
66378W        W27744   0.418  25.093  13.023
66379W        W27745  39.894  27.015   4.678
66380W        W27746  17.766  24.549   0.292
66381W        W27747  18.695   0.370  10.102
66382W        W27748  22.524   9.733  11.968
66383W        W27749  26.207  39.871   4.782
66384W        W27750   6.183  10.800  12.004
66385W        W27751   9.292   6.903  11.511
66386W        W27752   8.310  32.964   3.371
66387W        W27753  42.294  32.083   4.778
66388W        W27754   7.781  26.642   3.686
66389W        W27755  42.016  37.449   0.878
66390W        W27756  31.931  33.511  13.005
66391W        W27757   8.347  36.946   4.173
66392W        W27758   9.311  23.637  14.890
66393W        W27759  31.552  44.993  12.995
66394W        W27760  40.429  26.672   4.149
66395W        W27761  20.151  20.149   2.325
66396W        W27762   4.859   9.164   2.240
66397W        W27763  40.039  25.650   4.762
66398W        W27764  22.533   0.454  14.316
66399W        W27765  39.052  15.304  13.840
66400W        W27766  14.271  39.430   0.942
66401W        W27767  15.616  32.942   3.306
66402W        W27768  17.240  10.793  13.332
66403W        W27769  31.518  11.631   4.141
66404W        W27770  15.153   8.293   4.256
66405W        W27771  11.177  43.009  13.487
66406W        W27772  38.015   8.323   2.830
66407W        W27773   2.815  11.208   4.228
66408W        W27774  21.069  24.533   1.336
66409W        W27775   9.333  38.820   1.841
66410W        W27776   1.760  13.633  11.944
66411W        W27777  40.535  37.554   5.306
66412W        W27778  39.454  28.473   1.860
66413W        W27779  27.117  23.108  13.344
66414W        W27780   8.182  30.142  14.987
66415W        W27781  16.313   3.451   2.804
66416W        W27782   4.344  38.892   4.211
66417W        W27783   6.293  17.637   4.124
66418W        W27784  21.250  19.080  13.315
66419W        W27785  16.605  13.817  12.090
66420W        W27786  11.302  12.669   2.672
66421W        W27787   4.426  44.798   4.623
66422W        W27788   1.760  31.567   4.253
66423W        W27789  29.477  43.437   2.752
66424W        W27790  10.808  20.750  12.904
66425W        W27791  20.085  35.480   2.337
66426W        W27792  39.050  38.357   2.359
66427W        W27793  22.015  31.908  10.597
66428W        W27794  42.842  36.843   0.794
66429W        W27795  23.186   7.853   2.767
66430W        W27796   7.686  18.706   0.289
66431W        W27797  11.291   7.192   0.268
66432W        W27798  12.294  31.066  10.444
66433W        W27799  35.873  26.146  12.872
66434W        W27800  35.428   2.775  13.829
66435W        W27801   5.757   8.841   0.354
66436W        W27802  32.066  32.503   1.442
66437W        W27803  17.269  30.031  14.885
66438W        W27804  34.081  10.370   3.312
66439W        W27805  31.105  36.064  13.908
66440W        W27806  20.159   7.823  13.322
66441W        W27807  15.317  44.343  14.455
66442W        W27808  39.854   5.277  13.984
66443W        W27809   4.883  24.997  13.996
66444W        W27810  24.483  28.081  12.523
66445W        W27811  12.630  23.042   4.216
66446W        W27812  15.651  17.167   3.711
66447W        W27813  16.670  14.663   3.653
66448W        W27814  36.377  30.535  10.566
66449W        W27815  42.427   9.714  13.535
66450W        W27816  28.606   0.859   0.945
66451W        W27817  15.203  25.636  14.344
66452W        W27818  33.399   7.341  13.959
66453W        W27819  18.653   9.680  13.455
66454W        W27820  44.435   5.777   3.175
66455W        W27821  29.573  26.598   4.132
66456W        W27822  18.725   2.230  13.973
66457W        W27823  12.710  24.206   2.325
66458W        W27824   9.664  19.165   0.406
66459W        W27825  40.531  37.424  10.940
66460W        W27826   8.343  19.169  13.454
66461W        W27827   5.772  22.233  12.002
66462W        W27828  43.988  24.590  10.934
66463W        W27829  32.517   6.281  12.479
66464W        W27830  38.421  20.243   2.832
66465W        W27831  19.627   4.407   4.729
66466W        W27832  10.237  22.014  10.617
66467W        W27833  21.026  17.253   1.375
66468W        W27834   9.882  29.925   3.233
66469W        W27835  30.959  28.623   3.184
66470W        W27836  28.522  27.193   0.857
66471W        W27837  16.697  31.076  11.106
66472W        W27838  27.460  19.749   3.712
66473W        W27839  37.456  19.554   2.841
66474W        W27840  34.543   0.807  12.557
66475W        W27841   0.265  18.744  11.122
66476W        W27842  13.707  32.056  12.860
66477W        W27843   4.274  34.893  12.008
66478W        W27844  42.993  36.497   5.128
66479W        W27845   0.355  19.198  13.837
66480W        W27846  42.335  37.851  12.027
66481W        W27847  22.098  41.840  10.567
66482W        W27848  20.260  38.550  14.443
66483W        W27849  10.668  16.143  13.902
66484W        W27850  28.998  18.071   0.451
66485W        W27851  26.470  42.821   4.281
66486W        W27852  10.830   2.397   1.273
66487W        W27853  41.821   5.721  12.493
66488W        W27854  24.059  39.933  14.856
66489W        W27855  25.477  24.510  13.447
66490W        W27856  10.141  27.631  10.487
66491W        W27857  19.567   2.777  12.363
66492W        W27858  16.180  13.839  13.898
66493W        W27859  29.577   4.766   1.318
66494W        W27860  38.472  37.081  12.062
66495W        W27861   5.231   7.692  11.400
66496W        W27862  18.564  13.791   1.221
66497W        W27863  32.437  31.594   2.188
66498W        W27864  16.081  14.098  14.301
66499W        W27865   7.222  40.993  14.454
66500W        W27866  19.591  39.816   4.823
66501W        W27867  40.383  16.581   0.879
66502W        W27868  27.063  36.378  11.082
66503W        W27869   3.397  41.973  11.507
66504W        W27870  19.040   7.829  11.925
66505W        W27871  14.184  18.078  11.934
66506W        W27872  16.251  17.292   0.742
66507W        W27873  34.070  11.631  13.337
66508W        W27874  21.696  37.500  14.906
66509W        W27875  20.732  13.180  14.800
66510W        W27876  25.706  29.159   2.365
66511W        W27877  27.567  38.900  13.042
66512W        W27878  43.498  38.528  13.334
66513W        W27879  31.934  29.986   1.310
66514W        W27880   4.348  25.483  14.994
66515W        W27881  36.017   8.814  10.990
66516W        W27882  33.926  22.181   0.939
66517W        W27883  30.129  32.082   1.437
66518W        W27884  11.833   3.813   2.354
66519W        W27885  39.521  34.924   1.910
66520W        W27886  42.944   4.281   2.352
66521W        W27887  32.946   5.356  12.974
66522W        W27888  16.729   7.825  10.592
66523W        W27889   1.845  15.619   1.280
66524W        W27890  37.032  44.889   2.403
66525W        W27891  16.615  30.618  10.586
66526W        W27892  26.584  43.348   0.748
66527W        W27893  41.412  13.209   3.302
66528W        W27894  29.612  42.954   5.301
66529W        W27895  31.007  32.054   2.383
66530W        W27896  31.996  41.490  13.352
66531W        W27897  32.455   8.862  10.954
66532W        W27898  14.102  15.727  11.020
66533W        W27899  19.259  28.577  12.942
66534W        W27900   6.726  21.703  11.402
66535W        W27901   1.428   1.400  12.081
66536W        W27902   8.197   5.320  12.459
66537W        W27903  10.705  18.593  14.856
66538W        W27904  26.566  26.613  13.981
66539W        W27905  16.772  21.220  11.415
66540W        W27906  16.235  31.558  10.605
66541W        W27907   4.250  37.345  10.899
66542W        W27908  35.056   3.937   3.337
66543W        W27909  36.425   7.333  14.949
66544W        W27910  17.209  43.839  10.631
66545W        W27911  43.331  43.446  13.985
66546W        W27912  29.567  31.478  13.530
66547W        W27913   7.259  16.122   2.746
66548W        W27914  30.949  18.679  13.888
66549W        W27915  17.569  34.057  13.390
66550W        W27916   3.313  42.864  11.581
66551W        W27917  33.508   5.238   3.836
66552W        W27918   8.353  18.220   4.147
66553W        W27919  21.049  25.188   0.892
66554W        W27920  32.928   6.698  13.911
66555W        W27921   4.911   9.388   4.808
66556W        W27922   0.451  11.311  14.809
66557W        W27923  37.353  31.525  14.974
66558W        W27924  16.769  42.461   0.364
66559W        W27925  10.678  42.350   3.777
66560W        W27926  19.629  34.409  11.492
66561W        W27927  20.605  24.082  11.399
66562W        W27928  11.212  37.547   0.328
66563W        W27929  37.574  33.971   0.925
66564W        W27930  18.579   4.429   1.895
66565W        W27931  36.538   5.263  13.949
66566W        W27932  39.552  30.016   1.407
66567W        W27933  33.538   3.820   2.386
66568W        W27934  18.665  31.530   3.714
66569W        W27935  25.652  20.031   1.451
66570W        W27936  14.275  28.990   2.847
66571W        W27937  24.507  30.652   4.283
66572W        W27938  12.648  44.280  11.102
66573W        W27939  19.700  16.287   4.718
66574W        W27940  33.589  14.644   4.342
66575W        W27941   0.986  15.743  13.507
66576W        W27942  28.961  21.754   2.884
66577W        W27943   4.774  36.891   0.764
66578W        W27944  29.079   5.774   4.257
66579W        W27945  35.943  18.628  10.920
66580W        W27946  24.041  20.264  11.081
66581W        W27947   2.810  30.595   4.634
66582W        W27948   2.887  27.662  11.931
66583W        W27949  28.536  40.820  12.543
66584W        W27950   3.874  34.596   5.224
66585W        W27951  27.629  15.145  12.889
66586W        W27952  22.694  38.401  10.486
66587W        W27953  11.718  22.015   4.632
66588W        W27954  37.002  19.120  10.947
66589W        W27955  32.069   4.281   3.690
66590W        W27956  16.775  40.306  10.424
66591W        W27957   8.367  34.099   4.798
66592W        W27958  26.069  34.053  13.313
66593W        W27959  29.096  26.061  14.423
66594W        W27960   4.223  41.515   2.698
66595W        W27961  23.671  28.569   1.381
66596W        W27962  16.610   9.645  13.973
66597W        W27963  20.240   1.841  13.890
66598W        W27964   6.326  12.811  12.083
66599W        W27965  39.064  14.149  12.896
66600W        W27966  12.743  11.775   0.904
66601W        W27967   2.275   7.842  14.924
66602W        W27968   5.238  10.794  13.914
66603W        W27969  35.922   6.736  14.874
66604W        W27970   1.957  32.100  12.982
66605W        W27971   5.740  27.630   1.345
66606W        W27972  30.488  37.491   0.379
66607W        W27973  29.120  33.116   0.275
66608W        W27974  28.166   4.725   0.734
66609W        W27975  38.004  11.257  11.031
66610W        W27976  25.069  28.667   1.747
66611W        W27977  26.493   3.894   2.738
66612W        W27978  39.377  40.454   1.833
66613W        W27979  29.550  26.073   3.176
66614W        W27980  18.680  23.042  12.902
66615W        W27981  26.133  29.040   2.217
66616W        W27982   0.275   3.295   0.307
66617W        W27983  14.656  35.097  14.411
66618W        W27984  27.510  31.572   1.885
66619W        W27985  42.965  19.267   3.741
66620W        W27986  36.997  25.062   1.808
66621W        W27987  13.756   7.206  14.423
66622W        W27988  41.937  42.792  11.599
66623W        W27989  23.158  34.406  12.873
66624W        W27990  44.812   2.902  12.888
66625W        W27991   6.712  34.397   2.903
66626W        W27992   6.839   1.947   2.830
66627W        W27993  33.902  23.180  14.876
66628W        W27994  39.477  38.842  12.840
66629W        W27995  35.062  17.107   1.874
66630W        W27996  43.355   2.371   4.753
66631W        W27997  10.152  36.546  14.437
66632W        W27998  21.556  20.081  10.430
66633W        W27999  33.995  15.620   1.343
66634W        W28000  15.135  37.467   1.732
66635W        W28001  30.091   9.847  11.412
66636W        W28002  11.664  40.040   2.775
66637W        W28003  38.901  37.524   2.322
66638W        W28004  28.081  18.677   3.797
66639W        W28005   9.714  23.052  14.304
66640W        W28006   0.413  25.575  11.887
66641W        W28007   4.261  21.751   3.731
66642W        W28008  33.609   0.805  10.073
66643W        W28009  42.928  26.040   3.356
66644W        W28010   3.409  18.097  11.034
66645W        W28011  23.112   1.894  12.832
66646W        W28012   9.856  26.119   3.852
66647W        W28013  34.060  27.994  14.393
66648W        W28014  34.386   9.786   3.189
66649W        W28015   7.300  22.630  12.026
66650W        W28016  29.493  38.477   3.638
66651W        W28017  19.699  44.457  11.471
66652W        W28018   6.740  40.373   0.763
66653W        W28019  43.503  17.562   1.316
66654W        W28020  16.617  30.163   4.625
66655W        W28021  35.600  36.511  10.434
66656W        W28022  25.160   0.807   2.721
66657W        W28023  38.861  33.095   2.818
66658W        W28024  29.621  44.824   4.252
66659W        W28025  17.093  23.083   3.629
66660W        W28026  20.622  43.997   0.461
66661W        W28027  43.807  30.620  12.527
66662W        W28028  18.756  39.913  12.529
66663W        W28029  44.357  25.602  11.530
66664W        W28030   8.829   3.944   5.165
66665W        W28031  21.169   0.342  10.629
66666W        W28032  12.330   0.845   1.411
66667W        W28033  29.137  15.795  10.915
66668W        W28034  44.447  10.257   5.279
66669W        W28035  34.475  30.047   1.776
66670W        W28036  16.697  41.940  14.494
66671W        W28037   6.797   4.215  14.297
66672W        W28038  44.008  12.346   1.795
66673W        W28039   8.168   7.684   0.406
66674W        W28040  25.672  30.569   1.284
66675W        W28041   7.757  36.564  14.501
66676W        W28042  44.765   5.206   3.752
66677W        W28043  26.992  44.351   4.758
66678W        W28044  21.524  39.808  13.459
66679W        W28045  27.623  12.784   4.704
66680W        W28046   0.255   4.805  13.478
66681W        W28047  42.988  19.568  14.932
66682W        W28048  28.071   6.722  13.831
66683W        W28049  44.851  44.329   1.934
66684W        W28050  34.931  24.227  13.506
66685W        W28051   2.761  19.757  13.390
66686W        W28052  16.142  32.444   1.345
66687W        W28053  15.246   0.785  11.446
66688W        W28054  32.491   8.782  12.380
66689W        W28055  29.976  10.759   0.805
66690W        W28056  20.541  25.164  13.428
66691W        W28057  30.990   2.422  14.451
66692W        W28058  39.056  41.534  14.310
66693W        W28059   9.191  29.599   0.727
66694W        W28060   9.337  11.211  11.950
66695W        W28061  37.381  30.056   1.902
66696W        W28062  36.933  36.924  11.460
66697W        W28063  12.768   4.748   2.781
66698W        W28064   7.755   9.391  11.521
66699W        W28065  24.521   0.963  14.347
66700W        W28066  33.882   3.255  14.346
66701W        W28067  29.054  40.911  11.028
66702W        W28068  41.828  29.455   0.251
66703W        W28069  42.448  25.597   3.768
66704W        W28070   5.196  10.877  12.841
66705W        W28071  31.468  37.474   1.795
66706W        W28072  38.883   1.970  10.028
66707W        W28073   8.742  40.898  14.008
66708W        W28074   7.806  23.072   1.696
66709W        W28075   8.191  30.140  12.423
66710W        W28076  20.110  28.638  11.371
66711W        W28077  26.618  12.645   4.808
66712W        W28078   8.182  19.233   2.770
66713W        W28079  10.382  16.161  14.298
66714W        W28080  38.041  37.514  10.628
66715W        W28081   8.319  30.503  14.872
66716W        W28082   8.707  11.751  11.016
66717W        W28083  24.630  19.255  13.895
66718W        W28084  30.047  34.957   1.868
66719W        W28085  16.078  13.830  13.453
66720W        W28086  15.746  43.979  11.110
66721W        W28087  44.805  23.225  10.956
66722W        W28088  16.271  25.585   1.315
66723W        W28089  20.149  20.618   3.259
66724W        W28090  21.521  16.311  13.819
66725W        W28091  29.120  19.777  11.549
66726W        W28092   8.824  43.456  14.885
66727W        W28093  27.041  23.682   1.416
66728W        W28094   1.865  25.610   3.154
66729W        W28095  41.403  33.963   0.892
66730W        W28096  23.995  34.605  14.837
66731W        W28097  15.771  29.619   4.685
66732W        W28098  10.218  31.401  13.912
66733W        W28099   7.761  17.644  13.510
66734W        W28100  43.785  39.887  13.333
66735W        W28101  39.838   1.913   3.673
66736W        W28102  39.032  44.467  12.546
66737W        W28103  31.491  26.614   4.745
66738W        W28104  22.184  41.446  14.353
66739W        W28105  11.332  15.303  11.419
66740W        W28106  10.836   2.725   0.916
66741W        W28107  43.507   4.365  11.865
66742W        W28108  22.027  18.711   0.932
66743W        W28109  13.249  20.184  10.523
66744W        W28110  28.531  11.271  11.991
66745W        W28111  41.501  21.741  12.961
66746W        W28112  42.888  36.951   1.431
66747W        W28113  40.816  17.675  12.577
66748W        W28114  13.806  41.977  11.968
66749W        W28115  25.133  42.522  12.538
66750W        W28116   8.277   5.725   4.163
66751W        W28117   2.317  33.885   1.406
66752W        W28118  25.516  29.502  14.920
66753W        W28119   7.276   5.699   0.301
66754W        W28120  34.864  40.503   2.297
66755W        W28121   8.240   4.808   3.154
66756W        W28122  17.633  13.661  11.956
66757W        W28123  33.032  28.584   3.152
66758W        W28124  13.144  16.648   1.447
66759W        W28125   8.780  21.139   4.601
66760W        W28126  34.467  19.562   4.625
66761W        W28127  18.757  22.577  14.760
66762W        W28128  38.828  13.162   4.162
66763W        W28129   3.230   3.846   9.947
66764W        W28130   7.336  17.199   4.605
66765W        W28131  23.238   1.390  11.609
66766W        W28132  21.579  16.232   3.357
66767W        W28133  38.017  29.447   0.795
66768W        W28134  43.864  18.658  14.317
66769W        W28135   9.217  31.138  10.419
66770W        W28136  30.448  31.636   3.736
66771W        W28137  40.464  35.051   3.645
66772W        W28138  26.102   5.207   1.893
66773W        W28139  13.285  12.613   1.428
66774W        W28140  32.578   9.714   1.240
66775W        W28141  44.964  40.333   4.696
66776W        W28142  25.059   1.310  11.466
66777W        W28143  23.540  13.689   2.388
66778W        W28144  29.597   4.702  13.022
66779W        W28145   3.408   0.375   1.849
66780W        W28146  37.028  14.245  13.926
66781W        W28147  18.167  41.943  12.418
66782W        W28148  27.138  42.942  13.516
66783W        W28149  13.126  32.071  13.478
66784W        W28150  14.181   4.212  11.042
66785W        W28151   5.344  35.362   4.655
66786W        W28152  20.206  44.377   0.280
66787W        W28153  11.185  27.643   4.793
66788W        W28154  41.941  36.053   2.271
66789W        W28155  42.865  34.421  13.924
66790W        W28156  42.294   9.377   1.771
66791W        W28157  30.647  28.566   0.313
66792W        W28158  33.425  30.976  11.480
66793W        W28159  42.458  35.366  12.540
66794W        W28160  29.510  26.172  10.055
66795W        W28161   7.230  14.307   3.742
66796W        W28162  12.128   0.929  11.946
66797W        W28163  29.114   8.331  14.486
66798W        W28164  17.187   2.366   2.204
66799W        W28165  27.605  40.868   2.886
66800W        W28166  26.082  12.288   1.764
66801W        W28167  24.045  42.420  10.471
66802W        W28168  19.212  40.333  14.985
66803W        W28169  41.416  33.944  13.968
66804W        W28170  11.663  14.785  13.386
66805W        W28171  24.568   3.898  14.392
66806W        W28172  31.510  34.008   0.299
66807W        W28173  36.011  13.645  13.345
66808W        W28174  23.041  21.701   3.687
66809W        W28175  33.398  15.179   1.361
66810W        W28176  16.277  23.106   4.183
66811W        W28177  13.626  11.641   1.913
66812W        W28178  22.708  32.941   0.285
66813W        W28179  38.454  33.892  13.444
66814W        W28180  20.249  36.923  12.989
66815W        W28181   9.174   4.723  12.986
66816W        W28182  23.612  17.261  12.466
66817W        W28183  42.466  40.507  10.511
66818W        W28184  34.451  14.815   1.739
66819W        W28185  36.050  38.824   0.784
66820W        W28186  14.278  31.968   1.734
66821W        W28187  35.536  36.472   1.810
66822W        W28188   6.288   5.742   3.793
66823W        W28189  39.453  29.498  12.544
66824W        W28190  29.122  11.196  12.033
66825W        W28191  10.292  34.980  12.069
66826W        W28192  43.938  36.892  11.027
66827W        W28193  18.291   9.341  11.931
66828W        W28194   0.768  42.922   1.800
66829W        W28195  10.229  29.061  14.838
66830W        W28196  34.092  18.785   1.299
66831W        W28197  32.048  33.521   4.794
66832W        W28198  32.458   7.211   3.836
66833W        W28199  18.772  25.638   4.698
66834W        W28200  39.050  21.037   3.741
66835W        W28201  35.981   3.738   0.456
66836W        W28202   4.431  16.671  14.415
66837W        W28203  38.372  30.455  14.509
66838W        W28204  41.296  36.068  13.058
66839W        W28205   2.442  23.177   4.616
66840W        W28206  42.969  11.354  13.426
66841W        W28207   1.451  24.160  10.522
66842W        W28208  27.544  23.206  11.951
66843W        W28209   0.823  39.879   9.951
66844W        W28210  39.879   9.370   0.805
66845W        W28211  33.113  33.057  11.438
66846W        W28212   2.270  43.850   3.866
66847W        W28213  33.910  40.046   4.147
66848W        W28214  28.517  28.541  11.998
66849W        W28215  33.460  16.738   0.931
66850W        W28216  31.928  25.998   2.828
66851W        W28217  36.368  21.716   2.366
66852W        W28218  39.016  42.946  11.499
66853W        W28219  22.644  21.263   2.189
66854W        W28220   6.392  33.894   3.264
66855W        W28221  23.520   5.434   3.184
66856W        W28222  27.621  19.777   3.336
66857W        W28223  27.075  29.637   5.206
66858W        W28224  30.516   7.856  12.040
66859W        W28225  34.083  42.469   4.353
66860W        W28226  37.377  25.060   4.152
66861W        W28227  10.802  16.104   1.922
66862W        W28228  43.501  14.176  10.069
66863W        W28229  29.654  29.550   0.938
66864W        W28230  15.811  36.968   2.662
66865W        W28231  39.466  28.672   3.212
66866W        W28232  29.426  33.537   9.965
66867W        W28233  43.363   9.656  12.546
66868W        W28234  11.642  33.459   3.346
66869W        W28235   9.804   0.485   2.847
66870W        W28236  40.431  42.818  12.030
66871W        W28237  22.610   0.294   0.436
66872W        W28238  24.097  27.556   1.450
66873W        W28239  23.192   8.839  11.428
66874W        W28240  24.648   2.292  11.113
66875W        W28241  23.678  26.523   1.838
66876W        W28242  34.498  41.796  14.364
66877W        W28243  27.967  32.128   9.954
66878W        W28244   8.857   4.397  11.408
66879W        W28245  34.423   5.785  10.471
66880W        W28246   3.238  37.535  12.561
66881W        W28247   7.848  26.572  14.430
66882W        W28248   2.470  12.683   2.765
66883W        W28249   7.696  36.023   3.181
66884W        W28250  25.170  30.441  14.512
66885W        W28251  21.742   9.647  12.899
66886W        W28252  26.159  24.523  10.601
66887W        W28253  23.565  13.753   4.132
66888W        W28254  40.498  16.100  14.391
66889W        W28255   7.282  41.948  11.064
66890W        W28256   6.706  32.905   3.274
66891W        W28257  24.996  21.632   1.730
66892W        W28258  10.336  28.612   3.810
66893W        W28259  15.734  34.079   3.737
66894W        W28260  12.209  26.090   3.644
66895W        W28261  19.060  22.019   4.137
66896W        W28262  29.092  22.652   2.320
66897W        W28263  31.585   2.882   3.707
66898W        W28264  43.823  13.810   1.717
66899W        W28265  17.197  29.973   2.346
66900W        W28266  43.797   9.767  11.570
66901W        W28267  20.255  24.509   2.749
66902W        W28268   8.353  40.347  14.760
66903W        W28269  26.124  33.012  14.326
66904W        W28270  17.143   2.814  12.902
66905W        W28271  32.632  43.785   1.232
66906W        W28272  30.507   7.841   3.699
66907W        W28273  37.864  28.165   3.807
66908W        W28274   3.216  23.210   2.699
66909W        W28275   2.228  44.332  11.102
66910W        W28276  15.773   0.417  12.074
66911W        W28277  13.239  34.470   2.885
66912W        W28278  40.918   3.275   2.825
66913W        W28279  11.182   5.847   4.289
66914W        W28280  16.289  11.189   3.805
66915W        W28281  16.581  29.496  14.974
66916W        W28282  21.256  35.974   1.822
66917W        W28283   8.834  15.645  14.315
66918W        W28284  20.099  38.925  10.980
66919W        W28285  35.410  21.586  11.896
66920W        W28286  21.062  20.561   5.240
66921W        W28287  12.296  16.604   0.812
66922W        W28288  32.583  20.659   3.308
66923W        W28289  11.801  18.132  14.890
66924W        W28290  32.085  41.421   1.449
66925W        W28291  43.890  38.005  10.968
66926W        W28292  22.055  42.838   4.163
66927W        W28293  38.563  16.162  12.411
66928W        W28294  13.657  42.919   2.283
66929W        W28295  32.627  22.582   1.816
66930W        W28296  40.940  18.581   3.224
66931W        W28297  38.326  17.171  13.054
66932W        W28298   2.728   6.283   0.832
66933W        W28299  43.507  12.699  10.645
66934W        W28300  11.736   4.811  10.571
66935W        W28301  10.341  31.481  14.344
66936W        W28302   0.424  15.617  11.959
66937W        W28303  37.351  15.158  11.119
66938W        W28304  14.244  18.056  13.547
66939W        W28305  25.506  42.471   2.895
66940W        W28306  36.353  10.808  14.017
66941W        W28307  13.156   4.413  14.026
66942W        W28308  33.956  18.757  12.539
66943W        W28309  43.802  33.981  12.019
66944W        W28310  34.036  32.976  11.469
66945W        W28311  28.476  38.961  13.505
66946W        W28312   5.848  29.481  14.779
66947W        W28313  36.028  33.601  11.095
66948W        W28314  11.373  24.180  14.420
66949W        W28315   9.771  35.532   1.329
66950W        W28316  39.394  18.624   0.796
66951W        W28317  25.585  43.005  12.486
66952W        W28318   3.859   9.329  12.565
66953W        W28319  29.541  26.525  11.079
66954W        W28320  17.214  44.893   1.732
66955W        W28321  19.204  26.648   0.368
66956W        W28322  29.155  35.449   4.670
66957W        W28323   7.205  14.685  13.341
66958W        W28324  20.266  28.116   9.968
66959W        W28325  36.375  17.630  11.935
66960W        W28326  24.612  14.247   1.256
66961W        W28327  22.221  11.254  12.860
66962W        W28328  16.201  19.722  13.049
66963W        W28329  37.902  33.936  14.804
66964W        W28330  22.742  12.631  14.287
66965W        W28331  20.083  42.318  10.546
66966W        W28332  32.113  28.119  13.471
66967W        W28333  12.279  16.791  11.950
66968W        W28334  29.144  25.071  11.521
66969W        W28335  42.286  35.482   4.228
66970W        W28336  39.392  41.943  13.509
66971W        W28337  11.298   8.791   0.449
66972W        W28338  11.843  16.608   0.283
66973W        W28339  42.396   0.357  12.023
66974W        W28340  32.564  33.423   4.826
66975W        W28341  25.701  34.513  11.466
66976W        W28342  33.973  42.778   1.837
66977W        W28343  27.655  20.040   9.442
66978W        W28344   9.384  25.587   3.649
66979W        W28345   7.244   2.406   1.333
66980W        W28346  17.639  42.011   0.369
66981W        W28347  44.260  28.016   5.721
66982W        W28348  14.309  11.189  13.049
66983W        W28349   9.744   8.838  11.570
66984W        W28350  21.554   7.399  10.561
66985W        W28351  39.910   5.370   4.809
66986W        W28352  35.519  39.329   5.678
66987W        W28353   1.840   3.741  11.433
66988W        W28354   7.257  43.007   0.259
66989W        W28355  36.914  31.502  13.965
66990W        W28356  21.037   9.308   4.210
66991W        W28357  37.916  34.427  12.473
66992W        W28358  37.878  18.576  11.985
66993W        W28359  44.759  22.175   1.757
66994W        W28360  20.709  44.770   2.343
66995W        W28361  22.247  34.527  12.094
66996W        W28362   0.825  18.720  11.059
66997W        W28363  29.033  33.949  11.407
66998W        W28364  28.086  10.253   4.146
66999W        W28365  27.609   8.892   2.268
67000W        W28366  12.728  43.793   3.253
67001W        W28367  41.838  27.125   2.691
67002W        W28368  25.634  22.607  13.312
67003W        W28369  29.625  22.193  11.094
67004W        W28370  20.703  34.944   2.327
67005W        W28371  22.731  29.073  13.951
67006W        W28372  11.751   8.334  11.411
67007W        W28373  25.127  37.972   4.740
67008W        W28374   5.228  15.806   2.741
67009W        W28375  32.464  13.226   4.115
67010W        W28376  19.759   9.342   5.221
67011W        W28377  16.755  29.961  14.397
67012W        W28378  23.562  26.084  14.799
67013W        W28379  33.972  19.614  10.948
67014W        W28380  10.358   1.913  11.504
67015W        W28381  37.027   8.397  13.806
67016W        W28382  36.381  37.052   2.289
67017W        W28383  12.798  40.903   2.365
67018W        W28384  41.924  11.719  10.135
67019W        W28385   3.865  34.113  14.768
67020W        W28386  43.865  34.863   3.298
67021W        W28387  38.334  25.634  11.493
67022W        W28388  10.359   7.747   3.729
67023W        W28389   4.820  33.919  12.908
67024W        W28390  21.261  20.053  14.759
67025W        W28391  18.122  34.516  13.836
67026W        W28392   9.661   3.394   1.433
67027W        W28393  38.443   6.795  11.068
67028W        W28394  36.575  40.382   2.696
67029W        W28395   4.830  26.625   3.769
67030W        W28396   4.866  41.835   0.761
67031W        W28397  32.043   4.437   4.328
67032W        W28398  33.424   6.838  12.055
67033W        W28399  23.003   2.883   3.162
67034W        W28400   8.405  44.845  13.398
67035W        W28401  25.478  18.786   3.184
67036W        W28402  20.667   0.275  14.316
67037W        W28403  42.981  34.610   4.198
67038W        W28404  26.048   0.913   4.669
67039W        W28405  22.639  25.702   0.427
67040W        W28406  12.823  17.127  11.055
67041W        W28407  25.645   9.853   3.199
67042W        W28408  13.150  40.887  12.870
67043W        W28409  16.306  33.465   2.301
67044W        W28410  23.622  26.015   1.930
67045W        W28411   3.280  20.274  14.474
67046W        W28412  10.679  21.531  11.410
67047W        W28413  12.804  20.202  13.923
67048W        W28414  31.087   8.751   3.860
67049W        W28415  31.934  15.633  10.899
67050W        W28416  24.589  38.363  13.374
67051W        W28417  29.021  43.827  10.473
67052W        W28418  17.267  17.576   3.828
67053W        W28419  42.898  43.472   0.901
67054W        W28420   1.452  41.324   4.698
67055W        W28421  25.200  19.215   4.663
67056W        W28422  28.599   6.889   1.312
67057W        W28423  31.463  16.662  12.045
67058W        W28424  36.091  23.156  12.512
67059W        W28425  34.900  42.947   0.432
67060W        W28426  10.770  23.193  11.972
67061W        W28427   2.451   4.365  12.456
67062W        W28428  42.922   2.937   2.832
67063W        W28429  23.231  31.062  11.373
67064W        W28430  32.588  21.164  13.409
67065W        W28431  12.721  24.121   4.744
67066W        W28432  37.071  10.291   2.247
67067W        W28433  31.103   6.762  14.288
67068W        W28434  19.199  40.444  14.290
67069W        W28435   7.901  34.495   3.217
67070W        W28436  15.249   0.875   0.807
67071W        W28437  30.642  41.538  11.992
67072W        W28438  35.939  28.518  11.882
67073W        W28439   0.866  27.000   0.822
67074W        W28440  18.133  38.851  13.030
67075W        W28441  17.149  35.950  14.464
67076W        W28442  18.269  44.386  10.425
67077W        W28443   1.813  27.978  11.610
67078W        W28444  33.509  41.914   1.724
67079W        W28445  23.061  44.490  10.405
67080W        W28446  36.938  33.083  12.361
67081W        W28447  27.105  26.558   4.727
67082W        W28448  38.887   7.766   4.285
67083W        W28449   9.653  26.535   3.809
67084W        W28450   1.371  23.604   4.797
67085W        W28451  12.715  23.537  14.942
67086W        W28452  12.710  13.634   4.669
67087W        W28453  12.635  35.469   2.319
67088W        W28454  36.940  35.410   0.413
67089W        W28455  35.508  10.739  10.484
67090W        W28456   9.649  29.075  12.905
67091W        W28457  14.811  10.322   0.944
67092W        W28458  18.107  33.029  13.811
67093W        W28459  39.380  31.413   2.669
67094W        W28460  35.570  24.590  11.040
67095W        W28461   0.318   0.263  11.526
67096W        W28462   3.936  27.603  12.095
67097W        W28463  34.961  44.798   3.663
67098W        W28464  34.044  31.944  12.050
67099W        W28465   1.737  32.562  13.893
67100W        W28466   8.378   5.305   2.260
67101W        W28467  22.610  37.047  14.813
67102W        W28468   7.346  21.263   0.779
67103W        W28469  12.178  29.175  13.854
67104W        W28470  43.410  21.026  11.607
67105W        W28471  15.780  35.081   0.799
67106W        W28472  13.241  28.172   0.786
67107W        W28473  27.035   7.213  14.514
67108W        W28474  40.850   9.228  12.086
67109W        W28475  36.489  44.788  11.922
67110W        W28476  24.985   8.705  14.442
67111W        W28477  28.557  43.435  14.804
67112W        W28478  24.490  34.871  14.944
67113W        W28479  43.021  20.651   3.661
67114W        W28480  20.157  20.077  13.395
67115W        W28481  25.524  16.771  14.300
67116W        W28482  11.736  26.983  14.339
67117W        W28483  32.634  27.023   1.213
67118W        W28484   2.428  32.114  14.376
67119W        W28485  28.147  18.051   4.220
67120W        W28486   7.287  42.867   4.601
67121W        W28487   5.406   5.320   2.813
67122W        W28488  21.542  19.105  11.447
67123W        W28489  24.595  13.348  12.390
67124W        W28490  24.638   2.272  14.322
67125W        W28491  37.933  18.628   0.439
67126W        W28492  39.976  42.917  11.429
67127W        W28493  21.586  18.158  10.975
67128W        W28494  31.596  25.500   1.737
67129W        W28495  40.907   8.395   2.302
67130W        W28496   8.338   1.872   1.802
67131W        W28497  38.036  31.066   4.810
67132W        W28498  20.561  17.277   1.281
67133W        W28499  26.474  37.880   1.322
67134W        W28500  20.760  12.613   2.199
67135W        W28501  17.115  11.819   5.169
67136W        W28502  44.281   8.207   2.708
67137W        W28503   3.859  34.439  13.467
67138W        W28504  43.998   2.765   1.421
67139W        W28505  23.034  27.559   1.861
67140W        W28506   3.268  11.661   4.782
67141W        W28507  16.706   2.306  13.847
67142W        W28508  41.309  15.322   3.686
67143W        W28509  18.778  17.752   2.771
67144W        W28510  24.524  32.992   1.310
67145W        W28511  18.720  19.050  11.517
67146W        W28512   0.878   2.743  13.933
67147W        W28513  15.817  43.909  13.516
67148W        W28514  27.011   3.434  13.383
67149W        W28515   8.722   5.206  14.002
67150W        W28516   4.416  23.169  14.903
67151W        W28517  31.451  23.552   3.192
67152W        W28518  10.139  44.439   3.805
67153W        W28519  17.728  18.628   4.223
67154W        W28520   0.483  40.310   0.328
67155W        W28521  33.500  16.705   2.886
67156W        W28522   7.371  21.680  12.957
67157W        W28523  25.048   0.785  10.955
67158W        W28524  20.545  30.500  13.023
67159W        W28525   6.240   3.365  12.351
67160W        W28526   2.911  17.076  13.878
67161W        W28527  38.412  20.150  12.959
67162W        W28528  11.682  43.444   1.279
67163W        W28529  28.488  24.145   3.150
67164W        W28530  24.621  41.955  13.872
67165W        W28531  44.786  31.623   3.719
67166W        W28532   4.763  30.634  12.424
67167W        W28533  21.259  43.865   4.774
67168W        W28534  36.986  10.708  13.336
67169W        W28535  38.997  24.554   4.217
67170W        W28536  20.677   4.780   1.280
67171W        W28537   2.330  29.429  14.817
67172W        W28538  11.723  10.259  14.759
67173W        W28539  33.386  33.899  12.406
67174W        W28540  29.643   3.811  14.337
67175W        W28541   7.302  35.939   4.237
67176W        W28542   9.723   1.239  13.531
67177W        W28543  17.081  35.867   4.127
67178W        W28544  41.814  20.256  11.527
67179W        W28545  34.469  38.890  11.055
67180W        W28546   3.780  26.489   1.260
67181W        W28547  31.136   5.254  13.347
67182W        W28548  16.181  13.262  12.377
67183W        W28549  17.590   3.760  12.955
67184W        W28550   1.324  37.458   4.277
67185W        W28551  12.281   7.858   3.660
67186W        W28552  17.779  10.357  13.472
67187W        W28553   4.815  11.683   1.707
67188W        W28554  22.528  11.640  11.538
67189W        W28555  16.147   1.362   3.739
67190W        W28556   0.766  14.600  14.841
67191W        W28557  19.660  43.832   1.906
67192W        W28558   1.779   4.328  14.359
67193W        W28559  23.158   5.297   3.780
67194W        W28560  10.762  20.040   1.295
67195W        W28561  29.626  30.470  10.525
67196W        W28562  18.698   7.795   2.696
67197W        W28563  18.583  34.547   3.861
67198W        W28564  43.834   6.199  14.954
67199W        W28565  13.184  28.636   0.313
67200W        W28566  27.481   5.429  14.319
67201W        W28567  44.491   9.357   1.277
67202W        W28568  14.262  26.193   1.789
67203W        W28569  41.903  32.592  11.976
67204W        W28570  39.917   4.909  12.935
67205W        W28571  21.530  11.252   0.872
67206W        W28572  28.129  14.603  12.408
67207W        W28573  14.645  39.537   4.349
67208W        W28574  14.184  32.422  10.086
67209W        W28575  31.932   5.807   0.962
67210W        W28576  20.123  11.625  13.408
67211W        W28577  20.066  43.880   3.337
67212W        W28578  27.961  25.983   2.807
67213W        W28579  18.597  24.681   2.892
67214W        W28580  42.846  37.972   3.290
67215W        W28581  13.721  38.037  10.451
67216W        W28582   6.909   3.914  12.972
67217W        W28583   0.338  11.765  10.900
67218W        W28584  37.473  25.616   3.809
67219W        W28585  15.771   2.240   0.427
67220W        W28586  36.906  28.037   3.704
67221W        W28587  11.835   8.696   0.342
67222W        W28588  21.128   0.319   3.735
67223W        W28589  40.823  23.170   4.248
67224W        W28590   5.250  21.162  14.916
67225W        W28591  40.497  25.700   3.178
67226W        W28592  21.581  30.982   3.821
67227W        W28593   6.419  28.492  14.994
67228W        W28594  18.684  14.642   5.628
67229W        W28595  27.490  32.091  10.438
67230W        W28596  41.342  15.611  13.419
67231W        W28597  34.928  27.133  11.013
67232W        W28598  21.097   0.365   4.803
67233W        W28599   2.728  44.814  11.877
67234W        W28600  41.935  33.542  12.402
67235W        W28601  44.461  42.497  13.841
67236W        W28602  36.032  30.490  14.840
67237W        W28603  36.083  36.388  10.894
67238W        W28604  17.100   3.301  11.454
67239W        W28605  44.442  11.767   0.966
67240W        W28606   4.854   5.276  12.994
67241W        W28607  42.498  27.943  11.032
67242W        W28608  24.178   3.763   0.827
67243W        W28609   8.383  22.526   0.366
67244W        W28610  28.004  36.550  13.529
67245W        W28611  23.681  14.750   0.248
67246W        W28612   8.818   4.385   4.246
67247W        W28613  31.949  39.834   2.762
67248W        W28614  12.287   2.464   0.928
67249W        W28615  34.491   8.885  13.524
67250W        W28616  28.509  10.696  13.973
67251W        W28617  33.528  39.504   2.311
67252W        W28618  13.314   4.931   3.643
67253W        W28619   0.337   1.322  13.421
67254W        W28620  21.246  39.020   5.234
67255W        W28621  14.299  28.485   3.321
67256W        W28622  40.859  38.359  14.480
67257W        W28623  25.655  18.753   4.745
67258W        W28624  32.404  32.483   0.344
67259W        W28625  23.119   9.857  11.447
67260W        W28626  43.944   0.923   2.862
67261W        W28627   2.798  15.754  12.002
67262W        W28628   3.270  29.662   4.834
67263W        W28629  16.271  24.685   1.853
67264W        W28630  44.373  40.304  14.467
67265W        W28631  40.032  44.427  11.947
67266W        W28632  29.162  14.205   0.336
67267W        W28633  12.675   5.825   1.751
67268W        W28634   6.397  42.818   5.255
67269W        W28635   5.252  28.674   1.218
67270W        W28636  35.006   6.815   0.440
67271W        W28637  22.729   6.692  11.876
67272W        W28638  25.529  39.356   4.125
67273W        W28639  38.925  24.975   3.188
67274W        W28640  23.168  10.672   0.835
67275W        W28641  17.075  43.503   4.122
67276W        W28642   3.757  10.167  14.308
67277W        W28643  25.148  39.347   2.806
67278W        W28644  37.042  30.077   3.633
67279W        W28645   0.256  17.116  14.825
67280W        W28646  10.229  40.928   2.266
67281W        W28647  20.626  17.612  11.024
67282W        W28648  13.727  36.045  10.436
67283W        W28649  25.699  40.032  13.850
67284W        W28650  19.160   3.405  14.363
67285W        W28651  13.619   7.174   0.413
67286W        W28652  26.599  36.847   3.150
67287W        W28653   5.431  44.461   2.830
67288W        W28654  31.072  21.070   2.411
67289W        W28655  14.102  22.528  13.799
67290W        W28656   4.916  14.653  11.385
67291W        W28657  27.645  42.856   2.207
67292W        W28658  32.044  30.149   2.249
67293W        W28659   8.832  26.537   0.477
67294W        W28660  41.801  21.225  10.565
67295W        W28661  37.072  30.589   3.199
67296W        W28662  19.159  43.988  13.408
67297W        W28663  41.805  33.987  11.414
67298W        W28664  24.107  44.970   1.407
67299W        W28665  43.367  26.665   4.135
67300W        W28666  26.509  27.509  10.910
67301W        W28667  38.397   7.748  14.512
67302W        W28668  24.550  36.932  13.423
67303W        W28669  25.211  14.806   0.304
67304W        W28670  27.608  11.312  13.944
67305W        W28671  25.678  13.243  13.852
67306W        W28672   3.421   1.953  12.550
67307W        W28673  15.801  15.650  12.485
67308W        W28674  22.730  26.702   4.145
67309W        W28675  19.149   2.817  13.425
67310W        W28676  33.447  31.574   1.272
67311W        W28677  27.506  31.936   4.263
67312W        W28678  17.126  40.894   2.283
67313W        W28679  44.445   5.779   0.908
67314W        W28680  15.637  12.670   1.289
67315W        W28681  29.457   5.840   3.630
67316W        W28682  18.633  31.968   4.745
67317W        W28683   7.228   5.229   3.197
67318W        W28684  13.194   4.229  10.965
67319W        W28685   3.407  16.697   0.259
67320W        W28686  22.650  22.520   1.784
67321W        W28687  37.906  16.072   3.750
67322W        W28688  42.296  22.743   3.374
67323W        W28689  20.028  33.411  12.914
67324W        W28690  19.066  27.046  11.104
67325W        W28691  25.136  38.015  14.321
67326W        W28692   0.294  25.714   4.681
67327W        W28693  32.058  15.312   4.134
67328W        W28694  28.604  12.161  14.813
67329W        W28695   1.773  19.775   0.361
67330W        W28696  21.566  40.031   1.880
67331W        W28697  38.974   3.392   4.692
67332W        W28698   1.468   0.856  12.450
67333W        W28699  12.662   1.973  12.938
67334W        W28700  37.350   1.780  12.838
67335W        W28701  11.664  38.006   2.372
67336W        W28702  27.681  26.564   3.845
67337W        W28703  22.053  44.429   2.761
67338W        W28704  12.243  28.000  13.999
67339W        W28705   0.909   3.798  11.389
67340W        W28706  15.218  38.429  10.483
67341W        W28707  42.953  38.943   1.727
67342W        W28708  37.376  19.536   4.808
67343W        W28709  13.819  13.132   2.197
67344W        W28710   8.696  18.683   2.340
67345W        W28711  20.747  31.120   3.153
67346W        W28712   0.389  38.823   0.312
67347W        W28713  34.120  13.326  12.065
67348W        W28714  18.641  37.836  13.842
67349W        W28715  44.489   6.732   2.377
67350W        W28716   2.950  31.410  13.478
67351W        W28717  11.819  27.558  12.366
67352W        W28718   3.310  21.733   0.809
67353W        W28719  18.698  39.946   0.248
67354W        W28720  16.788   7.857   1.252
67355W        W28721  11.858  41.415  10.477
67356W        W28722  28.603   5.864   2.663
67357W        W28723   0.850   8.331   2.832
67358W        W28724  17.304   7.408  12.864
67359W        W28725   8.726  37.920   1.796
67360W        W28726  23.728  24.166   0.861
67361W        W28727  15.669  17.687   2.264
67362W        W28728  11.770   8.337   4.328
67363W        W28729   4.845  40.509  10.155
67364W        W28730  16.597  28.037  11.052
67365W        W28731  39.052  19.282  14.294
67366W        W28732   0.261  34.428   1.876
67367W        W28733  11.700   3.818  12.541
67368W        W28734  42.316  42.878   0.833
67369W        W28735  42.844   0.299  13.860
67370W        W28736  10.333  28.518   0.366
67371W        W28737  27.451  35.901   4.838
67372W        W28738  36.385   8.249   2.414
67373W        W28739  16.803  31.050   0.418
67374W        W28740  27.088  44.770   3.215
67375W        W28741  44.826  11.704   0.310
67376W        W28742  31.499  32.112   3.682
67377W        W28743  37.356  42.977   3.764
67378W        W28744  24.625  39.885  11.038
67379W        W28745  41.839   5.819   3.207
67380W        W28746  36.935  13.107   4.323
67381W        W28747   0.307  17.061   3.295
67382W        W28748  28.931   9.781  13.024
67383W        W28749  24.711   1.812   0.762
67384W        W28750  20.764  36.411  13.384
67385W        W28751   3.882  18.273  11.580
67386W        W28752  29.636   7.249  12.968
67387W        W28753   7.317  22.028   4.749
67388W        W28754   0.772  12.169  11.958
67389W        W28755  43.278   6.321   0.749
67390W        W28756  26.549  40.416   1.802
67391W        W28757  43.506  33.400   2.667
67392W        W28758   0.893  10.224  13.804
67393W        W28759  22.554  29.556   1.822
67394W        W28760  42.514  44.260  12.466
67395W        W28761  13.623  41.377   1.269
67396W        W28762  37.350  30.464  11.953
67397W        W28763  41.004   6.210  14.954
67398W        W28764  23.992  17.269   4.273
67399W        W28765  13.196  23.103  11.064
67400W        W28766  36.429  34.439   2.875
67401W        W28767  13.176   7.306  12.081
67402W        W28768  21.164  42.331  12.565
67403W        W28769  20.094  13.769   4.300
67404W        W28770  32.609  11.733  14.284
67405W        W28771  36.920  33.562   2.333
67406W        W28772  34.928  26.066   4.113
67407W        W28773  15.636  37.081   0.449
67408W        W28774  24.015   7.240  11.912
67409W        W28775  39.532  20.668   4.644
67410W        W28776  23.036  10.749  10.981
67411W        W28777  37.430  17.609   2.816
67412W        W28778   4.267   5.397   3.321
67413W        W28779  11.832   4.790   4.756
67414W        W28780  41.436  29.124   1.341
67415W        W28781  26.502  15.206   4.674
67416W        W28782  44.442  25.055  14.457
67417W        W28783  24.642  16.720   0.742
67418W        W28784   5.290  39.915  10.889
67419W        W28785  27.450  32.493  10.440
67420W        W28786  44.286  35.523  14.941
67421W        W28787  33.402  14.802   1.327
67422W        W28788  14.594  13.125  14.301
67423W        W28789  26.461  34.031   2.812
67424W        W28790  25.626  21.151   2.781
67425W        W28791  17.611  21.723  14.501
67426W        W28792  11.690  24.528   2.772
67427W        W28793  32.412   3.253   1.389
67428W        W28794  31.146  41.506  10.500
67429W        W28795  23.660   9.671   0.796
67430W        W28796  27.659   0.860  13.408
67431W        W28797  38.328  27.515  14.906
67432W        W28798  13.136   9.703  12.403
67433W        W28799  21.254  14.238  11.047
67434W        W28800  17.583  29.633   0.841
67435W        W28801  29.157  17.101   0.757
67436W        W28802  24.990   1.774  13.011
67437W        W28803  34.025  41.532   5.316
67438W        W28804  11.203  10.174  14.004
67439W        W28805  24.512  26.605   2.720
67440W        W28806  38.349  17.215  10.995
67441W        W28807  38.377  37.029  12.876
67442W        W28808  12.280  26.688   1.826
67443W        W28809  44.804  31.145  11.408
67444W        W28810   8.277  11.216   1.825
67445W        W28811   2.724  32.056   3.789
67446W        W28812   5.917  43.277  13.980
67447W        W28813  19.245  24.099  11.015
67448W        W28814   7.718  24.523   2.662
67449W        W28815  15.148  26.575  14.816
67450W        W28816  27.623   9.730  10.889
67451W        W28817  11.235   5.832   1.872
67452W        W28818  21.200  12.306   4.232
67453W        W28819   2.829  15.819   0.728
67454W        W28820  22.035  41.296  10.930
67455W        W28821   7.810  43.837  14.470
67456W        W28822  43.008  26.208   4.291
67457W        W28823  23.673  11.283   2.764
67458W        W28824   1.790   7.186  14.309
67459W        W28825  17.081  26.593   2.705
67460W        W28826  33.914  32.979   3.714
67461W        W28827  31.056  26.666  14.897
67462W        W28828  11.722  36.949   0.838
67463W        W28829  24.622   8.232   4.832
67464W        W28830  39.425  33.944   3.672
67465W        W28831  33.989  28.472   4.121
67466W        W28832  21.676   6.712  12.376
67467W        W28833  39.009   9.296  12.486
67468W        W28834  44.953   5.316  14.920
67469W        W28835  21.046  44.320  11.439
67470W        W28836  13.679  29.569  13.817
67471W        W28837  43.448   7.389  13.855
67472W        W28838  25.563  22.558  14.789
67473W        W28839  41.853  30.504   0.333
67474W        W28840  35.933  23.055   4.772
67475W        W28841   8.891  13.696   2.824
67476W        W28842  20.144  25.123   4.249
67477W        W28843  33.433   0.915   0.860
67478W        W28844  32.991  38.392   0.793
67479W        W28845  16.296  29.968  11.889
67480W        W28846   8.817  34.582  13.465
67481W        W28847  18.601  41.842  13.471
67482W        W28848  37.085  27.521   4.248
67483W        W28849  26.672  17.573   3.639
67484W        W28850  44.483  11.312   0.764
67485W        W28851  10.378  20.597  10.571
67486W        W28852  15.279  43.933   1.915
67487W        W28853  20.609   5.730   0.242
67488W        W28854  28.140   8.730   9.936
67489W        W28855  33.482  20.210  14.387
67490W        W28856   8.786  39.466  12.346
67491W        W28857  15.703  26.464   2.773
67492W        W28858   7.323  38.367  14.488
67493W        W28859   1.974  40.881   4.333
67494W        W28860  27.064  32.047   2.840
67495W        W28861  31.576  20.121   3.262
67496W        W28862   6.220  32.131   1.702
67497W        W28863  18.711  44.009  14.292
67498W        W28864  33.034  19.695  12.362
67499W        W28865  27.637  25.610  14.503
67500W        W28866  10.847   4.248   0.247
67501W        W28867  31.490  17.792   3.237
67502W        W28868  14.790  43.011   3.738
67503W        W28869  32.886  17.693   0.913
67504W        W28870  35.373  10.224  12.480
67505W        W28871  38.398  20.696   2.319
67506W        W28872   8.352  16.708   0.820
67507W        W28873  39.982  12.796  13.818
67508W        W28874  23.541  44.955   1.887
67509W        W28875  26.702  10.707   1.852
67510W        W28876  19.119  15.818   1.760
67511W        W28877   0.468  13.303   4.764
67512W        W28878  44.384  18.773   4.705
67513W        W28879   0.946  43.468   4.630
67514W        W28880  18.621  26.606   1.916
67515W        W28881  11.193   1.286   0.774
67516W        W28882  14.100  30.102   9.928
67517W        W28883  41.316  23.994   0.876
67518W        W28884   4.855  35.043   1.434
67519W        W28885   3.918  21.694  14.431
67520W        W28886   0.357  21.607   4.244
67521W        W28887  24.131   8.390   1.337
67522W        W28888   7.176  32.026   5.318
67523W        W28889  15.655   4.332  14.974
67524W        W28890  25.143   9.177   3.180
67525W        W28891  32.005   8.171   0.432
67526W        W28892  22.055  35.584  12.914
67527W        W28893   3.770  30.525  11.463
67528W        W28894  14.638  11.712  12.470
67529W        W28895   3.399  25.658  11.042
67530W        W28896  22.131  14.118  11.990
67531W        W28897  17.767  25.218  13.331
67532W        W28898   4.357   1.364  12.561
67533W        W28899  19.087   3.416   4.621
67534W        W28900   4.345  38.507  13.958
67535W        W28901  41.502   0.921  12.015
67536W        W28902  19.608  24.582   0.469
67537W        W28903   6.362  19.240  14.964
67538W        W28904  37.532  43.813  12.384
67539W        W28905  10.197   1.808   3.799
67540W        W28906   0.973  32.551   1.764
67541W        W28907  28.485   5.259  12.082
67542W        W28908  29.496  42.452  13.370
67543W        W28909   9.342  21.593  12.036
67544W        W28910  17.142  18.223  11.391
67545W        W28911  37.916  19.743   1.799
67546W        W28912  40.024   3.363  12.488
67547W        W28913  38.380  32.948   1.326
67548W        W28914  18.609  32.053  10.633
67549W        W28915  39.319  41.398  13.900
67550W        W28916  34.384  25.103  12.392
67551W        W28917  30.016  42.421   0.872
67552W        W28918  39.536  17.785  14.322
67553W        W28919  38.540  21.583   0.939
67554W        W28920  29.586  41.877   4.646
67555W        W28921  40.898  33.976   3.219
67556W        W28922  12.835  16.111   1.722
67557W        W28923  32.587   5.903  13.539
67558W        W28924  27.017  21.085  11.448
67559W        W28925  42.999  18.632   2.746
67560W        W28926   4.717   9.889   4.299
67561W        W28927   5.823  27.487  13.807
67562W        W28928  31.148  34.079  13.370
67563W        W28929   4.370  17.733  11.599
67564W        W28930  39.495  29.499   4.183
67565W        W28931  16.257  22.080  10.626
67566W        W28932  37.925  22.161  11.917
67567W        W28933  12.695  28.596   1.281
67568W        W28934  12.280  28.161  12.449
67569W        W28935  17.175  29.135  13.917
67570W        W28936   6.676  12.791  12.829
67571W        W28937  21.691  41.318   4.285
67572W        W28938  23.048   8.170  10.527
67573W        W28939  33.461  23.053  12.850
67574W        W28940  31.938  19.245  12.014
67575W        W28941  29.498   9.763   4.812
67576W        W28942   0.860   4.415   4.759
67577W        W28943  43.820   5.327  13.414
67578W        W28944  27.611   5.388   0.389
67579W        W28945  13.291   8.168   3.770
67580W        W28946  10.147  38.329   4.674
67581W        W28947  11.759  13.155   4.834
67582W        W28948  17.780  43.488  13.324
67583W        W28949   0.876  31.648  11.988
67584W        W28950   9.764  17.176   4.132
67585W        W28951  14.729   3.257   0.355
67586W        W28952  40.410   1.302  14.320
67587W        W28953  33.038   3.390  13.846
67588W        W28954  38.922   8.854  10.554
67589W        W28955  12.842   1.447  12.489
67590W        W28956  37.859  25.696   1.883
67591W        W28957  26.169   4.823  11.577
67592W        W28958  37.502  15.303  14.398
67593W        W28959  19.642   9.381   2.274
67594W        W28960  16.572  24.081  12.874
67595W        W28961   5.319   6.352   3.151
67596W        W28962  27.668  23.207   2.292
67597W        W28963  22.631   9.835  12.857
67598W        W28964  29.106  34.866  10.971
67599W        W28965  39.027  37.044   0.796
67600W        W28966  30.605  42.412  12.563
67601W        W28967  35.992  33.954   1.756
67602W        W28968  19.596  21.579  11.080
67603W        W28969   5.862  29.516   0.944
67604W        W28970   2.332  24.624   2.338
67605W        W28971  41.331  19.042   2.842
67606W        W28972  15.194  21.116  13.915
67607W        W28973  30.426  33.394   0.829
67608W        W28974  37.525   3.215  11.923
67609W        W28975   1.888   6.890  12.835
67610W        W28976  30.575  31.592  13.836
67611W        W28977  13.754   0.927  12.542
67612W        W28978  42.032  34.053  14.862
67613W        W28979  28.674  11.280  14.298
67614W        W28980  12.824  33.423  14.907
67615W        W28981  29.009  12.265   0.304
67616W        W28982  24.185   5.906  13.514
67617W        W28983  15.215  28.994  12.378
67618W        W28984  31.588  41.364   4.345
67619W        W28985  43.299   6.425  10.999
67620W        W28986  28.120  17.167   1.918
67621W        W28987  32.522  33.995   4.321
67622W        W28988   8.878  37.956   4.175
67623W        W28989  35.020   2.903   1.258
67624W        W28990  28.094  38.504   4.338
67625W        W28991  33.968  13.688  10.935
67626W        W28992  37.537  10.793   2.668
67627W        W28993   6.823  19.661   0.770
67628W        W28994  25.539   2.239  11.986
67629W        W28995  38.002   7.850   0.743
67630W        W28996  34.086  25.476   4.309
67631W        W28997  36.443  27.663  13.486
67632W        W28998   2.278   0.250   3.260
67633W        W28999   2.457  11.853  12.060
67634W        W29000  26.988   0.761  12.353
67635W        W29001   1.893  26.677   0.385
67636W        W29002  26.527  26.128   2.719
67637W        W29003  22.523  27.164   1.772
67638W        W29004   1.478  25.677   1.773
67639W        W29005  40.549  34.093   4.673
67640W        W29006  19.588  20.107   0.275
67641W        W29007  25.997   4.323  13.319
67642W        W29008   2.428  26.104  12.885
67643W        W29009  20.113  27.151   0.730
67644W        W29010  36.853   1.395  13.333
67645W        W29011  22.059  41.021   0.316
67646W        W29012  36.092   1.810   4.654
67647W        W29013  44.280  35.409   0.297
67648W        W29014  24.058  32.500   4.275
67649W        W29015  25.138  41.955   2.833
67650W        W29016   5.236  30.926  12.575
67651W        W29017  38.043  26.078   1.325
67652W        W29018  22.702  37.372  14.487
67653W        W29019  39.860  36.958  11.582
67654W        W29020  43.441  29.143  10.449
67655W        W29021  29.921  12.266   4.129
67656W        W29022  30.568  25.020   4.796
67657W        W29023  18.204  12.350   2.841
67658W        W29024  17.678  44.863   3.237
67659W        W29025   5.930   9.257  11.437
67660W        W29026  36.364  31.123  13.896
67661W        W29027  37.998   5.893  13.949
67662W        W29028  22.563  44.005   1.797
67663W        W29029  14.265   2.834   0.409
67664W        W29030  16.084  25.000   4.669
67665W        W29031  15.783  13.660   5.225
67666W        W29032   0.920   0.884   5.087
67667W        W29033  36.380  21.178  13.865
67668W        W29034  24.107   5.834  14.371
67669W        W29035  14.673  15.745  11.877
67670W        W29036   8.814  41.507   2.844
67671W        W29037  10.287  27.974   2.704
67672W        W29038   6.427  14.218  10.077
67673W        W29039  27.072  23.700  14.878
67674W        W29040   0.417  23.222  14.436
67675W        W29041   1.320   2.758  11.890
67676W        W29042   2.284  13.307  14.325
67677W        W29043  28.648  39.388   3.800
67678W        W29044  13.667  39.888  12.345
67679W        W29045  18.747  10.653   0.429
67680W        W29046  43.420  43.875   1.841
67681W        W29047   7.904  19.576  11.982
67682W        W29048   9.701  42.011   4.804
67683W        W29049  25.105   7.764  13.865
67684W        W29050  16.273  40.809   1.872
67685W        W29051   6.188  20.555   0.432
67686W        W29052   5.436  28.110   1.235
67687W        W29053  37.376  35.377  14.831
67688W        W29054  34.091  14.617   3.759
67689W        W29055  19.142  18.087   0.469
67690W        W29056  41.026  35.594  10.613
67691W        W29057  20.256  42.311  10.923
67692W        W29058  35.096  34.586   1.714
67693W        W29059   3.765  44.452   0.408
67694W        W29060   0.344  28.153  11.544
67695W        W29061  34.499  42.326   9.979
67696W        W29062  23.493  36.006  12.401
67697W        W29063  28.078   4.274   0.833
67698W        W29064   3.783   1.813  14.408
67699W        W29065  30.474  15.823   3.806
67700W        W29066  41.412  42.895   9.939
67701W        W29067  15.112  42.356   2.267
67702W        W29068   3.258  12.355   0.835
67703W        W29069  31.089  42.846   3.380
67704W        W29070  25.982  29.174   0.779
67705W        W29071  20.716  38.947   4.154
67706W        W29072  13.770   4.786  10.511
67707W        W29073   5.807   0.780  11.072
67708W        W29074   3.444  39.912   4.740
67709W        W29075  44.461  34.605   4.685
67710W        W29076   8.866  28.436  13.945
67711W        W29077  20.272  10.291  12.340
67712W        W29078  11.338  44.916  11.525
67713W        W29079  44.787   5.874  12.086
67714W        W29080  32.095  10.721  10.572
67715W        W29081  43.316  13.816   0.453
67716W        W29082  25.167  16.618  14.381
67717W        W29083  32.130  25.618   4.792
67718W        W29084  22.529  23.153  12.037
67719W        W29085  19.153  31.647   0.968
67720W        W29086   6.769  35.490   1.220
67721W        W29087  28.081  44.826   0.424
67722W        W29088  32.132  18.259  12.050
67723W        W29089  17.644  31.045  10.613
67724W        W29090   5.828   2.464  10.113
67725W        W29091   0.461  31.549  11.417
67726W        W29092  36.553  35.488   1.916
67727W        W29093   7.670  17.130  10.628
67728W        W29094  39.012  27.544   2.250
67729W        W29095  23.719  17.740   4.151
67730W        W29096  29.119   5.728   3.380
67731W        W29097  21.548  13.150  14.801
67732W        W29098  26.098   8.659  10.989
67733W        W29099  19.195  36.442   1.799
67734W        W29100   3.298  24.550  12.443
67735W        W29101  16.260  33.118   0.379
67736W        W29102  18.066  37.864   0.781
67737W        W29103  39.402  23.645  14.815
67738W        W29104  14.114  13.199   1.830
67739W        W29105  23.060  26.203   3.754
67740W        W29106  12.807  42.517  11.453
67741W        W29107  11.678   4.770  10.084
67742W        W29108   5.692  30.982   0.347
67743W        W29109   0.299  29.104   0.886
67744W        W29110   0.332  17.207   1.731
67745W        W29111  37.568   5.197  13.456
67746W        W29112  39.061   1.242  12.937
67747W        W29113  40.515  39.019   2.663
67748W        W29114  30.628  41.311  14.932
67749W        W29115  42.892  23.679  12.374
67750W        W29116  14.755  26.680  12.403
67751W        W29117  40.863  32.043   4.334
67752W        W29118   0.796  18.133   2.329
67753W        W29119  30.438   7.217  14.919
67754W        W29120  30.164  26.049  11.953
67755W        W29121  27.071  41.454   4.114
67756W        W29122  33.475   4.264   5.097
67757W        W29123  19.209   4.275   2.664
67758W        W29124  16.685  25.011   3.205
67759W        W29125  20.664  40.334   0.856
67760W        W29126   0.974  35.881   3.193
67761W        W29127  14.729  15.766  14.457
67762W        W29128   4.220  28.168   2.214
67763W        W29129  11.171  14.272  14.908
67764W        W29130   9.174  39.339   4.618
67765W        W29131   4.919  44.931   3.260
67766W        W29132  22.042   7.214   0.897
67767W        W29133  13.783  12.641   1.898
67768W        W29134  19.705  32.524  10.968
67769W        W29135  30.426  41.422   1.703
67770W        W29136  20.542  37.581  12.065
67771W        W29137  11.194  23.562   3.665
67772W        W29138  14.115   9.762  13.035
67773W        W29139  37.034  36.415  14.980
67774W        W29140  25.575   6.336   0.871
67775W        W29141  30.087  26.550   0.891
67776W        W29142   8.366  11.741   1.296
67777W        W29143  20.687   2.840  14.963
67778W        W29144  18.646   7.303   9.933
67779W        W29145  25.546  41.518   4.676
67780W        W29146  18.072  15.681   4.829
67781W        W29147  23.727  35.042  13.842
67782W        W29148  19.152  29.084   3.782
67783W        W29149  10.307   4.223   2.879
67784W        W29150  35.365  26.592   1.350
67785W        W29151  15.603  14.336  12.976
67786W        W29152  39.953   7.381  10.973
67787W        W29153  23.655  16.255  14.366
67788W        W29154  11.237  32.990   5.213
67789W        W29155  33.379  39.436   4.697
67790W        W29156  35.050  13.831   0.427
67791W        W29157  18.122  19.276  11.971
67792W        W29158  15.246  20.057  12.398
67793W        W29159   2.261  28.085   0.824
67794W        W29160  17.634  30.419   5.170
67795W        W29161  37.005  33.021  14.000
67796W        W29162  19.117   0.792   0.261
67797W        W29163   3.285   7.838  13.963
67798W        W29164  33.527  14.212   1.375
67799W        W29165  16.294   9.172  11.978
67800W        W29166  27.560  28.501  12.436
67801W        W29167  26.202  18.764   1.736
67802W        W29168  31.638  44.389  14.811
67803W        W29169   9.813  17.255  14.956
67804W        W29170   0.263   0.783  14.506
67805W        W29171   7.308  14.810   5.218
67806W        W29172  41.808  43.271  12.885
67807W        W29173  41.867  23.712  10.912
67808W        W29174  13.663  16.154   2.769
67809W        W29175  35.429  23.694   0.304
67810W        W29176  43.494  30.081   3.207
67811W        W29177   8.368  26.574  12.531
67812W        W29178   7.302  40.939  12.836
67813W        W29179   2.779  25.696  13.532
67814W        W29180  17.226   9.378   2.265
67815W        W29181   2.826  38.967   1.701
67816W        W29182  43.494  38.850  13.334
67817W        W29183  20.041  41.919   0.420
67818W        W29184  32.051   7.365  10.946
67819W        W29185  28.140  42.860  12.025
67820W        W29186  10.791  24.717  10.938
67821W        W29187  20.565  43.315   0.352
67822W        W29188  33.606  27.590   3.663
67823W        W29189  21.645  37.580  12.427
67824W        W29190  33.896  36.050   4.658
67825W        W29191  11.621  42.463  11.860
67826W        W29192  22.212  14.240  12.412
67827W        W29193  26.629  29.998   3.651
67828W        W29194  38.536  38.429   0.446
67829W        W29195   7.278  14.619   0.770
67830W        W29196  22.210  26.675   3.710
67831W        W29197  44.429   9.812  12.541
67832W        W29198  35.072  34.954  10.550
67833W        W29199  25.205  15.218  13.009
67834W        W29200   1.825  44.845   3.857
67835W        W29201  17.202  44.775  12.068
67836W        W29202  12.195  30.067  11.592
67837W        W29203  18.586  33.508   0.734
67838W        W29204  26.006  16.109  11.069
67839W        W29205  13.637  24.987   2.305
67840W        W29206   0.974  31.974   2.325
67841W        W29207  12.823   3.735  14.398
67842W        W29208  37.907  12.712  12.522
67843W        W29209  34.555   3.329  10.954
67844W        W29210  16.121  37.337  10.492
67845W        W29211   1.796  12.740   0.848
67846W        W29212  34.084  41.964   4.612
67847W        W29213  19.235   0.906   4.644
67848W        W29214  35.539  40.533   1.778
67849W        W29215  31.008  35.557  13.974
67850W        W29216  13.331  38.878  11.063
67851W        W29217  36.492  27.114   3.742
67852W        W29218   4.924  14.126   0.743
67853W        W29219  22.204   4.878   5.688
67854W        W29220  27.519  28.670  13.889
67855W        W29221  13.342   3.271  11.106
67856W        W29222  38.470  37.394   4.269
67857W        W29223   5.399  15.717  12.967
67858W        W29224  35.543  26.097   3.691
67859W        W29225  28.530  44.263  11.504
67860W        W29226  27.956  26.127   4.142
67861W        W29227  44.460  34.979  11.895
67862W        W29228   1.861  21.611  13.324
67863W        W29229  33.475  27.070  14.776
67864W        W29230  20.549  10.781   1.762
67865W        W29231  23.590   9.378   3.692
67866W        W29232   7.337  25.531   3.178
67867W        W29233  17.234  19.095  10.472
67868W        W29234  14.596  12.282  13.838
67869W        W29235   2.896  41.505   1.267
67870W        W29236  21.232  24.664  11.881
67871W        W29237  19.681  23.712   2.729
67872W        W29238   8.256  22.097  12.920
67873W        W29239  39.399  17.256   4.142
67874W        W29240  11.839  27.482  11.552
67875W        W29241  31.520   6.773  12.087
67876W        W29242  17.162  13.724   3.166
67877W        W29243   5.908  35.018  12.824
67878W        W29244  29.097  36.392  13.320
67879W        W29245  40.366  18.708  12.412
67880W        W29246   2.315  25.059   0.386
67881W        W29247   9.677  28.163   3.790
67882W        W29248  14.593  24.518   0.786
67883W        W29249  43.282   0.747   0.476
67884W        W29250  22.142  35.955  13.419
67885W        W29251  43.489  41.447  14.875
67886W        W29252  32.584   2.461  12.477
67887W        W29253   3.406  14.798   2.759
67888W        W29254  19.601  20.579   0.359
67889W        W29255   9.775  29.033   1.761
67890W        W29256  31.030  15.611  14.030
67891W        W29257  18.681  39.851  10.502
67892W        W29258  13.613  13.107   3.797
67893W        W29259   7.679  30.130   3.164
67894W        W29260   5.839  25.104  12.397
67895W        W29261  23.154   1.785   1.359
67896W        W29262  29.593  16.611   4.159
67897W        W29263   5.246  17.223   3.732
67898W        W29264  13.785  36.843   5.658
67899W        W29265  38.039   2.302   4.300
67900W        W29266  14.333   9.311  11.612
67901W        W29267  20.753   6.305  13.523
67902W        W29268   3.302  42.992  12.427
67903W        W29269  18.579   1.880  13.518
67904W        W29270   7.361  20.159  10.889
67905W        W29271   0.415  19.637   1.231
67906W        W29272  32.527  13.303  12.551
67907W        W29273   3.859  43.782  11.058
67908W        W29274  41.325  36.970  14.514
67909W        W29275  11.317  44.759   3.293
67910W        W29276   5.823   4.770  12.023
67911W        W29277  14.137   5.888   4.620
67912W        W29278  43.369  21.034   3.820
67913W        W29279  22.171  20.193   3.339
67914W        W29280  39.509   2.933  13.371
67915W        W29281  36.536  37.880   0.317
67916W        W29282   8.342   5.724  13.484
67917W        W29283   5.281  28.129  13.367
67918W        W29284  36.500  28.957   4.670
67919W        W29285  20.262  33.990  12.441
67920W        W29286  27.117  43.999   4.291
67921W        W29287  12.152  29.947  14.933
67922W        W29288  19.216  39.899  13.391
67923W        W29289  32.487   7.701   0.463
67924W        W29290  33.560  18.289  13.362
67925W        W29291  34.499  22.149   2.267
67926W        W29292  31.635  14.820   1.222
67927W        W29293  29.092  32.394   3.794
67928W        W29294  44.788  33.594   0.767
67929W        W29295  28.531   7.322  11.980
67930W        W29296  24.688  28.085  14.472
67931W        W29297  24.114  39.873   3.158
67932W        W29298   4.330  20.170  11.537
67933W        W29299  21.521  38.347   3.240
67934W        W29300   2.810  10.355   4.173
67935W        W29301  42.517  12.309   1.357
67936W        W29302   0.270   6.350   1.790
67937W        W29303  19.685  26.150  11.885
67938W        W29304  36.399  39.871   4.719
67939W        W29305  42.442  26.489   3.352
67940W        W29306  32.512  12.854  10.496
67941W        W29307  22.742  39.327  11.993
67942W        W29308  40.820  24.528  12.065
67943W        W29309  37.421   2.950   0.732
67944W        W29310  11.638   5.718  14.955
67945W        W29311  18.764  18.576   4.612
67946W        W29312   5.290  37.017   1.928
67947W        W29313  39.867  16.155   0.439
67948W        W29314  20.675  28.452  11.934
67949W        W29315   2.433   4.406  11.080
67950W        W29316   0.414   9.175  12.495
67951W        W29317  25.012  16.617  12.053
67952W        W29318  19.557   1.887   0.738
67953W        W29319   5.412  30.570  12.954
67954W        W29320   4.361  25.048  11.884
67955W        W29321  32.621   8.710   1.314
67956W        W29322  26.994   4.365  14.982
67957W        W29323  16.124  30.634  11.486
67958W        W29324  18.704  12.638   1.762
67959W        W29325  40.498  10.832  12.936
67960W        W29326  35.451   2.303  14.482
67961W        W29327  26.011  21.148   0.341
67962W        W29328  41.996   1.246  12.005
67963W        W29329  24.162  38.051   0.893
67964W        W29330  15.276  10.370  11.603
67965W        W29331   2.280  32.393   3.189
67966W        W29332  25.512  25.666   4.614
67967W        W29333  30.607  27.617   0.284
67968W        W29334  13.842  35.027  14.422
67969W        W29335  43.490  24.709   3.353
67970W        W29336  17.557  14.163  12.439
67971W        W29337  32.937  21.175   1.384
67972W        W29338  24.989  33.971  14.970
67973W        W29339   9.385  32.114   3.825
67974W        W29340  31.433  27.163  11.372
67975W        W29341  39.896   8.784  13.473
67976W        W29342  37.522  31.569   2.814
67977W        W29343   1.362   5.288  12.346
67978W        W29344  22.242  19.716  13.998
67979W        W29345  33.988  38.394   5.142
67980W        W29346   1.447   4.426   3.340
67981W        W29347   0.867  38.565  14.296
67982W        W29348  26.545  31.467  10.049
67983W        W29349  13.668  27.457  13.542
67984W        W29350  26.622  43.830   3.744
67985W        W29351  26.981   3.831  10.605
67986W        W29352  44.330   8.866   0.739
67987W        W29353   2.794  20.526   1.281
67988W        W29354  12.628  30.106   0.407
67989W        W29355  30.985  43.328   4.321
67990W        W29356  24.024  37.911  10.616
67991W        W29357  27.183  28.043  13.792
67992W        W29358  30.512   6.399  12.949
67993W        W29359  40.977  20.038   0.359
67994W        W29360  44.924   7.382  13.426
67995W        W29361  18.266  34.533  14.462
67996W        W29362   7.176  25.979   0.286
67997W        W29363  40.414  25.546   2.261
67998W        W29364  27.126  22.059   0.765
67999W        W29365  39.002  23.519  10.114
68000W        W29366   1.336  18.778  12.832
68001W        W29367  37.017  40.868  13.054
68002W        W29368  44.764  24.656   3.280
68003W        W29369  13.221  24.668   3.324
68004W        W29370  22.024   7.859   0.757
68005W        W29371   3.456  39.028   4.729
68006W        W29372  16.741   7.858   0.919
68007W        W29373   2.819  41.399  13.894
68008W        W29374  40.036  27.048   0.871
68009W        W29375  23.214  13.145   0.801
68010W        W29376  10.156  31.955   1.240
68011W        W29377  25.599   0.263  12.473
68012W        W29378  16.080  11.301  13.945
68013W        W29379   6.899  43.016  11.963
68014W        W29380   1.859  40.043  11.023
68015W        W29381  42.390   5.222  12.454
68016W        W29382  31.972  16.762   0.457
68017W        W29383  25.997   1.850  14.942
68018W        W29384  39.868  31.152  11.512
68019W        W29385   2.240  24.117  13.003
68020W        W29386  42.957  13.313   4.720
68021W        W29387  30.025  44.309   1.236
68022W        W29388  14.249  18.119   2.834
68023W        W29389  20.186  29.081  14.433
68024W        W29390  36.091  22.037   2.240
68025W        W29391  13.756   2.768   3.669
68026W        W29392  35.008   0.402  14.986
68027W        W29393  32.434  43.857  12.874
68028W        W29394  12.647  44.831  14.948
68029W        W29395  39.054  14.309   3.682
68030W        W29396   7.731  35.091   3.279
68031W        W29397  10.839  37.900  10.611
68032W        W29398  16.169  10.717  13.047
68033W        W29399  41.881   6.204   1.219
68034W        W29400  41.453  21.179   0.466
68035W        W29401   9.672  42.405   4.232
68036W        W29402  25.207  29.577   3.641
68037W        W29403  41.311  31.907   3.788
68038W        W29404  44.816  16.767  11.074
68039W        W29405  25.596  35.093  12.442
68040W        W29406  27.146  27.166   2.888
68041W        W29407  27.102  31.560   1.344
68042W        W29408  10.312  34.118   1.419
68043W        W29409  30.620   5.873   4.247
68044W        W29410  15.681  21.094   4.630
68045W        W29411  32.948  32.939  13.458
68046W        W29412  44.459  12.815   3.222
68047W        W29413  25.068  11.130   3.254
68048W        W29414  31.975  25.575   5.119
68049W        W29415  42.334  27.630   0.738
68050W        W29416  39.542   8.874   3.664
68051W        W29417  13.608  27.020   3.856
68052W        W29418  26.000  40.901  13.541
68053W        W29419  37.044  16.167  10.900
68054W        W29420   5.703  23.677   3.737
68055W        W29421   0.867  40.925  11.924
68056W        W29422   9.335   2.803   9.539
68057W        W29423   2.939  14.203  11.408
68058W        W29424  20.112   4.739   0.827
68059W        W29425  37.542  35.936  11.523
68060W        W29426  14.812  21.262  12.904
68061W        W29427   9.161  15.230  10.586
68062W        W29428  30.144  34.055  12.448
68063W        W29429  13.207  25.586  13.396
68064W        W29430  14.318   0.845  10.480
68065W        W29431  38.055  41.802   4.272
68066W        W29432   3.365  29.985  10.924
68067W        W29433   1.871  35.527   1.914
68068W        W29434  22.054   7.822   0.336
68069W        W29435  37.548  18.145   3.236
68070W        W29436  15.251  13.270   3.319
68071W        W29437  28.982  43.334   4.695
68072W        W29438  12.772  15.636  12.876
68073W        W29439   5.439   0.750   4.615
68074W        W29440   0.931   9.729   0.774
68075W        W29441  43.357  39.531   0.457
68076W        W29442   4.784  37.531  12.515
68077W        W29443   3.221  24.014  12.876
68078W        W29444  34.035  40.481   2.799
68079W        W29445  10.662  34.117   4.225
68080W        W29446   1.774  43.330   1.451
68081W        W29447   5.750  43.799   0.244
68082W        W29448   3.216  17.287   0.258
68083W        W29449  10.735  44.937  14.314
68084W        W29450  26.465  13.700   4.338
68085W        W29451   1.282  29.958   2.688
68086W        W29452  44.754  11.192   4.608
68087W        W29453  39.989  31.404   2.309
68088W        W29454  44.942  32.626   0.262
68089W        W29455  39.461  10.165  10.093
68090W        W29456  40.530  39.987  10.903
68091W        W29457   5.363  29.023   1.881
68092W        W29458  34.487   5.438  12.080
68093W        W29459   4.940  12.656   4.164
68094W        W29460  21.633  18.063   3.729
68095W        W29461  44.305   0.902  14.320
68096W        W29462  25.674  34.086   2.811
68097W        W29463  12.774  32.071  12.002
68098W        W29464  29.506  34.416  12.974
68099W        W29465  37.438  31.978  14.481
68100W        W29466  19.090   2.449  10.505
68101W        W29467   5.844  34.936  11.416
68102W        W29468  14.280  42.497   2.769
68103W        W29469  30.101  42.375  14.380
68104W        W29470   8.880  12.657   3.326
68105W        W29471  32.566  27.665   4.269
68106W        W29472  39.447   0.462  10.458
68107W        W29473  33.606  11.809  13.790
68108W        W29474   9.382  44.887   3.192
68109W        W29475   5.749  32.512   1.742
68110W        W29476  22.683   2.226   1.927
68111W        W29477  25.148   9.221  14.968
68112W        W29478  24.480   6.196   4.837
68113W        W29479  40.480  19.776  14.887
68114W        W29480  17.658   4.792  11.423
68115W        W29481  28.477  35.479  13.438
68116W        W29482   5.419  34.389   1.821
68117W        W29483   5.329   2.966   0.920
68118W        W29484   9.806  32.579   0.271
68119W        W29485   9.386  29.918   4.168
68120W        W29486   9.364  21.631  14.899
68121W        W29487  39.993  18.771  12.918
68122W        W29488  14.270  34.914  10.498
68123W        W29489   2.315  39.456   0.821
68124W        W29490  42.984   9.800   1.917
68125W        W29491   6.405   5.379   1.819
68126W        W29492  23.555  36.516   3.801
68127W        W29493  15.318  36.944   2.853
68128W        W29494  40.370  34.986  14.408
68129W        W29495  37.992  27.010  13.889
68130W        W29496  24.105   4.439   4.614
68131W        W29497  13.805  26.584  10.484
68132W        W29498   1.273  27.532  12.870
68133W        W29499  16.722  26.487  14.366
68134W        W29500  12.268   5.777  13.491
68135W        W29501  36.925   7.879  14.508
68136W        W29502  16.767  18.267  13.800
68137W        W29503  43.442  25.026   2.790
68138W        W29504  44.493  18.053   3.214
68139W        W29505  42.835  28.943  12.063
68140W        W29506   0.393  43.334  11.937
68141W        W29507  25.697  18.278  12.400
68142W        W29508  34.557  38.864  12.412
68143W        W29509  15.230  44.983   4.628
68144W        W29510  41.850   6.329   0.434
68145W        W29511   1.897  12.764  10.476
68146W        W29512   8.241   6.343  13.447
68147W        W29513  23.192   5.308   2.280
68148W        W29514  34.045  19.270  10.422
68149W        W29515  28.534  41.343   5.158
68150W        W29516  31.900   6.421   4.201
68151W        W29517   5.688  12.279  11.613
68152W        W29518  41.809  10.139   1.360
68153W        W29519   2.426  26.528  13.029
68154W        W29520  18.192  27.111   0.786
68155W        W29521  10.319  41.514  12.410
68156W        W29522  41.506   8.175  11.469
68157W        W29523  44.888  44.896   3.319
68158W        W29524  10.772   8.405  12.479
68159W        W29525  34.887  21.046   0.468
68160W        W29526  12.625  43.888   4.779
68161W        W29527  32.580  30.010   0.947
68162W        W29528  42.888  24.089  13.818
68163W        W29529  31.404  31.629  12.471
68164W        W29530  29.460  10.820   3.277
68165W        W29531  32.971  30.497  11.456
68166W        W29532  17.764  26.481   1.767
68167W        W29533  11.367  28.674  11.028
68168W        W29534  29.942   0.265   1.912
68169W        W29535  20.127  18.106  11.897
68170W        W29536  14.603  42.867   3.213
68171W        W29537  30.024  23.038   2.390
68172W        W29538  18.199  15.108  14.840
68173W        W29539  22.216   6.373  13.990
68174W        W29540   3.322   5.232  13.923
68175W        W29541   3.252  32.995  13.007
68176W        W29542  39.019  10.652   0.753
68177W        W29543  18.587  14.669  12.899
68178W        W29544  17.266  26.494   0.935
68179W        W29545  24.675  29.578   4.727
68180W        W29546  40.814  39.011  13.431
68181W        W29547  35.082  10.856  13.860
68182W        W29548  39.981  27.137   3.838
68183W        W29549  17.690  41.027   2.772
68184W        W29550  26.953  25.549   4.285
68185W        W29551  24.976  44.868  14.509
68186W        W29552  41.886  22.523   0.760
68187W        W29553   6.782  23.726  11.507
68188W        W29554  19.095   7.417   2.234
68189W        W29555   5.415  27.105   0.403
68190W        W29556  37.047  26.662   9.975
68191W        W29557  19.673  40.018  12.551
68192W        W29558   1.387  21.749   1.232
68193W        W29559  41.008  15.198  13.394
68194W        W29560  15.236  30.089   3.385
68195W        W29561  27.641  39.031  11.096
68196W        W29562  12.204  27.062   2.357
68197W        W29563  30.507  13.796  14.310
68198W        W29564  34.583  29.043  12.072
68199W        W29565  11.664   2.281   4.169
68200W        W29566  30.540   2.858  14.491
68201W        W29567  22.226  19.619   4.801
68202W        W29568  19.087  37.529  13.375
68203W        W29569   7.848  36.549   3.835
68204W        W29570   8.757  17.627   0.424
68205W        W29571   4.887  19.210   1.735
68206W        W29572  35.916  34.533   2.417
68207W        W29573  15.592  10.288  12.924
68208W        W29574  17.071  40.799   1.375
68209W        W29575   1.924  10.651   1.262
68210W        W29576  30.008   7.337  10.986
68211W        W29577  10.647   6.341  14.899
68212W        W29578   2.790   6.329   4.201
68213W        W29579   5.264  26.108  14.963
68214W        W29580   6.209  16.707  14.002
68215W        W29581  36.854   0.960  13.371
68216W        W29582  21.591  29.076  10.618
68217W        W29583  23.168  26.100   2.664
68218W        W29584  21.554  10.759   0.440
68219W        W29585  14.252  18.141  10.569
68220W        W29586  14.182  23.610   2.679
68221W        W29587  10.252  31.541  12.043
68222W        W29588   4.777  33.066   0.455
68223W        W29589  42.415  11.373   1.307
68224W        W29590  30.074  36.969  13.455
68225W        W29591   9.177   0.759  13.915
68226W        W29592  17.715  11.278   2.270
68227W        W29593  34.614  44.447  10.455
68228W        W29594  34.569  15.817  11.481
68229W        W29595  28.943   6.407   0.765
68230W        W29596   3.458   4.330  14.918
68231W        W29597  34.514  15.822  12.545
68232W        W29598  35.521  20.056   2.397
68233W        W29599  10.313   4.742   3.376
68234W        W29600  10.228   3.333   0.307
68235W        W29601  16.638   9.317  10.580
68236W        W29602  13.134   7.691  12.532
68237W        W29603   8.276  29.635  12.976
68238W        W29604  19.570  33.620  14.875
68239W        W29605  19.114  15.654  11.867
68240W        W29606  21.259  38.339  14.508
68241W        W29607  22.087  42.289   3.250
68242W        W29608   8.737  35.968  10.444
68243W        W29609  12.615   5.855   0.915
68244W        W29610  36.878  29.933   4.662
68245W        W29611  16.274  36.939   3.252
68246W        W29612  41.939  40.817  13.815
68247W        W29613  11.838  17.133   3.663
68248W        W29614  35.034   7.722  13.888
68249W        W29615   3.888  11.355  10.973
68250W        W29616  23.192  43.272   2.799
68251W        W29617   1.324  22.512  12.985
68252W        W29618  39.975  26.565  14.432
68253W        W29619   1.298  20.095   1.725
68254W        W29620   5.328  26.959   3.312
68255W        W29621  13.788  23.007   0.863
68256W        W29622  15.122  19.153  13.374
68257W        W29623  38.341  32.914  12.872
68258W        W29624  42.299  36.415  13.974
68259W        W29625  23.022  40.366  11.593
68260W        W29626  23.156  26.532  10.544
68261W        W29627  26.116  25.512   4.174
68262W        W29628  10.699  43.461   2.828
68263W        W29629  27.130  12.624  13.437
68264W        W29630  11.694  42.320   0.415
68265W        W29631  34.526  29.154  12.906
68266W        W29632  15.190  33.531  13.315
68267W        W29633  31.120  34.048  11.586
68268W        W29634  36.529   9.827  14.837
68269W        W29635  28.013   8.805  13.839
68270W        W29636  21.742  42.381   3.728
68271W        W29637  27.975  32.958  13.911
68272W        W29638  36.416  16.300   4.139
68273W        W29639  14.716  17.794   1.762
68274W        W29640  26.699  37.485   4.765
68275W        W29641  26.613  14.731   2.875
68276W        W29642  30.517   1.450  12.000
68277W        W29643  23.087  27.670   1.260
68278W        W29644  43.453  36.864  13.967
68279W        W29645   6.229  43.454  11.479
68280W        W29646  44.799  13.786  12.043
68281W        W29647   6.677   9.799   3.783
68282W        W29648   8.337  39.349  11.491
68283W        W29649   1.925   4.219   1.273
68284W        W29650  40.548  33.387  14.863
68285W        W29651  31.139  28.485  13.860
68286W        W29652  29.979  36.984  14.499
68287W        W29653   0.883  38.508  13.434
68288W        W29654  40.830  18.076   0.858
68289W        W29655  31.588  37.567   0.255
68290W        W29656   7.900  10.326  10.981
68291W        W29657  14.119  28.621   2.419
68292W        W29658  24.549  36.379  12.571
68293W        W29659  41.034  35.904   2.282
68294W        W29660  12.241  33.524  14.847
68295W        W29661  17.704  19.555  13.407
68296W        W29662  27.569  30.012   0.261
68297W        W29663  21.224  12.306   0.275
68298W        W29664  41.917  35.103  12.019
68299W        W29665  14.169  16.300  12.860
68300W        W29666  25.135  17.649  14.026
68301W        W29667  30.007  11.795  12.959
68302W        W29668  37.000   3.913  13.412
68303W        W29669  43.772   4.704  10.993
68304W        W29670  10.201  23.576   1.389
68305W        W29671  22.654  26.586  12.465
68306W        W29672  22.664  42.929   3.736
68307W        W29673  12.311  35.962   2.728
68308W        W29674  19.574   1.847   0.379
68309W        W29675  39.856  34.481  13.514
68310W        W29676   4.896  40.542   1.335
68311W        W29677  36.401  28.538  11.472
68312W        W29678   1.248   5.909   2.699
68313W        W29679   6.867  36.466  12.065
68314W        W29680  41.327  14.310   1.815
68315W        W29681   4.343  38.552   2.327
68316W        W29682  34.035  31.979   2.279
68317W        W29683   8.837  35.049  14.467
68318W        W29684  10.185  15.757   1.698
68319W        W29685  14.288  27.601   0.757
68320W        W29686   9.293  25.648   2.413
68321W        W29687  11.263  13.779  10.478
68322W        W29688  33.112  34.042   3.835
68323W        W29689  18.733   0.818  13.957
68324W        W29690  12.671  10.775  10.538
68325W        W29691  15.596  25.053   4.772
68326W        W29692   1.793  24.117  13.860
68327W        W29693   1.282  20.679  12.069
68328W        W29694   0.425  19.044   0.355
68329W        W29695  14.261  34.987  13.005
68330W        W29696  27.491  28.519  12.917
68331W        W29697  26.580  38.952  12.527
68332W        W29698  10.222  25.618   3.236
68333W        W29699  23.027  33.049  14.279
68334W        W29700  20.087  14.823  10.588
68335W        W29701  23.510  25.100   1.753
68336W        W29702  28.594  18.164   1.900
68337W        W29703  32.464  25.654   1.729
68338W        W29704  11.646  21.044   2.322
68339W        W29705  44.411   8.835  13.038
68340W        W29706  18.563   2.863   4.245
68341W        W29707  21.160  20.702  13.895
68342W        W29708  44.874  31.057  10.416
68343W        W29709  13.607  18.769  13.506
68344W        W29710  29.002   4.350   0.386
68345W        W29711  38.991   3.877  14.845
68346W        W29712   9.323  28.497   1.242
68347W        W29713  34.527  23.606   3.161
68348W        W29714  34.399  16.724   4.632
68349W        W29715  35.533   1.265  11.484
68350W        W29716   5.339  10.384   3.683
68351W        W29717   7.881  22.578  11.500
68352W        W29718  38.554  43.435   0.374
68353W        W29719   2.766   2.260  12.422
68354W        W29720   2.472  16.174  11.964
68355W        W29721  37.399   5.213  14.928
68356W        W29722  38.530   9.187   1.447
68357W        W29723  23.077  19.546  11.567
68358W        W29724  32.515  36.957   1.785
68359W        W29725  10.169  13.639   2.713
68360W        W29726  38.021  38.057   2.834
68361W        W29727  14.823  38.868   2.285
68362W        W29728  32.455  21.170   1.358
68363W        W29729  41.488  18.104   0.398
68364W        W29730   4.283  35.591  14.976
68365W        W29731  26.017   3.895  13.548
68366W        W29732  25.529   8.278  10.564
68367W        W29733  23.038  25.043   4.134
68368W        W29734  25.216  40.919  11.475
68369W        W29735  14.248  16.138  13.958
68370W        W29736  16.796  31.519  11.403
68371W        W29737   0.344  24.048  10.624
68372W        W29738  12.248  39.035  14.881
68373W        W29739  38.503  38.906  12.959
68374W        W29740  40.949   7.749   1.380
68375W        W29741   4.713  29.103   2.410
68376W        W29742  36.565   1.379  10.612
68377W        W29743   5.731  10.815   1.804
68378W        W29744  33.446  19.716   5.181
68379W        W29745  29.484  21.615   3.847
68380W        W29746  41.391  40.518  12.060
68381W        W29747   3.726  27.063   3.749
68382W        W29748  17.294  20.173  12.075
68383W        W29749  15.174  22.649  13.346
68384W        W29750   7.371   1.365   0.250
68385W        W29751  42.922  43.821   1.702
68386W        W29752  21.702  20.253   1.812
68387W        W29753  18.575  38.943  14.930
68388W        W29754  39.853  22.591  13.310
68389W        W29755   1.356  24.613  12.087
68390W        W29756  30.650  39.821   4.243
68391W        W29757   8.299  37.836  11.515
68392W        W29758  20.180  14.315  10.570
68393W        W29759   2.338  32.413  13.887
68394W        W29760  13.297  16.100  11.080
68395W        W29761  29.555  20.694   3.703
68396W        W29762   8.244  39.357  14.926
68397W        W29763  30.096   0.897  12.089
68398W        W29764  38.542  42.386   0.774
68399W        W29765  18.567  39.036   2.269
68400W        W29766  20.052  16.687  13.824
68401W        W29767  39.402  36.589   4.754
68402W        W29768   9.281  22.034   4.696
68403W        W29769  10.252  42.792   0.752
68404W        W29770  32.444   4.382  12.347
68405W        W29771  10.253  33.935   4.661
68406W        W29772   8.367  42.410   4.737
68407W        W29773   0.938  31.577   4.772
68408W        W29774  12.744  34.955  14.469
68409W        W29775   8.732  38.048   3.191
68410W        W29776  11.851  25.010   1.219
68411W        W29777  37.021  33.919   2.770
68412W        W29778  32.009  21.652  11.404
68413W        W29779  28.042   8.749  13.528
68414W        W29780  12.252  44.873  14.023
68415W        W29781  26.685  13.287  11.036
68416W        W29782  35.029  26.957   2.363
68417W        W29783  26.977  39.504  10.529
68418W        W29784  24.646  16.698  13.901
68419W        W29785  21.722  13.787   1.836
68420W        W29786  32.023  16.242   2.708
68421W        W29787  22.213   3.226   5.296
68422W        W29788  41.479   0.349  12.396
68423W        W29789  18.286  36.891  12.860
68424W        W29790  25.101  34.099   5.680
68425W        W29791  24.682   5.909  14.447
68426W        W29792  14.325  28.652  13.537
68427W        W29793  23.672  19.637   3.761
68428W        W29794  29.631  35.497  11.429
68429W        W29795  23.616  27.472   2.409
68430W        W29796   2.249  27.979  12.507
68431W        W29797  29.013  23.083  14.992
68432W        W29798  13.193  44.775  11.905
68433W        W29799  17.108  40.442  11.581
68434W        W29800  12.825  17.686  14.486
68435W        W29801   1.802  35.093   0.316
68436W        W29802   9.667  30.649  10.413
68437W        W29803   4.779  28.940   0.894
68438W        W29804  12.753  12.763  14.963
68439W        W29805  30.974   5.705  11.437
68440W        W29806   9.385  13.258  10.946
68441W        W29807  22.226   8.248  14.314
68442W        W29808  34.929  26.964  13.806
68443W        W29809   8.257  31.118   1.224
68444W        W29810  34.372  37.493  14.851
68445W        W29811  17.705   2.777  11.010
68446W        W29812  37.936   4.718  13.944
68447W        W29813   1.319  26.023  14.347
68448W        W29814   6.723  30.938  14.298
68449W        W29815  15.151  27.995  14.935
68450W        W29816  18.284  36.438   5.805
68451W        W29817  32.471   5.312  10.891
68452W        W29818  41.505   7.173   2.322
68453W        W29819  17.772  35.457   4.219
68454W        W29820  29.107  15.701  13.897
68455W        W29821   9.809  11.714  13.013
68456W        W29822  25.200  36.918  12.491
68457W        W29823  23.592  33.393   3.871
68458W        W29824   3.792  38.423   0.248
68459W        W29825  19.182  25.710   0.931
68460W        W29826  35.531  15.173   4.635
68461W        W29827  14.138   8.266  14.976
68462W        W29828  12.264  21.233   3.791
68463W        W29829  22.164  33.590  14.884
68464W        W29830  44.838  37.435   2.870
68465W        W29831  24.058   4.905  13.450
68466W        W29832  38.951  33.105  11.470
68467W        W29833  28.528  24.523  12.494
68468W        W29834  37.580  43.867   1.793
68469W        W29835  20.767  23.204  11.560
68470W        W29836  35.092  17.612   4.119
68471W        W29837  13.199  10.792   3.662
68472W        W29838  37.479  11.673   1.297
68473W        W29839  25.037  18.597   4.348
68474W        W29840   5.857   7.222   3.784
68475W        W29841  41.992  16.117   3.635
68476W        W29842  35.015  24.203  14.399
68477W        W29843  13.782  25.967   3.806
68478W        W29844  32.900   6.820   3.767
68479W        W29845   1.814  44.947  13.548
68480W        W29846  24.154   2.810   3.747
68481W        W29847  44.471   6.198  11.526
68482W        W29848   2.443  25.700  14.892
68483W        W29849   3.753   4.333  11.862
68484W        W29850  10.803  35.101  11.495
68485W        W29851   8.367  22.030   3.821
68486W        W29852  33.594  13.106  12.386
68487W        W29853   5.699  17.574   5.702
68488W        W29854   4.816  24.203   1.212
68489W        W29855  15.145  26.964  14.441
68490W        W29856  27.948   0.324   4.707
68491W        W29857  20.735  18.246   4.237
68492W        W29858  24.163  44.906  10.966
68493W        W29859  30.913  14.254   4.167
68494W        W29860  12.694  21.159   2.819
68495W        W29861   9.246   3.741  14.941
68496W        W29862  38.019  11.221   2.288
68497W        W29863  18.294  33.889  13.395
68498W        W29864  10.145  17.074   4.290
68499W        W29865   4.891  37.912   4.701
68500W        W29866  34.109   7.197  11.882
68501W        W29867   8.403  28.632   4.331
68502W        W29868  10.289  24.081   2.396
68503W        W29869  18.619  38.363  11.374
68504W        W29870  42.388  33.993  12.405
68505W        W29871  21.037  41.878  14.515
68506W        W29872  33.002  14.324  11.058
68507W        W29873  35.505  24.142  11.540
68508W        W29874   9.313  31.010  12.423
68509W        W29875  14.784  14.329   3.633
68510W        W29876   1.324  15.803   4.316
68511W        W29877   5.806   3.255  13.865
68512W        W29878  25.677   8.786   1.886
68513W        W29879  22.741  27.632   2.830
68514W        W29880  17.579  11.274   0.747
68515W        W29881  19.275  39.009  11.869
68516W        W29882  38.998  28.604  10.969
68517W        W29883  26.529  19.192   3.357
68518W        W29884   7.203  14.822  14.458
68519W        W29885  12.806   9.680  13.891
68520W        W29886  41.421   1.827  11.428
68521W        W29887  23.200   4.703  12.846
68522W        W29888  22.744   5.312   1.351
68523W        W29889   2.857  12.712  14.335
68524W        W29890  39.553  32.034  10.404
68525W        W29891  39.491  22.595  13.369
68526W        W29892  13.738   7.806  11.460
68527W        W29893  27.503   6.827   1.834
68528W        W29894  24.018  38.549  12.863
68529W        W29895  33.058   0.972  13.456
68530W        W29896  37.364  18.640   0.321
68531W        W29897  29.924  23.571  10.418
68532W        W29898  39.417   9.768   1.396
68533W        W29899  27.086  22.561  12.978
68534W        W29900  37.554  21.198  10.083
68535W        W29901  11.201  26.057   2.306
68536W        W29902  39.836  36.473  14.365
68537W        W29903  37.957  24.074   0.809
68538W        W29904   5.399  14.763  13.860
68539W        W29905  32.607   8.255  14.481
68540W        W29906  23.633  32.919   4.755
68541W        W29907  17.717   9.201  12.388
68542W        W29908   6.315  39.551   0.294
68543W        W29909  13.184   6.755   0.461
68544W        W29910   6.792  35.563  13.473
68545W        W29911  31.477  23.591   0.759
68546W        W29912  26.571  24.701   1.357
68547W        W29913  28.680  25.686   4.148
68548W        W29914  42.795  40.400  12.856
68549W        W29915  18.254  16.243   2.679
68550W        W29916  27.509  37.858  12.864
68551W        W29917  33.058  20.648  14.934
68552W        W29918  21.101  33.875   3.694
68553W        W29919   3.769  10.654  11.447
68554W        W29920  11.708  18.170  13.464
68555W        W29921   3.746  37.983   4.254
68556W        W29922  18.587   1.752   3.682
68557W        W29923  12.684  35.430   1.793
68558W        W29924  34.438  44.972  14.473
68559W        W29925  12.649  14.128   2.790
68560W        W29926   6.814   9.855  12.575
68561W        W29927  12.839  38.886   2.665
68562W        W29928  34.496  38.927  10.077
68563W        W29929  10.664  35.472   2.213
68564W        W29930   4.747  22.538  13.474
68565W        W29931   4.778  37.397  11.412
68566W        W29932  14.657  36.441   1.729
68567W        W29933   1.848  27.621  11.389
68568W        W29934  31.912  42.288   2.293
68569W        W29935  15.267  43.279  10.449
68570W        W29936  40.474  15.271   3.188
68571W        W29937  12.127  19.261  11.382
68572W        W29938  21.066  25.567  12.945
68573W        W29939  30.456  26.152   2.284
68574W        W29940  21.703  41.358  10.408
68575W        W29941  31.445   4.777   4.184
68576W        W29942  13.296  43.362  12.879
68577W        W29943  37.424  22.506   5.212
68578W        W29944  33.054  26.522  10.931
68579W        W29945  44.369  38.360   3.835
68580W        W29946  15.782  36.861  14.290
68581W        W29947  35.040   3.922   4.256
68582W        W29948  35.456   3.249  14.275
68583W        W29949   7.271   6.842   9.544
68584W        W29950  11.252  42.874   4.626
68585W        W29951  27.583  18.090   2.830
68586W        W29952  12.204   4.938  12.890
68587W        W29953  11.282  24.617   1.881
68588W        W29954  40.389  12.790   3.220
68589W        W29955  21.052  12.712  12.072
68590W        W29956  37.882  15.119  14.321
68591W        W29957  42.796  35.106  13.036
68592W        W29958  10.833  12.333   1.725
68593W        W29959   8.185  44.367   0.277
68594W        W29960  10.307  20.654  12.061
68595W        W29961  14.806  39.003  11.994
68596W        W29962  30.044  42.937   2.189
68597W        W29963  44.824  33.073   0.830
68598W        W29964  15.739  35.924  12.417
68599W        W29965  41.402  22.020   0.480
68600W        W29966   9.382  26.194  12.340
68601W        W29967   4.305  42.301   2.257
68602W        W29968  40.358  25.536  11.583
68603W        W29969   6.860  12.687  10.129
68604W        W29970  33.424  19.708  12.417
68605W        W29971   8.826  12.288   0.799
68606W        W29972  10.681  43.816  14.968
68607W        W29973  22.055  14.626  14.762
68608W        W29974  30.939   1.810   3.811
68609W        W29975  30.937   4.772   0.859
68610W        W29976  17.093  40.052   1.751
68611W        W29977  14.611   2.274   1.250
68612W        W29978  12.145  17.103   4.237
68613W        W29979   8.669  17.127   4.785
68614W        W29980  21.206  34.379  13.968
68615W        W29981  35.039  33.005   4.668
68616W        W29982  14.250  35.986   4.646
68617W        W29983  13.733  42.299   2.385
68618W        W29984  33.023  13.337   0.770
68619W        W29985   2.727  32.464   4.214
68620W        W29986  31.477  32.030   0.483
68621W        W29987   0.397  20.629   1.739
68622W        W29988  24.012   9.183  14.945
68623W        W29989  43.364  18.134  12.023
68624W        W29990   1.740  23.607   1.252
68625W        W29991   9.849  37.546  10.527
68626W        W29992  32.989  12.805   1.813
68627W        W29993   4.845  33.060  10.414
68628W        W29994  14.663  32.060  11.100
68629W        W29995  23.196  18.563   0.901
68630W        W29996  10.869  11.742  10.522
68631W        W29997  30.577   8.303   0.447
68632W        W29998  44.289   7.379   2.290
68633W        W29999  31.954   2.469  10.506
68634W        W30000  17.098   3.234  10.006
68635W        W30001  39.866   1.447   4.229
68636W        W30002   7.211  33.585  14.429
68637W        W30003  24.152  25.489  12.989
68638W        W30004  23.600   6.230   5.208
68639W        W30005  10.350  21.236  11.453
68640W        W30006  33.931  22.058   4.832
68641W        W30007  30.002  43.910   4.162
68642W        W30008  14.674   8.369  14.361
68643W        W30009  10.712  15.687   4.123
68644W        W30010   8.662  28.181  11.515
68645W        W30011  39.364  33.442  12.989
68646W        W30012  15.327  15.592   2.755
68647W        W30013  21.045  10.778   4.630
68648W        W30014  22.511  42.403  14.995
68649W        W30015  37.835  38.369  11.438
68650W        W30016   8.774  25.588  12.488
68651W        W30017  21.571  19.212  10.473
68652W        W30018  32.533  16.568  11.430
68653W        W30019  32.081  11.809  14.457
68654W        W30020  16.118   6.391   0.746
68655W        W30021  40.522   1.477   1.895
68656W        W30022  31.420  33.964  10.887
68657W        W30023   6.390  18.744   2.348
68658W        W30024  15.274  13.148   1.274
68659W        W30025  33.545  14.639  14.842
68660W        W30026  31.594  31.556   2.766
68661W        W30027  10.290   6.898   0.848
68662W        W30028   8.181   0.834  11.068
68663W        W30029   3.881   0.460   1.860
68664W        W30030  13.317  10.677  10.472
68665W        W30031  13.260  27.635   0.280
68666W        W30032   7.902  13.115  13.993
68667W        W30033  13.222  38.378   4.114
68668W        W30034  34.025  31.532   0.887
68669W        W30035  34.572  18.263   3.269
68670W        W30036  41.391  12.737  11.511
68671W        W30037   2.417  24.160  10.944
68672W        W30038  28.957  19.234  13.853
68673W        W30039  39.036  41.978   4.601
68674W        W30040  16.149  28.083   3.708
68675W        W30041   4.876  41.923  13.881
68676W        W30042  36.348   2.412  10.523
68677W        W30043  15.810  25.586  11.576
68678W        W30044   8.322  14.750   1.336
68679W        W30045  30.150  26.153  13.019
68680W        W30046  33.608  16.611   2.178
68681W        W30047  28.955  24.696  12.405
68682W        W30048  21.079   4.213  10.898
68683W        W30049  23.681   5.286   2.772
68684W        W30050  28.541   6.211  14.440
68685W        W30051  30.519  26.085   2.837
68686W        W30052  25.111  20.084   3.782
68687W        W30053   6.284  26.545  13.374
68688W        W30054  20.238  21.589  11.965
68689W        W30055   0.436  41.346  12.076
68690W        W30056  23.088  19.272  10.574
68691W        W30057  18.611  43.910  11.953
68692W        W30058   9.327  24.978   1.926
68693W        W30059  23.201  41.456   3.306
68694W        W30060   0.410  42.405  11.595
68695W        W30061  12.198  18.614   2.705
68696W        W30062   3.803  42.315   4.254
68697W        W30063  39.885  14.740   3.630
68698W        W30064  13.209  37.030  14.830
68699W        W30065   3.813   2.370   1.825
68700W        W30066  33.079  17.700   1.761
68701W        W30067  32.493   9.313   0.403
68702W        W30068  39.050  43.947   0.289
68703W        W30069  14.225  41.891  11.464
68704W        W30070  22.654  36.868   4.227
68705W        W30071   4.378   0.910   1.287
68706W        W30072  24.148  29.058   0.830
68707W        W30073  27.478  23.516  12.987
68708W        W30074  11.773  22.594   0.366
68709W        W30075  33.447   0.360  10.416
68710W        W30076  29.512  43.848   1.762
68711W        W30077  32.457  42.497   0.760
68712W        W30078   2.960  18.129  12.912
68713W        W30079  37.869   6.681   1.278
68714W        W30080  27.153  25.970   9.526
68715W        W30081  29.629  36.390   4.256
68716W        W30082  10.164  38.533   1.904
68717W        W30083  18.059  16.797  12.096
68718W        W30084  40.826   5.381  12.468
68719W        W30085  31.138  27.483  14.391
68720W        W30086   0.773  18.699   0.471
68721W        W30087  23.166  23.538  10.541
68722W        W30088  12.290  18.690   1.874
68723W        W30089  36.427   3.396   3.752
68724W        W30090  41.909  34.961   0.271
68725W        W30091   5.408  22.734   4.244
68726W        W30092  28.535  14.151   3.354
68727W        W30093   2.326  42.390   4.204
68728W        W30094  20.234  16.702  13.428
68729W        W30095  35.097   4.361   4.203
68730W        W30096  35.031  34.431  13.527
68731W        W30097  14.820   7.348   4.204
68732W        W30098  16.789  41.396  11.476
68733W        W30099  12.705  26.557  14.933
68734W        W30100   6.870  23.997   4.783
68735W        W30101  33.122  17.748  14.962
68736W        W30102  37.492  23.082   0.264
68737W        W30103   1.268  38.429  14.367
68738W        W30104   5.692  23.207   3.836
68739W        W30105  41.409  33.578  13.961
68740W        W30106  30.436  26.979   3.166
68741W        W30107  34.971  16.215  14.447
68742W        W30108  33.078  38.995  11.880
68743W        W30109   8.689   7.348  12.835
68744W        W30110  40.033   8.833  11.036
68745W        W30111  19.242  36.854  11.451
68746W        W30112   0.387   7.867   4.257
68747W        W30113   1.842   4.745  14.889
68748W        W30114  44.965  26.665   4.130
68749W        W30115   7.373  36.573   4.768
68750W        W30116  39.947  43.448   2.375
68751W        W30117  37.536  38.334  11.008
68752W        W30118  13.327  40.377  11.889
68753W        W30119   2.944  30.598   5.145
68754W        W30120  24.192   3.812  13.407
68755W        W30121  34.111  13.289   4.282
68756W        W30122  44.860  39.814  11.094
68757W        W30123  27.453  39.375  11.396
68758W        W30124  17.193  21.082   2.316
68759W        W30125  36.548   1.759  10.514
68760W        W30126  14.312   4.753  13.821
68761W        W30127  30.956  29.440  12.057
68762W        W30128   7.353   7.181   1.833
68763W        W30129  28.945  15.192  11.584
68764W        W30130  38.544  30.984  12.512
68765W        W30131  27.052  38.860  14.491
68766W        W30132   5.372  17.174   9.975
68767W        W30133  30.526  14.270  12.973
68768W        W30134   3.903  12.749  12.480
68769W        W30135  32.930  37.397  12.447
68770W        W30136  35.366  32.409   2.330
68771W        W30137   0.341  12.805  11.904
68772W        W30138  25.471   0.401   3.702
68773W        W30139  41.936   4.916  11.042
68774W        W30140  13.641  41.294  13.822
68775W        W30141   3.727  12.192   4.194
68776W        W30142  18.646   6.391   0.917
68777W        W30143   0.933   9.387   3.672
68778W        W30144  20.588  16.707   1.931
68779W        W30145  31.064  35.543   4.217
68780W        W30146   1.471  33.883   2.266
68781W        W30147  14.275  43.298  12.830
68782W        W30148  13.287  19.250   3.672
68783W        W30149   6.917  43.828  11.857
68784W        W30150  35.476  21.191  10.618
68785W        W30151   9.377   3.275  13.503
68786W        W30152  13.214  43.897   3.716
68787W        W30153  35.967   6.909   2.199
68788W        W30154   7.240  16.700   1.226
68789W        W30155  35.929  44.471   4.151
68790W        W30156  17.754  12.115  13.962
68791W        W30157  24.999   7.697  12.853
68792W        W30158   4.890  41.946   3.782
68793W        W30159  20.128   5.269   2.671
68794W        W30160   7.909  27.570   1.444
68795W        W30161   4.429  11.355  10.528
68796W        W30162  22.084  10.237  12.889
68797W        W30163  19.057  15.230  13.854
68798W        W30164  18.649  10.840   3.676
68799W        W30165  19.096   6.242  10.900
68800W        W30166  43.805  29.124   4.837
68801W        W30167  28.544  17.613  10.540
68802W        W30168  30.009  13.165  14.780
68803W        W30169  43.824   0.934  14.275
68804W        W30170   6.856  13.722   1.389
68805W        W30171  36.514  24.138  11.581
68806W        W30172  29.934  17.174  13.437
68807W        W30173  41.474  32.990  12.482
68808W        W30174  32.016  35.521   4.188
68809W        W30175  10.804   8.290  10.607
68810W        W30176  37.361   9.367  14.024
68811W        W30177  31.480   4.342  13.064
68812W        W30178  43.925   8.299  11.096
68813W        W30179  30.063  16.693  14.321
68814W        W30180  11.160  35.565   3.630
68815W        W30181   1.451  34.982  13.819
68816W        W30182  16.139  10.652   4.244
68817W        W30183  26.608  32.562  13.973
68818W        W30184   6.189  33.015  14.289
68819W        W30185  41.898  19.065   3.654
68820W        W30186  38.360  37.945   0.438
68821W        W30187   0.930   5.376  14.302
68822W        W30188   1.929  27.069  10.515
68823W        W30189   6.229  32.458  10.540
68824W        W30190  36.051  13.685  14.296
68825W        W30191   8.682   0.365  11.399
68826W        W30192  44.990  22.018  13.021
68827W        W30193  42.450  44.932   3.676
68828W        W30194   9.377  10.765  11.465
68829W        W30195  21.255  12.279   3.772
68830W        W30196  40.861  25.472  10.503
68831W        W30197   8.672  17.713  11.127
68832W        W30198   4.758  30.969   2.666
68833W        W30199  12.762  21.204  12.374
68834W        W30200  40.399   1.812   4.311
68835W        W30201  37.981  22.055   0.851
68836W        W30202  31.959  42.384  10.930
68837W        W30203  13.159  24.601  14.380
68838W        W30204  32.559  43.292   5.226
68839W        W30205  29.921  17.673   2.800
68840W        W30206  41.887  44.381   3.324
68841W        W30207  21.584  24.724  10.895
68842W        W30208  26.675  27.516   4.605
68843W        W30209  36.876  15.591  12.907
68844W        W30210  12.796  28.506   0.914
68845W        W30211  30.599  14.136  11.572
68846W        W30212  22.186  26.688  10.155
68847W        W30213  13.287  43.408   2.767
68848W        W30214   0.344   8.238  13.037
68849W        W30215  43.454  23.010   0.821
68850W        W30216   6.392   5.243  14.837
68851W        W30217  44.879  25.052   4.761
68852W        W30218  23.219   9.748   3.145
68853W        W30219  30.601  11.646  12.542
68854W        W30220   1.434  38.916  11.530
68855W        W30221  16.192   9.807   2.809
68856W        W30222  30.562   2.891  13.484
68857W        W30223  16.688  12.146   4.280
68858W        W30224   9.355  15.192  11.033
68859W        W30225  11.265  44.796  14.830
68860W        W30226  23.002  10.229   4.764
68861W        W30227  20.739  43.790  10.965
68862W        W30228  16.276  44.321  10.017
68863W        W30229   6.858  43.907   1.719
68864W        W30230  12.699  17.588   3.159
68865W        W30231  43.414  15.823   0.965
68866W        W30232   9.361   9.317   3.150
68867W        W30233  23.052  24.481  13.828
68868W        W30234  38.500  24.010   3.657
68869W        W30235  10.300  10.142  14.450
68870W        W30236  33.115   5.399   4.714
68871W        W30237  31.425   4.879   1.293
68872W        W30238  27.014  29.553  13.357
68873W        W30239   8.266  32.478   1.838
68874W        W30240  32.601  29.660  14.026
68875W        W30241  23.672  23.662  13.899
68876W        W30242  32.063  27.629   1.375
68877W        W30243  32.418  22.185  14.454
68878W        W30244   6.865  39.428   0.749
68879W        W30245  42.479  37.348   2.416
68880W        W30246  35.419  15.223  11.074
68881W        W30247  19.230  32.973   1.722
68882W        W30248  28.186  24.692  10.532
68883W        W30249  17.286  34.897   2.283
68884W        W30250   2.351  34.570   1.724
68885W        W30251   6.313  26.990  12.095
68886W        W30252  31.496  32.100  13.842
68887W        W30253   9.342  24.694  11.923
68888W        W30254  35.883  18.641  13.875
68889W        W30255   0.314   5.876   4.224
68890W        W30256   3.770   8.790   1.816
68891W        W30257  19.743  30.141   4.715
68892W        W30258  23.517   2.878   9.980
68893W        W30259  42.004  33.577  11.959
68894W        W30260  44.392  27.551  13.989
68895W        W30261  18.073  38.903  14.364
68896W        W30262  25.180  17.589  12.364
68897W        W30263  39.016  26.973  13.821
68898W        W30264  21.540  33.582   0.407
68899W        W30265  25.082  34.012  10.157
68900W        W30266  10.660  15.708  11.597
68901W        W30267  43.843  11.182  13.454
68902W        W30268  16.806  20.231   1.276
68903W        W30269  26.623  38.872  13.931
68904W        W30270  12.209   5.761   1.433
68905W        W30271  42.778  44.413  14.797
68906W        W30272  28.955  36.003  13.373
68907W        W30273   6.880   2.733   0.410
68908W        W30274   6.699  33.587  11.513
68909W        W30275  22.135  31.446  14.924
68910W        W30276  11.307   8.320   2.726
68911W        W30277  34.525   4.327   2.290
68912W        W30278  10.173  42.519   1.411
68913W        W30279  42.461  40.543  12.372
68914W        W30280  33.495   1.809  12.954
68915W        W30281  18.209  43.385   3.313
68916W        W30282  31.613  40.816  10.895
68917W        W30283  23.510  10.282  13.951
68918W        W30284  25.691  30.597  14.405
68919W        W30285  41.391  16.801   1.794
68920W        W30286   8.655   6.876  11.057
68921W        W30287  16.811  40.326   2.847
68922W        W30288  18.596  12.616   0.762
68923W        W30289   2.269   3.850   1.214
68924W        W30290  43.011  22.614   4.660
68925W        W30291  38.028   5.309  12.983
68926W        W30292  44.455  18.175  12.941
68927W        W30293  12.716  37.350  14.983
68928W        W30294  14.101  27.987   2.777
68929W        W30295  13.778   1.945   0.752
68930W        W30296  22.740  18.111   3.189
68931W        W30297   6.316  42.495  11.426
68932W        W30298  20.092   4.382   2.206
68933W        W30299  31.126  23.165  12.440
68934W        W30300  12.665  25.173  11.379
68935W        W30301  31.620  37.995  11.516
68936W        W30302   1.908  38.030   1.319
68937W        W30303  14.650   0.454   0.851
68938W        W30304  37.517   5.354   1.762
68939W        W30305  17.755  31.902   2.779
68940W        W30306   5.272  33.550  14.415
68941W        W30307  38.392  31.648  13.457
68942W        W30308  31.576  18.677  10.462
68943W        W30309   2.748  23.995   3.833
68944W        W30310   1.309  43.374  14.449
68945W        W30311   4.891  34.907   3.808
68946W        W30312  27.482  40.833   1.234
68947W        W30313  29.457   4.381  14.449
68948W        W30314  23.135  14.246  13.992
68949W        W30315  13.683  10.339  11.104
68950W        W30316  31.051  17.555   2.700
68951W        W30317  20.745  38.476  10.457
68952W        W30318   0.775  11.229   0.887
68953W        W30319   6.830   1.461   0.317
68954W        W30320   5.715  28.532  12.373
68955W        W30321   7.331  18.665  14.819
68956W        W30322  18.167   2.812  14.968
68957W        W30323  17.632  35.037   2.275
68958W        W30324   2.964  42.465  12.553
68959W        W30325  11.793  44.915   1.919
68960W        W30326  16.222  15.152   0.923
68961W        W30327  13.211   6.841   2.265
68962W        W30328   1.423   6.363  13.033
68963W        W30329  20.169  44.398   9.961
68964W        W30330  26.598  39.408  13.821
68965W        W30331  19.656  42.019   1.389
68966W        W30332  34.942  18.677   2.718
68967W        W30333  35.530   4.322   4.134
68968W        W30334  13.612  21.214   0.250
68969W        W30335  37.552  35.984   3.149
68970W        W30336  15.632   7.343  12.940
68971W        W30337  40.032  24.623   1.246
68972W        W30338  42.518  33.930  11.095
68973W        W30339  24.992   0.816   3.753
68974W        W30340  43.394  31.122   4.123
68975W        W30341   2.773  29.151  13.518
68976W        W30342  22.545  22.218   3.297
68977W        W30343  43.366  10.370  11.438
68978W        W30344   4.915  25.538  10.548
68979W        W30345  21.060  42.323   2.806
68980W        W30346  36.944  12.264  12.385
68981W        W30347  18.767   5.340   3.359
68982W        W30348  13.656  38.907  14.342
68983W        W30349  33.587   9.210   0.890
68984W        W30350  34.117  18.660   1.804
68985W        W30351  15.690  19.163   2.334
68986W        W30352   4.742  33.881   0.882
68987W        W30353   2.398  20.637  11.088
68988W        W30354  36.091  40.304  13.512
68989W        W30355  10.330   1.402   4.313
68990W        W30356  38.017  19.571   1.411
68991W        W30357  35.062  30.124  11.474
68992W        W30358  30.579  10.266  13.036
68993W        W30359   7.800   7.708   1.879
68994W        W30360  21.087  40.027   3.856
68995W        W30361  44.427   9.715  13.968
68996W        W30362  42.499  42.332  10.549
68997W        W30363  28.668  16.085  10.613
68998W        W30364  42.405  23.510  11.041
68999W        W30365   4.794  39.480   4.286
69000W        W30366  24.129  44.983   3.859
69001W        W30367   7.325  44.949   3.278
69002W        W30368   3.926  19.689   4.218
69003W        W30369  33.454  35.508   3.667
69004W        W30370   3.380   0.265   3.368
69005W        W30371  26.080  41.965   2.899
69006W        W30372  21.548  22.505   3.733
69007W        W30373  41.385   2.407   2.663
69008W        W30374  29.506  20.232   1.349
69009W        W30375   3.355  44.999  11.917
69010W        W30376  41.458  32.540   4.687
69011W        W30377   2.776  21.531   1.921
69012W        W30378  10.859   0.343  10.639
69013W        W30379  12.630   7.850   0.906
69014W        W30380   8.732  26.048  13.520
69015W        W30381  17.145  44.500   1.760
69016W        W30382  26.458  26.545   1.307
69017W        W30383   7.179  35.890  14.449
69018W        W30384  25.140  15.608   3.839
69019W        W30385  32.577  35.438  12.403
69020W        W30386   6.271  10.836  10.558
69021W        W30387  10.148  41.511   4.211
69022W        W30388  42.875  33.093  13.853
69023W        W30389  17.116  29.443   3.814
69024W        W30390  34.955  28.948   1.750
69025W        W30391  26.079  12.277   2.842
69026W        W30392   9.805   2.281   0.917
69027W        W30393  33.092  34.868   0.933
69028W        W30394  31.406   1.378  11.047
69029W        W30395  42.343   2.877  12.014
69030W        W30396   2.857  37.562  12.017
69031W        W30397   8.703  36.467  10.989
69032W        W30398  34.886   6.845  11.600
69033W        W30399  29.036  16.808  14.865
69034W        W30400  10.664   1.448   2.707
69035W        W30401  25.967  44.433  10.967
69036W        W30402  29.125  23.613  11.477
69037W        W30403  28.007  31.932   3.638
69038W        W30404  23.076  44.501  12.404
69039W        W30405  29.075  40.444  11.957
69040W        W30406  33.484   0.462  14.323
69041W        W30407  11.263   3.410  12.879
69042W        W30408   8.848   8.738  10.608
69043W        W30409   2.315   2.438  13.471
69044W        W30410  24.171   9.845   2.821
69045W        W30411   3.417  10.175  11.486
69046W        W30412   9.663  15.793   1.278
69047W        W30413   1.393  22.046  14.797
69048W        W30414  33.953  24.659   2.867
69049W        W30415  44.878   7.388  11.517
69050W        W30416  41.505   9.256  14.317
69051W        W30417  35.603  20.227  10.897
69052W        W30418  17.071  35.504   3.217
69053W        W30419   9.674  40.532   3.677
69054W        W30420  40.943   5.826   4.777
69055W        W30421   1.420   4.372   1.766
69056W        W30422  33.599  30.915   1.870
69057W        W30423  32.886  35.883   3.325
69058W        W30424   0.321  33.553  14.324
69059W        W30425   9.774  41.828   2.669
69060W        W30426  38.965  24.067  11.411
69061W        W30427   6.700   7.335   2.800
69062W        W30428  28.665  27.139  12.949
69063W        W30429  35.474  36.375   1.308
69064W        W30430   6.812  41.993   0.301
69065W        W30431  33.130  20.221   5.730
69066W        W30432   6.210  32.931  12.913
69067W        W30433  43.408  13.774  13.379
69068W        W30434  24.068  11.187   3.845
69069W        W30435  12.151   4.438  14.401
69070W        W30436  31.525   3.837   3.326
69071W        W30437  30.486  43.515  11.128
69072W        W30438  18.296  19.632  11.574
69073W        W30439   9.333   1.470   3.287
69074W        W30440  20.148  27.042  14.817
69075W        W30441  31.032  25.967   0.956
69076W        W30442  43.515  43.841  11.028
69077W        W30443  39.950  20.188  13.538
69078W        W30444  18.181  41.352   0.457
69079W        W30445  42.320   9.324  10.553
69080W        W30446  26.994  26.970   4.704
69081W        W30447  11.329   9.811   1.375
69082W        W30448  22.127  26.134  12.011
69083W        W30449   0.788  44.775  12.576
69084W        W30450   7.807  11.300   2.178
69085W        W30451  38.941  32.960   1.420
69086W        W30452   7.706   0.884   1.875
69087W        W30453   4.412  25.707   0.262
69088W        W30454  36.873   2.238  14.460
69089W        W30455  24.615  14.694   1.793
69090W        W30456  37.047   6.410   3.680
69091W        W30457  12.333  40.842  13.791
69092W        W30458  12.755  15.589   4.716
69093W        W30459  30.059  38.962  12.922
69094W        W30460  34.013   9.839  14.277
69095W        W30461  38.017  27.960  13.823
69096W        W30462   8.264  23.723  11.056
69097W        W30463  12.713  12.125  14.434
69098W        W30464  36.051  40.799  12.545
69099W        W30465   7.672  20.741  13.055
69100W        W30466  19.558  12.795   4.293
69101W        W30467   7.802   3.718   3.250
69102W        W30468  16.802  36.484  14.968
69103W        W30469   0.400   4.350   1.790
69104W        W30470  26.981  24.628  11.057
69105W        W30471  33.960  14.800   2.836
69106W        W30472  42.370  21.064   0.813
69107W        W30473  16.642   3.855   0.830
69108W        W30474   6.682  18.143   2.203
69109W        W30475  40.506  35.948   0.959
69110W        W30476  36.523  13.323  14.027
69111W        W30477   7.723  28.186   0.473
69112W        W30478  15.610   5.238  12.091
69113W        W30479  12.749  25.995   3.644
69114W        W30480   9.326  34.488  14.965
69115W        W30481  22.152   6.789  14.386
69116W        W30482  38.549  12.220   4.317
69117W        W30483   8.366  39.928   2.857
69118W        W30484  20.670  21.122   4.821
69119W        W30485  41.007  27.104   0.897
69120W        W30486  15.221  12.692   3.209
69121W        W30487  31.589  32.516   3.689
69122W        W30488   1.363   6.764   1.398
69123W        W30489  39.878  17.165  12.890
69124W        W30490  41.939   3.357   1.824
69125W        W30491   4.366  28.103   9.945
69126W        W30492  33.934  21.036   2.352
69127W        W30493  36.471  40.980   2.726
69128W        W30494  15.157  22.078  13.011
69129W        W30495  42.442  33.913   0.868
69130W        W30496  26.574  25.195  12.879
69131W        W30497  18.148  32.431   2.727
69132W        W30498  27.070  12.676   3.169
69133W        W30499  15.130   7.670  13.798
69134W        W30500  13.635  23.100   3.275
69135W        W30501  11.688  33.391  14.855
69136W        W30502  28.110  12.848  14.373
69137W        W30503  19.174  32.127   0.374
69138W        W30504  35.054   0.870  12.871
69139W        W30505  35.365  26.994   1.227
69140W        W30506  40.347  26.558   1.242
69141W        W30507  19.750  34.046   1.811
69142W        W30508  33.523   4.867   3.299
69143W        W30509  31.602   5.763  13.407
69144W        W30510   4.754  29.931   3.262
69145W        W30511  37.997  19.534  12.061
69146W        W30512  41.841   5.193  11.930
69147W        W30513   6.761  38.972  10.979
69148W        W30514   9.649  43.995  10.944
69149W        W30515  32.909  14.716   2.725
69150W        W30516  27.637   8.351   4.114
69151W        W30517  38.898   4.890  12.421
69152W        W30518  10.219  14.314  14.808
69153W        W30519  41.504  41.443   2.812
69154W        W30520  28.004  14.788  11.415
69155W        W30521  37.341  23.224  13.043
69156W        W30522  43.372  21.652   3.262
69157W        W30523  29.125  22.200  12.499
69158W        W30524   1.368  34.975   0.835
69159W        W30525  39.331   0.379  11.505
69160W        W30526  13.147  12.716  11.544
69161W        W30527  26.525  12.826   4.351
69162W        W30528  41.402  42.836   4.597
69163W        W30529  32.626  19.560  14.975
69164W        W30530  32.620  23.567   2.205
69165W        W30531   2.767   5.689  14.381
69166W        W30532  28.562  30.988  14.759
69167W        W30533   5.393  40.325  13.496
69168W        W30534  21.234   8.313  11.014
69169W        W30535  19.584  16.645  10.522
69170W        W30536  22.059  40.351   3.815
69171W        W30537  18.723  34.116   3.726
69172W        W30538  12.189  32.927   9.598
69173W        W30539  38.992  26.535   1.900
69174W        W30540  38.516  14.212   0.778
69175W        W30541  40.045  32.984   0.456
69176W        W30542   6.882  15.229  12.440
69177W        W30543  39.442   1.870  11.983
69178W        W30544  10.322  27.557  12.876
69179W        W30545  15.186  23.630  14.925
69180W        W30546  12.289  41.024  11.898
69181W        W30547   4.789  35.976  11.452
69182W        W30548   6.844   5.333   3.848
69183W        W30549  33.993  10.345  11.004
69184W        W30550  14.333  11.801   1.858
69185W        W30551   2.426   9.342   4.749
69186W        W30552   3.793  24.124  12.938
69187W        W30553  15.634   3.938  10.611
69188W        W30554  38.895  43.008  11.111
69189W        W30555   4.768  43.445  12.491
69190W        W30556  25.119  11.736   1.775
69191W        W30557   4.782  32.056   4.781
69192W        W30558  27.578  37.951   4.630
69193W        W30559  16.252  23.601  13.484
69194W        W30560  30.539  41.514   2.400
69195W        W30561   2.891  43.283  13.037
69196W        W30562   2.238  10.248  13.033
69197W        W30563   7.725  20.075   1.888
69198W        W30564  36.349  23.533  13.464
69199W        W30565  41.295  30.063  11.101
69200W        W30566  16.212   8.793   0.483
69201W        W30567  21.690  36.907   5.128
69202W        W30568  25.514  43.366   0.901
69203W        W30569  25.669  43.937   1.268
69204W        W30570   5.359  33.001  12.873
69205W        W30571  32.974  38.466  13.836
69206W        W30572   9.701  39.554   2.280
69207W        W30573  22.071   3.775  14.991
69208W        W30574  18.096  36.931  14.378
69209W        W30575  24.107  28.976  14.952
69210W        W30576  31.001  10.336  13.901
69211W        W30577  28.496  39.004  12.021
69212W        W30578  23.090  26.647   2.759
69213W        W30579  16.641  35.911   3.250
69214W        W30580  22.038  22.061  14.333
69215W        W30581  26.076   6.678   2.667
69216W        W30582  20.620   8.164   1.410
69217W        W30583  36.017   6.205  11.086
69218W        W30584  12.723  21.214  10.426
69219W        W30585  36.027  28.986   3.363
69220W        W30586  42.345  35.417  14.866
69221W        W30587  39.946  30.538   3.809
69222W        W30588  16.787  16.173  13.055
69223W        W30589  27.997   5.388  14.018
69224W        W30590  33.980  15.225  13.842
69225W        W30591  26.589  29.478   1.777
69226W        W30592  43.927  13.118  11.122
69227W        W30593   2.960  11.237   2.830
69228W        W30594   4.837  28.052  11.067
69229W        W30595  23.030  29.493  13.002
69230W        W30596  17.151  33.463  12.942
69231W        W30597   1.747  35.983  13.887
69232W        W30598  36.477  34.916  10.553
69233W        W30599   5.353  13.157  12.972
69234W        W30600  15.112  37.434   4.124
69235W        W30601  37.887  42.448   9.642
69236W        W30602  20.168  10.684  11.940
69237W        W30603  20.046  15.611  14.361
69238W        W30604  24.636  27.616   3.647
69239W        W30605  42.886  15.197  12.909
69240W        W30606  28.520  43.480  12.955
69241W        W30607  29.660  23.643   5.213
69242W        W30608  38.018  37.941   0.283
69243W        W30609  37.376   3.742  14.313
69244W        W30610  43.326  38.406   2.327
69245W        W30611  34.387  22.107  11.002
69246W        W30612   4.857  26.200  10.135
69247W        W30613  32.538  39.471  13.828
69248W        W30614   7.883   3.795  11.547
69249W        W30615  18.608  24.605   2.296
69250W        W30616  12.679  44.393   0.893
69251W        W30617   3.891  26.011   5.208
69252W        W30618   1.887  20.638   4.130
69253W        W30619  41.826  22.609  10.021
69254W        W30620   9.787   3.258  14.872
69255W        W30621  43.818  39.010  10.976
69256W        W30622  15.241  11.245   0.914
69257W        W30623  35.513  11.733   4.341
69258W        W30624  31.014  34.371   3.783
69259W        W30625  33.529  37.378  12.096
69260W        W30626  19.538  33.023  11.125
69261W        W30627   1.851  27.052  12.555
69262W        W30628  32.999  39.869  14.952
69263W        W30629  17.062  33.913   4.824
69264W        W30630  44.808  15.221   1.397
69265W        W30631  11.839  36.064  12.872
69266W        W30632  35.047  26.172  14.320
69267W        W30633  33.411  19.748   0.839
69268W        W30634   7.777  33.974   0.346
69269W        W30635  12.642  15.313   3.703
69270W        W30636  13.792  42.995   5.142
69271W        W30637  19.666  19.746   3.680
69272W        W30638   6.413  37.984   2.876
69273W        W30639  29.538  11.755   2.788
69274W        W30640   7.356  28.524  12.019
69275W        W30641   3.276  23.717  10.085
69276W        W30642  25.487   0.845   3.846
69277W        W30643  10.780  37.002  13.477
69278W        W30644  39.861  15.215  12.519
69279W        W30645  16.581   4.321  12.392
69280W        W30646   8.278  15.320   2.827
69281W        W30647  19.618  38.045   4.813
69282W        W30648   9.725  27.028   3.320
69283W        W30649  35.515  33.592   2.389
69284W        W30650   6.808  18.690   0.403
69285W        W30651  24.686  20.670  10.540
69286W        W30652   4.814  44.463  13.370
69287W        W30653  44.385  43.932   1.718
69288W        W30654  34.605  35.493   3.717
69289W        W30655  12.818  32.432   9.525
69290W        W30656  39.034  19.760   3.812
69291W        W30657  21.247  26.079  12.905
69292W        W30658  36.045  39.905  12.579
69293W        W30659  37.523  13.787   4.317
69294W        W30660   8.764  37.371  12.443
69295W        W30661  10.753  25.604   3.799
69296W        W30662  30.503   6.734  11.488
69297W        W30663  29.037  44.425  10.622
69298W        W30664  17.788  22.110   0.886
69299W        W30665   7.239   2.247   0.935
69300W        W30666  17.219  18.065  10.032
69301W        W30667  13.150  39.871  11.376
69302W        W30668  37.897   6.827  10.604
69303W        W30669  28.126  17.297  10.410
69304W        W30670  39.990  23.505  12.515
69305W        W30671  14.314  23.509  11.118
69306W        W30672  41.904  23.513   9.922
69307W        W30673  16.304   3.810  13.482
69308W        W30674  21.076  34.082   3.267
69309W        W30675  19.085  20.158  13.871
69310W        W30676  32.048   8.709  14.468
69311W        W30677   7.184  29.134  10.565
69312W        W30678  34.063  43.324  13.919
69313W        W30679   4.414  12.614   3.863
69314W        W30680  36.044  26.627   0.255
69315W        W30681  29.447  11.284  14.920
69316W        W30682  44.350  32.485  14.819
69317W        W30683   8.223   3.719   3.364
69318W        W30684  40.814  38.006  12.909
69319W        W30685  28.090  34.987  11.416
69320W        W30686  37.058  10.789   1.252
69321W        W30687   6.417   3.926   2.339
69322W        W30688   8.855  21.217  13.838
69323W        W30689  13.262  31.101   3.647
69324W        W30690   3.709  10.774   3.809
69325W        W30691   8.771  34.451  14.353
69326W        W30692  31.402  24.484   4.805
69327W        W30693  20.091  35.478   3.741
69328W        W30694  18.263   8.695  11.888
69329W        W30695  26.521  24.161  13.965
69330W        W30696  34.950  35.471  10.641
69331W        W30697  35.474  32.539  10.620
69332W        W30698  29.066  14.179  11.580
69333W        W30699   7.875  42.486  12.432
69334W        W30700  16.761  20.113   3.772
69335W        W30701  16.081   8.377   1.397
69336W        W30702  29.663   7.897   4.653
69337W        W30703  27.447  23.078   0.875
69338W        W30704   8.794   0.891   4.770
69339W        W30705  13.190  18.221   0.289
69340W        W30706  32.094  29.662   5.292
69341W        W30707  29.586  35.530  10.919
69342W        W30708   1.756  14.817  13.332
69343W        W30709  43.000  17.731  13.522
69344W        W30710  37.897  35.006   4.233
69345W        W30711  13.274  36.946   3.703
69346W        W30712  19.623  35.442  13.846
69347W        W30713   7.295  15.668  13.428
69348W        W30714  26.042  42.361   2.704
69349W        W30715  17.180  42.444  14.890
69350W        W30716   2.864  33.927  14.506
69351W        W30717  31.533   9.849  13.392
69352W        W30718   2.313  25.025   1.883
69353W        W30719   1.939  20.168  10.918
69354W        W30720  29.009  43.938  13.972
69355W        W30721   1.929   0.925  13.499
69356W        W30722  16.684  13.326  13.858
69357W        W30723  19.281  13.235   0.919
69358W        W30724  33.536  12.712   3.667
69359W        W30725   2.777   2.276  13.988
69360W        W30726  39.418  26.574   0.926
69361W        W30727   6.331  27.999  11.460
69362W        W30728  21.171  22.123   9.935
69363W        W30729  13.128  42.969  13.397
69364W        W30730  17.799  11.788   2.900
69365W        W30731  16.642  11.276   0.796
69366W        W30732  43.382  26.008  11.101
69367W        W30733  40.545   2.785   3.806
69368W        W30734  12.698  12.296  14.771
69369W        W30735   6.298  35.937   4.649
69370W        W30736  25.478   6.772  11.977
69371W        W30737  21.066  40.925  10.979
69372W        W30738   4.392  25.157   4.303
69373W        W30739  17.689  15.265  13.461
69374W        W30740  25.475  35.394  11.428
69375W        W30741  16.202  29.126  13.833
69376W        W30742   9.289  39.482  10.948
69377W        W30743  34.969   0.423   3.725
69378W        W30744   5.773   6.424   3.266
69379W        W30745  29.174   4.880   4.833
69380W        W30746  36.581  14.687   2.240
69381W        W30747  21.669  13.345   4.610
69382W        W30748   3.718   7.665  11.558
69383W        W30749  40.020  32.589  11.418
69384W        W30750  18.103  19.267  13.483
69385W        W30751  37.061  18.185   0.348
69386W        W30752  29.159  21.691  13.017
69387W        W30753  22.036   9.346   3.322
69388W        W30754   4.750  16.298  14.852
69389W        W30755   2.401  19.161  13.530
69390W        W30756  25.101  34.980  13.962
69391W        W30757  44.354   9.258   3.856
69392W        W30758  34.981  34.047  10.421
69393W        W30759  41.424   4.450  12.434
69394W        W30760  40.364  32.530   3.674
69395W        W30761  26.030  12.768  12.955
69396W        W30762  37.406  26.055  13.056
69397W        W30763  37.477  26.141   4.721
69398W        W30764   9.706   8.706   3.738
69399W        W30765   3.906  24.168  10.596
69400W        W30766  30.585  26.606   0.311
69401W        W30767  34.945   5.394  14.326
69402W        W30768  27.122   0.933   4.714
69403W        W30769  18.665   0.977  12.975
69404W        W30770   5.760  34.005   4.720
69405W        W30771  15.704  44.481  12.505
69406W        W30772  32.584   4.276  14.887
69407W        W30773  27.586  40.982   3.837
69408W        W30774  36.430  27.086  12.955
69409W        W30775  35.038   9.323  13.516
69410W        W30776  35.034  27.979  11.989
69411W        W30777  37.852  11.251  14.801
69412W        W30778   2.438  18.550  14.949
69413W        W30779  38.424  33.044   3.732
69414W        W30780  10.151   7.216  10.948
69415W        W30781  28.981  43.969  12.533
69416W        W30782  24.988  20.735  12.386
69417W        W30783  15.173  17.661   0.454
69418W        W30784  15.592  33.457   0.920
69419W        W30785   1.803  32.584   0.929
69420W        W30786  40.501  27.190  12.562
69421W        W30787  11.196  44.790  12.475
69422W        W30788   8.893  21.669  14.316
69423W        W30789  36.474  33.064   0.826
69424W        W30790  14.204  31.648   4.184
69425W        W30791  36.368  18.551   2.758
69426W        W30792  25.547   5.210  10.952
69427W        W30793  16.608   4.765   3.691
69428W        W30794   6.759  21.547  10.452
69429W        W30795   7.755   2.897  12.377
69430W        W30796  42.022  32.552   2.844
69431W        W30797  17.649  34.385  13.901
69432W        W30798  37.010  12.135   1.777
69433W        W30799  35.910  27.690   0.251
69434W        W30800  38.888   9.643  13.867
69435W        W30801   6.266   8.288   0.392
69436W        W30802  31.060  24.173   2.687
69437W        W30803  23.542  13.260   4.645
69438W        W30804  15.706  39.406  10.553
69439W        W30805  41.969  12.245   1.429
69440W        W30806  13.163  40.438   1.815
69441W        W30807  22.236  12.677   3.804
69442W        W30808  23.492  33.436   4.167
69443W        W30809  10.692  33.881  14.339
69444W        W30810   2.764  17.653  10.524
69445W        W30811  12.273  27.647  13.352
69446W        W30812   8.336   0.946  14.276
69447W        W30813   5.722  16.139  11.902
69448W        W30814  38.516  19.149   1.286
69449W        W30815   5.840  16.160   3.236
69450W        W30816  13.327  34.063   3.387
69451W        W30817  18.747  41.990   3.798
69452W        W30818  31.990  16.275   1.429
69453W        W30819  38.561  21.255   1.868
69454W        W30820  38.028  12.139   0.770
69455W        W30821  14.760  32.416   2.187
69456W        W30822  35.867   2.430   2.225
69457W        W30823  28.112  27.137  10.006
69458W        W30824  38.523  27.179   1.800
69459W        W30825   0.375   8.702  11.935
69460W        W30826  41.034  44.755   1.365
69461W        W30827   5.885   5.799  14.356
69462W        W30828   3.459   0.822  11.609
69463W        W30829  43.451  25.007   1.881
69464W        W30830  39.880  44.771  13.373
69465W        W30831   0.742  21.525  11.471
69466W        W30832  44.361  18.747  13.919
69467W        W30833   2.841  27.131  12.363
69468W        W30834  16.799  10.771  11.026
69469W        W30835  13.800   1.463   3.274
69470W        W30836  10.169  25.193   3.176
69471W        W30837  12.674  13.344  13.360
69472W        W30838  44.797  27.113   4.772
69473W        W30839  41.848   6.236  12.343
69474W        W30840   5.394   9.687   2.849
69475W        W30841  32.473  37.371  12.039
69476W        W30842   5.898  11.727  13.384
69477W        W30843  27.159  35.071   1.916
69478W        W30844  39.974  35.995  10.428
69479W        W30845  27.971  21.235  11.903
69480W        W30846  25.035   1.312  14.786
69481W        W30847   1.831  22.537   4.723
69482W        W30848  18.072   4.228   4.311
69483W        W30849  17.205  42.922  10.452
69484W        W30850  13.611   9.765   1.445
69485W        W30851  25.633  10.372  14.451
69486W        W30852   0.856  23.226   1.771
69487W        W30853  33.957  20.708  13.466
69488W        W30854  44.285  27.001  11.933
69489W        W30855  20.196  28.958  13.867
69490W        W30856  18.156  20.610  14.768
69491W        W30857  41.509   4.814  13.988
69492W        W30858  33.429  28.030  14.779
69493W        W30859  43.498  21.023   2.833
69494W        W30860   7.260  40.539  14.312
69495W        W30861  42.404  30.554   4.305
69496W        W30862  25.663   5.786   2.266
69497W        W30863  25.158   0.877  13.060
69498W        W30864  10.207  18.097   4.751
69499W        W30865   4.345   0.874   0.449
69500W        W30866  20.092  37.459  11.933
69501W        W30867  26.040   7.821  10.587
69502W        W30868  35.502  24.490  13.838
69503W        W30869  10.148  19.710   2.201
69504W        W30870  28.021   9.193   3.688
69505W        W30871  20.553  14.660  14.916
69506W        W30872  33.009  37.470   2.277
69507W        W30873   2.930  32.896   3.345
69508W        W30874   2.925  26.582  13.453
69509W        W30875  37.349  22.171  11.981
69510W        W30876   8.276  31.581  11.048
69511W        W30877  19.227  41.505  11.028
69512W        W30878  19.567  36.089   3.247
69513W        W30879   9.781  37.562  14.455
69514W        W30880   0.850  20.072   1.753
69515W        W30881   9.655  42.876  13.922
69516W        W30882   9.388  19.081   3.260
69517W        W30883  27.600  22.194   0.267
69518W        W30884  31.121  41.989   2.212
69519W        W30885   3.932  35.942   2.804
69520W        W30886  40.342  37.986   3.730
69521W        W30887   5.436  31.421   2.337
69522W        W30888  19.220  35.000  13.475
69523W        W30889   3.426   9.889   3.839
69524W        W30890  17.656  28.467  11.898
69525W        W30891   8.783  22.648  10.485
69526W        W30892  26.192  17.292  13.990
69527W        W30893   0.836  41.317   4.211
69528W        W30894   9.265   0.985  12.995
69529W        W30895  18.136   3.446  10.481
69530W        W30896  33.055  29.173   4.800
69531W        W30897  11.744   6.207   2.787
69532W        W30898  18.201  19.650   4.272
69533W        W30899  32.490  27.015  14.964
69534W        W30900   6.223  31.486  12.913
69535W        W30901   7.681  15.282  14.896
69536W        W30902  38.484   0.354   0.353
69537W        W30903  24.065  31.519  13.893
69538W        W30904   6.218   0.846  11.942
69539W        W30905  32.537  17.613  13.386
69540W        W30906  36.851   9.166   1.851
69541W        W30907  33.989   8.353  11.542
69542W        W30908  39.913  25.670  13.541
69543W        W30909   1.775  28.972  11.974
69544W        W30910   9.373  43.981  14.505
69545W        W30911  25.683   2.369  12.991
69546W        W30912  15.161  26.993   2.760
69547W        W30913  24.538  35.449   3.692
69548W        W30914   0.443   9.233  11.032
69549W        W30915  44.985   0.784  14.301
69550W        W30916  11.276  10.645  12.026
69551W        W30917  41.812  38.060  14.986
69552W        W30918  18.080   8.290   2.722
69553W        W30919  40.802  21.533  12.418
69554W        W30920  44.402  18.169  14.894
69555W        W30921  16.684  32.902   4.816
69556W        W30922  39.945  23.167  14.486
69557W        W30923  23.105  31.572   4.242
69558W        W30924  40.003  41.348  13.950
69559W        W30925  21.025  32.965   5.761
69560W        W30926  12.680   9.800   1.797
69561W        W30927  17.115   4.750   1.255
69562W        W30928  29.123   2.857  10.927
69563W        W30929   9.279  26.511   0.741
69564W        W30930   4.860  18.681   3.664
69565W        W30931   1.835  15.206   3.808
69566W        W30932  27.678  32.523  13.994
69567W        W30933  41.442  31.505  14.914
69568W        W30934  25.548   9.384  12.077
69569W        W30935  18.099  13.128   2.753
69570W        W30936  12.855  11.169  11.397
69571W        W30937  33.114  41.014  13.913
69572W        W30938   0.818  19.593  11.044
69573W        W30939  16.659  23.203  14.376
69574W        W30940  12.718  19.069  11.520
69575W        W30941   5.415  14.244  12.462
69576W        W30942  17.626  28.976   2.745
69577W        W30943  14.811   0.853  14.942
69578W        W30944  15.755  23.582  12.827
69579W        W30945  16.746  11.232  14.977
69580W        W30946  40.431  17.226   3.344
69581W        W30947  15.646  19.171   5.202
69582W        W30948  11.777  32.890   4.666
69583W        W30949   3.730  18.150  12.433
69584W        W30950  21.114   8.241  10.552
69585W        W30951  15.816  16.641  12.458
69586W        W30952  26.088  22.538   3.867
69587W        W30953  11.261  44.281   3.670
69588W        W30954  34.532   9.379  11.590
69589W        W30955  26.495  25.488  10.428
69590W        W30956   1.872  20.144   1.384
69591W        W30957   2.834   5.875  13.998
69592W        W30958  20.151   8.233  14.316
69593W        W30959  42.481  24.653  13.428
69594W        W30960  32.578   7.852   1.313
69595W        W30961  25.002  41.493  13.036
69596W        W30962  33.880   2.430  10.424
69597W        W30963  42.391  32.431   3.265
69598W        W30964  14.205   3.393  15.000
69599W        W30965   6.299  17.150   3.716
69600W        W30966   5.807  27.989   3.287
69601W        W30967  44.973  10.711  12.527
69602W        W30968  31.028  36.923  14.807
69603W        W30969   7.413  20.267  13.891
69604W        W30970  14.097  17.226  11.537
69605W        W30971  34.094   7.286  10.926
69606W        W30972  19.683  26.997  12.046
69607W        W30973  44.855  43.947  11.058
69608W        W30974   9.256   6.835  12.083
69609W        W30975  18.075  37.080  12.425
69610W        W30976  43.996  37.389   2.268
69611W        W30977  42.791  11.659  13.390
69612W        W30978  27.611   2.422   4.693
69613W        W30979  40.832  40.916  10.409
69614W        W30980  21.630  26.140  11.050
69615W        W30981  43.322  38.946   1.750
69616W        W30982  24.987  33.105  12.973
69617W        W30983  35.373  31.091   3.652
69618W        W30984  10.249  19.778  13.029
69619W        W30985  11.743   7.407   2.755
69620W        W30986   4.297  20.581  11.126
69621W        W30987   7.771  15.296  11.594
69622W        W30988  28.602  10.228   3.151
69623W        W30989  24.128  17.577  12.092
69624W        W30990  12.361   2.366   4.194
69625W        W30991  34.868  27.570  13.434
69626W        W30992  16.786  43.457   1.920
69627W        W30993   2.798   5.281  12.941
69628W        W30994   7.194   8.820  14.941
69629W        W30995  34.028  40.819  11.416
69630W        W30996  13.187  35.401  13.362
69631W        W30997  11.263  19.777  12.936
69632W        W30998  15.157  10.253   0.904
69633W        W30999  30.475  44.478  11.555
69634W        W31000  19.738  14.799  11.571
69635W        W31001   5.194  12.258  12.914
69636W        W31002  20.072   7.211   0.836
69637W        W31003  44.775  14.747   1.827
69638W        W31004   9.318  42.310   0.906
69639W        W31005   2.258   9.814   0.755
69640W        W31006   2.822  25.115  13.925
69641W        W31007  16.189  12.345   9.921
69642W        W31008  43.393   9.695  11.421
69643W        W31009   4.917  13.137   5.087
69644W        W31010  41.291  38.409   2.898
69645W        W31011  27.089  21.179   3.789
69646W        W31012  32.547  39.554  11.557
69647W        W31013  40.895  12.720   2.331
69648W        W31014  16.606  19.284  13.338
69649W        W31015  39.978  10.876  11.080
69650W        W31016  40.929   8.736  14.981
69651W        W31017   0.846  19.079   3.750
69652W        W31018  18.260  34.868   0.749
69653W        W31019  33.568  31.147   2.317
69654W        W31020   6.192   0.307   1.285
69655W        W31021  24.172  30.579  14.971
69656W        W31022  25.167  23.676  12.028
69657W        W31023   4.822   2.799  13.315
69658W        W31024   0.398  30.450  14.863
69659W        W31025   2.944  26.085   1.694
69660W        W31026   8.815  23.530  11.883
69661W        W31027  17.567  41.805  10.979
69662W        W31028  31.038  40.497   3.666
69663W        W31029  28.123  27.514  10.494
69664W        W31030  11.622  24.610   0.476
69665W        W31031   5.279  37.968  14.902
69666W        W31032  28.570  27.958  13.014
69667W        W31033  30.040  17.633  13.959
69668W        W31034   2.254  38.885   4.308
69669W        W31035  35.532  21.068  14.428
69670W        W31036   2.822  33.529  14.436
69671W        W31037  43.774  18.591   4.161
69672W        W31038  17.105   2.917   0.784
69673W        W31039  31.411  23.709   4.166
69674W        W31040  28.597  10.189  14.020
69675W        W31041  23.164  36.886   3.697
69676W        W31042  44.999  41.913   3.684
69677W        W31043  41.411  11.845   3.320
69678W        W31044  14.620  40.975   4.819
69679W        W31045   0.329  11.181   3.187
69680W        W31046  30.511  12.187   4.608
69681W        W31047  33.964  12.774   1.903
69682W        W31048  32.075   5.377   2.830
69683W        W31049   6.428  38.844   4.116
69684W        W31050  42.781  23.009  10.923
69685W        W31051  38.912  19.736  10.100
69686W        W31052  42.306  24.678  11.583
69687W        W31053  27.472  42.518   4.217
69688W        W31054  38.406  20.533   0.332
69689W        W31055  15.609  31.585   0.311
69690W        W31056  31.632  36.064  11.573
69691W        W31057  26.557  30.958   2.778
69692W        W31058  44.912   7.389   3.209
69693W        W31059  32.402   4.419  11.900
69694W        W31060  40.908  16.126   2.809
69695W        W31061  34.962  39.536  14.424
69696W        W31062  35.860   4.854   1.927
69697W        W31063   0.411   9.388   3.200
69698W        W31064  37.477  13.343  10.521
69699W        W31065  15.203  41.362   3.735
69700W        W31066  16.675  16.763   0.463
69701W        W31067  18.767  10.728   1.447
69702W        W31068  37.083  32.613   0.793
69703W        W31069  24.627  34.459   4.602
69704W        W31070  38.408  28.562   2.829
69705W        W31071  13.206   8.876   0.316
69706W        W31072  22.154   5.411  10.448
69707W        W31073  18.108  16.687   2.396
69708W        W31074  25.470  20.528   3.204
69709W        W31075   5.837  40.346   1.749
69710W        W31076   1.776  24.659  13.505
69711W        W31077  18.624   0.929   1.225
69712W        W31078  43.910  34.911   3.775
69713W        W31079  30.457   5.287   1.694
69714W        W31080  25.545  19.724   3.869
69715W        W31081  40.009  40.038   2.292
69716W        W31082  31.085  37.516   1.354
69717W        W31083   5.416  20.070  12.968
69718W        W31084   9.691  26.065  12.495
69719W        W31085   2.279  12.614  13.381
69720W        W31086  15.772  26.048  14.886
69721W        W31087  27.691  16.579   0.849
69722W        W31088   8.833  23.992   0.381
69723W        W31089  43.370  41.032  13.866
69724W        W31090   4.432  31.611  14.964
69725W        W31091  42.954  41.396  11.893
69726W        W31092  12.760  12.689   1.857
69727W        W31093  21.033  30.522   2.667
69728W        W31094  23.052  23.213  14.898
69729W        W31095  44.818  19.616  10.616
69730W        W31096  15.312   8.258  13.866
69731W        W31097  39.416  35.550  13.456
69732W        W31098  36.467  31.014  14.367
69733W        W31099  14.785  36.525  11.397
69734W        W31100  33.460  41.041  12.013
69735W        W31101  26.462  16.656   0.963
69736W        W31102  19.760  27.516   3.279
69737W        W31103   2.919  20.555  11.104
69738W        W31104   7.829   9.817   2.823
69739W        W31105  10.762  25.025   3.776
69740W        W31106  18.259   9.700   3.712
69741W        W31107  44.882  31.135   1.824
69742W        W31108  26.062   9.768   0.294
69743W        W31109  34.386  30.070  12.552
69744W        W31110  36.394  34.545   2.249
69745W        W31111  13.761  22.597   0.916
69746W        W31112  42.435   1.300   4.767
69747W        W31113  29.155   2.425  13.046
69748W        W31114   9.196   1.295   1.350
69749W        W31115  12.833  36.484   2.685
69750W        W31116  25.658  25.503   3.710
69751W        W31117  29.135  42.010   2.887
69752W        W31118  15.141   7.324   1.333
69753W        W31119  19.646  16.224   4.185
69754W        W31120  39.991  10.655  14.912
69755W        W31121  24.177  32.399  10.570
69756W        W31122  28.178  29.556  14.972
69757W        W31123  23.084  20.143  12.898
69758W        W31124   1.966  11.285  12.500
69759W        W31125  15.650   8.786  12.836
69760W        W31126  43.438  30.557   0.399
69761W        W31127   4.236  44.796  13.482
69762W        W31128  30.482  12.617   0.828
69763W        W31129   1.835   1.819   4.354
69764W        W31130  31.079  12.678  10.064
69765W        W31131  10.216   9.328   3.732
69766W        W31132   4.887  11.741   2.218
69767W        W31133  30.609   6.720   1.726
69768W        W31134  34.547  15.822   3.332
69769W        W31135  42.023   0.796   3.182
69770W        W31136  25.639   7.820   2.226
69771W        W31137  10.869  37.577   0.405
69772W        W31138   5.902   4.444   0.354
69773W        W31139  39.926  43.805   3.719
69774W        W31140  25.539  40.314   3.755
69775W        W31141  20.673  17.268   2.263
69776W        W31142  35.985   8.753   3.284
69777W        W31143  21.039   6.195   0.313
69778W        W31144   3.375  35.544   4.294
69779W        W31145  20.271  31.965   4.227
69780W        W31146  16.801  27.469   0.735
69781W        W31147   5.920  17.767  11.903
69782W        W31148  27.015   2.452  13.985
69783W        W31149  21.698  35.871  13.834
69784W        W31150   6.813  17.184   5.173
69785W        W31151   3.794  26.185  13.048
69786W        W31152  13.844   2.294  11.579
69787W        W31153  12.694  15.150  11.381
69788W        W31154  21.126  20.195   1.725
69789W        W31155  25.110  40.435  14.995
69790W        W31156  23.054  40.982   0.956
69791W        W31157  43.488  40.514   1.437
69792W        W31158   6.727  22.176  14.975
69793W        W31159  43.796  43.497   0.400
69794W        W31160  43.878  37.505  10.983
69795W        W31161   6.752  40.532   4.315
69796W        W31162   4.408  36.441  13.513
69797W        W31163  37.343  23.598   4.734
69798W        W31164   2.453  44.867   2.264
69799W        W31165  39.414  17.161  11.589
69800W        W31166  38.379  15.269  11.901
69801W        W31167  41.386  42.856   5.296
69802W        W31168  44.803  31.542   0.843
69803W        W31169   8.691  42.997  12.439
69804W        W31170  23.595  29.567   1.392
69805W        W31171  20.198   8.246   2.890
69806W        W31172  36.055  28.976   2.726
69807W        W31173  36.525  36.406   4.711
69808W        W31174  22.635   2.423  12.026
69809W        W31175  25.496  20.194  13.040
69810W        W31176  32.099  43.881   4.692
69811W        W31177  36.412  36.959  13.516
69812W        W31178  20.619  30.639   1.295
69813W        W31179  31.544  43.339   2.286
69814W        W31180  27.641  17.104   1.726
69815W        W31181  10.673  33.516   4.726
69816W        W31182  21.253  31.101   1.238
69817W        W31183  29.100   1.796  11.879
69818W        W31184  43.352  10.673  10.592
69819W        W31185  34.926   8.164   2.195
69820W        W31186  29.426   6.803  12.521
69821W        W31187  13.792  21.046   1.892
69822W        W31188  43.509  16.697   0.479
69823W        W31189   5.911  26.674  11.410
69824W        W31190  14.708  31.421  13.944
69825W        W31191  20.670  39.988   1.739
69826W        W31192  11.275   5.309  14.886
69827W        W31193  10.260  39.872   4.160
69828W        W31194   9.714  14.244   1.254
69829W        W31195  35.589   4.444  12.540
69830W        W31196  31.588  19.656   3.863
69831W        W31197   9.230  24.586  12.891
69832W        W31198  34.938  21.218   3.324
69833W        W31199   3.880  17.669   3.344
69834W        W31200  34.908   6.264  11.405
69835W        W31201  16.645  24.630  10.495
69836W        W31202  28.579  26.504   1.229
69837W        W31203   1.883  22.118  12.846
69838W        W31204   5.906  42.915  13.856
69839W        W31205  31.404  13.188  13.876
69840W        W31206  33.523  20.086  10.407
69841W        W31207  39.536  42.831   1.347
69842W        W31208  28.489  22.063   3.864
69843W        W31209   5.829   9.681  11.901
69844W        W31210  36.942  29.511   3.289
69845W        W31211  38.052  31.984   1.726
69846W        W31212  10.836   9.389  11.447
69847W        W31213   7.234   9.220  14.479
69848W        W31214  11.631   3.380  12.945
69849W        W31215   4.834  12.171   3.688
69850W        W31216  15.743  27.141   4.704
69851W        W31217  33.005   3.892   4.742
69852W        W31218  35.439  10.362   2.246
69853W        W31219   4.859  31.588   0.822
69854W        W31220   6.682  19.178   0.820
69855W        W31221   4.397   5.763   1.896
69856W        W31222   7.674   1.296  12.476
69857W        W31223  23.185  19.657  12.458
69858W        W31224  29.436  43.385   1.341
69859W        W31225  24.146   4.912  14.840
69860W        W31226   0.310  27.010   2.252
69861W        W31227   0.918  21.140   0.483
69862W        W31228  35.504   4.294  11.049
69863W        W31229  41.963  35.050   4.618
69864W        W31230  30.495   0.886  12.900
69865W        W31231   1.435  14.114   2.329
69866W        W31232  29.628  10.270  13.434
69867W        W31233  15.810  11.271   3.248
69868W        W31234  17.285  36.095   5.083
69869W        W31235  29.004  37.402   5.118
69870W        W31236  32.040  26.163   4.746
69871W        W31237  16.685  27.957  14.489
69872W        W31238  14.227   7.187  14.959
69873W        W31239   9.722  22.045  11.552
69874W        W31240  31.561   3.423   3.822
69875W        W31241  24.201  27.184  14.832
69876W        W31242  39.530  41.032  12.891
69877W        W31243  32.091  17.300   3.696
69878W        W31244  31.041  26.702  10.021
69879W        W31245   7.855  35.010  11.966
69880W        W31246  35.973  24.098  12.988
69881W        W31247  26.483  26.040   4.646
69882W        W31248   1.279   6.240   1.824
69883W        W31249  31.082  30.503   1.284
69884W        W31250  16.690  16.120  12.052
69885W        W31251  40.459  12.344   2.689
69886W        W31252   0.870  28.593   3.327
69887W        W31253   6.742   9.785   0.726
69888W        W31254  32.440  23.014   1.257
69889W        W31255   3.285  38.405  10.547
69890W        W31256  24.700  42.458   3.802
69891W        W31257  43.003  39.841  10.102
69892W        W31258   8.750  34.038  13.038
69893W        W31259  16.683  41.303  12.430
69894W        W31260  28.954  16.299   1.734
69895W        W31261  24.205  42.398   2.313
69896W        W31262   8.385  29.975  10.607
69897W        W31263  26.552  38.058   1.796
69898W        W31264  10.300   6.249   3.372
69899W        W31265  27.967  20.626   1.433
69900W        W31266  26.678   8.785  14.405
69901W        W31267  28.960  17.267   1.775
69902W        W31268  37.365   2.234  12.479
69903W        W31269  35.956  23.663  13.444
69904W        W31270  30.961  42.402  12.518
69905W        W31271  15.223  39.013  14.456
69906W        W31272  37.977   2.309   2.349
69907W        W31273  34.509  16.604  14.358
69908W        W31274  12.283  24.539  12.361
69909W        W31275  29.438   5.237   4.703
69910W        W31276  20.174  36.564  11.873
69911W        W31277  10.300  34.964   3.829
69912W        W31278   3.234  25.676   1.721
69913W        W31279  15.312  36.465  12.424
69914W        W31280   8.353   2.466   3.183
69915W        W31281   6.281  32.002  14.956
69916W        W31282  43.771   1.830  11.106
69917W        W31283  38.422  41.313   0.726
69918W        W31284  23.995  15.162  14.469
69919W        W31285  32.131  11.622   4.673
69920W        W31286  11.321   9.184  10.411
69921W        W31287  20.184  18.610  11.488
69922W        W31288  39.010  43.367   3.169
69923W        W31289  22.075  36.015   4.347
69924W        W31290  21.735   4.755   0.337
69925W        W31291  25.675  16.566   2.795
69926W        W31292  40.380  22.591   3.219
69927W        W31293  34.558  12.200  11.604
69928W        W31294  34.514  13.189  14.927
69929W        W31295  29.456  17.730   2.249
69930W        W31296  39.373  38.418   2.248
69931W        W31297   0.929  15.178  11.417
69932W        W31298  32.126  28.480  14.907
69933W        W31299  11.362  26.080  14.766
69934W        W31300  38.541  35.478  10.988
69935W        W31301  43.293  17.293  14.792
69936W        W31302  11.157  34.446   2.225
69937W        W31303  16.742  10.780   3.746
69938W        W31304  36.998  22.034   0.337
69939W        W31305  32.551  35.939   1.307
69940W        W31306  18.187  19.199   4.340
69941W        W31307   7.342  26.636  14.348
69942W        W31308  41.856  24.087  10.534
69943W        W31309   8.163  21.133  12.487
69944W        W31310  11.796   5.209   2.719
69945W        W31311  19.106  11.791  13.523
69946W        W31312   6.253  24.095   4.754
69947W        W31313  14.212  36.514  13.495
69948W        W31314  15.741  18.114   1.297
69949W        W31315  35.860  37.343   4.640
69950W        W31316  24.228  27.007  13.545
69951W        W31317   6.207  14.650  13.502
69952W        W31318  17.246  15.629  11.513
69953W        W31319   3.799  39.325   2.744
69954W        W31320  21.155   0.430   3.277
69955W        W31321  28.488  32.460  14.764
69956W        W31322  36.872  10.669  11.432
69957W        W31323  38.073  16.134  10.420
69958W        W31324  12.211  18.643  12.027
69959W        W31325  19.616  28.108  11.520
69960W        W31326  15.117  33.421   2.662
69961W        W31327  16.650  18.771   2.352
69962W        W31328  13.277  19.167  13.851
69963W        W31329   1.976  31.915   3.803
69964W        W31330  33.994   0.378  12.567
69965W        W31331  18.180   7.205  13.903
69966W        W31332   9.392  43.458  12.883
69967W        W31333  24.500  21.183   3.793
69968W        W31334  36.870  32.886   2.281
69969W        W31335  39.856  23.539   0.810
69970W        W31336  40.978  27.546  13.809
69971W        W31337   4.441  38.005   1.337
69972W        W31338  38.415  15.164   3.245
69973W        W31339  43.320  42.316   1.769
69974W        W31340   8.299  10.815   2.342
69975W        W31341  16.172  33.996   0.376
69976W        W31342  38.385  29.429  12.550
69977W        W31343   7.791  39.503  14.296
69978W        W31344   9.729  31.616   1.862
69979W        W31345  18.165  30.968  13.795
69980W        W31346  24.685  43.948   2.697
69981W        W31347   7.305  44.002  14.968
69982W        W31348  43.005   7.902   0.289
69983W        W31349  28.175  12.309   0.355
69984W        W31350  21.520   2.450  12.963
69985W        W31351  26.000   3.292   2.871
69986W        W31352  25.586  41.396   2.407
69987W        W31353  37.437  39.467   1.718
69988W        W31354  33.097   9.347   4.709
69989W        W31355  33.439   6.310  12.022
69990W        W31356  24.487  22.087  12.559
69991W        W31357  33.919  21.514   1.792
69992W        W31358   4.912  36.845  14.855
69993W        W31359   3.751  31.037  11.528
69994W        W31360  28.170  27.094   2.779
69995W        W31361  33.027  20.606   5.599
69996W        W31362  14.137   0.330   3.725
69997W        W31363  27.613  42.457   0.737
69998W        W31364   6.356   0.494   1.851
69999W        W31365  33.938  37.519   0.315
70000W        W31366   4.256  42.012   2.793
70001W        W31367  22.519   0.950  14.458
70002W        W31368  16.648   1.325  12.867
70003W        W31369   5.706   8.841   1.830
70004W        W31370   9.364  13.117   3.686
70005W        W31371  39.041  31.078  12.060
70006W        W31372  30.048   6.285  12.551
70007W        W31373   6.745  42.455  14.832
70008W        W31374  36.021  32.516   3.298
70009W        W31375  36.049  43.423  13.922
70010W        W31376   0.340  33.437   2.771
70011W        W31377  43.283  15.326  10.463
70012W        W31378   5.253  44.493  12.021
70013W        W31379  14.165  33.523  13.433
70014W        W31380  12.817  14.307  13.028
70015W        W31381  43.805  15.121   2.230
70016W        W31382  26.997  17.106  11.995
70017W        W31383  41.332  14.115   2.331
70018W        W31384  39.908   2.835   4.720
70019W        W31385   5.367  43.499   4.217
70020W        W31386  30.535  32.019   3.278
70021W        W31387  39.031  15.666  13.519
70022W        W31388  34.875  40.343   1.716
70023W        W31389   6.368  38.456   4.765
70024W        W31390  14.669   1.875  10.528
70025W        W31391   7.798  10.736  11.570
70026W        W31392  10.862  29.951  11.445
70027W        W31393  12.140  15.308   2.310
70028W        W31394  43.832  36.966   3.335
70029W        W31395  33.914  22.042   1.901
70030W        W31396  30.022  34.961  14.990
70031W        W31397  36.038  30.065   2.320
70032W        W31398  39.404   7.670  14.880
70033W        W31399  32.602  39.465  10.517
70034W        W31400  10.717  32.059  10.597
70035W        W31401  24.682  37.009  10.455
70036W        W31402  42.348  40.020  10.933
70037W        W31403  15.211  33.084   1.303
70038W        W31404  18.698  32.914   0.308
70039W        W31405  40.849  29.137  11.969
70040W        W31406  18.267  39.945  13.323
70041W        W31407  13.834  24.047  10.964
70042W        W31408  27.485   3.831   5.164
70043W        W31409  22.161  19.192  11.531
70044W        W31410  22.518   8.835  10.522
70045W        W31411  41.834  34.441   2.753
70046W        W31412  13.764  17.220  12.444
70047W        W31413  22.705  16.285  13.971
70048W        W31414  16.178  28.581  14.286
70049W        W31415  34.402  43.917  13.033
70050W        W31416  22.046   5.356  13.480
70051W        W31417   2.734  11.150   4.684
70052W        W31418  42.444  17.621   2.370
70053W        W31419   0.777  39.344  11.952
70054W        W31420  12.782   0.351  12.478
70055W        W31421  25.561   9.737   4.158
70056W        W31422  17.244   0.855   4.186
70057W        W31423  20.130   3.438  11.438
70058W        W31424  31.602  20.716  11.974
70059W        W31425  34.060   2.384   4.815
70060W        W31426  29.085  11.277   0.806
70061W        W31427  24.209  28.539  14.361
70062W        W31428  41.333  22.614   0.846
70063W        W31429  22.006  42.944   0.913
70064W        W31430  26.462  42.027  13.882
70065W        W31431  21.219  33.016  12.420
70066W        W31432  31.979  15.759   0.308
70067W        W31433  14.260  29.168  14.923
70068W        W31434  20.068  38.422  13.060
70069W        W31435  16.638   6.414  11.876
70070W        W31436  40.427  38.992   4.328
70071W        W31437  17.207  41.805  12.454
70072W        W31438  36.516   3.245  10.482
70073W        W31439  33.508  39.461  13.905
70074W        W31440  21.596   7.259  11.066
70075W        W31441   1.731  24.198   0.819
70076W        W31442  33.065   4.893   2.376
70077W        W31443  33.965  10.182   0.465
70078W        W31444   2.776  10.318   2.684
70079W        W31445  43.504   8.840   4.605
70080W        W31446   4.384  39.500  12.552
70081W        W31447  31.615   3.897   1.441
70082W        W31448  43.868   9.282   0.889
70083W        W31449  23.075  31.102  13.421
70084W        W31450  13.202  24.983  10.127
70085W        W31451  24.481  14.811  11.905
70086W        W31452  38.054  11.673   2.200
70087W        W31453  44.505   5.745  10.445
70088W        W31454  32.439  40.826   0.753
70089W        W31455  13.167  25.552  12.001
70090W        W31456  36.554  29.975  13.815
70091W        W31457  30.079  22.675   3.763
70092W        W31458  27.659  18.081   2.409
70093W        W31459  30.151  28.577   3.653
70094W        W31460   5.314  33.545  11.492
70095W        W31461  21.018  43.389  10.967
70096W        W31462   8.392   1.479   0.860
70097W        W31463  13.144   0.838  10.130
70098W        W31464  41.423  16.689   4.289
70099W        W31465  12.332   5.796  13.016
70100W        W31466   7.286   3.719   3.849
70101W        W31467  20.238  12.121  14.895
70102W        W31468   0.401  25.693   2.192
70103W        W31469   3.932  25.676   2.760
70104W        W31470   8.184   4.376  11.951
70105W        W31471   7.376  40.989  13.527
70106W        W31472  32.952  27.450  14.016
70107W        W31473  16.089  40.542   0.257
70108W        W31474  27.074   5.311  10.991
70109W        W31475  27.991  21.679   1.892
70110W        W31476   9.269  19.276  14.003
70111W        W31477   2.294  17.668   0.408
70112W        W31478  20.154  39.887   1.772
70113W        W31479  36.084  33.103   0.955
70114W        W31480   1.473  17.076  13.001
70115W        W31481  18.056  25.553   3.848
70116W        W31482  36.538   1.411  11.068
70117W        W31483  21.742  25.099  11.599
70118W        W31484  10.161  39.457  12.058
70119W        W31485  18.086  20.231  12.840
70120W        W31486  40.874   1.321   4.278
70121W        W31487  26.619  15.228  12.915
70122W        W31488  38.913  22.546  13.846
70123W        W31489  13.301  10.650   2.341
70124W        W31490  44.291  33.578  12.456
70125W        W31491   1.310  28.126  11.596
70126W        W31492  31.553  26.965   2.883
70127W        W31493  21.111   9.667  14.294
70128W        W31494   4.342  31.463   0.383
70129W        W31495  27.608   7.674  12.852
70130W        W31496   8.263  16.751   2.411
70131W        W31497  35.951  38.466   4.640
70132W        W31498  17.208  22.515   3.823
70133W        W31499  29.646  29.106   1.258
70134W        W31500  21.756  23.495  10.955
70135W        W31501  35.925   6.893  13.018
70136W        W31502  33.506  35.444  12.578
70137W        W31503  38.053  33.424  10.626
70138W        W31504  24.707   9.277  14.318
70139W        W31505  41.380   3.822  11.487
70140W        W31506   3.941  10.323   1.356
70141W        W31507  43.401  22.575  14.995
70142W        W31508  42.943   6.728   4.279
70143W        W31509  12.230  18.188  10.603
70144W        W31510   1.831   0.775  11.505
70145W        W31511  37.398   4.723  10.988
70146W        W31512  39.504  21.636  12.890
70147W        W31513  23.557  19.229   2.700
70148W        W31514  20.592   3.949   4.272
70149W        W31515  32.465  40.996   2.200
70150W        W31516   7.345  31.013  11.000
70151W        W31517  15.786  16.143  12.494
70152W        W31518  30.507   3.219   3.835
70153W        W31519  24.114   5.315  12.463
70154W        W31520  22.639  35.950  11.933
70155W        W31521  36.354  35.101   4.693
70156W        W31522  15.681  14.751   5.126
70157W        W31523  44.384   8.266   1.753
70158W        W31524  12.735   0.847  12.040
70159W        W31525   8.839  28.180  12.018
70160W        W31526  44.439  24.202  12.550
70161W        W31527  43.910  32.565   0.315
70162W        W31528  18.082  25.573  13.317
70163W        W31529  16.295   7.891   3.780
70164W        W31530  25.670  38.960   0.320
70165W        W31531  24.049  23.658  11.380
70166W        W31532  36.046  12.231  13.457
70167W        W31533   6.767  27.539   2.894
70168W        W31534   1.445  42.911   4.272
70169W        W31535   7.189   7.291  10.626
70170W        W31536  42.845   1.745   2.739
70171W        W31537  23.621  20.656  13.446
70172W        W31538  26.636  20.265  10.496
70173W        W31539  33.928  21.753  12.432
70174W        W31540  12.206  35.092   2.311
70175W        W31541   5.258  43.387   4.706
70176W        W31542   0.425  23.728  12.368
70177W        W31543  35.961  24.631   2.405
70178W        W31544  34.440  25.976  10.514
70179W        W31545  21.758  11.177   1.737
70180W        W31546   7.356  20.109   0.896
70181W        W31547  37.500  42.007   3.737
70182W        W31548  40.548  10.752  14.990
70183W        W31549  30.484  36.496  11.378
70184W        W31550  39.539   8.744   0.440
70185W        W31551  18.128  14.132  13.493
70186W        W31552  33.534  27.058   2.854
70187W        W31553  34.593  19.634  12.940
70188W        W31554  35.061  28.961   4.296
70189W        W31555  15.103  30.465   2.274
70190W        W31556  37.034  29.041   3.748
70191W        W31557  15.661  26.540  12.877
70192W        W31558  31.054  27.056   0.319
70193W        W31559   1.841  44.917  14.767
70194W        W31560  12.785  42.951  10.126
70195W        W31561  42.931  33.056  10.631
70196W        W31562   8.339  16.098  12.412
70197W        W31563   6.823  38.866  10.439
70198W        W31564  43.962  35.014   2.405
70199W        W31565  10.345  28.018  13.499
70200W        W31566  29.980  10.748  11.413
70201W        W31567  42.508   6.281   4.711
70202W        W31568  31.139   4.320  11.470
70203W        W31569   0.820  42.012   4.228
70204W        W31570  13.295  10.166   2.856
70205W        W31571  11.853  18.695  13.508
70206W        W31572  19.054  44.403  13.522
70207W        W31573   9.248  24.193   4.616
70208W        W31574  25.985  21.034  14.823
70209W        W31575   0.828  31.080   0.960
70210W        W31576  23.538   1.735   2.331
70211W        W31577  22.190  20.036  14.301
70212W        W31578   9.347  31.035  11.455
70213W        W31579  40.412  34.863  10.029
70214W        W31580  39.062  13.831   2.186
70215W        W31581  26.966  31.079  12.543
70216W        W31582  33.042  25.670  14.790
70217W        W31583  42.428  16.636   4.244
70218W        W31584  15.267   5.342  14.794
70219W        W31585  17.295   0.346  12.950
70220W        W31586  33.876  27.032   4.735
70221W        W31587  35.530  42.841   0.942
70222W        W31588   5.724  11.660   1.736
70223W        W31589  13.144   5.226   1.917
70224W        W31590  12.721  22.243   2.688
70225W        W31591  14.208  22.690  11.580
70226W        W31592  41.875   5.364   3.245
70227W        W31593  40.451  25.081  14.349
70228W        W31594  27.630  34.517  11.883
70229W        W31595  24.713  16.259   0.828
70230W        W31596  11.314  42.395  10.624
70231W        W31597  12.142  12.715   0.281
70232W        W31598   2.822  29.441  12.448
70233W        W31599  25.582  36.497  11.595
70234W        W31600  17.734   3.778  14.824
70235W        W31601  36.094  44.437  14.311
70236W        W31602   0.308   6.726  12.549
70237W        W31603  29.439  29.979  10.970
70238W        W31604  31.102  40.337   1.360
70239W        W31605   7.199  34.466   4.672
70240W        W31606  17.248  43.788  11.909
70241W        W31607  40.894  28.459  11.401
70242W        W31608   0.966   5.783  14.384
70243W        W31609  32.068  12.360  12.085
70244W        W31610   4.815  12.177   1.869
70245W        W31611  40.310  30.128  11.545
70246W        W31612  28.490  42.803  11.440
70247W        W31613  22.251  36.938   2.344
70248W        W31614   5.359  32.123  14.433
70249W        W31615  17.681   5.269  13.826
70250W        W31616  24.204  40.396   0.267
70251W        W31617  13.316  41.903  11.445
70252W        W31618  40.454  29.439   1.714
70253W        W31619  17.094  33.928   0.744
70254W        W31620  26.045  20.176  14.018
70255W        W31621  12.706  41.423   0.369
70256W        W31622  23.618  34.955  14.397
70257W        W31623   3.917   3.304   1.441
70258W        W31624   9.649  33.890   0.892
70259W        W31625  43.818   7.881  10.526
70260W        W31626  24.208   4.728   0.967
70261W        W31627  11.128   2.331  11.435
70262W        W31628  43.016   0.839  12.067
70263W        W31629  11.153  32.468  14.966
70264W        W31630  23.078   6.874   4.319
70265W        W31631  32.628  23.018  11.560
70266W        W31632  36.376   1.371  12.409
70267W        W31633   0.813  34.004  14.422
70268W        W31634  17.707  33.417   1.308
70269W        W31635  39.386   0.851   1.725
70270W        W31636  10.147  36.088   3.641
70271W        W31637  41.960   5.275   4.229
70272W        W31638  13.339  22.072  12.459
70273W        W31639  41.834  37.970  14.306
70274W        W31640  12.353  19.595  14.776
70275W        W31641  39.508   7.784   2.868
70276W        W31642   5.773  16.790   2.348
70277W        W31643  41.337  30.016   4.737
70278W        W31644  21.144  25.145  12.844
70279W        W31645  40.421   0.966  12.534
70280W        W31646  12.362  37.931  11.995
70281W        W31647  18.180  18.051   0.399
70282W        W31648  18.177  18.588   3.250
70283W        W31649  30.962   5.853   3.279
70284W        W31650  12.808  37.952  12.478
70285W        W31651  16.216   8.327  12.417
70286W        W31652  19.283  40.531  13.390
70287W        W31653  30.659  32.077  13.959
70288W        W31654  44.396   1.238  10.504
70289W        W31655  43.500   4.370   0.792
70290W        W31656  22.113  20.702   2.332
70291W        W31657  29.423  29.646   1.861
70292W        W31658   6.795  28.589   4.647
70293W        W31659  29.538  29.436  13.845
70294W        W31660  42.301  19.156  12.467
70295W        W31661  11.252  30.117   1.436
70296W        W31662  35.062  44.374  13.315
70297W        W31663   3.949   4.346  14.289
70298W        W31664   7.201  25.965   4.685
70299W        W31665  38.881  15.157  11.533
70300W        W31666  44.480  28.628   0.457
70301W        W31667  21.561   0.882  11.944
70302W        W31668   3.297  18.768  13.499
70303W        W31669  32.923   1.426  14.806
70304W        W31670  11.710  33.493  12.481
70305W        W31671   4.246  24.134  10.466
70306W        W31672   6.233  40.875   3.838
70307W        W31673   9.737  13.177   2.856
70308W        W31674  35.433  29.019  11.081
70309W        W31675  39.951  33.023  13.427
70310W        W31676  38.960  32.091  14.777
70311W        W31677  34.505  40.004   0.352
70312W        W31678  41.964  34.964   2.408
70313W        W31679   2.429  19.172  14.963
70314W        W31680  30.128  36.036  10.620
70315W        W31681  24.075  27.174   2.872
70316W        W31682   6.295  21.210  10.019
70317W        W31683  12.145  35.555  10.606
70318W        W31684  13.750  25.492   0.929
70319W        W31685  30.086  40.408  12.929
70320W        W31686  37.958  35.014  13.976
70321W        W31687   7.368   4.767   0.859
70322W        W31688  21.210  26.203   1.863
70323W        W31689  30.606  16.121   2.718
70324W        W31690  19.224  21.691   1.778
70325W        W31691  33.433  10.812  10.587
70326W        W31692  35.508  25.971  10.442
70327W        W31693   3.283  21.250  13.808
70328W        W31694  15.129  15.096   3.283
70329W        W31695  33.889  26.456  13.539
70330W        W31696   2.279   9.327  11.585
70331W        W31697  14.625   6.347  10.617
70332W        W31698  43.304  18.734  12.015
70333W        W31699  17.114  20.602   1.350
70334W        W31700   7.368   8.398  11.455
70335W        W31701  41.368   8.804   3.697
70336W        W31702  16.665  28.951   0.752
70337W        W31703   9.298   8.798  14.027
70338W        W31704  21.625  31.152  11.488
70339W        W31705  28.478  39.832   1.236
70340W        W31706  34.581   3.935  13.452
70341W        W31707  18.686  33.557   1.384
70342W        W31708  23.656  42.446  13.316
70343W        W31709  13.691  34.409  11.470
70344W        W31710  25.559  10.231  10.138
70345W        W31711   6.922  24.575   1.237
70346W        W31712  11.303  23.050   2.233
70347W        W31713  27.087  27.612   0.878
70348W        W31714  15.732  39.538   2.822
70349W        W31715  44.962  44.473   4.815
70350W        W31716  41.537  37.837  14.923
70351W        W31717  12.236  31.928   3.721
70352W        W31718  16.135   1.369   0.793
70353W        W31719  22.619   0.752   5.096
70354W        W31720  36.575  35.537   0.919
70355W        W31721  26.613  38.914  11.573
70356W        W31722  36.985  33.584   4.286
70357W        W31723  29.015  26.151   4.248
70358W        W31724  21.084  28.061   2.262
70359W        W31725  39.817  37.427   4.754
70360W        W31726  36.986   7.884   4.779
70361W        W31727  34.480  26.538  13.415
70362W        W31728   4.428   4.704  11.422
70363W        W31729   1.876  29.144  11.034
70364W        W31730  27.174  40.051   3.262
70365W        W31731   5.258  12.315  13.531
70366W        W31732   2.889  20.660  11.419
70367W        W31733  42.820   4.805  14.845
70368W        W31734  36.545   1.900  11.521
70369W        W31735  15.799  11.848  13.950
70370W        W31736  43.293  19.109  13.865
70371W        W31737   7.816  44.493   3.841
70372W        W31738  24.574  26.474  12.397
70373W        W31739   8.262  18.084   5.145
70374W        W31740  10.166  11.341  11.421
70375W        W31741  44.951   9.808   2.877
70376W        W31742  11.143  32.527   3.222
70377W        W31743  41.462  14.121   4.677
70378W        W31744  42.025  42.804  14.316
70379W        W31745  33.011  43.856  13.394
70380W        W31746  39.453  33.595   1.355
70381W        W31747  19.200   3.845  12.357
70382W        W31748  42.006  26.544   4.224
70383W        W31749   2.915  39.886   3.729
70384W        W31750  12.699   0.438  14.505
70385W        W31751  29.430   7.839   3.150
70386W        W31752  39.400   4.275  13.505
70387W        W31753  39.861   8.181  14.952
70388W        W31754  33.490   5.721   2.673
70389W        W31755  24.200  15.581  11.423
70390W        W31756  29.006  36.376   1.843
70391W        W31757  15.125  19.726  11.385
70392W        W31758  25.020  44.264  11.470
70393W        W31759  27.509  38.000  12.467
70394W        W31760  18.633  15.637   4.158
70395W        W31761  21.592  12.646  11.407
70396W        W31762  43.347   1.380   0.775
70397W        W31763  18.279  33.038   4.604
70398W        W31764  10.291  38.406   4.202
70399W        W31765  33.929   6.210   4.216
70400W        W31766  19.194  38.014   0.372
70401W        W31767  34.371  40.910  14.877
70402W        W31768  40.992  22.575  11.474
70403W        W31769   4.349  29.565  13.944
70404W        W31770   7.352  40.843  14.023
70405W        W31771  16.317  33.914   1.774
70406W        W31772  17.680   2.802   2.713
70407W        W31773   1.954  10.148   3.819
70408W        W31774  42.344  21.095  14.851
70409W        W31775  14.229  13.277   4.217
70410W        W31776  36.466  39.424  12.396
70411W        W31777  26.199  24.675   3.260
70412W        W31778  43.377  28.945  14.417
70413W        W31779   7.322   6.378   4.161
70414W        W31780   3.323  10.715   4.622
70415W        W31781  40.939  44.794   3.854
70416W        W31782  29.555  12.213   0.830
70417W        W31783  24.632  33.016   9.969
70418W        W31784  21.162  11.162   1.288
70419W        W31785  31.549  30.424   4.717
70420W        W31786  42.281  16.608   3.842
70421W        W31787  32.928  29.657  14.961
70422W        W31788  10.864  28.612   2.752
70423W        W31789  30.635  43.474  11.964
70424W        W31790  14.119   3.887  14.457
70425W        W31791  32.559  36.991  12.436
70426W        W31792  15.183  13.764   5.225
70427W        W31793  43.764  33.383   3.735
70428W        W31794  33.918  42.908  12.950
70429W        W31795  16.262   3.823  14.408
70430W        W31796  22.228  44.290  11.521
70431W        W31797  36.542  22.722  10.940
70432W        W31798   6.870  16.097  13.024
70433W        W31799  26.633  19.252   2.719
70434W        W31800  26.970  16.809  13.812
70435W        W31801   7.828  19.559  14.957
70436W        W31802  11.636   2.918  14.394
70437W        W31803  39.409  17.088  14.931
70438W        W31804   0.866   1.809  12.423
70439W        W31805  22.209  23.209  13.539
70440W        W31806   8.838  19.548   4.620
70441W        W31807  39.369   6.883  13.341
70442W        W31808  28.070  39.997   2.367
70443W        W31809  17.762   3.854   0.420
70444W        W31810  38.373  37.042  14.471
70445W        W31811  31.626   6.293   1.367
70446W        W31812   6.860   0.957   0.353
70447W        W31813  22.514  31.477  12.447
70448W        W31814   4.786  32.481  12.054
70449W        W31815   9.172   0.770  14.908
70450W        W31816  14.318  36.567  11.385
70451W        W31817  25.109  17.566  12.925
70452W        W31818   8.857  18.287  13.999
70453W        W31819  36.486  17.099   0.334
70454W        W31820   1.289  29.929   3.818
70455W        W31821  38.905  21.247  10.095
70456W        W31822  29.154  31.609  12.477
70457W        W31823  42.914  34.068   4.674
70458W        W31824  44.768   9.743   3.863
70459W        W31825  36.478  21.585  13.459
70460W        W31826  33.116  25.714  11.550
70461W        W31827  33.427   9.301  12.493
70462W        W31828  28.523  39.058  11.599
70463W        W31829  15.624  12.703   2.384
70464W        W31830   8.354  22.504  12.884
70465W        W31831   8.222  23.149  14.806
70466W        W31832   5.434   8.893   1.888
70467W        W31833  12.826  37.505  13.987
70468W        W31834  33.939  17.306   4.125
70469W        W31835  28.175  24.015  12.936
70470W        W31836  18.680  25.115   2.289
70471W        W31837   4.924   8.368  10.524
70472W        W31838  24.167  17.682   4.194
70473W        W31839  10.263  11.333  10.539
70474W        W31840  29.124  40.441  11.602
70475W        W31841   2.752  38.531  13.376
70476W        W31842  41.448  37.976   4.166
70477W        W31843  32.534  43.928   4.685
70478W        W31844  15.108  43.806  10.982
70479W        W31845  12.223  25.482  10.973
70480W        W31846  12.686   4.777  14.864
70481W        W31847  37.960  40.427   0.729
70482W        W31848  35.564   7.679  14.868
70483W        W31849  41.875  17.692  13.941
70484W        W31850  12.222  38.058   0.473
70485W        W31851  21.153  12.183  13.383
70486W        W31852  32.486  43.342  13.456
70487W        W31853  26.629   6.918  11.480
70488W        W31854  44.861  18.074  12.353
70489W        W31855   8.206  40.939  14.352
70490W        W31856  43.493  24.481  12.980
70491W        W31857  30.483  13.344   4.823
70492W        W31858  43.309  28.063  11.091
70493W        W31859  41.371  31.473   4.759
70494W        W31860  36.874  13.168  12.954
70495W        W31861   5.291  14.172  14.850
70496W        W31862  22.509  36.449   9.931
70497W        W31863  40.386  27.592   1.387
70498W        W31864  15.125  31.981  11.060
70499W        W31865  27.678  25.643   4.834
70500W        W31866  39.907  42.506   1.836
70501W        W31867  16.733  28.132   1.701
70502W        W31868  39.885  21.719   0.939
70503W        W31869  13.625   3.438   1.424
70504W        W31870   0.793  17.786   1.905
70505W        W31871  29.020  39.448  12.396
70506W        W31872  22.186  21.689   3.244
70507W        W31873  43.811  25.633  13.048
70508W        W31874  35.895  22.640   4.602
70509W        W31875  29.630  30.510   2.673
70510W        W31876  39.981  25.708   0.352
70511W        W31877  32.035  28.552  14.011
70512W        W31878   5.788   6.335  13.037
70513W        W31879  12.354  43.426  13.334
70514W        W31880  32.562  39.848   1.889
70515W        W31881  25.983  21.020   3.806
70516W        W31882  14.589  36.863   1.740
70517W        W31883  24.483  43.800   1.413
70518W        W31884  33.577   5.408   4.253
70519W        W31885   0.435  24.643  11.530
70520W        W31886  36.588  30.523   9.942
70521W        W31887  34.562  31.542  11.924
70522W        W31888   5.253  28.641   0.396
70523W        W31889  19.692  42.350   3.794
70524W        W31890  33.422  15.283  13.331
70525W        W31891   4.910  20.735   3.651
70526W        W31892  38.003   4.810  11.548
70527W        W31893  40.419  16.706   0.339
70528W        W31894  22.600  42.980  11.876
70529W        W31895  17.793   1.317  10.459
70530W        W31896  28.534  35.381   2.274
70531W        W31897  17.111  27.980   1.368
70532W        W31898  24.646  33.403  10.979
70533W        W31899   3.797  36.476   4.218
70534W        W31900  25.688  42.500  13.355
70535W        W31901  39.337  39.427   2.355
70536W        W31902   8.384   7.885  12.872
70537W        W31903  18.103  24.002   1.328
70538W        W31904  10.738  17.233  10.939
70539W        W31905  41.367  13.839   4.153
70540W        W31906  17.217  19.652   2.901
70541W        W31907  19.053  18.752  10.560
70542W        W31908  30.120  10.357  14.925
70543W        W31909   1.247  10.374  12.872
70544W        W31910  21.693   1.833   0.400
70545W        W31911  20.681  21.644   1.869
70546W        W31912   7.872  12.627  14.819
70547W        W31913  12.157  40.950  10.611
70548W        W31914  19.646   1.351   0.849
70549W        W31915   6.918  39.420  12.086
70550W        W31916  37.018  30.602   0.753
70551W        W31917   3.762   8.398   3.838
70552W        W31918  38.953  38.506  13.896
70553W        W31919  41.852  22.547   1.894
70554W        W31920  39.916   9.234  14.025
70555W        W31921  18.135  11.208  10.472
70556W        W31922  37.425  35.057   1.705
70557W        W31923  27.134  19.535   5.114
70558W        W31924  23.107  23.514  11.111
70559W        W31925   3.381  31.461  14.420
70560W        W31926  14.324  24.523   3.164
70561W        W31927  35.978  32.020  12.971
70562W        W31928   3.383  43.338  10.972
70563W        W31929  27.646   9.231  13.365
70564W        W31930   3.392  23.618   4.171
70565W        W31931  27.509  15.243  11.588
70566W        W31932  23.713  17.215   3.741
70567W        W31933   0.483   6.316   0.881
70568W        W31934  33.919  40.902   1.409
70569W        W31935  29.996   5.229   2.884
70570W        W31936   7.721   6.250   1.827
70571W        W31937   7.825  30.025   0.772
70572W        W31938   0.804  40.413  14.898
70573W        W31939  14.624  44.427  12.505
70574W        W31940  43.319  24.081   3.237
70575W        W31941  39.975   6.416   4.689
70576W        W31942  19.101  11.216  14.297
70577W        W31943  21.660   3.291   3.640
70578W        W31944   6.723   7.394   5.618
70579W        W31945   0.381  34.395   1.438
70580W        W31946  28.041  31.900   1.830
70581W        W31947  32.433  38.051   2.190
70582W        W31948  26.119  11.797   2.826
70583W        W31949  11.171  15.694   0.850
70584W        W31950  20.244  17.162   0.441
70585W        W31951  44.498   7.801   2.794
70586W        W31952  44.938  24.990  11.062
70587W        W31953  42.826   2.821   3.346
70588W        W31954  36.551  27.192   4.286
70589W        W31955  19.267  22.594   3.191
70590W        W31956  27.490  40.961  11.558
70591W        W31957  21.198  24.652  13.354
70592W        W31958   0.491  40.957  13.909
70593W        W31959   6.707  11.326   2.239
70594W        W31960   1.853  36.534   0.378
70595W        W31961  14.173  40.888  14.287
70596W        W31962  44.874  24.190   2.339
70597W        W31963  38.947  19.611   2.329
70598W        W31964   6.879  18.594   0.903
70599W        W31965   0.754  42.377  12.059
70600W        W31966  22.997  34.879   2.830
70601W        W31967  28.162  29.992  11.414
70602W        W31968   5.718  41.354   2.212
70603W        W31969  13.735  34.401   2.365
70604W        W31970  15.594  31.044   4.601
70605W        W31971  21.227  36.457   3.732
70606W        W31972   6.771  13.241   5.140
70607W        W31973  15.653  31.595  14.952
70608W        W31974  16.666  26.119  13.878
70609W        W31975  40.926  44.286  14.964
70610W        W31976  13.655   6.803  13.050
70611W        W31977  33.470  21.193   4.715
70612W        W31978  40.822   2.381  13.423
70613W        W31979  36.998  18.775   2.856
70614W        W31980  43.775  31.606   1.355
70615W        W31981  30.967   6.774  14.028
70616W        W31982  35.594  40.332  12.348
70617W        W31983  16.312   1.944  12.824
70618W        W31984  30.930  17.154   3.649
70619W        W31985  25.079  41.963  14.882
70620W        W31986  35.586  23.037   4.162
70621W        W31987  43.462   8.323  14.896
70622W        W31988  37.339  41.333  11.450
70623W        W31989   5.295  35.927   2.303
70624W        W31990   5.345  42.819  10.603
70625W        W31991   0.249  25.628   1.219
70626W        W31992  41.512   0.258   1.324
70627W        W31993   8.352  33.609  12.999
70628W        W31994  16.264   9.253   3.867
70629W        W31995   8.209  10.199   4.299
70630W        W31996  42.454  22.095   4.186
70631W        W31997  44.348  38.567  11.995
70632W        W31998  26.166  37.847  11.960
70633W        W31999   7.766  31.923  13.520
70634W        W32000  39.005  25.713   3.303
70635W        W32001  42.881  26.680   4.773
70636W        W32002  35.517  42.510  10.410
70637W        W32003  11.275  37.443  10.603
70638W        W32004   3.439  14.180  14.905
70639W        W32005  22.572   4.823  13.885
70640W        W32006  10.142  32.925   0.892
70641W        W32007  14.216  40.848  14.907
70642W        W32008  11.182  18.069  12.468
70643W        W32009  15.799  23.238  11.492
70644W        W32010  31.628  13.705  11.919
70645W        W32011   2.439  31.025  10.158
70646W        W32012  17.088  32.428  13.505
70647W        W32013  15.629  43.352  13.954
70648W        W32014   1.873  32.412   0.345
70649W        W32015   0.956  17.235   2.367
70650W        W32016  14.315  24.027  12.015
70651W        W32017  34.487   2.749  12.926
70652W        W32018  22.619  29.932  11.605
70653W        W32019  39.917  26.107  13.308
70654W        W32020  19.241  22.650  14.281
70655W        W32021  25.133   0.939  14.480
70656W        W32022  44.870   1.479  13.937
70657W        W32023  22.109  30.998   2.204
70658W        W32024   9.700  18.218  14.789
70659W        W32025  21.568  11.655   2.382
70660W        W32026  30.424   5.910  14.931
70661W        W32027  17.757   1.803   4.682
70662W        W32028  32.528  27.675   2.280
70663W        W32029  14.116  29.107  11.578
70664W        W32030   9.774  40.902   4.298
70665W        W32031  37.022   1.914   0.812
70666W        W32032  16.172  11.868  11.450
70667W        W32033  28.079  30.503  14.506
70668W        W32034  20.539  36.896   4.341
70669W        W32035  20.549  26.460   0.885
70670W        W32036  40.941   9.362   4.238
70671W        W32037  16.776  42.946  14.813
70672W        W32038  13.706   2.923  11.091
70673W        W32039  30.424   4.804  13.532
70674W        W32040   7.844  35.423  14.363
70675W        W32041  31.979  13.317  12.027
70676W        W32042  17.305  41.382   4.783
70677W        W32043   2.907   8.393   3.257
70678W        W32044  17.682  19.187   4.785
70679W        W32045  39.024  36.570   1.923
70680W        W32046   5.359  11.754  12.542
70681W        W32047  39.412  37.525  11.467
70682W        W32048   3.841  41.898   0.937
70683W        W32049  13.707  34.882   4.260
70684W        W32050  18.079  36.080   4.270
70685W        W32051   1.296   9.181   3.340
70686W        W32052  44.972  17.763  10.424
70687W        W32053  26.033  28.076   0.808
70688W        W32054  25.103  21.605   0.822
70689W        W32055   9.856   1.887   4.209
70690W        W32056  30.591   1.788  13.546
70691W        W32057  36.532  19.248  10.437
70692W        W32058   2.824  21.644  10.908
70693W        W32059  43.933  39.020   0.469
70694W        W32060  27.690  42.432  12.988
70695W        W32061   6.749  18.261  13.362
70696W        W32062  16.198  28.613   0.440
70697W        W32063  43.271   3.261  12.016
70698W        W32064  38.563  37.412   1.280
70699W        W32065  22.524  43.984   0.768
70700W        W32066   8.205   1.752  12.830
70701W        W32067  33.503  37.065   2.408
70702W        W32068  42.459  17.602   0.420
70703W        W32069  28.991  19.046   0.291
70704W        W32070  37.983  32.067   0.912
70705W        W32071  25.121  41.977  14.435
70706W        W32072  42.451  27.581   4.228
70707W        W32073   4.305  11.288  12.026
70708W        W32074  13.609  35.980   2.397
70709W        W32075  11.776   1.732  10.045
70710W        W32076  26.136  35.053  11.068
70711W        W32077  37.352  39.937   4.610
70712W        W32078   4.708  16.680  12.964
70713W        W32079  31.581  44.994  10.590
70714W        W32080   9.340  34.528   4.311
70715W        W32081  33.043  33.086  12.843
70716W        W32082  15.100  44.955   1.929
70717W        W32083   6.842  16.573  12.517
70718W        W32084  14.687  42.326  14.437
70719W        W32085  12.347  32.051  13.392
70720W        W32086   7.751  35.914   4.279
70721W        W32087  11.199  44.326   1.290
70722W        W32088  39.056  22.739  10.899
70723W        W32089   9.765  14.131  14.369
70724W        W32090   1.754  19.678  10.520
70725W        W32091  21.713  37.035   9.584
70726W        W32092  31.070   8.385  13.438
70727W        W32093  22.556  25.593   3.231
70728W        W32094  24.023  33.578   1.830
70729W        W32095  42.512  20.074   1.775
70730W        W32096  34.536  26.043   0.809
70731W        W32097  25.626  11.152  11.421
70732W        W32098  36.060   5.295  12.010
70733W        W32099  21.715  29.044   3.718
70734W        W32100  26.168  29.150  11.609
70735W        W32101  10.308  17.639  14.345
70736W        W32102  42.887  14.834   3.364
70737W        W32103  21.081   5.359  12.370
70738W        W32104   3.811  44.311  11.946
70739W        W32105   4.278  40.940  12.846
70740W        W32106   5.854  29.134  13.005
70741W        W32107  39.028   8.790   4.147
70742W        W32108  32.415  16.075   4.215
70743W        W32109   7.671  14.781  10.446
70744W        W32110  10.638  26.557  13.397
70745W        W32111  34.495  36.573  11.992
70746W        W32112  23.046  29.455   2.190
70747W        W32113  16.309   4.282   0.313
70748W        W32114  42.031  16.163   4.769
70749W        W32115  43.479  11.756   0.477
70750W        W32116   9.289  20.232   3.187
70751W        W32117  34.559   9.214   3.794
70752W        W32118  36.464  13.731  13.898
70753W        W32119   2.776  39.497  12.845
70754W        W32120  32.891  26.044  10.906
70755W        W32121  24.037   0.954   0.831
70756W        W32122  44.269  11.135   0.365
70757W        W32123   1.731  27.490  13.914
70758W        W32124  15.811  33.978   0.344
70759W        W32125   4.704  26.487  13.315
70760W        W32126  32.567  12.611   4.613
70761W        W32127  32.098   4.706  13.962
70762W        W32128  22.524  36.889  10.523
70763W        W32129   7.845  41.346   0.948
70764W        W32130   9.796  13.761   0.355
70765W        W32131  11.840  22.691  13.860
70766W        W32132  17.183  28.678  10.589
70767W        W32133  38.443  32.952  13.489
70768W        W32134  44.356  24.517  12.047
70769W        W32135  25.965  28.005  12.851
70770W        W32136  41.325  32.636   4.185
70771W        W32137   6.781  20.218  13.497
70772W        W32138  16.574  36.403  10.975
70773W        W32139  28.173  28.939  13.818
70774W        W32140   1.808  21.552   3.199
70775W        W32141   0.893   2.824   1.407
70776W        W32142  18.288  12.797   2.344
70777W        W32143   5.804  35.965  14.793
70778W        W32144   1.855  21.159   1.772
70779W        W32145  17.770  22.249  11.378
70780W        W32146   1.749  44.368   2.895
70781W        W32147   2.888   0.255   2.366
70782W        W32148  32.122   3.771  11.573
70783W        W32149   1.819  15.214   3.349
70784W        W32150  42.869  15.118  12.440
70785W        W32151  28.545  11.864  13.059
70786W        W32152  15.160  43.012  12.024
70787W        W32153  41.344  18.591  11.881
70788W        W32154  24.198  18.156  12.512
70789W        W32155  13.262   4.218  12.534
70790W        W32156   7.689  26.545  13.814
70791W        W32157  13.650  32.107  11.403
70792W        W32158   6.420  38.887  14.274
70793W        W32159  17.603   5.353  14.895
70794W        W32160  27.571  36.540  12.511
70795W        W32161  25.514  44.381  12.978
70796W        W32162  44.940  29.957   0.858
70797W        W32163  38.979  37.386  14.911
70798W        W32164   0.774   2.861   3.295
70799W        W32165   3.762   8.732   2.897
70800W        W32166  24.496  12.265  12.386
70801W        W32167  43.286  23.998  13.368
70802W        W32168  32.447   6.742   0.766
70803W        W32169  15.262   3.747  13.545
70804W        W32170  13.634   2.228  14.946
70805W        W32171   9.765  40.000   0.828
70806W        W32172  43.492  11.622   3.171
70807W        W32173  18.161  30.980   0.757
70808W        W32174  29.169  32.139   0.847
70809W        W32175  21.083  26.683   0.252
70810W        W32176  32.564  37.939   2.663
70811W        W32177  31.084  25.605  14.490
70812W        W32178  33.881  36.005  12.575
70813W        W32179  27.048  38.492   3.759
70814W        W32180  29.507  16.128   3.194
70815W        W32181   7.822  31.150   0.900
70816W        W32182  42.339  18.657   1.896
70817W        W32183  17.711  10.649   0.937
70818W        W32184  22.684  42.495   0.928
70819W        W32185   8.872  33.130  13.940
70820W        W32186  34.384  15.730  10.146
70821W        W32187  34.602  31.093   0.435
70822W        W32188   0.451  39.497   4.211
70823W        W32189  39.872  22.239   1.324
70824W        W32190  24.595  39.812  11.601
70825W        W32191  17.236  15.269  14.352
70826W        W32192  38.887   4.214  11.586
70827W        W32193   5.343   7.679  12.845
70828W        W32194  11.311  22.030   0.929
70829W        W32195  34.423  23.235  13.965
70830W        W32196   0.837  38.383   2.706
70831W        W32197   8.179  22.616  13.530
70832W        W32198  15.664  12.333   0.297
70833W        W32199  43.336  26.602  13.051
70834W        W32200   4.831  15.648  13.800
70835W        W32201  26.966  28.591  14.291
70836W        W32202  40.313  36.484  10.416
70837W        W32203  37.457  11.823   4.783
70838W        W32204  39.483  34.508  11.106
70839W        W32205  27.476  44.854  11.528
70840W        W32206   0.895  23.544   4.177
70841W        W32207  22.060  22.247  13.964
70842W        W32208  36.044  22.157   4.197
70843W        W32209  43.966  15.235   4.651
70844W        W32210  12.316   4.341   0.815
70845W        W32211  33.573  28.478  13.862
70846W        W32212  40.543  43.302  14.779
70847W        W32213  39.445  24.103   3.257
70848W        W32214  27.645  16.650   2.201
70849W        W32215   6.892   8.674  11.033
70850W        W32216  33.612  17.721   4.273
70851W        W32217  35.871  42.496  14.446
70852W        W32218  26.995  10.370   2.193
70853W        W32219  23.514   4.412  12.397
70854W        W32220   0.252  42.982   4.116
70855W        W32221  21.595  15.665   3.712
70856W        W32222  18.109  11.187   3.234
70857W        W32223  25.712  22.734   2.225
70858W        W32224  42.490  29.615  12.967
70859W        W32225  33.940   0.365  12.980
70860W        W32226  38.824  23.646   0.909
70861W        W32227  37.046  27.523   2.185
70862W        W32228  31.031  44.939  12.451
70863W        W32229  17.204  17.089  14.985
70864W        W32230  22.593   6.799  14.936
70865W        W32231   5.933  42.448   0.409
70866W        W32232  35.445  41.449  11.510
70867W        W32233   8.890  34.993  10.617
70868W        W32234   1.341  26.701   5.149
70869W        W32235  19.670  34.391   0.889
70870W        W32236  26.701  42.818   2.196
70871W        W32237  44.787  27.641  11.419
70872W        W32238   2.794  41.368   0.331
70873W        W32239  27.067  38.829   1.291
70874W        W32240  40.955  39.843  13.962
70875W        W32241  28.088  36.050  14.978
70876W        W32242  39.529  19.060   4.736
70877W        W32243  20.098  40.317  12.014
70878W        W32244   5.781  27.594   0.430
70879W        W32245  23.193   4.276   2.883
70880W        W32246  36.079  23.493   1.307
70881W        W32247  36.885  28.569  12.986
70882W        W32248  20.594   0.853  14.883
70883W        W32249  25.086  37.087   3.750
70884W        W32250  16.789   5.733   0.391
70885W        W32251  33.004  18.589  13.369
70886W        W32252  15.157   1.808   4.258
70887W        W32253   3.721  44.982  11.534
70888W        W32254  37.579  19.547  11.022
70889W        W32255  36.045  29.438   0.342
70890W        W32256  21.657   2.920  13.934
70891W        W32257  11.346   8.355  14.370
70892W        W32258  10.715   9.843  14.378
70893W        W32259  26.164  36.469  13.849
70894W        W32260  19.233  44.842   0.396
70895W        W32261  20.609   9.694  14.396
70896W        W32262  35.385  22.074  11.490
70897W        W32263  15.153  30.576   0.307
70898W        W32264  37.900  10.710  12.370
70899W        W32265  39.830  18.121  14.423
70900W        W32266   7.302   8.385   4.766
70901W        W32267  22.170  36.023  12.448
70902W        W32268  37.853  26.126   3.283
70903W        W32269  44.279  25.985  11.483
70904W        W32270  38.821  21.518  10.570
70905W        W32271  11.296  11.211  10.998
70906W        W32272  24.643  39.928   3.279
70907W        W32273  20.070  14.273   2.214
70908W        W32274  41.964  38.993  10.962
70909W        W32275  20.154  12.200  11.536
70910W        W32276   5.872  34.079  14.295
70911W        W32277  25.077  15.733   0.343
70912W        W32278  20.106  29.434   4.769
70913W        W32279  19.237  32.910  11.556
70914W        W32280  38.395  18.551   2.803
70915W        W32281  12.359   4.343  11.062
70916W        W32282  32.898   8.184  11.607
70917W        W32283   5.335  34.003  10.972
70918W        W32284   2.963   9.879  14.827
70919W        W32285   2.442   3.740   2.777
70920W        W32286  33.069  44.774  14.402
70921W        W32287  25.177  33.888   4.652
70922W        W32288   1.283   1.808   2.789
70923W        W32289  27.644  11.246   0.423
70924W        W32290  41.956   3.262   3.654
70925W        W32291  24.657   7.179   2.758
70926W        W32292  20.153  11.316  12.869
70927W        W32293  15.707  30.624   5.108
70928W        W32294  39.063  21.532  12.035
70929W        W32295  24.595  29.556  12.837
70930W        W32296  11.747   9.669  12.996
70931W        W32297  27.668  13.305  13.800
70932W        W32298  32.910  37.987  11.528
70933W        W32299  30.996  10.271  12.024
70934W        W32300  41.974  13.667   0.818
70935W        W32301  26.645  30.053  14.493
70936W        W32302  37.866  16.309   4.121
70937W        W32303  23.225  34.547   3.324
70938W        W32304   7.678  23.512   3.671
70939W        W32305  12.124  16.701  11.459
70940W        W32306  11.240  26.063   4.803
70941W        W32307  38.525  22.633  14.281
70942W        W32308  16.762  42.874   4.644
70943W        W32309  27.003  22.517  14.472
70944W        W32310  23.667  32.405   2.821
70945W        W32311  13.331  43.443  14.483
70946W        W32312  31.487  43.347   4.256
70947W        W32313   3.254  39.829  13.430
70948W        W32314  18.710  35.879  14.317
70949W        W32315  32.064  35.601   1.932
70950W        W32316  38.469   2.781   2.755
70951W        W32317  19.250  17.688  10.564
70952W        W32318  37.862  29.951  13.392
70953W        W32319  10.364  30.964   1.865
70954W        W32320  12.246  13.788  12.964
70955W        W32321   3.339  41.344   0.412
70956W        W32322  36.081  30.426  13.404
70957W        W32323  29.947  43.019   0.287
70958W        W32324  12.788  42.320  13.059
70959W        W32325  27.522  22.665   3.800
70960W        W32326  34.103   6.189  14.346
70961W        W32327  13.316  31.629   2.709
70962W        W32328   9.760   7.310  14.969
70963W        W32329  29.509   2.347  13.012
70964W        W32330  31.606  24.531  13.420
70965W        W32331   8.673  12.273   1.410
70966W        W32332   5.380  37.401   1.405
70967W        W32333  20.221  11.703  10.895
70968W        W32334   4.932  12.735  10.570
70969W        W32335   6.815  27.647   4.807
70970W        W32336   5.282  12.780  13.844
70971W        W32337  13.275   5.880   4.739
70972W        W32338  25.071  28.449  10.971
70973W        W32339  40.011  29.168  12.879
70974W        W32340  38.361  37.449   4.734
70975W        W32341  29.124   2.928   3.692
70976W        W32342   8.687  25.577  11.442
70977W        W32343  40.928  36.525   4.319
70978W        W32344  16.748  24.174  11.578
70979W        W32345  18.123  29.139  13.339
70980W        W32346  40.507  30.043   2.234
70981W        W32347   6.343  38.031  12.351
70982W        W32348  34.439  41.416  13.919
70983W        W32349  26.097  17.760  10.629
70984W        W32350  44.363  22.223   4.688
70985W        W32351  35.854  13.314  14.774
70986W        W32352  23.585  16.687   1.361
70987W        W32353  39.891  25.131   1.842
70988W        W32354  37.877  19.115  12.496
70989W        W32355   8.401  29.629  11.027
70990W        W32356  30.938  34.458   3.240
70991W        W32357  30.039   1.880   4.631
70992W        W32358  39.943   4.874  12.081
70993W        W32359  34.469  33.071   0.939
70994W        W32360   5.207  22.190  11.976
70995W        W32361   7.672   6.844   0.250
70996W        W32362  11.714  35.541  14.967
70997W        W32363  33.448  21.605   2.223
70998W        W32364  20.232  30.566  11.611
70999W        W32365   4.865  36.887   4.209
71000W        W32366  42.790  44.978  11.447
71001W        W32367  19.211  10.211  13.881
71002W        W32368  34.456  13.787  11.021
71003W        W32369  26.065   4.228   2.885
71004W        W32370   0.297  15.800   2.671
71005W        W32371  24.575  43.506  10.566
71006W        W32372  26.078  30.509   0.921
71007W        W32373  20.670   0.773   1.227
71008W        W32374  31.525  33.475   2.280
71009W        W32375  22.699  23.041   1.219
71010W        W32376  33.101  23.170  11.118
71011W        W32377  21.088   2.802   2.338
71012W        W32378  42.843  31.925   0.374
71013W        W32379   9.712  15.266  10.587
71014W        W32380  16.174  35.870  11.475
71015W        W32381  19.178   9.323   1.413
71016W        W32382  37.036  33.016   4.629
71017W        W32383  24.702  26.643   2.208
71018W        W32384   8.692  26.195   0.270
71019W        W32385  19.556  36.347  11.069
71020W        W32386   5.358  31.470  12.971
71021W        W32387   5.902  33.490  10.918
71022W        W32388  10.774  32.475   0.836
71023W        W32389  36.347  10.839   3.744
71024W        W32390  14.196  11.712   0.889
71025W        W32391  12.811  22.025   1.864
71026W        W32392  39.333  13.344   4.789
71027W        W32393  23.063  23.536  13.355
71028W        W32394  36.414  36.014   3.167
71029W        W32395  28.034  28.149   1.911
71030W        W32396  44.329  37.898  13.814
71031W        W32397  38.015  11.283  14.497
71032W        W32398   2.911  26.954  13.985
71033W        W32399  19.585   3.326  14.405
71034W        W32400  28.664  15.596  12.979
71035W        W32401   9.733  27.055  13.019
71036W        W32402  34.400  42.360   5.188
71037W        W32403  25.577  44.992   0.795
71038W        W32404   7.896   4.851  10.429
71039W        W32405  31.051  38.895  13.916
71040W        W32406  19.569   0.927  12.369
71041W        W32407  38.904  18.775  12.431
71042W        W32408  39.951  42.427  11.481
71043W        W32409  41.987  31.556   3.684
71044W        W32410  22.697   3.933   3.220
71045W        W32411  16.177  19.177   3.689
71046W        W32412   3.953  16.604  12.971
71047W        W32413  37.960  12.286  12.378
71048W        W32414  41.827  27.976  13.038
71049W        W32415  14.614  43.398  13.835
71050W        W32416  22.167  30.973   3.320
71051W        W32417  36.418  14.610   0.852
71052W        W32418  26.957  17.771   2.792
71053W        W32419  39.473  20.649  10.905
71054W        W32420   4.275  11.801  12.955
71055W        W32421  11.661  29.162   2.213
71056W        W32422   1.392  20.263  12.070
71057W        W32423  41.303  28.068  12.963
71058W        W32424   2.438  38.420  13.868
71059W        W32425  13.656  34.926   3.204
71060W        W32426  11.190  40.338  14.799
71061W        W32427  39.342  38.039  12.852
71062W        W32428  41.472  43.426  14.006
71063W        W32429  38.995   6.903  10.107
71064W        W32430  36.909  25.196  13.908
71065W        W32431   0.910   6.904  13.504
71066W        W32432  44.814  27.058   0.474
71067W        W32433  38.020  24.666  12.931
71068W        W32434   2.358   6.748  11.019
71069W        W32435   7.784  29.489  12.960
71070W        W32436   4.280  21.220   4.278
71071W        W32437  16.167  12.143  11.535
71072W        W32438  41.035  24.641  10.431
71073W        W32439  32.032  39.372   0.822
71074W        W32440  11.866   1.287   2.735
71075W        W32441  20.040   8.779   1.449
71076W        W32442  27.015   0.966   4.311
71077W        W32443  44.996  35.873   1.278
71078W        W32444  14.339  19.771  13.517
71079W        W32445  29.456  17.612   3.794
71080W        W32446  42.369   4.304  11.000
71081W        W32447  35.064  19.202  10.555
71082W        W32448  22.183  35.935   5.788
71083W        W32449  34.970  16.189   3.162
71084W        W32450  35.486  30.492   0.359
71085W        W32451  35.603  20.657   1.419
71086W        W32452   5.784  16.293   0.317
71087W        W32453   2.876  24.687  10.961
71088W        W32454  13.627  39.987   0.414
71089W        W32455  29.457  23.161   3.826
71090W        W32456  43.319  15.212   1.767
71091W        W32457  15.175  37.072   9.491
71092W        W32458  21.723  10.734  11.084
71093W        W32459   3.883  32.089   4.685
71094W        W32460  31.520  34.418  13.045
71095W        W32461  31.073  11.708  12.396
71096W        W32462  29.562  37.853   4.828
71097W        W32463  10.301   0.843  11.995
71098W        W32464  23.497   5.293  11.059
71099W        W32465  41.977  33.512   4.632
71100W        W32466  15.112  13.723  14.997
71101W        W32467   1.777   2.821   2.286
71102W        W32468  17.162  44.851   3.229
71103W        W32469  38.347  43.999   1.262
71104W        W32470  13.628  25.630   2.696
71105W        W32471  35.987  30.498   4.217
71106W        W32472  25.519   6.249   0.399
71107W        W32473  15.680  14.713   0.416
71108W        W32474  37.928   6.190  11.387
71109W        W32475  20.553  36.437  10.984
71110W        W32476  41.394  40.490  10.448
71111W        W32477  26.095  33.056   3.226
71112W        W32478  14.744  13.815  11.862
71113W        W32479  37.438  26.005  11.591
71114W        W32480   2.326   5.931   0.920
71115W        W32481   2.318   9.222  13.035
71116W        W32482  23.026  11.300   3.824
71117W        W32483  32.440  28.993  14.802
71118W        W32484  37.379  35.042  14.963
71119W        W32485  11.369  27.954  13.799
71120W        W32486  44.468  23.575   1.756
71121W        W32487  10.749  44.385   0.821
71122W        W32488  44.402  33.613   1.778
71123W        W32489  26.486  33.602  11.056
71124W        W32490   1.830  18.105  13.422
71125W        W32491  27.003  18.612   0.934
71126W        W32492  25.017  28.576   3.214
71127W        W32493  12.295  13.648  14.412
71128W        W32494  22.655  10.825   0.309
71129W        W32495  27.980   8.347   1.903
71130W        W32496  29.054   1.347  14.483
71131W        W32497   7.188  24.207   3.644
71132W        W32498   6.275  22.511  10.588
71133W        W32499  42.414  25.491  14.286
71134W        W32500  10.823  15.660   4.733
71135W        W32501  43.935  10.339  13.546
71136W        W32502  23.055  39.884   3.208
71137W        W32503  40.491  12.643   9.946
71138W        W32504   7.838  18.052  12.510
71139W        W32505  13.727  34.373   5.170
71140W        W32506   3.368  24.213   5.137
71141W        W32507  27.028  41.947   2.372
71142W        W32508  36.999   1.439  13.993
71143W        W32509  29.597   2.754  11.390
71144W        W32510  30.159  26.625   5.225
71145W        W32511   0.400  28.643  11.951
71146W        W32512   2.849  38.011  11.413
71147W        W32513  21.608  40.851  12.488
71148W        W32514   7.896  30.088   2.383
71149W        W32515  10.337  42.295   1.812
71150W        W32516  20.712  20.660   3.341
71151W        W32517  41.309  34.987  11.391
71152W        W32518   6.694   5.914   2.353
71153W        W32519  17.121  32.624   1.292
71154W        W32520  38.436  32.017  11.886
71155W        W32521  28.022  42.474  14.468
71156W        W32522  38.913  18.647   2.729
71157W        W32523  32.095  36.389   3.766
71158W        W32524  18.777   8.842  14.767
71159W        W32525  39.050  28.029  10.584
71160W        W32526  20.120  42.942  11.547
71161W        W32527   3.403  40.345  11.407
71162W        W32528  33.124  31.581  12.550
71163W        W32529  14.808  13.169   4.325
71164W        W32530  23.157   7.745  11.938
71165W        W32531  25.674  32.615   1.331
71166W        W32532  43.912  29.605   4.696
71167W        W32533  36.565  23.657  10.511
71168W        W32534  19.283   5.209  12.013
71169W        W32535  39.485   1.731  12.474
71170W        W32536   4.309  18.252   1.719
71171W        W32537  18.057   5.894  13.434
71172W        W32538   5.291  21.262   1.299
71173W        W32539  37.447  31.142  13.015
71174W        W32540  11.642  24.125  10.485
71175W        W32541  17.164   2.458   1.299
71176W        W32542  37.004  22.045   0.789
71177W        W32543  42.905  21.677  12.441
71178W        W32544  41.972  44.990   1.829
71179W        W32545  36.900   6.724   4.677
71180W        W32546  28.580  11.362   0.243
71181W        W32547  28.985  25.611  12.000
71182W        W32548  31.497   4.406   3.351
71183W        W32549  17.198  30.618  13.496
71184W        W32550  37.396  14.749   3.336
71185W        W32551  16.220   1.441   2.230
71186W        W32552   2.456  17.106   3.687
71187W        W32553  25.018  36.090  11.043
71188W        W32554  37.993  38.979  12.892
71189W        W32555  16.748   9.792  11.016
71190W        W32556  31.987  36.847  13.531
71191W        W32557  37.982  19.646  14.004
71192W        W32558  29.938  10.745   3.341
71193W        W32559  31.013  10.800   2.267
71194W        W32560  30.159  44.807  11.954
71195W        W32561  20.220  23.499  11.596
71196W        W32562  23.688  34.080  12.486
71197W        W32563  11.174  36.575  10.519
71198W        W32564  15.796  10.288  13.347
71199W        W32565  40.798  29.532   1.703
71200W        W32566  32.903  43.469   1.279
71201W        W32567   8.726  36.850   1.775
71202W        W32568  26.499  36.906   4.182
71203W        W32569  10.664   9.653  12.875
71204W        W32570  12.632   7.767  11.542
71205W        W32571  10.364   7.713  12.961
71206W        W32572  34.386  16.191   3.147
71207W        W32573  21.646  38.378  10.970
71208W        W32574  22.017  31.550  11.086
71209W        W32575   7.316  39.034  14.376
71210W        W32576  35.990  26.033  14.913
71211W        W32577  13.773  39.497   2.806
71212W        W32578   2.814  37.864  11.857
71213W        W32579   2.892  15.138  11.508
71214W        W32580  34.868  21.557   1.739
71215W        W32581  20.242  16.143  11.979
71216W        W32582  31.568  12.321   2.252
71217W        W32583   8.677  34.900   2.788
71218W        W32584  24.144  44.288  10.117
71219W        W32585   1.324   9.280  13.833
71220W        W32586  10.384  25.198  12.973
71221W        W32587  39.842  20.578   2.262
71222W        W32588  32.957   0.422  12.522
71223W        W32589  25.070  42.950  12.035
71224W        W32590  17.086  11.766  11.114
71225W        W32591  32.123  34.891  12.895
71226W        W32592   6.851   1.353   4.288
71227W        W32593  30.050   4.901   4.773
71228W        W32594  32.599  32.890  14.464
71229W        W32595  28.663  19.773   0.741
71230W        W32596   3.413   8.868   2.761
71231W        W32597  44.403  43.992   2.810
71232W        W32598  11.734   7.815  10.627
71233W        W32599  17.557  22.572   0.883
71234W        W32600  42.033  21.029   4.119
71235W        W32601   0.910  24.677  10.982
71236W        W32602  11.845  33.060  10.156
71237W        W32603   6.762  13.161   2.398
71238W        W32604  11.776  28.987  11.906
71239W        W32605  13.656  30.514   5.086
71240W        W32606  29.666  27.453   2.304
71241W        W32607  11.159  27.581  13.496
71242W        W32608  36.569  37.401  14.030
71243W        W32609  13.626  44.495  11.463
71244W        W32610  12.719  13.684   4.194
71245W        W32611  29.492   9.393  10.491
71246W        W32612  10.181  20.743   1.782
71247W        W32613  17.558  37.078  14.499
71248W        W32614  43.848  30.487   3.730
71249W        W32615  25.193   6.678  14.969
71250W        W32616  40.490  10.383  12.466
71251W        W32617   0.467   9.313  11.405
71252W        W32618   0.985  14.237   2.885
71253W        W32619   1.878  39.517  11.871
71254W        W32620  17.267  44.375   4.749
71255W        W32621  26.666  32.400   3.729
71256W        W32622   8.763  27.451  14.446
71257W        W32623   8.692  37.022  12.524
71258W        W32624  33.934  14.156   3.860
71259W        W32625  40.950  33.942  12.967
71260W        W32626  27.976   6.229   4.125
71261W        W32627  39.441   4.212  13.844
71262W        W32628  11.815  31.969   3.350
71263W        W32629  35.539  22.161  13.520
71264W        W32630  33.490  17.731  10.910
71265W        W32631   6.858   0.334   2.758
71266W        W32632  26.598  35.540   4.192
71267W        W32633   0.475   5.344   3.337
71268W        W32634  44.860  39.507  13.505
71269W        W32635  12.641  44.912  11.423
71270W        W32636   9.359  18.258  14.298
71271W        W32637  38.569  11.242  10.538
71272W        W32638  14.297  16.789  13.860
71273W        W32639  44.811  31.472   0.417
71274W        W32640  29.087  42.521   2.849
71275W        W32641  27.166  27.686   3.720
71276W        W32642  41.422  16.200   2.853
71277W        W32643  21.755  23.560  13.460
71278W        W32644  12.174  33.128   0.783
71279W        W32645   9.231  29.928   2.224
71280W        W32646  10.712  30.012  12.030
71281W        W32647   8.196   0.296  11.562
71282W        W32648  29.140  24.004   4.629
71283W        W32649  36.589   5.911  13.484
71284W        W32650  13.603   4.756   0.831
71285W        W32651  31.640  28.016   4.277
71286W        W32652  24.605  11.697  10.990
71287W        W32653   4.849  11.720  12.005
71288W        W32654  43.383  42.915   2.726
71289W        W32655  16.220  30.089   4.152
71290W        W32656  25.059  29.647  13.511
71291W        W32657  36.846  42.347  12.992
71292W        W32658  21.087  43.824  12.504
71293W        W32659   3.866  30.099   0.471
71294W        W32660  23.730  40.875  11.467
71295W        W32661  35.002   4.755   1.829
71296W        W32662  40.391   8.898  10.519
71297W        W32663   4.795  39.856   4.707
71298W        W32664  16.306  28.588  14.854
71299W        W32665  29.636  23.992   1.323
71300W        W32666  35.871  35.942   0.864
71301W        W32667   3.786  34.071  12.519
71302W        W32668  13.215  36.927   3.338
71303W        W32669  44.901  36.517  11.891
71304W        W32670  20.204  44.952   1.899
71305W        W32671  18.703   1.944   0.736
71306W        W32672   5.738   5.206  10.912
71307W        W32673   9.284  41.498   3.179
71308W        W32674  19.739  18.108  11.557
71309W        W32675   8.343  25.123  13.025
71310W        W32676  24.665  31.422  11.944
71311W        W32677  30.529  26.621   4.775
71312W        W32678  14.242  20.721   2.196
71313W        W32679  31.940  10.344  12.024
71314W        W32680  34.988  41.996  13.803
71315W        W32681  23.202  39.318   2.688
71316W        W32682  28.967   5.831  14.967
71317W        W32683  43.340  32.634  13.854
71318W        W32684  43.489   6.827   1.230
71319W        W32685   4.224  33.125  13.853
71320W        W32686  24.664  24.504   0.804
71321W        W32687  41.509  11.242   2.270
71322W        W32688  22.220  25.681   3.266
71323W        W32689   6.768  14.795  11.514
71324W        W32690  12.837  40.023   2.666
71325W        W32691  37.342  12.187  12.831
71326W        W32692   9.348  12.702  14.914
71327W        W32693   1.354   3.302   0.465
71328W        W32694  36.890  17.747  12.899
71329W        W32695  10.213  16.579  10.632
71330W        W32696  42.370  16.262  13.444
71331W        W32697   1.384  41.884  14.450
71332W        W32698  44.814   5.380  13.923
71333W        W32699   0.819  10.707  12.400
71334W        W32700  28.476  18.737   2.859
71335W        W32701  26.112  32.930   4.742
71336W        W32702   0.982  40.880   2.689
71337W        W32703  18.699  14.113   2.663
71338W        W32704  43.271   5.912   2.896
71339W        W32705  13.213  10.243   3.765
71340W        W32706  12.744   6.860  12.412
71341W        W32707  44.450  14.221   4.251
71342W        W32708   0.982  34.917   3.314
71343W        W32709  23.034   2.350   0.866
71344W        W32710  13.628  35.977   5.221
71345W        W32711  12.244  31.010  11.612
71346W        W32712   6.325   8.212   4.788
71347W        W32713  20.767   8.205   3.265
71348W        W32714  27.456  37.837  11.416
71349W        W32715  33.600   0.808  12.828
71350W        W32716  28.592  23.735   1.314
71351W        W32717  37.460  29.061   0.442
71352W        W32718  12.649   1.865  11.075
71353W        W32719   3.765  41.457  13.483
71354W        W32720   6.894  11.218   3.259
71355W        W32721  10.268  39.898   0.285
71356W        W32722  11.214  27.187  11.381
71357W        W32723  40.428  28.131   3.651
71358W        W32724  13.186  21.113   4.176
71359W        W32725  15.721  40.920   2.683
71360W        W32726  28.681  11.264   1.782
71361W        W32727   7.391   2.904   2.333
71362W        W32728  26.978  37.390   0.950
71363W        W32729   8.812  44.431  14.889
71364W        W32730  37.886  44.987  14.447
71365W        W32731  39.528  38.457   4.609
71366W        W32732  27.678   8.733   0.286
71367W        W32733  31.609  41.827   3.823
71368W        W32734  17.189  26.500   3.170
71369W        W32735   4.828  11.836  12.414
71370W        W32736   6.370  19.099   1.874
71371W        W32737  22.516   5.785   0.266
71372W        W32738  26.696  11.714  13.013
71373W        W32739  44.310   8.261  14.466
71374W        W32740  31.056  14.667   1.783
71375W        W32741  29.469  11.637  10.912
71376W        W32742  15.633  38.502  11.456
71377W        W32743  43.400  15.275  11.027
71378W        W32744   2.313  35.009   5.110
71379W        W32745  31.027  37.037   4.213
71380W        W32746  31.576  37.568  10.426
71381W        W32747  16.157  31.137   3.810
71382W        W32748  42.799   7.857  11.955
71383W        W32749   8.717   7.778  10.486
71384W        W32750  39.864  41.383   4.353
71385W        W32751  15.315  32.945  14.298
71386W        W32752  15.083  25.596   0.796
71387W        W32753  30.658  40.860   0.747
71388W        W32754  42.402   1.840   0.415
71389W        W32755  28.645  42.014   4.120
71390W        W32756  41.012  38.037   4.136
71391W        W32757  30.532  41.413   3.827
71392W        W32758   3.456  19.715  10.589
71393W        W32759  16.121  17.166  11.067
71394W        W32760  40.851   9.187   1.275
71395W        W32761  36.465  30.096   1.737
71396W        W32762  38.940   1.366   1.764
71397W        W32763  37.864  24.606  11.880
71398W        W32764  17.134  40.374  11.067
71399W        W32765  38.932  16.136  14.445
71400W        W32766  35.022  40.357   2.803
71401W        W32767  37.871   3.832   4.694
71402W        W32768  42.500  15.581  14.453
71403W        W32769  15.207  23.191  12.959
71404W        W32770  38.010  23.637  12.452
71405W        W32771   2.757  42.406   3.664
71406W        W32772  11.857  13.679   4.127
71407W        W32773  33.617   7.388  14.965
71408W        W32774  35.595  36.381  11.048
71409W        W32775  21.040  44.456   0.382
71410W        W32776  41.379  37.948   0.312
71411W        W32777  16.709  33.503   1.269
71412W        W32778  23.021  18.113  14.454
71413W        W32779   2.227   5.333   5.781
71414W        W32780  17.672   4.296   0.942
71415W        W32781   4.267  21.126   4.689
71416W        W32782  39.541  16.797   0.935
71417W        W32783  10.314   3.891   1.234
71418W        W32784  41.529  30.513  13.398
71419W        W32785  16.699  35.563   4.813
71420W        W32786  29.140  21.206  14.814
71421W        W32787   2.829  14.814  10.954
71422W        W32788  41.331   9.835   4.247
71423W        W32789  14.222  14.830   1.818
71424W        W32790  29.590  32.890  13.525
71425W        W32791  28.518   2.358   4.160
71426W        W32792  30.596  20.757   3.772
71427W        W32793  35.910  40.952  12.945
71428W        W32794   8.345  41.917  13.985
71429W        W32795  27.009  28.114   2.237
71430W        W32796  17.197  24.622   0.453
71431W        W32797  27.550  32.117  13.492
71432W        W32798  25.983  39.502  11.559
71433W        W32799  44.347   6.867  11.455
71434W        W32800  38.438   7.830   2.250
71435W        W32801  44.302  26.181   0.904
71436W        W32802  20.755  34.034   2.792
71437W        W32803   3.714  32.138   2.354
71438W        W32804  24.508  38.470   0.775
71439W        W32805  33.408  36.546   3.781
71440W        W32806  21.681  13.813   0.849
71441W        W32807   6.287  17.158   1.806
71442W        W32808  28.140  35.856   1.391
71443W        W32809  15.219  17.745  11.121
71444W        W32810  21.705  31.567   0.730
71445W        W32811  15.211  42.360  13.533
71446W        W32812   2.437  30.483  12.072
71447W        W32813  35.985  39.902   2.889
71448W        W32814  21.138  43.899   0.469
71449W        W32815  44.992  27.097  12.453
71450W        W32816   2.738  35.388   1.774
71451W        W32817  19.661  34.374   5.741
71452W        W32818  21.708   8.807   3.250
71453W        W32819  18.604   9.181   2.878
71454W        W32820  23.212   0.929   3.374
71455W        W32821  42.405  12.736  10.995
71456W        W32822  23.643  42.413  12.980
71457W        W32823  13.666   2.739   2.416
71458W        W32824  27.989  21.686   4.734
71459W        W32825   0.790  21.064  12.855
71460W        W32826   4.333  35.462  10.613
71461W        W32827  15.162  38.522  14.997
71462W        W32828  20.149  18.791  12.920
71463W        W32829  14.095  15.588  13.842
71464W        W32830   7.232   7.850  12.877
71465W        W32831   0.444   5.723   2.809
71466W        W32832   4.316  17.691   2.893
71467W        W32833  19.731  21.201  14.840
71468W        W32834  13.604  17.638   1.872
71469W        W32835  27.149  24.491  14.443
71470W        W32836  34.120   9.844  13.467
71471W        W32837  17.783  37.012   0.466
71472W        W32838  31.543   7.764  11.427
71473W        W32839   3.243  29.038   1.698
71474W        W32840  35.096  23.999   0.924
71475W        W32841  41.901  32.429  12.402
71476W        W32842  37.056  25.081  14.514
71477W        W32843  16.726  38.914  11.407
71478W        W32844  13.662  14.590  11.059
71479W        W32845  36.564  14.719  11.062
71480W        W32846   0.786   1.304  12.392
71481W        W32847   5.236  39.457   0.904
71482W        W32848  17.113  10.261  14.990
71483W        W32849  25.688  29.936   2.854
71484W        W32850  22.132  15.163  11.996
71485W        W32851  38.069  22.235   2.418
71486W        W32852  25.129  30.416   4.278
71487W        W32853  22.042  40.997   3.269
71488W        W32854   9.377  44.377   3.736
71489W        W32855  42.831  44.993  10.906
71490W        W32856  42.974  31.918  12.830
71491W        W32857  22.168  36.057  14.989
71492W        W32858  19.581  35.482   2.341
71493W        W32859  17.189   3.429  14.429
71494W        W32860  30.114   0.915   1.768
71495W        W32861  41.916   9.860   3.168
71496W        W32862  30.933  18.545   4.185
71497W        W32863  43.513   6.700   0.806
71498W        W32864  10.863  19.734   0.909
71499W        W32865  34.018  26.695  10.553
71500W        W32866  13.708   5.782  12.555
71501W        W32867  20.242  37.555   1.310
71502W        W32868  22.675  36.434  10.494
71503W        W32869  17.708  17.675   3.705
71504W        W32870  14.212  39.932   0.916
71505W        W32871  28.623  32.900  14.456
71506W        W32872  18.166   4.865   4.668
71507W        W32873  41.913  25.556  12.841
71508W        W32874  37.579  18.190   1.343
71509W        W32875   2.341  39.554   4.349
71510W        W32876  40.981  44.934  12.044
71511W        W32877  28.971   9.742  13.518
71512W        W32878  28.048  39.534   0.769
71513W        W32879  25.057  11.681   2.688
71514W        W32880  21.167   6.224   2.816
71515W        W32881   8.378  36.004   0.878
71516W        W32882  33.586  22.208   4.752
71517W        W32883  11.203  28.618  13.845
71518W        W32884  33.381  20.545  12.368
71519W        W32885  17.103   2.731   2.703
71520W        W32886  24.650  42.431   1.725
71521W        W32887  15.787  32.139   4.612
71522W        W32888  38.487  28.033   1.296
71523W        W32889  40.003  29.602   4.837
71524W        W32890  33.962  19.679   2.376
71525W        W32891  41.821   0.261  12.340
71526W        W32892  37.524  25.710  14.382
71527W        W32893  40.473  13.647   4.624
71528W        W32894  28.097  29.630   0.417
71529W        W32895  11.742  11.343   1.281
71530W        W32896  30.499   1.292  14.458
71531W        W32897  27.091  27.112  14.311
71532W        W32898  30.508  15.755  13.452
71533W        W32899  39.433  10.770  12.512
71534W        W32900   4.427   6.724   0.291
71535W        W32901  39.432  36.843  14.892
71536W        W32902  21.212  23.671  12.916
71537W        W32903  31.058  25.184   2.762
71538W        W32904  39.489  37.860   3.759
71539W        W32905  43.355  42.892  14.847
71540W        W32906  37.511  21.608   4.746
71541W        W32907  11.250  24.705  12.424
71542W        W32908   5.213  10.716   4.798
71543W        W32909  23.661   2.748   4.343
71544W        W32910  27.140   4.722   4.693
71545W        W32911   1.835  43.276   2.743
71546W        W32912  16.217  11.360   1.923
71547W        W32913  11.631  30.560  14.974
71548W        W32914  25.963  30.939   0.880
71549W        W32915  32.043  36.077   2.784
71550W        W32916   8.199  24.591   2.700
71551W        W32917   2.464  26.972   0.276
71552W        W32918  39.975  38.965  11.899
71553W        W32919   6.914  14.289  14.363
71554W        W32920  38.841   2.398  15.000
71555W        W32921  41.423  17.126   4.230
71556W        W32922  41.345  30.531   4.204
71557W        W32923  24.514  13.179  14.410
71558W        W32924   2.325  20.126  11.411
71559W        W32925   0.934  14.305  11.476
71560W        W32926   0.987   6.829  14.490
71561W        W32927  20.193  35.098   9.508
71562W        W32928  34.390  22.149  14.399
71563W        W32929  11.769  17.752   4.674
71564W        W32930  35.922  16.205  13.832
71565W        W32931  29.024  16.299   0.332
71566W        W32932  41.021  44.280   4.753
71567W        W32933  37.466  32.009   1.737
71568W        W32934   6.391  22.744   3.814
71569W        W32935  16.708  42.855  14.461
71570W        W32936  27.977   8.864  12.466
71571W        W32937   9.165  25.206  12.004
71572W        W32938  43.426  11.821  10.517
71573W        W32939  14.207  34.061  14.796
71574W        W32940  10.695  17.795   1.739
71575W        W32941  32.420  13.270  14.861
71576W        W32942  17.723  16.622  10.505
71577W        W32943  24.134   8.774  13.381
71578W        W32944   7.725  38.500  11.020
71579W        W32945  20.730   1.977   0.451
71580W        W32946  43.306  28.583  12.929
71581W        W32947  28.079   3.792  14.432
71582W        W32948  14.130   9.156  14.801
71583W        W32949  14.598  36.895   3.173
71584W        W32950  24.500  35.522  12.376
71585W        W32951  11.269  18.086  11.466
71586W        W32952   0.778   1.920  13.795
71587W        W32953  19.150   9.191  14.777
71588W        W32954  32.990   8.763   3.321
71589W        W32955  37.363   2.320   0.301
71590W        W32956  37.378  25.625   0.823
71591W        W32957  28.059  30.063   0.961
71592W        W32958  33.902  28.493   2.252
71593W        W32959  16.629  16.124   2.752
71594W        W32960  13.232  33.118  13.372
71595W        W32961  17.556  21.175   5.183
71596W        W32962  44.339  21.133   0.764
71597W        W32963  35.867  31.038   4.331
71598W        W32964  41.010  35.469  13.021
71599W        W32965   8.892  16.261   2.898
71600W        W32966   1.937  12.340   3.731
71601W        W32967   6.391   0.872  14.768
71602W        W32968  23.012  43.937  12.994
71603W        W32969  38.001  30.580   4.682
71604W        W32970  16.775  42.017  12.949
71605W        W32971  31.544  33.016  14.277
71606W        W32972  32.887  30.550   0.780
71607W        W32973  20.604  33.105   2.283
71608W        W32974  26.075  15.701  11.040
71609W        W32975   4.259  42.391   4.338
71610W        W32976  30.962  33.987   1.792
71611W        W32977  16.656  35.571  13.392
71612W        W32978  33.594  18.267  14.831
71613W        W32979  27.946  43.906   2.406
71614W        W32980  33.420   6.286   4.715
71615W        W32981   1.942   3.921  14.889
71616W        W32982  44.831   9.871   3.382
71617W        W32983  35.909  38.976  12.459
71618W        W32984  39.507  26.508  11.088
71619W        W32985  38.033   9.828   4.238
71620W        W32986  19.091  23.102   3.666
71621W        W32987  14.167  29.433   4.687
71622W        W32988  44.346   3.829  13.528
71623W        W32989  13.275  35.856  10.033
71624W        W32990  36.873   8.384   2.407
71625W        W32991   7.871   5.309   0.854
71626W        W32992  11.363  19.561  14.813
71627W        W32993  35.945  11.722   2.398
71628W        W32994  30.106  19.561  11.445
71629W        W32995  34.067  16.156   2.272
71630W        W32996  24.573  24.211   3.246
71631W        W32997   6.760  42.468  11.881
71632W        W32998  24.527   2.243  12.058
71633W        W32999  38.839  23.612  14.992
71634W        W33000  38.854  38.547   2.737
71635W        W33001  38.487  35.421   3.661
71636W        W33002  14.747   6.413  11.121
71637W        W33003   9.206  14.276   1.928
71638W        W33004  17.559   9.868  10.946
71639W        W33005  43.390  42.360  12.997
71640W        W33006  23.717  11.211  12.563
71641W        W33007  38.977  18.782  11.470
71642W        W33008  15.307   8.854   4.766
71643W        W33009   1.255  14.828  12.054
71644W        W33010  20.203  25.514   4.782
71645W        W33011  38.462  10.187   3.680
71646W        W33012  28.628  27.169   4.295
71647W        W33013  39.015  32.549   4.338
71648W        W33014  19.554  17.235  14.489
71649W        W33015  20.173   3.914   0.817
71650W        W33016  42.811  30.052  13.369
71651W        W33017  22.196  36.960   4.669
71652W        W33018  34.558  28.446  13.888
71653W        W33019   1.426  15.588  13.065
71654W        W33020  18.233  24.115  14.860
71655W        W33021  12.761  12.775   3.854
71656W        W33022   5.823  14.614   2.684
71657W        W33023  28.470  13.283  11.906
71658W        W33024  14.650  38.001  13.985
71659W        W33025  20.537  27.945  13.832
71660W        W33026  33.898  39.393  11.486
71661W        W33027  22.726  39.455  10.111
71662W        W33028  41.873  43.358  13.949
71663W        W33029  41.983  10.190  13.540
71664W        W33030  16.601  23.990   3.302
71665W        W33031  40.939  40.439   3.312
71666W        W33032  41.462  37.933   0.925
71667W        W33033  15.183  27.026  11.094
71668W        W33034  16.684  38.492  13.797
71669W        W33035  22.681  41.934   0.919
71670W        W33036  17.657  43.855   0.826
71671W        W33037  15.619  17.251   2.267
71672W        W33038  21.124  16.690   5.303
71673W        W33039  23.569  41.879  13.046
71674W        W33040  18.294  19.045  11.024
71675W        W33041  36.486   7.325  13.891
71676W        W33042  31.545  18.684  10.934
71677W        W33043  36.352  15.091   2.399
71678W        W33044   7.767  40.540   3.670
71679W        W33045  10.292   1.454  13.525
71680W        W33046  18.088  31.619   4.791
71681W        W33047  38.541  27.980   3.633
71682W        W33048  14.750  24.982  12.450
71683W        W33049  41.327   8.374   1.733
71684W        W33050  27.012  39.314  13.057
71685W        W33051  24.105   3.396   5.785
71686W        W33052  40.436  40.536   2.838
71687W        W33053  13.623  25.163   0.730
71688W        W33054   1.756   2.357  10.633
71689W        W33055  27.940  21.645  14.796
71690W        W33056  18.111   6.267   4.809
71691W        W33057  19.248  35.369   3.812
71692W        W33058   1.441  29.158  12.091
71693W        W33059  10.772  26.039   0.290
71694W        W33060  29.425  11.224  13.381
71695W        W33061  29.613  13.160  11.988
71696W        W33062  34.369  41.365  11.512
71697W        W33063  25.064  21.755  12.851
71698W        W33064   7.857  41.912   4.129
71699W        W33065  27.586  38.505  11.123
71700W        W33066  22.242   8.768  13.373
71701W        W33067  34.391   3.955   3.218
71702W        W33068  43.835  13.229   3.848
71703W        W33069  21.754  21.076  10.132
71704W        W33070  25.196  18.088  11.114
71705W        W33071   8.886  24.204   4.801
71706W        W33072  43.969  21.047   1.321
71707W        W33073  39.880  14.105   3.739
71708W        W33074  26.078  32.108  13.836
71709W        W33075  26.594  39.450  11.535
71710W        W33076   4.778  43.387   3.697
71711W        W33077  10.849  40.813  12.058
71712W        W33078  21.023  33.505   9.545
71713W        W33079  41.915   6.197   3.791
71714W        W33080  28.625  30.932  12.340
71715W        W33081   7.766  24.079   2.798
71716W        W33082  29.055  25.624   1.789
71717W        W33083  13.294  40.993   4.700
71718W        W33084  31.532   9.329  10.415
71719W        W33085  29.101  14.249  14.030
71720W        W33086  27.198  30.966  13.048
71721W        W33087  17.577  29.482  10.918
71722W        W33088  18.268  43.830   3.325
71723W        W33089  32.586  17.753   1.270
71724W        W33090  12.794  27.691  11.045
71725W        W33091  29.968  23.217  10.465
71726W        W33092  26.179   4.860  13.981
71727W        W33093  36.498   3.277  11.101
71728W        W33094  27.589  21.257  14.026
71729W        W33095  35.937  33.123   3.161
71730W        W33096   4.301  30.632  13.959
71731W        W33097  15.261  41.877   4.613
71732W        W33098   7.697  31.979  13.936
71733W        W33099  12.362  41.877   0.906
71734W        W33100  30.027  21.678   1.298
71735W        W33101  35.881   5.348   3.744
71736W        W33102  16.711  11.304  13.878
71737W        W33103  13.271  12.269  11.954
71738W        W33104  32.425   5.354   4.150
71739W        W33105  19.590  33.000   4.785
71740W        W33106  35.108  22.608  11.911
71741W        W33107  10.654  18.193   3.686
71742W        W33108  26.955  34.114   4.692
71743W        W33109   3.369  22.679   5.138
71744W        W33110  17.078   7.384   2.819
71745W        W33111  28.937  25.133  14.478
71746W        W33112  21.172   2.367  12.567
71747W        W33113  27.613  10.830   3.222
71748W        W33114  29.506  39.414   4.219
71749W        W33115  42.839  40.332  12.023
71750W        W33116   9.162  30.048   1.881
71751W        W33117  32.400  36.956  14.405
71752W        W33118  35.491  13.659   4.746
71753W        W33119   2.347  40.956   2.253
71754W        W33120  41.497  44.355  10.507
71755W        W33121   6.800   9.854   1.873
71756W        W33122   1.909  31.074   3.197
71757W        W33123  32.441   8.254  10.910
71758W        W33124  39.551  22.705   2.870
71759W        W33125  32.138  32.496   2.804
71760W        W33126  38.930  21.204  13.482
71761W        W33127  19.623  30.534   3.855
71762W        W33128  12.705   9.787   2.752
71763W        W33129  41.292  29.994   4.162
71764W        W33130   7.691  24.626   4.204
71765W        W33131  11.635  34.939   3.657
71766W        W33132   7.356  13.602  11.118
71767W        W33133  33.078   8.366   0.854
71768W        W33134  29.013  17.699   0.298
71769W        W33135  30.038  19.533  14.971
71770W        W33136  26.619  24.019   3.148
71771W        W33137   2.756  37.424  14.944
71772W        W33138  27.664  32.098  12.522
71773W        W33139  42.507  38.072  10.457
71774W        W33140   7.360   8.737   1.891
71775W        W33141  27.946  40.510   0.430
71776W        W33142  24.528  32.116   2.409
71777W        W33143   2.880   8.197   1.358
71778W        W33144  11.622  23.150   4.713
71779W        W33145  17.285   0.462  10.425
71780W        W33146   2.959  40.307  12.931
71781W        W33147  13.253   9.764  10.618
71782W        W33148   0.316  41.989   3.327
71783W        W33149  35.964  13.308  12.918
71784W        W33150   8.890  30.618   4.282
71785W        W33151  26.605  30.025   5.289
71786W        W33152   5.217  24.577  11.946
71787W        W33153  36.991   1.922  11.042
71788W        W33154  24.188  42.022   3.724
71789W        W33155  17.220  18.628  12.475
71790W        W33156  43.470   6.256  10.465
71791W        W33157  32.020  36.968  13.942
71792W        W33158  13.248  17.729   1.880
71793W        W33159   5.771  36.086  14.321
71794W        W33160  34.529  41.530  10.450
71795W        W33161  31.620  12.770  10.543
71796W        W33162  28.664  14.625  12.035
71797W        W33163  21.234   6.242  11.487
71798W        W33164  30.644   2.937   4.691
71799W        W33165  18.246  10.377  10.507
71800W        W33166  35.527  13.695  13.545
71801W        W33167   5.932  41.388  11.114
71802W        W33168  38.514  40.437  11.927
71803W        W33169  17.198  27.188  13.914
71804W        W33170  44.351  32.086   2.368
71805W        W33171  37.076  19.273  14.408
71806W        W33172  40.548  40.014   1.734
71807W        W33173  24.620  33.489  11.979
71808W        W33174  18.122  14.681   0.809
71809W        W33175   9.293  24.498   1.417
71810W        W33176   5.784  39.906  10.622
71811W        W33177  34.532  17.115  12.029
71812W        W33178   5.710  42.914  14.375
71813W        W33179  35.994  11.241  12.445
71814W        W33180  12.341  36.498   4.292
71815W        W33181  13.294  28.436  14.293
71816W        W33182  30.907   1.373  14.306
71817W        W33183  41.871  22.183  14.936
71818W        W33184   0.973  34.533   4.696
71819W        W33185  33.386  42.815  14.484
71820W        W33186  16.142  31.492   0.252
71821W        W33187  38.454  43.291  12.546
71822W        W33188  38.928  41.956  11.975
71823W        W33189  40.863  32.917   1.390
71824W        W33190  29.046  16.689   2.871
71825W        W33191  34.552  42.010  13.948
71826W        W33192  28.092   6.809  14.431
71827W        W33193  39.944  23.229   3.724
71828W        W33194  44.002  29.010  11.484
71829W        W33195  37.867  33.509  10.920
71830W        W33196  35.359  31.093   4.151
71831W        W33197  33.528   1.357  13.009
71832W        W33198  31.540  44.339   1.774
71833W        W33199   9.705  29.518   0.355
71834W        W33200  22.076  16.119  13.312
71835W        W33201  36.979  43.871  13.395
71836W        W33202  19.219  28.125  11.428
71837W        W33203  27.501   2.309  10.603
71838W        W33204   5.295  16.112  13.892
71839W        W33205   0.428  37.544   1.770
71840W        W33206   8.397  36.474  10.468
71841W        W33207  15.671   3.927   0.798
71842W        W33208  11.362  25.681  13.798
71843W        W33209  41.906  36.895  11.512
71844W        W33210  20.216  23.236   1.893
71845W        W33211  23.511  39.518   0.381
71846W        W33212   7.784   3.461   2.790
71847W        W33213  37.414  27.000   3.819
71848W        W33214   3.397  19.583  14.312
71849W        W33215  15.273   9.281   1.294
71850W        W33216  20.627  36.455  14.407
71851W        W33217   4.310  27.659   4.771
71852W        W33218   7.343   1.332  12.580
71853W        W33219  36.851  27.561  11.928
71854W        W33220   9.352  17.649   3.798
71855W        W33221   8.678  37.532   9.924
71856W        W33222  23.112  35.927  12.924
71857W        W33223  26.522  13.783  12.908
71858W        W33224  17.139  28.120  11.116
71859W        W33225   4.857  31.558   4.683
71860W        W33226  18.570   7.335  14.478
71861W        W33227  10.719  29.593  14.340
71862W        W33228  12.731  19.740   2.342
71863W        W33229   2.957  38.385  14.792
71864W        W33230  36.848  17.061  10.540
71865W        W33231  42.957  42.843   5.093
71866W        W33232   7.816  35.452   4.739
71867W        W33233  42.014  30.930  14.357
71868W        W33234  20.711  40.459  12.045
71869W        W33235   1.382   3.929  10.988
71870W        W33236  22.561   7.809  10.521
71871W        W33237  19.577  11.258   1.401
71872W        W33238  27.554   5.261   2.236
71873W        W33239  11.796  27.556   1.403
71874W        W33240  27.055   6.804  12.871
71875W        W33241   2.468  41.346   3.380
71876W        W33242  33.938  19.164   9.955
71877W        W33243  38.845   5.375   1.329
71878W        W33244  22.624   2.746   0.437
71879W        W33245  25.106   6.196  13.502
71880W        W33246  39.494   8.209  14.460
71881W        W33247  37.047  27.047   3.830
71882W        W33248  16.722  10.772  12.968
71883W        W33249  17.162  18.073  13.362
71884W        W33250  29.131  42.986  10.992
71885W        W33251  34.915  11.143   3.275
71886W        W33252   8.864  10.684  10.437
71887W        W33253  24.166  18.244  11.095
71888W        W33254  42.326  42.487   1.293
71889W        W33255  22.248   3.258   3.215
71890W        W33256  27.141  37.934  13.045
71891W        W33257  29.048   0.409  14.495
71892W        W33258  43.369   3.817  12.990
71893W        W33259  35.369  30.502  14.914
71894W        W33260   3.811  17.210   1.879
71895W        W33261  41.799   7.324  14.287
71896W        W33262  27.547  12.238   3.368
71897W        W33263   2.389  34.600   3.771
71898W        W33264  21.758  20.562   2.325
71899W        W33265  32.558   9.650  11.123
71900W        W33266  24.229  32.559   3.228
71901W        W33267  10.301  44.930   1.880
71902W        W33268  28.516  21.064   0.277
71903W        W33269   5.855  21.526  11.544
71904W        W33270  27.481  30.144   1.349
71905W        W33271   6.419  16.107  10.047
71906W        W33272  17.261   7.784  11.085
71907W        W33273  37.430  43.377   5.253
71908W        W33274  37.532  33.007  14.512
71909W        W33275   4.256  31.940  13.430
71910W        W33276  24.095   2.736   4.140
71911W        W33277   1.410  28.154   1.698
71912W        W33278   5.379   2.392   5.194
71913W        W33279  16.269  16.810   5.144
71914W        W33280  36.088   9.653   0.255
71915W        W33281  19.047  43.799   0.844
71916W        W33282  35.560  32.915  13.811
71917W        W33283   9.875   5.261   3.386
71918W        W33284  42.451  30.939  11.575
71919W        W33285  24.121  30.557  10.629
71920W        W33286   3.796  14.778  12.039
71921W        W33287   2.306   7.315   2.183
71922W        W33288   1.302  15.089  12.522
71923W        W33289  22.642  37.343   3.817
71924W        W33290   6.835  32.990   2.770
71925W        W33291  20.131  35.472   0.872
71926W        W33292  20.575  32.398   2.744
71927W        W33293  11.167   3.949  14.447
71928W        W33294   8.713  42.360   3.157
71929W        W33295   9.285   2.754  13.889
71930W        W33296  26.488  21.577  14.030
71931W        W33297  19.246  18.641   3.290
71932W        W33298   7.177  30.938   4.135
71933W        W33299  20.739   8.812  11.896
71934W        W33300  39.842  40.322   1.392
71935W        W33301  10.642  31.467  12.555
71936W        W33302  22.568  19.258   1.426
71937W        W33303  36.949  19.056  14.978
71938W        W33304  15.786   7.688  10.578
71939W        W33305   6.261  44.995  12.846
71940W        W33306  20.145  28.512   0.248
71941W        W33307  40.951   2.908   2.835
71942W        W33308  34.517   9.387   4.262
71943W        W33309  15.617   2.406   0.937
71944W        W33310   4.819  27.546  13.920
71945W        W33311  34.462   8.178  14.784
71946W        W33312  19.132  36.045   0.863
71947W        W33313  22.510   5.711  13.438
71948W        W33314  20.674  18.734  10.897
71949W        W33315   9.386   1.851  11.964
71950W        W33316  31.957   3.414  11.075
71951W        W33317  24.571   6.293   0.350
71952W        W33318  24.022  10.660   0.248
71953W        W33319  31.498  40.497  14.904
71954W        W33320  23.218  28.667   1.218
71955W        W33321  43.501  27.195   1.931
71956W        W33322  28.180  20.162   2.824
71957W        W33323  25.184   3.946   3.158
71958W        W33324  28.530  17.207  13.448
71959W        W33325  21.048   7.183   4.320
71960W        W33326  36.041  39.525  10.567
71961W        W33327  18.139  10.861  13.362
71962W        W33328  15.284  28.069  11.455
71963W        W33329  40.843  14.820  13.811
71964W        W33330  17.570  36.991   2.673
71965W        W33331   9.331  34.100   3.380
71966W        W33332  28.445   2.453   1.365
71967W        W33333   4.919  10.825   2.785
71968W        W33334  43.958  28.669   1.758
71969W        W33335   9.350   0.766  13.510
71970W        W33336  12.355  32.577  10.061
71971W        W33337  32.961  32.983   4.780
71972W        W33338  20.177  15.266  14.967
71973W        W33339   8.206   7.836   3.168
71974W        W33340  36.489  34.954   0.894
71975W        W33341  29.114  22.106   1.241
71976W        W33342   7.368  37.504   4.766
71977W        W33343  22.076   0.760   0.773
71978W        W33344  18.166  15.738  14.501
71979W        W33345  27.941  14.677   3.727
71980W        W33346  26.997   4.719   2.390
71981W        W33347   2.389   3.232   4.316
71982W        W33348  35.486  22.597  11.411
71983W        W33349  33.385  24.133  12.900
71984W        W33350   7.743  20.253   4.258
71985W        W33351  28.512  19.615   4.795
71986W        W33352  28.638  32.112  13.801
71987W        W33353   3.343   3.781   1.324
71988W        W33354   2.876  36.857   3.303
71989W        W33355  15.690   5.430   2.672
71990W        W33356   7.770  18.549   0.930
71991W        W33357   0.924  12.343  14.398
71992W        W33358  18.557   8.691   0.392
71993W        W33359   3.747  22.995   0.333
71994W        W33360  18.681  28.543   2.399
71995W        W33361  14.741   3.379   4.332
71996W        W33362  21.189  19.276   1.377
71997W        W33363  20.216  13.294  12.929
71998W        W33364  11.766  42.930   2.677
71999W        W33365  14.688  18.165  12.060
72000W        W33366   3.403  44.270   4.725
72001W        W33367  16.317  12.162   5.639
72002W        W33368  43.452  22.134  11.507
72003W        W33369  30.528  18.194  13.985
72004W        W33370  35.457  12.320  14.320
72005W        W33371  27.103  26.636   0.479
72006W        W33372  12.730   2.854   2.320
72007W        W33373  39.898  26.624   2.894
72008W        W33374  35.059  36.439   4.699
72009W        W33375  42.462  30.599  12.094
72010W        W33376   0.775  44.914   3.802
72011W        W33377  35.939  17.784   2.274
72012W        W33378  37.363   4.442   9.979
72013W        W33379  33.481  14.103  12.824
72014W        W33380  41.352   5.401  11.121
72015W        W33381  23.068  41.344   2.759
72016W        W33382  18.675  13.269  10.427
72017W        W33383  13.687  19.270   2.744
72018W        W33384  20.214  10.710  13.856
72019W        W33385  18.163  43.466  14.780
72020W        W33386  36.385  39.064   0.293
72021W        W33387  22.732  18.265  13.454
72022W        W33388  28.027  42.864  14.411
72023W        W33389  43.772   9.691   2.308
72024W        W33390  14.325   6.326   5.150
72025W        W33391  14.189  32.404   2.725
72026W        W33392  32.591   3.244  11.540
72027W        W33393  21.260  30.421   1.384
72028W        W33394   4.370   8.826  11.448
72029W        W33395  40.011   5.766  12.092
72030W        W33396  39.891  24.160   3.678
72031W        W33397  35.388  40.350   3.704
72032W        W33398  24.146   2.257   1.729
72033W        W33399  18.764  28.606   4.162
72034W        W33400  33.968  40.040  10.996
72035W        W33401  29.012   6.256   2.810
72036W        W33402  41.501  44.483  12.511
72037W        W33403  33.091   1.774   2.851
72038W        W33404   4.730   7.314  12.481
72039W        W33405  39.454  15.747  10.609
72040W        W33406  16.111  26.009   4.164
72041W        W33407  27.156  23.234  14.422
72042W        W33408  20.158   1.270   2.335
72043W        W33409  15.280  28.575  10.420
72044W        W33410   7.318  17.156  14.004
72045W        W33411  12.758  41.834  13.504
72046W        W33412  31.093  10.227  12.410
72047W        W33413  22.220  40.321  11.593
72048W        W33414  24.598   4.438   1.720
72049W        W33415  27.153  11.846   1.244
72050W        W33416  11.828   4.412  13.490
72051W        W33417  33.433  29.429   4.600
72052W        W33418   5.415  29.556   0.302
72053W        W33419  28.966  14.707  12.920
72054W        W33420  25.177  27.156   1.315
72055W        W33421  27.997  17.258  14.811
72056W        W33422  26.514   8.309  11.958
72057W        W33423   1.736   4.283   0.388
72058W        W33424   3.345  43.963  11.412
72059W        W33425  37.957   5.698   0.925
72060W        W33426  37.918  33.555   3.743
72061W        W33427   5.404  21.183   2.179
72062W        W33428   2.290  31.966  11.490
72063W        W33429  38.037   8.673  12.086
72064W        W33430  34.071  27.045  13.479
72065W        W33431  43.507   7.361  14.314
72066W        W33432  16.086   2.440  11.590
72067W        W33433   4.928   8.255  14.405
72068W        W33434  40.016  29.947   0.394
72069W        W33435  35.539  12.240  11.422
72070W        W33436  40.979  22.210  13.965
72071W        W33437  42.010  30.588  14.358
72072W        W33438  15.641  28.938  10.943
72073W        W33439  24.577  10.157  14.297
72074W        W33440  44.401  39.034   4.123
72075W        W33441  17.623  35.373   0.404
72076W        W33442  20.261  27.589   1.864
72077W        W33443  37.898   0.962   2.745
72078W        W33444   1.854   7.244   0.374
72079W        W33445  28.547   3.335  13.878
72080W        W33446   8.750  35.987   2.392
72081W        W33447  19.758  43.845  10.460
72082W        W33448  14.189  23.631  14.481
72083W        W33449  11.662  33.623   0.328
72084W        W33450  34.589  14.148  14.305
72085W        W33451  10.789  34.099   0.435
72086W        W33452  10.731  42.390  11.041
72087W        W33453  42.421  42.788   1.211
72088W        W33454  12.838  15.712   2.340
72089W        W33455  16.663   8.278  11.578
72090W        W33456  32.429  10.687   0.308
72091W        W33457  10.233  21.657   4.787
72092W        W33458  20.166  11.681  14.894
72093W        W33459  42.819  20.118  12.536
72094W        W33460  18.733  24.480   4.172
72095W        W33461  25.159  35.424   4.256
72096W        W33462  34.457  28.110  12.409
72097W        W33463  14.732  31.623  11.577
72098W        W33464  31.420  22.055   3.259
72099W        W33465  42.508  41.998  13.439
72100W        W33466   6.697  17.629  13.384
72101W        W33467   2.262  13.207  13.497
72102W        W33468  20.669  41.905  14.415
72103W        W33469  26.011   5.431  12.856
72104W        W33470  24.618  44.261   4.168
72105W        W33471   6.897  38.434   2.866
72106W        W33472  21.620  10.832   4.337
72107W        W33473  26.023  16.725   3.658
72108W        W33474  40.837   8.227   3.275
72109W        W33475  19.159  35.922   2.833
72110W        W33476  30.646  12.220   4.233
72111W        W33477  13.268  32.437   2.889
72112W        W33478  40.898  16.741   4.172
72113W        W33479  20.585  22.579  11.868
72114W        W33480  18.275  27.043  12.551
72115W        W33481   8.197   5.842  12.492
72116W        W33482   7.378   7.171   0.284
72117W        W33483  32.398  31.603   0.473
72118W        W33484  32.394  22.082   3.179
72119W        W33485  15.289  39.314   2.670
72120W        W33486  39.402  36.088   2.207
72121W        W33487   9.798  11.127   2.799
72122W        W33488  37.522   3.398  13.384
72123W        W33489  42.496  33.477  12.364
72124W        W33490  37.514  14.811  11.382
72125W        W33491  32.134  44.873  10.421
72126W        W33492  44.497  11.764  12.519
72127W        W33493  32.602  16.692   0.904
72128W        W33494  18.199  36.566  12.019
72129W        W33495  31.937  34.507  12.929
72130W        W33496   2.467  41.951   1.777
72131W        W33497  44.898  44.467   4.248
72132W        W33498   5.243  16.589   2.297
72133W        W33499   1.483  14.590   4.671
72134W        W33500  31.436   0.959  11.426
72135W        W33501  39.546  35.508  12.346
72136W        W33502   1.739  11.669  14.868
72137W        W33503  20.238  11.184   0.283
72138W        W33504  41.405  20.753   4.674
72139W        W33505   3.281  23.037  12.492
72140W        W33506  27.151  30.063   1.819
72141W        W33507  26.658  14.241   4.306
72142W        W33508  19.738  40.866  10.589
72143W        W33509  25.704  31.123  11.096
72144W        W33510  19.688   0.284   4.277
72145W        W33511  15.264  14.645  13.036
72146W        W33512   7.232  34.448  10.888
72147W        W33513   7.365  24.015   3.210
72148W        W33514  32.918  33.423   4.776
72149W        W33515  42.324  34.893  11.097
72150W        W33516  29.631   5.264  11.920
72151W        W33517  32.938  16.160   4.604
72152W        W33518  38.995  15.157   0.938
72153W        W33519  39.856  11.806  14.413
72154W        W33520  34.457  16.128  11.535
72155W        W33521  16.758  29.024  12.863
72156W        W33522   4.901  30.509   9.936
72157W        W33523   8.296  41.345   0.454
72158W        W33524  39.498  26.557   2.314
72159W        W33525  22.635  15.287  12.836
72160W        W33526   7.346  37.038   1.761
72161W        W33527  13.728  39.457   1.843
72162W        W33528  18.150  35.511  10.523
72163W        W33529  21.210  18.222  10.530
72164W        W33530  11.715  36.060   3.666
72165W        W33531  25.534  28.065  13.344
72166W        W33532   4.285  29.646   3.733
72167W        W33533   8.187  27.157  13.468
72168W        W33534   8.202  26.204   4.625
72169W        W33535  16.754  44.263  14.857
72170W        W33536  31.995  39.437  12.436
72171W        W33537   3.834  36.022  11.058
72172W        W33538  30.954   3.728  11.546
72173W        W33539  15.170  38.454  12.996
72174W        W33540  32.897  44.424   0.936
72175W        W33541  32.951  29.482   1.871
72176W        W33542  26.477   3.837   5.779
72177W        W33543  11.648   6.351  10.424
72178W        W33544  42.369   5.212   1.421
72179W        W33545  44.907   9.863  11.021
72180W        W33546   5.735  11.629  13.911
72181W        W33547  14.764  23.058  11.939
72182W        W33548  26.960   0.774  11.405
72183W        W33549  21.262   9.796   0.417
72184W        W33550   8.718  25.468  10.954
72185W        W33551  36.389  13.113  12.404
72186W        W33552   7.362   5.328  11.469
72187W        W33553  43.405  43.344  12.439
72188W        W33554  16.210   8.894   1.253
72189W        W33555  10.209  12.783   0.886
72190W        W33556  24.058  11.798  13.337
72191W        W33557  31.556  40.486  10.477
72192W        W33558  40.391  13.615   2.871
72193W        W33559  15.326  18.696   0.261
72194W        W33560  17.231  17.599  12.359
72195W        W33561  12.686  17.195   0.841
72196W        W33562  34.497  41.415  13.373
72197W        W33563  25.511  11.866  13.055
72198W        W33564  23.190  43.015  10.432
72199W        W33565   6.699  42.416  11.043
72200W        W33566  41.035   7.697   3.632
72201W        W33567  11.651  24.973  11.909
72202W        W33568  25.993  31.581   0.943
72203W        W33569   9.389  39.921   1.758
72204W        W33570  13.629  22.211  12.384
72205W        W33571  10.248   5.305  14.393
72206W        W33572   4.388  38.962  12.049
72207W        W33573  34.957  11.693   0.370
72208W        W33574  40.943  40.880   2.702
72209W        W33575   6.692   9.723   4.156
72210W        W33576  22.117  30.081   1.322
72211W        W33577  36.080   9.253  11.041
72212W        W33578  26.551  28.056   0.867
72213W        W33579  27.673   3.459   5.288
72214W        W33580   0.755  12.669  13.359
72215W        W33581  43.902  11.288   4.205
72216W        W33582  34.571   1.322   0.777
72217W        W33583  21.040  13.263   0.403
72218W        W33584   7.865  26.965   1.267
72219W        W33585  40.486  26.099   4.620
72220W        W33586   1.968  43.298  13.852
72221W        W33587   4.827  11.637  11.566
72222W        W33588  29.954  42.803   3.787
72223W        W33589  23.004  22.045  13.373
72224W        W33590  44.859  26.699  12.875
72225W        W33591  22.571  17.228  14.429
72226W        W33592  38.008  43.895  11.555
72227W        W33593  37.570  43.407  11.093
72228W        W33594  32.919   0.980  12.872
72229W        W33595  21.662  41.040  14.969
72230W        W33596   2.791   6.813   3.186
72231W        W33597  23.184  15.678   3.252
72232W        W33598  16.713   6.866   3.225
72233W        W33599  28.022  17.261   4.739
72234W        W33600  15.119   0.751  13.830
72235W        W33601  36.433   0.337   0.308
72236W        W33602  18.788  38.906  11.114
72237W        W33603  21.234  27.461  13.427
72238W        W33604  26.042  42.412   4.115
72239W        W33605  15.617  25.679  12.978
72240W        W33606  43.316  30.948  11.539
72241W        W33607  24.098  31.953   4.232
72242W        W33608  32.889   7.877  10.412
72243W        W33609  34.888  38.341  13.916
72244W        W33610   0.327  28.006   4.287
72245W        W33611  43.505  28.171  14.318
72246W        W33612  21.666  37.342  14.306
72247W        W33613  15.657  28.025  13.422
72248W        W33614  42.923  31.151   1.290
72249W        W33615  33.480  35.501  14.860
72250W        W33616  32.395   4.363   4.717
72251W        W33617  33.513  44.431  12.380
72252W        W33618   9.861   6.409   4.343
72253W        W33619  21.615  16.641   3.375
72254W        W33620  16.669   6.230  11.101
72255W        W33621   9.836  32.399  11.535
72256W        W33622  34.429  29.976  11.865
72257W        W33623  21.516  19.247   3.760
72258W        W33624  38.442  19.711   3.318
72259W        W33625  32.956  43.318   4.158
72260W        W33626   4.330  16.149  13.888
72261W        W33627   0.285  22.159   3.793
72262W        W33628   8.696  43.989  11.009
72263W        W33629   2.248  13.729  13.938
72264W        W33630  22.031  33.979  14.814
72265W        W33631  26.133   6.363  14.451
72266W        W33632   5.853  38.452   1.826
72267W        W33633   1.362   4.380  10.452
72268W        W33634   9.742   2.374  10.539
72269W        W33635  12.330  35.918   3.676
72270W        W33636  35.559   8.315   3.847
72271W        W33637  36.074  35.395  10.940
72272W        W33638  15.676  14.300   3.657
72273W        W33639  12.359  22.644  12.386
72274W        W33640   1.295  24.544  13.863
72275W        W33641   3.899  35.891   0.880
72276W        W33642  36.532   2.769  12.405
72277W        W33643  23.647  24.144   4.744
72278W        W33644  22.097  21.091   3.282
72279W        W33645  39.537  13.737  13.321
72280W        W33646  19.100  42.858   0.257
72281W        W33647  20.747  40.021  11.094
72282W        W33648  15.730  37.382   5.175
72283W        W33649   5.256  20.207  10.624
72284W        W33650  35.907  12.702  11.418
72285W        W33651  18.723  40.430   4.811
72286W        W33652  11.851   2.374   1.281
72287W        W33653  18.119  39.021  10.524
72288W        W33654   3.721  14.277  11.979
72289W        W33655  26.100   8.240  11.071
72290W        W33656   3.935  23.524  10.996
72291W        W33657  29.067  23.500   0.411
72292W        W33658   5.217  14.248   4.332
72293W        W33659  28.129  26.620  14.016
72294W        W33660   4.287   9.734   0.944
72295W        W33661  34.504   1.938  11.553
72296W        W33662  26.041   2.728  13.021
72297W        W33663   6.416  35.088  10.015
72298W        W33664  20.268  35.371  12.047
72299W        W33665  12.797  21.199  14.786
72300W        W33666  26.036   7.299   2.721
72301W        W33667  21.554  38.424   5.185
72302W        W33668  18.575   1.444   4.815
72303W        W33669  17.619  17.133  14.031
72304W        W33670  26.046  34.894   1.337
72305W        W33671  27.004  43.848   0.879
72306W        W33672  25.701  32.930  12.519
72307W        W33673  22.195   9.748   2.388
72308W        W33674  13.318   0.341  14.412
72309W        W33675   8.288  23.720  14.966
72310W        W33676  14.147  43.277   4.609
72311W        W33677  16.569  11.778   0.346
72312W        W33678  36.531   4.270   0.481
72313W        W33679  25.138  26.650   2.323
72314W        W33680  40.800  36.991   2.352
72315W        W33681  25.029  42.921  10.073
72316W        W33682  20.673  23.586  11.991
72317W        W33683  38.509   5.243  12.348
72318W        W33684  39.333  11.651  12.467
72319W        W33685  23.726  40.848  13.395
72320W        W33686  23.706  44.965  13.458
72321W        W33687  23.109  24.692   0.778
72322W        W33688  16.188  15.216  11.002
72323W        W33689  31.500  10.156  10.941
72324W        W33690  31.959  28.054   1.232
72325W        W33691  31.902  35.464  11.448
72326W        W33692  32.420  32.128   3.291
72327W        W33693  18.134  29.476  10.501
72328W        W33694   3.844  44.317   0.759
72329W        W33695   9.207  15.677   2.204
72330W        W33696  20.588  22.175  12.501
72331W        W33697   4.746  14.665  12.059
72332W        W33698  29.022  35.872  11.907
72333W        W33699  23.644  31.017  11.090
72334W        W33700   6.399   4.287   2.419
72335W        W33701  28.526  19.148   3.260
72336W        W33702  19.702  21.208   4.731
72337W        W33703  14.705  36.088  10.929
72338W        W33704  35.482  15.645   1.373
72339W        W33705  23.580   9.162   1.767
72340W        W33706  34.895  32.133   5.161
72341W        W33707  35.040  39.485  11.903
72342W        W33708  37.932  26.066  12.434
72343W        W33709   7.264  37.966  10.599
72344W        W33710   5.322  34.419   0.834
72345W        W33711  28.453  16.105  14.934
72346W        W33712  41.351  32.511  12.464
72347W        W33713  16.126  28.128  11.052
72348W        W33714  10.287  18.599   4.727
72349W        W33715  15.088  40.860  11.937
72350W        W33716   4.805   2.818   5.647
72351W        W33717   8.771  33.614   5.288
72352W        W33718   8.400   8.331   2.714
72353W        W33719  23.116  20.208  10.513
72354W        W33720  36.040   9.838  11.490
72355W        W33721   3.441  16.673   4.825
72356W        W33722  44.880   6.698   3.345
72357W        W33723   5.734  32.635   2.337
72358W        W33724  21.090  10.182  11.920
72359W        W33725  34.867  25.539  14.854
72360W        W33726  15.716  25.980  11.048
72361W        W33727  42.976  17.589   0.332
72362W        W33728  15.233   3.248   3.154
72363W        W33729   5.416  16.109   3.167
72364W        W33730  21.093  14.795   2.803
72365W        W33731  14.289  40.309   0.777
72366W        W33732   1.361  44.979   0.309
72367W        W33733   3.262   1.323  11.866
72368W        W33734   2.794  31.477  14.829
72369W        W33735  22.657  20.546  12.506
72370W        W33736  23.029   9.715  13.805
72371W        W33737   5.798  23.633  11.061
72372W        W33738  42.459  22.059  12.565
72373W        W33739  24.203  36.365  12.961
72374W        W33740   1.298  38.334   4.669
72375W        W33741  30.580  33.088   3.848
72376W        W33742  10.235  44.345  14.457
72377W        W33743   3.252   6.313  13.445
72378W        W33744  11.288   4.716  13.400
72379W        W33745  33.555  18.095  13.051
72380W        W33746  38.433   7.305  11.935
72381W        W33747  39.467  29.648   0.961
72382W        W33748  24.173   2.957   5.769
72383W        W33749  31.111  18.223  11.581
72384W        W33750   0.742  10.214   0.384
72385W        W33751  42.415  20.105   0.375
72386W        W33752   9.832  38.005   4.774
72387W        W33753  30.021  21.536  10.453
72388W        W33754  18.282  33.443   0.864
72389W        W33755  35.880  15.683   0.786
72390W        W33756   2.930  12.730  13.793
72391W        W33757  18.583   3.915  11.490
72392W        W33758  27.493  17.750   4.761
72393W        W33759   0.312  18.558   4.685
72394W        W33760  34.909  14.675  14.908
72395W        W33761  33.508  39.381   2.816
72396W        W33762  33.605  38.938  10.944
72397W        W33763  43.297  44.380   2.246
72398W        W33764  10.191  39.424  13.030
72399W        W33765  14.675  27.078   2.702
72400W        W33766  17.685  24.005   0.379
72401W        W33767  20.270   9.805   1.846
72402W        W33768  26.086   6.338   2.893
72403W        W33769  32.010  43.291  10.614
72404W        W33770  12.705  23.660  13.912
72405W        W33771  13.662  17.129   1.414
72406W        W33772  37.981   6.417   1.778
72407W        W33773  32.013  24.676  14.373
72408W        W33774   0.862   5.918  10.983
72409W        W33775  34.516  33.934  14.895
72410W        W33776   0.841   4.718   4.166
72411W        W33777  21.741   0.918  10.069
72412W        W33778  16.682   2.247  12.447
72413W        W33779  34.585  21.647   3.177
72414W        W33780  30.635  15.680   1.709
72415W        W33781  42.375  42.807   2.266
72416W        W33782  41.429  18.159  12.339
72417W        W33783  19.257  36.019  12.011
72418W        W33784  19.144  26.522   3.675
72419W        W33785  10.281  28.671   0.925
72420W        W33786   2.902  20.033  10.995
72421W        W33787  19.106  24.606   4.310
72422W        W33788  18.096  13.235   3.863
72423W        W33789  44.274  31.126  12.857
72424W        W33790  13.325  22.197  14.760
72425W        W33791  21.148  11.745  13.506
72426W        W33792   0.405   7.738   4.622
72427W        W33793  14.679  26.060   4.795
72428W        W33794   7.778  26.632  10.608
72429W        W33795  35.373   5.317   1.797
72430W        W33796  17.786  38.526   3.272
72431W        W33797   0.929  42.913  10.069
72432W        W33798  29.585  28.453  10.420
72433W        W33799  29.043  33.556  10.458
72434W        W33800  28.570  15.117   3.281
72435W        W33801   6.826   1.796  11.878
72436W        W33802  15.739  38.419   1.443
72437W        W33803  38.037  41.918  11.489
72438W        W33804  30.453   1.938  11.070
72439W        W33805  26.967  11.692  12.523
72440W        W33806  18.140  23.153  13.392
72441W        W33807  40.866  23.494  11.927
72442W        W33808  26.558   7.860   2.704
72443W        W33809  22.516  37.523   2.254
72444W        W33810   9.341  10.216   4.833
72445W        W33811  11.746  31.549  10.017
72446W        W33812  16.636  30.478   1.778
72447W        W33813  32.528   3.771   1.773
72448W        W33814  25.208  18.162   1.264
72449W        W33815  26.650   4.869   0.950
72450W        W33816   8.704  15.617   2.345
72451W        W33817   3.815  23.582  10.618
72452W        W33818  24.984  25.694   3.805
72453W        W33819  10.695  14.648   4.837
72454W        W33820  23.115  32.909  12.094
72455W        W33821  42.332   8.716  12.453
72456W        W33822  13.812   4.269   3.154
72457W        W33823  17.213  11.328  11.462
72458W        W33824  16.191  35.450   0.298
72459W        W33825  14.333  20.140   2.225
72460W        W33826  38.979  18.136  14.439
72461W        W33827  24.519  30.145   0.362
72462W        W33828  33.590   1.939   4.797
72463W        W33829  19.581  41.501   4.207
72464W        W33830  31.531  32.481  11.974
72465W        W33831  18.773  12.617   3.725
72466W        W33832  26.027   9.677   1.733
72467W        W33833  38.015  43.953   2.393
72468W        W33834  34.402   3.900  14.455
72469W        W33835  22.015   6.850   2.397
72470W        W33836   8.687  31.465  13.457
72471W        W33837  20.530  44.958   1.236
72472W        W33838   9.834  27.133  11.378
72473W        W33839  34.865  23.627   3.225
72474W        W33840  22.538  44.405  11.967
72475W        W33841  36.912  41.300  14.509
72476W        W33842  42.364  26.605   0.892
72477W        W33843  39.430   7.691  13.450
72478W        W33844  13.840   9.869  12.971
72479W        W33845   4.247  34.451  13.454
72480W        W33846  13.692  11.335   1.895
72481W        W33847  15.322  21.553   3.670
72482W        W33848  43.274   9.842  10.634
72483W        W33849  13.174  39.492   2.841
72484W        W33850  32.963  26.480  11.608
72485W        W33851  33.903   8.195   4.201
72486W        W33852  25.094  19.238   2.686
72487W        W33853  22.073  20.269  12.425
72488W        W33854   1.943  35.081   2.902
72489W        W33855  35.469  23.555  14.465
72490W        W33856  22.143   5.772   4.701
72491W        W33857  33.504  20.195  13.476
72492W        W33858  10.695  17.159  10.475
72493W        W33859  30.999   6.838   0.925
72494W        W33860  26.559  35.591  10.513
72495W        W33861  31.039  43.479  14.492
72496W        W33862   8.683   0.371   3.802
72497W        W33863  43.507  35.524  11.373
72498W        W33864   6.722   1.273  11.416
72499W        W33865  33.118  37.575  14.812
72500W        W33866  23.184  42.887   1.256
72501W        W33867  30.122   8.238  10.965
72502W        W33868  23.108  20.616   0.819
72503W        W33869  17.743   7.686  13.034
72504W        W33870   3.764  22.186   1.212
72505W        W33871   2.306   6.706   3.306
72506W        W33872   3.735  28.130  13.058
72507W        W33873  42.944  17.560  12.394
72508W        W33874  28.491  28.632  11.119
72509W        W33875  43.886  44.925  12.005
72510W        W33876  25.518  37.473   1.726
72511W        W33877  43.298  13.608  14.426
72512W        W33878  19.714  11.358  13.851
72513W        W33879  36.480  41.302   0.933
72514W        W33880   3.869  15.598   3.683
72515W        W33881  20.536  38.375   3.245
72516W        W33882  33.408  22.149   4.197
72517W        W33883  43.274  22.205   4.642
72518W        W33884   8.723  17.122  14.952
72519W        W33885  23.543  27.647  12.496
72520W        W33886   0.384   0.911  13.815
72521W        W33887   2.229  41.950  14.025
72522W        W33888  30.044  22.181   4.302
72523W        W33889  25.008  37.901   2.345
72524W        W33890  16.127  32.552   3.722
72525W        W33891  24.020  33.996   5.283
72526W        W33892  25.977  30.067   3.304
72527W        W33893  16.641  14.702  14.434
72528W        W33894  12.805  30.658  12.347
72529W        W33895  36.460  17.577   4.779
72530W        W33896  21.239  20.166  12.400
72531W        W33897   3.909  18.734  10.536
72532W        W33898  33.994  14.787   1.866
72533W        W33899  39.058  23.493  11.604
72534W        W33900  31.063  23.702  13.790
72535W        W33901  41.844  39.533   1.349
72536W        W33902  15.587  14.759  11.931
72537W        W33903  18.625  15.629   0.748
72538W        W33904  33.447   2.816  10.975
72539W        W33905  19.595  25.539  14.784
72540W        W33906  44.370  20.575   4.728
72541W        W33907   0.819  16.750   0.383
72542W        W33908  29.149  10.637  10.543
72543W        W33909  13.792   0.884  12.894
72544W        W33910  38.895  24.975  12.382
72545W        W33911   0.283  40.882  12.354
72546W        W33912   3.420   0.275  10.456
72547W        W33913  35.024  20.660  13.985
72548W        W33914  43.455  43.504  13.425
72549W        W33915   9.665  31.545  10.459
72550W        W33916  44.871  19.077   1.847
72551W        W33917  42.483  18.619  13.394
72552W        W33918   6.368  10.217   2.350
72553W        W33919  34.437  21.035   1.771
72554W        W33920  39.906  11.188  12.405
72555W        W33921  18.239  14.625  13.989
72556W        W33922  30.534  26.480   3.775
72557W        W33923  15.174  30.125   1.225
72558W        W33924   3.410  16.574  10.018
72559W        W33925   8.873  22.738   2.205
72560W        W33926  21.606  29.971   2.881
72561W        W33927  19.083   3.403  13.485
72562W        W33928  34.987  40.399   0.809
72563W        W33929  35.937  15.643  10.528
72564W        W33930  20.564   1.369   4.192
72565W        W33931  36.992  32.996   2.830
72566W        W33932  35.016   0.963  10.432
72567W        W33933  24.996  15.588   2.266
72568W        W33934   5.231  31.541  14.505
72569W        W33935  25.996  41.446  10.592
72570W        W33936  11.245  32.427  14.012
72571W        W33937   0.928  43.950  11.427
72572W        W33938  30.057  25.044   2.352
72573W        W33939  27.552  20.197  14.835
72574W        W33940   8.845   9.705   1.886
72575W        W33941  28.645  31.441  11.972
72576W        W33942  36.388  21.258   4.741
72577W        W33943   8.254  37.076  10.920
72578W        W33944  43.773  15.306  10.961
72579W        W33945  39.489  22.560  11.105
72580W        W33946  43.908  28.564  13.996
72581W        W33947  20.126   4.798  12.028
72582W        W33948  42.785  39.317   2.802
72583W        W33949  36.017  34.514   0.430
72584W        W33950  36.871  16.182  14.274
72585W        W33951  25.481  32.923   1.854
72586W        W33952  40.010   3.785  10.437
72587W        W33953  44.325  22.043  13.394
72588W        W33954  43.406  41.985  12.970
72589W        W33955  39.829  38.968  14.900
72590W        W33956  21.717  40.985   4.153
72591W        W33957  18.585  36.545   4.244
72592W        W33958  27.967  11.696   1.792
72593W        W33959  10.875   6.287   2.199
72594W        W33960  26.460  15.126  10.519
72595W        W33961   4.919  31.097   0.752
72596W        W33962  34.064  41.884  12.560
72597W        W33963   5.368  16.308   2.384
72598W        W33964  27.674  33.493  13.804
72599W        W33965  32.928  25.046   3.354
72600W        W33966  27.674   0.944  11.112
72601W        W33967  15.131  34.001  13.845
72602W        W33968  18.723  24.078   0.774
72603W        W33969   3.362  13.735   1.719
72604W        W33970  33.599   3.348  12.520
72605W        W33971   0.965   8.258  13.954
72606W        W33972  10.853  32.607  14.278
72607W        W33973  19.189   8.676   1.384
72608W        W33974  25.529  40.506  10.477
72609W        W33975  17.134  28.011   0.741
72610W        W33976   7.171  35.049  13.425
72611W        W33977   8.322   5.268  13.014
72612W        W33978   3.436  31.091  12.574
72613W        W33979  43.314   9.874   4.309
72614W        W33980  13.801  39.876  14.463
72615W        W33981  14.111   7.372   2.878
72616W        W33982  24.677  29.986  10.917
72617W        W33983  22.733   1.856   4.280
72618W        W33984   5.928  43.437  13.336
72619W        W33985  44.503  29.653   0.867
72620W        W33986   2.282  40.480   1.376
72621W        W33987  12.261  27.626   2.181
72622W        W33988  15.091  35.408   3.166
72623W        W33989   3.766  42.496   4.768
72624W        W33990  19.550  43.976  12.380
72625W        W33991  23.687  26.140   3.225
72626W        W33992  14.600  32.592   3.238
72627W        W33993   9.684  16.263  10.993
72628W        W33994  25.167  16.725   4.267
72629W        W33995  38.550   8.400   3.656
72630W        W33996   1.749  23.028  14.320
72631W        W33997  19.714  12.715   3.277
72632W        W33998  19.715   2.372   2.415
72633W        W33999  20.532  36.589   2.325
72634W        W34000  38.868  38.841  11.904
72635W        W34001   9.680  36.369   3.863
72636W        W34002  11.191  15.821  11.518
72637W        W34003   4.811  10.764   3.348
72638W        W34004   1.791  33.057  11.036
72639W        W34005  32.531  18.624  12.531
72640W        W34006   9.278  41.868   3.867
72641W        W34007  10.142  29.615  13.829
72642W        W34008  25.155  10.184   5.092
72643W        W34009  34.447  13.190   3.828
72644W        W34010  26.501  30.115  13.928
72645W        W34011  37.405  33.491   0.837
72646W        W34012   5.822   7.873   5.188
72647W        W34013  16.808  15.607  12.002
72648W        W34014  10.338  23.081  12.419
72649W        W34015  26.497  33.006  10.936
72650W        W34016  43.927  32.465  12.940
72651W        W34017  23.626  14.264  11.412
72652W        W34018  26.596   2.434   3.275
72653W        W34019   8.718  19.063   0.423
72654W        W34020  33.615   8.261   4.213
72655W        W34021  38.021   2.873  13.995
72656W        W34022  23.136  24.133   1.819
72657W        W34023  31.584  32.631  12.487
72658W        W34024  37.965  19.067   4.817
72659W        W34025   2.235  10.845  10.424
72660W        W34026  22.126  29.973  12.840
72661W        W34027  23.521   8.725   4.225
72662W        W34028  28.668  44.922   1.904
72663W        W34029  18.618  23.191  13.540
72664W        W34030   9.844   3.922   1.261
72665W        W34031  11.146  41.341   3.797
72666W        W34032  41.475   5.266   3.808
72667W        W34033   2.814   9.294  14.429
72668W        W34034  43.923  22.710   0.922
72669W        W34035  33.472  37.073  11.512
72670W        W34036   4.923  26.657  13.898
72671W        W34037   4.446  26.160  13.354
72672W        W34038  28.977  30.427   3.238
72673W        W34039  27.989  29.591  13.350
72674W        W34040  31.947  31.122   3.270
72675W        W34041  28.510   7.186   2.849
72676W        W34042  40.407  34.005   2.786
72677W        W34043  20.097  37.919  14.003
72678W        W34044  26.469  42.830   1.719
72679W        W34045  43.826  20.567  12.510
72680W        W34046   1.971  15.686  11.560
72681W        W34047  43.943  34.512   0.785
72682W        W34048  16.647  32.479  10.500
72683W        W34049  44.968  33.934   3.752
72684W        W34050  20.670   5.759   2.698
72685W        W34051  41.850  19.181  11.014
72686W        W34052  32.927   2.302  11.055
72687W        W34053  15.279   8.894   0.399
72688W        W34054  38.074  13.806  12.875
72689W        W34055  16.586   9.201  12.084
72690W        W34056  19.703   7.390  12.538
72691W        W34057  31.607  26.071  11.539
72692W        W34058   3.725  14.729   0.252
72693W        W34059  36.350   6.414  13.452
72694W        W34060   6.777   3.877   2.737
72695W        W34061   0.971  32.923   4.785
72696W        W34062  39.957  25.510  14.434
72697W        W34063   0.462  16.315  10.465
72698W        W34064  28.468   1.820  14.927
72699W        W34065   8.809  39.064   4.340
72700W        W34066  25.606  22.111  13.989
72701W        W34067  16.075  29.586   1.319
72702W        W34068   3.852  14.646   4.759
72703W        W34069   8.222  17.623   4.135
72704W        W34070  27.060   8.804   0.332
72705W        W34071   3.935  27.686  10.983
72706W        W34072   8.862  30.530  11.053
72707W        W34073  27.509  42.526   3.299
72708W        W34074  36.859  26.164  13.895
72709W        W34075   5.727   0.374  14.005
72710W        W34076  14.272  35.861   3.750
72711W        W34077  18.559   5.421  13.542
72712W        W34078  30.564  17.770   1.781
72713W        W34079  18.091  30.583  13.806
72714W        W34080  10.731  32.464   0.302
72715W        W34081  20.669  37.964  14.927
72716W        W34082   7.378  35.072  12.092
72717W        W34083   1.428  41.997  14.837
72718W        W34084  28.451  33.054   3.368
72719W        W34085  31.452   0.257   3.827
72720W        W34086  25.600  16.751  10.526
72721W        W34087  25.547  31.515  11.980
72722W        W34088  32.915  37.432  11.034
72723W        W34089  36.457   1.325  12.030
72724W        W34090  12.838   8.342   1.904
72725W        W34091  21.251  41.307  10.550
72726W        W34092  33.127  36.543   2.311
72727W        W34093  27.138   0.788   0.321
72728W        W34094  21.598  31.101   2.378
72729W        W34095  30.592   2.442  12.973
72730W        W34096  23.652  35.378   0.476
72731W        W34097   6.381  44.798  13.380
72732W        W34098   9.739  30.487   2.364
72733W        W34099  44.493  23.126  10.062
72734W        W34100  27.067  15.232  11.580
72735W        W34101   8.895  18.157  11.482
72736W        W34102  37.024  26.954   4.241
72737W        W34103  43.994  25.179  10.945
72738W        W34104   9.706  15.220  11.443
72739W        W34105  23.552  25.005  13.840
72740W        W34106  44.784  11.635  14.798
72741W        W34107  10.871  15.197   1.386
72742W        W34108  14.668  22.517   0.761
72743W        W34109  27.038  20.646   2.801
72744W        W34110  31.138  38.329  12.533
72745W        W34111  37.865  27.105  12.908
72746W        W34112  18.250  10.274   4.319
72747W        W34113  36.483  28.443   3.743
72748W        W34114   8.775   4.328  10.421
72749W        W34115  12.123   3.286   1.901
72750W        W34116   0.977   7.791  12.574
72751W        W34117  27.541  16.717  11.455
72752W        W34118  41.968   7.878  12.513
72753W        W34119  43.302  37.993  12.988
72754W        W34120  32.449  33.004  10.947
72755W        W34121  29.121  29.049   3.767
72756W        W34122  26.465  21.630  11.443
72757W        W34123  16.743  25.162   2.876
72758W        W34124  34.516   0.311   0.802
72759W        W34125  30.147  29.466  11.543
72760W        W34126   2.922   2.849   3.305
72761W        W34127  44.394  43.313  14.402
72762W        W34128  35.103  30.981  12.038
72763W        W34129   5.278  39.349  12.082
72764W        W34130   3.373  39.973  13.971
72765W        W34131  13.840  42.861  13.905
72766W        W34132   6.208  41.979   3.651
72767W        W34133  40.862  28.463   2.766
72768W        W34134   1.325  10.834   2.285
72769W        W34135   4.295  10.335   0.730
72770W        W34136  12.130   9.186  10.582
72771W        W34137  15.747  24.598  10.902
72772W        W34138  17.175  24.999  11.422
72773W        W34139  39.953   1.786  11.006
72774W        W34140  33.080  20.646   1.438
72775W        W34141  12.217  13.118   0.389
72776W        W34142  39.957  11.234   2.736
72777W        W34143  22.101  34.388   4.268
72778W        W34144   5.389  40.016  11.916
72779W        W34145  30.980  30.908   3.296
72780W        W34146  25.495  30.913  12.509
72781W        W34147  29.637  39.436  13.906
72782W        W34148  23.575  23.652   4.723
72783W        W34149  16.133   2.806   0.246
72784W        W34150   8.778  31.442  10.432
72785W        W34151  37.434  38.934   4.775
72786W        W34152   7.876  20.713  14.789
72787W        W34153  19.147  20.548   4.120
72788W        W34154   8.405  32.142  10.530
72789W        W34155  40.826  33.490  12.832
72790W        W34156  20.598  38.902  11.526
72791W        W34157  35.031  42.368  12.513
72792W        W34158   8.743   3.805  12.939
72793W        W34159  15.702  21.139   1.383
72794W        W34160  28.137  21.032   4.622
72795W        W34161  26.574  35.386   1.784
72796W        W34162  42.433   5.689  12.477
72797W        W34163  35.494   6.739  11.395
72798W        W34164   5.838  41.909   1.416
72799W        W34165  27.523   4.243  10.575
72800W        W34166  23.714  42.385   2.315
72801W        W34167  15.729  32.036   1.228
72802W        W34168  37.891  15.748  14.944
72803W        W34169  19.052  43.834  14.019
72804W        W34170  40.512   7.753  11.586
72805W        W34171  12.817  10.792   0.914
72806W        W34172  13.781  28.145   1.343
72807W        W34173  44.866   2.457  11.386
72808W        W34174  35.542  44.350   0.377
72809W        W34175   2.924  16.119   2.377
72810W        W34176  30.148  29.496  14.768
72811W        W34177  21.147  39.530   4.832
72812W        W34178   7.851  24.493  10.911
72813W        W34179  24.557  24.135  12.888
72814W        W34180  16.653  43.458   4.320
72815W        W34181  30.977   3.842   1.328
72816W        W34182  30.448  38.951  14.865
72817W        W34183  29.947  17.643   3.356
72818W        W34184  33.012  34.508   4.710
72819W        W34185  14.610  22.689   4.124
72820W        W34186  23.210  16.697   0.964
72821W        W34187  18.253  35.490  12.846
72822W        W34188   9.868  24.200   0.313
72823W        W34189  43.930  21.619  11.088
72824W        W34190  10.181   4.804   2.223
72825W        W34191   9.710  30.006   1.359
72826W        W34192  21.112  27.503  12.074
72827W        W34193   7.399  19.201   1.804
72828W        W34194   9.357  27.973  14.402
72829W        W34195  41.005   7.683  13.866
72830W        W34196  25.009   1.425  13.454
72831W        W34197   2.758   9.328  12.917
72832W        W34198  24.562  20.224   0.780
72833W        W34199  33.116  29.054   2.785
72834W        W34200  38.918   6.240   2.737
72835W        W34201   4.787  16.796  13.899
72836W        W34202  13.832   9.649   0.315
72837W        W34203  33.466  30.943   4.317
72838W        W34204  30.570   7.196  11.500
72839W        W34205  43.890  20.647   1.854
72840W        W34206   2.911   8.373  13.003
72841W        W34207   8.688   3.833  12.054
72842W        W34208   3.762   6.866   5.256
72843W        W34209   2.854  32.548  13.968
72844W        W34210  40.325  11.228  10.456
72845W        W34211  23.077  41.966  11.008
72846W        W34212  36.430  40.038  14.989
72847W        W34213  20.130  15.225   1.213
72848W        W34214  21.092   0.773  14.448
72849W        W34215  36.902  42.826   4.711
72850W        W34216  35.098   4.818  10.099
72851W        W34217  42.777  19.067  10.601
72852W        W34218  30.556  36.903   4.788
72853W        W34219  28.022  43.322  10.503
72854W        W34220  22.032   5.760   2.892
72855W        W34221   6.410  29.595   3.160
72856W        W34222  34.444  14.099  13.529
72857W        W34223  34.581  18.674   0.420
72858W        W34224  14.703   2.891   4.601
72859W        W34225  18.204  31.450   4.287
72860W        W34226  21.040  28.167   3.726
72861W        W34227   1.825  30.094   4.717
72862W        W34228  27.135  16.599  10.951
72863W        W34229  42.304  24.085   2.414
72864W        W34230  13.299  18.170  14.029
72865W        W34231   0.794  40.429   0.812
72866W        W34232  33.485  44.875  12.413
72867W        W34233  11.215   4.445   1.905
72868W        W34234  42.790   9.163  12.034
72869W        W34235  21.721  42.312  14.933
72870W        W34236  36.403  42.828   0.743
72871W        W34237  22.136  29.550  13.937
72872W        W34238  29.953  25.483   2.672
72873W        W34239   1.799  37.356  14.913
72874W        W34240  44.784   1.463  12.558
72875W        W34241  31.082   7.281  10.584
72876W        W34242  11.288  14.589   1.335
72877W        W34243   2.231  19.259  12.034
72878W        W34244   9.277  37.341   9.983
72879W        W34245  13.614  44.345   3.254
72880W        W34246   8.372  40.991   2.218
72881W        W34247  10.285   8.294   1.347
72882W        W34248  37.010  20.099   3.830
72883W        W34249  18.738  31.570  10.589
72884W        W34250   3.275  11.272   0.928
72885W        W34251   3.895  29.522  12.511
72886W        W34252   0.853   7.329  10.524
72887W        W34253  10.248  14.819   4.790
72888W        W34254  17.574  29.435   1.337
72889W        W34255   2.837   3.446   0.473
72890W        W34256  11.757  25.161   3.819
72891W        W34257  13.215  17.180   3.276
72892W        W34258   7.326  32.974   4.777
72893W        W34259  35.055  42.475   5.165
72894W        W34260  24.123  31.029   1.413
72895W        W34261  37.573   2.783   1.391
72896W        W34262   0.776   3.824  14.775
72897W        W34263   3.220  22.107  10.518
72898W        W34264   6.319  26.053   2.311
72899W        W34265  36.912  33.429  13.801
72900W        W34266  20.627   3.780  11.003
72901W        W34267  40.867  34.576  11.910
72902W        W34268  30.614  36.352  11.864
72903W        W34269   9.731   5.350   0.279
72904W        W34270  37.875  34.535  10.524
72905W        W34271  22.701  44.361   4.296
72906W        W34272  16.687   4.262   0.388
72907W        W34273  17.088   9.775   4.208
72908W        W34274   5.730  39.477  12.562
72909W        W34275  43.482  23.076  12.528
72910W        W34276  36.868   1.978  12.082
72911W        W34277  33.507  28.617   2.277
72912W        W34278  30.536  23.101   1.390
72913W        W34279  16.289  10.343  12.512
72914W        W34280  34.023  35.912   2.718
72915W        W34281  42.859  41.866   3.301
72916W        W34282  35.540  40.513   0.384
72917W        W34283  35.006  38.463   5.110
72918W        W34284  39.435  38.863  11.433
72919W        W34285  11.365  34.537   3.371
72920W        W34286  44.312  35.035  13.471
72921W        W34287   7.181  19.734  14.395
72922W        W34288  19.758  41.867   2.835
72923W        W34289  41.894  33.929   0.844
72924W        W34290  28.507  21.722  13.486
72925W        W34291  27.143   7.361   0.368
72926W        W34292  44.942   0.749  12.409
72927W        W34293  16.684  39.391   0.343
72928W        W34294  26.464  37.377  13.023
72929W        W34295  20.176  41.360  10.626
72930W        W34296   6.831  18.148   3.739
72931W        W34297  38.516  31.149  11.426
72932W        W34298  37.533  35.904   4.742
72933W        W34299  12.735  16.794   0.945
72934W        W34300  38.415  22.060   0.886
72935W        W34301  25.014  34.059   2.788
72936W        W34302  41.815   9.844   2.322
72937W        W34303  16.086  24.200   0.401
72938W        W34304  30.580  18.756   4.808
72939W        W34305  25.662  42.799   0.814
72940W        W34306  29.010  14.827   0.777
72941W        W34307  44.368  37.343   0.903
72942W        W34308  26.555  13.625  14.788
72943W        W34309  13.627  31.544  10.629
72944W        W34310  15.213  29.102  14.785
72945W        W34311  29.096  39.895  11.521
72946W        W34312  16.316  32.532  11.460
72947W        W34313  11.689  32.485   1.440
72948W        W34314  33.974  37.917  10.973
72949W        W34315  41.000  24.493   1.847
72950W        W34316  30.415   6.714  12.452
72951W        W34317   8.738  26.985  13.013
72952W        W34318  30.963  18.749   3.169
72953W        W34319  41.513  36.483   0.907
72954W        W34320   3.849  34.880   4.322
72955W        W34321  31.940  10.269   0.462
72956W        W34322  30.592  44.490  13.833
72957W        W34323  41.420   9.763  11.029
72958W        W34324   6.827  21.183  11.020
72959W        W34325  41.396  33.971  12.965
72960W        W34326   6.384   2.839  10.915
72961W        W34327   7.859   8.356   1.791
72962W        W34328  22.080  33.526   3.670
72963W        W34329  23.138  30.437   1.697
72964W        W34330   0.251   4.914   1.742
72965W        W34331   6.789  20.042  11.886
72966W        W34332  14.733  38.849  13.061
72967W        W34333  20.203  31.915   3.215
72968W        W34334  39.404   2.865   3.208
72969W        W34335  17.682   4.793   2.872
72970W        W34336  42.464  21.746  12.441
72971W        W34337  21.202  44.364  14.818
72972W        W34338  36.438  23.583  12.914
72973W        W34339  41.320   5.845   3.368
72974W        W34340  28.550  44.289  10.536
72975W        W34341  13.340  18.703   4.343
72976W        W34342   9.201  25.050  12.426
72977W        W34343   7.316   1.951  11.026
72978W        W34344  13.798   0.254  13.390
72979W        W34345  23.990  15.114  13.515
72980W        W34346  11.861  19.567  11.503
72981W        W34347   4.745  38.330   1.418
72982W        W34348  42.377  22.664   3.762
72983W        W34349  38.859  39.479  10.509
72984W        W34350  43.466  42.402  11.098
72985W        W34351  38.521  19.666  14.839
72986W        W34352   2.426  26.078  10.508
72987W        W34353   2.312   5.346  10.977
72988W        W34354  35.989  16.762   4.639
72989W        W34355   1.361   6.197  11.994
72990W        W34356  29.009  30.578  13.445
72991W        W34357  21.729  20.182   4.817
72992W        W34358  30.953  30.452   4.817
72993W        W34359  11.329  38.440   2.686
72994W        W34360  29.936   1.784  14.335
72995W        W34361  15.624  14.716   3.343
72996W        W34362  18.078  11.312  13.323
72997W        W34363  38.966  42.297  12.569
72998W        W34364   9.334  44.340  11.608
72999W        W34365   5.414   1.868  14.936
73000W        W34366  44.261   8.789  10.935
73001W        W34367  39.001  12.707  10.556
73002W        W34368  18.220   4.289   3.210
73003W        W34369   9.303  11.686   4.200
73004W        W34370  33.468  39.938   1.841
73005W        W34371  40.431  44.795  10.620
73006W        W34372  42.866   7.704   4.145
73007W        W34373  31.584  41.418   3.263
73008W        W34374  36.526  23.597   2.340
73009W        W34375  25.659  13.616  12.827
73010W        W34376  15.158   6.891   1.326
73011W        W34377  34.915   5.927  13.484
73012W        W34378  34.480  36.486   2.217
73013W        W34379  19.758  38.360  12.406
73014W        W34380  29.094  38.497   1.254
73015W        W34381  17.682   4.217  11.908
73016W        W34382  16.118  28.443   2.327
73017W        W34383  33.516   2.876   0.255
73018W        W34384   9.333   8.720  13.324
73019W        W34385  29.632  18.237  12.434
73020W        W34386   3.892  29.431  10.092
73021W        W34387  41.931  35.363   4.276
73022W        W34388  15.189  39.409   1.790
73023W        W34389  31.116  22.100  14.030
73024W        W34390  25.653   8.246   1.262
73025W        W34391   3.398  15.215  11.414
73026W        W34392  11.799  40.920  12.061
73027W        W34393   3.776   6.333  12.382
73028W        W34394  27.108  39.823  11.529
73029W        W34395  21.228  38.970  13.458
73030W        W34396  38.825  33.578  12.863
73031W        W34397   5.233   6.712  14.005
73032W        W34398   4.387   6.913   9.921
73033W        W34399  43.457  39.812  12.889
73034W        W34400  39.889  22.604   0.351
73035W        W34401   1.399  32.547  11.873
73036W        W34402   0.399  40.979   2.222
73037W        W34403  14.801  20.242   4.681
73038W        W34404  27.138  30.525   3.252
73039W        W34405  32.633  31.424  14.391
73040W        W34406  36.358  12.789  14.303
73041W        W34407   1.764  37.359   4.669
73042W        W34408   4.702  44.996   3.744
73043W        W34409  12.662  34.879   1.703
73044W        W34410  17.106   6.289  12.365
73045W        W34411  36.374  28.140   1.926
73046W        W34412   9.889  12.693  12.503
73047W        W34413  30.932   8.285  10.512
73048W        W34414  44.329  35.046   2.720
73049W        W34415  31.589   3.800   2.782
73050W        W34416   3.324  10.382   3.711
73051W        W34417   9.176  17.148  11.884
73052W        W34418  29.035  30.609   4.131
73053W        W34419  37.459  18.228  10.412
73054W        W34420  13.274  40.367   5.218
73055W        W34421  43.284   3.751   2.334
73056W        W34422  12.615  39.942   0.465
73057W        W34423   5.697  32.130  13.325
73058W        W34424   3.369  35.951   0.766
73059W        W34425   7.762  31.408   3.693
73060W        W34426  11.337  17.573  10.584
73061W        W34427   0.471  13.656  12.420
73062W        W34428  31.422  21.017  11.432
73063W        W34429  34.868  37.950  11.448
73064W        W34430  38.350   5.260  14.926
73065W        W34431  35.363  29.956  13.442
73066W        W34432  18.247   3.772   2.186
73067W        W34433   4.297  42.473   1.844
73068W        W34434  31.414   4.361  11.608
73069W        W34435  14.269  31.586  12.422
73070W        W34436  32.613  39.061   0.734
73071W        W34437  44.977  35.067  14.802
73072W        W34438  41.527  16.101   0.908
73073W        W34439  10.794  12.750  11.871
73074W        W34440  14.605   1.327  10.635
73075W        W34441  41.478  32.114   2.854
73076W        W34442  31.972   8.319  10.608
73077W        W34443  16.212   3.782   3.205
73078W        W34444  41.853   4.239  10.458
73079W        W34445  41.422   0.293  11.116
73080W        W34446  29.974  26.155  10.419
73081W        W34447  44.352  37.403  13.922
73082W        W34448  30.952  17.764   4.713
73083W        W34449  29.975  34.563  12.985
73084W        W34450  35.976  21.153  14.377
73085W        W34451  32.577  22.623  13.036
73086W        W34452  25.532  38.072   2.298
73087W        W34453  27.482  43.387  14.018
73088W        W34454  21.528   6.726   1.231
73089W        W34455  14.229  37.843   3.828
73090W        W34456  35.489  16.609   4.729
73091W        W34457  41.337  21.042  12.439
73092W        W34458  35.422  16.583   1.764
73093W        W34459  20.111  22.098   0.913
73094W        W34460  24.505  35.466   5.797
73095W        W34461  44.779  36.447  11.121
73096W        W34462   9.829  20.694  12.418
73097W        W34463  28.088  35.601   4.240
73098W        W34464  14.307  39.503   2.383
73099W        W34465  42.915  19.701  14.432
73100W        W34466  25.973   1.827  14.400
73101W        W34467  41.933  31.424   3.194
73102W        W34468  36.400  17.650   2.778
73103W        W34469  27.092  42.912  12.057
73104W        W34470  16.155  44.373  13.971
73105W        W34471  17.698  12.209  14.983
73106W        W34472  37.373  42.988   4.175
73107W        W34473  12.700   7.673  12.487
73108W        W34474  20.728  22.245   1.391
73109W        W34475  43.849  34.397  11.491
73110W        W34476  38.458   0.278  11.387
73111W        W34477  16.786  38.965   4.264
73112W        W34478   5.323   8.280   2.755
73113W        W34479  24.188  38.926   4.226
73114W        W34480   7.228  24.998  13.894
73115W        W34481  15.278  17.676  14.449
73116W        W34482  18.620  12.670  11.950
73117W        W34483  30.449  24.973   1.749
73118W        W34484  22.190  40.435   0.362
73119W        W34485  43.771  18.174   0.917
73120W        W34486  29.603  32.069   1.890
73121W        W34487   0.767  30.071  12.569
73122W        W34488  22.564  23.629  14.446
73123W        W34489   5.220  23.705  11.118
73124W        W34490  21.553  33.013   4.809
73125W        W34491  11.244  37.490  10.893
73126W        W34492  43.905  27.096  10.419
73127W        W34493   6.233  32.431   1.860
73128W        W34494  11.639  35.514   1.731
73129W        W34495  12.610  41.404   4.690
73130W        W34496  37.449  44.881   1.232
73131W        W34497  27.494   1.755   0.884
73132W        W34498   8.865  13.279   0.932
73133W        W34499  16.259  15.244  14.959
73134W        W34500   9.836  30.021  11.563
73135W        W34501  43.411  31.502  11.067
73136W        W34502  38.904   1.422  10.444
73137W        W34503   2.802   2.354  11.082
73138W        W34504   5.865  10.670  13.478
73139W        W34505  13.124  36.481   3.340
73140W        W34506  14.601  25.598  14.380
73141W        W34507  15.173  13.306   5.572
73142W        W34508  38.363  22.637  14.766
73143W        W34509  11.622  12.115  13.485
73144W        W34510   6.765  43.821  10.936
73145W        W34511  17.565   0.898  14.798
73146W        W34512   8.880  10.766  13.982
73147W        W34513  14.199  37.955  10.914
73148W        W34514  18.115   2.853  11.048
73149W        W34515  41.860  28.667  12.413
73150W        W34516  25.692   6.845  11.468
73151W        W34517  26.627   5.711   3.260
73152W        W34518  24.087  13.756  11.495
73153W        W34519  43.951   3.719  12.539
73154W        W34520  38.936  31.550  11.062
73155W        W34521  28.646  23.526   3.343
73156W        W34522  37.957   7.360   1.260
73157W        W34523   8.244  29.502   1.718
73158W        W34524  37.918  17.558   4.767
73159W        W34525  31.644  16.695  14.445
73160W        W34526  24.132  36.868  12.048
73161W        W34527  18.545  23.620   2.767
73162W        W34528  35.921  28.490   2.180
73163W        W34529  10.711  37.898   4.693
73164W        W34530  21.212  40.330  14.412
73165W        W34531  17.620  25.116  11.383
73166W        W34532  27.012  37.470   3.290
73167W        W34533   2.432  35.942   5.109
73168W        W34534  43.838  10.793   0.274
73169W        W34535   4.388  14.697  12.831
73170W        W34536  15.766   2.856   0.781
73171W        W34537  13.296   3.749  13.487
73172W        W34538  24.506  17.148   2.376
73173W        W34539  28.454  40.474  11.975
73174W        W34540  22.554   9.274   3.841
73175W        W34541  20.720   9.806  14.865
73176W        W34542  16.627  13.264   1.758
73177W        W34543  21.107  25.639  11.593
73178W        W34544   8.400  30.646  12.566
73179W        W34545  12.153   9.226  11.887
73180W        W34546  14.661   0.300   1.745
73181W        W34547  22.171  29.515   3.729
73182W        W34548  41.889   6.754  14.999
73183W        W34549  17.235  19.172   0.427
73184W        W34550  12.204   9.805  10.561
73185W        W34551  25.675   0.366  10.946
73186W        W34552   6.311   5.788   0.311
73187W        W34553  44.295   8.293  10.428
73188W        W34554   1.969   1.746  12.022
73189W        W34555  34.369  20.201  10.634
73190W        W34556  36.348  43.006   2.354
73191W        W34557  11.766   5.336   3.638
73192W        W34558  38.464  10.347   3.380
73193W        W34559  11.180  28.932  12.556
73194W        W34560  40.312  39.316   3.671
73195W        W34561   7.832  37.484   3.789
73196W        W34562  18.629  40.374  10.983
73197W        W34563  14.821  25.676   4.778
73198W        W34564  29.102  37.845  14.027
73199W        W34565  23.023  15.259   4.819
73200W        W34566  17.557  34.509   2.809
73201W        W34567  27.961  40.966   3.645
73202W        W34568  13.347  43.835  12.070
73203W        W34569  35.853  12.164  11.608
73204W        W34570  21.025   7.772  13.353
73205W        W34571  42.494  16.682  12.942
73206W        W34572   1.414   8.271   3.359
73207W        W34573  10.264  18.197   0.730
73208W        W34574  17.205  32.969   4.122
73209W        W34575  27.536   8.297  12.397
73210W        W34576  22.559  10.850  10.101
73211W        W34577  42.459  15.317  13.887
73212W        W34578  38.896  39.931  12.976
73213W        W34579  22.594   9.684  11.047
73214W        W34580  19.123  11.668   4.618
73215W        W34581  25.674  22.603  10.031
73216W        W34582  28.173  29.093  14.870
73217W        W34583  29.641   8.753   3.634
73218W        W34584   4.915  42.996  13.945
73219W        W34585  35.570  43.878   5.569
73220W        W34586  44.433  18.069  10.534
73221W        W34587  17.662  30.044  10.571
73222W        W34588  23.124  14.161   3.788
73223W        W34589  40.875  36.557  14.850
73224W        W34590   2.371  36.529  12.445
73225W        W34591  33.404  11.667   2.696
73226W        W34592  39.872   0.274   2.685
73227W        W34593  38.342  31.489   2.240
73228W        W34594  36.536   8.346   4.679
73229W        W34595   6.734  34.049  14.353
73230W        W34596  34.384  20.566  11.412
73231W        W34597  40.798  16.127  14.012
73232W        W34598  35.440  33.115   1.246
73233W        W34599  42.917  44.443  11.969
73234W        W34600  37.999  44.821  11.112
73235W        W34601  20.218   9.270  10.578
73236W        W34602   9.212  44.296  10.958
73237W        W34603   1.316  42.823   4.644
73238W        W34604  42.472  24.203  10.516
73239W        W34605  27.975  10.688   1.226
73240W        W34606   2.802   0.850  11.522
73241W        W34607  11.154  19.561  11.104
73242W        W34608  25.198  14.206  11.399
73243W        W34609  14.803  13.652   2.681
73244W        W34610  34.952  22.527  14.393
73245W        W34611  31.431  35.094  11.129
73246W        W34612  19.150   8.319   4.129
73247W        W34613  21.523  38.471  12.511
73248W        W34614  24.160   5.243   4.205
73249W        W34615   9.368  39.335   4.263
73250W        W34616   7.817  19.646  10.613
73251W        W34617   9.351  38.430  12.846
73252W        W34618  12.738   2.408   3.739
73253W        W34619  12.173  14.112   1.695
73254W        W34620  38.012  38.919   9.985
73255W        W34621  34.548  13.230   0.281
73256W        W34622  26.693  18.746   1.426
73257W        W34623  30.075  13.247   3.809
73258W        W34624  44.272  16.762  12.433
73259W        W34625  40.010  43.477  14.928
73260W        W34626   6.406  41.315   4.283
73261W        W34627  18.617  31.530   4.736
73262W        W34628  41.938  27.586   0.767
73263W        W34629  33.519  33.074  13.855
73264W        W34630  10.152  44.888   3.693
73265W        W34631  20.028  35.579   1.386
73266W        W34632  10.282  25.607  13.326
73267W        W34633  43.910  37.863  11.516
73268W        W34634  10.879  30.016  10.606
73269W        W34635   6.685  41.038  11.570
73270W        W34636  11.249  11.226  12.506
73271W        W34637  21.573   9.782  13.427
73272W        W34638   9.809  20.251  11.576
73273W        W34639   7.326  42.863  10.460
73274W        W34640  12.132  31.969  11.895
73275W        W34641   3.233  26.603  11.441
73276W        W34642  15.209  34.391   3.172
73277W        W34643  27.126  10.769   4.170
73278W        W34644  41.299  15.616  12.428
73279W        W34645  38.541  33.887  12.411
73280W        W34646  21.588   2.955  10.564
73281W        W34647  44.282  33.424  14.339
73282W        W34648  19.715   6.320   3.150
73283W        W34649  17.087  35.434  11.535
73284W        W34650  41.345  12.201   0.401
73285W        W34651   3.890   3.916  11.883
73286W        W34652  10.689  41.984   4.339
73287W        W34653  13.133  17.748   3.679
73288W        W34654  35.852  17.090   3.691
73289W        W34655  13.805   4.753  14.030
73290W        W34656  32.592  38.380   4.728
73291W        W34657  35.009   2.273   0.799
73292W        W34658  14.816  28.100  13.492
73293W        W34659   7.755   5.418  13.037
73294W        W34660  16.649  44.840   2.182
73295W        W34661  44.312  22.608  10.519
73296W        W34662   6.819  43.398  14.486
73297W        W34663  32.919   9.149  10.957
73298W        W34664  27.082  37.464  10.419
73299W        W34665  17.201  41.880  13.012
73300W        W34666  34.929   9.721   1.849
73301W        W34667   5.861  12.247   1.855
73302W        W34668  22.596  20.564  11.021
73303W        W34669  44.787  18.066  14.763
73304W        W34670  13.203  14.187  14.313
73305W        W34671  25.159  37.881  12.061
73306W        W34672  34.545  25.650   3.289
73307W        W34673  15.151  28.112  11.122
73308W        W34674  22.069   7.401   3.740
73309W        W34675   8.656  42.969  14.887
73310W        W34676   7.182  18.098   2.352
73311W        W34677  34.492  21.630   9.613
73312W        W34678  12.248  41.375  11.033
73313W        W34679  40.925  29.147   1.302
73314W        W34680  31.433   0.960   2.331
73315W        W34681   7.416  13.759   3.676
73316W        W34682  29.966  33.587  12.473
73317W        W34683  21.693  31.607   4.270
73318W        W34684   3.268  44.859   1.294
73319W        W34685  37.502  44.395  11.589
73320W        W34686  42.310  32.433   0.867
73321W        W34687  36.444   3.451   0.806
73322W        W34688  42.003  34.021   3.350
73323W        W34689  29.060  43.903   0.427
73324W        W34690  29.034  32.076   2.792
73325W        W34691  28.486  27.135  10.610
73326W        W34692  17.756  23.157   4.633
73327W        W34693   2.816  29.578  13.973
73328W        W34694   9.756  16.179   4.152
73329W        W34695  23.208   8.263  10.981
73330W        W34696  11.702  14.299   1.253
73331W        W34697  32.502   5.882  13.849
73332W        W34698  27.573  30.525  13.913
73333W        W34699  24.577   4.326  13.805
73334W        W34700  18.114  16.191   3.727
73335W        W34701  33.068  11.157  14.354
73336W        W34702  27.606  25.102   3.348
73337W        W34703  10.670  25.549   0.449
73338W        W34704  36.405   7.808  13.934
73339W        W34705  38.022  36.966   0.421
73340W        W34706  40.801  14.212   0.334
73341W        W34707  40.450   1.868  11.016
73342W        W34708  36.955  33.460  14.280
73343W        W34709  37.530  41.329   0.727
73344W        W34710  44.299  10.789   0.333
73345W        W34711  18.049  25.494  10.555
73346W        W34712  24.069   7.219  13.324
73347W        W34713  16.710  11.251   3.257
73348W        W34714  24.576  20.108   1.849
73349W        W34715  27.659  29.983  12.837
73350W        W34716  19.048  34.987  12.401
73351W        W34717  44.908  33.431  11.541
73352W        W34718  22.517  36.073  13.382
73353W        W34719  14.640  44.314  12.010
73354W        W34720  39.462  40.511   2.843
73355W        W34721  12.664  36.474   2.296
73356W        W34722  11.238  31.498   4.636
73357W        W34723  15.660  14.798   2.188
73358W        W34724  32.503   4.906  14.484
73359W        W34725  15.583  11.789   5.282
73360W        W34726  25.690  15.684   3.668
73361W        W34727  28.030  35.987  11.018
73362W        W34728   7.219  15.702   1.838
73363W        W34729  36.451  29.642   1.840
73364W        W34730   6.289  20.706   1.375
73365W        W34731  25.184  23.072   3.690
73366W        W34732  17.156  24.181   0.839
73367W        W34733   4.706  31.029   9.942
73368W        W34734  22.046  24.050   0.857
73369W        W34735  11.340  13.673  13.500
73370W        W34736  39.492   2.391  10.420
73371W        W34737  20.533   9.846  13.016
73372W        W34738   9.284  25.985  11.464
73373W        W34739  42.491  10.730   1.350
73374W        W34740  44.785   5.346   0.416
73375W        W34741  18.283  15.122  10.641
73376W        W34742   0.895  29.610  12.567
73377W        W34743  39.361  40.400   2.199
73378W        W34744  28.617  18.092  14.973
73379W        W34745  37.903   4.236   2.322
73380W        W34746  16.287   6.748  12.992
73381W        W34747  21.020  21.224   4.619
73382W        W34748  16.617  26.661  11.901
73383W        W34749  25.202  16.729   1.211
73384W        W34750  22.528   4.396  13.506
73385W        W34751   6.777  24.996  12.348
73386W        W34752  36.960  41.938   0.306
73387W        W34753   1.733  21.023   0.464
73388W        W34754  43.321  43.808  13.500
73389W        W34755  14.635  12.146  13.444
73390W        W34756  32.085  11.366   1.871
73391W        W34757  12.315  33.950  14.988
73392W        W34758   5.413  21.053   3.325
73393W        W34759  30.021  36.895  12.442
73394W        W34760   3.882  27.680  11.376
73395W        W34761  44.281  15.625  10.429
73396W        W34762  33.586  34.909   2.327
73397W        W34763  20.268  40.547  11.495
73398W        W34764  44.381   0.360   1.741
73399W        W34765  42.395  33.086  11.562
73400W        W34766   0.847   9.868   1.301
73401W        W34767  34.064   7.282   1.755
73402W        W34768   8.363   6.846   1.707
73403W        W34769  20.656   5.218   1.307
73404W        W34770  18.551  24.503   1.744
73405W        W34771  41.427  40.356   3.671
73406W        W34772  23.654  11.677  14.908
73407W        W34773   9.203  40.474  12.349
73408W        W34774  33.940  18.246   1.819
73409W        W34775  29.146  44.389  12.058
73410W        W34776  28.940  14.693  10.916
73411W        W34777  40.323  33.443   0.481
73412W        W34778  17.612  35.411   3.207
73413W        W34779  25.612  17.584   0.797
73414W        W34780  18.178   7.879   2.303
73415W        W34781  14.259   0.819  11.508
73416W        W34782   0.937   7.786  12.900
73417W        W34783  11.755   4.323   2.262
73418W        W34784  31.046  32.565   3.228
73419W        W34785  36.932  41.318  14.894
73420W        W34786  28.968  22.505   1.720
73421W        W34787   1.826   2.816  12.341
73422W        W34788  12.761  27.594  10.480
73423W        W34789  15.176  40.507   1.915
73424W        W34790   8.894  23.104  13.314
73425W        W34791   2.358  33.422   4.729
73426W        W34792  19.691  22.624   3.241
73427W        W34793   5.200  15.160  11.436
73428W        W34794  44.490   9.364  13.350
73429W        W34795  12.641  37.840   2.197
73430W        W34796   6.316  41.014  11.059
73431W        W34797  35.543  35.005   0.855
73432W        W34798  12.721  18.620  14.854
73433W        W34799  11.293   8.297   3.701
73434W        W34800  44.298  10.243  14.484
73435W        W34801  41.815  10.648   4.290
73436W        W34802   2.291  12.233  10.428
73437W        W34803  13.206  25.517   2.738
73438W        W34804   1.333  40.516   2.885
73439W        W34805   2.851  24.973   1.859
73440W        W34806  30.941  31.107  14.820
73441W        W34807  22.062  19.258   3.249
73442W        W34808  26.502  41.315  13.001
73443W        W34809  31.510  43.002  10.056
73444W        W34810  41.481  44.882   0.438
73445W        W34811  10.841  39.538   3.763
73446W        W34812   8.663  30.076  12.367
73447W        W34813  22.600  30.645   0.279
73448W        W34814  36.043   8.402   1.821
73449W        W34815  21.554  14.606   4.268
73450W        W34816  19.714  39.387   4.346
73451W        W34817  36.574  24.225   4.135
73452W        W34818  25.101   0.265  10.988
73453W        W34819  39.459  32.048   4.205
73454W        W34820  38.864  20.598   4.792
73455W        W34821  30.053  32.110  12.001
73456W        W34822  34.871  41.823   0.853
73457W        W34823  10.874  28.529   4.327
73458W        W34824  27.110   0.421   4.258
73459W        W34825  15.622   7.392   2.413
73460W        W34826   0.935  34.896   5.203
73461W        W34827  43.992  24.073   3.789
73462W        W34828  10.176  33.461  13.381
73463W        W34829  24.557  41.932   3.222
73464W        W34830  18.780  39.470  13.870
73465W        W34831   3.257   4.384  10.987
73466W        W34832  23.040  38.964   0.401
73467W        W34833  25.161  13.651  10.944
73468W        W34834  13.139  42.020  13.430
73469W        W34835  35.603  29.920  13.052
73470W        W34836  33.028  40.974   1.242
73471W        W34837  26.666   2.778   2.366
73472W        W34838  37.930  12.240   2.227
73473W        W34839   0.366  42.303  11.918
73474W        W34840  25.197  16.749   3.341
73475W        W34841   3.454   6.219  12.450
73476W        W34842  39.916  21.533   1.432
73477W        W34843  25.119  32.991  13.950
73478W        W34844  16.791  22.663  14.284
73479W        W34845  39.390  38.860  14.844
73480W        W34846   4.394  10.732   2.291
73481W        W34847  30.089  29.627   4.685
73482W        W34848  16.614  44.845   4.280
73483W        W34849  14.625  16.264   2.706
73484W        W34850  34.438  11.317  11.935
73485W        W34851  14.271  40.474   4.834
73486W        W34852  11.252   3.790  13.495
73487W        W34853  40.457  17.584   1.783
73488W        W34854   2.882  13.348  12.061
73489W        W34855  43.457   4.442   1.769
73490W        W34856  28.955  12.810   2.301
73491W        W34857  42.352  36.063   0.791
73492W        W34858  37.343  43.946   4.132
73493W        W34859  39.346  26.702   1.781
73494W        W34860  41.348  12.353   4.730
73495W        W34861  43.510  14.102   4.755
73496W        W34862  13.635  42.461  13.878
73497W        W34863   6.274  28.621  14.276
73498W        W34864  29.961  13.805  11.891
73499W        W34865  17.188   3.254   4.773
73500W        W34866   0.305  39.868   2.669
73501W        W34867  20.712   4.324   0.835
73502W        W34868  24.126   0.321   0.778
73503W        W34869  35.984  11.266  13.487
73504W        W34870  26.111  33.893  14.309
73505W        W34871  15.815  22.025  14.889
73506W        W34872  21.522   5.872   1.877
73507W        W34873  37.998  19.631  14.929
73508W        W34874  39.444  38.898   3.308
73509W        W34875  10.192  26.628  11.439
73510W        W34876  36.359  22.573   2.217
73511W        W34877  10.741  38.431   0.394
73512W        W34878  36.012   5.774   1.435
73513W        W34879  36.945  21.231  12.851
73514W        W34880  20.603  23.108   4.205
73515W        W34881   8.381  23.591   0.845
73516W        W34882  19.695   2.457   0.809
73517W        W34883  16.581  27.503   1.843
73518W        W34884   2.456  31.410   1.904
73519W        W34885  21.687  14.318   3.310
73520W        W34886  23.228  27.521  10.626
73521W        W34887   0.813  30.602  13.967
73522W        W34888  22.601   5.786  10.598
73523W        W34889  41.994  20.672  12.985
73524W        W34890   0.960  10.178   4.308
73525W        W34891  39.454   8.805  12.349
73526W        W34892  11.768   4.844   1.749
73527W        W34893   4.832   1.756  12.886
73528W        W34894  19.273  17.790  14.011
73529W        W34895  27.603  10.380   4.348
73530W        W34896  25.047  14.778   3.165
73531W        W34897  28.020  26.200  13.030
73532W        W34898  14.207  38.324   3.154
73533W        W34899   7.336  24.491  13.365
73534W        W34900  28.635  41.016   2.316
73535W        W34901  35.084  34.914   2.873
73536W        W34902  30.951  33.937  10.481
73537W        W34903  33.118   6.709  10.891
73538W        W34904  34.881  24.536   2.321
73539W        W34905   4.416  42.989   4.796
73540W        W34906  24.646  22.569  10.412
73541W        W34907  39.482  25.083  12.910
73542W        W34908  26.647  19.615  13.340
73543W        W34909   4.437   0.269   1.422
73544W        W34910  11.281  43.270  12.962
73545W        W34911  43.397  31.132  11.955
73546W        W34912  37.492  19.705   1.401
73547W        W34913  24.644   7.715   0.752
73548W        W34914  30.541  22.048  12.481
73549W        W34915  29.064  26.537  14.872
73550W        W34916  25.526  36.096  13.867
73551W        W34917  10.271   4.295   3.255
73552W        W34918   5.398  10.235   2.395
73553W        W34919  35.503  20.571  11.388
73554W        W34920  16.316  44.770  12.412
73555W        W34921  31.642   2.278   4.666
73556W        W34922  19.661  32.971  11.858
73557W        W34923  29.095  44.875   2.838
73558W        W34924  23.492  38.351   0.464
73559W        W34925  15.794  20.531   4.248
73560W        W34926   0.897   8.876   4.642
73561W        W34927  10.256  44.468   1.838
73562W        W34928   1.786  10.871   2.195
73563W        W34929  13.620   7.793  13.865
73564W        W34930  11.189  16.247  12.850
73565W        W34931  31.612  20.584   0.281
73566W        W34932  12.152  32.399   4.825
73567W        W34933  35.033   1.839  10.090
73568W        W34934   5.245  37.341  10.594
73569W        W34935  16.219  11.293   2.411
73570W        W34936  38.519  43.411   0.879
73571W        W34937   2.936   3.301  10.108
73572W        W34938  23.168  34.531   2.302
73573W        W34939  33.049  41.838  12.926
73574W        W34940  10.870  29.005  14.293
73575W        W34941  41.037  14.107   2.234
73576W        W34942   4.353  23.030   4.130
73577W        W34943   1.942  37.086   0.892
73578W        W34944  27.128  22.533  14.918
73579W        W34945   7.838  10.294  13.518
73580W        W34946  25.538   7.820   4.612
73581W        W34947  37.860  16.797   4.785
73582W        W34948  20.235  32.418   0.896
73583W        W34949  27.622  26.596   2.858
73584W        W34950   3.430  35.863   1.288
73585W        W34951  44.894  40.536  12.036
73586W        W34952  31.431  24.019   4.148
73587W        W34953  17.771  16.230   2.279
73588W        W34954  20.653  31.472   0.821
73589W        W34955  43.004  22.114  14.948
73590W        W34956  22.702   9.698  13.532
73591W        W34957  23.700  22.067  12.542
73592W        W34958  33.521  12.168   0.465
73593W        W34959  25.643  41.346  13.970
73594W        W34960  38.358  23.015  11.973
73595W        W34961   3.395  36.998   1.331
73596W        W34962  17.131   2.466  10.921
73597W        W34963   8.723  14.152   1.886
73598W        W34964   6.212   2.311  13.831
73599W        W34965  16.616   9.334   4.831
73600W        W34966  27.618  19.165  14.976
73601W        W34967  17.580  40.876  12.511
73602W        W34968   2.920   9.365   0.810
73603W        W34969  16.730  29.483   2.391
73604W        W34970  37.835  31.138  12.504
73605W        W34971  37.017  21.059  10.542
73606W        W34972  21.091   6.426  14.847
73607W        W34973  11.711  41.942   4.282
73608W        W34974  15.592  28.530   4.838
73609W        W34975  12.678  33.509   2.852
73610W        W34976  21.046  17.648   2.244
73611W        W34977   2.228  22.512   0.811
73612W        W34978  22.653  23.730  13.497
73613W        W34979  39.027   3.254   2.679
73614W        W34980   4.437  39.345  14.973
73615W        W34981  24.198  21.041   4.254
73616W        W34982  11.743  36.940  11.955
73617W        W34983  21.737  38.844   2.238
73618W        W34984  23.142   0.350   4.114
73619W        W34985  28.185   4.881   3.763
73620W        W34986  11.271  21.032  10.458
73621W        W34987  25.597   3.351   4.230
73622W        W34988  12.730  44.950  12.470
73623W        W34989  35.854  20.218  12.480
73624W        W34990   0.334  44.005   4.303
73625W        W34991  37.955  39.916  11.526
73626W        W34992  32.061  38.472   1.903
73627W        W34993  15.618  42.933   5.304
73628W        W34994  18.626  43.875  10.581
73629W        W34995   9.787  44.447  14.506
73630W        W34996  24.497  39.878   1.281
73631W        W34997  16.096  31.025   4.330
73632W        W34998  22.114  26.645  13.040
73633W        W34999  10.658  20.544   2.309
73634W        W35000  12.620  31.914  10.988
73635W        W35001  17.174   7.394  11.425
73636W        W35002  35.412  13.296   3.195
73637W        W35003   5.236  34.953  14.877
73638W        W35004  23.239  13.286  14.778
73639W        W35005   6.698  15.614   0.814
73640W        W35006   5.267   4.779  13.462
73641W        W35007  43.786  17.066   2.866
73642W        W35008  22.234  24.609   2.367
73643W        W35009  13.192  16.670   0.733
73644W        W35010  14.720  23.602   5.096
73645W        W35011  23.640  23.726  11.053
73646W        W35012   2.393  11.272   3.180
73647W        W35013  39.978   0.771  14.004
73648W        W35014  39.386   4.426   4.655
73649W        W35015   5.808  34.054  10.972
73650W        W35016  38.363  38.852  11.090
73651W        W35017   2.398  43.428   2.864
73652W        W35018   0.797  14.138  14.386
73653W        W35019  22.193  13.704  13.472
73654W        W35020  26.499   3.820   9.460
73655W        W35021  44.490   0.984  12.356
73656W        W35022  25.474   3.735  11.024
73657W        W35023  14.593  40.825   1.390
73658W        W35024  42.027  11.860   3.633
73659W        W35025  31.051  25.969   3.812
73660W        W35026   3.913   5.313   4.113
73661W        W35027  28.937  42.433   1.715
73662W        W35028  33.060  43.963   3.795
73663W        W35029  34.117   5.238   3.829
73664W        W35030  18.110  30.445  12.355
73665W        W35031  27.094   3.275   3.295
73666W        W35032  26.629  28.040   4.306
73667W        W35033  23.231   6.797  11.109
73668W        W35034  24.696  23.601   0.752
73669W        W35035  13.317  20.711  12.543
73670W        W35036  23.084  33.030  13.013
73671W        W35037   8.857   0.471   2.415
73672W        W35038  16.702  35.006  10.498
73673W        W35039  36.943  10.282  10.061
73674W        W35040  29.596  25.679   2.828
73675W        W35041   7.848   0.903   0.921
73676W        W35042  11.815  31.602   1.833
73677W        W35043  28.184  42.015   2.875
73678W        W35044  30.131  25.579   1.229
73679W        W35045  18.759  19.578  12.377
73680W        W35046  23.599  41.926  11.055
73681W        W35047   0.276  32.118   2.799
73682W        W35048  22.035   3.856   1.890
73683W        W35049  39.507  29.050   1.884
73684W        W35050   5.788  25.966   3.770
73685W        W35051  22.640  31.137   1.751
73686W        W35052  15.807   3.839  14.903
73687W        W35053  37.563  41.860  11.936
73688W        W35054  12.277   4.349   3.805
73689W        W35055  19.623   3.317   0.477
73690W        W35056   4.887  18.708  11.512
73691W        W35057  11.210  31.936   3.301
73692W        W35058  21.252  23.075  10.933
73693W        W35059  15.097   2.236   2.665
73694W        W35060  37.523  44.884  13.884
73695W        W35061   1.961  27.187   5.750
73696W        W35062  33.975  44.808  10.505
73697W        W35063  26.056  44.383   3.841
73698W        W35064  27.513  10.767   1.434
73699W        W35065  29.518   1.795  12.499
73700W        W35066   1.825  20.664  12.871
73701W        W35067  19.592   3.739   0.866
73702W        W35068  15.725  38.467   2.313
73703W        W35069  25.682  27.077  13.535
73704W        W35070  15.720  24.154   4.638
73705W        W35071   8.391  41.012   0.254
73706W        W35072  37.440  17.281   2.858
73707W        W35073  36.023  29.553  13.422
73708W        W35074  38.866  17.771  14.424
73709W        W35075   5.843  29.067  10.421
73710W        W35076   8.224  31.055  14.395
73711W        W35077  39.456  24.180  12.910
73712W        W35078  32.932  13.147   3.376
73713W        W35079   8.763  28.063  12.424
73714W        W35080   7.240  34.999  14.826
73715W        W35081  41.500  17.789  13.394
73716W        W35082   5.337  35.944  12.368
73717W        W35083   0.303  20.139   3.385
73718W        W35084  27.971   1.459   3.176
73719W        W35085  40.055  43.441   3.722
73720W        W35086  35.924  12.306  10.918
73721W        W35087  29.636  13.240  10.984
73722W        W35088  22.545  15.587  13.360
73723W        W35089   7.810   8.855  14.991
73724W        W35090  31.049  37.577  12.033
73725W        W35091  44.464  39.333  12.577
73726W        W35092  18.550  10.308  11.570
73727W        W35093  17.267  10.731   0.781
73728W        W35094  26.957  34.420   0.734
73729W        W35095  27.686  19.239  12.861
73730W        W35096  32.514  13.227  10.521
73731W        W35097   7.700   6.785  10.083
73732W        W35098  21.655   9.332  10.560
73733W        W35099  19.270   5.260   4.636
73734W        W35100   8.235  40.383  14.286
73735W        W35101  29.116  19.682   9.587
73736W        W35102  44.911  33.015  13.421
73737W        W35103  22.248  27.542   3.250
73738W        W35104  18.749  44.831   3.292
73739W        W35105  39.994  23.108  12.049
73740W        W35106  13.330  33.891   0.295
73741W        W35107  23.008  41.395   0.303
73742W        W35108   5.251  21.555  13.381
73743W        W35109  35.440  36.930  14.454
73744W        W35110   2.851  22.119  12.391
73745W        W35111   8.175  12.734   2.787
73746W        W35112  43.020   9.207   1.906
73747W        W35113  15.669   4.938  12.433
73748W        W35114  35.581   1.766  13.539
73749W        W35115  38.845  33.056  13.991
73750W        W35116   2.915   5.295  14.827
73751W        W35117  12.338   3.830  12.955
73752W        W35118  40.351   1.942  13.414
73753W        W35119   9.849  24.992  13.830
73754W        W35120  31.618   4.851   3.177
73755W        W35121  38.024  27.541   3.190
73756W        W35122  40.516  14.151   2.876
73757W        W35123   5.313   2.430   1.429
73758W        W35124  35.389  37.043   4.264
73759W        W35125  18.609  13.712   4.689
73760W        W35126   8.762  10.842  13.510
73761W        W35127  31.514  22.031   0.259
73762W        W35128   4.901  20.644   2.731
73763W        W35129  25.975  44.895  12.051
73764W        W35130   5.913  39.379   0.271
73765W        W35131  14.270  13.620   9.985
73766W        W35132   6.785  42.488   3.689
73767W        W35133  23.032   1.382   4.712
73768W        W35134  25.501  35.079   2.180
73769W        W35135  20.716   9.255   4.726
73770W        W35136  37.995  12.272   1.309
73771W        W35137  34.396   7.782   2.383
73772W        W35138   8.205  18.747  14.809
73773W        W35139   2.284   9.864  14.291
73774W        W35140  20.545  37.067  13.062
73775W        W35141  30.441  28.158   2.879
73776W        W35142  28.114  28.642   3.767
73777W        W35143  34.060  17.097  10.469
73778W        W35144  40.979  18.076   2.680
73779W        W35145   0.324  42.400   4.704
73780W        W35146  14.121  38.926   2.261
73781W        W35147  18.249  23.090  12.896
73782W        W35148  30.948  36.407   0.293
73783W        W35149  17.668  33.956  12.357
73784W        W35150  38.871  22.713  14.457
73785W        W35151  29.023  10.161   1.829
73786W        W35152   7.310  12.700   0.469
73787W        W35153   5.230  16.764  12.481
73788W        W35154  29.981  34.413  11.441
73789W        W35155  12.720  26.677  13.967
73790W        W35156   7.196  21.172   2.349
73791W        W35157  29.519  29.989  13.822
73792W        W35158  37.940  34.048   1.222
73793W        W35159  17.650  28.623  12.391
73794W        W35160  40.435  11.756   1.277
73795W        W35161  36.041   2.747   1.361
73796W        W35162   1.244  31.460   0.432
73797W        W35163   5.744   3.834   2.810
73798W        W35164  18.280  31.989   0.912
73799W        W35165  37.896  24.977  10.612
73800W        W35166  43.315  11.858  12.419
73801W        W35167  27.631  40.882   3.386
73802W        W35168  35.932  17.620  13.535
73803W        W35169  33.892  25.104  14.990
73804W        W35170  35.507   1.895   0.452
73805W        W35171  32.929  41.990  14.297
73806W        W35172   3.348  29.598  13.502
73807W        W35173   2.445  42.365   0.786
73808W        W35174   1.269   9.165   2.840
73809W        W35175  16.311  20.585  12.398
73810W        W35176  21.106  12.233  10.449
73811W        W35177  28.066  15.680   4.203
73812W        W35178   6.206  25.482  12.982
73813W        W35179   0.371  24.175  14.371
73814W        W35180   6.428  21.065   4.203
73815W        W35181  21.062   5.797  11.592
73816W        W35182   3.907   2.807   3.239
73817W        W35183  21.554  13.735  10.904
73818W        W35184  35.441   9.807  12.956
73819W        W35185   6.306  14.149  13.909
73820W        W35186  11.227  43.502   0.384
73821W        W35187   6.677  19.242  10.562
73822W        W35188   4.820  39.354   0.779
73823W        W35189  24.653  34.931   0.839
73824W        W35190  16.102   7.216   1.278
73825W        W35191  36.877  35.916  11.916
73826W        W35192  18.558   1.798  11.963
73827W        W35193  31.539  34.397   1.270
73828W        W35194  18.113  32.939  14.915
73829W        W35195  44.459  28.179   5.259
73830W        W35196   8.211  42.355  14.355
73831W        W35197  32.929  10.191  14.892
73832W        W35198  32.934  40.490  13.792
73833W        W35199  30.544  37.876   2.725
73834W        W35200   7.779  16.271  14.993
73835W        W35201  12.291  23.218  13.961
73836W        W35202  43.878  16.292  13.461
73837W        W35203  42.399  19.099   2.390
73838W        W35204  10.654  31.523   2.679
73839W        W35205  35.482   6.355  14.001
73840W        W35206  31.639  32.931  11.932
73841W        W35207  18.258  21.544   0.258
73842W        W35208   1.299   1.417  11.468
73843W        W35209   9.316   8.839   0.766
73844W        W35210   3.883   2.424   2.826
73845W        W35211  15.669  29.087   3.341
73846W        W35212  15.739  25.129   0.928
73847W        W35213  36.990  25.690  11.922
73848W        W35214  22.073   9.361   1.273
73849W        W35215  28.476  15.183   2.229
73850W        W35216  26.586  21.250  10.973
73851W        W35217  13.826   6.220   3.154
73852W        W35218  39.896  14.763  11.888
73853W        W35219   1.947   5.734   1.292
73854W        W35220   8.376   4.937   2.859
73855W        W35221  25.160  21.226  13.856
73856W        W35222  17.119  17.642  14.353
73857W        W35223  44.905  26.080   3.242
73858W        W35224   8.703  31.564   2.884
73859W        W35225   0.790   8.205  13.480
73860W        W35226   8.768  25.046  13.831
73861W        W35227   7.807  30.548  13.984
73862W        W35228  41.820  19.617  10.507
73863W        W35229  17.302  16.616   2.418
73864W        W35230   0.416  40.485   3.294
73865W        W35231  42.827  34.011   0.876
73866W        W35232  10.666  38.890   0.899
73867W        W35233  30.652  42.880  11.104
73868W        W35234   9.645  39.949   1.749
73869W        W35235  24.602  33.582   4.146
73870W        W35236   4.292   9.868  10.411
73871W        W35237  38.426  36.956  14.915
73872W        W35238  40.460  15.192  11.882
73873W        W35239   8.302  41.850   4.257
73874W        W35240  10.714  37.365   4.215
73875W        W35241   1.890  42.476  10.465
73876W        W35242  10.138  39.907   2.712
73877W        W35243   9.200  28.624   0.785
73878W        W35244  42.322  33.410  14.779
73879W        W35245  41.940  13.197  11.878
73880W        W35246  18.176  25.704  12.400
73881W        W35247  27.529  26.094   2.788
73882W        W35248  24.109   2.412  12.515
73883W        W35249  35.469   0.338  14.283
73884W        W35250  23.211  30.659  10.546
73885W        W35251  28.930   7.252  14.890
73886W        W35252  34.943   0.756  12.509
73887W        W35253  42.376  13.297   4.680
73888W        W35254   0.450  32.887  11.006
73889W        W35255   1.258   8.684   0.835
73890W        W35256   0.373  19.226  13.312
73891W        W35257  13.146   0.383   2.276
73892W        W35258  38.540  43.841  11.410
73893W        W35259  31.419   9.334   0.946
73894W        W35260  27.501  10.366   0.928
73895W        W35261   5.353  21.563   2.725
73896W        W35262  15.588  36.033  14.494
73897W        W35263  39.551   3.384  12.986
73898W        W35264  39.944  22.606  14.819
73899W        W35265   1.789  20.576   2.293
73900W        W35266  35.444  41.824  13.946
73901W        W35267  28.005  24.720   2.666
73902W        W35268  26.646  26.546  11.377
73903W        W35269  20.684  31.911   3.308
73904W        W35270   2.391   5.865  13.795
73905W        W35271  19.552   6.245  13.501
73906W        W35272  38.919  10.794  10.961
73907W        W35273  10.736  18.576   2.368
73908W        W35274  28.995  41.355   3.798
73909W        W35275  42.000   5.792  11.587
73910W        W35276  42.806  28.115   5.270
73911W        W35277  12.854  16.755   1.305
73912W        W35278  12.636  33.596   3.233
73913W        W35279  34.871  28.614   2.857
73914W        W35280  37.842   4.213  11.482
73915W        W35281  19.638  21.550   3.834
73916W        W35282  30.151  11.736   3.859
73917W        W35283  14.757  25.963   2.691
73918W        W35284  13.740  29.965   2.405
73919W        W35285  40.876  37.505  12.941
73920W        W35286  18.137  12.697  10.114
73921W        W35287  30.526  44.004  14.925
73922W        W35288  35.459  23.169  14.909
73923W        W35289   6.384  14.264  10.592
73924W        W35290   1.869   9.343   3.781
73925W        W35291  18.113  33.976   0.737
73926W        W35292  18.151  23.524  12.413
73927W        W35293  44.875  38.909   3.283
73928W        W35294  44.467  37.080   3.708
73929W        W35295  29.050  33.892   2.352
73930W        W35296  40.892   8.743  12.028
73931W        W35297  40.511  11.228  13.907
73932W        W35298   7.300  28.589  13.443
73933W        W35299  34.119  32.035  10.157
73934W        W35300  14.594   0.763  11.107
73935W        W35301  16.694  44.760  12.508
73936W        W35302   5.921  33.919   1.370
73937W        W35303   6.730  42.527  11.532
73938W        W35304  14.668  42.967   1.883
73939W        W35305   6.196  16.094  10.489
73940W        W35306  29.049  30.579   2.224
73941W        W35307  10.273  36.894  12.455
73942W        W35308   7.199  11.275   1.247
73943W        W35309  30.433  19.611  12.511
73944W        W35310  12.810   4.266   2.324
73945W        W35311  38.437   1.773   4.262
73946W        W35312   2.725  44.461  10.413
73947W        W35313  24.622  41.478  12.386
73948W        W35314  38.419  25.133   3.201
73949W        W35315   3.847  20.188   4.332
73950W        W35316  16.183  25.038   4.339
73951W        W35317  10.222  27.127  13.852
73952W        W35318  26.088   9.740   2.291
73953W        W35319   6.777  35.529  11.386
73954W        W35320  30.019  21.705  13.040
73955W        W35321  20.599   1.482  11.943
73956W        W35322  22.664  20.234   1.932
73957W        W35323  25.135  32.395   3.212
73958W        W35324  37.431  41.943   9.997
73959W        W35325  40.337  40.984   3.726
73960W        W35326  29.531  27.517   5.195
73961W        W35327  19.161  31.065  12.009
73962W        W35328  23.505  37.361   3.385
73963W        W35329  13.683  44.349  14.997
73964W        W35330  16.675  38.872  13.369
73965W        W35331  17.760  31.519   3.694
73966W        W35332   1.739   3.718   3.864
73967W        W35333  43.877  32.418   3.844
73968W        W35334  36.875  42.961   3.168
73969W        W35335  37.949  15.285   2.399
73970W        W35336   6.774  31.019   3.193
73971W        W35337  10.704  16.726   2.310
73972W        W35338  15.164  41.403  14.770
73973W        W35339  15.176  34.904  11.123
73974W        W35340   0.254   4.433   3.202
73975W        W35341   0.855  40.469   1.245
73976W        W35342  26.697  30.926   3.796
73977W        W35343  36.379  25.503   1.267
73978W        W35344  35.965  19.610  11.015
73979W        W35345  14.340  17.104   2.287
73980W        W35346  10.253  32.419  12.486
73981W        W35347  14.788   2.254  14.310
73982W        W35348  23.987   2.446  12.835
73983W        W35349   6.834  34.940   4.152
73984W        W35350  38.485  43.782   1.824
73985W        W35351  23.044  11.731  10.938
73986W        W35352  33.539  10.178   2.412
73987W        W35353  26.007   5.898   1.832
73988W        W35354   7.398  26.957  13.432
73989W        W35355  39.365  23.576  13.992
73990W        W35356   9.348  19.625   1.306
73991W        W35357  35.458  22.508   2.758
73992W        W35358  39.063  32.123   0.935
73993W        W35359  44.907  19.674   1.247
73994W        W35360  30.087  42.301  12.533
73995W        W35361  36.407  14.645  13.383
73996W        W35362  43.916  10.671  13.938
73997W        W35363   1.827  41.411  10.628
73998W        W35364  41.376   1.434  12.512
73999W        W35365  36.569  34.015  14.352
74000W        W35366   0.895   0.949   2.211
74001W        W35367  32.514  33.132   2.751
74002W        W35368  35.906  39.389   0.749
74003W        W35369  27.482  37.061   2.840
74004W        W35370   0.812  38.447  13.828
74005W        W35371  31.137  16.241  13.819
74006W        W35372  37.869  21.652   4.223
74007W        W35373  14.261   1.263  14.275
74008W        W35374  15.748  25.644   3.385
74009W        W35375  27.540  28.135   0.773
74010W        W35376  21.532   3.753   9.522
74011W        W35377  24.211   8.189   1.935
74012W        W35378  21.134  11.622   5.213
74013W        W35379  37.385  23.095   0.727
74014W        W35380  36.962   6.340  14.354
74015W        W35381  21.225  25.982  14.490
74016W        W35382  19.132  29.449  13.793
74017W        W35383   8.175   4.895  13.924
74018W        W35384   8.227  24.189  14.800
74019W        W35385   6.832   1.304   4.802
74020W        W35386  34.903   1.948   4.169
74021W        W35387  27.184  40.402  11.391
74022W        W35388  29.035   1.819   2.724
74023W        W35389   9.843  18.097   0.295
74024W        W35390  12.731  43.018  14.484
74025W        W35391  40.930   7.814  11.474
74026W        W35392  42.911  26.012  11.982
74027W        W35393   9.716  17.246   2.749
74028W        W35394  33.533  42.029   3.335
74029W        W35395  18.070  13.842  13.906
74030W        W35396  32.498  10.750   1.389
74031W        W35397  21.138   8.852  13.529
74032W        W35398  22.503  12.827  12.027
74033W        W35399  38.392   5.277  12.876
74034W        W35400  24.987   7.698  12.555
74035W        W35401  13.815  39.934  11.933
74036W        W35402  15.108  10.830  10.547
74037W        W35403  20.612  43.323  13.431
74038W        W35404   2.924  32.065   0.298
74039W        W35405  41.981   6.731  14.412
74040W        W35406  21.146  26.549  12.429
74041W        W35407  23.555   8.656   1.315
74042W        W35408  13.144  44.439  14.324
74043W        W35409   5.395   4.387  12.009
74044W        W35410  39.992  26.100  12.018
74045W        W35411   8.794  43.917  14.802
74046W        W35412   5.693  35.453   0.923
74047W        W35413   9.330  38.467  11.931
74048W        W35414  11.276  42.504  14.470
74049W        W35415  17.789  40.996  13.914
74050W        W35416   9.368   1.803  13.469
74051W        W35417  43.815   1.743   2.185
74052W        W35418  38.074  34.369   1.213
74053W        W35419  20.098  21.095  13.036
74054W        W35420  30.498  42.469   3.166
74055W        W35421  35.580  17.078   4.832
74056W        W35422   5.717  21.685   0.907
74057W        W35423   5.746  12.131   2.339
74058W        W35424   9.284  16.228  10.606
74059W        W35425   3.751  18.061   3.347
74060W        W35426  22.586  25.212  10.596
74061W        W35427   0.302   4.902   4.286
74062W        W35428  41.995  15.611  12.016
74063W        W35429   5.781  12.362   4.125
74064W        W35430  38.544  44.276  12.826
74065W        W35431   3.893  39.931   2.336
74066W        W35432  38.972  28.977   2.777
74067W        W35433  35.570  20.557   0.479
74068W        W35434  29.044  36.885  13.023
74069W        W35435  37.012  23.655   2.303
74070W        W35436  25.158  36.027   2.234
74071W        W35437  39.066  27.980   1.332
74072W        W35438  32.944  24.979  13.317
74073W        W35439  15.734  10.298  11.106
74074W        W35440  11.270  22.716   0.767
74075W        W35441  21.081  32.009  11.530
74076W        W35442  14.718  12.319   1.917
74077W        W35443  26.554   2.734   1.924
74078W        W35444   5.898  27.531   3.755
74079W        W35445   1.432  20.149   4.119
74080W        W35446  32.058  43.802  10.552
74081W        W35447  44.838   7.410  12.456
74082W        W35448  37.999  33.979   4.207
74083W        W35449  30.954  32.893  11.506
74084W        W35450  25.556  20.043  13.955
74085W        W35451  16.234   8.668  11.937
74086W        W35452  18.200  42.354  11.978
74087W        W35453  43.884  22.118  11.065
74088W        W35454  33.492   2.295  14.792
74089W        W35455   9.173  14.589  12.038
74090W        W35456   3.358  33.569   1.292
74091W        W35457  22.540   4.342  10.973
74092W        W35458   9.810  22.616  11.514
74093W        W35459  14.279  34.452  10.576
74094W        W35460  18.761  37.050  11.495
74095W        W35461  25.581   9.855   0.474
74096W        W35462  21.195  23.567  13.930
74097W        W35463  10.261   6.786  11.959
74098W        W35464   2.398  18.679   4.675
74099W        W35465   5.715  32.617  13.964
74100W        W35466  32.562  15.720  14.021
74101W        W35467  44.847   8.900   1.754
74102W        W35468   7.693   4.920   1.388
74103W        W35469   0.831  17.658  12.947
74104W        W35470  41.429   7.772  12.882
74105W        W35471  22.147   0.813  13.334
74106W        W35472  14.137  38.442  10.528
74107W        W35473  27.596  10.836   2.697
74108W        W35474   4.939  28.039   1.725
74109W        W35475  34.031  41.372   9.945
74110W        W35476  26.680  37.895  14.370
74111W        W35477   8.297  13.319   3.261
74112W        W35478  41.348   8.271  14.964
74113W        W35479  30.045  12.720   3.711
74114W        W35480  22.596  41.807  12.390
74115W        W35481   2.965   2.855   2.222
74116W        W35482  41.877  29.169  11.534
74117W        W35483  36.889   8.352  11.894
74118W        W35484   8.195  41.517  14.449
74119W        W35485   5.717  24.554  10.603
74120W        W35486  14.187  43.837   4.351
74121W        W35487  44.917  28.564   2.854
74122W        W35488  26.000  30.648  11.452
74123W        W35489  12.260   5.877  10.483
74124W        W35490  13.214   6.208   4.148
74125W        W35491  10.859  35.938  11.872
74126W        W35492  30.099  36.525  13.956
74127W        W35493  42.966  34.929  12.564
74128W        W35494  11.660  39.540   1.218
74129W        W35495   3.425   0.916  12.979
74130W        W35496  20.692  13.348   2.725
74131W        W35497  43.378  37.553  12.353
74132W        W35498  38.413  12.119  13.399
74133W        W35499   0.309  40.022   0.243
74134W        W35500   4.356  20.085  13.526
74135W        W35501  26.033  18.154   3.239
74136W        W35502  28.007   8.806   2.379
74137W        W35503  22.508  32.105   2.184
74138W        W35504  16.255  39.971  12.843
74139W        W35505  33.610   1.947  11.111
74140W        W35506  38.522  43.995  13.482
74141W        W35507  42.298  35.920   3.201
74142W        W35508  41.927  42.828  10.594
74143W        W35509  37.354  14.226  11.881
74144W        W35510  44.295  43.831  14.502
74145W        W35511  36.008   0.313  12.427
74146W        W35512  28.460  36.478   3.816
74147W        W35513  18.135  10.658  14.824
74148W        W35514  20.592  12.828   3.697
74149W        W35515  20.537  28.999  13.031
74150W        W35516   6.268  28.439  13.022
74151W        W35517   6.190  16.094  14.388
74152W        W35518  16.648  34.083  11.980
74153W        W35519   2.453  22.016  12.507
74154W        W35520  31.969  12.145   2.291
74155W        W35521  15.617  44.258   4.769
74156W        W35522  24.608   8.891   4.253
74157W        W35523  21.568  41.828   3.716
74158W        W35524  18.726   2.414   2.195
74159W        W35525  28.610   8.750  14.889
74160W        W35526  24.028  42.906   1.827
74161W        W35527  18.228   9.304   0.934
74162W        W35528  35.454  44.962   4.839
74163W        W35529  19.063  12.706   0.435
74164W        W35530   4.349   5.891  13.007
74165W        W35531  19.585  19.550  14.957
74166W        W35532  16.136  32.017  12.504
74167W        W35533  13.189  37.542  14.808
74168W        W35534   1.460  11.639  14.851
74169W        W35535  20.741   2.866  12.465
74170W        W35536   7.319   8.277  13.821
74171W        W35537  43.871  29.557  10.511
74172W        W35538  44.757  36.974  12.830
74173W        W35539  22.601  40.506   0.888
74174W        W35540  25.550   3.364   5.237
74175W        W35541  14.805   1.269   3.296
74176W        W35542   4.819  34.041  14.031
74177W        W35543  35.040  25.667  12.444
74178W        W35544  41.495  17.205  14.371
74179W        W35545  13.153  24.548   4.830
74180W        W35546  15.627   4.430   4.782
74181W        W35547   0.965  40.843   1.772
74182W        W35548   0.378  30.096  11.587
74183W        W35549   7.381  39.325   2.679
74184W        W35550  34.503   0.925  13.929
74185W        W35551  42.391  15.291   2.779
74186W        W35552  40.312  32.137   3.822
74187W        W35553  39.412  18.220  14.915
74188W        W35554   4.214  33.541  10.464
74189W        W35555  18.081   8.300  10.507
74190W        W35556  36.365  17.072  10.555
74191W        W35557  27.123  13.202   1.814
74192W        W35558  17.292  34.604  11.081
74193W        W35559  15.802  17.712  11.114
74194W        W35560   9.884  19.055   3.239
74195W        W35561  43.355  28.062  11.974
74196W        W35562  17.291  20.080  12.965
74197W        W35563  44.300  32.953  10.127
74198W        W35564   8.869   7.270   2.349
74199W        W35565   5.758   3.805  10.933
74200W        W35566   1.786  22.217   1.901
74201W        W35567  20.632  32.474  14.894
74202W        W35568   4.926   5.217  13.546
74203W        W35569  16.715  12.257  12.557
74204W        W35570  28.458   8.398  12.567
74205W        W35571  37.530  35.456  13.946
74206W        W35572  27.466  40.913  12.825
74207W        W35573  27.950   0.488   2.801
74208W        W35574  24.116  17.075   4.780
74209W        W35575  11.814  26.030   0.269
74210W        W35576   5.355  39.428  12.427
74211W        W35577  21.037  39.354  12.438
74212W        W35578  16.638   0.283   2.835
74213W        W35579  19.714  40.417  13.404
74214W        W35580   0.961  39.845  12.522
74215W        W35581  36.512   7.847   0.861
74216W        W35582  24.010  33.579   0.790
74217W        W35583  20.099   3.930   2.783
74218W        W35584  28.929  26.145   2.406
74219W        W35585   5.871  26.458  13.534
74220W        W35586  35.990  40.991   0.880
74221W        W35587  36.022   3.387  14.396
74222W        W35588  44.758  11.336  10.941
74223W        W35589  24.619  37.498  11.381
74224W        W35590  35.572  44.473  10.443
74225W        W35591  22.243   7.210   2.298
74226W        W35592  25.479  42.330   1.729
74227W        W35593  12.667   6.198   4.796
74228W        W35594  41.938  24.055   1.876
74229W        W35595  43.506  43.420  11.983
74230W        W35596  20.230  12.765   0.274
74231W        W35597   5.896  16.114   0.790
74232W        W35598  34.370  22.698  13.845
74233W        W35599   9.218  14.676  14.498
74234W        W35600  23.203   9.173   3.193
74235W        W35601  21.137   4.430   4.675
74236W        W35602  11.369  24.542  13.452
74237W        W35603  27.468  38.067  13.499
74238W        W35604  28.448  29.538  10.926
74239W        W35605  39.469   6.380   2.731
74240W        W35606  37.015   7.709  14.781
74241W        W35607   0.761  35.370   0.300
74242W        W35608  21.136   2.787   0.416
74243W        W35609  23.068  32.893  14.840
74244W        W35610  13.170  37.029   2.725
74245W        W35611   2.960  34.607   4.620
74246W        W35612  13.768  25.128  14.433
74247W        W35613  25.133   1.897   2.346
74248W        W35614  28.179  23.172   3.848
74249W        W35615  37.520  25.707  14.978
74250W        W35616  32.546  13.639  12.912
74251W        W35617   6.891  28.666   1.439
74252W        W35618  38.528  30.547   1.324
74253W        W35619   4.850  28.995   3.347
74254W        W35620   7.212  24.565  11.501
74255W        W35621  15.665  18.733   3.692
74256W        W35622  24.637  16.219  11.541
74257W        W35623   7.798  29.947  14.509
74258W        W35624   2.293   2.329   4.635
74259W        W35625   0.961  44.825  14.291
74260W        W35626  31.056  10.195   2.728
74261W        W35627  11.648  19.044  13.034
74262W        W35628  22.693  21.199   2.742
74263W        W35629  33.910  26.676   2.868
74264W        W35630  31.969  23.704   3.834
74265W        W35631   3.366  13.812  12.931
74266W        W35632  26.136  14.718   1.217
74267W        W35633  27.949   0.880  11.981
74268W        W35634  13.267  37.385   3.269
74269W        W35635  42.853  10.742   4.156
74270W        W35636  43.351   1.270  11.077
74271W        W35637   2.374  37.073   1.393
74272W        W35638  40.830  43.886   4.125
74273W        W35639  44.821  10.159  14.387
74274W        W35640  27.542   5.904   0.271
74275W        W35641   5.812   0.438  11.554
74276W        W35642  32.552  39.985   2.821
74277W        W35643  39.518  25.009  13.311
74278W        W35644   5.759  12.746   2.707
74279W        W35645   9.727   1.438   1.791
74280W        W35646   7.248  32.526  13.009
74281W        W35647  42.800  14.255  10.485
74282W        W35648  12.224  21.637   4.132
74283W        W35649   4.331  32.900  14.937
74284W        W35650  44.432  43.492  10.465
74285W        W35651  43.775   2.950  14.302
74286W        W35652   4.811  41.966  12.580
74287W        W35653  37.531  34.555  12.994
74288W        W35654  43.473   5.431   0.278
74289W        W35655  15.796  29.048   4.838
74290W        W35656  17.220  14.157  11.500
74291W        W35657  29.462  24.225   4.741
74292W        W35658   1.321   7.206  14.499
74293W        W35659   4.925   2.444  11.991
74294W        W35660  21.644  31.901   4.792
74295W        W35661  35.030  17.265  13.512
74296W        W35662  12.770  24.042   0.854
74297W        W35663  27.668  20.173  10.892
74298W        W35664  32.026  10.227   5.187
74299W        W35665  39.927  23.726  10.977
74300W        W35666  38.039  28.069   1.805
74301W        W35667  44.329  19.547   1.239
74302W        W35668  30.091  35.501   1.913
74303W        W35669   4.935  13.702   3.809
74304W        W35670  22.611   6.783   0.908
74305W        W35671   1.380  11.348   2.258
74306W        W35672  43.870  12.337   2.706
74307W        W35673   4.901  34.399   2.236
74308W        W35674   7.270  14.206  13.387
74309W        W35675  32.422  17.629  14.910
74310W        W35676  31.638  16.608   2.869
74311W        W35677   8.899  16.113  14.301
74312W        W35678   7.836  13.694  11.912
74313W        W35679  21.592  32.911  10.903
74314W        W35680  12.821   6.407   4.333
74315W        W35681  13.196  29.542  10.431
74316W        W35682  21.609  40.012  11.960
74317W        W35683   1.288  29.021   0.921
74318W        W35684  15.130  20.187  11.086
74319W        W35685  44.304  35.490   0.916
74320W        W35686  11.685  40.317  14.825
74321W        W35687   6.761  19.249   5.155
74322W        W35688  18.785  33.596  11.522
74323W        W35689  15.142  28.648  12.832
74324W        W35690  23.680  23.630  10.466
74325W        W35691  18.292  36.987   1.302
74326W        W35692  19.599  18.709  14.952
74327W        W35693   9.680  38.049  13.319
74328W        W35694  32.425  43.373   3.357
74329W        W35695  32.080  40.907   4.127
74330W        W35696  30.023   3.897  12.433
74331W        W35697   8.395   1.858  12.510
74332W        W35698   0.897  39.424   2.378
74333W        W35699  20.628  15.814   0.734
74334W        W35700  41.979  14.170  13.814
74335W        W35701  25.035  36.401   4.634
74336W        W35702   1.863   9.346   1.323
74337W        W35703  12.186  28.581   1.443
74338W        W35704  16.580  44.352   4.217
74339W        W35705  20.114   2.954   2.214
74340W        W35706  23.496  39.437   3.209
74341W        W35707  12.124  12.147  11.466
74342W        W35708   2.262  26.094  12.354
74343W        W35709  21.682   6.793  11.918
74344W        W35710  35.083  30.472   0.735
74345W        W35711   6.325  33.568  13.037
74346W        W35712  18.642  38.923  12.919
74347W        W35713  36.873  22.116   4.226
74348W        W35714  38.379   0.483   3.272
74349W        W35715  19.057   0.282   4.835
74350W        W35716  11.344  38.859  12.836
74351W        W35717  44.338  11.687  11.421
74352W        W35718   0.465  35.531   4.645
74353W        W35719   7.285  35.362  10.448
74354W        W35720   9.240   0.971   3.334
74355W        W35721  16.268  25.150  14.874
74356W        W35722  41.934  29.042  14.293
74357W        W35723  35.871  19.612  10.419
74358W        W35724  11.141  33.104   1.848
74359W        W35725   8.405  27.039  10.491
74360W        W35726  25.577  34.112   0.316
74361W        W35727  38.386  36.012  13.813
74362W        W35728  39.455  43.301   0.335
74363W        W35729   3.804  31.622   3.295
74364W        W35730   7.257  25.557   2.397
74365W        W35731  25.027  18.051  13.876
74366W        W35732  19.053  28.975   3.277
74367W        W35733  23.621  35.888   4.743
74368W        W35734  24.195  24.055   1.864
74369W        W35735  13.707  36.021  11.393
74370W        W35736   5.296   8.779  14.372
74371W        W35737  25.220   7.377   4.261
74372W        W35738  43.491  29.943  13.933
74373W        W35739   1.887  19.711   3.243
74374W        W35740   8.170  22.701   0.762
74375W        W35741  34.924   4.708  14.379
74376W        W35742   1.313   2.273  12.923
74377W        W35743  40.487  18.101  14.454
74378W        W35744  43.293  17.721  14.467
74379W        W35745  39.869  39.922   0.338
74380W        W35746  22.725  34.449  12.827
74381W        W35747  11.235  26.548   5.115
74382W        W35748  11.717  15.192  12.922
74383W        W35749  36.477   9.883  11.939
74384W        W35750   0.362  32.925  12.934
74385W        W35751  40.033  27.641  11.885
74386W        W35752  17.224   6.896  14.864
74387W        W35753   1.934  38.510   1.852
74388W        W35754  20.739  26.190  10.422
74389W        W35755  12.772  16.211   1.280
74390W        W35756  30.523  24.642  12.455
74391W        W35757  12.190  17.734   1.785
74392W        W35758  13.194  28.680   3.665
74393W        W35759  30.033  18.683  12.572
74394W        W35760  18.281  16.122  14.422
74395W        W35761  35.004  14.812   0.301
74396W        W35762  12.676   9.351   1.846
74397W        W35763  35.438   6.741   3.859
74398W        W35764  29.038  13.265  14.283
74399W        W35765  42.367  13.306   1.335
74400W        W35766  20.759   3.322  10.585
74401W        W35767   9.392  17.665  14.867
74402W        W35768  42.364  31.115   3.203
74403W        W35769  15.714  10.769  11.992
74404W        W35770  40.892   0.424  12.535
74405W        W35771  10.187  34.483   1.362
74406W        W35772  29.077   9.697  14.330
74407W        W35773  34.879  30.575  14.906
74408W        W35774  34.513  42.447   4.175
74409W        W35775  43.445   9.727   2.693
74410W        W35776  27.009  18.573  13.396
74411W        W35777  13.291  35.415   4.279
74412W        W35778  34.544  20.657  14.415
74413W        W35779  14.286   7.671   0.370
74414W        W35780  42.926  38.382   1.788
74415W        W35781   1.789  16.784  14.470
74416W        W35782  31.013  30.544  14.507
74417W        W35783  23.562  35.955   1.211
74418W        W35784   3.850  43.968  12.014
74419W        W35785  12.732  23.704   1.846
74420W        W35786   5.748  11.861   0.321
74421W        W35787  12.346   1.734   3.217
74422W        W35788  14.696  35.062   4.297
74423W        W35789  31.622  43.411   0.921
74424W        W35790  25.183  14.697  13.983
74425W        W35791  44.936  44.487   3.650
74426W        W35792   0.396  42.964   2.415
74427W        W35793  36.981  11.351  12.073
74428W        W35794  18.289   7.763   3.240
74429W        W35795  37.405  39.999  12.402
74430W        W35796  17.257  29.588  10.898
74431W        W35797  23.189  44.367   3.831
74432W        W35798  33.096  12.754  12.069
74433W        W35799  23.614  20.689   0.825
74434W        W35800   0.383  36.946   4.767
74435W        W35801  21.712  33.518  10.986
74436W        W35802  25.711  20.060  10.544
74437W        W35803  39.818   9.167  14.758
74438W        W35804   6.714  24.032  13.468
74439W        W35805  36.897  26.631  12.345
74440W        W35806  13.826   7.327   1.798
74441W        W35807  26.173  11.848  13.045
74442W        W35808   1.273  26.970  12.055
74443W        W35809  43.843  41.829   4.279
74444W        W35810   0.251  40.388  14.305
74445W        W35811  28.516  38.921  14.503
74446W        W35812  23.026  23.189   1.340
74447W        W35813  33.613   1.743   3.157
74448W        W35814  24.517   0.361  11.931
74449W        W35815  13.306  15.788   0.260
74450W        W35816   2.361  16.587   0.921
74451W        W35817  11.258   3.279  13.948
74452W        W35818   0.954  19.759   0.956
74453W        W35819  15.597  34.558  14.801
74454W        W35820  44.910  43.829  13.793
74455W        W35821  11.256  19.762   2.696
74456W        W35822  42.389   8.354  12.053
74457W        W35823   9.232  18.069  10.090
74458W        W35824  39.851   0.875   3.654
74459W        W35825   6.196  33.575  12.355
74460W        W35826  44.974  18.773  14.885
74461W        W35827  19.741  12.716  14.323
74462W        W35828  43.880  22.124   2.739
74463W        W35829   4.272  35.916  11.529
74464W        W35830  23.551  36.560   4.835
74465W        W35831   6.252  39.057  11.975
74466W        W35832  24.009  42.933  12.440
74467W        W35833  44.419  41.038  12.999
74468W        W35834  30.588  39.048   0.730
74469W        W35835  16.614  18.207  10.405
74470W        W35836   7.770  11.754  13.487
74471W        W35837  13.213  23.105  12.417
74472W        W35838   1.811  31.069  13.952
74473W        W35839  22.128  38.425   1.353
74474W        W35840   4.750  12.200  12.071
74475W        W35841  32.048  30.593  13.398
74476W        W35842  11.809  28.468  12.976
74477W        W35843  37.934  40.884   2.346
74478W        W35844  30.446  35.532   1.377
74479W        W35845   7.734  40.496   0.453
74480W        W35846  42.308  23.241   4.691
74481W        W35847  36.522  12.352  10.536
74482W        W35848  12.776  21.263   4.320
74483W        W35849   2.721  18.198  13.517
74484W        W35850  34.447  18.175  10.981
74485W        W35851  11.797  28.113  11.080
74486W        W35852  14.150  18.711   3.342
74487W        W35853  31.593  19.280  12.542
74488W        W35854  17.227   9.265   2.839
74489W        W35855  33.606   7.693  13.038
74490W        W35856  28.118  27.481   3.235
74491W        W35857   5.358  20.077  12.551
74492W        W35858  31.969  13.723   0.268
74493W        W35859   8.245  21.141  11.028
74494W        W35860   1.300  22.242   1.423
74495W        W35861  16.111  23.556  11.975
74496W        W35862   6.794  11.232  14.382
74497W        W35863  29.668  25.140   3.761
74498W        W35864  29.516  19.285   3.229
74499W        W35865  26.110  31.626   5.711
74500W        W35866  29.962  31.633  11.590
74501W        W35867   7.325  35.487   4.805
74502W        W35868  14.322  34.513  14.914
74503W        W35869  27.955  27.977  14.851
74504W        W35870   6.733  42.998  11.373
74505W        W35871  19.561  27.625  10.478
74506W        W35872  37.933  39.498   3.639
74507W        W35873   1.366  17.609   0.297
74508W        W35874   1.290   2.733  14.412
74509W        W35875  38.824  21.216  12.903
74510W        W35876  29.152  18.603   3.362
74511W        W35877  14.822   7.232   3.701
74512W        W35878  41.975  26.607  13.346
74513W        W35879  28.453   0.821  13.827
74514W        W35880  44.796  39.531   4.609
74515W        W35881   5.319  33.542  10.541
74516W        W35882  31.448  36.848  13.853
74517W        W35883  22.251   2.927   3.307
74518W        W35884  38.916  24.521   3.238
74519W        W35885  24.606  40.886   2.870
74520W        W35886  37.351  44.464  13.430
74521W        W35887  28.955  32.060   4.814
74522W        W35888  24.142  36.879   0.326
74523W        W35889  26.513  12.302  12.555
74524W        W35890   4.846  19.552   2.237
74525W        W35891  10.693  16.217  11.401
74526W        W35892  10.316   5.746   2.883
74527W        W35893  19.564  26.036  14.489
74528W        W35894  21.061  37.381  12.465
74529W        W35895  26.677  17.246   1.278
74530W        W35896  38.443  41.837   3.154
74531W        W35897  41.905  35.395  13.468
74532W        W35898  34.109  26.587  13.833
74533W        W35899  19.263  19.259  11.401
74534W        W35900   2.316  23.526  10.512
74535W        W35901  25.555  17.240  14.943
74536W        W35902  18.700  15.690   3.262
74537W        W35903  42.349  10.260  14.859
74538W        W35904   2.472  37.565  13.414
74539W        W35905  11.252  31.455   9.488
74540W        W35906  40.811  31.931  12.384
74541W        W35907  23.151  28.947  10.638
74542W        W35908  39.331  18.201  11.961
74543W        W35909   6.808  15.221   2.759
74544W        W35910  44.321  33.892   3.632
74545W        W35911  29.516  40.480  11.948
74546W        W35912   2.437  36.028   1.398
74547W        W35913  30.161  32.034   3.345
74548W        W35914  22.086  10.170  12.564
74549W        W35915  42.810   0.271  12.448
74550W        W35916  33.444  13.105  14.814
74551W        W35917  20.087  24.137   0.469
74552W        W35918   2.854  40.392   3.659
74553W        W35919  38.043  44.811  10.626
74554W        W35920  11.808  39.031   5.179
74555W        W35921  18.075  12.129  12.506
74556W        W35922   3.845  42.021  11.926
74557W        W35923   9.185  25.480   3.155
74558W        W35924  28.529  22.553   4.711
74559W        W35925  39.506  14.722   2.795
74560W        W35926  40.026  37.021   0.771
74561W        W35927  16.695  30.562   3.837
74562W        W35928   7.797  37.841   3.630
74563W        W35929   4.792  32.398  12.471
74564W        W35930  14.642  23.027   2.855
74565W        W35931  30.635  19.539   3.812
74566W        W35932  41.517  19.672   4.237
74567W        W35933  27.466  11.777   1.704
74568W        W35934   7.291  16.732   2.180
74569W        W35935  25.626  32.986  13.950
74570W        W35936   8.754  30.471   2.237
74571W        W35937  17.092  40.840  14.828
74572W        W35938  29.154  22.720   2.734
74573W        W35939  17.725  24.656  13.507
74574W        W35940  35.895  15.250  10.492
74575W        W35941  26.193  13.838  13.337
74576W        W35942   4.769  27.050   4.248
74577W        W35943  43.946  13.658   0.904
74578W        W35944  35.569  18.133  12.851
74579W        W35945  30.967  36.973   3.827
74580W        W35946   8.183  38.847   2.864
74581W        W35947  36.512  26.061   4.113
74582W        W35948  20.638  28.030  10.946
74583W        W35949  22.687  19.584  14.352
74584W        W35950  31.542  42.404   4.128
74585W        W35951  38.056   5.784   2.672
74586W        W35952  42.308  13.697   2.315
74587W        W35953  29.025  38.952  11.447
74588W        W35954  13.679   5.402  13.470
74589W        W35955  25.988  23.004   2.819
74590W        W35956  19.735  41.881   2.263
74591W        W35957  25.031  22.209  11.982
74592W        W35958  38.369  10.732   2.702
74593W        W35959  38.075  36.394   2.186
74594W        W35960  32.135  31.629   0.431
74595W        W35961  22.164  21.515  13.537
74596W        W35962  35.887  14.604  10.570
74597W        W35963   1.257  40.956  14.983
74598W        W35964  16.239  20.179  11.999
74599W        W35965  38.934  39.825  14.507
74600W        W35966  41.314  23.539  13.348
74601W        W35967  37.484  15.120  11.543
74602W        W35968  24.490  37.549   2.221
74603W        W35969  32.918  43.771   0.926
74604W        W35970  30.159  37.874   1.841
74605W        W35971   9.794  14.190  13.410
74606W        W35972  15.233  30.628   3.779
74607W        W35973  16.662  28.472  12.573
74608W        W35974  12.357  22.601  13.801
74609W        W35975  41.502   8.849  13.969
74610W        W35976  15.820  27.069   2.280
74611W        W35977  39.394  33.415   0.869
74612W        W35978  34.905  38.550  10.615
74613W        W35979  38.498  32.033   4.644
74614W        W35980  43.305  22.197  14.314
74615W        W35981  16.717  41.323  11.082
74616W        W35982  35.020  42.861   1.880
74617W        W35983   4.336   9.354   2.690
74618W        W35984  22.079  34.575  13.421
74619W        W35985  21.740  26.053  10.592
74620W        W35986   0.360  32.950  11.959
74621W        W35987  16.140  28.065  12.024
74622W        W35988  28.636  31.056   2.672
74623W        W35989  43.311   0.314  10.440
74624W        W35990  42.365  40.810   2.398
74625W        W35991   7.776  25.991   1.891
74626W        W35992  37.433  41.891  14.320
74627W        W35993  27.493  34.546  14.985
74628W        W35994   2.352  39.945  12.977
74629W        W35995  43.807  23.201  14.329
74630W        W35996  17.716  39.053   0.866
74631W        W35997  22.728   9.269   2.881
74632W        W35998  43.882  16.723  14.020
74633W        W35999   0.464  36.418  14.910
74634W        W36000  21.089  17.170   0.481
74635W        W36001  40.528  13.655   3.316
74636W        W36002  18.213  41.829   4.130
74637W        W36003  20.541   5.795  14.950
74638W        W36004  40.893  31.926   2.813
74639W        W36005  36.926  35.011   1.755
74640W        W36006  27.183  18.277   4.132
74641W        W36007  14.816  30.464  14.803
74642W        W36008   8.691  37.983   5.190
74643W        W36009  22.070  31.067   1.318
74644W        W36010  33.463  42.303  12.516
74645W        W36011   5.855  25.062   2.714
74646W        W36012  18.645  43.820  12.876
74647W        W36013  38.995   4.910  13.358
74648W        W36014  11.865  15.251  14.819
74649W        W36015  23.236  34.544   2.853
74650W        W36016   1.245  32.913   0.357
74651W        W36017  34.424  10.814   4.751
74652W        W36018   9.806  39.496   3.147
74653W        W36019  33.552  37.992   5.284
74654W        W36020  27.189  32.473  10.590
74655W        W36021  21.687  24.010   0.748
74656W        W36022   5.703  22.710  14.464
74657W        W36023  10.256  15.652   0.417
74658W        W36024   8.681   5.825   3.291
74659W        W36025   0.461  10.763  12.000
74660W        W36026   2.750  14.112  12.057
74661W        W36027   2.856  43.916  10.936
74662W        W36028  15.271  31.035   4.711
74663W        W36029  13.806   7.849   3.822
74664W        W36030   2.278  21.714   4.203
74665W        W36031  42.878  25.165   0.424
74666W        W36032   2.954   5.219  11.083
74667W        W36033  29.006  32.573   0.895
74668W        W36034  10.714  29.558   4.334
74669W        W36035  41.347   2.287  13.892
74670W        W36036  15.657  37.930   0.424
74671W        W36037  35.405  17.137   0.896
74672W        W36038  29.975  20.180  13.440
74673W        W36039  37.542  23.579  10.519
74674W        W36040  21.106   4.709  12.007
74675W        W36041   4.719  27.597   2.285
74676W        W36042   2.440   9.770   4.651
74677W        W36043  24.662  23.212  12.566
74678W        W36044  35.432  20.620  13.313
74679W        W36045  30.065  18.686   3.279
74680W        W36046  21.519  32.078  14.914
74681W        W36047  40.344  13.283   3.314
74682W        W36048   0.857  16.272  13.547
74683W        W36049  22.707  20.550   0.345
74684W        W36050  31.986  39.453  11.867
74685W        W36051  40.024   2.741  13.896
74686W        W36052  28.435  40.053  14.443
74687W        W36053  43.843  42.014   4.720
74688W        W36054  20.606  13.659   0.926
74689W        W36055  28.145  40.487   1.699
74690W        W36056  28.186  43.499   1.284
74691W        W36057   0.443  26.614   3.229
74692W        W36058  30.912  36.457  11.608
74693W        W36059  11.667  35.414   0.364
74694W        W36060  44.978  33.510  10.522
74695W        W36061  18.243  31.422  13.490
74696W        W36062  17.209  43.315   3.814
74697W        W36063  31.644   2.260  12.854
74698W        W36064   8.763   7.856  13.006
74699W        W36065  21.061  38.566   4.614
74700W        W36066  36.996  21.182   0.281
74701W        W36067  32.916  35.604   1.844
74702W        W36068  14.701  42.521   3.313
74703W        W36069   3.350  18.128   9.542
74704W        W36070  15.312   6.908  10.912
74705W        W36071  38.037  39.868   4.642
74706W        W36072   4.816   6.407  14.861
74707W        W36073  29.428  21.614  11.963
74708W        W36074  28.632  22.132   0.381
74709W        W36075  24.130  26.025  13.040
74710W        W36076  44.441  10.263   2.774
74711W        W36077  23.555  41.376   0.918
74712W        W36078  33.084  22.512   3.353
74713W        W36079  16.102  37.915   2.405
74714W        W36080  13.332  10.704   3.385
74715W        W36081  27.098  20.095  14.911
74716W        W36082  13.843  27.531  12.386
74717W        W36083   4.911  21.728   1.745
74718W        W36084   2.254  23.100  14.802
74719W        W36085   9.652  16.305  12.825
74720W        W36086  35.013  38.476   1.398
74721W        W36087  34.570   8.237  12.543
74722W        W36088  18.589  19.664   2.282
74723W        W36089  32.046  15.218   3.826
74724W        W36090  37.947  22.652  13.900
74725W        W36091  40.993  38.532   3.213
74726W        W36092   1.286  19.179   0.314
74727W        W36093  21.259   3.250   2.347
74728W        W36094  28.603  31.020   5.110
74729W        W36095  38.018  10.234   4.253
74730W        W36096  19.184  33.958  11.430
74731W        W36097   0.464  24.534  10.425
74732W        W36098  19.757  36.996   0.910
74733W        W36099   3.449  21.750   1.816
74734W        W36100  12.655   8.662   3.631
74735W        W36101  21.671  37.003  10.069
74736W        W36102  25.999  31.905  14.299
74737W        W36103  43.512   1.246   4.666
74738W        W36104  21.643   1.878   1.785
74739W        W36105  16.765  26.193   0.873
74740W        W36106  44.457  31.087  10.056
74741W        W36107  44.284  34.590   5.219
74742W        W36108  25.984  30.057   4.140
74743W        W36109  19.277  14.835   2.341
74744W        W36110   4.848  31.458   2.715
74745W        W36111  13.677   1.392  11.859
74746W        W36112  36.944  31.437   1.824
74747W        W36113   2.849  29.626  13.527
74748W        W36114  12.659  40.953  10.513
74749W        W36115  42.497  42.962  13.974
74750W        W36116  11.637  43.953   2.889
74751W        W36117  22.591  17.114  13.056
74752W        W36118  11.353   0.907  12.490
74753W        W36119  12.715  10.235  11.068
74754W        W36120   8.169  13.279   4.178
74755W        W36121  31.952  19.725  14.435
74756W        W36122  27.077  14.611   2.733
74757W        W36123   4.803  31.603   1.742
74758W        W36124  35.060  33.118  11.126
74759W        W36125   3.332  32.060  14.032
74760W        W36126   9.831   2.801  10.557
74761W        W36127  10.698   1.892  11.054
74762W        W36128  13.841   6.698   4.263
74763W        W36129   1.268  22.064   4.251
74764W        W36130  11.721  39.545  13.498
74765W        W36131  31.908  11.340   2.284
74766W        W36132   4.875  44.769   0.949
74767W        W36133  20.560  10.818   3.772
74768W        W36134  36.037  17.780  10.606
74769W        W36135  35.380  32.090  12.093
74770W        W36136  21.197   2.412  11.520
74771W        W36137   0.394  30.600   1.353
74772W        W36138   5.752  40.348   0.737
74773W        W36139   1.323  27.137   3.327
74774W        W36140   3.909  40.878   0.477
74775W        W36141   4.776  27.456  11.997
74776W        W36142  20.141  28.471   3.147
74777W        W36143   9.321  34.605  12.374
74778W        W36144  34.520  18.638   0.921
74779W        W36145  28.966  12.353  14.859
74780W        W36146  22.066  44.396   0.292
74781W        W36147   0.844  13.280  10.593
74782W        W36148  26.029   8.385   2.291
74783W        W36149  16.572  21.071  12.093
74784W        W36150  24.548  16.175  10.525
74785W        W36151  11.711  11.761  11.107
74786W        W36152  40.052   7.677  12.081
74787W        W36153  42.357  26.508   1.705
74788W        W36154  24.646  37.966   1.314
74789W        W36155  32.513   6.389   0.783
74790W        W36156  38.926   3.308  12.850
74791W        W36157  21.639  27.011   4.223
74792W        W36158  42.443  13.668  14.987
74793W        W36159   3.946  36.984  14.377
74794W        W36160  23.550  10.300  11.936
74795W        W36161  15.246  42.420  13.836
74796W        W36162  41.538  38.988  14.470
74797W        W36163  25.603  20.730   2.812
74798W        W36164  30.988  12.261   2.349
74799W        W36165   7.822  29.026  14.912
74800W        W36166  39.436  12.775   4.283
74801W        W36167  29.936   1.447  13.942
74802W        W36168  41.879  38.046  12.523
74803W        W36169  17.237   2.967  11.384
74804W        W36170   7.339   7.352  14.908
74805W        W36171  43.444   3.442  14.299
74806W        W36172  36.520  20.755   1.252
74807W        W36173  33.541  42.842   2.262
74808W        W36174   1.380  40.318   2.181
74809W        W36175  22.547  28.048   9.948
74810W        W36176  13.214  36.515   2.758
74811W        W36177  23.525  13.635   3.745
74812W        W36178  28.636  39.463  14.338
74813W        W36179  44.378   8.353   4.190
74814W        W36180  38.928  25.530   1.894
74815W        W36181  24.112   6.391   4.800
74816W        W36182  18.170  16.655   3.641
74817W        W36183  10.145  33.547  14.500
74818W        W36184  19.040  43.270   1.899
74819W        W36185  36.577  39.503   1.880
74820W        W36186  39.386  30.625  14.338
74821W        W36187   0.959  18.761   4.704
74822W        W36188  18.565  14.161   1.391
74823W        W36189  16.643  44.263   0.868
74824W        W36190  25.514  25.670  13.979
74825W        W36191   1.355  15.303   4.833
74826W        W36192   8.699  32.404  14.481
74827W        W36193  23.023  40.428  11.056
74828W        W36194  33.981  17.253  12.047
74829W        W36195   2.785  26.051  14.863
74830W        W36196   8.712  31.015   0.320
74831W        W36197  40.970  44.848  12.430
74832W        W36198   4.940  22.674  14.868
74833W        W36199  34.061  31.050   0.379
74834W        W36200  37.339  42.342  11.577
74835W        W36201  24.639  16.721   2.416
74836W        W36202  37.507  12.286   1.711
74837W        W36203  19.103  23.104  10.479
74838W        W36204  37.049  24.206   4.650
74839W        W36205  24.688  39.417   3.151
74840W        W36206   4.705  24.605  12.958
74841W        W36207  40.992   6.287   2.368
74842W        W36208  42.994  28.075   0.810
74843W        W36209  11.865   3.752  12.925
74844W        W36210  25.071  15.806  12.409
74845W        W36211  13.627   2.335   1.731
74846W        W36212  42.320  21.141   1.830
74847W        W36213  32.957  24.081  12.448
74848W        W36214   2.879  36.477  13.872
74849W        W36215   2.295  24.684   4.123
74850W        W36216  30.140  10.828   0.299
74851W        W36217  16.705  17.267  11.102
74852W        W36218  10.175  31.582  14.971
74853W        W36219  43.457   3.738  11.435
74854W        W36220   4.894  22.031   3.851
74855W        W36221   2.432  31.008  10.442
74856W        W36222  35.073   3.439   0.911
74857W        W36223  10.368   5.328   0.405
74858W        W36224   9.195  21.594   2.886
74859W        W36225  12.724   9.181   4.782
74860W        W36226  16.284  13.642  14.794
74861W        W36227  39.876   8.779  10.067
74862W        W36228  30.543  25.980  13.509
74863W        W36229  29.985  26.533   0.340
74864W        W36230  39.997  38.879   2.350
74865W        W36231   7.318  44.782  13.363
74866W        W36232   9.383  24.549  10.437
74867W        W36233  41.415  34.973   2.773
74868W        W36234  39.852  42.020   1.419
74869W        W36235  33.424  38.413  12.415
74870W        W36236   9.352  35.100   4.698
74871W        W36237  16.237   8.662  10.508
74872W        W36238  10.793  26.678   3.189
74873W        W36239  36.042  37.015  13.415
74874W        W36240   6.817  40.365  14.913
74875W        W36241  22.547  16.212  10.603
74876W        W36242   0.799  26.205  13.483
74877W        W36243  33.879  19.052   4.728
74878W        W36244  34.568   7.292   1.752
74879W        W36245  26.569  33.407  11.535
74880W        W36246  12.681  15.716   1.882
74881W        W36247  12.723  32.886  13.508
74882W        W36248  16.745  10.271  11.957
74883W        W36249  21.674  26.463  10.009
74884W        W36250  36.545  11.267   2.224
74885W        W36251  26.151   8.840   1.746
74886W        W36252   2.338  37.471  13.031
74887W        W36253   5.735  43.780   1.235
74888W        W36254  19.656   4.436   1.733
74889W        W36255  20.107  35.361  13.388
74890W        W36256   9.165  35.944   1.227
74891W        W36257   8.676  29.579   2.665
74892W        W36258   6.898  44.483  12.506
74893W        W36259  10.836  22.625   2.353
74894W        W36260  16.614  12.814   1.312
74895W        W36261  21.120  11.810   2.821
74896W        W36262  30.955  18.062  10.936
74897W        W36263  37.048  20.271   4.140
74898W        W36264  26.970   2.927  14.301
74899W        W36265  18.156  35.967   2.759
74900W        W36266  13.625  43.452  11.121
74901W        W36267  27.654   2.393   0.895
74902W        W36268   9.300  43.788  12.483
74903W        W36269   5.217  20.532   0.330
74904W        W36270   6.834   6.731  10.151
74905W        W36271  25.108  33.417  11.911
74906W        W36272   6.218   8.249  11.488
74907W        W36273   1.334  17.153   1.928
74908W        W36274  44.359  30.976   1.287
74909W        W36275  19.163  18.737  10.897
74910W        W36276  21.220  19.124  11.114
74911W        W36277  44.848  23.994   3.145
74912W        W36278  11.287   4.357  14.889
74913W        W36279   4.333  18.697   1.931
74914W        W36280  31.025  29.084   2.848
74915W        W36281  32.929   4.300   0.737
74916W        W36282  10.285  35.491   4.173
74917W        W36283  39.001  13.722   1.711
74918W        W36284   8.288   7.256  14.829
74919W        W36285   6.855  10.831   4.791
74920W        W36286  29.656  24.002   2.267
74921W        W36287  40.900  19.066  12.833
74922W        W36288  15.823  43.004   2.690
74923W        W36289  39.447  30.551   1.244
74924W        W36290   2.842  43.432   4.216
74925W        W36291  39.324  16.601   1.933
74926W        W36292  41.432  24.155   4.334
74927W        W36293  32.436  27.137   4.695
74928W        W36294  18.611   8.802  10.076
74929W        W36295  25.544  42.014   2.219
74930W        W36296  31.933  14.258  14.779
74931W        W36297  37.850  33.937  11.028
74932W        W36298  36.378  16.155  12.058
74933W        W36299   3.933  10.777   4.207
74934W        W36300  32.062  30.634   3.718
74935W        W36301  15.727  14.187   2.813
74936W        W36302  22.739   7.227   2.768
74937W        W36303   4.439  27.488  12.425
74938W        W36304   3.923  44.934   3.312
74939W        W36305  41.438  17.203  10.977
74940W        W36306  19.686  18.689  14.466
74941W        W36307  40.858  36.099   4.239
74942W        W36308  23.155  41.369  12.019
74943W        W36309  25.027   3.420   9.529
74944W        W36310  22.159  37.480   3.828
74945W        W36311  37.508  12.316   0.395
74946W        W36312  19.104  29.529  10.464
74947W        W36313   4.440  37.567  13.460
74948W        W36314  13.831   0.897  10.961
74949W        W36315  26.042  33.479  12.950
74950W        W36316   3.719  20.264   3.299
74951W        W36317  29.497  13.314  12.473
74952W        W36318  11.156  38.373   4.711
74953W        W36319  31.558  19.245  10.025
74954W        W36320   7.269  44.929   1.901
74955W        W36321  41.300  16.712   3.735
74956W        W36322  40.414   6.315   4.338
74957W        W36323   8.743   5.334  11.940
74958W        W36324  29.169  41.514  13.422
74959W        W36325  17.601  35.420   2.254
74960W        W36326   1.764   5.891  13.399
74961W        W36327   4.800  14.774   0.321
74962W        W36328  44.340   7.762  14.362
74963W        W36329   4.877  34.947  14.948
74964W        W36330  40.798   6.709  12.566
74965W        W36331  32.403   0.465  11.965
74966W        W36332  43.364  32.049   2.898
74967W        W36333  34.581  27.544  14.356
74968W        W36334  36.928  15.098   1.726
74969W        W36335  41.029  13.147  13.920
74970W        W36336   9.745  42.340  13.996
74971W        W36337  18.223  30.140  12.078
74972W        W36338   2.918   3.741   3.368
74973W        W36339  35.895   6.872   1.273
74974W        W36340   6.242  10.800  12.892
74975W        W36341   8.803   2.459  12.489
74976W        W36342   1.955  44.984  12.063
74977W        W36343  28.629  16.081   2.711
74978W        W36344  27.127   5.692  10.597
74979W        W36345  26.122  16.711  11.934
74980W        W36346  34.021  24.154  13.426
74981W        W36347  19.596  40.871   4.727
74982W        W36348  30.057  14.767  13.375
74983W        W36349  31.466   8.281   0.836
74984W        W36350   5.731  32.094  14.496
74985W        W36351  24.572  36.359   1.248
74986W        W36352  20.175  37.034  12.372
74987W        W36353   1.938   8.249   0.403
74988W        W36354  22.995  12.192   4.662
74989W        W36355  16.077  43.294   3.196
74990W        W36356  42.932   1.741   4.701
74991W        W36357  21.542  28.667   4.695
74992W        W36358   2.828  15.305   9.929
74993W        W36359  41.804  42.315   3.659
74994W        W36360  26.982  34.398  14.766
74995W        W36361  18.774   6.219  14.492
74996W        W36362  32.072  17.211  11.028
74997W        W36363  41.972  26.564   5.253
74998W        W36364  36.937  41.439  11.539
74999W        W36365   1.825   1.334   1.239
75000W        W36366  13.666   3.799  11.000
75001W        W36367  31.417  12.721  13.475
75002W        W36368  17.794  29.055  10.944
75003W        W36369  40.343  34.107  13.011
75004W        W36370   9.738  42.339  12.884
75005W        W36371  39.374  43.008   2.288
75006W        W36372   4.418   9.729  10.971
75007W        W36373  21.196  37.577  13.875
75008W        W36374  38.853  23.536   4.797
75009W        W36375  39.443  13.816  11.045
75010W        W36376  31.005  25.482  12.482
75011W        W36377  22.110   8.256  14.995
75012W        W36378   4.871  11.817   5.207
75013W        W36379  35.469  44.503  14.501
75014W        W36380  41.852  14.603   4.306
75015W        W36381   0.307  12.814   4.744
75016W        W36382  10.298  38.842  13.328
75017W        W36383  37.052  40.366   2.666
75018W        W36384  25.544  26.951   0.926
75019W        W36385  15.121  44.500  13.385
75020W        W36386  15.621  20.697  12.457
75021W        W36387   1.332   2.468  14.911
75022W        W36388  39.358   8.354   1.369
75023W        W36389  39.345   0.282  11.857
75024W        W36390  21.584  28.530  13.507
75025W        W36391  13.277  38.976   0.740
75026W        W36392   4.745  26.468   0.845
75027W        W36393  31.150  19.610  11.568
75028W        W36394  34.998   0.410  10.565
75029W        W36395  28.070  28.995   4.781
75030W        W36396  41.936  13.212  13.835
75031W        W36397   9.265  20.196  13.331
75032W        W36398  37.337  15.612   1.739
75033W        W36399  33.057  18.078  13.032
75034W        W36400  32.444  39.346  12.425
75035W        W36401  15.821  43.325   2.681
75036W        W36402   0.894  20.542   0.805
75037W        W36403  39.816  32.504   4.703
75038W        W36404  24.204  16.283   2.756
75039W        W36405   2.310  28.580   4.282
75040W        W36406  41.033  30.601   0.277
75041W        W36407  12.260  30.141   0.888
75042W        W36408  11.761  40.334   4.242
75043W        W36409   1.404   7.854  11.996
75044W        W36410  25.090  23.188   4.659
75045W        W36411  31.625   8.162   2.867
75046W        W36412  37.389  30.956  12.577
75047W        W36413   4.258  27.604   1.828
75048W        W36414  11.174  31.011  12.949
75049W        W36415  22.236  14.626   0.772
75050W        W36416  43.408   3.273   2.764
75051W        W36417  10.217  32.121   3.174
75052W        W36418  44.384  10.299   1.449
75053W        W36419  23.529   0.389   4.340
75054W        W36420  24.184  30.973   2.883
75055W        W36421  32.489   7.391   4.121
75056W        W36422  12.694  25.683   0.300
75057W        W36423   0.408  15.294  13.508
75058W        W36424  25.541  17.074  13.537
75059W        W36425  14.137  29.641   5.109
75060W        W36426  15.678  24.581  12.079
75061W        W36427  40.455  23.666  12.509
75062W        W36428  21.547  16.734   4.324
75063W        W36429  41.001  29.953  11.540
75064W        W36430   3.456  41.918   3.197
75065W        W36431  17.077   1.388  11.422
75066W        W36432   3.725  12.828   3.791
75067W        W36433   4.396  42.873  13.427
75068W        W36434  26.012  25.171  12.574
75069W        W36435   0.956  19.100  13.058
75070W        W36436  28.030  42.448  13.829
75071W        W36437  23.119  24.596   3.161
75072W        W36438   4.712  38.939   2.724
75073W        W36439  14.280  43.347  13.430
75074W        W36440  42.473  37.070  12.402
75075W        W36441  18.623  36.043  10.052
75076W        W36442   1.905  30.935  12.008
75077W        W36443  29.498  44.449   1.435
75078W        W36444  26.536  28.439   1.788
75079W        W36445  36.000  30.630  10.638
75080W        W36446  14.274  30.994   0.318
75081W        W36447  28.088  31.982  14.829
75082W        W36448   7.260   2.944   4.215
75083W        W36449  19.762  35.958   4.218
75084W        W36450  37.889  43.513   1.908
75085W        W36451  32.568  27.991   9.987
75086W        W36452  24.986   3.719   3.714
75087W        W36453  19.621  36.873   5.300
75088W        W36454  15.236  30.532  10.591
75089W        W36455  30.606  25.510   0.282
75090W        W36456  37.968   3.836  12.973
75091W        W36457  37.020   8.167  13.354
75092W        W36458  39.343  37.433  14.963
75093W        W36459  23.180  33.551  12.421
75094W        W36460  31.557  41.314  10.422
75095W        W36461  32.561   0.336  12.922
75096W        W36462  40.006  18.632  13.885
75097W        W36463   0.376  36.871  14.990
75098W        W36464   4.421  22.205  13.850
75099W        W36465   8.229   1.462  11.028
75100W        W36466  39.542  14.263  13.955
75101W        W36467  19.696  43.862   2.246
75102W        W36468  10.289  34.605  11.416
75103W        W36469  40.318  17.301   1.725
75104W        W36470  10.759  22.730   1.731
75105W        W36471  15.778   7.871  14.337
75106W        W36472  32.398  33.874   4.780
75107W        W36473  24.685  18.269   3.865
75108W        W36474   9.348  29.148  13.377
75109W        W36475  22.104  34.954   1.719
75110W        W36476  35.868   5.398  14.355
75111W        W36477  19.741  11.630   2.804
75112W        W36478   3.888  21.051   0.302
75113W        W36479  36.400  33.436  11.057
75114W        W36480  13.662  33.468  13.044
75115W        W36481  42.418   7.833  12.406
75116W        W36482  32.904  27.589  10.436
75117W        W36483  21.245  10.662   1.783
75118W        W36484  28.959  42.407   2.206
75119W        W36485  31.474   0.318   2.249
75120W        W36486  22.013  13.323  12.432
75121W        W36487   7.320  20.080   4.345
75122W        W36488   0.310  44.264  10.571
75123W        W36489  43.397   6.290   2.713
75124W        W36490  17.111  35.412   0.268
75125W        W36491  41.340  19.210   2.404
75126W        W36492  40.344  21.107  14.795
75127W        W36493  21.594  30.572  14.899
75128W        W36494  30.581  17.201   1.234
75129W        W36495  10.716   2.439   4.313
75130W        W36496   6.277  27.607   4.782
75131W        W36497  37.556  16.790  10.594
75132W        W36498  30.653  24.568  11.468
75133W        W36499  26.028  16.221  12.389
75134W        W36500  39.957  27.083  11.963
75135W        W36501  19.661  39.929   0.360
75136W        W36502  19.663  28.996  12.538
75137W        W36503  36.554   6.351   0.753
75138W        W36504  26.488  14.156  14.444
75139W        W36505   7.774  25.168   3.182
75140W        W36506  30.488  43.445  13.829
75141W        W36507  35.404  17.572  13.414
75142W        W36508  25.146  31.061  12.497
75143W        W36509  30.104   5.713  10.418
75144W        W36510  35.522  19.140   0.317
75145W        W36511  18.261  28.086   2.368
75146W        W36512  15.731  24.103   0.735
75147W        W36513  36.554  42.293   1.736
75148W        W36514  29.544  35.977  13.891
75149W        W36515  33.068  40.455  11.868
75150W        W36516  20.576   3.732   3.239
75151W        W36517   1.289  35.495  14.507
75152W        W36518  28.101   4.364   3.176
75153W        W36519  25.129  44.438  13.810
75154W        W36520  40.375   9.877  11.453
75155W        W36521  24.685  21.027   2.273
75156W        W36522  18.099  22.064   1.917
75157W        W36523  36.005  37.567  11.101
75158W        W36524  20.257  43.004   3.246
75159W        W36525  31.972  30.030  13.389
75160W        W36526  26.188   0.480  11.072
75161W        W36527  37.394  21.621   4.296
75162W        W36528   8.837   7.416   0.397
75163W        W36529  44.271   2.292  12.027
75164W        W36530  28.183  43.850  12.913
75165W        W36531  42.500  37.079   3.727
75166W        W36532  41.412  13.765  11.576
75167W        W36533  13.302  16.639  10.960
75168W        W36534  34.922  20.041  11.015
75169W        W36535  44.338  30.113   2.332
75170W        W36536  24.057  34.537  13.411
75171W        W36537  34.121   4.419   3.288
75172W        W36538  13.173  24.529  11.502
75173W        W36539  40.323  27.036  10.539
75174W        W36540  39.039  13.341  10.893
75175W        W36541  23.681  11.755   0.267
75176W        W36542  43.419  34.466  10.005
75177W        W36543   2.818  25.670   2.185
75178W        W36544   1.738   6.863  10.975
75179W        W36545  23.496   5.754   4.767
75180W        W36546  28.184   7.724  13.984
75181W        W36547   5.797  38.485  11.611
75182W        W36548   8.331  29.537  12.095
75183W        W36549  16.746   5.798  12.495
75184W        W36550  32.587  10.653  10.578
75185W        W36551   0.785  20.566   0.355
75186W        W36552   1.299  34.996  13.466
75187W        W36553  13.753   3.435  14.393
75188W        W36554  13.293  20.220  13.962
75189W        W36555  17.239   3.305   5.127
75190W        W36556  14.757  42.856   0.924
75191W        W36557  39.314  35.603  12.934
75192W        W36558  37.974   3.432   4.305
75193W        W36559   3.430  22.522  12.875
75194W        W36560  31.437   0.842   4.742
75195W        W36561  20.217   0.838  14.399
75196W        W36562   5.887  19.753  14.759
75197W        W36563  14.332  35.535  11.955
75198W        W36564  35.525   8.740   0.857
75199W        W36565  24.594   4.292  12.512
75200W        W36566  42.004  23.668  14.798
75201W        W36567  41.875  11.335  10.497
75202W        W36568  10.357   3.931   2.209
75203W        W36569   4.845  43.879  12.478
75204W        W36570   2.445  16.795  11.075
75205W        W36571  13.736   7.176  12.511
75206W        W36572  39.511  21.095   0.843
75207W        W36573  28.159   3.325  13.941
75208W        W36574  33.510  11.749   0.853
75209W        W36575  22.645  14.701  13.476
75210W        W36576  12.184   4.811  11.890
75211W        W36577  15.609  10.298  11.480
75212W        W36578  39.324  43.295  11.013
75213W        W36579  27.484  35.038  10.490
75214W        W36580   8.694  32.931  11.513
75215W        W36581   8.366  29.038  11.967
75216W        W36582  19.207  26.653  13.970
75217W        W36583  16.201  28.519   1.849
75218W        W36584  24.145  39.376   3.343
75219W        W36585  17.756  24.094   2.845
75220W        W36586  41.875  26.523   0.372
75221W        W36587   8.796  10.326  10.093
75222W        W36588  26.043  38.034  11.524
75223W        W36589   9.838   2.862  13.951
75224W        W36590  25.014  13.125   2.684
75225W        W36591  18.663  42.968   3.353
75226W        W36592   5.437  31.542  14.893
75227W        W36593   2.416  27.501  13.393
75228W        W36594  38.461  40.311   4.128
75229W        W36595  17.647   9.692   0.469
75230W        W36596  21.152  13.223   2.335
75231W        W36597   9.648  21.571   4.243
75232W        W36598  26.992  44.839  13.812
75233W        W36599  21.610  38.868   1.735
75234W        W36600  28.976  34.952   4.261
75235W        W36601  19.226  40.996   1.383
75236W        W36602   0.784  22.140   1.694
75237W        W36603   1.261  30.448   1.442
75238W        W36604  22.580  29.556  14.874
75239W        W36605   7.867  31.547  10.986
75240W        W36606  38.546  17.619  12.045
75241W        W36607  24.068   1.289   9.978
75242W        W36608  11.273  39.948   2.775
75243W        W36609   5.299   0.465   1.778
75244W        W36610  16.579  39.329  10.907
75245W        W36611  17.246  14.688  11.118
75246W        W36612  24.193   3.856   4.742
75247W        W36613   5.861   3.427   3.365
75248W        W36614  37.935  13.637   2.687
75249W        W36615  23.623  41.024  14.457
75250W        W36616  31.936   1.295   4.834
75251W        W36617  18.638   2.301  12.509
75252W        W36618  31.043  33.501   1.261
75253W        W36619  34.509  26.172   1.920
75254W        W36620  43.349  17.726   3.693
75255W        W36621   9.785  39.853  14.429
75256W        W36622   3.932  37.400  12.524
75257W        W36623  31.991  36.911   2.214
75258W        W36624  26.023  26.059  13.494
75259W        W36625  31.110  43.475   4.778
75260W        W36626  29.021  18.204   0.868
75261W        W36627  24.530  20.054   2.800
75262W        W36628  20.199   9.359   1.796
75263W        W36629   9.298   1.878   1.838
75264W        W36630  20.103   2.363  10.549
75265W        W36631  32.397  27.176  11.979
75266W        W36632  15.722  40.865  11.074
75267W        W36633  22.700   6.841   1.351
75268W        W36634  29.927   9.262  12.040
75269W        W36635   4.395   0.440  11.584
75270W        W36636  21.691  23.664  13.006
75271W        W36637  29.055   9.681   1.260
75272W        W36638  44.444   0.286  11.445
75273W        W36639  16.810  37.347   1.896
75274W        W36640  39.408  40.503   1.218
75275W        W36641  41.435  27.121   3.214
75276W        W36642   4.253  35.903   2.777
75277W        W36643   5.330  17.201   4.236
75278W        W36644  15.211  35.874   4.632
75279W        W36645   0.856   4.856   0.805
75280W        W36646  43.480  43.441   3.632
75281W        W36647  10.677   7.186   4.261
75282W        W36648  28.060  31.544  12.042
75283W        W36649  11.761  27.166   2.890
75284W        W36650  11.228  40.433   1.880
75285W        W36651  16.654   9.779   1.721
75286W        W36652  22.182   7.359  10.410
75287W        W36653  40.425  38.980   0.750
75288W        W36654   6.891  28.962   4.598
75289W        W36655   5.911  36.389  10.527
75290W        W36656  26.603  43.449   4.704
75291W        W36657  12.747  18.596  12.087
75292W        W36658  22.043  25.505  11.874
75293W        W36659  33.069   1.454   3.756
75294W        W36660   6.188   7.834  12.943
75295W        W36661   9.162  14.193   2.334
75296W        W36662  19.685   5.728  13.418
75297W        W36663  24.532  15.182  14.362
75298W        W36664  37.468  43.020  10.607
75299W        W36665  30.911  24.167   3.784
75300W        W36666  40.385  13.117   4.263
75301W        W36667  44.809  40.895   0.301
75302W        W36668   1.741  25.596   3.854
75303W        W36669  17.077  23.004   1.357
75304W        W36670  10.769  24.986   0.767
75305W        W36671  17.685  22.150  13.823
75306W        W36672   5.365  25.558   3.320
75307W        W36673  10.374  34.473   0.322
75308W        W36674  34.875  15.713   2.240
75309W        W36675   1.308  37.922   2.706
75310W        W36676  16.569  10.703  10.567
75311W        W36677  24.173  24.045   0.391
75312W        W36678  32.074  29.944  10.568
75313W        W36679  32.051  25.610   4.168
75314W        W36680   4.699  23.512  11.114
75315W        W36681  35.967  29.664   4.795
75316W        W36682  20.579  38.543   1.229
75317W        W36683  21.193   1.285  14.978
75318W        W36684   9.822   3.737  12.440
75319W        W36685  25.508  27.521   0.951
75320W        W36686  25.034  13.829  11.532
75321W        W36687  22.120  15.279   0.304
75322W        W36688  21.625  33.885  12.916
75323W        W36689  24.488  39.031  11.859
75324W        W36690  26.110  40.922   0.272
75325W        W36691  29.041  28.636   2.350
75326W        W36692   8.692  24.723  14.500
75327W        W36693  28.680   1.755  13.946
75328W        W36694  23.993  28.596  11.577
75329W        W36695  41.344  40.954  11.544
75330W        W36696   0.428  35.010   4.616
75331W        W36697  38.392  13.170   2.838
75332W        W36698  27.451  11.728  12.355
75333W        W36699  13.226  17.281  11.598
75334W        W36700   0.859   3.273   1.913
75335W        W36701  30.038  18.745   3.715
75336W        W36702  42.290  21.721   0.443
75337W        W36703  41.510  28.019   3.330
75338W        W36704  13.215   4.702   0.373
75339W        W36705  25.662  29.029  12.972
75340W        W36706   2.303  14.202  14.323
75341W        W36707  12.177  35.489   0.482
75342W        W36708  35.464  10.187  12.946
75343W        W36709  12.311   2.420   3.781
75344W        W36710  38.437  11.313   1.884
75345W        W36711   7.681   9.765  13.832
75346W        W36712  40.046  40.538   1.735
75347W        W36713  31.558  30.034  13.878
75348W        W36714   4.722  10.794   4.291
75349W        W36715  17.771   4.212   0.449
75350W        W36716  24.551  40.524  12.028
75351W        W36717  37.988  26.964   4.716
75352W        W36718   9.330  15.187   0.432
75353W        W36719  27.540  23.242   4.803
75354W        W36720   8.844   0.358  10.989
75355W        W36721  17.672   0.486   0.917
75356W        W36722  42.807  40.352   5.259
75357W        W36723  15.732  35.011  11.967
75358W        W36724   0.414  37.545  11.405
75359W        W36725  27.999  16.217   3.720
75360W        W36726  16.209   6.801  12.469
75361W        W36727  37.990  35.437   4.230
75362W        W36728  44.870  27.620  12.909
75363W        W36729  24.569  25.003   0.910
75364W        W36730  19.683  11.205   1.900
75365W        W36731   4.290  16.569   3.323
75366W        W36732  25.003  22.504   3.191
75367W        W36733  29.006  11.718   1.284
75368W        W36734  28.486  41.998  13.819
75369W        W36735  16.574  19.598   5.309
75370W        W36736  41.026   1.831   4.637
75371W        W36737  15.624  24.505  10.411
75372W        W36738   9.705  10.316  14.416
75373W        W36739  38.482  17.792   4.639
75374W        W36740  17.663  30.478  14.956
75375W        W36741  24.660  39.060  12.419
75376W        W36742   4.732  36.859  14.410
75377W        W36743  10.172  18.122   2.761
75378W        W36744   0.296  32.104  11.434
75379W        W36745  40.890  11.189   4.656
75380W        W36746  33.391  22.621  12.445
75381W        W36747   2.797  37.018   2.394
75382W        W36748   4.294  13.713   4.662
75383W        W36749  14.756  26.001   3.836
75384W        W36750  12.842   1.919   4.821
75385W        W36751  21.713  42.778   0.871
75386W        W36752  26.127  12.665  12.476
75387W        W36753  41.487  22.719   4.706
75388W        W36754  35.371  18.659  14.903
75389W        W36755  44.983  15.786   0.792
75390W        W36756   2.310   8.818  10.491
75391W        W36757  25.132  36.949  13.325
75392W        W36758  13.285  17.599   4.796
75393W        W36759   5.861  12.340   3.854
75394W        W36760  32.548  28.037  12.397
75395W        W36761  17.289  19.214   4.771
75396W        W36762   1.470   5.204  13.822
75397W        W36763  26.596   2.811   4.160
75398W        W36764   0.488  25.057  13.374
75399W        W36765  11.673  10.203   4.302
75400W        W36766  22.221  34.886  13.931
75401W        W36767   0.952  36.379  12.010
75402W        W36768  37.439   5.736  12.843
75403W        W36769  23.688   2.451   2.323
75404W        W36770  38.415   8.283  13.053
75405W        W36771   9.362  29.115   1.694
75406W        W36772  22.647  15.234  13.968
75407W        W36773   9.330   6.395   2.358
75408W        W36774  30.973   9.210   4.719
75409W        W36775  39.819   8.725   0.466
75410W        W36776  37.366  10.729  12.521
75411W        W36777  31.406  26.955   3.863
75412W        W36778  34.595  13.150   2.336
75413W        W36779   5.279  10.808   2.762
75414W        W36780  12.808  42.313   4.187
75415W        W36781  26.157  22.248   4.205
75416W        W36782  19.543  30.959  12.005
75417W        W36783  22.536  24.165   0.780
75418W        W36784  37.992  38.042  14.842
75419W        W36785  40.492   8.387   1.796
75420W        W36786   3.377  34.004   3.151
75421W        W36787  43.870   4.344  13.350
75422W        W36788  11.137  11.656  13.927
75423W        W36789  12.791  18.648  14.006
75424W        W36790  38.028  25.627   2.854
75425W        W36791  43.484  40.903  11.944
75426W        W36792  31.402   9.784  10.552
75427W        W36793  36.927  36.438   3.315
75428W        W36794  18.122  37.523   1.449
75429W        W36795   4.914  39.966  14.823
75430W        W36796   3.311   3.318   4.135
75431W        W36797  23.695   5.327   1.398
75432W        W36798   9.652  19.534   2.243
75433W        W36799  23.116   0.461   1.402
75434W        W36800   1.273  32.946  12.495
75435W        W36801  14.663  33.911   3.334
75436W        W36802  23.229  22.626   0.261
75437W        W36803   8.351  40.912  14.791
75438W        W36804  23.495  36.903   0.740
75439W        W36805  19.113  23.492   1.269
75440W        W36806  15.087  40.371   3.779
75441W        W36807   7.344  16.749   4.601
75442W        W36808  29.076   8.808  14.962
75443W        W36809   4.856  33.575  14.827
75444W        W36810  33.966   9.204   1.864
75445W        W36811  37.011  44.957   3.771
75446W        W36812  17.231  27.523   4.268
75447W        W36813   9.845  30.986  10.568
75448W        W36814  29.151  10.180   3.645
75449W        W36815  20.724  43.955   1.892
75450W        W36816   1.820   6.369  13.806
75451W        W36817  20.621   7.263  10.924
75452W        W36818   2.436   5.797   2.791
75453W        W36819  44.837  24.554  11.037
75454W        W36820  41.500  26.523   1.382
75455W        W36821  24.501  11.334  12.505
75456W        W36822   5.370  25.637  13.020
75457W        W36823  39.385   6.289   1.845
75458W        W36824  29.983  29.490  11.902
75459W        W36825   2.917   2.861   1.884
75460W        W36826   5.216  15.329   2.366
75461W        W36827  35.080  27.081   0.328
75462W        W36828   7.674  43.832   3.774
75463W        W36829   1.404  40.866  11.566
75464W        W36830   2.258   4.821   0.318
75465W        W36831  29.997  31.072   1.363
75466W        W36832  37.422  40.044  10.640
75467W        W36833  25.658  18.225  11.078
75468W        W36834  43.493  44.875   0.761
75469W        W36835  33.468  16.647   4.127
75470W        W36836  30.011  34.496   4.190
75471W        W36837  41.391  19.275  11.899
75472W        W36838  19.669  36.996   3.256
75473W        W36839  34.415  37.058  11.019
75474W        W36840  36.014  36.488   1.371
75475W        W36841  16.298   3.246   1.433
75476W        W36842  26.584  23.116   3.702
75477W        W36843   2.420  28.072   1.813
75478W        W36844   0.442   5.309  14.389
75479W        W36845  10.830   3.750  14.457
75480W        W36846  21.513  27.196   0.385
75481W        W36847  27.481  42.871  13.836
75482W        W36848  27.104   8.711  11.390
75483W        W36849   4.819  26.119  12.517
75484W        W36850  30.135  41.497   2.314
75485W        W36851  36.993   1.301   3.354
75486W        W36852  16.080  35.572  12.838
75487W        W36853  17.106  18.662  12.907
75488W        W36854  44.757   7.774  14.305
75489W        W36855  15.590  23.728   1.397
75490W        W36856  18.721   0.941   5.228
75491W        W36857  38.850   5.430  11.079
75492W        W36858  37.465  35.437  13.376
75493W        W36859   4.230  15.112   1.339
75494W        W36860  39.856  32.136   2.211
75495W        W36861   1.960   6.907   0.286
75496W        W36862  40.989  12.254   1.344
75497W        W36863  10.841  29.545  11.396
75498W        W36864  27.491  22.033   3.791
75499W        W36865   1.907  29.573  11.907
75500W        W36866  35.401   1.820  12.028
75501W        W36867  40.459  22.592   1.788
75502W        W36868   6.822   9.776  14.282
75503W        W36869  15.789   6.848   1.342
75504W        W36870   9.376  26.529   5.305
75505W        W36871  23.998  24.504  14.423
75506W        W36872  17.185  41.467   2.728
75507W        W36873  22.059   1.411   4.641
75508W        W36874   8.211  17.778   2.734
75509W        W36875  28.471  23.591  11.494
75510W        W36876   3.263   8.807  10.507
75511W        W36877  11.218  44.803   1.721
75512W        W36878   4.708  33.050   1.882
75513W        W36879  32.029  42.878   4.625
75514W        W36880   0.983   2.851  10.957
75515W        W36881  37.481  27.525   3.266
75516W        W36882  29.141  24.052  10.472
75517W        W36883  34.563  25.509  14.980
75518W        W36884  39.536   4.765  14.986
75519W        W36885   5.703  30.499   1.383
75520W        W36886  18.222  42.295   3.834
75521W        W36887  36.857  40.390  13.493
75522W        W36888  33.490  17.596  13.009
75523W        W36889  17.668  43.356   3.243
75524W        W36890  37.073  21.094   2.188
75525W        W36891  17.221   5.421  13.885
75526W        W36892  29.558  14.720   2.680
75527W        W36893  25.157  25.103  12.956
75528W        W36894  28.164   6.234  12.998
75529W        W36895  41.893  31.119   1.718
75530W        W36896  16.288  35.049  14.305
75531W        W36897  38.930  26.028  13.420
75532W        W36898  12.322  19.248  12.535
75533W        W36899  22.071   7.385   4.804
75534W        W36900  39.435  25.522   2.386
75535W        W36901  37.889  19.711   4.265
75536W        W36902  14.697  13.665  14.359
75537W        W36903   6.831   6.847  11.482
75538W        W36904   4.404  13.122  14.495
75539W        W36905  11.807  10.653   4.748
75540W        W36906  42.341  43.823  11.874
75541W        W36907   8.313  22.064  11.408
75542W        W36908  42.791  30.993  14.010
75543W        W36909  11.342  22.700  12.349
75544W        W36910  27.973  22.133  11.601
75545W        W36911  36.000  36.890  14.017
75546W        W36912  38.492   6.306  12.837
75547W        W36913   4.910   2.834  11.966
75548W        W36914   6.829  37.012  11.080
75549W        W36915  32.420  24.713  11.592
75550W        W36916  37.019   3.313   2.751
75551W        W36917  30.152  28.446   2.814
75552W        W36918  28.148  35.855  13.313
75553W        W36919  34.872   2.902   4.615
75554W        W36920  26.025  42.425  13.053
75555W        W36921   5.270   0.905  12.911
75556W        W36922  16.572   4.416   2.824
75557W        W36923  40.375  25.052  10.428
75558W        W36924  14.796  36.457  10.599
75559W        W36925  35.596  37.432   4.643
75560W        W36926  15.093   6.770   1.863
75561W        W36927  34.929  20.541  11.450
75562W        W36928  28.567  31.126  14.293
75563W        W36929  38.859  36.355  14.321
75564W        W36930  10.682  44.382   4.186
75565W        W36931   7.233  42.964   2.279
75566W        W36932   3.919  41.520   3.683
75567W        W36933  11.136  31.453  13.960
75568W        W36934  12.620  16.157   2.277
75569W        W36935  33.996  18.666   0.880
75570W        W36936  42.429  12.220   4.196
75571W        W36937  22.590  20.170  11.931
75572W        W36938  13.298  12.824   0.958
75573W        W36939  41.414   8.820  14.777
75574W        W36940  37.357   5.758   3.247
75575W        W36941  22.698  34.419   1.434
75576W        W36942   9.309  23.146   2.213
75577W        W36943  25.056  16.676  12.970
75578W        W36944   6.695  21.109  12.880
75579W        W36945  26.094  24.587  14.451
75580W        W36946  35.497  32.056  12.897
75581W        W36947  36.066  42.855   4.242
75582W        W36948   2.845  18.193   3.810
75583W        W36949  31.010  39.949   4.785
75584W        W36950   1.287  44.484  11.506
75585W        W36951  28.130  22.579   1.744
75586W        W36952  18.765  21.122   0.482
75587W        W36953  35.071  38.949   0.346
75588W        W36954  28.608  33.981   1.716
75589W        W36955  39.017  21.577   3.364
75590W        W36956   5.795  35.465  11.546
75591W        W36957  26.177  10.339  14.884
75592W        W36958   8.406  25.196  13.477
75593W        W36959   5.212  24.490   3.858
75594W        W36960   6.386  33.933  14.971
75595W        W36961  43.486  26.656   3.680
75596W        W36962  11.626  26.691  14.789
75597W        W36963  18.660  13.784  11.904
75598W        W36964  37.367  33.991   4.750
75599W        W36965   1.909  20.680   4.667
75600W        W36966  24.538   1.337  12.536
75601W        W36967   5.433  19.175   1.417
75602W        W36968  17.587  40.353   0.940
75603W        W36969  17.577  10.261  11.901
75604W        W36970  40.413  22.564   4.609
75605W        W36971  18.140  35.104  13.929
75606W        W36972  10.157   4.362  12.468
75607W        W36973  29.132  22.735   1.317
75608W        W36974  20.713   1.784  12.872
75609W        W36975  22.010  28.186  10.595
75610W        W36976  26.565  44.932   1.342
75611W        W36977  37.839  35.088   3.761
75612W        W36978  25.123  25.023  10.604
75613W        W36979  28.625  44.815   3.868
75614W        W36980  23.091  32.042  10.487
75615W        W36981  35.360  17.303  11.375
75616W        W36982  36.009  18.544   0.918
75617W        W36983  22.510  26.599  10.109
75618W        W36984  28.107  25.005  11.120
75619W        W36985  23.219  15.605  12.885
75620W        W36986  38.544  18.166  12.002
75621W        W36987   7.369  35.417  13.310
75622W        W36988   1.872   4.720  11.420
75623W        W36989  27.519  16.778  10.522
75624W        W36990  11.744  17.101  13.442
75625W        W36991  11.148  21.582   3.319
75626W        W36992  30.994  20.751  13.937
75627W        W36993  10.764  27.651  11.058
75628W        W36994  17.244  36.364   0.776
75629W        W36995   1.277  36.897   0.417
75630W        W36996   1.321  12.651   3.662
75631W        W36997  37.392  28.023   5.206
75632W        W36998  41.529  42.315   4.264
75633W        W36999  34.044  37.928  12.408
75634W        W37000   0.744   9.827  11.870
75635W        W37001  33.555   9.307   2.410
75636W        W37002  15.658   9.788   1.770
75637W        W37003  17.574  38.043   4.628
75638W        W37004  40.481  17.253  10.972
75639W        W37005   0.859  34.938  14.385
75640W        W37006  42.394  25.541  12.902
75641W        W37007   1.257   5.891  14.383
75642W        W37008  15.741  27.479  14.467
75643W        W37009  38.340  17.703  10.487
75644W        W37010   7.353  12.272   3.735
75645W        W37011  17.620   5.920  11.014
75646W        W37012  11.857  39.436   2.741
75647W        W37013   2.860  25.618  10.534
75648W        W37014  43.319  41.967  11.930
75649W        W37015  29.596  40.466   1.873
75650W        W37016  34.101   7.840  10.978
75651W        W37017  24.074  33.874  11.034
75652W        W37018  11.369  40.475  11.608
75653W        W37019  36.545  12.357  14.762
75654W        W37020   0.389  18.165   3.830
75655W        W37021   6.803  42.354   1.378
75656W        W37022  20.758  24.022   4.227
75657W        W37023  14.623  31.432  10.105
75658W        W37024   9.331  11.166  10.519
75659W        W37025  25.026  13.155   0.838
75660W        W37026  10.280  31.945  14.299
75661W        W37027  19.662  17.277   0.270
75662W        W37028   6.403  19.174  14.024
75663W        W37029  27.128  16.121   1.805
75664W        W37030  18.633  19.723   5.156
75665W        W37031  42.826  15.290  10.995
75666W        W37032   8.765   5.813  11.007
75667W        W37033  30.112  33.471   3.718
75668W        W37034  38.842  23.520  14.384
75669W        W37035  17.184  19.090  11.891
75670W        W37036  36.862  41.462   4.696
75671W        W37037  12.272  33.912  11.035
75672W        W37038   8.762  27.157   4.804
75673W        W37039   3.226  43.893  12.058
75674W        W37040  23.142  12.619  14.873
75675W        W37041  16.646  12.751  10.568
75676W        W37042  39.547  41.899   0.307
75677W        W37043  10.706  34.539   1.352
75678W        W37044  35.414  22.649  10.419
75679W        W37045  14.163  24.652  14.325
75680W        W37046  41.876  38.499  14.855
75681W        W37047  37.579   6.910   4.334
75682W        W37048  29.993   8.675  10.932
75683W        W37049  33.401  34.976   4.606
75684W        W37050  10.383  16.781   2.746
75685W        W37051   9.313  27.501   4.345
75686W        W37052  28.496  22.097   4.285
75687W        W37053  22.681   5.715   4.155
75688W        W37054   1.392  12.314  13.356
75689W        W37055   9.371  10.184   4.256
75690W        W37056  18.157  16.195   1.849
75691W        W37057  20.597  31.556  11.598
75692W        W37058  32.132   2.828  12.374
75693W        W37059  44.396   6.911   1.433
75694W        W37060  33.061  26.697  13.026
75695W        W37061  14.822  36.023  14.972
75696W        W37062  33.015  24.635   0.907
75697W        W37063  29.666  44.776   2.394
75698W        W37064  13.114  17.676  12.514
75699W        W37065   4.706  30.152   4.813
75700W        W37066  18.295  14.767  13.442
75701W        W37067  21.582  40.928   0.419
75702W        W37068  32.924   5.255   1.253
75703W        W37069  36.908  40.502  12.569
75704W        W37070  44.501  33.996  14.301
75705W        W37071  28.484  39.944  14.767
75706W        W37072  20.669  14.732   3.292
75707W        W37073  10.345  16.771  12.547
75708W        W37074  43.417   0.747   2.797
75709W        W37075  26.010  11.829   1.823
75710W        W37076  14.242  34.585   5.608
75711W        W37077  21.084   4.426  11.443
75712W        W37078  12.157  15.766   1.213
75713W        W37079   5.256   3.248  11.060
75714W        W37080  16.256   1.318  14.908
75715W        W37081   0.409  14.617  13.488
75716W        W37082  29.065  34.461  14.279
75717W        W37083  14.287  16.140   2.877
75718W        W37084  18.276  29.484  12.088
75719W        W37085  24.206   0.261   2.229
75720W        W37086  40.937  39.810  14.282
75721W        W37087   6.918  11.759  11.035
75722W        W37088  33.563  31.557   2.876
75723W        W37089   3.316   6.878   4.704
75724W        W37090  11.191   9.327   1.750
75725W        W37091  38.371  31.551   1.343
75726W        W37092  30.067  16.282   0.247
75727W        W37093   2.803   4.379  11.394
75728W        W37094  11.816  28.114  11.933
75729W        W37095  23.171  26.663  12.980
75730W        W37096  23.699  24.070   1.807
75731W        W37097  32.931  20.253  14.914
75732W        W37098  14.671  16.127   3.384
75733W        W37099  11.168   6.839   3.381
75734W        W37100   4.717  43.995   4.141
75735W        W37101  25.150  34.486   4.838
75736W        W37102  30.520  43.852   3.220
75737W        W37103  31.003  24.647  14.875
75738W        W37104  17.566  39.948  12.893
75739W        W37105  34.482  37.487  10.141
75740W        W37106  14.329  27.992  13.438
75741W        W37107  41.428  42.405   3.815
75742W        W37108  30.546  18.116  13.416
75743W        W37109  42.471   8.313   1.819
75744W        W37110  15.170  28.457  13.397
75745W        W37111   8.689  19.230  14.354
75746W        W37112  41.004  15.629   2.181
75747W        W37113  40.909   7.346  12.371
75748W        W37114  17.661   7.726  13.502
75749W        W37115   0.850  36.440  12.508
75750W        W37116  18.211   5.804  14.296
75751W        W37117   5.382  38.869   3.769
75752W        W37118  37.347   1.321  10.888
75753W        W37119  23.141  21.745   1.310
75754W        W37120  13.337  24.066   2.250
75755W        W37121  15.606  19.090  11.573
75756W        W37122  44.488  36.384   1.391
75757W        W37123  37.439  34.566  11.994
75758W        W37124   5.917  12.353   1.248
75759W        W37125   8.889   9.757   4.804
75760W        W37126  12.226  18.602  10.474
75761W        W37127  10.355   3.952  14.426
75762W        W37128   4.753  12.800  12.420
75763W        W37129  42.840  11.861   0.942
75764W        W37130   5.851  42.431  12.513
75765W        W37131  15.205  40.383  12.355
75766W        W37132  18.169  35.582   3.307
75767W        W37133  29.090   9.688   0.398
75768W        W37134  15.732  22.146  14.353
75769W        W37135  28.478  24.492  10.903
75770W        W37136  18.633  33.932  10.415
75771W        W37137  43.829   0.352   3.254
75772W        W37138  23.560  30.459   0.451
75773W        W37139  44.432  23.603  10.607
75774W        W37140  25.676  42.023   1.731
75775W        W37141  32.100  25.654  12.547
75776W        W37142   5.910  32.991  11.591
75777W        W37143  43.297  43.332   2.899
75778W        W37144  13.229  22.575  13.476
75779W        W37145   5.407  26.998  12.914
75780W        W37146  42.363  33.385   3.369
75781W        W37147   8.833  42.398  10.936
75782W        W37148  42.931  28.523   3.367
75783W        W37149  31.923  13.665   4.783
75784W        W37150  27.559   3.913   3.839
75785W        W37151   5.383   6.397  12.506
75786W        W37152  37.386  24.154   4.239
75787W        W37153  19.112   5.757  12.527
75788W        W37154  36.493  10.139   1.319
75789W        W37155  14.666  28.953   5.316
75790W        W37156  43.339  40.306   1.823
75791W        W37157  32.093  28.515   4.804
75792W        W37158  41.021  26.971  14.903
75793W        W37159  13.656  31.988  14.323
75794W        W37160  28.564   9.734  11.975
75795W        W37161  15.778  17.589  11.508
75796W        W37162  44.878  16.085  10.961
75797W        W37163  21.174   2.801  14.003
75798W        W37164  11.679  21.672  11.930
75799W        W37165  23.550  30.588   2.191
75800W        W37166  16.238  41.501  11.596
75801W        W37167  30.151  30.159   4.227
75802W        W37168   7.855  23.548   4.284
75803W        W37169  35.882  41.422  14.005
75804W        W37170  28.641  37.853  11.378
75805W        W37171  41.536  44.263  11.473
75806W        W37172  13.771  16.146  12.543
75807W        W37173   9.704   1.865   3.373
75808W        W37174  19.769  12.264  14.935
75809W        W37175  36.442  10.255  13.994
75810W        W37176  17.142  36.579  12.940
75811W        W37177  17.630  39.868   4.335
75812W        W37178  32.599  16.625   3.653
75813W        W37179  42.417  16.174   4.816
75814W        W37180   3.410  36.419  14.380
75815W        W37181  23.574  30.048  11.420
75816W        W37182  13.684  12.699  14.808
75817W        W37183   7.375   7.180   2.229
75818W        W37184  32.464   4.221  12.881
75819W        W37185  28.126   9.750   1.293
75820W        W37186  38.388   0.362  12.873
75821W        W37187  16.246  10.803  11.868
75822W        W37188   5.211  34.604   3.282
75823W        W37189  19.197  12.632   3.230
75824W        W37190   4.921  22.999  14.309
75825W        W37191   0.946  41.517   3.670
75826W        W37192  24.065   7.736  10.955
75827W        W37193  18.634   7.184   1.305
75828W        W37194  19.122  13.740  11.506
75829W        W37195  32.947   9.790  14.364
75830W        W37196   7.185   7.286  14.289
75831W        W37197   3.372  20.080   2.232
75832W        W37198  34.933  17.701   1.422
75833W        W37199  28.440   3.839  11.383
75834W        W37200  10.752  25.139   2.733
75835W        W37201  19.555  34.988  11.586
75836W        W37202   0.421  29.653   1.401
75837W        W37203  26.200  23.201  12.075
75838W        W37204  20.226  24.222  12.035
75839W        W37205  10.370   0.459  11.495
75840W        W37206  17.299   8.781  12.010
75841W        W37207  13.791   9.654  10.600
75842W        W37208  29.174  23.050  10.999
75843W        W37209   8.678  19.273  11.465
75844W        W37210  25.000   2.436  13.329
75845W        W37211  32.967  35.463  13.879
75846W        W37212  21.086  39.869   2.309
75847W        W37213  24.647  44.951   2.374
75848W        W37214  44.479  15.172   2.287
75849W        W37215  42.526  44.795   1.422
75850W        W37216  40.906  25.111   4.222
75851W        W37217  30.000  16.207  14.383
75852W        W37218  42.878  12.637   4.323
75853W        W37219  18.192  18.181  11.526
75854W        W37220  38.349  12.144  14.868
75855W        W37221   9.754  15.096  14.929
75856W        W37222  42.883   0.835   1.336
75857W        W37223  28.149  24.039   2.795
75858W        W37224   4.871  18.551  13.375
75859W        W37225  12.252  31.140  11.880
75860W        W37226  33.501   0.756  14.031
75861W        W37227   4.724  24.602  11.869
75862W        W37228  35.104  13.136  13.035
75863W        W37229  11.244   9.363  13.875
75864W        W37230  16.602  35.918   1.758
75865W        W37231  25.513  15.743   0.429
75866W        W37232  10.267  30.975  12.443
75867W        W37233  31.514  27.023  12.512
75868W        W37234  18.760   0.777   2.741
75869W        W37235  23.188   3.331   3.631
75870W        W37236  41.465  33.943  11.574
75871W        W37237   9.716  39.970  13.000
75872W        W37238  22.718  23.198  10.110
75873W        W37239  27.655  19.544  10.611
75874W        W37240  38.551  18.205   1.923
75875W        W37241   8.359  27.138  13.906
75876W        W37242  28.449  30.966  10.133
75877W        W37243  11.729  10.806   0.875
75878W        W37244  24.121  21.115  14.030
75879W        W37245  21.746  15.215  10.490
75880W        W37246  42.330  15.228  10.421
75881W        W37247  24.975  28.161   2.713
75882W        W37248  19.640  28.439  14.320
75883W        W37249  31.609  35.422   2.281
75884W        W37250   5.921  25.058  10.908
75885W        W37251  12.741   7.896  11.937
75886W        W37252   0.882  21.647   4.231
75887W        W37253  30.108  29.521   3.654
75888W        W37254  24.006  26.539  13.800
75889W        W37255  18.075  43.319  11.422
75890W        W37256  38.530  43.930   3.360
75891W        W37257  41.368   0.260   3.855
75892W        W37258  22.536  12.230  13.058
75893W        W37259  16.570  24.083   1.754
75894W        W37260   7.846  41.973  13.400
75895W        W37261  28.139  15.596  13.538
75896W        W37262  36.370   4.319  11.965
75897W        W37263   4.259  17.163  12.455
75898W        W37264  13.804  36.512   5.690
75899W        W37265  42.319   8.816  11.105
75900W        W37266  16.148  39.505   4.730
75901W        W37267  18.108  28.469   4.219
75902W        W37268  25.588  28.574   5.647
75903W        W37269  44.404  16.296  11.895
75904W        W37270  41.326  32.470  11.448
75905W        W37271   4.882  16.758   0.892
75906W        W37272  39.320  38.974   1.907
75907W        W37273   8.667  14.156  14.769
75908W        W37274  40.323   5.829  14.794
75909W        W37275   8.841   9.220  10.925
75910W        W37276  42.968  16.300  13.393
75911W        W37277  38.407  20.552   1.218
75912W        W37278   4.716   9.190  12.957
75913W        W37279   8.370  14.678  13.062
75914W        W37280  11.717  18.192   4.667
75915W        W37281  18.778  33.405   3.283
75916W        W37282  25.675  22.557   1.823
75917W        W37283  18.275  23.575  10.992
75918W        W37284   0.367  31.091  12.410
75919W        W37285  21.121  23.629   1.325
75920W        W37286  26.101  29.512   1.715
75921W        W37287  21.031  15.628  14.997
75922W        W37288   7.405   7.798   0.948
75923W        W37289  15.175  17.149   2.863
75924W        W37290  17.675  35.007  13.022
75925W        W37291  30.613  18.696   4.151
75926W        W37292  28.440  10.231  13.363
75927W        W37293   1.812  13.630  10.976
75928W        W37294   8.696  10.846  14.349
75929W        W37295  34.602  39.910   4.287
75930W        W37296  12.120  33.581   9.471
75931W        W37297  39.849  29.618   1.833
75932W        W37298   1.894  43.982   2.705
75933W        W37299  18.565   2.301  11.582
75934W        W37300   5.283  12.621   1.214
75935W        W37301  42.875  28.545   0.818
75936W        W37302  17.671  40.829  11.090
75937W        W37303  19.729  24.105   1.769
75938W        W37304  10.637  16.309  11.920
75939W        W37305  35.380  16.255  11.064
75940W        W37306  39.497  36.008   3.338
75941W        W37307   7.213  43.783  11.594
75942W        W37308  35.104  44.954   2.853
75943W        W37309  19.744  28.156  10.448
75944W        W37310  28.957  17.700   4.286
75945W        W37311  33.457   7.763   2.878
75946W        W37312  11.739  12.222   3.718
75947W        W37313  36.020   9.734  11.074
75948W        W37314  44.995  28.951   0.753
75949W        W37315  29.130  13.749   1.260
75950W        W37316  25.695   8.791   5.146
75951W        W37317  27.044  18.590  14.883
75952W        W37318  13.620  20.077   4.718
75953W        W37319  17.166  23.653  13.998
75954W        W37320   0.480  29.071   0.253
75955W        W37321  12.824  25.601   0.833
75956W        W37322  37.511   0.293  14.909
75957W        W37323  43.461  43.807  11.404
75958W        W37324   5.197   4.866   1.252
75959W        W37325  39.029  41.456   3.868
75960W        W37326  13.748  12.195  14.479
75961W        W37327  20.603  37.519  12.923
75962W        W37328  33.128  41.459  13.037
75963W        W37329  31.082  23.507   0.859
75964W        W37330  40.817   0.820   1.881
75965W        W37331  34.954   3.270   5.118
75966W        W37332  12.225   3.230   2.667
75967W        W37333  43.840   3.866  11.436
75968W        W37334  36.387  19.551  10.092
75969W        W37335   5.911   2.332   2.762
75970W        W37336  31.565  16.307  13.041
75971W        W37337  35.520   1.373   1.791
75972W        W37338  37.935   6.711   0.261
75973W        W37339   2.801  40.347  14.302
75974W        W37340  23.534  33.495  12.904
75975W        W37341  34.109  22.642   0.737
75976W        W37342  24.983  39.477   4.822
75977W        W37343  19.577  33.960   0.942
75978W        W37344  39.920  32.920  10.452
75979W        W37345  18.755  15.625   5.209
75980W        W37346  39.881  30.487   4.779
75981W        W37347  40.472  27.568   3.240
75982W        W37348  28.134  26.969  10.502
75983W        W37349   6.407   2.758   1.822
75984W        W37350   4.402   9.662   2.332
75985W        W37351  11.746  25.606   3.270
75986W        W37352  14.593   6.300  12.509
75987W        W37353  19.755   7.386   2.338
75988W        W37354  42.803  20.577   2.389
75989W        W37355  26.040  17.163   2.708
75990W        W37356  13.180   8.730   2.327
75991W        W37357  18.737   1.264   0.253
75992W        W37358  11.291  24.034   0.897
75993W        W37359  33.486  28.563   0.339
75994W        W37360  39.945   5.278  11.074
75995W        W37361  43.966  26.040   3.712
75996W        W37362  10.172  40.939   4.329
75997W        W37363   7.868  36.918   0.862
75998W        W37364   6.845  27.611  11.095
75999W        W37365   9.838  35.429  14.448
76000W        W37366   0.970  34.102  14.778
76001W        W37367   6.804  25.147   1.445
76002W        W37368  33.041  14.094   4.650
76003W        W37369  15.623   5.274   4.827
76004W        W37370  20.137  42.509   3.786
76005W        W37371  30.418  13.242   1.778
76006W        W37372  21.202  28.453  12.911
76007W        W37373  32.112  34.458   2.260
76008W        W37374   0.962   6.778   2.344
76009W        W37375  42.329  23.217  14.852
76010W        W37376  30.931  22.715  10.492
76011W        W37377  13.229  36.016   3.702
76012W        W37378  21.215  15.807  12.394
76013W        W37379  44.437  25.622   3.337
76014W        W37380  24.489  13.845  10.919
76015W        W37381  12.216  37.536  12.877
76016W        W37382   0.797  26.632  12.901
76017W        W37383  18.248   4.430   4.838
76018W        W37384  19.676  19.242  14.910
76019W        W37385  13.605  39.348  11.973
76020W        W37386  21.055  38.935   2.703
76021W        W37387  31.033  19.565   4.294
76022W        W37388  44.913  10.763  11.592
76023W        W37389  23.713  18.715   1.821
76024W        W37390  27.989   5.697   2.198
76025W        W37391  23.018  23.570  14.283
76026W        W37392  36.525   9.748   2.255
76027W        W37393   2.279  21.755  10.994
76028W        W37394  29.074  10.765   2.813
76029W        W37395  16.301  30.453  10.620
76030W        W37396   7.180  39.466   0.958
76031W        W37397  11.251   7.212   2.692
76032W        W37398  18.672   6.795  10.588
76033W        W37399  28.522   2.723   0.427
76034W        W37400  36.980   1.325   4.794
76035W        W37401  28.986  35.041   0.733
76036W        W37402  41.433  35.465   0.327
76037W        W37403   0.311   1.965  14.811
76038W        W37404   4.236  29.128  12.511
76039W        W37405  26.058   0.389  14.976
76040W        W37406  15.164  40.455  12.066
76041W        W37407  10.758  17.605   1.369
76042W        W37408  35.572  20.237   3.869
76043W        W37409  24.584   2.268   2.749
76044W        W37410  21.083  25.991  12.354
76045W        W37411  37.989  15.656  10.502
76046W        W37412  13.315   2.910   4.768
76047W        W37413  36.466  44.947  12.535
76048W        W37414  21.246  23.151   4.132
76049W        W37415  21.742   0.899   1.819
76050W        W37416   0.853  36.089   1.435
76051W        W37417  36.573  44.505   4.353
76052W        W37418  44.816  38.016   0.736
76053W        W37419  16.182  41.462   0.763
76054W        W37420   1.923   7.340   0.934
76055W        W37421  10.743  26.971  12.891
76056W        W37422  35.080  17.096  13.935
76057W        W37423  19.124  21.617   4.142
76058W        W37424   3.390  27.017  11.559
76059W        W37425  15.263  41.297  12.485
76060W        W37426  32.451   2.472  14.766
76061W        W37427  13.247  19.042  11.527
76062W        W37428  37.047   1.751   1.439
76063W        W37429  39.835  43.009   1.780
76064W        W37430   9.353  34.454   0.453
76065W        W37431  28.111  14.302   1.351
76066W        W37432  41.816  26.482   3.743
76067W        W37433  33.997  13.659  12.373
76068W        W37434  22.139  22.691  11.571
76069W        W37435  31.912  15.117  12.456
76070W        W37436  26.680  38.034   2.337
76071W        W37437  15.294  32.018  14.858
76072W        W37438  39.329   9.214  13.967
76073W        W37439  40.945   1.962  12.923
76074W        W37440  44.980   5.763  12.855
76075W        W37441  18.171   2.288   2.777
76076W        W37442  14.319   0.887  13.796
76077W        W37443   1.366   3.231  10.488
76078W        W37444  11.824  13.257  12.992
76079W        W37445  21.172   0.340   1.889
76080W        W37446  19.716  39.021  14.486
76081W        W37447  15.584  42.859  14.353
76082W        W37448  24.709  30.525  12.872
76083W        W37449  28.496  26.057   2.209
76084W        W37450  14.176   2.451  10.544
76085W        W37451   5.335  16.761   1.278
76086W        W37452  41.983  34.508  13.945
76087W        W37453  25.620  34.540   1.407
76088W        W37454  30.147   3.885  14.961
76089W        W37455   4.841  39.514   1.387
76090W        W37456  22.711  21.643  14.777
76091W        W37457   2.807  44.794   0.277
76092W        W37458  39.318  23.542   1.717
76093W        W37459  12.771  40.448  12.032
76094W        W37460  27.957   2.266  14.914
76095W        W37461   5.335   3.844  12.518
76096W        W37462  27.491   6.243  13.520
76097W        W37463  10.363  33.880  11.450
76098W        W37464   5.844   6.739   1.382
76099W        W37465   7.415  12.726  11.999
76100W        W37466  22.226  22.565  13.804
76101W        W37467   1.958  44.795   1.858
76102W        W37468  17.121  15.209   1.839
76103W        W37469  23.620  35.497   3.321
76104W        W37470   2.255   0.283  13.995
76105W        W37471  15.322  11.188   3.635
76106W        W37472  30.987  33.452  14.369
76107W        W37473  32.128  37.341  13.431
76108W        W37474  24.132  12.653   1.278
76109W        W37475  40.311  33.593  12.052
76110W        W37476   7.248  20.680  10.602
76111W        W37477  42.957  28.935   4.148
76112W        W37478   1.930  30.608   4.817
76113W        W37479  16.211  33.876  13.505
76114W        W37480  29.929   1.910  14.984
76115W        W37481  24.219  33.931   4.274
76116W        W37482  11.727  23.548   1.278
76117W        W37483   9.724   9.290  12.855
76118W        W37484   6.192  38.331   1.306
76119W        W37485  44.298  25.010   3.177
76120W        W37486  31.601  13.262   0.736
76121W        W37487  24.177  16.311   4.233
76122W        W37488  43.870   1.822  10.565
76123W        W37489  25.025  19.169   3.677
76124W        W37490  30.933  17.758   0.304
76125W        W37491   8.802  15.229   2.774
76126W        W37492  10.856   3.729   2.345
76127W        W37493  31.608  10.356  11.531
76128W        W37494  36.950   0.440   4.605
76129W        W37495  27.678   1.442   0.959
76130W        W37496   9.304  14.759  10.954
76131W        W37497   9.217   3.829   1.882
76132W        W37498  23.220  40.475   0.855
76133W        W37499  23.081  19.561   0.873
76134W        W37500  20.670  14.137  11.499
76135W        W37501  13.677  30.552   0.955
76136W        W37502  42.781  36.940   0.304
76137W        W37503  16.801  35.551   2.783
76138W        W37504   9.800  37.919  13.989
76139W        W37505   3.332   9.699  11.543
76140W        W37506  18.695  10.238  10.153
76141W        W37507  30.491   5.287   0.830
76142W        W37508  44.467  30.027   4.788
76143W        W37509  18.760  26.977   3.830
76144W        W37510  38.953  15.590  11.004
76145W        W37511  12.646  30.622   0.822
76146W        W37512  43.516  12.825  10.002
76147W        W37513  43.399  42.024  13.452
76148W        W37514  14.832  32.987  12.551
76149W        W37515   1.766  26.997   1.315
76150W        W37516  37.551  25.469  10.987
76151W        W37517  44.300  28.481  13.930
76152W        W37518  23.536  27.977   1.340
76153W        W37519  20.158  33.038  10.908
76154W        W37520  22.569  43.351   4.647
76155W        W37521   1.370  10.219  14.369
76156W        W37522  19.249  37.350  12.547
76157W        W37523  27.085  29.444  14.457
76158W        W37524   9.659  22.709  12.864
76159W        W37525  44.335  40.455   2.396
76160W        W37526   7.744   3.366  10.587
76161W        W37527  36.462  41.431   4.205
76162W        W37528   9.192  40.847  12.433
76163W        W37529  32.471  39.009  12.023
76164W        W37530  37.951  32.073  10.510
76165W        W37531   9.643  18.215   1.221
76166W        W37532  30.962  37.993   2.313
76167W        W37533  42.347  11.371   2.335
76168W        W37534  19.614  27.122   2.280
76169W        W37535  14.129  12.287   2.867
76170W        W37536  18.189  13.113   4.289
76171W        W37537   7.329  10.148  11.066
76172W        W37538   8.241   9.228   1.751
76173W        W37539   3.324  30.634  14.816
76174W        W37540  16.181  41.850   0.750
76175W        W37541  25.140  37.375  11.015
76176W        W37542   9.687  17.707   2.740
76177W        W37543  13.617  41.384  10.419
76178W        W37544  23.209  39.327  14.812
76179W        W37545  35.961  24.591  14.376
76180W        W37546  25.680  10.168  11.471
76181W        W37547   1.343  16.693   0.909
76182W        W37548  28.110  32.432   0.399
76183W        W37549  20.529   4.828   0.822
76184W        W37550  12.855  41.954  12.937
76185W        W37551  19.244  22.514   3.799
76186W        W37552   5.194  12.333   4.805
76187W        W37553   7.869  33.129  10.948
76188W        W37554   9.867  39.474  12.064
76189W        W37555   7.292  24.030   0.903
76190W        W37556  24.527   5.346  13.943
76191W        W37557  39.404  43.468  12.384
76192W        W37558  23.029   0.767   0.274
76193W        W37559  32.979  13.324  13.548
76194W        W37560  20.544  23.566  11.589
76195W        W37561  22.602  40.808  14.362
76196W        W37562  25.602   2.252   1.224
76197W        W37563  42.462  36.428  13.526
76198W        W37564   7.716  23.728  12.016
76199W        W37565  35.375   2.301   3.792
76200W        W37566   6.889  14.830  13.392
76201W        W37567  30.972   0.261  14.772
76202W        W37568   5.746  31.008   0.782
76203W        W37569  24.532  11.225   1.404
76204W        W37570   7.330  13.689   4.239
76205W        W37571  18.697  20.683   1.797
76206W        W37572   1.869  27.638  10.427
76207W        W37573  38.990   9.889  11.421
76208W        W37574  39.450   1.921   3.688
76209W        W37575   0.488   8.825   4.703
76210W        W37576  13.740   2.317   2.690
76211W        W37577  31.912  28.044  14.397
76212W        W37578   8.370  18.550  13.922
76213W        W37579  43.792  38.943  12.468
76214W        W37580  16.812  13.784   2.399
76215W        W37581   0.399   6.703  13.060
76216W        W37582  14.222  40.462  14.442
76217W        W37583  23.634  29.550   4.799
76218W        W37584   6.705   5.333  14.501
76219W        W37585  13.658  14.331   3.218
76220W        W37586  25.093  21.639   2.297
76221W        W37587  26.202  40.322  12.416
76222W        W37588  13.251  26.621  10.936
76223W        W37589  12.228   4.428  14.022
76224W        W37590  36.976  10.316   3.382
76225W        W37591  32.913  21.216  14.865
76226W        W37592  34.981   1.934   3.815
76227W        W37593  20.137  21.644  12.864
76228W        W37594   7.821  14.178  10.624
76229W        W37595   7.271  13.205   3.193
76230W        W37596  10.339  24.058  11.943
76231W        W37597  35.070  30.015  13.898
76232W        W37598   3.845  43.803   3.328
76233W        W37599  44.406   0.390  10.002
76234W        W37600  43.464  14.740   3.162
76235W        W37601  21.087  44.975  12.365
76236W        W37602  21.683  15.322  13.886
76237W        W37603  40.346  28.122   1.319
76238W        W37604   7.236  35.454   1.736
76239W        W37605  30.558  16.631  10.628
76240W        W37606  12.621  24.622   1.380
76241W        W37607   6.348  26.160  11.077
76242W        W37608  16.141  23.147   1.845
76243W        W37609  29.563  14.280  11.086
76244W        W37610  42.014   7.219   5.118
76245W        W37611  39.894  18.587  10.589
76246W        W37612  24.642  37.423   4.145
76247W        W37613   6.261  29.546  10.522
76248W        W37614  31.520  44.304  13.521
76249W        W37615  39.442  37.940   3.307
76250W        W37616  40.386  39.497  10.441
76251W        W37617  13.829  42.882   1.285
76252W        W37618  18.564  29.534  12.577
76253W        W37619  11.787   0.322  11.939
76254W        W37620  39.976  18.126   1.911
76255W        W37621  41.499  39.436  14.324
76256W        W37622   5.768  14.751   1.273
76257W        W37623   1.457   7.348   2.386
76258W        W37624  27.069  20.637  12.895
76259W        W37625  32.469  41.029   3.192
76260W        W37626  10.203  18.128  11.954
76261W        W37627  18.106  43.910   4.321
76262W        W37628  24.712   6.690  13.829
76263W        W37629  43.512   7.725   2.740
76264W        W37630  24.502  32.553   0.273
76265W        W37631  39.455  11.645   3.171
76266W        W37632  12.806  19.767   1.361
76267W        W37633  23.238  28.165  13.342
76268W        W37634   4.400   0.382  14.963
76269W        W37635   3.928  12.632   1.336
76270W        W37636   9.805  41.362  11.378
76271W        W37637  16.156  26.000  13.917
76272W        W37638  33.906   7.734   3.338
76273W        W37639  25.101  28.088  14.931
76274W        W37640  31.030  35.090  12.971
76275W        W37641  36.064  20.117   1.853
76276W        W37642  30.137  17.117  12.001
76277W        W37643  14.724  16.103  13.380
76278W        W37644  11.235  12.762   3.632
76279W        W37645   0.768  23.227  14.925
76280W        W37646   3.906   7.281   1.230
76281W        W37647  12.180   5.840   2.327
76282W        W37648  17.719  37.504   3.776
76283W        W37649  21.222  26.071   4.832
76284W        W37650   0.819  15.773   2.300
76285W        W37651   5.814   7.878  10.096
76286W        W37652  13.633  29.464  12.030
76287W        W37653  21.576  27.536   1.916
76288W        W37654  25.003  16.235  10.626
76289W        W37655  27.010  22.131  12.428
76290W        W37656   2.787  41.977   2.341
76291W        W37657  39.438  24.581   2.255
76292W        W37658  42.311  42.492   4.281
76293W        W37659  23.516  28.117   5.138
76294W        W37660  20.725  14.634   0.402
76295W        W37661  42.524  37.006   1.791
76296W        W37662   5.360   0.913   2.812
76297W        W37663  36.589  22.023   1.274
76298W        W37664  44.417  23.239  13.969
76299W        W37665  20.546  10.818  11.433
76300W        W37666  37.043   9.285   0.966
76301W        W37667   7.873   5.722  12.508
76302W        W37668  27.493   3.413  12.358
76303W        W37669  11.643  25.516   3.753
76304W        W37670  14.682  20.580  11.980
76305W        W37671  40.375  32.984   4.666
76306W        W37672  10.641   2.349  11.436
76307W        W37673  17.606  38.007   3.252
76308W        W37674  13.258   4.283  12.076
76309W        W37675  31.942  42.948   1.735
76310W        W37676  18.226  24.187   2.285
76311W        W37677  32.398  26.015  12.877
76312W        W37678   4.375  38.948  13.315
76313W        W37679  32.910  21.035   4.279
76314W        W37680  23.557   4.708  11.588
76315W        W37681  22.504  23.146  14.434
76316W        W37682  25.476   1.887  10.998
76317W        W37683   9.826   9.857   1.801
76318W        W37684   0.783  15.581  10.002
76319W        W37685  30.619   7.745   4.125
76320W        W37686   4.739  23.528   4.695
76321W        W37687  39.480  28.106  10.967
76322W        W37688   5.312  26.503  14.962
76323W        W37689  41.401  11.318   1.307
76324W        W37690  27.076   9.207  12.553
76325W        W37691   5.854  17.061   3.750
76326W        W37692  25.998  14.238  14.848
76327W        W37693  32.898  29.152  11.911
76328W        W37694  30.014   8.257   3.675
76329W        W37695  32.099  22.617  12.980
76330W        W37696   8.229  44.499  12.521
76331W        W37697  24.009  25.622   1.750
76332W        W37698   1.854  37.523   3.381
76333W        W37699  18.225  29.423   3.750
76334W        W37700  44.450   2.867   1.285
76335W        W37701  18.060   7.726   0.376
76336W        W37702  11.807  22.522  12.864
76337W        W37703  11.673  21.650   3.302
76338W        W37704  23.575  34.520  13.523
76339W        W37705  26.474  16.309   2.238
76340W        W37706   3.872  18.229  14.506
76341W        W37707  31.618  23.175  11.055
76342W        W37708  26.024  39.914  13.363
76343W        W37709  26.169   2.365   3.796
76344W        W37710  44.416   9.750  13.364
76345W        W37711  23.151  42.361   4.174
76346W        W37712   7.906  28.457   0.902
76347W        W37713  22.716  14.749   2.256
76348W        W37714  40.436  30.039  10.522
76349W        W37715  24.040  41.027  14.471
76350W        W37716  41.372  35.438   3.234
76351W        W37717  21.628  24.660  11.556
76352W        W37718   1.472  26.568   2.842
76353W        W37719  30.971  38.899   5.208
76354W        W37720  19.695  17.201  12.480
76355W        W37721   5.246  31.536   4.200
76356W        W37722  16.189   6.850   3.790
76357W        W37723   2.245  34.973   1.383
76358W        W37724  42.899  34.570   2.661
76359W        W37725  23.113  28.101   1.759
76360W        W37726  31.445  22.668   2.401
76361W        W37727  25.630   3.829  13.883
76362W        W37728  20.759  42.870  12.437
76363W        W37729  27.479  40.957   2.411
76364W        W37730  40.912  18.729   0.451
76365W        W37731   0.790  22.008  13.825
76366W        W37732  33.441  35.893  11.922
76367W        W37733  17.124  43.462   0.304
76368W        W37734   2.895  33.454  14.894
76369W        W37735   3.953  29.610  14.785
76370W        W37736  31.613  33.881  11.922
76371W        W37737   2.761   0.429  10.632
76372W        W37738  44.389  38.370   9.940
76373W        W37739   6.381  13.222  12.038
76374W        W37740  18.063  33.961  12.096
76375W        W37741   9.231  22.598  14.000
76376W        W37742  18.758  43.280  13.869
76377W        W37743  43.270   2.325  11.538
76378W        W37744  43.788  28.002   4.194
76379W        W37745  32.629  12.194  13.500
76380W        W37746  18.547   8.195   2.734
76381W        W37747  42.799  20.690  11.122
76382W        W37748   0.467  13.825   3.185
76383W        W37749  26.077  36.002  11.975
76384W        W37750   8.306  44.468   4.719
76385W        W37751  27.530   7.253   2.842
76386W        W37752  17.594  29.661   4.244
76387W        W37753   5.700  18.587  10.628
76388W        W37754  34.906  39.985  14.836
76389W        W37755  29.497  17.591  12.054
76390W        W37756  14.104  43.820  10.126
76391W        W37757  24.198  21.182   0.910
76392W        W37758   4.397  20.133  14.509
76393W        W37759  22.628  29.105   0.304
76394W        W37760  26.034   7.232  14.499
76395W        W37761   6.394  42.882  13.429
76396W        W37762  14.771  23.672   2.187
76397W        W37763  13.186  11.840  12.838
76398W        W37764  14.594   1.836  14.903
76399W        W37765   3.847  31.634  11.546
76400W        W37766  42.937  16.196  14.812
76401W        W37767  30.449   3.710  14.413
76402W        W37768   3.334  16.582  12.507
76403W        W37769   2.864  21.701   2.736
76404W        W37770   7.346  40.919   1.310
76405W        W37771  35.407  15.329   4.218
76406W        W37772  11.701  44.823  13.841
76407W        W37773  35.874  42.969  12.554
76408W        W37774  40.849   0.382  14.447
76409W        W37775  40.503  43.860  12.479
76410W        W37776  31.040  17.726  13.017
76411W        W37777   3.918  12.159   3.733
76412W        W37778  24.208  16.700   4.255
76413W        W37779  42.493  26.158  11.081
76414W        W37780  29.048  12.697  10.507
76415W        W37781  18.731  42.464   4.305
76416W        W37782  40.377   6.877  13.863
76417W        W37783   3.222   1.762  12.075
76418W        W37784  38.350  43.471  14.475
76419W        W37785  29.472  20.601   4.118
76420W        W37786   4.233  42.850   2.277
76421W        W37787  10.816  14.626  11.521
76422W        W37788  13.834  19.598   0.789
76423W        W37789  44.471  15.276  14.887
76424W        W37790  20.195   3.310   1.763
76425W        W37791  40.965  14.141  10.551
76426W        W37792  23.203  42.413  11.028
76427W        W37793   6.923  29.136  14.365
76428W        W37794  20.038  22.008   3.654
76429W        W37795   1.242  27.541   3.348
76430W        W37796  29.941  29.947   0.380
76431W        W37797  39.915   2.238   4.349
76432W        W37798  41.526  19.150   0.317
76433W        W37799  35.363  35.002  13.995
76434W        W37800  27.074  25.018  12.488
76435W        W37801  41.832  31.941  11.514
76436W        W37802   9.216  21.222   4.142
76437W        W37803   9.809  16.731   1.447
76438W        W37804  30.916  39.520   1.394
76439W        W37805  38.468  27.691   0.824
76440W        W37806  19.666   7.234  10.509
76441W        W37807  35.980  38.925   4.653
76442W        W37808   5.216  31.581   0.386
76443W        W37809   2.276  37.906   2.380
76444W        W37810  23.242  29.473   3.648
76445W        W37811  13.618  43.794  12.994
76446W        W37812  17.692  32.488   1.326
76447NA+    NA+37813  38.548  29.505  10.589
76448NA+    NA+37814   0.814  28.171  12.935
76449NA+    NA+37815  34.015   7.220  14.321
76450NA+    NA+37816  13.254  22.524   3.225
76451NA+    NA+37817  21.111  17.590  14.979
76452NA+    NA+37818   6.775  34.955  11.970
76453NA+    NA+37819  13.732   0.333   1.446
76454NA+    NA+37820  11.248   7.192  10.641
76455NA+    NA+37821  36.051  21.209   5.104
76456NA+    NA+37822   9.795   4.714  12.915
76457NA+    NA+37823   2.860  34.452   1.882
76458NA+    NA+37824  10.255   3.225  11.936
76459NA+    NA+37825  15.295  44.328  14.973
76460NA+    NA+37826   5.858  12.840  14.415
76461NA+    NA+37827   4.839  25.647  13.790
76462NA+    NA+37828  42.437   9.296   4.316
76463NA+    NA+37829  21.135   5.934  14.853
76464NA+    NA+37830  34.395   0.454  12.509
76465NA+    NA+37831  29.663   3.802   3.660
76466NA+    NA+37832  42.474  21.570  14.944
76467NA+    NA+37833   8.373   6.861   2.221
76468NA+    NA+37834  34.579  44.780   4.215
76469NA+    NA+37835  19.666  37.019  14.316
76470NA+    NA+37836  40.994  29.058   3.329
76471NA+    NA+37837  13.208  19.284   3.148
76472NA+    NA+37838  18.107  31.604  14.314
76473NA+    NA+37839  19.040  21.251   2.318
76474NA+    NA+37840   8.254  36.981   2.708
76475NA+    NA+37841   1.428  12.839   0.270
76476NA+    NA+37842  30.937   5.752  12.534
76477NA+    NA+37843  43.420   4.779  13.464
76478NA+    NA+37844   2.320  11.692   0.484
76479NA+    NA+37845   5.922  28.671   3.148
76480NA+    NA+37846  39.524  18.606  11.581
76481NA+    NA+37847  30.907  36.097   3.258
76482NA+    NA+37848   4.318   2.424  14.377
76483NA+    NA+37849  39.352  23.013   4.765
76484NA+    NA+37850   6.910  29.102   2.185
76485NA+    NA+37851  27.487  38.032  13.846
76486NA+    NA+37852  10.207  24.537   4.238
76487NA+    NA+37853  14.813  39.350   3.311
76488NA+    NA+37854  20.265   2.899   2.842
76489NA+    NA+37855  22.201  41.976   3.745
76490NA+    NA+37856  15.816  16.252   0.475
76491NA+    NA+37857  36.070  15.245  14.834
76492NA+    NA+37858  20.692  20.219   1.269
76493NA+    NA+37859   8.184  34.521  11.437
76494NA+    NA+37860  36.976  10.702  12.852
76495NA+    NA+37861  31.442  12.692  11.109
76496NA+    NA+37862  26.496  10.161   4.156
76497NA+    NA+37863  31.494  39.481  11.092
76498NA+    NA+37864  34.891  31.638  14.506
76499NA+    NA+37865  44.428   4.280   2.248
76500NA+    NA+37866  34.106  26.128  14.029
76501NA+    NA+37867   1.897  39.848  12.026
76502NA+    NA+37868  27.048  36.087  12.959
76503NA+    NA+37869  27.570  38.001  14.787
76504NA+    NA+37870  17.131  26.080  13.917
76505NA+    NA+37871  19.621  10.751  13.477
76506NA+    NA+37872  14.671   3.345  14.460
76507NA+    NA+37873  37.918   2.938  11.122
76508NA+    NA+37874  17.785  43.980   2.774
76509NA+    NA+37875  42.952  36.443   0.275
76510NA+    NA+37876   6.805  10.659  14.887
76511NA+    NA+37877  44.496  12.192  13.526
76512NA+    NA+37878  35.603  43.377  14.374
76513NA+    NA+37879  39.057  21.176   0.896
76514NA+    NA+37880  43.903   0.491  13.880
76515NA+    NA+37881   8.665  34.438   0.293
76516NA+    NA+37882  33.078  23.562   4.151
76517NA+    NA+37883  19.175  43.471   4.175
76518NA+    NA+37884  33.030  29.666   2.860
76519NA+    NA+37885   9.237  33.434  12.552
76520NA+    NA+37886  39.808  37.449  11.068
76521NA+    NA+37887   9.704  32.008  11.400
76522NA+    NA+37888  31.603   2.451   0.458
76523NA+    NA+37889   7.172  31.539   0.295
76524NA+    NA+37890  28.125  20.259   4.330
76525NA+    NA+37891   3.379   9.676   1.730
76526NA+    NA+37892  31.989   6.720  11.472
76527NA+    NA+37893  12.801  28.177  14.877
76528NA+    NA+37894  12.772  38.343   2.403
76529NA+    NA+37895  33.996  40.983   2.292
76530NA+    NA+37896  44.406  24.152   5.084
76531NA+    NA+37897  21.573   4.336   2.235
76532NA+    NA+37898   3.437   4.734   2.832
76533NA+    NA+37899  29.935  10.736  14.806
76534NA+    NA+37900  25.702  44.768   1.290
76535NA+    NA+37901  44.421  21.235   2.753
76536NA+    NA+37902  30.148  41.937  11.574
76537NA+    NA+37903  15.628   9.754   4.237
76538NA+    NA+37904  34.416   3.264   0.768
76539NA+    NA+37905   0.966  11.845  14.483
76540NA+    NA+37906  22.691  41.918   3.362
76541NA+    NA+37907  11.291  34.523   3.748
76542NA+    NA+37908   8.307  30.621  12.061
76543NA+    NA+37909  38.881  33.928  14.443
76544NA+    NA+37910  33.122   1.842  11.580
76545NA+    NA+37911  30.542  16.116  11.560
76546NA+    NA+37912  44.380  17.617   1.420
76547NA+    NA+37913  18.763  11.344  13.921
76548NA+    NA+37914   8.309  21.581   2.234
76549NA+    NA+37915  29.446   0.792   2.778
76550NA+    NA+37916  15.614  11.260   4.676
76551NA+    NA+37917  40.002  10.275  10.608
76552NA+    NA+37918  26.091   2.320   0.805
76553NA+    NA+37919  27.504  22.712   1.327
76554NA+    NA+37920  12.273  27.524   0.407
76555NA+    NA+37921  25.677  42.854   3.366
76556NA+    NA+37922  40.515   1.826  12.890
76557NA+    NA+37923  27.608   5.436  11.937
76558NA+    NA+37924  41.980  25.084   3.344
76559NA+    NA+37925  31.583   9.216  12.892
76560NA+    NA+37926  31.136   9.671   4.310
76561NA+    NA+37927  41.347  22.124   2.688
76562NA+    NA+37928  12.335  41.467   2.886
76563NA+    NA+37929  30.036   7.324  11.909
76564NA+    NA+37930  41.024  20.588  12.570
76565NA+    NA+37931  39.951  11.262  11.075
76566NA+    NA+37932  31.004   7.217   4.796
76567NA+    NA+37933  29.959  34.979   2.311
76568NA+    NA+37934  22.034   3.455   2.743
76569NA+    NA+37935   6.710  21.579   0.845
76570NA+    NA+37936  26.569   8.267  11.611
76571NA+    NA+37937  17.666  33.065   4.824
76572NA+    NA+37938  29.048   8.260   2.675
76573NA+    NA+37939  12.316  30.569   1.418
76574NA+    NA+37940  30.982  37.887   0.341
76575NA+    NA+37941   6.400  32.423  11.601
76576NA+    NA+37942  38.378  18.627  14.464
76577NA+    NA+37943  31.633   0.291  13.916
76578NA+    NA+37944  34.446  43.498  11.430
76579NA+    NA+37945  11.830  14.810   4.211
76580NA+    NA+37946  28.993  30.513  10.924
76581NA+    NA+37947   5.291  42.789   1.774
76582NA+    NA+37948  40.016   3.261  11.492
76583NA+    NA+37949  15.625  39.027   2.774
76584NA+    NA+37950   1.947  23.067  11.856
76585NA+    NA+37951  30.928  17.711  13.954
76586NA+    NA+37952  29.974  43.910   2.807
76587NA+    NA+37953  38.031  25.608  12.869
76588NA+    NA+37954  38.902   0.436  11.051
76589NA+    NA+37955   0.388  34.587  13.861
76590NA+    NA+37956  10.759   3.371   1.447
76591NA+    NA+37957  39.958  33.994   0.385
76592NA+    NA+37958  25.687  23.169  14.475
76593NA+    NA+37959   3.774  10.138  11.432
76594NA+    NA+37960  18.566   0.882   2.216
76595NA+    NA+37961   2.265  44.390  12.932
76596NA+    NA+37962  28.945  29.098  12.911
76597NA+    NA+37963  38.924   7.822   3.685
76598NA+    NA+37964   8.222  38.420   2.375
76599NA+    NA+37965  29.141   4.374   4.325
76600NA+    NA+37966  43.011  17.209  13.339
76601NA+    NA+37967  41.304  37.916  11.952
76602NA+    NA+37968  39.530  37.547   0.741
76603NA+    NA+37969  21.659  43.348  13.964
76604NA+    NA+37970   6.696   8.401  11.080
76605NA+    NA+37971  21.678  40.459   4.747
76606NA+    NA+37972  20.618  34.901  10.146
76607NA+    NA+37973   7.385   3.854  12.999
76608NA+    NA+37974  13.782   1.958  10.641
76609NA+    NA+37975  13.634  20.700  10.442
76610NA+    NA+37976  40.409  40.894  10.588
76611NA+    NA+37977   0.387  23.568   4.619
76612NA+    NA+37978  31.994   4.339   4.689
76613NA+    NA+37979   0.877  18.146   0.771
76614NA+    NA+37980  20.080   3.446   4.234
76615NA+    NA+37981  12.155  35.475   3.817
76616NA+    NA+37982   6.799  27.176  13.316
76617NA+    NA+37983  16.715   6.385   3.307
76618NA+    NA+37984   7.866   1.447  11.513
76619NA+    NA+37985  14.696  28.625  10.912
76620NA+    NA+37986  34.933  11.282  12.069
76621NA+    NA+37987   9.183  42.840   5.198
76622NA+    NA+37988  15.745  37.836  14.984
76623NA+    NA+37989   0.904   5.266  13.430
76624NA+    NA+37990  30.581   6.753   0.441
76625NA+    NA+37991   6.840  31.922  10.919
76626NA+    NA+37992  11.235   3.739  14.845
76627NA+    NA+37993  12.682  44.765   3.174
76628NA+    NA+37994  21.239   4.444  13.919
76629NA+    NA+37995  25.504  38.513  13.951
76630NA+    NA+37996  14.590  19.041   3.338
76631NA+    NA+37997  11.179   6.182   1.303
76632NA+    NA+37998  35.911  40.470   1.762
76633NA+    NA+37999  22.079  15.307   4.160
76634NA+    NA+38000   7.755  19.740  12.847
76635NA+    NA+38001  30.012   8.193  13.040
76636NA+    NA+38002  26.970  10.645  10.426
76637NA+    NA+38003  40.033  27.680  13.382
76638NA+    NA+38004  35.937   4.822   3.235
76639NA+    NA+38005  27.000  27.162  13.790
76640NA+    NA+38006  40.809  15.169  11.052
76641NA+    NA+38007   6.723  37.556   4.729
76642NA+    NA+38008  16.140  30.534   3.291
76643NA+    NA+38009  11.826  42.011   3.352
76644NA+    NA+38010  16.271  20.714   2.747
76645NA+    NA+38011  13.329  12.840  12.519
76646NA+    NA+38012  26.663  15.311   2.671
76647NA+    NA+38013  25.510  43.870   3.845
76648NA+    NA+38014  27.155  38.964   2.362
76649NA+    NA+38015  20.719  20.670   1.265
76650NA+    NA+38016  11.173  22.162  10.486
76651NA+    NA+38017  37.986   5.730  11.517
76652NA+    NA+38018  38.451  20.537  12.554
76653NA+    NA+38019  42.936  22.598  10.533
76654NA+    NA+38020  14.635  27.566  14.385
76655NA+    NA+38021  16.138  16.271  11.500
76656NA+    NA+38022  31.129  21.577   0.886
76657NA+    NA+38023  14.681  21.704   0.356
76658NA+    NA+38024  29.008  34.488   4.331
76659NA+    NA+38025  26.612   9.379   1.826
76660NA+    NA+38026   8.353  13.811   4.117
76661NA+    NA+38027  39.059  36.529  12.355
76662NA+    NA+38028   5.781  32.892   0.333
76663NA+    NA+38029  37.024  33.427  13.503
76664NA+    NA+38030  14.591   1.850  13.431
76665NA+    NA+38031   5.758  24.082   4.283
76666NA+    NA+38032   0.785   2.295  14.350
76667NA+    NA+38033  41.983  39.456   4.798
76668NA+    NA+38034  19.632  44.492   2.829
76669NA+    NA+38035  30.623   5.301   4.124
76670NA+    NA+38036  14.819  22.132   4.115
76671NA+    NA+38037  30.111  16.734   0.295
76672NA+    NA+38038  22.528  33.024  11.568
76673NA+    NA+38039  38.888   8.392  10.992
76674NA+    NA+38040  42.332  14.143   3.788
76675NA+    NA+38041   0.950  12.232   1.696
76676NA+    NA+38042  24.212  30.602   1.246
76677NA+    NA+38043  28.136  32.020   4.733
76678NA+    NA+38044  22.549  12.632  10.562
76679NA+    NA+38045   0.411  12.785  13.941
76680NA+    NA+38046   4.218  17.290  14.977
76681NA+    NA+38047  36.532  41.525   5.311
76682NA+    NA+38048   6.309  33.589   4.147
76683NA+    NA+38049   5.733  43.944   2.287
76684NA+    NA+38050  13.778   6.205   4.766
76685NA+    NA+38051  38.956  33.465   5.229
76686NA+    NA+38052  19.256   2.745   4.169
76687NA+    NA+38053  29.962  38.895  11.906
76688NA+    NA+38054   2.401  44.798   0.739
76689NA+    NA+38055  36.374  27.568  11.373
76690NA+    NA+38056  35.521  14.250   0.323
76691NA+    NA+38057  25.032   4.885  11.923
76692NA+    NA+38058  28.608  24.136  10.036
76693NA+    NA+38059  39.476  14.101  11.432
76694NA+    NA+38060  41.326  35.900  13.442
76695NA+    NA+38061  14.246  41.511  14.400
76696NA+    NA+38062  38.917   9.283  13.926
76697NA+    NA+38063  32.426  43.351   2.335
76698NA+    NA+38064  26.479  27.989   2.373
76699NA+    NA+38065  14.661  25.055  12.033
76700NA+    NA+38066  28.127   2.744   0.370
76701NA+    NA+38067  17.079  35.408  14.413
76702NA+    NA+38068  42.410  38.530   2.407
76703NA+    NA+38069  11.237   6.302  12.825
76704NA+    NA+38070  11.235  10.739   4.661
76705NA+    NA+38071  22.136   0.353  11.581
76706NA+    NA+38072  41.962   2.933   4.768
76707NA+    NA+38073  41.408  16.205   3.225
76708NA+    NA+38074   9.757  22.012   0.787
76709NA+    NA+38075  26.175  10.215  14.392
76710NA+    NA+38076  26.082  37.553   3.831
76711NA+    NA+38077   2.385   9.271  10.943
76712NA+    NA+38078  31.447  19.765   0.941
76713NA+    NA+38079  30.959  22.645   3.189
76714NA+    NA+38080  38.510  19.089   3.809
76715NA+    NA+38081  33.412  10.219  13.896
76716NA+    NA+38082  37.372  14.131   3.208
76717NA+    NA+38083  20.621   0.900   4.172
76718NA+    NA+38084  16.163  13.262   2.727
76719NA+    NA+38085  10.855  24.062  13.832
76720NA+    NA+38086  30.144  40.029  12.839
76721NA+    NA+38087  12.773  34.462  14.488
76722NA+    NA+38088  12.341  38.420   4.741
76723NA+    NA+38089  33.439   6.365  10.908
76724NA+    NA+38090   5.823  14.776  10.082
76725NA+    NA+38091  10.274   8.832   4.321
76726NA+    NA+38092  17.775   0.373   3.817
76727NA+    NA+38093  42.826  40.311   0.311
76728NA+    NA+38094   7.299  22.171  10.631
76729NA+    NA+38095  34.943  25.534  13.035
76730NA+    NA+38096   9.817  11.773   3.639
76731NA+    NA+38097  41.530  36.498  13.479
76732NA+    NA+38098  38.985  33.439   1.261
76733NA+    NA+38099  43.346   1.388  14.404
76734NA+    NA+38100  23.499  20.707  11.952
76735NA+    NA+38101  28.135  40.527   3.653
76736NA+    NA+38102  14.187   5.399  14.922
76737NA+    NA+38103   8.785  10.816   4.666
76738NA+    NA+38104   3.367  40.400  10.900
76739NA+    NA+38105  31.644   9.174  11.579
76740NA+    NA+38106  41.437  36.371  14.494
76741NA+    NA+38107  11.625  17.802  11.523
76742NA+    NA+38108  34.528  21.233   4.676
76743NA+    NA+38109   4.849  28.081   3.855
76744NA+    NA+38110  11.166   3.916  11.535
76745NA+    NA+38111  35.527   9.333  13.546
76746NA+    NA+38112  35.958  26.201   3.629
76747NA+    NA+38113  41.508  44.923  12.477
76748NA+    NA+38114  37.380  14.785   2.202
76749NA+    NA+38115  20.749  22.701   3.248
76750NA+    NA+38116  17.720  43.414   1.445
76751NA+    NA+38117  37.934  38.879   2.377
76752NA+    NA+38118  28.091  14.623   2.845
76753NA+    NA+38119  13.219  32.128   2.365
76754NA+    NA+38120  40.466  27.523  11.601
76755NA+    NA+38121  13.671  22.233   4.267
76756NA+    NA+38122  11.231  43.984   1.707
76757NA+    NA+38123  20.614  35.522  14.832
76758NA+    NA+38124  33.092  19.613  12.086
76759NA+    NA+38125  22.714   4.211  14.758
76760NA+    NA+38126  20.247   9.786  11.390
76761NA+    NA+38127  15.131  30.044   0.920
76762NA+    NA+38128  10.780   1.965  13.374
76763NA+    NA+38129  16.715   3.250   4.741
76764NA+    NA+38130  38.455  42.310  10.919
76765NA+    NA+38131   2.305  28.047  14.899
76766NA+    NA+38132  38.485  18.126   4.208
76767NA+    NA+38133   0.356  22.091  13.807
76768NA+    NA+38134  16.713  40.006   2.336
76769NA+    NA+38135  36.882  43.791   2.867
76770NA+    NA+38136  37.013  29.543  10.419
76771NA+    NA+38137  21.645  10.286  14.985
76772NA+    NA+38138  13.771  42.385   0.434
76773NA+    NA+38139  19.221  15.198  14.496
76774NA+    NA+38140  15.710   1.743  12.400
76775NA+    NA+38141  14.258  18.598   2.237
76776NA+    NA+38142  18.687   9.805  10.629
76777NA+    NA+38143  19.603  22.044  13.461
76778NA+    NA+38144  28.017  37.030  11.103
76779NA+    NA+38145  25.050  15.636   5.221
76780NA+    NA+38146  18.206  37.469  13.434
76781NA+    NA+38147   6.285  20.701  12.920
76782NA+    NA+38148  14.614  34.553   0.366
76783NA+    NA+38149  29.024   6.719  11.482
76784NA+    NA+38150  25.084  28.949  14.471
76785NA+    NA+38151  10.782  36.053   0.359
76786NA+    NA+38152  19.749   3.843  14.433
76787NA+    NA+38153  10.737  24.170   1.342
76788NA+    NA+38154  44.308  15.718  10.918
76789NA+    NA+38155  37.919  20.244   3.685
76790NA+    NA+38156   4.802  19.646  10.496
76791NA+    NA+38157  36.423  18.212  11.556
76792NA+    NA+38158  18.258  14.696   1.425
76793NA+    NA+38159  39.509  35.469   0.941
76794NA+    NA+38160  39.963  16.687   2.293
76795NA+    NA+38161   7.277   5.206  14.312
76796NA+    NA+38162  22.218   6.422   2.323
76797NA+    NA+38163   2.397  33.875  12.851
76798NA+    NA+38164  23.636  34.991   3.843
76799NA+    NA+38165  33.388  33.512  14.842
76800NA+    NA+38166  42.406  17.190  12.841
76801NA+    NA+38167  18.628   2.803   0.309
76802NA+    NA+38168  43.963   9.685  13.543
76803NA+    NA+38169  13.829   8.340   2.335
76804NA+    NA+38170  28.444   3.938   2.336
76805NA+    NA+38171  31.637  42.809   2.339
76806NA+    NA+38172  35.085  26.204  11.427
76807NA+    NA+38173   6.733  19.131  11.916
76808NA+    NA+38174   8.659  28.073  14.795
76809NA+    NA+38175  40.312  28.453   1.767
76810NA+    NA+38176  34.550  29.112   2.298
76811NA+    NA+38177  10.680   4.763   3.797
76812NA+    NA+38178   8.720  30.084   2.378
76813NA+    NA+38179  15.092  29.608  14.343
76814NA+    NA+38180  44.976  36.942   2.326
76815NA+    NA+38181  31.985  20.647   3.240
76816NA+    NA+38182  19.070  15.329   2.400
76817NA+    NA+38183  19.659  30.435   3.255
76818NA+    NA+38184  27.594  17.589  13.007
76819NA+    NA+38185   5.262  33.951  11.373
76820NA+    NA+38186  43.869   6.395  10.411
76821NA+    NA+38187  18.690  21.018  11.526
76822NA+    NA+38188  41.838  20.555  10.913
76823NA+    NA+38189  36.992  36.482  12.508
76824NA+    NA+38190   9.643  23.058  11.061
76825NA+    NA+38191  15.087  18.674  14.355
76826NA+    NA+38192   8.274  20.525   2.227
76827NA+    NA+38193  30.595  23.023  14.306
76828NA+    NA+38194   2.741  38.337   4.833
76829NA+    NA+38195  44.408  33.531   5.122
76830NA+    NA+38196  16.102   1.932   4.607
76831NA+    NA+38197  15.778  22.551  12.484
76832NA+    NA+38198  29.425   4.935   3.358
76833NA+    NA+38199  41.337  39.953   0.929
76834NA+    NA+38200   6.761  17.660   4.759
76835NA+    NA+38201  29.970  37.021  10.954
76836NA+    NA+38202   5.817  20.543  11.047
76837NA+    NA+38203  28.950  11.271   1.274
76838NA+    NA+38204  14.247   3.390  12.057
76839NA+    NA+38205   1.372  11.809  10.978
76840NA+    NA+38206   8.822  43.968   4.246
76841NA+    NA+38207  31.025  28.478  12.901
76842NA+    NA+38208  22.723   6.701   3.670
76843NA+    NA+38209  17.234  10.258  13.034
76844NA+    NA+38210  33.420  11.301  12.533
76845NA+    NA+38211   9.719  33.449   0.402
76846NA+    NA+38212  21.196   8.698   1.450
76847NA+    NA+38213  34.917  10.657   0.351
76848NA+    NA+38214  39.940  35.988  12.502
76849NA+    NA+38215  31.629  16.806  10.454
76850NA+    NA+38216  41.842  29.553   3.162
76851NA+    NA+38217  28.069  26.611   0.901
76852NA+    NA+38218  11.841  41.990  12.554
76853NA+    NA+38219  19.590  38.010   3.756
76854NA+    NA+38220  25.994  13.126  12.360
76855NA+    NA+38221  20.590  12.666  14.416
76856NA+    NA+38222  26.669  19.273  10.405
76857NA+    NA+38223  28.994  19.727  13.969
76858NA+    NA+38224  44.491  42.933  12.343
76859NA+    NA+38225  24.579  27.011   2.900
76860NA+    NA+38226  32.903  32.425  14.966
76861NA+    NA+38227   9.295   7.899  10.438
76862NA+    NA+38228  21.233  25.094   3.859
76863NA+    NA+38229  22.246  35.406   2.346
76864NA+    NA+38230   9.199  36.880  12.405
76865NA+    NA+38231  24.013  33.975   2.825
76866NA+    NA+38232   9.810  34.874   4.680
76867NA+    NA+38233   5.358  13.770   5.190
76868NA+    NA+38234  25.516  18.232  14.985
76869NA+    NA+38235  36.993  25.664   3.832
76870NA+    NA+38236   7.263  12.696  11.611
76871NA+    NA+38237  19.190  33.542  14.368
76872NA+    NA+38238  28.977  17.571  13.989
76873NA+    NA+38239  30.622  41.973  10.441
76874NA+    NA+38240   4.329  34.387   4.219
76875NA+    NA+38241   6.851  17.116   1.318
76876NA+    NA+38242  19.580  22.122  12.575
76877NA+    NA+38243   5.237  14.620   5.127
76878NA+    NA+38244  38.829  27.118  14.410
76879NA+    NA+38245  25.110  22.744   2.852
76880NA+    NA+38246   7.254   0.798  13.913
76881NA+    NA+38247  33.999  24.042   2.412
76882NA+    NA+38248   4.803  32.541   4.698
76883NA+    NA+38249  21.157  29.634  10.887
76884NA+    NA+38250  13.342  24.702  13.502
76885NA+    NA+38251  33.082  16.684  12.420
76886NA+    NA+38252  25.475  31.976   4.304
76887NA+    NA+38253  33.535  17.792   2.749
76888NA+    NA+38254  26.695  41.042   3.716
76889NA+    NA+38255  41.014  37.868  10.508
76890NA+    NA+38256   5.385  37.848   0.729
76891NA+    NA+38257  38.337  37.393  13.368
76892NA+    NA+38258  22.632  19.237  10.460
76893NA+    NA+38259  10.283  12.191   4.612
76894NA+    NA+38260  29.464   6.843  12.833
76895NA+    NA+38261   8.661  40.539  11.458
76896NA+    NA+38262  17.064  19.173   4.286
76897NA+    NA+38263  41.862   6.193  10.112
76898NA+    NA+38264  39.830   4.809  13.970
76899NA+    NA+38265  18.589  27.532   2.697
76900NA+    NA+38266  27.164   4.860  10.923
76901NA+    NA+38267  36.503  37.088   3.339
76902NA+    NA+38268  19.084  11.733  14.843
76903NA+    NA+38269  21.710   9.766   1.316
76904NA+    NA+38270  26.023   6.393   4.645
76905NA+    NA+38271  10.182  11.183   2.818
76906NA+    NA+38272  26.099  25.693  14.378
76907NA+    NA+38273  33.999  30.540  10.554
76908NA+    NA+38274  19.766  41.484   3.205
76909NA+    NA+38275   7.758  16.150   1.834
76910NA+    NA+38276  16.135  37.389  13.801
76911NA+    NA+38277   6.810  43.790   0.444
76912NA+    NA+38278   7.297  41.950   3.290
76913NA+    NA+38279  11.258  15.653  11.062
76914NA+    NA+38280   0.763   1.744  10.905
76915NA+    NA+38281   8.722   3.849   2.262
76916NA+    NA+38282  30.643  38.027  13.500
76917NA+    NA+38283  29.579  20.734  11.100
76918NA+    NA+38284  17.672  26.598   0.300
76919NA+    NA+38285  24.482   6.308  11.411
76920NA+    NA+38286  39.916   3.262  13.541
76921NA+    NA+38287  26.619  12.187  11.525
76922NA+    NA+38288   8.212   4.788  12.423
76923NA+    NA+38289  10.711  27.193   4.225
76924NA+    NA+38290   8.858  20.699  12.877
76925NA+    NA+38291   3.279  25.471  11.927
76926NA+    NA+38292  41.976  40.955  14.396
76927NA+    NA+38293  33.490  21.551   0.847
76928NA+    NA+38294  39.451  44.778   4.216
76929NA+    NA+38295  20.077  26.658  11.396
76930NA+    NA+38296  30.120  36.434   0.370
76931NA+    NA+38297  26.475  15.182  14.764
76932NA+    NA+38298  33.088   5.235   0.961
76933NA+    NA+38299  41.026  37.997  13.910
76934NA+    NA+38300  19.719  32.534   3.715
76935NA+    NA+38301  36.439  43.505   2.721
76936NA+    NA+38302  11.728   7.750   4.163
76937NA+    NA+38303  13.319  40.479   0.770
76938NA+    NA+38304   2.728  34.088  11.006
76939NA+    NA+38305  27.581  14.634   2.314
76940NA+    NA+38306  27.978   8.800   5.147
76941NA+    NA+38307   0.278  10.764   4.287
76942NA+    NA+38308   6.425  31.064  12.362
76943NA+    NA+38309   5.872  31.021   3.152
76944NA+    NA+38310  34.061  31.438  14.006
76945NA+    NA+38311  44.965  28.550  13.876
76946NA+    NA+38312  30.026  35.978  14.016
76947NA+    NA+38313  42.883   4.739   4.663
76948NA+    NA+38314  22.721  31.463  14.490
76949NA+    NA+38315  27.031  32.500   4.174
76950NA+    NA+38316  42.440  41.538   4.606
76951NA+    NA+38317  38.991  40.512  13.448
76952NA+    NA+38318  17.265   7.315   3.821
76953NA+    NA+38319  35.865  39.954   9.469
76954NA+    NA+38320  24.052  29.509  12.860
76955NA+    NA+38321  17.069  20.737  14.032
76956NA+    NA+38322  24.112  30.459  12.979
76957NA+    NA+38323  36.540  41.317  13.826
76958NA+    NA+38324   8.389   8.202  14.410
76959NA+    NA+38325  30.959  43.940  11.383
76960NA+    NA+38326  42.365  34.001   3.319
76961NA+    NA+38327  26.141  27.642  11.613
76962NA+    NA+38328  10.685  44.985   1.393
76963NA+    NA+38329  10.709  29.616  12.919
76964NA+    NA+38330   2.421  18.719   3.325
76965NA+    NA+38331   2.324  21.751  12.085
76966NA+    NA+38332  16.806   7.204   2.747
76967NA+    NA+38333   8.317  35.876   1.733
76968NA+    NA+38334  16.598  28.438   4.224
76969NA+    NA+38335  15.120  37.056  10.065
76970NA+    NA+38336   6.344  35.078  12.842
76971NA+    NA+38337  43.406   2.753  10.939
76972NA+    NA+38338  40.516   7.250  14.464
76973NA+    NA+38339  44.771   8.374  13.927
76974NA+    NA+38340  14.710   0.981  13.531
76975NA+    NA+38341  40.484  44.311   5.165
76976NA+    NA+38342   3.725  39.339  11.886
76977NA+    NA+38343   7.251  21.557  10.529
76978NA+    NA+38344  17.657  24.079  13.964
76979NA+    NA+38345  10.327  39.350  14.880
76980NA+    NA+38346  29.442  33.943   2.359
76981NA+    NA+38347   0.786   6.259  12.428
76982NA+    NA+38348  41.026  25.603  11.525
76983NA+    NA+38349   6.676  44.941   1.308
76984NA+    NA+38350  35.577  44.352   9.952
76985NA+    NA+38351   9.677  26.621   4.195
76986NA+    NA+38352  22.705   5.316  13.828
76987NA+    NA+38353   1.739   8.299   2.784
76988NA+    NA+38354  44.368  43.463   0.421
76989NA+    NA+38355  39.028  34.031  10.926
76990NA+    NA+38356  11.141  17.724   1.384
76991NA+    NA+38357  14.596  31.971  14.956
76992NA+    NA+38358  14.280  17.150   4.192
76993NA+    NA+38359  12.297  21.077  11.076
76994NA+    NA+38360  24.192  21.535  12.397
76995NA+    NA+38361  28.933  13.750  14.945
76996NA+    NA+38362   2.851  15.806  14.341
76997NA+    NA+38363   5.424  32.049   2.859
76998NA+    NA+38364  31.515  25.617  13.505
76999NA+    NA+38365  10.308  22.132  12.421
77000NA+    NA+38366   0.937  15.739  10.644
77001NA+    NA+38367  14.233  44.879  11.489
77002NA+    NA+38368  20.608  12.800  13.350
77003NA+    NA+38369  12.172  17.606  13.366
77004NA+    NA+38370  25.100  27.124   5.735
77005NA+    NA+38371   7.219  10.678  13.393
77006NA+    NA+38372   5.763  25.679  10.946
77007NA+    NA+38373  28.577   1.471   2.193
77008NA+    NA+38374  37.562   9.836  14.924
77009NA+    NA+38375   4.709   0.461   1.795
77010NA+    NA+38376  42.979   3.781   2.309
77011NA+    NA+38377  22.061  24.673   4.203
77012NA+    NA+38378  30.597  11.698   4.161
77013NA+    NA+38379  37.399  39.013  14.015
77014NA+    NA+38380   0.910  43.845  12.376
77015NA+    NA+38381   2.382   7.744   1.251
77016NA+    NA+38382  29.512  13.178  11.543
77017NA+    NA+38383  25.178  15.228   4.257
77018NA+    NA+38384  19.276   0.846  12.073
77019NA+    NA+38385   9.758  32.090   2.240
77020NA+    NA+38386  29.091  26.646  10.988
77021NA+    NA+38387  12.615  38.523   3.826
77022NA+    NA+38388   8.252  44.415  12.863
77023NA+    NA+38389  29.149   1.337  12.469
77024NA+    NA+38390   5.256  38.952  13.372
77025NA+    NA+38391  42.976   9.752   3.338
77026NA+    NA+38392   2.820  22.568  13.995
77027NA+    NA+38393  24.986  30.918  12.965
77028NA+    NA+38394  31.503  29.652  10.423
77029NA+    NA+38395  25.534  18.120  11.420
77030NA+    NA+38396  15.268   3.235   0.916
77031NA+    NA+38397   8.286  14.652  13.479
77032NA+    NA+38398   6.318  34.417   0.460
77033NA+    NA+38399  32.605   9.713  13.439
77034NA+    NA+38400  41.533  27.454  13.988
77035NA+    NA+38401   0.982  23.505  12.933
77036NA+    NA+38402  29.627  43.434   3.206
77037NA+    NA+38403  35.485  36.864  12.542
77038NA+    NA+38404  33.412  36.447  10.526
77039NA+    NA+38405  33.001  21.568  14.833
77040NA+    NA+38406  36.474   7.894   2.407
77041NA+    NA+38407   8.398  10.707  14.403
77042NA+    NA+38408  30.595  12.243   0.791
77043NA+    NA+38409  41.499   5.427   2.714
77044NA+    NA+38410  40.540  22.696   0.363
77045NA+    NA+38411  32.886  41.931   0.794
77046NA+    NA+38412  23.556   7.385  11.437
77047NA+    NA+38413  12.244  16.606   1.217
77048NA+    NA+38414  42.411  27.162   2.288
77049NA+    NA+38415   6.314  12.614   1.312
77050NA+    NA+38416  41.488  30.557   3.789
77051NA+    NA+38417  16.752  20.124  11.428
77052NA+    NA+38418   7.268  22.547   0.315
77053NA+    NA+38419  44.264   9.291  10.941
77054NA+    NA+38420  17.592   9.339   1.319
77055NA+    NA+38421  14.099  18.677   3.699
77056NA+    NA+38422  38.347   6.692  13.473
77057NA+    NA+38423  28.627  34.065  10.466
77058NA+    NA+38424   7.740  28.004  12.081
77059NA+    NA+38425  29.567  29.130   3.731
77060NA+    NA+38426  19.644   6.360   1.934
77061NA+    NA+38427   4.267  26.966   0.453
77062NA+    NA+38428  10.795  12.157  13.996
77063NA+    NA+38429  41.984  28.126  10.631
77064NA+    NA+38430   8.262  24.188   2.205
77065NA+    NA+38431  35.956  27.528   4.736
77066NA+    NA+38432   7.744  17.198   3.249
77067NA+    NA+38433   3.951  39.036   0.342
77068NA+    NA+38434   4.220   5.691  14.838
77069NA+    NA+38435  41.980  24.074  12.466
77070NA+    NA+38436  36.092  16.611   2.284
77071NA+    NA+38437   7.824  23.726   2.275
77072NA+    NA+38438  29.964   2.747  12.013
77073NA+    NA+38439  39.385  43.827  13.791
77074NA+    NA+38440  42.018  27.581  12.964
77075NA+    NA+38441  25.174  37.843   2.662
77076NA+    NA+38442   9.811   3.906  13.952
77077NA+    NA+38443  24.105  11.213  11.908
77078NA+    NA+38444  42.485   0.384   2.212
77079NA+    NA+38445  41.888   4.442   2.899
77080NA+    NA+38446  25.552  34.095  13.423
77081NA+    NA+38447  17.269  21.711  14.293
77082NA+    NA+38448  39.452  24.606  14.882
77083NA+    NA+38449  19.780   4.846  13.513
77084NA+    NA+38450  15.154  10.193  10.888
77085NA+    NA+38451   8.720  40.047   2.850
77086NA+    NA+38452  19.712  34.446   1.451
77087NA+    NA+38453  32.564  10.728  11.126
77088NA+    NA+38454  20.105  38.452   0.252
77089NA+    NA+38455   4.846  21.543   3.179
77090NA+    NA+38456  35.364  29.039  14.972
77091NA+    NA+38457  33.970  36.841   2.690
77092NA+    NA+38458   4.414  13.764  14.984
77093NA+    NA+38459  43.970  44.489  11.097
77094NA+    NA+38460  24.173  16.279   1.342
77095NA+    NA+38461  14.330  34.612  11.463
77096NA+    NA+38462  20.695  39.323   0.767
77097NA+    NA+38463  35.449  26.537   2.241
77098NA+    NA+38464  37.491  10.802   2.178
77099NA+    NA+38465  28.599  29.068   5.171
77100NA+    NA+38466  33.130   3.230  12.928
77101NA+    NA+38467   7.815  34.443   4.619
77102NA+    NA+38468  44.445  11.732   3.808
77103NA+    NA+38469  32.891  42.349  13.472
77104NA+    NA+38470   8.252  43.274  12.503
77105NA+    NA+38471  39.351   2.461  14.416
77106NA+    NA+38472  21.026   3.232  10.619
77107NA+    NA+38473  12.632  16.646   4.618
77108NA+    NA+38474  37.903   6.357  12.891
77109NA+    NA+38475  36.895   1.483  11.025
77110NA+    NA+38476  21.237  11.662  10.921
77111NA+    NA+38477  33.425  32.541   4.311
77112NA+    NA+38478  25.080  18.148  14.386
77113NA+    NA+38479  39.918  37.566  11.512
77114NA+    NA+38480  32.446  23.200  14.300
77115NA+    NA+38481  11.191  29.954  12.518
77116NA+    NA+38482   8.383   6.342  12.846
77117NA+    NA+38483   3.714   1.921  11.523
77118NA+    NA+38484   3.307  16.096  12.825
77119NA+    NA+38485  25.120  31.498  14.891
77120NA+    NA+38486  29.547  17.743  13.938
77121NA+    NA+38487  20.527  29.936   4.793
77122NA+    NA+38488   3.404   8.370   3.377
77123NA+    NA+38489  30.442  22.153  13.966
77124NA+    NA+38490  40.012   3.393   2.227
77125NA+    NA+38491  24.077  35.571   1.424
77126NA+    NA+38492  42.833  11.806   5.187
77127NA+    NA+38493  22.998   6.913  11.575
77128NA+    NA+38494   9.290  17.179   3.798
77129NA+    NA+38495  18.065  40.984   3.698
77130NA+    NA+38496  22.578  22.680   9.968
77131NA+    NA+38497  26.150  41.538  11.537
77132NA+    NA+38498  18.712  27.445  10.529
77133NA+    NA+38499  27.003  19.148  13.894
77134NA+    NA+38500  41.982  23.136  14.028
77135NA+    NA+38501  26.054   3.839  12.505
77136NA+    NA+38502  35.861  30.474   4.757
77137NA+    NA+38503   7.324  44.754   2.897
77138NA+    NA+38504  27.520   3.264   1.301
77139NA+    NA+38505  21.609   8.344   3.644
77140NA+    NA+38506  19.623  17.078  11.402
77141NA+    NA+38507  24.725  44.378  14.828
77142NA+    NA+38508   7.713  17.101   1.229
77143NA+    NA+38509  43.973   5.887  13.539
77144NA+    NA+38510  43.437  28.170  10.144
77145NA+    NA+38511  15.242  24.677  13.385
77146NA+    NA+38512   2.466  32.492  10.950
77147NA+    NA+38513  21.199   7.239   2.270
77148NA+    NA+38514  35.450  36.924   1.727
77149NA+    NA+38515  30.638  23.525  11.610
77150NA+    NA+38516  35.002   4.773  12.413
77151NA+    NA+38517  14.106  10.783  13.958
77152NA+    NA+38518  12.834  38.491  14.453
77153NA+    NA+38519  23.098   8.662  11.990
77154NA+    NA+38520  16.596  40.379   1.812
77155NA+    NA+38521  31.551  25.557   3.308
77156NA+    NA+38522  11.364  27.482   3.865
77157NA+    NA+38523  36.522   4.250  11.602
77158NA+    NA+38524  30.468  11.137   2.281
77159NA+    NA+38525  43.794  26.609  12.030
77160NA+    NA+38526  18.749  37.562   0.346
77161NA+    NA+38527   9.880  13.759  10.617
77162NA+    NA+38528  44.288  31.537  10.528
77163NA+    NA+38529  17.572  19.711   3.765
77164NA+    NA+38530  15.592  32.968  13.451
77165NA+    NA+38531  39.378  21.599   4.633
77166NA+    NA+38532  23.670  14.182   2.371
77167NA+    NA+38533  15.583   8.686  11.008
77168NA+    NA+38534  19.697  33.088  10.048
77169NA+    NA+38535   1.428  36.931  14.439
77170NA+    NA+38536  23.168  25.487   1.241
77171NA+    NA+38537  37.961  21.630   2.696
77172NA+    NA+38538   7.192  15.190  14.319
77173NA+    NA+38539  10.827  37.483   3.181
77174NA+    NA+38540  31.003  14.618  12.007
77175NA+    NA+38541  17.764  33.423   4.336
77176NA+    NA+38542   1.335  37.878  11.570
77177NA+    NA+38543  15.309   4.931  10.888
77178NA+    NA+38544  40.005   3.751   3.268
77179NA+    NA+38545  10.677  19.144  14.410
77180NA+    NA+38546   2.770  36.570   1.373
77181NA+    NA+38547  25.010   4.382   3.698
77182NA+    NA+38548  38.483  28.117  11.454
77183NA+    NA+38549  21.252   9.179  10.431
77184NA+    NA+38550   5.438  30.526   3.676
77185NA+    NA+38551  42.980  39.976   4.613
77186NA+    NA+38552   5.201   2.722  11.516
77187NA+    NA+38553  42.808  32.905  12.862
77188NA+    NA+38554   5.893  31.949  10.439
77189NA+    NA+38555  25.155  27.052  14.792
77190NA+    NA+38556  37.368   3.935  12.889
77191NA+    NA+38557  21.193  14.719  11.558
77192NA+    NA+38558  44.857   0.473  14.875
77193NA+    NA+38559  16.757  19.169   1.363
77194NA+    NA+38560  39.418   1.786  11.125
77195NA+    NA+38561  16.138  41.494   2.757
77196NA+    NA+38562  42.811  42.812  14.788
77197NA+    NA+38563  22.017  23.088  11.517
77198NA+    NA+38564  28.100   3.723   2.801
77199NA+    NA+38565  29.489  11.848   0.922
77200NA+    NA+38566  39.828   7.685  13.010
77201NA+    NA+38567  33.458  13.705   2.281
77202NA+    NA+38568   3.774  21.546  13.500
77203NA+    NA+38569   3.863  12.646  11.954
77204NA+    NA+38570  26.042  35.995   3.859
77205NA+    NA+38571   6.207  28.653  13.527
77206NA+    NA+38572   3.283  37.510  14.929
77207NA+    NA+38573  28.974  36.018  12.884
77208NA+    NA+38574   4.400   7.799  11.520
77209NA+    NA+38575  42.932  16.154   1.906
77210NA+    NA+38576  26.525   5.774   4.334
77211NA+    NA+38577  13.793  40.847   1.798
77212NA+    NA+38578  40.419  28.112   9.947
77213NA+    NA+38579  41.374   4.430   3.853
77214NA+    NA+38580   0.863  35.090  14.807
77215NA+    NA+38581   6.911   8.783  14.028
77216NA+    NA+38582   9.847   0.745   0.786
77217NA+    NA+38583  28.616   5.369   4.833
77218NA+    NA+38584   9.217  38.426   1.705
77219NA+    NA+38585  40.536  20.067   0.730
77220NA+    NA+38586  17.677   0.257   2.817
77221NA+    NA+38587  24.697  32.951   1.893
77222NA+    NA+38588  11.145  10.325  14.371
77223NA+    NA+38589  25.708  41.850   4.235
77224NA+    NA+38590  34.938  39.881  12.510
77225NA+    NA+38591  24.128  23.562  11.015
77226NA+    NA+38592  14.650  29.943  12.927
77227NA+    NA+38593  25.647  19.092   3.638
77228NA+    NA+38594  22.516  21.740  10.492
77229NA+    NA+38595  12.257  14.680  12.530
77230NA+    NA+38596  23.133  38.924   3.733
77231NA+    NA+38597  33.586  10.737   5.101
77232NA+    NA+38598   0.452  14.171  13.013
77233NA+    NA+38599  35.937  26.031   0.964
77234NA+    NA+38600  37.390  38.333  10.156
77235NA+    NA+38601  17.085  14.333  12.060
77236NA+    NA+38602  27.551  14.717   2.887
77237NA+    NA+38603  26.699   3.359  11.090
77238NA+    NA+38604  20.635  13.333   0.819
77239NA+    NA+38605  31.561  17.641  12.358
77240NA+    NA+38606  23.054   5.896  11.921
77241NA+    NA+38607   8.211   8.247   1.387
77242NA+    NA+38608  10.318  38.989   2.316
77243NA+    NA+38609  22.679  33.555   2.218
77244NA+    NA+38610  43.932  16.092   1.695
77245NA+    NA+38611  14.710  38.869   1.916
77246NA+    NA+38612   0.329  40.395  12.970
77247NA+    NA+38613  11.319   5.860  14.948
77248NA+    NA+38614  44.354  18.546  12.404
77249NA+    NA+38615  14.696  15.779   0.951
77250NA+    NA+38616   9.663  37.448  14.024
77251NA+    NA+38617   8.830  37.927  14.512
77252NA+    NA+38618  10.879  42.875   0.370
77253NA+    NA+38619  28.576  34.586  13.839
77254NA+    NA+38620  35.593  38.834  11.113
77255NA+    NA+38621   7.350  30.616  10.473
77256NA+    NA+38622  32.001   3.723   1.902
77257NA+    NA+38623   9.194  32.604  13.434
77258NA+    NA+38624  24.529  27.067   1.447
77259NA+    NA+38625  41.001  36.045   2.689
77260NA+    NA+38626   3.289  20.690  12.992
77261NA+    NA+38627   1.345   2.770   1.367
77262NA+    NA+38628  36.564  23.728  14.955
77263NA+    NA+38629  34.401  27.190   0.467
77264NA+    NA+38630  26.981  38.991   4.742
77265NA+    NA+38631  37.539   6.878   3.384
77266NA+    NA+38632  44.430  19.265   1.726
77267NA+    NA+38633  37.487  26.652  10.522
77268NA+    NA+38634  22.142  30.541  12.068
77269NA+    NA+38635  14.678  10.267  10.529
77270NA+    NA+38636  27.195   1.826  14.761
77271NA+    NA+38637  23.668  16.184  13.883
77272NA+    NA+38638  24.701  44.880   2.868
77273NA+    NA+38639  37.479   2.424   4.321
77274NA+    NA+38640   6.256  36.507   3.743
77275NA+    NA+38641  34.541  23.584  12.539
77276NA+    NA+38642  30.134  38.457  13.063
77277NA+    NA+38643  33.131  41.465   0.451
77278NA+    NA+38644  23.067   2.843   5.094
77279NA+    NA+38645  31.441   6.833   3.383
77280NA+    NA+38646  14.317  34.080  13.064
77281NA+    NA+38647   3.956  17.087   4.130
77282NA+    NA+38648   5.241  18.164   0.448
77283NA+    NA+38649  17.066  17.556   5.783
77284NA+    NA+38650  30.027  15.250  11.596
77285NA+    NA+38651  37.878   9.670   2.387
77286NA+    NA+38652  16.710  23.656  11.081
77287NA+    NA+38653  37.549  34.979   3.364
77288NA+    NA+38654  30.012  27.133  14.312
77289NA+    NA+38655  39.472  15.693  14.311
77290NA+    NA+38656  14.296  35.531  13.813
77291NA+    NA+38657  35.993   7.758  14.936
77292NA+    NA+38658   4.862  15.099  12.912
77293NA+    NA+38659  22.657  38.962  10.979
77294NA+    NA+38660  43.941  26.699  12.526
77295NA+    NA+38661   1.266  41.497   1.412
77296NA+    NA+38662  18.652   3.323  10.928
77297NA+    NA+38663   7.396   0.450   2.688
77298NA+    NA+38664  16.247  25.635  13.011
77299NA+    NA+38665  20.623   9.853   0.272
77300NA+    NA+38666  10.846  24.018   3.147
77301NA+    NA+38667  23.215  22.706  10.405
77302NA+    NA+38668  36.084  23.534  12.852
77303NA+    NA+38669   7.901   4.925   0.835
77304NA+    NA+38670   2.369   5.405  10.104
77305NA+    NA+38671  17.065   6.225   1.914
77306NA+    NA+38672  31.628  14.241   3.776
77307NA+    NA+38673  25.001  25.482  14.445
77308NA+    NA+38674  31.516  28.101   4.796
77309NA+    NA+38675  27.513   1.745   1.382
77310NA+    NA+38676   0.754  18.747   1.772
77311NA+    NA+38677   7.330   6.296  14.896
77312NA+    NA+38678   1.426  24.158  11.578
77313NA+    NA+38679  13.833   1.845  14.895
77314NA+    NA+38680  44.421   5.437   1.350
77315NA+    NA+38681   6.750  21.040   1.753
77316NA+    NA+38682  16.210   8.680  11.544
77317NA+    NA+38683  34.516   9.709   1.713
77318NA+    NA+38684  13.710  29.112  11.501
77319NA+    NA+38685  10.722  32.523   3.266
77320NA+    NA+38686   1.302  21.070   1.297
77321NA+    NA+38687  25.633   5.826   0.355
77322NA+    NA+38688   5.868  37.954  10.566
77323NA+    NA+38689  23.554  43.440  13.340
77324NA+    NA+38690  19.767  24.535  11.050
77325NA+    NA+38691   4.909  14.119   1.780
77326NA+    NA+38692  32.550  20.239   0.429
77327NA+    NA+38693  44.294   6.323   3.341
77328NA+    NA+38694  38.445  29.976  14.303
77329NA+    NA+38695  34.994  18.108   2.412
77330NA+    NA+38696  40.351  31.949   4.815
77331NA+    NA+38697   1.476   3.831  12.479
77332NA+    NA+38698  18.189  32.609  14.892
77333NA+    NA+38699  44.990  36.911   0.478
77334NA+    NA+38700  24.112  42.994   3.825
77335NA+    NA+38701  38.458   7.724  14.837
77336NA+    NA+38702  21.666  44.754  10.628
77337NA+    NA+38703  20.710  30.544   2.197
77338NA+    NA+38704  34.928  44.001   4.244
77339NA+    NA+38705  25.626  13.771  10.431
77340NA+    NA+38706  40.926  12.748  13.851
77341NA+    NA+38707  37.040  39.819   2.207
77342NA+    NA+38708  19.741  39.937   4.236
77343NA+    NA+38709   9.769   5.427   2.381
77344NA+    NA+38710  39.872  17.780   3.705
77345NA+    NA+38711  32.514  42.994   4.148
77346NA+    NA+38712   6.701   9.649  10.972
77347NA+    NA+38713  16.180  33.883  10.441
77348NA+    NA+38714  31.524   2.721  11.519
77349NA+    NA+38715  43.945   3.248  11.522
77350NA+    NA+38716  10.784   2.248   2.370
77351NA+    NA+38717  15.116  28.065   2.815
77352NA+    NA+38718   1.817  27.673  10.099
77353NA+    NA+38719   3.867  29.632   1.441
77354NA+    NA+38720  18.130   0.845  11.437
77355NA+    NA+38721  15.215  25.481  14.962
77356NA+    NA+38722  35.490  44.834  11.060
77357NA+    NA+38723  36.415  30.501   1.219
77358NA+    NA+38724  22.213  44.444  13.339
77359NA+    NA+38725  21.640  24.496   2.845
77360NA+    NA+38726  19.763  23.223   4.610
77361NA+    NA+38727   2.769   6.259  10.432
77362NA+    NA+38728   2.949   7.402  12.457
77363NA+    NA+38729  13.284  29.139   4.779
77364NA+    NA+38730  30.924  33.582  12.980
77365NA+    NA+38731   2.299  18.773   2.280
77366NA+    NA+38732  17.609   0.275  11.568
77367NA+    NA+38733  17.259  10.213  10.968
77368NA+    NA+38734  14.186  14.746  12.359
77369NA+    NA+38735  34.050  42.886  11.941
77370NA+    NA+38736  34.030  27.968   2.860
77371NA+    NA+38737  16.782  18.262  11.427
77372NA+    NA+38738  24.130  32.888  11.118
77373NA+    NA+38739  24.204   9.183   1.316
77374NA+    NA+38740  17.573  33.458  14.419
77375NA+    NA+38741  18.612  13.195   1.897
77376NA+    NA+38742  41.428   4.444   2.419
77377NA+    NA+38743  37.971  14.795   2.744
77378NA+    NA+38744  30.465  20.159   0.425
77379NA+    NA+38745  17.636  13.767  14.898
77380NA+    NA+38746  36.060   1.872  13.992
77381NA+    NA+38747   1.384  28.615   2.733
77382NA+    NA+38748   5.350  38.845  11.606
77383NA+    NA+38749  36.068  20.755  12.062
77384NA+    NA+38750  23.000  40.825   2.852
77385NA+    NA+38751  13.198  36.035  11.876
77386NA+    NA+38752   6.735  13.628   4.703
77387NA+    NA+38753  24.015  29.644   0.774
77388NA+    NA+38754  17.606  40.870   4.720
77389NA+    NA+38755  41.023  17.780   1.407
77390NA+    NA+38756   5.205  39.982  12.448
77391NA+    NA+38757  28.976  15.706  14.944
77392NA+    NA+38758  42.999  16.673   2.842
77393NA+    NA+38759   1.889  38.455  11.491
77394NA+    NA+38760  20.526  32.544   0.376
77395NA+    NA+38761  14.665  24.530  14.330
77396NA+    NA+38762   9.888  31.510  11.069
77397NA+    NA+38763  42.905  24.682  14.472
77398NA+    NA+38764  32.012   9.802   1.781
77399NA+    NA+38765  16.122  13.748   1.919
77400NA+    NA+38766  17.642  35.856   0.297
77401NA+    NA+38767  40.471  21.215   3.707
77402NA+    NA+38768  41.452   1.854   0.469
77403NA+    NA+38769   2.746  25.503  14.344
77404NA+    NA+38770  31.064  41.853  12.388
77405NA+    NA+38771  38.510  17.736   1.885
77406NA+    NA+38772   0.756  32.906   1.922
77407NA+    NA+38773  18.189  30.161   4.720
77408NA+    NA+38774   9.787   3.335  13.827
77409NA+    NA+38775  27.066  40.904  13.851
77410NA+    NA+38776  15.645   8.885  11.941
77411NA+    NA+38777  35.880   7.881  10.888
77412NA+    NA+38778  26.985  34.449  10.417
77413NA+    NA+38779   1.750  35.389   2.242
77414NA+    NA+38780  10.781  25.026  13.042
77415NA+    NA+38781   3.274  42.498  13.943
77416NA+    NA+38782  11.211  11.757  14.983
77417NA+    NA+38783  33.561  40.972   3.174
77418NA+    NA+38784   3.865   1.814  12.939
77419NA+    NA+38785  14.702  40.344   3.654
77420NA+    NA+38786  12.336  25.657  11.882
77421NA+    NA+38787   0.886  43.448   4.163
77422NA+    NA+38788  11.654  32.572   2.188
77423NA+    NA+38789  10.761   9.731   3.304
77424NA+    NA+38790   4.367  23.052   1.357
77425NA+    NA+38791   1.423   4.702  11.054
77426NA+    NA+38792  25.215  39.003   0.884
77427NA+    NA+38793  39.968  16.310   4.128
77428NA+    NA+38794   3.723   5.336   2.270
77429NA+    NA+38795  24.009  11.170  14.012
77430NA+    NA+38796  44.346  31.992   5.215
77431NA+    NA+38797  19.156   3.916  14.900
77432NA+    NA+38798  40.456  23.204   3.739
77433NA+    NA+38799  34.035  14.789  11.015
77434NA+    NA+38800  40.850   6.747   2.392
77435NA+    NA+38801   6.408  37.928   0.944
77436NA+    NA+38802  10.775   9.224   3.250
77437NA+    NA+38803  20.635  40.925   2.743
77438NA+    NA+38804  40.473   0.270  12.516
77439NA+    NA+38805  15.114  10.379   2.409
77440NA+    NA+38806   2.327   3.913   4.716
77441NA+    NA+38807  39.874   6.189  13.939
77442NA+    NA+38808  15.170   1.350  11.464
77443NA+    NA+38809  30.002   2.926   3.269
77444NA+    NA+38810  42.399  38.501   3.786
77445NA+    NA+38811   1.467   9.712  14.311
77446NA+    NA+38812  24.111  33.974  13.052
77447NA+    NA+38813  36.569  31.052  11.462
77448NA+    NA+38814  17.095  23.696  14.802
77449NA+    NA+38815  27.637  18.772  14.358
77450NA+    NA+38816   4.779   7.362  10.054
77451NA+    NA+38817  22.613  10.636  14.832
77452NA+    NA+38818   3.290  41.514   4.807
77453NA+    NA+38819  23.525  31.103   0.364
77454NA+    NA+38820   6.286  28.521   4.202
77455NA+    NA+38821   8.835  12.157   4.210
77456NA+    NA+38822  40.391  14.683   4.706
77457NA+    NA+38823  44.367  14.175   2.283
77458NA+    NA+38824  37.442  37.434  10.632
77459NA+    NA+38825  29.978   1.249   3.661
77460NA+    NA+38826  20.098  15.806   2.727
77461NA+    NA+38827  21.022  21.028  10.569
77462NA+    NA+38828   4.869  41.014   2.840
77463NA+    NA+38829   5.415   5.781  14.978
77464NA+    NA+38830  36.446  10.739  11.036
77465NA+    NA+38831  33.392   0.280  11.541
77466NA+    NA+38832  25.191  40.942   0.844
77467NA+    NA+38833  16.642  30.030   2.385
77468NA+    NA+38834   0.897  20.558  11.423
77469NA+    NA+38835  23.674  44.831   3.181
77470NA+    NA+38836   8.281   9.167   0.313
77471NA+    NA+38837  13.824  41.386   0.339
77472NA+    NA+38838  43.338  13.292  14.951
77473NA+    NA+38839  23.196  44.277   0.795
77474NA+    NA+38840  22.142  36.346   3.319
77475NA+    NA+38841   3.939  14.824   3.334
77476NA+    NA+38842  12.186  32.972   1.358
77477NA+    NA+38843  25.134   9.213  10.986
77478NA+    NA+38844  17.726  38.932  10.517
77479NA+    NA+38845   4.342  41.016  13.329
77480NA+    NA+38846  28.464   1.353   4.683
77481NA+    NA+38847  44.995  33.387  14.361
77482NA+    NA+38848  18.555  33.973   5.724
77483NA+    NA+38849  35.089  18.249  14.979
77484NA+    NA+38850   7.740  39.460  10.635
77485NA+    NA+38851  36.519  21.704   0.304
77486NA+    NA+38852  38.538  23.176   3.815
77487NA+    NA+38853  13.311  17.235  12.007
77488NA+    NA+38854  40.537  36.981   1.831
77489NA+    NA+38855  27.491  33.517  11.550
77490NA+    NA+38856  18.227   5.810   3.222
77491NA+    NA+38857  41.968  21.730  10.531
77492NA+    NA+38858  39.822  24.215  11.602
77493NA+    NA+38859  18.218  33.550  14.402
77494NA+    NA+38860   2.796  42.980  11.887
77495NA+    NA+38861  37.448   0.420  11.496
77496NA+    NA+38862  12.787  19.618  14.008
77497NA+    NA+38863   0.268   9.324   1.807
77498NA+    NA+38864  26.149  20.545   2.812
77499NA+    NA+38865  35.454  26.626  11.889
77500NA+    NA+38866  32.127   3.240  14.467
77501NA+    NA+38867  16.740  31.010   0.868
77502NA+    NA+38868  41.308  25.582  12.543
77503NA+    NA+38869  13.640  29.029  12.434
77504NA+    NA+38870  26.043  34.913  13.400
77505NA+    NA+38871  35.947  27.944  13.818
77506NA+    NA+38872  15.102  10.163  12.871
77507NA+    NA+38873   7.326  29.149  12.466
77508NA+    NA+38874  17.155  12.213  11.076
77509NA+    NA+38875  24.077  28.143  12.384
77510NA+    NA+38876   2.301   6.209   3.865
77511NA+    NA+38877  18.276   4.903   2.222
77512NA+    NA+38878   5.904  10.258   3.155
77513NA+    NA+38879  25.683   5.301  14.421
77514NA+    NA+38880   8.661  28.664   0.822
77515NA+    NA+38881   7.809  12.342   1.391
77516NA+    NA+38882  19.088  20.174   0.785
77517NA+    NA+38883  31.495  13.349   2.321
77518NA+    NA+38884  39.065  31.461   3.642
77519NA+    NA+38885  25.555   4.272  12.491
77520NA+    NA+38886  27.051  34.439  13.539
77521NA+    NA+38887  29.554  36.396   0.855
77522NA+    NA+38888  37.512   2.722  14.017
77523NA+    NA+38889  42.289   4.329  13.805
77524NA+    NA+38890  30.935   3.746  13.341
77525NA+    NA+38891  16.672  35.521   3.756
77526NA+    NA+38892  12.121  33.074   0.282
77527NA+    NA+38893   3.752   4.873   1.813
77528NA+    NA+38894  29.440  26.594   3.759
77529NA+    NA+38895  39.050  34.559   1.410
77530NA+    NA+38896  38.983  21.120  11.476
77531NA+    NA+38897  25.627  16.666   1.878
77532NA+    NA+38898  44.764   9.346  14.385
77533NA+    NA+38899   9.259   9.801   4.279
77534NA+    NA+38900  30.562  21.043   1.896
77535NA+    NA+38901  42.344  41.395  12.477
77536NA+    NA+38902  29.592  33.946  13.922
77537NA+    NA+38903  39.431  17.633  13.032
77538NA+    NA+38904  43.879  42.909   3.283
77539NA+    NA+38905  32.595  43.834  11.028
77540NA+    NA+38906  43.832  20.532  11.389
77541NA+    NA+38907  30.058  28.941  13.520
77542NA+    NA+38908  15.169  21.208   4.276
77543NA+    NA+38909  34.024   3.756  13.406
77544NA+    NA+38910  13.244   8.288  12.913
77545NA+    NA+38911   0.827  25.636  13.025
77546NA+    NA+38912   3.230  34.437  10.110
77547NA+    NA+38913  26.622  41.353  13.528
77548NA+    NA+38914   4.269  21.210   3.841
77549NA+    NA+38915  27.111   8.253   3.810
77550NA+    NA+38916  11.148  25.629  11.879
77551NA+    NA+38917   3.772  44.855   0.766
77552NA+    NA+38918  25.591  20.117   4.306
77553NA+    NA+38919  15.678  20.185  14.829
77554NA+    NA+38920  24.105  36.040  12.457
77555NA+    NA+38921  25.136  37.005  11.407
77556NA+    NA+38922   4.804   2.806   3.870
77557NA+    NA+38923   7.670   5.930  13.421
77558NA+    NA+38924  29.434  27.624   0.758
77559NA+    NA+38925  15.278  34.483  14.278
77560NA+    NA+38926   1.260  23.677   0.467
77561NA+    NA+38927  24.205  11.308   2.889
77562NA+    NA+38928  32.553  11.140   1.378
77563NA+    NA+38929  39.413   5.269  11.032
77564NA+    NA+38930   4.880  14.105  11.399
77565NA+    NA+38931  24.575  34.970  14.300
77566NA+    NA+38932   3.251  24.612   4.806
77567NA+    NA+38933  40.810  10.221   0.329
77568NA+    NA+38934  27.944  28.576   1.437
77569NA+    NA+38935  42.289   7.326  12.060
77570NA+    NA+38936  25.651  29.175   0.401
77571NA+    NA+38937  44.963  19.548  11.114
77572NA+    NA+38938  17.739   0.324  12.851
77573NA+    NA+38939   8.697  41.040   0.350
77574NA+    NA+38940  40.315  35.921   2.288
77575NA+    NA+38941   1.747  18.072  12.983
77576NA+    NA+38942   6.251  39.926   4.272
77577NA+    NA+38943   8.234   4.212   9.629
77578NA+    NA+38944  29.580  14.671   1.800
77579NA+    NA+38945  18.661   5.730  10.420
77580NA+    NA+38946  23.650   3.454   3.332
77581NA+    NA+38947   2.277  39.547  14.857
77582NA+    NA+38948   6.740  31.478  11.583
77583NA+    NA+38949  39.520  15.748  11.449
77584NA+    NA+38950   6.305  26.487  10.412
77585NA+    NA+38951  34.372  30.659  13.952
77586NA+    NA+38952  28.097   1.860  13.998
77587NA+    NA+38953  41.361  18.261  11.034
77588NA+    NA+38954  12.292  20.140  11.425
77589NA+    NA+38955   2.342  38.034  11.862
77590NA+    NA+38956   2.243  34.039   2.775
77591NA+    NA+38957  12.700   5.242  13.521
77592NA+    NA+38958  23.733  28.510  12.351
77593NA+    NA+38959  23.634   1.887   4.230
77594NA+    NA+38960  36.936  20.212   2.310
77595NA+    NA+38961  18.288   1.358   2.662
77596NA+    NA+38962  19.221  20.718   2.387
77597NA+    NA+38963  37.076   3.425  14.940
77598NA+    NA+38964  31.512  26.665  10.620
77599NA+    NA+38965  31.992  10.676  13.960
77600NA+    NA+38966  44.475   7.285  13.829
77601NA+    NA+38967   8.657  29.133  13.873
77602NA+    NA+38968   6.188  31.152   4.639
77603NA+    NA+38969  30.041   2.756  11.427
77604NA+    NA+38970  40.534  37.887  12.033
77605NA+    NA+38971  39.892  37.558   2.397
77606NA+    NA+38972  19.155  40.347   1.372
77607NA+    NA+38973  15.648  11.291  11.378
77608NA+    NA+38974   0.404   7.391  11.417
77609NA+    NA+38975   2.742  39.966  10.529
77610NA+    NA+38976   5.197  24.709  13.836
77611NA+    NA+38977  20.150  17.253   1.893
77612NA+    NA+38978  26.038  39.514  10.600
77613NA+    NA+38979   1.886  13.651   0.280
77614NA+    NA+38980  16.298  41.460  13.928
77615NA+    NA+38981  17.071   0.755  12.026
77616NA+    NA+38982  36.053  14.703   2.319
77617NA+    NA+38983  14.242  30.980   2.267
77618NA+    NA+38984   8.403  41.427   2.861
77619NA+    NA+38985  17.762  35.488   3.720
77620NA+    NA+38986  22.635  11.685   2.713
77621NA+    NA+38987   6.747  26.522   3.660
77622NA+    NA+38988  33.424  36.543  11.101
77623NA+    NA+38989  41.397  15.754   4.804
77624NA+    NA+38990  11.652  41.366  14.020
77625NA+    NA+38991  33.994  27.017  11.565
77626NA+    NA+38992  22.248  41.362  10.568
77627NA+    NA+38993  29.521   9.749  13.884
77628NA+    NA+38994  43.433  13.162  10.593
77629NA+    NA+38995  22.056  16.771  12.891
77630NA+    NA+38996  43.941  25.542  10.482
77631NA+    NA+38997  35.020   4.905   2.863
77632NA+    NA+38998   0.320   1.358  14.874
77633NA+    NA+38999  32.886  34.567  14.341
77634NA+    NA+39000  30.584   3.853  12.415
77635NA+    NA+39001   7.192  25.527   0.315
77636NA+    NA+39002  23.663  19.142   0.817
77637NA+    NA+39003  34.556   0.397  13.020
77638NA+    NA+39004  28.004   1.383  13.847
77639NA+    NA+39005   3.439  16.690   5.134
77640NA+    NA+39006  19.188   5.854  13.356
77641NA+    NA+39007   2.736  16.733  14.822
77642NA+    NA+39008   2.426   1.413   0.256
77643NA+    NA+39009  25.640   0.906   0.901
77644NA+    NA+39010   7.194  33.432   0.251
77645NA+    NA+39011   6.286  26.527  14.406
77646NA+    NA+39012  24.202   2.420  14.507
77647NA+    NA+39013   5.700  23.224   2.714
77648NA+    NA+39014   3.352  18.684   2.250
77649NA+    NA+39015  17.074  37.466   0.302
77650NA+    NA+39016   6.777  23.498   1.387
77651NA+    NA+39017  11.334   1.787  12.862
77652NA+    NA+39018  23.713  42.787   3.836
77653NA+    NA+39019  39.549   2.247   2.291
77654NA+    NA+39020   0.291  25.071  10.983
77655NA+    NA+39021   3.808  40.350   3.661
77656NA+    NA+39022  21.666  42.817   3.673
77657NA+    NA+39023   4.329  18.666  13.010
77658NA+    NA+39024  30.121  38.949   4.703
77659NA+    NA+39025  24.087  28.458   2.242
77660NA+    NA+39026   9.212  41.037   4.795
77661NA+    NA+39027  17.643  42.805   1.861
77662NA+    NA+39028  15.292  29.048   2.771
77663NA+    NA+39029  31.061  16.812   2.298
77664NA+    NA+39030   8.249  43.963  14.993
77665NA+    NA+39031  28.941   7.263   3.163
77666NA+    NA+39032  18.239   0.385  12.479
77667NA+    NA+39033  26.553  24.989  14.805
77668NA+    NA+39034  17.261  39.972   0.452
77669NA+    NA+39035   4.785  19.635  12.437
77670NA+    NA+39036  12.680  12.832  11.103
77671NA+    NA+39037  19.053   1.380  12.401
77672NA+    NA+39038  11.246  21.739   4.200
77673NA+    NA+39039  32.423  22.014   4.712
77674NA+    NA+39040  24.518  31.978  12.833
77675NA+    NA+39041   4.264  35.429  14.026
77676NA+    NA+39042  40.025  33.891  13.895
77677NA+    NA+39043  38.390   1.447   4.608
77678NA+    NA+39044  13.247  23.090   4.701
77679NA+    NA+39045   9.777  11.368  14.866
77680NA+    NA+39046  20.241  38.026  11.899
77681NA+    NA+39047  10.210  30.464  11.020
77682NA+    NA+39048  42.423  39.409  11.964
77683NA+    NA+39049   9.394  37.999   3.330
77684NA+    NA+39050  15.255  14.665   0.294
77685NA+    NA+39051  17.666  28.167  13.418
77686NA+    NA+39052  19.635   7.204  14.338
77687NA+    NA+39053   8.763   6.417  11.872
77688NA+    NA+39054  16.247  25.480   1.700
77689NA+    NA+39055  44.965  36.863   3.789
77690NA+    NA+39056   2.898  23.102  10.968
77691NA+    NA+39057  19.217  17.293  10.058
77692NA+    NA+39058   8.663  28.626   4.668
77693NA+    NA+39059  41.424  11.645   4.241
77694NA+    NA+39060   3.810  30.096  11.050
77695NA+    NA+39061  42.781   6.328   4.679
77696NA+    NA+39062  44.505  35.963  14.303
77697NA+    NA+39063  31.462  34.865  12.894
77698NA+    NA+39064  29.066  31.974  13.893
77699NA+    NA+39065  44.405  26.672   0.427
77700NA+    NA+39066  14.099  31.552   1.915
77701NA+    NA+39067  41.008  32.414   4.232
77702NA+    NA+39068  37.055  12.272   3.799
77703NA+    NA+39069  20.043  23.516   4.720
77704NA+    NA+39070  39.489   4.243   0.305
77705NA+    NA+39071  34.011  29.103  11.049
77706NA+    NA+39072  23.496  31.027  14.800
77707NA+    NA+39073  34.403  11.817   4.278
77708NA+    NA+39074   2.728  16.646   5.316
77709NA+    NA+39075  22.720  40.824   2.195
77710NA+    NA+39076  29.568  10.138   5.198
77711NA+    NA+39077  33.440  12.614  10.529
77712NA+    NA+39078  13.704   9.217  11.433
77713NA+    NA+39079  10.787  41.969  11.380
77714NA+    NA+39080  18.188   6.237  13.055
77715NA+    NA+39081  26.983  20.261  13.942
77716NA+    NA+39082   7.684  32.969  13.046
77717NA+    NA+39083  12.197  23.159  12.342
77718NA+    NA+39084   0.801  39.859   0.284
77719NA+    NA+39085  37.529  39.977  10.028
77720NA+    NA+39086  37.367  22.702   2.251
77721NA+    NA+39087  39.836  30.945   0.749
77722NA+    NA+39088  19.249  38.949  11.491
77723NA+    NA+39089   4.756   6.882   0.853
77724NA+    NA+39090  23.505  43.906  11.406
77725NA+    NA+39091  12.669   7.210   0.878
77726NA+    NA+39092   7.358  10.832  12.094
77727NA+    NA+39093  37.544   6.235  10.443
77728NA+    NA+39094  15.599  39.482   4.235
77729NA+    NA+39095  15.622   2.925  12.069
77730NA+    NA+39096  38.045  13.147   3.178
77731NA+    NA+39097   3.319  26.124  12.340
77732NA+    NA+39098  34.565  20.251   3.801
77733NA+    NA+39099  40.041   6.392  11.879
77734NA+    NA+39100   9.645   7.182   3.786
77735NA+    NA+39101  30.431   1.255  13.467
77736NA+    NA+39102  34.083   9.677   2.729
77737NA+    NA+39103  42.419  15.283  12.462
77738NA+    NA+39104   7.281   8.208  11.876
77739NA+    NA+39105  41.315  26.498  10.564
77740NA+    NA+39106   9.764  32.933   4.321
77741NA+    NA+39107  18.115  13.248   2.357
77742NA+    NA+39108   7.690  31.085   3.151
77743NA+    NA+39109  13.312  10.180  11.397
77744NA+    NA+39110  20.075  39.039   0.903
77745NA+    NA+39111  19.118  14.233  12.971
77746NA+    NA+39112  28.623  12.235  11.472
77747NA+    NA+39113  28.580  27.585  13.310
77748NA+    NA+39114   7.875  24.210  10.444
77749NA+    NA+39115   6.196  31.627   3.334
77750NA+    NA+39116  37.502  17.178  14.976
77751NA+    NA+39117   9.354   0.362  13.001
77752NA+    NA+39118  30.609   5.701   0.833
77753NA+    NA+39119   5.830  34.536  14.335
77754NA+    NA+39120   3.862  26.128  10.437
77755NA+    NA+39121  32.923  25.531  12.918
77756NA+    NA+39122   6.369  38.412   0.955
77757NA+    NA+39123  22.583  38.363   1.322
77758NA+    NA+39124   5.213  42.381  13.807
77759NA+    NA+39125   6.716  31.438   4.637
77760NA+    NA+39126  11.852   0.337   4.269
77761NA+    NA+39127  24.216  43.385   0.944
77762NA+    NA+39128  29.059  24.531  10.579
77763NA+    NA+39129  22.251  40.004   4.781
77764NA+    NA+39130  17.700   7.813   1.865
77765NA+    NA+39131  11.207  39.869   0.429
77766NA+    NA+39132  22.726  33.560  11.863
77767NA+    NA+39133  28.949  32.142   0.431
77768NA+    NA+39134  31.573  35.409   0.476
77769NA+    NA+39135  17.564  40.545  13.426
77770NA+    NA+39136  17.306  12.153   3.227
77771NA+    NA+39137   6.244  39.044   3.835
77772NA+    NA+39138  27.541   4.244   1.347
77773NA+    NA+39139  20.584  26.673   4.221
77774NA+    NA+39140  28.152  22.081   4.175
77775NA+    NA+39141  21.028  17.281  10.572
77776NA+    NA+39142  27.990  26.613   1.281
77777NA+    NA+39143  17.110  19.619   0.811
77778NA+    NA+39144   8.736  22.562   4.765
77779NA+    NA+39145   3.771  34.886  11.936
77780NA+    NA+39146   9.878  23.105  10.435
77781NA+    NA+39147  36.990  40.911  12.453
77782NA+    NA+39148  18.579  34.503  11.956
77783NA+    NA+39149   6.872  11.710   1.383
77784NA+    NA+39150  44.351   8.292   1.295
77785NA+    NA+39151  38.077  31.640   1.290
77786NA+    NA+39152  28.172  17.714  14.280
77787NA+    NA+39153  31.940  38.543  11.590
77788NA+    NA+39154  13.236  24.223  12.845
77789NA+    NA+39155  38.425  16.709   2.790
77790NA+    NA+39156  35.495  41.884  12.342
77791NA+    NA+39157  19.068   4.320   2.253
77792NA+    NA+39158  14.306  32.932   4.792
77793NA+    NA+39159  44.482  13.184  13.891
77794NA+    NA+39160   8.856  35.439  13.376
77795NA+    NA+39161  26.520   2.254   0.915
77796NA+    NA+39162   2.720  36.080  13.481
77797NA+    NA+39163  29.143  36.530   3.251
77798NA+    NA+39164  27.078  35.571  12.387
77799NA+    NA+39165  30.516   5.434  14.788
77800NA+    NA+39166  24.137  14.692  10.585
77801NA+    NA+39167  13.340  30.536   0.931
77802NA+    NA+39168  37.385  34.480   0.968
77803NA+    NA+39169  10.810  11.187  10.628
77804NA+    NA+39170   7.902   9.701  14.783
77805NA+    NA+39171  43.013  37.907   3.762
77806NA+    NA+39172  43.914  19.638  13.497
77807NA+    NA+39173  33.028   8.854  12.341
77808NA+    NA+39174  22.733  38.042  14.443
77809NA+    NA+39175  15.815  41.018   0.379
77810NA+    NA+39176  19.211   7.686   2.320
77811NA+    NA+39177  16.119  20.645   3.685
77812NA+    NA+39178  19.544   5.810   4.253
77813NA+    NA+39179  40.336  24.003   0.913
77814NA+    NA+39180  12.173  38.430   0.910
77815NA+    NA+39181  35.879  23.142   2.408
77816NA+    NA+39182  24.701   2.440  13.836
77817NA+    NA+39183  27.652   2.952   0.432
77818NA+    NA+39184  14.137  22.623  11.867
77819NA+    NA+39185  33.395  29.627  11.993
77820NA+    NA+39186  41.867  25.186  12.434
77821NA+    NA+39187  12.211  27.108  14.505
77822NA+    NA+39188   3.386  28.117  13.440
77823NA+    NA+39189  40.508  28.003  14.811
77824NA+    NA+39190  11.777  41.851  11.548
77825NA+    NA+39191  39.035   3.409  13.464
77826NA+    NA+39192  21.529   3.736  12.466
77827NA+    NA+39193  22.184  32.524   1.408
77828NA+    NA+39194   2.336  30.091   4.139
77829NA+    NA+39195   0.860  36.989  12.410
77830NA+    NA+39196   8.729   2.406  12.030
77831NA+    NA+39197  33.484  36.959  10.940
77832NA+    NA+39198  18.743   6.423  10.474
77833NA+    NA+39199   6.270  34.047   1.928
77834NA+    NA+39200  40.880  21.543   3.692
77835NA+    NA+39201  15.614  26.966   0.943
77836NA+    NA+39202  34.997   3.820  13.455
77837NA+    NA+39203  27.552  18.716  12.839
77838NA+    NA+39204  33.117  43.312   9.663
77839NA+    NA+39205   7.307  29.072   3.759
77840NA+    NA+39206  24.087  38.988  13.051
77841NA+    NA+39207  11.692  27.956   2.703
77842NA+    NA+39208  42.393   5.415  13.864
77843NA+    NA+39209   6.319   7.379   3.669
77844NA+    NA+39210  39.550  33.898  13.971
77845NA+    NA+39211  11.359  24.106  14.869
77846NA+    NA+39212  24.489  28.671  14.359
77847NA+    NA+39213   0.955  31.450   4.157
77848NA+    NA+39214  42.446  37.049   2.300
77849NA+    NA+39215  26.701  16.662   0.322
77850NA+    NA+39216  21.057  14.113   1.241
77851NA+    NA+39217  22.569  43.280   3.207
77852NA+    NA+39218  44.818  41.002  10.921
77853NA+    NA+39219  34.909  27.468   1.354
77854NA+    NA+39220  37.850  26.015  11.430
77855NA+    NA+39221  32.561  43.764  11.982
77856NA+    NA+39222  42.342  25.069   0.883
77857NA+    NA+39223   3.388  43.491  13.321
77858NA+    NA+39224  26.071  17.734  14.028
77859NA+    NA+39225  44.985  11.316  10.554
77860NA+    NA+39226  23.517  22.133   3.268
77861NA+    NA+39227  44.991   0.287   2.729
77862NA+    NA+39228  28.034  21.086   0.367
77863NA+    NA+39229   6.182  43.356   0.922
77864NA+    NA+39230   2.305  16.696   0.362
77865NA+    NA+39231  29.169  37.344  13.017
77866NA+    NA+39232   9.698  12.654  14.869
77867NA+    NA+39233   3.285   2.351  14.501
77868NA+    NA+39234  31.425  21.722   2.879
77869NA+    NA+39235  44.426  12.239  12.034
77870NA+    NA+39236  44.828  28.022  10.896
77871NA+    NA+39237  15.112  39.900  11.866
77872NA+    NA+39238  27.997  42.827  12.979
77873NA+    NA+39239   4.280  39.050   3.835
77874NA+    NA+39240   6.350  38.447   3.255
77875NA+    NA+39241  31.526  38.531  14.965
77876NA+    NA+39242  36.869   4.384  14.506
77877NA+    NA+39243  25.689  42.865  11.374
77878NA+    NA+39244   2.855  16.150  14.978
77879NA+    NA+39245  13.655   0.947  11.861
77880NA+    NA+39246   7.748  32.939  14.419
77881NA+    NA+39247  12.822  21.034  13.394
77882NA+    NA+39248  27.522  10.717  14.310
77883NA+    NA+39249  22.594  25.987  14.814
77884NA+    NA+39250   9.644   0.331   0.392
77885NA+    NA+39251  30.475  38.011   0.746
77886NA+    NA+39252   5.875  33.509   2.181
77887NA+    NA+39253   4.912  26.057  12.999
77888NA+    NA+39254  36.502  18.759   1.213
77889NA+    NA+39255  13.182  17.252  11.074
77890NA+    NA+39256   8.829  15.707   5.236
77891NA+    NA+39257  38.565  38.518  12.493
77892NA+    NA+39258  13.319  35.052  11.962
77893NA+    NA+39259  36.007   4.809  10.506
77894NA+    NA+39260  30.612   0.855  12.039
77895NA+    NA+39261   2.289   0.463   3.819
77896NA+    NA+39262  33.553   2.466  10.917
77897NA+    NA+39263  14.671  18.627  11.395
77898NA+    NA+39264   6.374  10.251   2.713
77899NA+    NA+39265  27.614  36.901  14.885
77900NA+    NA+39266  26.536  16.271  10.530
77901NA+    NA+39267  44.884  15.785  11.466
77902NA+    NA+39268  27.681  32.078  11.442
77903NA+    NA+39269   5.236   0.475  11.124
77904NA+    NA+39270  40.510  32.579  13.046
77905NA+    NA+39271  20.717   5.249   4.773
77906NA+    NA+39272   7.395   6.215  13.451
77907NA+    NA+39273   4.852  29.528   4.807
77908NA+    NA+39274  39.464  23.590   3.659
77909NA+    NA+39275  22.251  11.229   2.357
77910NA+    NA+39276   0.971  36.847  11.475
77911NA+    NA+39277   5.802  18.605   1.300
77912NA+    NA+39278  34.370   7.853   3.778
77913NA+    NA+39279  40.815   6.320  13.972
77914NA+    NA+39280  16.188  18.186   3.341
77915NA+    NA+39281  41.364  41.959  12.872
77916NA+    NA+39282   9.266  26.678   4.720
77917NA+    NA+39283  38.436  12.194  11.056
77918NA+    NA+39284   7.331  32.129  12.824
77919NA+    NA+39285  18.678  33.545  13.894
77920NA+    NA+39286  26.462  25.484  14.388
77921NA+    NA+39287   7.369  31.538  13.437
77922NA+    NA+39288   9.308  35.561  13.488
77923NA+    NA+39289  37.875  34.070   2.379
77924NA+    NA+39290   7.893  15.685  12.380
77925NA+    NA+39291  18.280  10.875  10.988
77926NA+    NA+39292  12.188  29.975  10.920
77927NA+    NA+39293  34.375  34.598   3.834
77928NA+    NA+39294  29.982  30.460   0.792
77929NA+    NA+39295   8.296  28.652   1.834
77930NA+    NA+39296  37.514  27.946  11.059
77931NA+    NA+39297  22.621  41.809  10.428
77932NA+    NA+39298   7.837  23.493   3.285
77933NA+    NA+39299  23.645  32.408  14.815
77934NA+    NA+39300  20.104  40.348   3.240
77935NA+    NA+39301  28.457  44.282   3.268
77936NA+    NA+39302  41.402  17.263   3.784
77937NA+    NA+39303   4.416  37.558   4.187
77938NA+    NA+39304  35.053  26.099   0.742
77939NA+    NA+39305   2.903  23.616  13.037
77940NA+    NA+39306  25.026  10.678   2.780
77941NA+    NA+39307  12.674  10.293  10.123
77942NA+    NA+39308   5.236  25.610   4.231
77943NA+    NA+39309  11.161  14.798   3.305
77944NA+    NA+39310  44.300  12.271  10.579
77945NA+    NA+39311   9.874  10.814   4.249
77946NA+    NA+39312  42.343  15.644  14.952
77947NA+    NA+39313  29.942  33.879  13.957
77948NA+    NA+39314  14.819   2.434   3.245
77949NA+    NA+39315   6.770  23.723  10.958
77950NA+    NA+39316  34.900  25.186  13.500
77951NA+    NA+39317  37.573   0.920   4.650
77952NA+    NA+39318   8.793  32.507   1.371
77953NA+    NA+39319  18.169   9.260   3.681
77954NA+    NA+39320  31.477   1.478  11.891
77955NA+    NA+39321  10.321  37.535   2.418
77956NA+    NA+39322  24.076  32.559  12.905
77957NA+    NA+39323  35.973  26.186  13.331
77958NA+    NA+39324  10.794  18.097   0.249
77959NA+    NA+39325   2.844  34.593   1.248
77960NA+    NA+39326  22.022  38.389  13.383
77961NA+    NA+39327  10.250  13.326  11.548
77962NA+    NA+39328  41.448  14.264   0.457
77963NA+    NA+39329  12.267   0.754   1.754
77964NA+    NA+39330  21.172  21.567   4.714
77965NA+    NA+39331  35.526   2.790  10.523
77966NA+    NA+39332  41.332  13.715   1.714
77967NA+    NA+39333  37.516   2.945   3.280
77968NA+    NA+39334  32.995  33.589  12.408
77969NA+    NA+39335  44.927  13.620   2.361
77970NA+    NA+39336  30.591  27.510  10.435
77971NA+    NA+39337  10.352  39.414   0.469
77972NA+    NA+39338  21.657  39.554  13.952
77973NA+    NA+39339   7.770   6.731  11.507
77974NA+    NA+39340   4.320  15.165   9.484
77975NA+    NA+39341   1.329   4.415   1.345
77976NA+    NA+39342   8.344  30.551  14.473
77977NA+    NA+39343  33.557   0.981   1.387
77978NA+    NA+39344  44.991  27.681  12.001
77979NA+    NA+39345   4.396  22.538  14.879
77980NA+    NA+39346  18.636  31.451  13.417
77981NA+    NA+39347  35.946   6.788   0.750
77982NA+    NA+39348  14.766  19.216   0.726
77983NA+    NA+39349  37.524  21.071   1.421
77984NA+    NA+39350  36.372  17.268   2.339
77985NA+    NA+39351  29.534  20.624  11.932
77986NA+    NA+39352  42.310  28.546   1.283
77987NA+    NA+39353  15.633  21.681  11.586
77988NA+    NA+39354  33.497  21.692  11.471
77989NA+    NA+39355   8.395  11.711  11.087
77990NA+    NA+39356   7.670  22.083   0.935
77991NA+    NA+39357  33.967  44.400   3.150
77992NA+    NA+39358  25.183  26.059   2.738
77993NA+    NA+39359  44.828  20.657  11.486
77994NA+    NA+39360  38.985  34.948   3.381
77995NA+    NA+39361  36.022  15.675  14.022
77996NA+    NA+39362   9.210  35.589   4.120
77997NA+    NA+39363   4.877  13.771   1.340
77998NA+    NA+39364  24.002  28.980  11.502
77999NA+    NA+39365   6.866   8.693  11.544
78000NA+    NA+39366  13.325  20.760  11.920
78001NA+    NA+39367  39.409  19.212   1.428
78002NA+    NA+39368  13.750  35.391  11.960
78003NA+    NA+39369   2.435  28.967  12.971
78004NA+    NA+39370  26.467   8.287  10.441
78005NA+    NA+39371  29.607  28.017   9.988
78006NA+    NA+39372  26.189  37.367  12.076
78007NA+    NA+39373  15.823  24.166   3.232
78008NA+    NA+39374  24.614   6.204  13.007
78009NA+    NA+39375  42.298  18.245  11.016
78010NA+    NA+39376  27.517  11.815   0.934
78011NA+    NA+39377  22.081   7.211   4.114
78012NA+    NA+39378  14.285   1.244  14.913
78013NA+    NA+39379  21.092  36.075   0.327
78014NA+    NA+39380  25.005  20.545  13.834
78015NA+    NA+39381  20.735  31.622   3.222
78016NA+    NA+39382  18.732  32.417  13.024
78017NA+    NA+39383  30.490  17.789   0.875
78018NA+    NA+39384   4.856  12.816   3.368
78019NA+    NA+39385  22.686  21.131   1.428
78020NA+    NA+39386   9.685  38.449   4.802
78021NA+    NA+39387  14.191   9.373  13.474
78022NA+    NA+39388  28.077  27.172   4.833
78023NA+    NA+39389   2.864  36.035  12.993
78024NA+    NA+39390  41.527  43.811   4.226
78025NA+    NA+39391   9.852   0.898   0.418
78026NA+    NA+39392  35.992  35.853  12.906
78027NA+    NA+39393  28.524  34.067  12.834
78028NA+    NA+39394  23.112  14.328  11.484
78029NA+    NA+39395  20.114  41.490   2.769
78030NA+    NA+39396  33.967  24.060  12.353
78031NA+    NA+39397   4.219  20.739  13.903
78032NA+    NA+39398  22.523   0.309   2.902
78033NA+    NA+39399   5.731  16.626  10.461
78034NA+    NA+39400   3.242  10.652  13.319
78035NA+    NA+39401  11.215  22.722  13.862
78036NA+    NA+39402  40.824   5.204  11.955
78037NA+    NA+39403  17.198  12.174  11.525
78038NA+    NA+39404  18.696  34.412   4.193
78039NA+    NA+39405  15.745  15.145  14.484
78040NA+    NA+39406   6.251  40.465   2.185
78041NA+    NA+39407  16.669   4.903   2.715
78042NA+    NA+39408  32.999  39.520   1.259
78043NA+    NA+39409  11.699  35.600  10.536
78044NA+    NA+39410  37.540  21.233   3.848
78045NA+    NA+39411  37.524  32.567   1.385
78046NA+    NA+39412  32.578  17.100  13.912
78047NA+    NA+39413   9.361  21.732   1.789
78048NA+    NA+39414  11.205  31.533  12.051
78049NA+    NA+39415  35.953  30.567  13.957
78050NA+    NA+39416  41.996   2.393  13.415
78051NA+    NA+39417  43.414   4.412  13.910
78052NA+    NA+39418  31.956  14.643  14.354
78053NA+    NA+39419  38.018  18.572  12.926
78054NA+    NA+39420  34.514   8.672  13.051
78055NA+    NA+39421  44.433  11.859   2.297
78056NA+    NA+39422  25.579   0.255   1.723
78057NA+    NA+39423   9.253  10.305   3.368
78058NA+    NA+39424  31.099  33.400  13.457
78059NA+    NA+39425  17.161   4.442   4.652
78060NA+    NA+39426  19.280  21.081   1.728
78061NA+    NA+39427   2.442  23.704   1.438
78062NA+    NA+39428  13.719  21.136  14.862
78063NA+    NA+39429  23.135  23.127   4.249
78064NA+    NA+39430  42.896  42.474   0.362
78065NA+    NA+39431  36.402  36.848  12.434
78066NA+    NA+39432  41.792  30.953   2.230
78067NA+    NA+39433  42.989  37.000  13.913
78068NA+    NA+39434  37.836  31.110  14.362
78069NA+    NA+39435  44.769   0.349   2.324
78070NA+    NA+39436  37.907  39.979   5.214
78071NA+    NA+39437  33.533  15.132   4.790
78072NA+    NA+39438  26.553  22.074  10.607
78073NA+    NA+39439  15.632   0.950   5.311
78074NA+    NA+39440  41.315  26.176   4.744
78075NA+    NA+39441  10.266  26.088   4.306
78076NA+    NA+39442   8.207  30.076   3.682
78077NA+    NA+39443  13.272  15.688  12.087
78078NA+    NA+39444  16.215  31.495  11.898
78079NA+    NA+39445  21.549  37.504   0.830
78080NA+    NA+39446  42.319  24.011  12.930
78081NA+    NA+39447   2.436  14.707  11.893
78082NA+    NA+39448  32.086  18.642   4.816
78083NA+    NA+39449  16.695  10.266  12.957
78084NA+    NA+39450  39.042  36.484   3.665
78085NA+    NA+39451  20.755   6.293   1.761
78086NA+    NA+39452  33.117  17.680   2.316
78087NA+    NA+39453  14.292  13.287   3.843
78088NA+    NA+39454   8.798   7.189  12.060
78089NA+    NA+39455  18.598  10.347   2.320
78090NA+    NA+39456  13.165  28.112   3.361
78091NA+    NA+39457   7.417  25.017  13.530
78092NA+    NA+39458  41.928  39.881   0.787
78093NA+    NA+39459  30.481  31.483  12.065
78094NA+    NA+39460   1.248  22.683   1.711
78095NA+    NA+39461  14.249   5.729  12.899
78096NA+    NA+39462  37.055  23.202   1.341
78097NA+    NA+39463  24.140  18.724   2.835
78098NA+    NA+39464  38.847  14.683   1.772
78099NA+    NA+39465  25.979  36.956   3.789
78100NA+    NA+39466  22.646  36.090   5.125
78101NA+    NA+39467  22.530  24.124   3.672
78102NA+    NA+39468   7.853  44.819   4.297
78103NA+    NA+39469  38.510  37.869  14.410
78104NA+    NA+39470  27.000   7.304  12.034
78105NA+    NA+39471  26.655  18.146   9.958
78106NA+    NA+39472  35.858  32.930   2.367
78107NA+    NA+39473  20.156  25.087   0.435
78108NA+    NA+39474  19.541  40.838   4.268
78109NA+    NA+39475  36.055  26.525  11.023
78110NA+    NA+39476  25.488  11.181  14.980
78111NA+    NA+39477  29.514  37.908   0.452
78112NA+    NA+39478  32.435   2.751   4.782
78113NA+    NA+39479  26.102  17.685   3.799
78114NA+    NA+39480  38.439  32.050   4.151
78115NA+    NA+39481  34.438  11.230   4.337
78116NA+    NA+39482  21.088  15.619   0.389
78117NA+    NA+39483  14.676   7.741   1.362
78118NA+    NA+39484  37.029  15.739  14.765
78119NA+    NA+39485  24.191  18.675  12.927
78120NA+    NA+39486   7.411  30.121   3.206
78121NA+    NA+39487   3.380  18.060  11.987
78122NA+    NA+39488  25.695   7.350  14.894
78123NA+    NA+39489  25.662   8.194   2.301
78124NA+    NA+39490  32.025  42.999   4.113
78125NA+    NA+39491  36.549  37.479  11.596
78126NA+    NA+39492  40.481  42.524   2.344
78127NA+    NA+39493  42.005  16.717   0.775
78128NA+    NA+39494  30.907  22.027   4.218
78129NA+    NA+39495  39.007  35.416  12.555
78130NA+    NA+39496  17.642  12.804   3.307
78131NA+    NA+39497  42.284  26.665  12.963
78132NA+    NA+39498  39.850  11.240  13.815
78133NA+    NA+39499  11.734  29.065   1.743
78134NA+    NA+39500  24.973  27.661  11.451
78135NA+    NA+39501  43.487  37.997  14.988
78136NA+    NA+39502  23.040  25.994   4.667
78137NA+    NA+39503  16.179   6.245   0.320
78138NA+    NA+39504  24.213  25.077  11.050
78139NA+    NA+39505  11.370  42.951  12.539
78140NA+    NA+39506  17.667  13.143   9.923
78141NA+    NA+39507  38.933  23.104  13.444
78142NA+    NA+39508  38.432  17.755  12.360
78143NA+    NA+39509  43.909   9.313  11.973
78144NA+    NA+39510  40.800  36.011   1.768
78145NA+    NA+39511  10.712  35.871   0.926
78146NA+    NA+39512  29.485  39.403  12.516
78147NA+    NA+39513  22.546  23.501   1.344
78148NA+    NA+39514  37.431  10.738  14.823
78149NA+    NA+39515  28.448  33.536  13.845
78150NA+    NA+39516   1.287  17.678   2.753
78151NA+    NA+39517  17.212  29.995  12.069
78152NA+    NA+39518  20.529  10.302  11.020
78153NA+    NA+39519  30.990   8.350   3.717
78154NA+    NA+39520  18.211  35.518   0.335
78155NA+    NA+39521  12.121  34.591  12.853
78156NA+    NA+39522  26.029   4.343   1.872
78157NA+    NA+39523  35.877  25.130   3.327
78158NA+    NA+39524  38.458  27.088  10.989
78159NA+    NA+39525  35.903  39.508   5.161
78160NA+    NA+39526  11.183  11.769  14.302
78161NA+    NA+39527  32.541  44.755  13.372
78162NA+    NA+39528  21.126   8.230  13.483
78163NA+    NA+39529  33.394  24.031   0.759
78164NA+    NA+39530   4.433  40.377  13.522
78165NA+    NA+39531  25.156  39.047   0.393
78166NA+    NA+39532  27.609  42.795   1.886
78167NA+    NA+39533  14.596   8.186   0.883
78168NA+    NA+39534   9.765  33.460   0.907
78169NA+    NA+39535   4.215  15.104   4.604
78170NA+    NA+39536  42.986  12.809  13.896
78171NA+    NA+39537  35.062  43.371  10.607
78172NA+    NA+39538  24.974  15.127  11.457
78173NA+    NA+39539   9.326   6.302   4.729
78174NA+    NA+39540  27.031  28.171   3.823
78175NA+    NA+39541  13.709  14.098  13.950
78176NA+    NA+39542  27.477  28.438   3.757
78177NA+    NA+39543  41.040  32.046   5.167
78178NA+    NA+39544  39.335  32.482   2.380
78179NA+    NA+39545  18.778  37.077  12.545
78180NA+    NA+39546  22.111  27.156  11.480
78181NA+    NA+39547  32.582   8.820   9.978
78182NA+    NA+39548  21.026  13.607  14.877
78183NA+    NA+39549  31.121  28.010   2.277
78184NA+    NA+39550   1.415   1.853  13.889
78185NA+    NA+39551  12.800  34.975  10.951
78186NA+    NA+39552  27.995  31.604   1.799
78187NA+    NA+39553  35.445  10.228   3.252
78188NA+    NA+39554   5.264  29.629  14.432
78189NA+    NA+39555   3.829  12.139   2.844
78190NA+    NA+39556   1.779  42.023  13.865
78191NA+    NA+39557   9.331  21.089  12.851
78192NA+    NA+39558  40.809  22.207  11.415
78193NA+    NA+39559   1.952  37.080   0.377
78194NA+    NA+39560  31.915   5.385   1.444
78195NA+    NA+39561  14.253  31.438   2.750
78196NA+    NA+39562  21.663  11.802  12.539
78197NA+    NA+39563  31.623  31.547   3.689
78198NA+    NA+39564  22.204  13.313   1.384
78199NA+    NA+39565  39.323  32.459  14.006
78200NA+    NA+39566  25.504  30.158  14.468
78201NA+    NA+39567  19.698  18.099  12.398
78202NA+    NA+39568  19.613  28.016   1.842
78203NA+    NA+39569   6.859  41.450   4.303
78204NA+    NA+39570  34.032  23.542  13.943
78205NA+    NA+39571  32.447  42.026  12.966
78206NA+    NA+39572  18.676  33.088  13.874
78207NA+    NA+39573  12.283  42.505  13.012
78208NA+    NA+39574  26.568  31.604  13.390
78209NA+    NA+39575   9.265  10.723  13.852
78210NA+    NA+39576  12.767   8.337   1.316
78211NA+    NA+39577  36.912  31.646  14.275
78212NA+    NA+39578  43.512   2.272  12.972
78213NA+    NA+39579  26.681   6.683  13.939
78214NA+    NA+39580  31.586  14.632  10.463
78215NA+    NA+39581  18.111  21.733  13.971
78216NA+    NA+39582  14.702  30.163   3.836
78217NA+    NA+39583  28.557  43.271   0.767
78218NA+    NA+39584  11.352  38.063  13.879
78219NA+    NA+39585  42.884  28.089  11.879
78220NA+    NA+39586  38.461  29.502  14.800
78221NA+    NA+39587   4.814   8.714   5.095
78222NA+    NA+39588  10.330   0.794  10.508
78223NA+    NA+39589   4.921  22.585   3.809
78224NA+    NA+39590  19.180  19.699   4.605
78225NA+    NA+39591  12.792  31.623  11.021
78226NA+    NA+39592  38.946  40.543   3.710
78227NA+    NA+39593  44.478  24.607   4.150
78228NA+    NA+39594  27.052  33.554   0.768
78229NA+    NA+39595  24.204  29.164  12.044
78230NA+    NA+39596   6.706   6.286   2.215
78231NA+    NA+39597   9.788  28.654   2.212
78232NA+    NA+39598  19.151  36.851   0.252
78233NA+    NA+39599  40.486   2.254   2.195
78234NA+    NA+39600   6.680  32.608  11.396
78235NA+    NA+39601  17.669  43.410   0.476
78236NA+    NA+39602   9.344  44.413  13.413
78237NA+    NA+39603   6.870  21.737   2.412
78238NA+    NA+39604  28.980   2.943  11.871
78239NA+    NA+39605  23.235  25.088   2.786
78240NA+    NA+39606  24.001   9.841  10.568
78241NA+    NA+39607   7.882  20.629  11.077
78242NA+    NA+39608  30.053  27.945   2.696
78243NA+    NA+39609  32.999  43.402  11.049
78244NA+    NA+39610  28.485  16.183  12.918
78245NA+    NA+39611  27.011  37.533  11.875
78246NA+    NA+39612   1.771  35.903   2.686
78247NA+    NA+39613  30.556  14.714  13.351
78248NA+    NA+39614  29.452  37.838   3.697
78249NA+    NA+39615  22.046  14.290   1.276
78250NA+    NA+39616  39.867  25.152  14.503
78251NA+    NA+39617   5.704  38.004   1.273
78252NA+    NA+39618  40.535  33.440   1.224
78253NA+    NA+39619   1.858  25.522   1.283
78254NA+    NA+39620  34.073  36.926   3.736
78255NA+    NA+39621  15.156  11.312  14.488
78256NA+    NA+39622  29.070   9.351   0.750
78257NA+    NA+39623  19.622  42.974   0.392
78258NA+    NA+39624  31.105  18.079  11.879
78259NA+    NA+39625  34.439  36.395  13.375
78260NA+    NA+39626  44.881   9.856  10.609
78261NA+    NA+39627  25.022  24.067   4.153
78262NA+    NA+39628  43.932  21.113  14.763
78263NA+    NA+39629  44.767  26.529  13.829
78264NA+    NA+39630  38.856  44.875  14.301
78265NA+    NA+39631  39.868   6.917   4.771
78266NA+    NA+39632   6.796  24.176   3.802
78267NA+    NA+39633   0.258  39.850   1.851
78268NA+    NA+39634   7.398  27.947  10.527
78269NA+    NA+39635   0.968  30.467  11.946
78270NA+    NA+39636  24.227  18.221  12.983
78271NA+    NA+39637   8.729   6.883  13.373
78272CL-    CL-39638  37.832  13.177   3.760
78273CL-    CL-39639  17.612  41.469   1.701
78274CL-    CL-39640   9.221  17.306   2.894
78275CL-    CL-39641   3.950  37.532   4.782
78276CL-    CL-39642   4.267  37.434  12.350
78277CL-    CL-39643   8.721   3.285  13.860
78278CL-    CL-39644  15.595  43.375   4.193
78279CL-    CL-39645  34.371  37.861   1.705
78280CL-    CL-39646  34.413  29.465  13.412
78281CL-    CL-39647   1.336  30.140  10.508
78282CL-    CL-39648  44.867  20.612  11.964
78283CL-    CL-39649  14.103  30.420   2.875
78284CL-    CL-39650  30.123  11.340   3.812
78285CL-    CL-39651   5.404  27.069   1.275
78286CL-    CL-39652  35.373  44.271   5.128
78287CL-    CL-39653  10.726  39.401   2.821
78288CL-    CL-39654  40.006  30.582  13.800
78289CL-    CL-39655   2.843  14.266   2.868
78290CL-    CL-39656  39.353  22.530  14.495
78291CL-    CL-39657  18.168   4.205  13.813
78292CL-    CL-39658   9.247  40.541  11.963
78293CL-    CL-39659   7.905  13.711   0.797
78294CL-    CL-39660  36.908   5.284  14.495
78295CL-    CL-39661  15.776  34.992  11.504
78296CL-    CL-39662   0.483  37.984   0.314
78297CL-    CL-39663  14.624  21.135   2.245
78298CL-    CL-39664  40.353  24.153   3.840
78299CL-    CL-39665  13.765  18.673  11.605
78300CL-    CL-39666   9.862   5.363   1.910
78301CL-    CL-39667  27.955  20.711   0.737
78302CL-    CL-39668  18.124  16.757   4.715
78303CL-    CL-39669  26.143  26.553  12.527
78304CL-    CL-39670  29.085  20.067  11.871
78305CL-    CL-39671   8.386   5.331   4.675
78306CL-    CL-39672  10.254  17.558  11.977
78307CL-    CL-39673  29.442  23.505   4.234
78308CL-    CL-39674   7.893  43.808   4.631
78309CL-    CL-39675  32.961  43.809   2.208
78310CL-    CL-39676  10.696  11.339  12.343
78311CL-    CL-39677  39.469  38.987  13.999
78312CL-    CL-39678   8.365  30.980  14.981
78313CL-    CL-39679  31.503  10.364   4.791
78314CL-    CL-39680  27.550  16.775   3.654
78315CL-    CL-39681  22.156  10.737   4.140
78316CL-    CL-39682   8.776  27.123   3.254
78317CL-    CL-39683   6.918  20.034  14.298
78318CL-    CL-39684  41.345  28.560   4.139
78319CL-    CL-39685  28.554   9.887   2.222
78320CL-    CL-39686  26.501  38.835   0.256
78321CL-    CL-39687  24.570  28.055  14.923
78322CL-    CL-39688   8.248  29.516  13.371
78323CL-    CL-39689  32.629   8.259  11.403
78324CL-    CL-39690   3.781  18.083   1.716
78325CL-    CL-39691  23.582  27.688   3.361
78326CL-    CL-39692   6.314  22.505  13.044
78327CL-    CL-39693   3.780   3.286   2.377
78328CL-    CL-39694   9.371   3.951   2.202
78329CL-    CL-39695  18.080  25.017   1.330
78330CL-    CL-39696  16.593  16.303  13.921
78331CL-    CL-39697  40.404  17.690   4.729
78332CL-    CL-39698  30.552  10.792   3.864
78333CL-    CL-39699  25.138   9.302  13.835
78334CL-    CL-39700   8.324  16.791   0.337
78335CL-    CL-39701  33.959  28.078   1.860
78336CL-    CL-39702  42.380   4.789  12.400
78337CL-    CL-39703  25.974  38.460  12.089
78338CL-    CL-39704  15.164  19.664   3.835
78339CL-    CL-39705   5.283   2.852  13.866
78340CL-    CL-39706  39.515  11.266  13.900
78341CL-    CL-39707   0.447  23.201   2.189
78342CL-    CL-39708  16.760   2.396   1.281
78343CL-    CL-39709  31.434  44.002   4.126
78344CL-    CL-39710   7.184  38.021   3.635
78345CL-    CL-39711  22.231  24.974   4.786
78346CL-    CL-39712  20.618  23.224   1.710
78347CL-    CL-39713   6.693  34.102   3.713
78348CL-    CL-39714  39.946  28.487  13.895
78349CL-    CL-39715  26.490  15.281   0.346
78350CL-    CL-39716  27.954  38.540   2.783
78351CL-    CL-39717  36.546  38.447   1.841
78352CL-    CL-39718  21.749  13.718  10.419
78353CL-    CL-39719  37.922  31.546   4.674
78354CL-    CL-39720   1.974  13.680  12.863
78355CL-    CL-39721   1.266   8.669   3.685
78356CL-    CL-39722  26.148  29.587   2.902
78357CL-    CL-39723  24.512   9.210  12.390
78358CL-    CL-39724   0.381  28.072   2.717
78359CL-    CL-39725  11.201  20.141   1.910
78360CL-    CL-39726  33.082  30.974   0.858
78361CL-    CL-39727  14.274  23.572   3.828
78362CL-    CL-39728  16.812  40.322   3.816
78363CL-    CL-39729   4.244  14.326  11.500
78364CL-    CL-39730  33.395  33.972   3.272
78365CL-    CL-39731  24.605  41.449   3.760
78366CL-    CL-39732  30.620   8.262  14.013
78367CL-    CL-39733  15.115  19.536  13.997
78368CL-    CL-39734   1.453  43.475  13.994
78369CL-    CL-39735  12.278  34.581  10.564
78370CL-    CL-39736   9.276  39.981   4.255
78371CL-    CL-39737  27.038  27.136   1.270
78372CL-    CL-39738  10.638  13.231  12.536
78373CL-    CL-39739  30.928  34.531  13.477
78374CL-    CL-39740  11.662  43.856   0.966
78375CL-    CL-39741  27.133   8.839  10.973
78376CL-    CL-39742   2.727   4.935   3.348
78377CL-    CL-39743  30.415  21.136  14.014
78378CL-    CL-39744  44.348  29.663   2.781
78379CL-    CL-39745  44.943   8.825   4.599
78380CL-    CL-39746  14.261   4.344  12.867
78381CL-    CL-39747   6.844  30.145   0.354
78382CL-    CL-39748  14.178  38.072   1.820
78383CL-    CL-39749   9.719  10.235  10.903
78384CL-    CL-39750   4.714   6.829  12.433
78385CL-    CL-39751  14.309  43.833   0.822
78386CL-    CL-39752  19.192  22.243   2.345
78387CL-    CL-39753   6.200  39.530  10.577
78388CL-    CL-39754  34.097  23.144   0.864
78389CL-    CL-39755  23.204  42.422   2.303
78390CL-    CL-39756  22.186  10.758   4.672
78391CL-    CL-39757   4.849  44.362  14.852
78392CL-    CL-39758  11.855  12.298   1.770
78393CL-    CL-39759  34.084  20.753   9.580
78394CL-    CL-39760   5.268  31.999   0.780
78395CL-    CL-39761  14.704   5.209  11.487
78396CL-    CL-39762   3.887  30.639   3.380
78397CL-    CL-39763  20.633   8.192   4.151
78398CL-    CL-39764   2.311  11.280  11.973
78399CL-    CL-39765  21.708   5.388   3.320
78400CL-    CL-39766   2.906  33.397  12.349
78401CL-    CL-39767  37.854  26.639  14.353
78402CL-    CL-39768  37.543  30.072   0.795
78403CL-    CL-39769  18.756  22.552   5.207
78404CL-    CL-39770  29.495  27.955   4.799
78405CL-    CL-39771  18.773  44.324  10.514
78406CL-    CL-39772  34.452   1.357  10.439
78407CL-    CL-39773  27.073  36.011   0.364
78408CL-    CL-39774  32.112  20.766   0.373
78409CL-    CL-39775   5.424  44.809   4.184
78410CL-    CL-39776  41.498   8.660   0.326
78411CL-    CL-39777  29.919  14.211   1.362
78412CL-    CL-39778   1.240  25.624  11.425
78413CL-    CL-39779  16.683  19.596  13.860
78414CL-    CL-39780  12.728   4.769   3.368
78415CL-    CL-39781  36.922  22.683  10.567
78416CL-    CL-39782  19.656  41.419  14.397
78417CL-    CL-39783  42.837  43.440  10.555
78418CL-    CL-39784  20.240  13.119   0.823
78419CL-    CL-39785  26.584   4.230  11.934
78420CL-    CL-39786  12.722  33.057   1.817
78421CL-    CL-39787   6.822  35.468  10.489
78422CL-    CL-39788   4.907  21.634   1.382
78423CL-    CL-39789  34.551  36.028  10.628
78424CL-    CL-39790  21.690  28.665  13.050
78425CL-    CL-39791   6.723  16.154  13.932
78426CL-    CL-39792   6.228  17.585   2.717
78427CL-    CL-39793  25.621  18.272   1.391
78428CL-    CL-39794  15.107  38.571  13.364
78429CL-    CL-39795  32.982  42.439   3.822
78430CL-    CL-39796   6.236   8.371   1.822
78431CL-    CL-39797  14.109  29.065  10.460
78432CL-    CL-39798   6.766  37.529  13.991
78433CL-    CL-39799  35.475  40.948  10.897
78434CL-    CL-39800  36.505  12.296   2.232
78435CL-    CL-39801   1.788  38.432  10.991
78436CL-    CL-39802  29.573  25.974  12.358
78437CL-    CL-39803   1.955  32.992   0.462
78438CL-    CL-39804  19.536  28.539  12.828
78439CL-    CL-39805  35.358   0.809  11.486
78440CL-    CL-39806  38.830  28.954   3.172
78441CL-    CL-39807  42.792  39.853   1.899
78442CL-    CL-39808   3.451  40.518   5.211
78443CL-    CL-39809  21.094  44.871  11.885
78444CL-    CL-39810   7.327  16.737  12.503
78445CL-    CL-39811  23.613  10.372  11.084
78446CL-    CL-39812   0.447  16.228  13.504
78447CL-    CL-39813  14.193  23.097  14.955
78448CL-    CL-39814  27.575   0.413   2.811
78449CL-    CL-39815  23.182  11.634  13.031
78450CL-    CL-39816  24.549  35.501  14.759
78451CL-    CL-39817   3.738   4.316  14.028
78452CL-    CL-39818  44.261   2.327  13.471
78453CL-    CL-39819   5.883  10.218  14.369
78454CL-    CL-39820  22.743  37.421  10.096
78455CL-    CL-39821  40.496  20.719  12.461
78456CL-    CL-39822  21.188   5.717   0.808
78457CL-    CL-39823  41.535  32.115  14.793
78458CL-    CL-39824   9.388  25.566  13.930
78459CL-    CL-39825  18.056  35.868  14.404
78460CL-    CL-39826  26.986  12.657   4.150
78461CL-    CL-39827  19.238   9.210  11.906
78462CL-    CL-39828  18.205  12.327  14.479
78463CL-    CL-39829   9.865  25.636   2.235
78464CL-    CL-39830   7.376  27.545  12.907
78465CL-    CL-39831  22.997  15.580   0.911
78466CL-    CL-39832  19.065   3.426   0.320
78467CL-    CL-39833  10.173  43.784   3.682
78468CL-    CL-39834   1.461   8.698   0.382
78469CL-    CL-39835  36.911  17.299  11.522
78470CL-    CL-39836  18.096   6.909   2.765
78471CL-    CL-39837  42.488  19.673  14.485
78472CL-    CL-39838  18.683  21.183  14.904
78473CL-    CL-39839  13.660  39.318   2.300
78474CL-    CL-39840  22.602   6.698   1.802
78475CL-    CL-39841   5.340  29.440   5.150
78476CL-    CL-39842  25.079  33.898   4.350
78477CL-    CL-39843  33.602  44.922  11.119
78478CL-    CL-39844  40.535   4.770   1.908
78479CL-    CL-39845  33.524   9.650   2.313
78480CL-    CL-39846  10.718  43.820   4.185
78481CL-    CL-39847  37.565  41.926   4.197
78482CL-    CL-39848   2.252  27.190  13.006
78483CL-    CL-39849  33.548  38.029  14.448
78484CL-    CL-39850   9.681  23.696  11.560
78485CL-    CL-39851  24.118  32.023  11.457
78486CL-    CL-39852  32.583  33.932  14.861
78487CL-    CL-39853  23.009  36.545   2.196
78488CL-    CL-39854  10.285  38.875   9.992
78489CL-    CL-39855   3.745  44.322  11.501
78490CL-    CL-39856  33.904  39.412   5.305
78491CL-    CL-39857  42.878  24.209   1.829
78492CL-    CL-39858   1.789   9.224   0.303
78493CL-    CL-39859   5.436  28.464   1.837
78494CL-    CL-39860  36.972   1.374  12.004
78495CL-    CL-39861  38.945  20.532  13.049
78496CL-    CL-39862  40.930  15.142  14.308
78497CL-    CL-39863  20.590  29.043   0.856
78498CL-    CL-39864  25.547  24.142  14.466
78499CL-    CL-39865   5.260   6.886  12.572
78500CL-    CL-39866  12.201  25.018  12.423
78501CL-    CL-39867   1.912   1.883   1.721
78502CL-    CL-39868  10.217  17.187  11.879
78503CL-    CL-39869  30.543  22.736  10.916
78504CL-    CL-39870  35.573  42.894  11.917
78505CL-    CL-39871  30.500   0.800  12.437
78506CL-    CL-39872   2.385   6.330  10.121
78507CL-    CL-39873  40.828  29.644   3.867
78508CL-    CL-39874  43.915  18.103   1.808
78509CL-    CL-39875  39.315  25.547  14.926
78510CL-    CL-39876  27.951  44.923   4.333
78511CL-    CL-39877  38.562   0.900   1.845
78512CL-    CL-39878  26.190  34.512   1.439
78513CL-    CL-39879  28.601  13.313   0.931
78514CL-    CL-39880   4.828  32.567  13.317
78515CL-    CL-39881  32.121  13.247   0.253
78516CL-    CL-39882   8.757   8.352   2.332
78517CL-    CL-39883  29.552  31.940   1.354
78518CL-    CL-39884  43.009  23.662  13.826
78519CL-    CL-39885   5.932   7.773   2.833
78520CL-    CL-39886   0.251  13.842   3.823
78521CL-    CL-39887  41.018  31.643  11.546
78522CL-    CL-39888  19.699  31.898  14.278
78523CL-    CL-39889   1.888  12.715  12.070
78524CL-    CL-39890  35.023   2.436  10.976
78525CL-    CL-39891  29.044  22.057   0.437
78526CL-    CL-39892  16.698  38.371   2.280
78527CL-    CL-39893  25.965  42.309   0.366
78528CL-    CL-39894  32.067  29.021   3.680
78529CL-    CL-39895  17.708  32.923   3.157
78530CL-    CL-39896  12.781   0.813  10.561
78531CL-    CL-39897  20.658  30.128  11.898
78532CL-    CL-39898  26.566  36.441   4.749
78533CL-    CL-39899   3.295   7.766   3.705
78534CL-    CL-39900  23.641  35.066   1.272
78535CL-    CL-39901  44.769  16.177  13.376
78536CL-    CL-39902  36.084   3.744  11.891
78537CL-    CL-39903  22.547  44.910   2.224
78538CL-    CL-39904  32.472  36.430  14.930
78539CL-    CL-39905  39.862  31.930  14.901
78540CL-    CL-39906  32.053  20.144  11.573
78541CL-    CL-39907  18.148  32.061   2.730
78542CL-    CL-39908  27.962  39.559   1.783
78543CL-    CL-39909   2.412   6.881   2.811
78544CL-    CL-39910  26.074  30.586   3.739
78545CL-    CL-39911  42.325  12.253  14.347
78546CL-    CL-39912  28.143  38.060   3.295
78547CL-    CL-39913  32.100  19.128  10.949
78548CL-    CL-39914   1.252  35.576   0.463
78549CL-    CL-39915   2.253   2.439  11.005
78550CL-    CL-39916  39.981  13.237   3.309
78551CL-    CL-39917   9.242   4.699  12.030
78552CL-    CL-39918  44.879  41.896   2.385
78553CL-    CL-39919   7.182   8.333   3.151
78554CL-    CL-39920  43.349  29.466   2.344
78555CL-    CL-39921  26.050  13.203   3.677
78556CL-    CL-39922   8.242  40.798  14.025
78557CL-    CL-39923   6.913  33.422  13.825
78558CL-    CL-39924  39.858  28.594  12.497
78559CL-    CL-39925  44.452  34.977   1.854
78560CL-    CL-39926  36.875  21.716   1.399
78561CL-    CL-39927   4.250  36.368   3.829
78562CL-    CL-39928  31.122  17.235  13.436
78563CL-    CL-39929  17.300  41.411   1.275
78564CL-    CL-39930  23.069  14.283   1.424
78565CL-    CL-39931  20.555  37.522   4.809
78566CL-    CL-39932  12.186   2.292  13.982
78567CL-    CL-39933  16.797  14.768   0.243
78568CL-    CL-39934  17.114  14.770   2.249
78569CL-    CL-39935  21.732  37.974   2.879
78570CL-    CL-39936   2.757   5.226   2.860
78571CL-    CL-39937  11.282   9.657  12.426
78572CL-    CL-39938  24.084  26.689  13.441
78573CL-    CL-39939   2.943  39.391  11.548
78574CL-    CL-39940  35.514  38.344  11.513
78575CL-    CL-39941   8.173   3.230   0.411
78576CL-    CL-39942  13.624   8.204   0.823
78577CL-    CL-39943   8.774  30.981   4.791
78578CL-    CL-39944  37.000  25.547  10.637
78579CL-    CL-39945  33.065  20.670   3.840
78580CL-    CL-39946   0.428  32.070  12.082
78581CL-    CL-39947  14.802  38.885   4.738
78582CL-    CL-39948  30.075  18.791   0.897
78583CL-    CL-39949  40.398  43.787  11.925
78584CL-    CL-39950   4.300  44.419  14.809
78585CL-    CL-39951  13.744  38.547   0.424
78586CL-    CL-39952  44.765  19.772   0.848
78587CL-    CL-39953  35.856  36.077   1.292
78588CL-    CL-39954  15.301  16.188  10.644
78589CL-    CL-39955   7.328  43.009  13.394
78590CL-    CL-39956  14.640   7.340  10.409
78591CL-    CL-39957   2.455  21.065   3.223
78592CL-    CL-39958  42.915  39.025   3.638
78593CL-    CL-39959  44.843  18.158  10.589
78594CL-    CL-39960  24.166  17.794  10.983
78595CL-    CL-39961  23.004  29.090   4.815
78596CL-    CL-39962  19.556   7.876   3.799
78597CL-    CL-39963   5.266  23.513   2.874
78598CL-    CL-39964   5.435  11.680   2.272
78599CL-    CL-39965  33.444  34.033   0.745
78600CL-    CL-39966  32.598   0.452  10.923
78601CL-    CL-39967  34.551   3.801  11.905
78602CL-    CL-39968   6.715  28.482   3.784
78603CL-    CL-39969  41.015  44.296   2.353
78604CL-    CL-39970   6.219  12.667   2.190
78605CL-    CL-39971  15.717  21.121   3.844
78606CL-    CL-39972  16.794  43.883  11.983
78607CL-    CL-39973  18.745   2.804  12.008
78608CL-    CL-39974  26.599  31.433   5.227
78609CL-    CL-39975  40.511  36.558  12.462
78610CL-    CL-39976  42.845   5.424   1.300
78611CL-    CL-39977  18.721  25.472  13.015
78612CL-    CL-39978  30.587  41.897  13.312
78613CL-    CL-39979  25.972   5.282   0.343
78614CL-    CL-39980  30.030  28.520   0.272
78615CL-    CL-39981  19.712   8.183  10.578
78616CL-    CL-39982  38.937  26.504  10.096
78617CL-    CL-39983  15.741  21.741  14.960
78618CL-    CL-39984   0.365  14.745   1.381
78619CL-    CL-39985  11.686  20.628   3.861
78620CL-    CL-39986  21.206  13.105   1.710
78621CL-    CL-39987  13.151  11.647  13.421
78622CL-    CL-39988   6.321  23.499   3.235
78623CL-    CL-39989  30.914  37.379  12.890
78624CL-    CL-39990  32.448  15.588   4.305
78625CL-    CL-39991   3.432   6.233   0.774
78626CL-    CL-39992  24.488  27.564   2.381
78627CL-    CL-39993  29.084  24.076  13.349
78628CL-    CL-39994   1.799  16.791  12.385
78629CL-    CL-39995  23.546   2.365  13.520
78630CL-    CL-39996   6.788  26.693   2.818
78631CL-    CL-39997  14.626  11.686   0.319
78632CL-    CL-39998   0.398  28.035   3.647
78633CL-    CL-39999  41.535  28.179   4.610
78634CL-    CL-40000  11.145  20.557   0.351
78635CL-    CL-40001  29.027  44.891  10.509
78636CL-    CL-40002  36.540  28.012   5.291
78637CL-    CL-40003  30.110   0.401   0.960
78638CL-    CL-40004  39.471   6.390  13.364
78639CL-    CL-40005  19.118  20.589  10.552
78640CL-    CL-40006  12.692  23.076  13.441
78641CL-    CL-40007  39.894  30.025  14.315
78642CL-    CL-40008  35.882  11.806   4.300
78643CL-    CL-40009  11.134  14.199   2.871
78644CL-    CL-40010  31.958   5.351   0.778
78645CL-    CL-40011  21.138   7.845  14.908
78646CL-    CL-40012  14.128  32.920  13.548
78647CL-    CL-40013   9.325  13.780  10.428
78648CL-    CL-40014  19.574  15.614   0.294
78649CL-    CL-40015  32.920  17.287  10.484
78650CL-    CL-40016  13.213  25.175  11.515
78651CL-    CL-40017  33.992  18.697  10.546
78652CL-    CL-40018  30.082  27.041   5.084
78653CL-    CL-40019  11.761   7.275   3.214
78654CL-    CL-40020  31.413  21.572  11.547
78655CL-    CL-40021   3.851  35.020   4.612
78656CL-    CL-40022   3.434  31.043  13.335
78657CL-    CL-40023  38.829  37.891   1.804
78658CL-    CL-40024  22.038  14.179   3.811
78659CL-    CL-40025   5.906  26.987  11.933
78660CL-    CL-40026  27.084  39.406   0.765
78661CL-    CL-40027  39.346  35.504   3.194
78662CL-    CL-40028  25.109  39.986   3.788
78663CL-    CL-40029  35.876  33.618   4.310
78664CL-    CL-40030   2.888  19.679  11.492
78665CL-    CL-40031  11.767  44.787  12.986
78666CL-    CL-40032   3.740  33.464   4.160
78667CL-    CL-40033  10.731  43.420  11.429
78668CL-    CL-40034  39.810  30.644  12.505
78669CL-    CL-40035  34.959  28.508   4.641
78670CL-    CL-40036   2.911  42.847  11.612
78671CL-    CL-40037  24.070  37.570   3.152
78672CL-    CL-40038  43.018  20.147  13.825
78673CL-    CL-40039   7.365  34.906   3.260
78674CL-    CL-40040  43.868  11.865   2.228
78675CL-    CL-40041  28.932  19.540   9.992
78676CL-    CL-40042   5.872  36.427   4.206
78677CL-    CL-40043   4.827  10.742  11.127
78678CL-    CL-40044  12.774  29.083   0.861
78679CL-    CL-40045  28.589   0.311  13.341
78680CL-    CL-40046  23.711  33.048  10.545
78681CL-    CL-40047  16.733  17.694  12.540
78682CL-    CL-40048  44.337  19.227  13.484
78683CL-    CL-40049  21.600  15.757  12.339
78684CL-    CL-40050   5.853  42.006  12.428
78685CL-    CL-40051   4.751  24.617   1.702
78686CL-    CL-40052  16.077  13.137  13.459
78687CL-    CL-40053  28.635  23.732  12.909
78688CL-    CL-40054  41.319  12.676  13.493
78689CL-    CL-40055  17.130  38.994  12.096
78690CL-    CL-40056   3.808  40.909  14.784
78691CL-    CL-40057  36.582  36.963   4.746
78692CL-    CL-40058  27.478  21.037   3.283
78693CL-    CL-40059  42.923  28.453  14.304
78694CL-    CL-40060  41.502  41.857  14.963
78695CL-    CL-40061  33.485  34.597   0.302
78696CL-    CL-40062   0.762  18.604   0.737
78697CL-    CL-40063   8.753  10.749   3.154
78698CL-    CL-40064  36.989  19.156   1.388
78699CL-    CL-40065  18.647  29.149   0.365
78700CL-    CL-40066  19.560   3.335   0.798
78701CL-    CL-40067  43.954  19.066   0.306
78702CL-    CL-40068   2.874   0.258   1.232
78703CL-    CL-40069   6.875  40.840   2.279
78704CL-    CL-40070  38.908  12.160   4.800
78705CL-    CL-40071  27.473   8.674  13.927
78706CL-    CL-40072  32.543  12.810  12.351
78707CL-    CL-40073  22.519  23.541   3.177
78708CL-    CL-40074  36.093   3.830  11.487
78709CL-    CL-40075  30.521   6.367   3.340
78710CL-    CL-40076  32.138   2.322  11.380
78711CL-    CL-40077   8.398  19.223  13.039
78712CL-    CL-40078  28.075  23.613  10.469
78713CL-    CL-40079  18.696  26.595  12.461
78714CL-    CL-40080  33.512  44.425   5.228
78715CL-    CL-40081  44.319  10.825  12.391
78716CL-    CL-40082  32.464  33.932   3.823
78717CL-    CL-40083  11.238  40.825  10.588
78718CL-    CL-40084  20.217  34.895   3.238
78719CL-    CL-40085  19.160   9.389   3.828
78720CL-    CL-40086  43.787   4.907  14.928
78721CL-    CL-40087  14.736  16.627   1.422
78722CL-    CL-40088   8.208  32.987   0.762
78723CL-    CL-40089  11.716  10.752  14.349
78724CL-    CL-40090  12.636  14.596   0.737
78725CL-    CL-40091  20.088  15.660   1.359
78726CL-    CL-40092   1.762   1.962   2.847
78727CL-    CL-40093  24.216  18.698  14.458
78728CL-    CL-40094  33.467  11.689  14.379
78729CL-    CL-40095  26.961  44.860  14.944
78730CL-    CL-40096  17.566  23.050   4.134
78731CL-    CL-40097   8.781  34.904  13.389
78732CL-    CL-40098  42.339  41.308  13.546
78733CL-    CL-40099  31.006  27.668  11.971
78734CL-    CL-40100   2.954  24.170   2.733
78735CL-    CL-40101  33.439  33.055  13.054
78736CL-    CL-40102  10.713  15.297  11.433
78737CL-    CL-40103  22.203  13.816  10.438
78738CL-    CL-40104  31.600  12.622   0.322
78739CL-    CL-40105  18.283  26.090   1.719
78740CL-    CL-40106  22.139   3.252   2.230
78741CL-    CL-40107  31.068  25.637   1.425
78742CL-    CL-40108   2.394   1.765  10.151
78743CL-    CL-40109   4.400  22.216   0.248
78744CL-    CL-40110  30.072   4.713  11.058
78745CL-    CL-40111  37.522  15.702  14.759
78746CL-    CL-40112  31.005   7.765  11.536
78747CL-    CL-40113  25.185  11.710  11.910
78748CL-    CL-40114   9.324   6.785  12.568
78749CL-    CL-40115  27.152  38.357  10.516
78750CL-    CL-40116  30.110  44.397   3.371
78751CL-    CL-40117  21.021   9.875  13.848
78752CL-    CL-40118  44.489   9.388  12.045
78753CL-    CL-40119  30.501  34.925   1.837
78754CL-    CL-40120  11.623  43.782  11.549
78755CL-    CL-40121  20.723  28.542   2.839
78756CL-    CL-40122  10.751  42.022   0.824
78757CL-    CL-40123  23.128  42.411  13.506
78758CL-    CL-40124  11.235  15.220   1.735
78759CL-    CL-40125  14.672   6.918   2.810
78760CL-    CL-40126  23.107   9.712   2.329
78761CL-    CL-40127  42.866  43.908   0.844
78762CL-    CL-40128  39.326  21.607  14.905
78763CL-    CL-40129  43.915   3.446   3.259
78764CL-    CL-40130  19.739  32.037   0.290
78765CL-    CL-40131   4.334  37.344   1.808
78766CL-    CL-40132   5.798   8.178  13.858
78767CL-    CL-40133  12.203   4.351   4.672
78768CL-    CL-40134  13.658  32.402  13.498
78769CL-    CL-40135  36.550   4.224   3.786
78770CL-    CL-40136   3.939  18.551  11.382
78771CL-    CL-40137  39.870  32.569   0.765
78772CL-    CL-40138  33.996   4.805  14.354
78773CL-    CL-40139  34.060  39.540   2.185
78774CL-    CL-40140   2.375  14.203   3.146
78775CL-    CL-40141  37.401  29.442   1.791
78776CL-    CL-40142   4.323  33.037  13.532
78777CL-    CL-40143   2.724  31.615   4.245
78778CL-    CL-40144   5.866   0.893  13.377
78779CL-    CL-40145   8.201   6.288  14.420
78780CL-    CL-40146  24.596  19.286   4.142
78781CL-    CL-40147  14.676  10.219  13.016
78782CL-    CL-40148  41.849  31.062   0.413
78783CL-    CL-40149   5.830   6.280   3.810
78784CL-    CL-40150  24.157   6.724   5.237
78785CL-    CL-40151   7.762  24.137  13.944
78786CL-    CL-40152   2.436   7.794   3.660
78787CL-    CL-40153  14.339  16.259   3.762
78788CL-    CL-40154  25.658  19.157  12.396
78789CL-    CL-40155  20.126  12.822   3.736
78790CL-    CL-40156  21.553   2.472   0.311
78791CL-    CL-40157  34.518   8.186   0.755
78792CL-    CL-40158  11.678  34.024   0.473
78793CL-    CL-40159  37.920   9.256  14.776
78794CL-    CL-40160   5.259  25.146  13.404
78795CL-    CL-40161  24.611   6.829  10.015
78796CL-    CL-40162  42.031  17.218   1.740
78797CL-    CL-40163  12.624   2.757   4.353
78798CL-    CL-40164   8.205  21.149   0.321
78799CL-    CL-40165  39.039  18.143   4.612
78800CL-    CL-40166  25.116   0.437   0.877
78801CL-    CL-40167   6.306   0.370   3.652
78802CL-    CL-40168  17.781  42.295   2.402
78803CL-    CL-40169  30.978  31.992  13.335
78804CL-    CL-40170  15.246  21.196  10.568
78805CL-    CL-40171  24.685  33.935  11.909
78806CL-    CL-40172  42.518  10.273  11.388
78807CL-    CL-40173  18.760  30.117   3.240
78808CL-    CL-40174  20.147  16.266  10.912
78809CL-    CL-40175  40.321   9.239  11.602
78810CL-    CL-40176  25.644   7.706  11.102
78811CL-    CL-40177  12.665  30.982  14.396
78812CL-    CL-40178  15.306  26.090  14.513
78813CL-    CL-40179  32.040  40.829   3.279
78814CL-    CL-40180   2.951  30.538  10.524
78815CL-    CL-40181  25.068  16.810  13.340
78816CL-    CL-40182  25.660  38.851  14.898
78817CL-    CL-40183  35.447   0.278   1.702
78818CL-    CL-40184  44.294  32.573  14.361
78819CL-    CL-40185  36.562  30.955   4.312
78820CL-    CL-40186  10.200  30.016   4.149
78821CL-    CL-40187  31.424  34.962   0.928
78822CL-    CL-40188  27.975  39.528   2.853
78823CL-    CL-40189  31.517  15.218  14.350
78824CL-    CL-40190  22.634  21.651  12.498
78825CL-    CL-40191  37.882   4.408   1.377
78826CL-    CL-40192   1.475  24.061   0.372
78827CL-    CL-40193  32.117  21.519   4.654
78828CL-    CL-40194  35.404  16.173   1.399
78829CL-    CL-40195   7.183  32.115  11.588
78830CL-    CL-40196  41.489  29.164   2.764
78831CL-    CL-40197   8.713  39.993   1.911
78832CL-    CL-40198  15.758  31.935  10.608
78833CL-    CL-40199  44.849  23.611   4.165
78834CL-    CL-40200  21.647   6.849  14.808
78835CL-    CL-40201  14.829  44.430   0.397
78836CL-    CL-40202  30.487  38.061   1.246
78837CL-    CL-40203  15.760  29.495  10.973
78838CL-    CL-40204  43.886  27.123   3.750
78839CL-    CL-40205  35.433  11.722  14.847
78840CL-    CL-40206  22.123  21.575   4.226
78841CL-    CL-40207   5.809  36.514  11.876
78842CL-    CL-40208   1.850  26.680   5.097
78843CL-    CL-40209  11.309   0.417   0.414
78844CL-    CL-40210  16.163  30.958  10.158
78845CL-    CL-40211  25.212   3.766  13.374
78846CL-    CL-40212   0.894  18.291  13.834
78847CL-    CL-40213  29.088  34.531  11.967
78848CL-    CL-40214  13.711  36.457  13.401
78849CL-    CL-40215  28.168   0.895   2.407
78850CL-    CL-40216   0.364  29.161  13.542
78851CL-    CL-40217   4.287   7.343   4.758
78852CL-    CL-40218  36.530  39.371   2.372
78853CL-    CL-40219   1.370  33.444  14.914
78854CL-    CL-40220  20.181  11.140  14.881
78855CL-    CL-40221  36.077  44.407   3.358
78856CL-    CL-40222  33.096  31.492  11.865
78857CL-    CL-40223   7.741   0.759  11.042
78858CL-    CL-40224  27.097   5.371   3.803
78859CL-    CL-40225   3.234  37.927   4.177
78860CL-    CL-40226   7.716  27.946   3.163
78861CL-    CL-40227  11.339  35.438   0.314
78862CL-    CL-40228  12.121  11.223   1.381
78863CL-    CL-40229  27.108  25.127  14.933
78864CL-    CL-40230  15.193  13.818   9.524
78865CL-    CL-40231  21.649   6.678   0.729
78866CL-    CL-40232   4.761  44.424   2.861
78867CL-    CL-40233  12.641   2.424  12.891
78868CL-    CL-40234   0.920  15.168  14.848
78869CL-    CL-40235   2.263  31.920  13.058
78870CL-    CL-40236   1.443  31.523   4.244
78871CL-    CL-40237  13.344  39.984   2.683
78872CL-    CL-40238  30.049  12.290   2.216
78873CL-    CL-40239  43.310  11.130  11.128
78874CL-    CL-40240  21.583  37.984   3.859
78875CL-    CL-40241  16.662  13.275   2.883
78876CL-    CL-40242  42.457  29.148  10.508
78877CL-    CL-40243  33.984  10.227  11.466
78878CL-    CL-40244   5.854  15.303   3.772
78879CL-    CL-40245  20.105  37.416   5.195
78880CL-    CL-40246  42.802   7.285  12.092
78881CL-    CL-40247  39.413  41.305   4.796
78882CL-    CL-40248   5.840  34.088   1.906
78883CL-    CL-40249  17.208  33.968  13.509
78884CL-    CL-40250  21.056  38.498   4.227
78885CL-    CL-40251  26.046   1.418   0.906
78886CL-    CL-40252   6.241  15.256   1.856
78887CL-    CL-40253  41.357  40.037   0.438
78888CL-    CL-40254   7.815  31.558  10.468
78889CL-    CL-40255  38.451  14.103   2.765
78890CL-    CL-40256  21.178  33.502   0.304
78891CL-    CL-40257  26.479   0.289   3.238
78892CL-    CL-40258  16.623  10.859  12.573
78893CL-    CL-40259   2.851  21.723  11.512
78894CL-    CL-40260  41.500  16.149  13.520
78895CL-    CL-40261  23.041  30.932   0.248
78896CL-    CL-40262   4.408  25.203   1.376
78897CL-    CL-40263   6.210  17.681  12.026
78898CL-    CL-40264  37.882  12.733   3.179
78899CL-    CL-40265  18.690   2.470  13.494
78900CL-    CL-40266  30.090  13.192   1.212
78901CL-    CL-40267  29.599   4.319  10.559
78902CL-    CL-40268  19.278  28.134  14.852
78903CL-    CL-40269  24.552  24.674   3.639
78904CL-    CL-40270  24.655   9.663   2.875
78905CL-    CL-40271  10.335  12.359   2.820
78906CL-    CL-40272  15.725  19.105  10.541
78907CL-    CL-40273   4.773  39.966  11.426
78908CL-    CL-40274  39.977   0.816   2.397
78909CL-    CL-40275  31.910  41.400   4.795
78910CL-    CL-40276  31.918  13.655  10.976
78911CL-    CL-40277  32.126  26.153   1.797
78912CL-    CL-40278  13.241  31.912   3.161
78913CL-    CL-40279   7.875  35.977  12.918
78914CL-    CL-40280   1.856  28.654  12.420
78915CL-    CL-40281  28.163  38.859  10.593
78916CL-    CL-40282   8.840  18.064  10.444
78917CL-    CL-40283  23.000  28.488  14.030
78918CL-    CL-40284  10.177  42.952  13.309
78919CL-    CL-40285  23.075   9.190   3.681
78920CL-    CL-40286  29.447  36.527  14.325
78921CL-    CL-40287   4.251  22.084   3.156
78922CL-    CL-40288  25.988  20.591  10.899
78923CL-    CL-40289  18.173  36.903   1.809
78924CL-    CL-40290  30.526  11.848   1.412
78925CL-    CL-40291  31.470  30.008   4.781
78926CL-    CL-40292  14.636   1.791   2.896
78927CL-    CL-40293  18.295   7.746   2.687
78928CL-    CL-40294  32.944  13.611   3.220
78929CL-    CL-40295  30.509   9.365   3.775
78930CL-    CL-40296  11.293  21.077   1.742
78931CL-    CL-40297  34.522  37.404   2.860
78932CL-    CL-40298  33.057   2.466   2.876
78933CL-    CL-40299  14.290  21.533   1.287
78934CL-    CL-40300  16.134   3.755   1.321
78935CL-    CL-40301   5.738   7.348   3.331
78936CL-    CL-40302  23.611  33.101  12.929
78937CL-    CL-40303  21.643  23.176   4.143
78938CL-    CL-40304   8.720  22.016  13.367
78939CL-    CL-40305  24.596  16.223   3.273
78940CL-    CL-40306  39.001  15.691   2.759
78941CL-    CL-40307  20.732  27.542  11.037
78942CL-    CL-40308  13.113   7.818  11.956
78943CL-    CL-40309  32.468  11.828  10.530
78944CL-    CL-40310  24.637  26.036   1.883
78945CL-    CL-40311  24.210  18.627   0.257
78946CL-    CL-40312   2.399  35.063  12.915
78947CL-    CL-40313  33.102   4.328   0.283
78948CL-    CL-40314  12.668  44.782   1.766
78949CL-    CL-40315  11.726  22.061   1.257
78950CL-    CL-40316  21.117  26.014   4.184
78951CL-    CL-40317  26.507  25.508   0.911
78952CL-    CL-40318  43.510   5.710  13.361
78953CL-    CL-40319  10.699   6.794   2.844
78954CL-    CL-40320  19.275  28.478  12.073
78955CL-    CL-40321  30.418  34.613   2.337
78956CL-    CL-40322  31.496  42.321  10.591
78957CL-    CL-40323  29.170  28.961   3.233
78958CL-    CL-40324  41.905  41.418   1.839
78959CL-    CL-40325  13.128   5.745   0.838
78960CL-    CL-40326   0.943   3.948  13.927
78961CL-    CL-40327  43.920  22.187   2.373
78962CL-    CL-40328  10.294  37.438   2.687
78963CL-    CL-40329  42.872  20.256   4.651
78964CL-    CL-40330  32.005  35.864  13.480
78965CL-    CL-40331  29.946  10.312  10.520
78966CL-    CL-40332  33.112  31.921   4.336
78967CL-    CL-40333  28.546  21.528   0.475
78968CL-    CL-40334  39.414  14.253  12.939
78969CL-    CL-40335   9.355  10.279  10.637
78970CL-    CL-40336  26.053  34.474   4.177
78971CL-    CL-40337  30.648  22.738   1.312
78972CL-    CL-40338  22.121  31.421   3.656
78973CL-    CL-40339  11.747  41.899  10.938
78974CL-    CL-40340  30.014  44.997   0.354
78975CL-    CL-40341  34.396  25.035   3.208
78976CL-    CL-40342  19.572  43.404   0.455
78977CL-    CL-40343  31.037   6.827   4.223
78978CL-    CL-40344  44.295  17.301  12.917
78979CL-    CL-40345   1.455  36.905   0.743
78980CL-    CL-40346  21.225  28.607   0.879
78981CL-    CL-40347  35.358  33.906   1.821
78982CL-    CL-40348   9.254  10.267   2.885
78983CL-    CL-40349  34.406  36.933  14.773
78984CL-    CL-40350  34.499  30.534  10.592
78985CL-    CL-40351   9.700  38.001   0.350
78986CL-    CL-40352   1.322  16.694  14.892
78987CL-    CL-40353  33.383   1.321   2.272
78988CL-    CL-40354  27.025  14.815   3.380
78989CL-    CL-40355  18.600  36.934  11.982
78990CL-    CL-40356  16.778  17.133  14.901
78991CL-    CL-40357   0.491  11.712   1.901
78992CL-    CL-40358  42.339  32.078   4.164
78993CL-    CL-40359   6.326  30.980   1.340
78994CL-    CL-40360   4.335  10.277  14.383
78995CL-    CL-40361  18.129  39.009  12.478
78996CL-    CL-40362  22.614  37.876   5.128
78997CL-    CL-40363  18.055   4.399  11.034
78998CL-    CL-40364  20.141  14.271   2.837
78999CL-    CL-40365  36.479   9.845  10.903
79000CL-    CL-40366  31.980  27.115  14.871
79001CL-    CL-40367  28.089  21.516  11.608
79002CL-    CL-40368  35.549  35.977   3.685
79003CL-    CL-40369  23.986   4.904   0.370
79004CL-    CL-40370  28.454  38.939   2.412
79005CL-    CL-40371   3.219  42.779  14.906
79006CL-    CL-40372   9.221  24.106  12.394
79007CL-    CL-40373   8.901  16.701   9.445
79008CL-    CL-40374  36.074  16.163  11.599
79009CL-    CL-40375  21.716   1.845   0.933
79010CL-    CL-40376  23.600  31.061  11.402
79011CL-    CL-40377  42.014  23.654   3.162
79012CL-    CL-40378  22.596  20.687  10.417
79013CL-    CL-40379  20.252  36.970  13.379
79014CL-    CL-40380  17.790   6.898  14.480
79015CL-    CL-40381  17.295  15.641  10.502
79016CL-    CL-40382  30.951  13.220   2.758
79017CL-    CL-40383  24.689   7.759   2.235
79018CL-    CL-40384  12.118  22.702  12.892
79019CL-    CL-40385  43.312  29.595   2.794
79020CL-    CL-40386  17.255  22.606  10.127
79021CL-    CL-40387  14.307  24.015  14.313
79022CL-    CL-40388  31.545   3.808  10.620
79023CL-    CL-40389  21.721  24.012  12.949
79024CL-    CL-40390  44.813  20.041  12.557
79025CL-    CL-40391  33.564  38.386  13.917
79026CL-    CL-40392   6.282  18.156   2.258
79027CL-    CL-40393  38.526  44.905  11.461
79028CL-    CL-40394   2.820   3.235  14.356
79029CL-    CL-40395  26.512  41.927  10.449
79030CL-    CL-40396  41.445  29.143  13.875
79031CL-    CL-40397  13.806  35.517   3.228
79032CL-    CL-40398  41.924   1.853   0.311
79033CL-    CL-40399  43.303  33.884   0.482
79034CL-    CL-40400  31.077  19.650   4.729
79035CL-    CL-40401  22.590   2.741  10.558
79036CL-    CL-40402  17.191  21.743  11.576
79037CL-    CL-40403  31.491  19.124   3.247
79038CL-    CL-40404  35.953  39.863  14.814
79039CL-    CL-40405  23.606  13.665  11.398
79040CL-    CL-40406  23.549   6.190   9.677
79041CL-    CL-40407  17.274  26.193  12.342
79042CL-    CL-40408  10.159  39.527   3.302
79043CL-    CL-40409  10.755  26.198   4.792
79044CL-    CL-40410   7.749  12.854  11.001
79045CL-    CL-40411  15.166  24.484   4.217
79046CL-    CL-40412  37.532   2.308   0.831
79047CL-    CL-40413   8.751  41.416  14.914
79048CL-    CL-40414  16.709  11.742   0.727
79049CL-    CL-40415  30.502  29.432  11.946
79050CL-    CL-40416   9.759  12.337  12.075
79051CL-    CL-40417  32.400  31.112  14.408
79052CL-    CL-40418  18.567  19.058   4.178
79053CL-    CL-40419  14.231  10.752   3.736
79054CL-    CL-40420  29.664  44.886   0.883
79055CL-    CL-40421  41.880  21.535  11.418
79056CL-    CL-40422  44.496  24.644  10.088
79057CL-    CL-40423  36.588  37.088   1.899
79058CL-    CL-40424  20.696  14.263   0.933
79059CL-    CL-40425  16.109  16.653   9.965
79060CL-    CL-40426  44.982  11.130   4.184
79061CL-    CL-40427  22.543   4.811   3.207
79062CL-    CL-40428  10.341  31.519  10.903
79063CL-    CL-40429  39.354   3.324   1.812
79064CL-    CL-40430  29.124  39.324  13.531
79065CL-    CL-40431   6.736  43.449  12.496
79066CL-    CL-40432  13.117  18.237  14.933
79067CL-    CL-40433  32.099   8.804   3.721
79068CL-    CL-40434  13.667  17.202   2.376
79069CL-    CL-40435  40.444  11.638  11.983
79070CL-    CL-40436  44.468  20.593  13.469
79071CL-    CL-40437  44.400  15.101  11.004
79072CL-    CL-40438  35.857  34.911   2.316
79073CL-    CL-40439  28.475  30.659  14.365
79074CL-    CL-40440   8.393  44.949  11.918
79075CL-    CL-40441  35.392  21.634  13.432
79076CL-    CL-40442  42.027  12.636  11.113
79077CL-    CL-40443  23.216   8.875  12.864
79078CL-    CL-40444  40.338  26.008   1.324
79079CL-    CL-40445  38.906  36.368   3.258
79080CL-    CL-40446  18.272  43.913  14.298
79081CL-    CL-40447   0.806  41.423  12.484
79082CL-    CL-40448  41.462  28.673  11.425
79083CL-    CL-40449   2.274  42.432  13.323
79084CL-    CL-40450  38.482   1.426  13.360
79085CL-    CL-40451  18.602  31.514   1.211
79086CL-    CL-40452  17.676  36.893   0.804
79087CL-    CL-40453  18.714  14.687   1.405
79088CL-    CL-40454  40.916  28.104   3.820
79089CL-    CL-40455  29.650  14.787  11.003
79090CL-    CL-40456   9.813   6.915   0.966
79091CL-    CL-40457  39.509  28.053   3.672
79092CL-    CL-40458  17.781  41.789  14.280
79093CL-    CL-40459   9.709   4.255   2.724
79094CL-    CL-40460   8.865  17.221   2.364
79095CL-    CL-40461   7.324  40.806   0.287
79096CL-    CL-40462  26.095  26.583   1.856
79097CL-    CL-40463  33.063  31.088  10.443
79098CL-    CL-40464   9.396   7.300  14.992
79099CL-    CL-40465  32.532  23.211  10.549
79100CL-    CL-40466  18.639   5.240   3.825
79101CL-    CL-40467   9.224   1.424  13.345
79102CL-    CL-40468  43.306  44.799   1.918
79103CL-    CL-40469  33.926  35.105   4.156
79104CL-    CL-40470  26.686  14.248   3.165
79105CL-    CL-40471  35.597  41.952  14.763
79106CL-    CL-40472  38.562  16.613   0.911
79107CL-    CL-40473  34.378  37.547   1.322
79108CL-    CL-40474   8.876  42.860   2.839
79109CL-    CL-40475  15.301  25.084   1.377
79110CL-    CL-40476  25.039  28.592   4.231
79111CL-    CL-40477   3.821  26.972   5.321
79112CL-    CL-40478  20.537  17.763   3.214
79113CL-    CL-40479  20.749  42.798  14.887
79114CL-    CL-40480   3.863  31.143  14.347
79115CL-    CL-40481  32.616   1.303  13.006
79116CL-    CL-40482  34.443   9.263   0.850
79117CL-    CL-40483   9.876  25.142  13.013
79118CL-    CL-40484  21.127  36.845   1.271
79119CL-    CL-40485  22.564  16.777   3.349
79120CL-    CL-40486  10.337  44.318  13.415
79121CL-    CL-40487  22.036  38.435  11.568
79122CL-    CL-40488  28.560  43.805  11.386
79123CL-    CL-40489   7.776  15.605   2.886
79124CL-    CL-40490  22.208  25.964   2.736
79125CL-    CL-40491  37.535  11.724   5.221
79126CL-    CL-40492  33.502   4.770  10.530
79127CL-    CL-40493   3.846  39.004   4.214
79128CL-    CL-40494  27.089  39.552  12.484
79129CL-    CL-40495  10.786  42.819   1.838
79130CL-    CL-40496  10.869  31.430   0.273
79131CL-    CL-40497  16.735  15.275  12.580
79132CL-    CL-40498  38.986   0.435   1.744
79133CL-    CL-40499  21.156   9.267   2.733
79134CL-    CL-40500  39.338  42.778   4.738
79135CL-    CL-40501  41.026   0.844  10.968
79136CL-    CL-40502  42.452  31.936   2.763
79137CL-    CL-40503  31.588   6.224  14.381
79138CL-    CL-40504  24.000  34.910  13.465
79139CL-    CL-40505  13.291   9.685   0.386
79140CL-    CL-40506  37.399  15.163   1.392
79141CL-    CL-40507  22.544  16.782  12.374
79142CL-    CL-40508  13.241  10.790  12.447
79143CL-    CL-40509   5.281  44.868  13.457
79144CL-    CL-40510  23.984  14.688  12.028
79145CL-    CL-40511  15.297  40.504  10.988
79146CL-    CL-40512  24.718  29.919   1.280
79147CL-    CL-40513   6.846  25.213   1.842
79148CL-    CL-40514   3.432   6.850  12.471
79149CL-    CL-40515  34.393   2.343  12.993
79150CL-    CL-40516   8.403  19.050  10.619
79151CL-    CL-40517  25.558  23.017  14.989
79152CL-    CL-40518  40.917  10.171   2.776
79153CL-    CL-40519  21.689   5.928  14.822
79154CL-    CL-40520   6.686  38.468   2.203
79155CL-    CL-40521   0.831   9.259  13.447
79156CL-    CL-40522  43.940  31.094  10.146
79157CL-    CL-40523  28.124  18.248   3.636
79158CL-    CL-40524  12.766  17.683   4.711
79159CL-    CL-40525  34.494  13.715   2.721
79160CL-    CL-40526  21.169  32.071  11.899
79161CL-    CL-40527  22.722  44.504  13.984
79162CL-    CL-40528  43.893  29.652   0.823
79163CL-    CL-40529   8.348  23.087  12.046
79164CL-    CL-40530   7.289  23.652   4.631
79165CL-    CL-40531  21.036  42.403  13.957
79166CL-    CL-40532  11.252   4.442   0.366
79167CL-    CL-40533  28.601  38.933   3.762
79168CL-    CL-40534   3.852  14.809  13.060
79169CL-    CL-40535  37.388   2.446  11.864
79170CL-    CL-40536  12.678  12.754  13.812
79171CL-    CL-40537  37.509  11.266   4.623
79172CL-    CL-40538  18.199  15.315   2.341
79173CL-    CL-40539  33.472  29.597   5.262
79174CL-    CL-40540  39.829  34.100  14.821
79175CL-    CL-40541  28.653  34.592   0.744
79176CL-    CL-40542   9.872  42.379   0.801
79177CL-    CL-40543  12.707   3.335  14.340
79178CL-    CL-40544  21.117  12.788   4.661
79179CL-    CL-40545  34.552  43.016   4.800
79180CL-    CL-40546  23.202  23.513  14.998
79181CL-    CL-40547  33.558   6.245   2.675
79182CL-    CL-40548  16.265  43.871   3.346
79183CL-    CL-40549  28.066   6.797  13.459
79184CL-    CL-40550   9.739   2.807   3.257
79185CL-    CL-40551  18.593  13.630   2.282
79186CL-    CL-40552  34.589  30.455   3.207
79187CL-    CL-40553  34.048  40.846   2.668
79188CL-    CL-40554  38.922  26.046  13.930
79189CL-    CL-40555   6.191  37.888  14.456
79190CL-    CL-40556  42.400  21.526  14.029
79191CL-    CL-40557   6.261   5.764  10.429
79192CL-    CL-40558  42.368  40.339   0.838
79193CL-    CL-40559  21.257  17.690   4.185
79194CL-    CL-40560  15.794  30.638  13.972
79195CL-    CL-40561  17.586  13.755   4.325
79196CL-    CL-40562  38.393  43.480   1.713
79197CL-    CL-40563  19.653  25.494  10.486
79198CL-    CL-40564  24.079  44.259   0.400
79199CL-    CL-40565  41.460   2.362  12.399
79200CL-    CL-40566  11.303  38.053  11.494
79201CL-    CL-40567  31.912   3.917  12.025
79202CL-    CL-40568  17.689   7.843  11.391
79203CL-    CL-40569  21.156  14.108  11.436
79204CL-    CL-40570  26.116  36.576  12.364
79205CL-    CL-40571   0.799  24.183   3.817
79206CL-    CL-40572  20.222  31.566  11.886
79207CL-    CL-40573  17.065  14.678   3.251
79208CL-    CL-40574  24.620  15.655   0.440
79209CL-    CL-40575  16.804   2.781  13.491
79210CL-    CL-40576  41.906   1.947   0.949
79211CL-    CL-40577  28.662   3.218  10.636
79212CL-    CL-40578  16.812  23.541  13.359
79213CL-    CL-40579  24.014  34.986   5.215
79214CL-    CL-40580  20.683  37.036   1.251
79215CL-    CL-40581  20.146   3.722  12.388
79216CL-    CL-40582   0.479  12.747  11.106
79217CL-    CL-40583  15.744   9.657  14.826
79218CL-    CL-40584   2.919  28.113  13.916
79219CL-    CL-40585   1.889  26.048   3.192
79220CL-    CL-40586  23.691  18.102   2.682
79221CL-    CL-40587  24.562  18.747  13.395
79222CL-    CL-40588  27.109  24.606   3.317
79223CL-    CL-40589  32.582  27.572   3.750
79224CL-    CL-40590  25.079  42.509   2.323
79225CL-    CL-40591  33.093  37.916  11.894
79226CL-    CL-40592  27.472   6.912   3.167
79227CL-    CL-40593   8.761   1.800  12.356
79228CL-    CL-40594  34.486  17.578   3.270
79229CL-    CL-40595  31.071  12.786  13.927
79230CL-    CL-40596  23.557  14.735   3.150
79231CL-    CL-40597  16.076   6.766   4.195
79232CL-    CL-40598  42.332  37.953   3.154
79233CL-    CL-40599  30.082  15.122   3.322
79234CL-    CL-40600   0.488  27.519   9.625
79235CL-    CL-40601  20.236  42.333  14.293
79236CL-    CL-40602   2.375  33.600  14.810
79237CL-    CL-40603   2.827   0.943   4.214
79238CL-    CL-40604  42.024  41.458  13.914
79239CL-    CL-40605  28.498   6.788  13.439
79240CL-    CL-40606  20.544  14.675   0.819
79241CL-    CL-40607   0.896  44.759  11.499
79242CL-    CL-40608  18.559  27.573   0.767
79243CL-    CL-40609   7.398  30.970   4.771
79244CL-    CL-40610  44.768   8.344   4.294
79245CL-    CL-40611   3.890   9.806   4.325
79246CL-    CL-40612  40.538  14.134   2.209
79247CL-    CL-40613  32.113  30.094   0.780
79248CL-    CL-40614  18.555   3.916   3.245
79249CL-    CL-40615  20.245  15.657   4.597
79250CL-    CL-40616  17.688   4.430  13.365
79251CL-    CL-40617  33.065   1.751   3.265
79252CL-    CL-40618   6.872  21.753   0.468
79253CL-    CL-40619  31.538   0.880   1.412
79254CL-    CL-40620  32.471  20.232  13.442
79255CL-    CL-40621  11.622   7.282   1.419
79256CL-    CL-40622  29.573  25.601   4.775
79257CL-    CL-40623  28.133  22.683  14.925
79258CL-    CL-40624  16.251  42.894   4.605
79259CL-    CL-40625  39.015  32.488  12.045
79260CL-    CL-40626  14.167  10.810   2.370
79261CL-    CL-40627   0.762  25.625   0.846
79262CL-    CL-40628   0.834  34.558  11.086
79263CL-    CL-40629  10.248  16.571   4.722
79264CL-    CL-40630   2.469   1.347  12.947
79265CL-    CL-40631  24.558  38.416  14.945
79266CL-    CL-40632   1.841  43.294  11.113
79267CL-    CL-40633   1.968  12.163   1.708
79268CL-    CL-40634  36.375  42.842   3.152
79269CL-    CL-40635  26.502   2.462  12.417
79270CL-    CL-40636  29.930  40.997  11.427
79271CL-    CL-40637  15.739  18.233   0.376
79272CL-    CL-40638   9.183  10.864   1.403
79273CL-    CL-40639   8.373  12.805  13.894
79274CL-    CL-40640  37.434  19.631   4.209
79275CL-    CL-40641  37.521  15.622   3.150
79276CL-    CL-40642  13.127  26.181   3.635
79277CL-    CL-40643   7.710  32.429   2.893
79278CL-    CL-40644  23.015  18.596  13.457
79279CL-    CL-40645   9.211  32.416  14.348
79280CL-    CL-40646   3.391  30.076   2.795
79281CL-    CL-40647  17.711   1.805  14.339
79282CL-    CL-40648  22.610  37.538  14.860
79283CL-    CL-40649   6.766  20.177  14.955
79284CL-    CL-40650  42.782  25.169  11.019
79285CL-    CL-40651  10.242  19.651   1.421
79286CL-    CL-40652   7.373   9.882   4.330
79287CL-    CL-40653  42.967  30.135   2.288
79288CL-    CL-40654  22.233  18.710   1.878
79289CL-    CL-40655  38.894   1.876  10.562
79290CL-    CL-40656  19.109  35.361  11.038
79291CL-    CL-40657  32.996  28.560  11.603
79292CL-    CL-40658  24.170  17.191  12.517
79293CL-    CL-40659  22.652  43.928   4.156
79294CL-    CL-40660  40.457  21.726  10.969
79295CL-    CL-40661  22.615   6.690  12.511
79296CL-    CL-40662  37.576  27.599   4.176
79297CL-    CL-40663   3.426   8.847   0.865
79298CL-    CL-40664  33.579  24.054   5.253
79299CL-    CL-40665   2.757  14.316   0.377
79300CL-    CL-40666  18.726  16.604   4.248
79301CL-    CL-40667  40.388  38.894   0.402
79302CL-    CL-40668  23.003  33.110   3.642
79303CL-    CL-40669  24.166  28.575  14.013
79304CL-    CL-40670  30.440  26.089   3.788
79305CL-    CL-40671  14.146   5.411   4.165
79306CL-    CL-40672  34.568  12.813   1.449
79307CL-    CL-40673  24.562  18.754   1.732
79308CL-    CL-40674  27.021  37.904   4.784
79309CL-    CL-40675  44.996  12.156   2.789
79310CL-    CL-40676  12.832  12.855  11.566
79311CL-    CL-40677   8.888  23.594   3.823
79312CL-    CL-40678  21.227  16.124   3.631
79313CL-    CL-40679  15.218  36.901   0.295
79314CL-    CL-40680  21.086   6.826   4.253
79315CL-    CL-40681  17.279  20.645  14.963
79316CL-    CL-40682   7.836   7.398  14.970
79317CL-    CL-40683   2.262  23.566   0.471
79318CL-    CL-40684  30.129  10.729   4.294
79319CL-    CL-40685  25.078   9.323   2.753
79320CL-    CL-40686  28.522  27.499   2.380
79321CL-    CL-40687  17.089  43.514  10.461
79322CL-    CL-40688  11.335   4.441   3.781
79323CL-    CL-40689  20.097   1.310  12.428
79324CL-    CL-40690  28.936  21.227   2.699
79325CL-    CL-40691  26.127  24.546   1.900
79326CL-    CL-40692  32.934  14.283  11.890
79327CL-    CL-40693  31.610   9.291   4.298
79328CL-    CL-40694  25.031  31.001  11.910
79329CL-    CL-40695  17.127  21.692   3.254
79330CL-    CL-40696  11.670  36.452  13.486
79331CL-    CL-40697   7.758  11.862  14.877
79332CL-    CL-40698  41.376   1.393  11.493
79333CL-    CL-40699  37.883  28.461  12.450
79334CL-    CL-40700   3.256  22.179   0.313
79335CL-    CL-40701  27.606  20.591   0.747
79336CL-    CL-40702   7.387  42.521   3.299
79337CL-    CL-40703  27.544  33.078   4.607
79338CL-    CL-40704  25.553  34.048  10.007
79339CL-    CL-40705  14.765  44.927  11.584
79340CL-    CL-40706  27.536   7.255   3.347
79341CL-    CL-40707  29.600  41.325  13.492
79342CL-    CL-40708  44.923   5.698  11.040
79343CL-    CL-40709  21.038  38.947  12.927
79344CL-    CL-40710   9.890  17.620   1.437
79345CL-    CL-40711  25.059  14.163   2.247
79346CL-    CL-40712  36.570  23.618  10.008
79347CL-    CL-40713   3.880   2.804  10.029
79348CL-    CL-40714   4.434  27.631  11.469
79349CL-    CL-40715  13.241  10.863   1.249
79350CL-    CL-40716   4.318  13.250   1.878
79351CL-    CL-40717   7.712  39.899   0.915
79352CL-    CL-40718  35.871  12.359   4.645
79353CL-    CL-40719  33.459  43.488   2.873
79354CL-    CL-40720  41.334  31.121  13.041
79355CL-    CL-40721  44.004  13.116  14.409
79356CL-    CL-40722  43.984  27.139   9.943
79357CL-    CL-40723  35.537   2.775   2.363
79358CL-    CL-40724  17.766   2.270  14.881
79359CL-    CL-40725   5.835  32.035   2.753
79360CL-    CL-40726   9.694  31.056  12.964
79361CL-    CL-40727  19.279  23.691   1.818
79362CL-    CL-40728  18.206  33.593  12.853
79363CL-    CL-40729  38.468  22.162   4.354
79364CL-    CL-40730  44.288  34.546   3.818
79365CL-    CL-40731  12.262  10.266  10.635
79366CL-    CL-40732  16.094  44.412  13.464
79367CL-    CL-40733  44.415   6.736   4.154
79368CL-    CL-40734  42.784  39.506   1.248
79369CL-    CL-40735  12.781  16.581   4.215
79370CL-    CL-40736   6.191   8.830  12.384
79371CL-    CL-40737  36.884  21.079  14.308
79372CL-    CL-40738  35.576  27.468   1.409
79373CL-    CL-40739  24.160  34.035   9.982
79374CL-    CL-40740  19.050  34.497  12.838
79375CL-    CL-40741  41.880   3.753  14.500
79376CL-    CL-40742  44.362   0.793   1.797
79377CL-    CL-40743  35.961  31.934   0.341
79378CL-    CL-40744   2.247   8.822   3.656
79379CL-    CL-40745  22.033  23.147   2.664
79380CL-    CL-40746  25.976  23.033   4.643
79381CL-    CL-40747  19.147   5.213   1.723
79382CL-    CL-40748  27.074   3.759   4.611
79383CL-    CL-40749   9.209  43.810   3.861
79384CL-    CL-40750   7.869  41.319   2.666
79385CL-    CL-40751  33.936  33.389  10.054
79386CL-    CL-40752  32.893  26.494  13.436
79387CL-    CL-40753  30.572   8.764   4.354
79388CL-    CL-40754  10.690  38.431   1.825
79389CL-    CL-40755  32.913  11.238   4.271
79390CL-    CL-40756  19.226  16.130  11.051
79391CL-    CL-40757  16.093   0.414  11.876
79392CL-    CL-40758  41.337  13.770  12.349
79393CL-    CL-40759  24.569  23.568   4.831
79394CL-    CL-40760   5.880  44.339   3.693
79395CL-    CL-40761  44.916  28.504   2.220
79396CL-    CL-40762   4.277  36.982  12.874
79397CL-    CL-40763  25.580  31.101   0.399
79398CL-    CL-40764   1.743  20.128  12.889
79399CL-    CL-40765   1.276  22.057   3.663
79400CL-    CL-40766  35.861   6.860   2.856
79401CL-    CL-40767   9.220  22.066  14.351
79402CL-    CL-40768  14.200  43.002  12.466
79403CL-    CL-40769  31.458   6.720  10.888
79404CL-    CL-40770   1.342  17.169  14.815
79405CL-    CL-40771  23.573   7.876  12.042
79406CL-    CL-40772  19.205  15.754   1.268
79407CL-    CL-40773  39.959  24.125   2.411
79408CL-    CL-40774  30.044  10.747   1.837
79409CL-    CL-40775  17.232   0.375   4.202
79410CL-    CL-40776  11.755  17.276  12.367
79411CL-    CL-40777  15.615  16.312   0.838
79412CL-    CL-40778  23.005  27.661   2.390
79413CL-    CL-40779  28.579  33.413  10.913
79414CL-    CL-40780  41.011  36.467   1.726
79415CL-    CL-40781  40.502   0.899   1.376
79416CL-    CL-40782  21.018  35.051  13.808
79417CL-    CL-40783  14.184  26.484   4.245
79418CL-    CL-40784   6.396  21.612   1.738
79419CL-    CL-40785   2.962  10.818   3.763
79420CL-    CL-40786  34.591  44.290  11.525
79421CL-    CL-40787  36.969  18.781   1.405
79422CL-    CL-40788  29.618  17.762  11.471
79423CL-    CL-40789  43.333  29.536  10.429
79424CL-    CL-40790  28.086   8.890   4.313
79425CL-    CL-40791  14.195  19.115  11.590
79426CL-    CL-40792  18.734  40.445   3.752
79427CL-    CL-40793  15.744  13.337   9.594
79428CL-    CL-40794   2.302  37.834  11.031
79429CL-    CL-40795  42.936  16.139  11.402
79430CL-    CL-40796  39.425  37.528   2.337
79431CL-    CL-40797  12.622  13.614  10.433
79432CL-    CL-40798  13.636  11.670  14.001
79433CL-    CL-40799   2.871  26.123   3.778
79434CL-    CL-40800   8.709   3.850  10.421
79435CL-    CL-40801  17.300  32.038  11.097
79436CL-    CL-40802  24.032  40.477  14.431
79437CL-    CL-40803   7.758  27.542  10.609
79438CL-    CL-40804  11.253  26.158   3.237
79439CL-    CL-40805  14.270   2.946  13.427
79440CL-    CL-40806  15.326  33.545   1.386
79441CL-    CL-40807  25.066   5.820   1.265
79442CL-    CL-40808  22.509  40.956  13.962
79443CL-    CL-40809   8.310  32.118  12.936
79444CL-    CL-40810   0.422  14.741  10.890
79445CL-    CL-40811   6.246  22.671  13.833
79446CL-    CL-40812  29.470  21.661   1.395
79447CL-    CL-40813  25.659  39.543  12.387
79448CL-    CL-40814  42.427  21.675  14.330
79449CL-    CL-40815  31.423   2.848   0.436
79450CL-    CL-40816  36.490  18.620   3.187
79451CL-    CL-40817  36.871  18.589  12.837
79452CL-    CL-40818   9.169  39.878   4.607
79453CL-    CL-40819  42.008   1.263  13.484
79454CL-    CL-40820  34.445  34.044   1.446
79455CL-    CL-40821   8.671  38.460  10.991
79456CL-    CL-40822  39.868  41.995  14.285
79457CL-    CL-40823  34.541  38.040  12.498
79458CL-    CL-40824  43.366  16.630  13.504
79459CL-    CL-40825  25.604  40.398  11.069
79460CL-    CL-40826   5.235  43.414   1.442
79461CL-    CL-40827  24.639  19.097  11.468
79462CL-    CL-40828  33.464  38.377  10.987
79463CL-    CL-40829   8.386  21.039  13.934
79464CL-    CL-40830  23.133   0.296   2.783
79465CL-    CL-40831  32.995  18.612   4.727
79466CL-    CL-40832   1.820  12.775   2.859
79467CL-    CL-40833  31.602  39.936  11.029
79468CL-    CL-40834  10.365  25.565   4.339
79469CL-    CL-40835   9.738  35.989  11.598
79470CL-    CL-40836   3.402  11.356  13.427
79471CL-    CL-40837  23.224  22.182  14.344
79472CL-    CL-40838  39.978   1.482  13.463
79473CL-    CL-40839  10.877  15.244  13.983
79474CL-    CL-40840  26.515  29.485   3.153
79475CL-    CL-40841   8.222   3.794   4.185
79476CL-    CL-40842  15.272   8.187   2.194
79477CL-    CL-40843  18.769  18.283  12.908
79478CL-    CL-40844   8.205   7.894   1.791
79479CL-    CL-40845  24.065   9.271   3.320
79480CL-    CL-40846  27.960  21.151   3.665
79481CL-    CL-40847  35.364  10.191   4.748
79482CL-    CL-40848   1.742  25.653   5.240
79483CL-    CL-40849  29.175  24.182  11.070
79484CL-    CL-40850   6.401  10.760   4.746
79485CL-    CL-40851  36.433  33.914  10.548
79486CL-    CL-40852  13.159  15.781   4.759
79487CL-    CL-40853  14.819   7.271   2.765
79488CL-    CL-40854  43.336  13.250   4.305
79489CL-    CL-40855  17.273  26.502   3.759
79490CL-    CL-40856  41.409  35.548  12.378
79491CL-    CL-40857  22.674  26.656   1.263
79492CL-    CL-40858  37.492  12.660  13.827
79493CL-    CL-40859  14.196  40.005   3.858
79494CL-    CL-40860  24.706  44.441  11.399
79495CL-    CL-40861  20.052  43.498   0.274
79496CL-    CL-40862  44.839  31.596   1.715
79497CL-    CL-40863   9.854  11.211   3.203
79498CL-    CL-40864  23.725   4.228  11.589
79499CL-    CL-40865  20.221  17.751   3.339
79500CL-    CL-40866  34.403   4.705   1.875
79501CL-    CL-40867  26.110   7.385  10.992
79502CL-    CL-40868  24.150  13.690  11.101
79503CL-    CL-40869  31.438  35.876  10.568
79504CL-    CL-40870  26.207  43.431  10.620
79505CL-    CL-40871  29.464   7.187   3.766
79506CL-    CL-40872   2.841  33.517  13.513
79507CL-    CL-40873   2.860   6.233   1.286
79508CL-    CL-40874  17.205  19.243  13.839
79509CL-    CL-40875  16.689  22.507  13.367
79510CL-    CL-40876  22.738  43.460   3.818
79511CL-    CL-40877  15.190  29.488   1.273
79512CL-    CL-40878  43.968   4.227   4.171
79513CL-    CL-40879  20.541   6.342   1.351
79514CL-    CL-40880  19.780  32.605   3.369
79515CL-    CL-40881  30.519  41.336  11.389
79516CL-    CL-40882  21.182  41.328  11.400
79517CL-    CL-40883   7.281   5.284   0.937
79518CL-    CL-40884  20.193  13.679   2.252
79519CL-    CL-40885  37.978  24.569  12.521
79520CL-    CL-40886  36.048  10.384   2.410
79521CL-    CL-40887   8.185  18.777   2.407
79522CL-    CL-40888  30.083  29.622   3.376
79523CL-    CL-40889  28.110  29.054   3.202
79524CL-    CL-40890  18.676  22.051   4.125
79525CL-    CL-40891  16.108  35.948   1.747
79526CL-    CL-40892  23.987  26.027  14.413
79527CL-    CL-40893  23.193  15.778  10.424
79528CL-    CL-40894   5.692  41.312   3.638
79529CL-    CL-40895  44.855  18.116   3.749
79530CL-    CL-40896   8.840   0.374   0.366
79531CL-    CL-40897   8.307  39.401   3.637
79532CL-    CL-40898   7.336   9.685   2.806
79533CL-    CL-40899  42.456  23.726   4.687
79534CL-    CL-40900  23.605  24.048  13.963
79535CL-    CL-40901  43.859  25.057  12.960
79536CL-    CL-40902  42.360  28.033  14.333
79537CL-    CL-40903  13.202  29.573   1.852
79538CL-    CL-40904  19.638   0.490  11.373
79539CL-    CL-40905  10.863  31.463  11.458
79540CL-    CL-40906  29.567  16.641  10.909
79541CL-    CL-40907  26.522  28.988   5.618
79542CL-    CL-40908  44.481  26.645  14.475
79543CL-    CL-40909  20.742   3.311   3.226
79544CL-    CL-40910  16.648  44.808   0.376
79545CL-    CL-40911  17.574  22.520  12.905
79546CL-    CL-40912  13.660   8.842   4.347
79547CL-    CL-40913  26.544   1.324   3.822
79548CL-    CL-40914  15.192   0.372  12.953
79549CL-    CL-40915  28.480  40.950   3.282
79550CL-    CL-40916  35.010   0.358   1.422
79551CL-    CL-40917  24.508  28.456   0.414
79552CL-    CL-40918  27.562  38.019   1.439
79553CL-    CL-40919   9.213  13.230   3.346
79554CL-    CL-40920  13.220  25.481   1.318
79555CL-    CL-40921  19.233  10.251   0.892
79556CL-    CL-40922  36.390  33.382   0.267
79557CL-    CL-40923  11.307  29.642  11.490
79558CL-    CL-40924  28.167  29.124   0.883
79559CL-    CL-40925   2.964   3.948   4.691
79560CL-    CL-40926  25.147  39.335   2.252
79561CL-    CL-40927  10.165  11.312  13.819
79562CL-    CL-40928  28.115  41.842  13.449
79563CL-    CL-40929  12.169  13.146  11.584
79564CL-    CL-40930  17.761  18.727   0.962
79565CL-    CL-40931   1.757   8.390  11.955
79566CL-    CL-40932  33.452  16.285   4.605
79567CL-    CL-40933  12.315  14.738   5.649
79568CL-    CL-40934   2.867  26.136  12.924
79569CL-    CL-40935  18.759  15.169  10.133
79570CL-    CL-40936   0.391  33.997  12.982
79571CL-    CL-40937  23.112  42.885   4.348
79572CL-    CL-40938  29.629  30.028  10.153
79573CL-    CL-40939   2.359  42.849  14.832
79574CL-    CL-40940  44.276  25.505  10.934
79575CL-    CL-40941  39.969  17.754  12.823
79576CL-    CL-40942  36.898   3.827   3.694
79577CL-    CL-40943  37.972  42.378  12.566
79578CL-    CL-40944  33.478  36.486   2.834
79579CL-    CL-40945  18.152  26.164  14.443
79580CL-    CL-40946  23.207  34.500   0.279
79581CL-    CL-40947   3.744  37.343  11.026
79582CL-    CL-40948  39.541  15.104  14.377
79583CL-    CL-40949  38.064  16.203  12.339
79584CL-    CL-40950  39.982  23.685   2.411
79585CL-    CL-40951  23.068  17.719   2.229
79586CL-    CL-40952  37.542  41.362   1.370
79587CL-    CL-40953  32.937  14.601   2.366
79588CL-    CL-40954   2.315  21.675   3.772
79589CL-    CL-40955  14.132  21.102   4.805
79590CL-    CL-40956   0.890  31.449  10.425
79591CL-    CL-40957  31.099  12.259  11.102
79592CL-    CL-40958  19.730  25.182  14.397
79593CL-    CL-40959  32.944  39.864   0.766
79594CL-    CL-40960  41.368  32.072   0.863
79595CL-    CL-40961  28.597  44.923   3.386
79596CL-    CL-40962  39.956   4.823  12.555
79597CL-    CL-40963   2.333  37.067   2.791
79598CL-    CL-40964  15.644  11.739  12.870
79599CL-    CL-40965   0.931  36.583   2.670
79600CL-    CL-40966  39.050  22.681   3.822
79601CL-    CL-40967  25.680  15.666  11.535
79602CL-    CL-40968   6.697  25.639  12.492
79603CL-    CL-40969  43.460  32.127  10.157
79604CL-    CL-40970  13.612   5.829  13.033
79605CL-    CL-40971  30.067  32.544   1.881
79606CL-    CL-40972   7.209   1.367  11.524
79607CL-    CL-40973  23.018  18.765  14.392
79608CL-    CL-40974   6.771  22.179   0.281
79609CL-    CL-40975   5.366  37.405   4.628
79610CL-    CL-40976  16.248  35.996   2.397
79611CL-    CL-40977  39.065  28.993  14.335
79612CL-    CL-40978  12.129   7.255  14.323
79613CL-    CL-40979  15.136  33.070   0.433
79614CL-    CL-40980  12.207  41.972  13.396
79615CL-    CL-40981   3.387  38.839  11.101
79616CL-    CL-40982  28.961  14.688   0.314
79617CL-    CL-40983  33.110  34.591   2.777
79618CL-    CL-40984  35.074   5.194   1.762
79619CL-    CL-40985  28.064  36.385  12.076
79620CL-    CL-40986  17.275  38.863   0.289
79621CL-    CL-40987  22.736  40.485  12.554
79622CL-    CL-40988  21.057  44.307  12.852
79623CL-    CL-40989   4.262  30.531  10.554
79624CL-    CL-40990  32.601   9.650   0.843
79625CL-    CL-40991  33.923  31.506  11.030
79626CL-    CL-40992  19.078  37.864  13.853
79627CL-    CL-40993  33.125  29.969   1.757
79628CL-    CL-40994  10.637   0.891  11.505
79629CL-    CL-40995  42.333   2.885  12.361
79630CL-    CL-40996  43.461   0.405   4.794
79631CL-    CL-40997  27.110   2.335   3.676
79632CL-    CL-40998  39.339  13.329  14.363
79633CL-    CL-40999   5.727  10.307   3.735
79634CL-    CL-41000  17.571  11.367   2.793
79635CL-    CL-41001  40.413  14.130  11.103
79636CL-    CL-41002  28.553  17.620  10.936
79637CL-    CL-41003  10.157   8.739  14.834
79638CL-    CL-41004  22.094  12.761   4.702
79639CL-    CL-41005  15.093  26.676  13.421
79640CL-    CL-41006  18.712  20.269   4.196
79641CL-    CL-41007  30.650  21.035  11.561
79642CL-    CL-41008  22.520  41.452  11.480
79643CL-    CL-41009   7.689   7.244  12.989
79644CL-    CL-41010  31.042   1.377   0.406
79645CL-    CL-41011  36.043  11.621  11.109
79646CL-    CL-41012  41.486  35.067   4.295
79647CL-    CL-41013  33.401   7.810  11.121
79648CL-    CL-41014   1.433   6.196   0.341
79649CL-    CL-41015  23.529  26.022   2.877
79650CL-    CL-41016  36.865   8.294   0.793
79651CL-    CL-41017   5.734  22.613  11.454
79652CL-    CL-41018  27.972  36.428   3.828
79653CL-    CL-41019   3.380  12.730   2.713
79654CL-    CL-41020  24.000  16.640  12.023
79655CL-    CL-41021   7.250  25.611   3.745
79656CL-    CL-41022  25.994  43.973  11.558
79657CL-    CL-41023  28.107   4.940  13.532
79658CL-    CL-41024  40.464   7.401   4.203
79659CL-    CL-41025  27.961   1.965  14.952
79660CL-    CL-41026  32.522  32.102  10.954
79661CL-    CL-41027  43.917  29.471   2.785
79662CL-    CL-41028  28.156   2.303  10.512
79663CL-    CL-41029   0.488  12.180  11.488
79664CL-    CL-41030  20.569   5.760   2.200
79665CL-    CL-41031  12.218  23.059   0.287
79666CL-    CL-41032  23.204  15.115  10.547
79667CL-    CL-41033  43.973   1.484   4.344
79668CL-    CL-41034  42.334  28.027  12.528
79669CL-    CL-41035   5.258  35.512  14.934
79670CL-    CL-41036  43.985   9.277  12.396
79671CL-    CL-41037  25.096  19.115  14.809
79672CL-    CL-41038  33.392  14.743   4.756
79673CL-    CL-41039  11.317  14.800  12.943
79674CL-    CL-41040   7.321  36.866  14.008
79675CL-    CL-41041   3.231  25.099  10.513
79676CL-    CL-41042  21.121  38.352   3.216
79677CL-    CL-41043  25.200  39.325  11.603
79678CL-    CL-41044   2.931  40.024  11.964
79679CL-    CL-41045  20.526   4.235  13.898
79680CL-    CL-41046  17.669   7.333   4.755
79681CL-    CL-41047   4.304  37.919   3.206
79682CL-    CL-41048  28.104  36.093   4.746
79683CL-    CL-41049   3.243  34.016   2.304
79684CL-    CL-41050  19.630  18.726   0.351
79685CL-    CL-41051  30.507  39.319   3.350
79686CL-    CL-41052  21.199   3.834   2.673
79687CL-    CL-41053  37.834  18.772  10.479
79688CL-    CL-41054  44.994  26.206  10.913
79689CL-    CL-41055   8.836   6.794  14.840
79690CL-    CL-41056  32.560  19.729  13.529
79691CL-    CL-41057  25.122  28.141   0.369
79692CL-    CL-41058  24.533  18.791  12.016
79693CL-    CL-41059  14.225  18.686  11.473
79694CL-    CL-41060  32.547  25.600  13.033
79695CL-    CL-41061  31.578   7.375  13.055
79696CL-    CL-41062  13.782  35.049  14.012
79697CL-    CL-41063   4.818  39.838  10.997
79698CL-    CL-41064  26.200  40.484   0.830
79699CL-    CL-41065   7.721   3.823  13.838
79700CL-    CL-41066  37.376   6.854  11.961
79701CL-    CL-41067  17.557  41.492   0.803
79702CL-    CL-41068   1.265  29.118   0.332
79703CL-    CL-41069  18.186  24.221   0.254
79704CL-    CL-41070  30.994  11.770   5.240
79705CL-    CL-41071  32.060  27.557   3.789
79706CL-    CL-41072  15.660  42.873  12.083
79707CL-    CL-41073  38.499  19.710  14.281
79708CL-    CL-41074  36.053  13.280  10.469
79709CL-    CL-41075  10.229  27.476  11.409
79710CL-    CL-41076  37.834  14.229   1.868
79711CL-    CL-41077  37.020   2.952  13.333
79712CL-    CL-41078  17.697  33.483   2.314
79713CL-    CL-41079   6.230   8.675  11.906
79714CL-    CL-41080  43.421  10.708   3.732
79715CL-    CL-41081  36.096  20.047  14.373
79716CL-    CL-41082   4.301  24.987   4.749
79717CL-    CL-41083  39.531  43.437   3.271
79718CL-    CL-41084  10.760  23.668   1.396
79719CL-    CL-41085  32.069  42.516  13.893
79720CL-    CL-41086  27.508  14.168   3.365
79721CL-    CL-41087  33.492   8.727  12.918
79722CL-    CL-41088   2.235  42.283   4.760
79723CL-    CL-41089  10.724  15.190   4.625
79724CL-    CL-41090  35.960  27.989  13.350
79725CL-    CL-41091  11.286  34.498  14.935
79726CL-    CL-41092   3.354  17.093  11.415
79727CL-    CL-41093   0.403  13.163   2.792
79728CL-    CL-41094  33.526  17.172  10.086
79729CL-    CL-41095   1.275   4.861  12.022
79730CL-    CL-41096  36.947   6.822  14.378
79731CL-    CL-41097  32.990  10.225   1.862
79732CL-    CL-41098   1.326  24.996   3.347
79733CL-    CL-41099  13.810  42.289  10.929
79734CL-    CL-41100  32.478  22.614  14.818
79735CL-    CL-41101  12.343  41.994   2.335
79736CL-    CL-41102  33.447  33.555   1.893
79737CL-    CL-41103   5.763   9.886  11.416
79738CL-    CL-41104  37.562   1.846   4.296
79739CL-    CL-41105  16.698   3.422   0.341
79740CL-    CL-41106  43.951  44.429   4.764
79741CL-    CL-41107  25.216  21.589  14.310
79742CL-    CL-41108  42.382  35.451  13.865
79743CL-    CL-41109  33.888  34.108  14.927
79744CL-    CL-41110  44.499  23.510  10.152
79745CL-    CL-41111  15.285  42.895  13.828
79746CL-    CL-41112  29.996  39.924  13.984
79747CL-    CL-41113  11.701  29.035  13.370
79748CL-    CL-41114  26.573  43.829  14.329
79749CL-    CL-41115   5.317  24.062   2.286
79750CL-    CL-41116  23.033  17.658  10.601
79751CL-    CL-41117  39.819  13.325  14.317
79752CL-    CL-41118   8.367  28.971  14.392
79753CL-    CL-41119  35.980  11.180   1.231
79754CL-    CL-41120  36.068  21.225   3.718
79755CL-    CL-41121  14.230  41.821  12.872
79756CL-    CL-41122  12.353  14.620   3.747
79757CL-    CL-41123   6.919   0.943  11.061
79758CL-    CL-41124  29.032  40.873  13.906
79759CL-    CL-41125  26.091   1.241  10.899
79760CL-    CL-41126  36.416  25.511   2.795
79761CL-    CL-41127  23.670  24.690   4.621
79762CL-    CL-41128  19.204   1.961  13.489
79763CL-    CL-41129  14.253  23.508   3.340
79764CL-    CL-41130  31.410  24.091  14.385
79765CL-    CL-41131   4.854   6.215   4.180
79766CL-    CL-41132  14.132  12.792   1.317
79767CL-    CL-41133  37.452  41.852  12.907
79768CL-    CL-41134  20.189  40.046  10.106
79769CL-    CL-41135  33.440  17.785   3.868
79770CL-    CL-41136  27.039  29.432   1.796
79771CL-    CL-41137  28.178   4.704  13.060
79772CL-    CL-41138   3.910  40.000  10.600
79773CL-    CL-41139  24.573  41.444   0.814
79774CL-    CL-41140  25.584  17.109  12.367
79775CL-    CL-41141  39.966  40.995   1.801
79776CL-    CL-41142  13.618  41.031  10.891
79777CL-    CL-41143  37.446  28.599   1.923
79778CL-    CL-41144  23.005  42.519   1.753
79779CL-    CL-41145  23.211  43.778  11.566
79780CL-    CL-41146  22.533  23.054   3.838
79781CL-    CL-41147  34.575  38.420   5.803
79782CL-    CL-41148  23.214   0.339  11.072
79783CL-    CL-41149   8.666   1.935  12.049
79784CL-    CL-41150  18.208  12.843  10.608
79785CL-    CL-41151   8.268  34.521   4.716
79786CL-    CL-41152  17.260  25.478   2.322
79787CL-    CL-41153   9.296   3.386  11.422
79788CL-    CL-41154  32.566  42.001  13.380
79789CL-    CL-41155  15.246  12.846   0.832
79790CL-    CL-41156   4.733   5.239  10.572
79791CL-    CL-41157   0.914  41.420  11.562
79792CL-    CL-41158  28.096  26.666   0.310
79793CL-    CL-41159  32.505  13.250   2.716
79794CL-    CL-41160   7.393  27.125   3.721
79795CL-    CL-41161   3.821  19.564   1.290
79796CL-    CL-41162  10.712  34.517   4.136
79797CL-    CL-41163  26.035  22.553  14.409
79798CL-    CL-41164  43.318  27.683   1.742
79799CL-    CL-41165  16.679  37.065   0.371
79800CL-    CL-41166  19.188  16.107   5.612
79801CL-    CL-41167  37.835  37.920   1.247
79802CL-    CL-41168  36.572  10.233   3.319
79803CL-    CL-41169  34.105  27.981  13.942
79804CL-    CL-41170   1.773  43.947   2.365
79805CL-    CL-41171  41.359  27.513  12.088
79806CL-    CL-41172   8.789   2.358   0.876
79807CL-    CL-41173  20.130  19.247  13.434
79808CL-    CL-41174  21.659   7.696   4.730
79809CL-    CL-41175   7.182   2.284   4.352
79810CL-    CL-41176  30.003  17.748   0.310
79811CL-    CL-41177  26.604   9.693   0.420
79812CL-    CL-41178  36.560  41.496   1.428
79813CL-    CL-41179  42.875   5.383   4.709
79814CL-    CL-41180  32.990  42.981   1.821
79815CL-    CL-41181  12.137   1.270   1.245
79816CL-    CL-41182  41.812  35.957   2.793
79817CL-    CL-41183  20.584  40.443  10.424
79818CL-    CL-41184   6.836   2.296   3.819
79819CL-    CL-41185   9.272   7.230   1.338
79820CL-    CL-41186  37.843  26.046   4.647
79821CL-    CL-41187  25.118   1.473  11.928
79822CL-    CL-41188   5.361  41.417   4.768
79823CL-    CL-41189  27.486   7.354  14.976
79824CL-    CL-41190  31.008   9.710  14.277
79825CL-    CL-41191  22.602  27.669   0.362
79826CL-    CL-41192   0.890   0.339  13.466
79827CL-    CL-41193  39.946  17.630  14.897
79828CL-    CL-41194  41.486  24.480  14.468
79829CL-    CL-41195  13.805  16.119  11.030
79830CL-    CL-41196  24.505  22.026  14.017
79831CL-    CL-41197  10.173  41.040   1.916
79832CL-    CL-41198  17.151  36.072   3.719
79833CL-    CL-41199  18.177  32.586  12.836
79834CL-    CL-41200  36.079   2.752  12.497
79835CL-    CL-41201   0.762   9.255   1.915
79836CL-    CL-41202  33.531   7.813   3.632
79837CL-    CL-41203  15.690  40.825  14.025
79838CL-    CL-41204  20.161  43.923   4.646
79839CL-    CL-41205  32.394  19.166   1.308
79840CL-    CL-41206  40.317  35.483   4.263
79841CL-    CL-41207  20.556  44.407  14.407
79842CL-    CL-41208   7.900  31.574  14.869
79843CL-    CL-41209  31.471  24.489  12.354
79844CL-    CL-41210  26.613  23.999  12.902
79845CL-    CL-41211   4.230  41.486  13.955
79846CL-    CL-41212  14.804  28.142  10.149
79847CL-    CL-41213  28.489  19.286   2.226
79848CL-    CL-41214  43.008   7.775   1.310
79849CL-    CL-41215  41.476  17.711  12.875
79850CL-    CL-41216  27.095  10.259  13.003
79851CL-    CL-41217  29.657  16.801  14.863
79852CL-    CL-41218   0.408   5.254  11.957
79853CL-    CL-41219  18.239  42.964  12.349
79854CL-    CL-41220  33.080  30.990   2.178
79855CL-    CL-41221   3.376   5.841   4.269
79856CL-    CL-41222  32.608  16.107  10.621
79857CL-    CL-41223  33.598  26.533  10.141
79858CL-    CL-41224  27.181  21.235  13.417
79859CL-    CL-41225  12.325   5.237  12.470
79860CL-    CL-41226   7.761   6.264   5.297
79861CL-    CL-41227   2.827  35.548  10.624
79862CL-    CL-41228   2.878  16.779   0.460
79863CL-    CL-41229  25.014  29.944   2.381
79864CL-    CL-41230  18.635  28.101  10.903
79865CL-    CL-41231   8.723  25.551  14.999
79866CL-    CL-41232  43.388  25.504  14.826
79867CL-    CL-41233   4.781   8.818   3.697
79868CL-    CL-41234   1.337  12.271   4.764
79869CL-    CL-41235  26.512  12.338  14.929
79870CL-    CL-41236   5.267  35.456  11.911
79871CL-    CL-41237  29.957  30.149  14.475
79872CL-    CL-41238  29.994  13.215   0.958
79873CL-    CL-41239   1.836  13.710  10.567
79874CL-    CL-41240   5.248  12.804   4.247
79875CL-    CL-41241   1.409  23.150  13.403
79876CL-    CL-41242  39.045  36.439   1.310
79877CL-    CL-41243  23.088  36.463   1.849
79878CL-    CL-41244  27.482  19.171   0.757
79879CL-    CL-41245  18.611  40.452   9.988
79880CL-    CL-41246  22.735   2.723   0.727
79881CL-    CL-41247   7.403  27.550   2.700
79882CL-    CL-41248  36.536  44.450  10.505
79883CL-    CL-41249  18.178  34.907   4.268
79884CL-    CL-41250  17.165   4.255   1.451
79885CL-    CL-41251  11.272  44.009   3.318
79886CL-    CL-41252  27.984  43.501  10.900
79887CL-    CL-41253  35.010  27.485  12.570
79888CL-    CL-41254  43.865  20.720   3.252
79889CL-    CL-41255  20.236  24.670   3.721
79890CL-    CL-41256  36.936  27.026  14.285
79891CL-    CL-41257  27.013  35.468   2.385
79892CL-    CL-41258  38.329  29.118  14.474
79893CL-    CL-41259  11.851  11.284   3.654
79894CL-    CL-41260  20.575   3.387  14.932
79895CL-    CL-41261  38.946  28.443   4.816
79896CL-    CL-41262  36.041  35.984  14.938
79897CL-    CL-41263  43.988   1.767   4.162
79898CL-    CL-41264  40.860  39.824   1.865
79899CL-    CL-41265  28.529  16.731   1.423
79900CL-    CL-41266  14.629  34.913  10.645
79901CL-    CL-41267  25.119  36.875   2.689
79902CL-    CL-41268  33.392  35.101   3.303
79903CL-    CL-41269  31.519  30.118  12.351
79904CL-    CL-41270  31.023  25.642  13.398
79905CL-    CL-41271  21.106  17.659  12.837
79906CL-    CL-41272   9.227   0.943  10.447
79907CL-    CL-41273   1.358   3.757   0.840
79908CL-    CL-41274  33.128  10.270  12.568
79909CL-    CL-41275   9.299  44.264  13.828
79910CL-    CL-41276  39.425   4.240   2.799
79911CL-    CL-41277  34.377  11.295  12.929
79912CL-    CL-41278   6.316  19.679  11.127
79913CL-    CL-41279  14.672  25.621  11.040
79914CL-    CL-41280  20.567   4.412   4.687
79915CL-    CL-41281  34.002  21.564  13.516
79916CL-    CL-41282  27.638  11.818  14.372
79917CL-    CL-41283  22.533   1.745  13.442
79918CL-    CL-41284   6.822  20.537   3.218
79919CL-    CL-41285  25.661  18.254  10.411
79920CL-    CL-41286  34.095  18.705  10.143
79921CL-    CL-41287  39.903  19.160   4.149
79922CL-    CL-41288  23.236  21.170  12.944
79923CL-    CL-41289  40.466  29.175  13.892
79924CL-    CL-41290  21.627   9.224  14.342
79925CL-    CL-41291  44.395  36.974  12.463
79926CL-    CL-41292   3.253  14.700   0.839
79927CL-    CL-41293  11.659   9.647   3.700
79928CL-    CL-41294  17.296  43.489   1.405
79929CL-    CL-41295  27.131  25.522  11.092
79930CL-    CL-41296  19.569   4.418   2.380
79931CL-    CL-41297  37.927   7.330   2.203
79932CL-    CL-41298  40.534   2.963   2.862
79933CL-    CL-41299  34.410  33.608   0.316
79934CL-    CL-41300  38.906  12.687   4.352
79935CL-    CL-41301  26.624  39.490  11.050
79936CL-    CL-41302  10.201   4.330   3.780
79937CL-    CL-41303  19.558  10.330   1.269
79938CL-    CL-41304  44.306  15.166   1.756
79939CL-    CL-41305  41.845  17.258   4.209
79940CL-    CL-41306  34.864  10.291   4.722
79941CL-    CL-41307   4.444  41.340  12.419
79942CL-    CL-41308   8.751  26.615  14.285
79943CL-    CL-41309  23.047  15.630   4.665
79944CL-    CL-41310  20.566  12.725   4.825
79945CL-    CL-41311  35.057  21.215   4.281
79946CL-    CL-41312  36.542  30.596  13.324
79947CL-    CL-41313  28.504   8.295   4.791
79948CL-    CL-41314  37.855  17.608   3.800
79949CL-    CL-41315  38.567  42.808   3.180
79950CL-    CL-41316  23.024   9.890   2.719
79951CL-    CL-41317  13.111  41.043   0.752
79952CL-    CL-41318  23.729  18.251   1.710
79953CL-    CL-41319  44.318  15.647  13.883
79954CL-    CL-41320  29.619   4.276   2.760
79955CL-    CL-41321  37.357   3.382   3.723
79956CL-    CL-41322  41.380   4.327   1.367
79957CL-    CL-41323  26.137   6.734   3.266
79958CL-    CL-41324  22.660  18.772  13.386
79959CL-    CL-41325  29.991  40.371  12.365
79960CL-    CL-41326  21.090  30.473  13.910
79961CL-    CL-41327  36.416  37.459  11.919
79962CL-    CL-41328  38.393   4.710  12.051
79963CL-    CL-41329   6.239  26.475  11.919
79964CL-    CL-41330   1.409  30.597   2.897
79965CL-    CL-41331   2.833  43.311   2.830
79966CL-    CL-41332  15.098  41.438  13.036
79967CL-    CL-41333  17.660  38.872   3.780
79968CL-    CL-41334   3.728  17.682  12.898
79969CL-    CL-41335  32.005  32.138   2.806
79970CL-    CL-41336  29.040  40.962  14.513
79971CL-    CL-41337  18.264  35.373  11.942
79972CL-    CL-41338  25.186  26.663  11.464
79973CL-    CL-41339  20.675  14.783  11.580
79974CL-    CL-41340  23.672  36.956   4.177
79975CL-    CL-41341  16.113  15.322   2.225
79976CL-    CL-41342  13.242  16.134   3.742
79977CL-    CL-41343  11.348  43.956  12.026
79978CL-    CL-41344  13.117  15.600   1.694
79979CL-    CL-41345   9.182  21.245  10.113
79980CL-    CL-41346  43.497   7.345  13.435
79981CL-    CL-41347  11.857  39.831  11.978
79982CL-    CL-41348  24.064  20.085  10.458
79983CL-    CL-41349  35.577  12.697   3.314
79984CL-    CL-41350   1.267  35.890   3.169
79985CL-    CL-41351  31.587  13.278  14.357
79986CL-    CL-41352   6.356  41.410   9.988
79987CL-    CL-41353  40.009  31.470   0.363
79988CL-    CL-41354   7.237   2.734  10.059
79989CL-    CL-41355  38.519  39.340   4.618
79990CL-    CL-41356  37.932  25.989   0.331
79991CL-    CL-41357  34.902  14.599  14.430
79992CL-    CL-41358  25.150  17.063  10.995
79993CL-    CL-41359   9.199  41.902  10.494
79994CL-    CL-41360  28.014  20.078   1.730
79995CL-    CL-41361  19.151  30.953  14.319
79996CL-    CL-41362   1.283  26.970  13.964
79997CL-    CL-41363   1.737  33.552  11.946
79998CL-    CL-41364  33.005   0.357   0.825
79999CL-    CL-41365   9.793  43.965   1.397
80000CL-    CL-41366   3.248  40.407   0.277
80001CL-    CL-41367  31.915  34.461  12.076
80002CL-    CL-41368   2.912   4.281  14.784
80003CL-    CL-41369  39.366  12.123   0.246
80004CL-    CL-41370  35.938  21.569  13.893
80005CL-    CL-41371  34.903  32.551  12.039
80006CL-    CL-41372  26.624  42.835   3.367
80007CL-    CL-41373   7.376  41.031  14.818
80008CL-    CL-41374  18.165  32.983   3.796
80009CL-    CL-41375   7.800  28.090  14.456
80010CL-    CL-41376  23.190  28.671   3.644
80011CL-    CL-41377  30.604   7.773  14.768
80012CL-    CL-41378  10.869  18.288   0.833
80013CL-    CL-41379  19.770   0.849  14.340
80014CL-    CL-41380  18.197  39.930   4.278
80015CL-    CL-41381  13.675  40.804   0.481
80016CL-    CL-41382  11.625  31.572  12.050
80017CL-    CL-41383  15.752  15.101  13.342
80018CL-    CL-41384  12.194   3.761   4.686
80019CL-    CL-41385  24.978  16.104   2.391
80020CL-    CL-41386  40.421  17.155   4.322
80021CL-    CL-41387  17.579  28.453   4.734
80022CL-    CL-41388   4.289   4.796   3.208
80023CL-    CL-41389  22.150  36.444  11.917
80024CL-    CL-41390   8.768  12.641   3.712
80025CL-    CL-41391  11.846  24.502   1.377
80026CL-    CL-41392  33.874  31.062  14.303
80027CL-    CL-41393   5.370   7.784   3.771
80028CL-    CL-41394  21.018  18.266  13.368
80029CL-    CL-41395  13.764  41.326  12.828
80030CL-    CL-41396  33.890  11.843  10.906
80031CL-    CL-41397  18.296  14.235  12.027
80032CL-    CL-41398   1.296  35.064   0.256
80033CL-    CL-41399  41.371   5.857  14.465
80034CL-    CL-41400  40.052  22.622   2.725
80035CL-    CL-41401   3.903  13.138   3.305
80036CL-    CL-41402   4.419  27.507  13.331
80037CL-    CL-41403  16.092  30.417  11.984
80038CL-    CL-41404  27.573   4.395   0.903
80039CL-    CL-41405  17.219  37.044  13.354
80040CL-    CL-41406   1.295  43.999  13.035
80041CL-    CL-41407   3.811   2.781   0.360
80042CL-    CL-41408  12.142  40.007   2.191
80043CL-    CL-41409  31.134  12.820  11.917
80044CL-    CL-41410  23.105  33.616  13.431
80045CL-    CL-41411  23.077   0.475  11.917
80046CL-    CL-41412  17.588  13.270  11.461
80047CL-    CL-41413  22.147   9.736   1.718
80048CL-    CL-41414   2.955   1.886  12.927
80049CL-    CL-41415  23.594  43.875   1.882
80050CL-    CL-41416  24.000  22.501   4.731
80051CL-    CL-41417  14.154  12.249  14.915
80052CL-    CL-41418  32.997  15.731  13.984
80053CL-    CL-41419  40.883  13.289   2.828
80054CL-    CL-41420  14.338   1.946  12.970
80055CL-    CL-41421   9.856   3.422  14.319
80056CL-    CL-41422  14.143  36.096   1.796
80057CL-    CL-41423  22.244  14.148  10.899
80058CL-    CL-41424  37.872  32.526   2.690
80059CL-    CL-41425  29.977  20.160   2.291
80060CL-    CL-41426  23.642  38.376   2.852
80061CL-    CL-41427  42.782  33.931  14.473
80062CL-    CL-41428  11.864  10.237   2.349
80063CL-    CL-41429   8.795   1.833   3.707
80064CL-    CL-41430   0.857   2.230  12.958
80065CL-    CL-41431  32.467  41.819  12.406
80066CL-    CL-41432  42.990  39.864  11.385
80067CL-    CL-41433  29.423  40.043   2.299
80068CL-    CL-41434  24.643  10.744  14.985
80069CL-    CL-41435  17.242  32.505  10.937
80070CL-    CL-41436  39.915  25.533   2.736
80071CL-    CL-41437  22.688  23.119   2.851
80072CL-    CL-41438  27.995  28.558   1.745
80073CL-    CL-41439  34.473   4.702  13.987
80074CL-    CL-41440   8.744   7.831  13.812
80075CL-    CL-41441  21.165  12.142  11.922
80076CL-    CL-41442  42.842  25.482  11.898
80077CL-    CL-41443  26.134  10.697   3.673
80078CL-    CL-41444  15.125  41.959  14.857
80079CL-    CL-41445  29.590  24.550  13.531
80080CL-    CL-41446   0.248   0.865  11.391
80081CL-    CL-41447   2.798   8.326  13.380
80082CL-    CL-41448   1.276  38.422  14.836
80083CL-    CL-41449  27.623   2.426   3.696
80084CL-    CL-41450   1.798  14.323  14.310
80085CL-    CL-41451  14.623  43.401   2.866
80086CL-    CL-41452  20.612   5.257   9.671
80087CL-    CL-41453  33.602  12.637   2.736
80088CL-    CL-41454  17.209  29.620   0.886
80089CL-    CL-41455  41.019   2.877   0.913
80090CL-    CL-41456   0.937  25.051  13.845
80091CL-    CL-41457   8.329  15.113   9.971
80092CL-    CL-41458  41.500   2.741  13.504
80093CL-    CL-41459  16.584  27.030  13.330
80094CL-    CL-41460  38.980  20.185  12.826
80095CL-    CL-41461  13.684  25.067   2.859
80096CL-    CL-41462  28.161  30.618   1.397
  45.00000  45.00000  15.00000   0.00000   0.00000   0.00000   0.00000   0.00000   0.00000

